Protein in INSANE! Membrane UpperLeaflet>POPC=1.0 LowerLeaflet>POPC=1.0
11530
    1AU     AUC    1   7.656   6.017   6.070 -0.0158  0.0210  0.0532
    1AU     AUC    2   7.720   6.170   6.169 -0.0956 -0.0068  0.0416
    1AU     AUC    3   7.696   6.143   5.970 -0.0734 -0.0056  0.0014
    1AU     AUC    4   7.583   5.904   6.186  0.0292  0.1239  0.0437
    1AU     AUC    5   7.560   5.901   5.976  0.0134  0.0116  0.0551
    1AU     AUC    6   7.737   5.873   6.049 -0.0744  0.0302  0.0218
    1AU     AUC    7   7.801   6.040   6.066 -0.0959 -0.0159 -0.0660
    1AU     AUC    8   7.478   6.040   6.108 -0.0248  0.0315  0.0314
    1AU     AUC    9   7.541   6.166   6.068 -0.0374 -0.0901  0.0292
    1AU     AUC   10   7.551   6.066   5.952 -0.0245  0.0512 -0.0079
    1AU     AUC   11   7.718   5.981   5.933  0.0259 -0.0807  0.1081
    1AU     AUC   12   7.565   6.073   6.238 -0.0876 -0.0400 -0.0228
    1AU     AUC   13   7.739   5.979   6.210 -0.0305 -0.0682  0.0099
    1AU     AUC   14   7.778   6.264   6.227  0.1201  0.0990  0.0847
    1AU     AUC   15   7.765   6.347   6.036  0.0067  0.1379 -0.0311
    1AU     AUC   16   7.763   6.250   5.893  0.0633 -0.0735 -0.0483
    1AU     AUC   17   7.542   5.776   6.230  0.0722 -0.0079  0.0595
    1AU     AUC   18   7.510   5.757   6.101 -0.0111  0.0394  0.0476
    1AU     AUC   19   7.501   5.788   5.917 -0.0197 -0.1201  0.0066
    1AU     AUC   20   7.789   5.730   6.071  0.0263 -0.0046  0.0981
    1AU     AUC   21   7.898   5.818   6.058 -0.0541 -0.0461 -0.0011
    1AU     AUC   22   7.958   6.039   6.057 -0.1322  0.0035 -0.0981
    1AU     AUC   23   7.323   5.991   6.113  0.0116  0.0373  0.0267
    1AU     AUC   24   7.331   6.150   6.084  0.0142 -0.0106  0.1250
    1AU     AUC   25   7.490   6.317   6.063 -0.0314 -0.0780 -0.0141
    1AU     AUC   26   7.462   6.117   5.804 -0.0315 -0.0140  0.0405
    1AU     AUC   27   7.672   6.002   5.727  0.0235 -0.0313 -0.0458
    1AU     AUC   28   7.797   5.952   5.790 -0.0423 -0.0550 -0.0441
    1AU     AUC   29   7.550   6.107   6.378  0.0411 -0.0315 -0.0134
    1AU     AUC   30   7.683   6.052   6.421  0.0475  0.0430  0.0677
    1AU     AUC   31   7.824   5.974   6.332 -0.0101 -0.1148 -0.0742
    1AU     AUC   32   7.618   6.180   5.768  0.0440  0.0457  0.0240
    1AU     AUC   33   7.796   6.149   5.824  0.0013 -0.0289 -0.0256
    1AU     AUC   34   7.654   6.221   6.312  0.0237  0.0774 -0.0498
    1AU     AUC   35   7.844   6.107   6.328 -0.0308 -0.0405  0.0581
    1AU     AUC   36   7.441   5.976   5.847  0.0401 -0.0101 -0.0032
    1AU     AUC   37   7.675   5.893   5.774  0.0578 -0.0288 -0.0609
    1AU     AUC   38   7.504   5.925   6.354  0.0799  0.0392  0.0450
    1AU     AUC   39   7.703   5.859   6.336 -0.0309 -0.0479  0.0514
    1AU     AUC   40   7.903   6.194   6.162 -0.0328  0.0266  0.0636
    1AU     AUC   41   7.846   6.236   5.946 -0.0479  0.0353  0.0135
    1AU     AUC   42   7.643   5.715   6.172  0.0494  0.0381  0.0599
    1AU     AUC   43   7.652   5.724   5.934 -0.0609  0.0699 -0.0506
    1AU     AUC   44   7.657   6.328   6.163  0.0080 -0.0458  0.0017
    1AU     AUC   45   7.571   6.330   5.980  0.0330 -0.0245  0.0329
    1AU     AUC   46   7.376   5.879   6.188 -0.0228 -0.0672  0.0164
    1AU     AUC   47   7.376   5.822   5.993 -0.0530 -0.0200  0.0550
    1AU     AUC   48   7.827   5.806   5.908  0.0190 -0.0156 -0.0022
    1AU     AUC   49   7.928   6.008   5.918 -0.1081  0.0119 -0.0884
    1AU     AUC   50   7.322   6.025   5.944  0.0225  0.0258  0.0719
    1AU     AUC   51   7.421   6.278   5.959  0.0938 -0.0181 -0.0687
    1AU     AUC   52   7.865   5.819   6.243  0.0433  0.0184  0.0647
    1AU     AUC   53   7.950   6.001   6.191  0.0316 -0.0181 -0.0240
    1AU     AUC   54   7.386   6.084   6.270 -0.0400  0.0031 -0.1678
    1AU     AUC   55   7.477   6.282   6.263  0.0808  0.0942  0.0169
    1AU    AUSL   56   7.745   6.324   5.529 -0.0125 -0.0406 -0.0515
    1AU    AUSL   57   7.440   6.369   5.586 -0.0630 -0.0759  0.0113
    1AU     AUL   58   7.713   6.689   5.618 -0.0365  0.0821  0.0363
    1AU       S   59   7.035   6.642   5.401  0.2521  0.1162 -0.1966
    1AU     LIG   60   7.016   6.747   5.023  0.0498 -0.1517  0.0220
    1AU     LIG   61   6.768   6.585   4.646 -0.2410  0.2146 -0.1155
    1AU       S   62   7.736   6.466   5.096 -0.1594  0.0383  0.0157
    1AU     LIG   63   7.970   6.872   5.087 -0.0782 -0.2446 -0.5282
    1AU     LIG   64   8.216   7.162   5.050 -0.1747 -0.6080  0.4563
    1AU    AUSL   65   7.570   6.139   5.651  0.0105 -0.1449  0.0193
    1AU    AUSL   66   7.626   5.872   5.671 -0.0137  0.1485 -0.0221
    1AU     AUL   67   7.539   6.118   5.456  0.0181 -0.0059  0.0653
    1AU       S   68   7.465   6.436   5.068 -0.1509  0.2045 -0.0677
    1AU     LIG   69   7.502   6.844   4.975  0.1848 -0.0181 -0.0738
    1AU     LIG   70   7.254   7.135   4.768  0.2753  0.2808 -0.1618
    1AU       S   71   7.014   5.498   5.184 -0.1154 -0.4920 -0.0997
    1AU     LIG   72   6.862   5.114   4.973  0.2610  0.0002 -0.2039
    1AU     LIG   73   6.807   4.770   4.682 -0.0846 -0.0071 -0.1568
    1AU    AUSL   74   7.809   6.060   5.517 -0.0020 -0.0178 -0.0022
    1AU    AUSL   75   7.900   6.222   5.737 -0.0364  0.1033 -0.0336
    1AU     AUL   76   8.059   6.257   5.769  0.0389  0.0579  0.0164
    1AU       S   77   7.949   5.969   5.048 -0.4511 -0.2099  0.1978
    1AU     LIG   78   8.112   6.287   4.664 -0.0206  0.0439  0.1072
    1AU     LIG   79   8.304   6.633   4.247  0.1339  0.2287  0.0190
    1AU       S   80   8.217   6.351   5.235 -0.0162 -0.4940  0.0213
    1AU     LIG   81   8.521   6.711   5.364 -0.0464 -0.0350 -0.0163
    1AU     LIG   82   8.560   7.086   5.631 -0.0803 -0.1855 -0.2031
    1AU    AUSL   83   7.732   6.207   6.667 -0.0517  0.1199  0.0423
    1AU    AUSL   84   8.136   6.203   6.358  0.0357 -0.0342  0.0164
    1AU     AUL   85   8.063   6.080   6.668  0.0352  0.0082 -0.0047
    1AU       S   86   7.741   6.423   7.040 -0.1881 -0.0381  0.2037
    1AU     LIG   87   8.181   6.442   7.082 -0.5152 -0.3467  0.0319
    1AU     LIG   88   8.618   6.221   7.173 -0.0551 -0.2960  0.3300
    1AU       S   89   8.466   6.411   6.597 -0.2470 -0.3229  0.0010
    1AU     LIG   90   8.848   6.340   6.474 -0.3822 -0.1204 -0.0554
    1AU     LIG   91   9.226   6.200   6.556 -0.7182  0.0026 -0.2967
    1AU    AUSL   92   7.497   6.170   6.525  0.0203  0.0200 -0.0397
    1AU    AUSL   93   7.692   6.338   6.420  0.0408 -0.0425  0.0109
    1AU     AUL   94   7.752   6.507   6.459 -0.0525 -0.0358 -0.0052
    1AU       S   95   7.487   7.018   6.892  0.2938 -0.2054  0.3622
    1AU     LIG   96   7.060   7.205   6.951  0.0750  0.3751 -0.1101
    1AU     LIG   97   6.800   7.565   7.124 -0.1394 -0.1516 -0.0617
    1AU       S   98   7.389   6.357   7.087 -0.2516  0.0099  0.0636
    1AU     LIG   99   7.131   6.349   7.457  0.4372 -0.0339  0.0716
    1AU     LIG  100   6.898   6.539   7.658  0.0518  0.1136 -0.2735
    1AU    AUSL  101   7.884   6.124   6.439 -0.0692  0.0387 -0.0409
    1AU    AUSL  102   7.571   5.974   6.707 -0.0567  0.0873 -0.0819
    1AU     AUL  103   7.952   6.313   6.565  0.0448  0.0265  0.0484
    1AU       S  104   7.476   5.859   7.159  0.3152  0.2202  0.1059
    1AU     LIG  105   6.990   5.910   7.177 -0.3402 -0.2905  0.0896
    1AU     LIG  106   6.564   5.920   6.942  0.1495 -0.0562 -0.3822
    1AU       S  107   7.563   6.629   7.193  0.1277  0.1077  0.2506
    1AU     LIG  108   8.022   6.874   7.215  0.1566 -0.1764  0.1622
    1AU     LIG  109   8.478   6.829   7.029  0.3357  0.0808 -0.0893
    1AU    AUSL  110   7.389   5.709   5.691  0.0769  0.0273 -0.0385
    1AU    AUSL  111   7.866   5.792   5.756  0.0379 -0.0319  0.0173
    1AU     AUL  112   7.619   5.820   5.440 -0.0138 -0.0861 -0.0566
    1AU       S  113   7.227   5.437   5.339 -0.2487 -0.0565  0.1179
    1AU     LIG  114   7.385   5.172   5.133  0.1058  0.2704 -0.0370
    1AU     LIG  115   7.251   5.059   4.683 -0.5182 -0.2706 -0.1508
    1AU       S  116   8.135   5.336   5.431  0.2214 -0.3598 -0.3019
    1AU     LIG  117   8.421   4.959   5.264  0.1232 -0.0097  0.1962
    1AU     LIG  118   8.504   4.628   5.457 -0.1054  0.0429 -0.0354
    1AU    AUSL  119   7.372   5.908   5.505 -0.0517  0.0104 -0.0708
    1AU    AUSL  120   7.146   5.866   5.769  0.0811 -0.0784  0.0062
    1AU     AUL  121   7.282   6.114   5.535 -0.0517 -0.1270 -0.0178
    1AU       S  122   6.781   5.714   5.563 -0.1361  0.9085  0.1947
    1AU     LIG  123   6.706   5.962   5.200 -0.1598  0.3410  0.1679
    1AU     LIG  124   6.633   6.023   4.787  0.0829  0.3158  0.2424
    1AU       S  125   7.138   5.674   5.173 -0.0049 -0.2498  0.0160
    1AU     LIG  126   7.135   6.040   4.973 -0.3793  0.1383 -0.0129
    1AU     LIG  127   7.072   6.218   4.675 -0.0059  0.2077  0.1796
    1AU    AUSL  128   7.529   5.718   6.605 -0.0060 -0.0905 -0.0450
    1AU    AUSL  129   7.437   5.913   6.450 -0.0621 -0.1053 -0.0831
    1AU     AUL  130   7.241   6.040   6.664 -0.0229  0.0166 -0.0629
    1AU       S  131   7.476   5.566   7.065 -0.1765 -0.1866  0.1843
    1AU     LIG  132   7.898   5.383   7.310  0.1436 -0.2054 -0.0147
    1AU     LIG  133   8.266   5.580   7.147 -0.1236 -0.1936 -0.1372
    1AU       S  134   6.930   5.366   6.892 -0.1867 -0.3684 -0.2432
    1AU     LIG  135   7.086   4.942   6.714  0.1036  0.3084 -0.1736
    1AU     LIG  136   6.981   4.480   6.520  0.2281 -0.1477 -0.0685
    1AU    AUSL  137   7.733   5.894   6.495 -0.0392 -0.0179 -0.0072
    1AU    AUSL  138   7.658   5.671   6.360 -0.0312 -0.0397 -0.0034
    1AU     AUL  139   7.837   5.924   6.628  0.0462 -0.0539 -0.0033
    1AU       S  140   7.590   5.225   6.758 -0.2635 -0.0395 -0.3599
    1AU     LIG  141   7.651   4.960   7.039  0.4017  0.1201  0.1025
    1AU     LIG  142   7.887   4.903   7.400  0.2848  0.3509  0.2760
    1AU       S  143   7.423   5.468   7.248 -0.0621 -0.1299  0.0835
    1AU     LIG  144   7.072   5.500   7.392 -0.1775 -0.3526 -0.0537
    1AU     LIG  145   6.650   5.632   7.324  0.1467  0.1072 -0.1937
    1AU    AUSL  146   8.025   6.231   6.060 -0.0319 -0.0529 -0.0383
    1AU    AUSL  147   7.924   6.366   6.287  0.0288  0.0210 -0.0099
    1AU     AUL  148   8.155   6.234   6.034  0.0082 -0.0385  0.0211
    1AU       S  149   8.245   6.703   6.582  0.2720 -0.3527  0.4611
    1AU     LIG  150   7.991   7.073   6.760  0.0274  0.0892  0.1126
    1AU     LIG  151   7.840   7.366   7.097 -0.1228  0.0166 -0.0816
    1AU       S  152   8.090   7.214   6.011  0.1922  0.1733 -0.0619
    1AU     LIG  153   7.936   7.603   5.927 -0.1517  0.2271 -0.1969
    1AU     LIG  154   7.863   8.097   5.790  0.1237 -0.0982 -0.3115
    1AU    AUSL  155   8.070   6.503   6.100  0.0646 -0.0272 -0.0585
    1AU    AUSL  156   7.639   6.605   5.944 -0.0246  0.0139  0.0032
    1AU     AUL  157   7.925   6.504   5.718 -0.0216 -0.0543  0.0853
    1AU       S  158   8.222   6.925   6.150 -0.3627 -0.2815 -0.1236
    1AU     LIG  159   8.697   6.853   6.073 -0.0867 -0.2773 -0.0518
    1AU     LIG  160   9.091   7.065   6.080 -0.3866  0.2567 -0.0086
    1AU       S  161   7.547   7.087   5.905  0.3171 -0.0920 -0.3340
    1AU     LIG  162   7.483   7.472   5.869 -0.2738 -0.0170 -0.0087
    1AU     LIG  163   7.613   7.701   5.533  0.0680  0.3701  0.1132
    1AU    AUSL  164   7.848   6.412   5.966  0.0303  0.0301  0.0322
    1AU    AUSL  165   8.036   6.012   5.905 -0.0245  0.1088  0.0048
    1AU     AUL  166   8.208   6.470   5.858  0.0836 -0.0117  0.0791
    1AU       S  167   8.482   6.239   5.135 -0.2055  0.1038 -0.5531
    1AU     LIG  168   8.498   6.008   4.746  0.0906 -0.1535  0.0383
    1AU     LIG  169   8.688   5.755   4.360  0.2275 -0.0559  0.0054
    1AU       S  170   8.114   6.957   5.865 -0.2705  0.0020 -0.1406
    1AU     LIG  171   7.956   7.300   5.509  0.2150  0.2631 -0.1192
    1AU     LIG  172   8.019   7.656   5.203  0.3299  0.0970 -0.0124
    1AU    AUSL  173   7.749   5.588   6.095 -0.0545  0.0598 -0.0074
    1AU    AUSL  174   7.692   5.598   5.641 -0.0412  0.0037  0.0158
    1AU     AUL  175   7.714   5.442   6.041 -0.0253 -0.0236 -0.0283
    1AU       S  176   7.829   5.348   5.229  0.0531  0.2439 -0.3845
    1AU     LIG  177   7.841   4.970   5.021  0.3357  0.1293  0.3359
    1AU     LIG  178   7.791   4.498   5.178  0.4011 -0.2243  0.1340
    1AU       S  179   7.943   4.997   6.088 -0.0481  0.0875  0.5507
    1AU     LIG  180   8.343   4.817   5.906 -0.0163 -0.1355 -0.0709
    1AU     LIG  181   8.694   4.830   6.021  0.1086  0.0119  0.0032
    1AU    AUSL  182   7.488   5.614   6.155 -0.0341 -0.1377 -0.0958
    1AU    AUSL  183   7.829   5.462   6.328  0.0837 -0.0948  0.0206
    1AU     AUL  184   7.427   5.479   6.036 -0.0180 -0.0042 -0.0200
    1AU       S  185   7.152   5.087   6.265  0.0363  0.0795  0.0567
    1AU     LIG  186   7.449   4.797   6.308 -0.0955  0.1315  0.3070
    1AU     LIG  187   7.872   4.619   6.410 -0.2809 -0.1579 -0.4063
    1AU       S  188   8.000   5.117   6.548 -0.0458 -0.0830 -0.1142
    1AU     LIG  189   8.349   4.791   6.420 -0.1022  0.1078  0.3914
    1AU     LIG  190   8.672   4.456   6.386  0.2468 -0.1541 -0.0537
    1AU    AUSL  191   7.578   5.646   5.889  0.0943  0.0166  0.0017
    1AU    AUSL  192   7.206   5.578   6.162  0.0090  0.0756  0.0434
    1AU     AUL  193   7.536   5.438   6.274 -0.0043  0.0235  0.0515
    1AU       S  194   6.889   5.304   5.939  0.3915  0.4687  0.0085
    1AU     LIG  195   6.434   5.309   6.154 -0.1464 -0.0838  0.3328
    1AU     LIG  196   6.226   5.546   6.455  0.2712  0.0278 -0.1780
    1AU       S  197   7.495   5.099   5.686 -0.1791 -0.0835 -0.2147
    1AU     LIG  198   7.609   4.668   5.753  0.2187  0.0342 -0.2617
    1AU     LIG  199   7.725   4.350   5.988 -0.0793  0.0240  0.0902
    1AU    AUSL  200   7.413   6.536   6.092 -0.1109  0.0865  0.0217
    1AU    AUSL  201   7.627   6.367   5.796  0.0364  0.0992 -0.0565
    1AU     AUL  202   7.648   6.466   5.755  0.0096 -0.0560  0.0040
    1AU       S  203   7.252   7.019   6.065  0.2231 -0.2669 -0.2323
    1AU     LIG  204   6.751   7.030   5.887 -0.3853 -0.0848  0.0678
    1AU     LIG  205   6.237   6.834   5.898 -0.2302  0.0145 -0.0349
    1AU       S  206   6.859   6.959   5.429  0.4722 -0.0590  0.2621
    1AU     LIG  207   6.555   7.245   5.356  0.3739  0.2445 -0.3317
    1AU     LIG  208   6.280   7.233   4.953  0.3684  0.1403  0.2158
    1AU    AUSL  209   7.686   6.475   6.179 -0.1022 -0.0452 -0.1181
    1AU    AUSL  210   7.506   6.621   6.334 -0.0362 -0.0077  0.0411
    1AU     AUL  211   7.805   6.615   6.169 -0.1550  0.0584  0.0319
    1AU       S  212   7.620   7.070   6.116 -0.1226 -0.4747  0.0661
    1AU     LIG  213   7.780   7.431   6.420 -0.2673 -0.4907  0.3250
    1AU     LIG  214   7.872   7.868   6.524  0.2386  0.2213 -0.0778
    1AU       S  215   7.398   6.978   6.527 -0.2517 -0.2497 -0.4652
    1AU     LIG  216   6.894   6.848   6.572 -0.2166  0.0943  0.0762
    1AU     LIG  217   6.505   6.882   6.832  0.1287  0.0456 -0.2110
    1AU    AUSL  218   7.274   5.849   6.204  0.0220  0.0146 -0.0834
    1AU    AUSL  219   7.355   5.655   6.395 -0.0843  0.0191  0.0541
    1AU     AUL  220   6.955   5.721   6.297  0.0565 -0.0954  0.0085
    1AU       S  221   7.154   5.396   6.747 -0.4313  0.2939  0.0863
    1AU     LIG  222   6.692   5.231   6.550 -0.0923  0.0729  0.1250
    1AU     LIG  223   6.646   4.871   6.275  0.0410  0.3077 -0.0403
    1AU       S  224   6.738   5.154   5.687 -0.2053  0.5193 -0.1668
    1AU     LIG  225   6.583   4.757   5.728 -0.2084  0.0056 -0.0655
    1AU     LIG  226   6.537   4.378   6.142  0.4680  0.0963  0.1795
    1AU    AUSL  227   7.312   5.729   5.951 -0.0339  0.0895 -0.0245
    1AU    AUSL  228   7.046   5.784   6.019 -0.0634  0.0890  0.0309
    1AU     AUL  229   7.067   5.969   6.218  0.0315  0.0236 -0.0596
    1AU       S  230   6.646   5.745   5.855 -0.5088  0.0553  0.0350
    1AU     LIG  231   6.180   5.690   5.981 -0.0555  0.2273  0.2173
    1AU     LIG  232   5.671   5.721   6.046 -0.0584  0.0917  0.0623
    1AU       S  233   7.020   5.262   5.723 -0.0126 -0.1609 -0.1836
    1AU     LIG  234   7.067   4.781   5.863  0.1968  0.2451 -0.1498
    1AU     LIG  235   7.036   4.319   6.017 -0.1078 -0.1643 -0.7515
    1AU    AUSL  236   8.140   5.772   5.775  0.1142  0.0955 -0.0469
    1AU    AUSL  237   7.880   5.540   5.848  0.0048 -0.0810 -0.0924
    1AU     AUL  238   7.875   5.785   5.552  0.0461  0.0272 -0.0128
    1AU       S  239   8.104   5.185   5.631 -0.2097 -0.0393 -0.2568
    1AU     LIG  240   7.974   4.869   5.504 -0.2558 -0.3795  0.3195
    1AU     LIG  241   8.072   4.407   5.653  0.1407  0.1413 -0.0040
    1AU       S  242   8.493   5.593   5.626 -0.5206  0.1486  0.2794
    1AU     LIG  243   8.753   5.500   5.311 -0.3173 -0.4234  0.0328
    1AU     LIG  244   9.193   5.398   5.110  0.1594  0.0450  0.2375
    1AU    AUSL  245   8.006   5.753   6.005  0.0300  0.0078  0.0613
    1AU    AUSL  246   8.196   5.766   6.216  0.1074 -0.0021 -0.1689
    1AU     AUL  247   8.013   5.503   6.096 -0.0659 -0.0119  0.0158
    1AU       S  248   8.693   5.741   5.736  0.1587 -0.2693 -0.2683
    1AU     LIG  249   9.185   5.761   5.646  0.4651 -0.3145 -0.1742
    1AU     LIG  250   9.567   5.954   5.488 -0.0085 -0.3331 -0.3790
    1AU       S  251   8.657   5.714   6.385  0.0466 -0.0185 -0.0912
    1AU     LIG  252   8.939   5.982   6.157 -0.0529  0.4056 -0.4133
    1AU     LIG  253   9.190   6.449   6.100  0.5508  0.0063 -0.4811
    1AU    AUSL  254   8.278   5.895   5.986  0.0010 -0.0245  0.0226
    1AU    AUSL  255   8.045   5.994   5.632 -0.0034  0.0311  0.0088
    1AU     AUL  256   8.338   6.188   5.835 -0.0417 -0.0041 -0.0729
    1AU       S  257   8.413   6.135   5.330  0.0379  0.1250  0.1847
    1AU     LIG  258   8.845   6.251   5.593  0.2177  0.2755 -0.0246
    1AU     LIG  259   9.003   6.722   5.667  0.2041  0.0382  0.0266
    1AU       S  260   8.631   5.587   5.940  0.2296  0.0126  0.3645
    1AU     LIG  261   8.839   5.262   5.763  0.2000  0.0015 -0.2978
    1AU     LIG  262   9.278   5.198   5.583  0.0613  0.3088  0.1475
    1AU    AUSL  263   7.341   6.252   5.813  0.0413  0.0229 -0.0298
    1AU    AUSL  264   7.383   6.540   5.817 -0.1089 -0.0352 -0.0360
    1AU     AUL  265   7.189   6.227   5.771 -0.0075  0.0418  0.0421
    1AU       S  266   6.435   6.133   5.984  0.3930  0.1115  0.2958
    1AU     LIG  267   6.033   6.177   6.100  0.0277  0.0104 -0.2519
    1AU     LIG  268   5.659   6.421   5.988  0.1195  0.4601 -0.3801
    1AU       S  269   7.149   6.845   5.577 -0.4496  0.1567 -0.0983
    1AU     LIG  270   7.083   7.404   5.637  0.1971  0.2640 -0.3438
    1AU     LIG  271   6.678   7.559   5.763  0.0745 -0.1307 -0.2752
    1AU    AUSL  272   7.200   6.033   5.987 -0.0601 -0.0477 -0.0113
    1AU    AUSL  273   7.383   5.989   5.768 -0.0177 -0.0263  0.0227
    1AU     AUL  274   7.058   6.121   5.991  0.0316 -0.0375  0.0757
    1AU       S  275   6.623   6.253   5.809 -0.0195  0.2427 -0.4377
    1AU     LIG  276   6.520   6.559   5.533  0.3530 -0.2280 -0.0054
    1AU     LIG  277   6.530   6.791   5.190 -0.0369 -0.0362  0.1459
    1AU       S  278   6.553   5.557   5.594  0.0294 -0.1094  0.0554
    1AU     LIG  279   6.072   5.588   5.506  0.0977  0.1670 -0.0882
    1AU     LIG  280   5.917   5.468   5.193  0.3322 -0.1646 -0.1274
    1AU    AUSL  281   7.281   6.284   6.069 -0.0243  0.0383 -0.0123
    1AU    AUSL  282   7.059   6.255   6.228  0.1000  0.0291 -0.0118
    1AU     AUL  283   7.165   6.420   5.975 -0.0675  0.0376 -0.0957
    1AU       S  284   6.680   6.293   6.398  0.2465 -0.2509  0.4700
    1AU     LIG  285   6.163   6.050   6.568 -0.0885 -0.2857  0.4097
    1AU     LIG  286   5.764   5.854   6.648 -0.0383 -0.0548 -0.2401
    1AU       S  287   6.323   6.121   5.702  0.2013  0.4265  0.1125
    1AU     LIG  288   6.025   6.422   5.614  0.1053 -0.3657 -0.3020
    1AU     LIG  289   6.055   6.798   5.398  0.1970  0.0507  0.1212
    1AU    AUSL  290   8.060   5.901   6.437  0.0005  0.0149  0.1100
    1AU    AUSL  291   8.068   6.003   6.191  0.0203  0.0245  0.0044
    1AU     AUL  292   8.338   6.086   6.175  0.1208 -0.0104 -0.0651
    1AU       S  293   8.515   5.820   6.675 -0.1178  0.1478  0.3156
    1AU     LIG  294   8.600   5.387   6.832  0.0067 -0.1020  0.0701
    1AU     LIG  295   8.790   5.065   7.133 -0.1544  0.0553  0.0136
    1AU       S  296   8.532   6.720   6.576  0.1901 -0.3593 -0.0738
    1AU     LIG  297   8.484   7.108   6.629  0.2790 -0.1183 -0.0017
    1AU     LIG  298   8.288   7.466   6.429  0.1345  0.4103 -0.2337
    1AU    AUSL  299   7.927   5.719   6.260  0.1035  0.0285 -0.0094
    1AU    AUSL  300   7.898   5.660   6.524  0.0045 -0.0023 -0.0260
    1AU     AUL  301   8.192   5.513   6.336 -0.0654  0.0394  0.0368
    1AU       S  302   8.846   5.835   6.653 -0.1847 -0.4908 -0.1230
    1AU     LIG  303   9.285   5.751   6.709 -0.3321  0.0943 -0.3121
    1AU     LIG  304   9.678   5.465   6.769  0.4747  0.0435  0.2581
    1AU       S  305   7.921   5.376   6.828 -0.2990  0.2314  0.0083
    1AU     LIG  306   8.253   5.053   7.141  0.0051  0.0820  0.4412
    1AU     LIG  307   8.338   4.674   7.515 -0.0569 -0.2308  0.2907
    1AU    AUSL  308   7.271   6.111   6.347 -0.1231 -0.0097 -0.0463
    1AU    AUSL  309   7.165   5.865   6.456 -0.1394  0.0311 -0.0132
    1AU     AUL  310   7.241   6.277   6.515 -0.0462 -0.0030  0.0164
    1AU       S  311   6.909   5.580   6.802 -0.0738  0.2215 -0.1927
    1AU     LIG  312   6.406   5.363   6.894  0.2994  0.0388  0.3530
    1AU     LIG  313   6.135   5.048   6.526  0.2992 -0.0435  0.1672
    1AU       S  314   6.546   6.538   6.207  0.1103  0.1152 -0.1140
    1AU     LIG  315   6.461   7.042   6.309 -0.6244 -0.1147 -0.0487
    1AU     LIG  316   6.505   7.414   6.149 -0.1238  0.0584 -0.1388
    1AU    AUSL  317   7.420   6.363   6.304  0.0352 -0.0496 -0.0004
    1AU    AUSL  318   7.465   6.443   6.574 -0.0986 -0.0532 -0.0102
    1AU     AUL  319   7.225   6.480   6.280  0.0028  0.0003 -0.1007
    1AU       S  320   6.341   6.484   6.416 -0.3940  0.3354 -0.0796
    1AU     LIG  321   6.044   6.655   6.292  0.0073 -0.3069 -0.0389
    1AU     LIG  322   5.966   7.178   6.237 -0.0054 -0.3477  0.4735
    1AU       S  323   7.320   6.796   6.767 -0.3827 -0.2919  0.3883
    1AU     LIG  324   7.004   6.812   7.219 -0.0737  0.8154  0.0738
    1AU     LIG  325   6.959   7.027   7.588 -0.0838 -0.4484  0.1766
    2POPC   NC3  326   4.531   3.066   7.387  0.1387  0.0714  0.0030
    2POPC   PO4  327   4.722   2.719   7.499  0.1571 -0.2398  0.2551
    2POPC   GL1  328   4.780   2.892   7.032  0.0376 -0.1130  0.3894
    2POPC   GL2  329   4.731   2.642   6.937  0.1727  0.3767  0.2130
    2POPC   C1A  330   4.733   3.069   6.571 -0.2002  0.0022  0.1573
    2POPC   D2A  331   4.461   3.262   6.243 -0.0173 -0.0256 -0.0533
    2POPC   C3A  332   3.981   3.155   6.265  0.1911 -0.2506 -0.5814
    2POPC   C4A  333   3.670   3.342   6.084  0.0026 -0.1186  0.5091
    2POPC   C1B  334   4.573   2.437   6.612  0.0229 -0.2407  0.0455
    2POPC   C2B  335   4.357   2.687   6.370 -0.1028  0.2092 -0.1661
    2POPC   C3B  336   4.069   2.584   6.128  0.0327 -0.5972  0.2886
    2POPC   C4B  337   3.706   2.752   5.951 -0.1787 -0.2252 -0.2097
    3POPC   NC3  338   2.039  10.160   7.479  0.0027 -0.0357 -0.0520
    3POPC   PO4  339   2.135   9.752   7.401 -0.2380  0.4209 -0.2390
    3POPC   GL1  340   2.184   9.920   7.003 -0.0941 -0.1232  0.1122
    3POPC   GL2  341   1.972  10.071   6.822  0.1551  0.2419 -0.0748
    3POPC   C1A  342   2.440   9.796   6.741  0.1795 -0.1203 -0.2964
    3POPC   D2A  343   2.582   9.824   6.272 -0.2057 -0.0917  0.1544
    3POPC   C3A  344   2.392  10.032   5.960  0.1590 -0.1167  0.3549
    3POPC   C4A  345   2.345   9.961   5.654  0.0246 -0.0103 -0.2292
    3POPC   C1B  346   2.091  10.017   6.387  0.0227 -0.1199  0.1973
    3POPC   C2B  347   1.929  10.249   5.994  0.0290  0.2578 -0.0623
    3POPC   C3B  348   1.582  10.433   5.829 -0.2048  0.0240  0.2738
    3POPC   C4B  349   1.225  10.509   6.075 -0.2662 -0.5138 -0.0435
    4POPC   NC3  350   7.537   1.938   7.568 -0.0753  0.0350 -0.2902
    4POPC   PO4  351   7.502   1.639   7.166  0.0287  0.1568 -0.1341
    4POPC   GL1  352   7.258   1.575   6.826  0.1748  0.3148  0.4054
    4POPC   GL2  353   7.219   1.145   6.813  0.2901 -0.3175  0.1219
    4POPC   C1A  354   7.285   1.560   6.337  0.0819 -0.2004  0.0799
    4POPC   D2A  355   7.315   1.234   5.984 -0.0243  0.0709 -0.2392
    4POPC   C3A  356   7.272   0.676   6.017  0.0905 -0.1589 -0.3946
    4POPC   C4A  357   7.196   0.215   5.923 -0.3259 -0.1491 -0.2255
    4POPC   C1B  358   7.407   0.901   6.463  0.3863  0.0304 -0.1062
    4POPC   C2B  359   7.676   0.674   6.287 -0.0509 -0.1754  0.4465
    4POPC   C3B  360   7.720   0.351   6.100  0.2786  0.2501  0.1940
    4POPC   C4B  361   7.693   0.040   5.718 -0.0358 -0.2293 -0.0882
    5POPC   NC3  362   7.948   8.830   8.363  0.2342  0.2501 -0.2465
    5POPC   PO4  363   8.338   8.702   8.177  0.1821  0.0469  0.0166
    5POPC   GL1  364   8.196   8.623   7.790 -0.1291 -0.0081  0.0023
    5POPC   GL2  365   8.446   8.725   7.707 -0.0351  0.0004  0.0510
    5POPC   C1A  366   7.986   8.776   7.329 -0.0949 -0.1594  0.0483
    5POPC   D2A  367   8.042   8.923   6.886  0.2943  0.4733  0.1838
    5POPC   C3A  368   7.661   8.741   6.770 -0.0503 -0.1615  0.0434
    5POPC   C4A  369   7.518   8.633   6.327 -0.1568  0.1619 -0.0536
    5POPC   C1B  370   8.420   8.383   7.408 -0.1500  0.1794  0.0317
    5POPC   C2B  371   8.440   8.236   6.947  0.1823  0.1123  0.1200
    5POPC   C3B  372   8.398   7.927   6.650 -0.4243  0.2952  0.1632
    5POPC   C4B  373   8.250   8.014   6.124 -0.1385 -0.1367 -0.2350
    6POPC   NC3  374  10.507   1.212   7.803  0.0590  0.0616  0.1782
    6POPC   PO4  375  10.818   1.554   7.648 -0.1107 -0.3403  0.1722
    6POPC   GL1  376  10.682   1.819   7.095  0.0519 -0.0624  0.0775
    6POPC   GL2  377  10.909   1.804   6.891  0.4864 -0.0141  0.1052
    6POPC   C1A  378  10.531   2.007   6.740 -0.1545  0.0102  0.1934
    6POPC   D2A  379  10.595   2.042   6.289  0.1508  0.2512  0.0128
    6POPC   C3A  380  10.716   2.398   6.224  0.3495 -0.0524 -0.0246
    6POPC   C4A  381  10.799   2.716   5.954 -0.3477  0.0675  0.0600
    6POPC   C1B  382  10.827   1.334   7.065 -0.1817 -0.1045 -0.0503
    6POPC   C2B  383  10.710   0.824   6.871 -0.0984 -0.2512  0.1618
    6POPC   C3B  384  10.546   0.520   6.773  0.2870  0.3693  0.3131
    6POPC   C4B  385  10.429   0.334   6.317  0.3059  0.2850  0.0260
    7POPC   NC3  386   5.924   1.005   7.436  0.0368 -0.1666  0.2943
    7POPC   PO4  387   6.085   0.691   7.603 -0.0588  0.0939  0.0436
    7POPC   GL1  388   5.970   0.651   7.071  0.4093  0.0830 -0.3059
    7POPC   GL2  389   6.216   0.939   6.995 -0.1762  0.0866  0.1366
    7POPC   C1A  390   5.774   0.880   6.719  0.1781  0.0510  0.2067
    7POPC   D2A  391   5.803   0.876   6.254  0.0844  0.1150 -0.0056
    7POPC   C3A  392   5.905   0.471   5.990  0.2362  0.2262 -0.1589
    7POPC   C4A  393   5.659   0.294   5.545  0.0755  0.0307 -0.0617
    7POPC   C1B  394   6.329   0.797   6.590  0.0267 -0.2797 -0.1771
    7POPC   C2B  395   6.443   0.530   6.201  0.1747  0.2223  0.0834
    7POPC   C3B  396   6.342   0.154   5.894  0.0463 -0.2751 -0.3876
    7POPC   C4B  397   6.367  -0.284   5.743  0.0089  0.1661  0.2061
    8POPC   NC3  398   1.345   6.231   7.885  0.0074 -0.1635 -0.1414
    8POPC   PO4  399   1.822   5.942   7.841 -0.1064 -0.0881  0.2688
    8POPC   GL1  400   1.489   5.738   7.662  0.0358 -0.0980  0.0227
    8POPC   GL2  401   1.560   5.757   7.371 -0.1927 -0.0838 -0.2540
    8POPC   C1A  402   1.336   5.317   7.519  0.0891 -0.0478  0.0124
    8POPC   D2A  403   1.127   4.991   7.259 -0.0741 -0.0638  0.2702
    8POPC   C3A  404   1.045   5.027   6.836  0.1828 -0.1204  0.2695
    8POPC   C4A  405   0.610   5.078   6.582 -0.0546 -0.1223 -0.2141
    8POPC   C1B  406   1.898   5.850   7.123  0.1464 -0.4245 -0.1633
    8POPC   C2B  407   2.083   5.507   6.848 -0.1292 -0.0832 -0.0116
    8POPC   C3B  408   2.189   5.532   6.409 -0.0788 -0.3325  0.0999
    8POPC   C4B  409   2.211   5.159   6.095  0.0505 -0.2743 -0.1376
    9POPC   NC3  410   2.985   6.356   8.533  0.2491  0.2011  0.2765
    9POPC   PO4  411   3.200   6.462   8.208 -0.2606 -0.1970 -0.3118
    9POPC   GL1  412   3.162   6.251   7.810 -0.1365  0.2533  0.2074
    9POPC   GL2  413   3.472   6.107   7.626 -0.0689 -0.0967 -0.3014
    9POPC   C1A  414   3.060   6.103   7.337 -0.1942  0.0944 -0.1393
    9POPC   D2A  415   2.737   6.161   7.125 -0.1697 -0.1009  0.2831
    9POPC   C3A  416   2.691   6.328   6.737 -0.1222 -0.3118 -0.0322
    9POPC   C4A  417   2.851   6.339   6.343 -0.1081 -0.5921 -0.0009
    9POPC   C1B  418   3.676   5.984   7.308 -0.0693  0.0025  0.2352
    9POPC   C2B  419   3.868   5.906   7.058  0.3090  0.2305  0.1513
    9POPC   C3B  420   3.981   5.574   6.696 -0.2390  0.0151 -0.0196
    9POPC   C4B  421   4.054   5.558   6.259  0.0167 -0.0097 -0.0355
   10POPC   NC3  422   9.285   6.394   8.593  0.0258 -0.0965  0.1012
   10POPC   PO4  423   9.645   6.081   8.462 -0.0102  0.0131 -0.1047
   10POPC   GL1  424   9.443   6.237   8.105 -0.2200  0.0981 -0.1482
   10POPC   GL2  425   9.209   5.974   7.910  0.0035  0.2022  0.0998
   10POPC   C1A  426   9.390   6.425   7.767 -0.0299  0.0538  0.1463
   10POPC   D2A  427   9.620   6.641   7.491 -0.0104 -0.0463  0.1059
   10POPC   C3A  428  10.132   6.793   7.485  0.1934 -0.1271 -0.0030
   10POPC   C4A  429  10.422   6.935   7.312 -0.1058  0.2178 -0.1723
   10POPC   C1B  430   9.032   6.019   7.440  0.1239  0.2165  0.1832
   10POPC   C2B  431   9.114   6.108   7.068  0.0983 -0.0317 -0.0872
   10POPC   C3B  432   9.397   6.512   7.015 -0.0604  0.0863  0.0617
   10POPC   C4B  433   9.864   6.492   7.078  0.1625  0.0099 -0.2048
   11POPC   NC3  434   4.304   7.340   8.007  0.0388  0.2390  0.1448
   11POPC   PO4  435   4.011   7.530   8.156  0.2260  0.0877 -0.0075
   11POPC   GL1  436   3.866   7.429   7.750 -0.1561 -0.0918  0.3595
   11POPC   GL2  437   4.173   7.358   7.517  0.1611 -0.0342  0.0529
   11POPC   C1A  438   3.627   7.438   7.425  0.2206  0.1925 -0.0886
   11POPC   D2A  439   3.604   7.370   6.973 -0.1504 -0.0436  0.0500
   11POPC   C3A  440   3.375   7.611   6.586 -0.2847  0.1499  0.2055
   11POPC   C4A  441   3.187   7.490   6.164 -0.0768 -0.2769 -0.1081
   11POPC   C1B  442   4.036   7.179   7.100 -0.2747 -0.1503  0.0752
   11POPC   C2B  443   3.945   7.246   6.667  0.1442 -0.0431 -0.2635
   11POPC   C3B  444   3.675   7.100   6.375  0.1307 -0.2938 -0.0844
   11POPC   C4B  445   3.468   7.135   6.044 -0.4793 -0.0423  0.0489
   12POPC   NC3  446   0.527   8.013   8.035  0.1673 -0.1487 -0.0912
   12POPC   PO4  447   0.716   8.431   7.909 -0.2850  0.0104  0.0812
   12POPC   GL1  448   0.616   8.319   7.516  0.1794 -0.1679 -0.0571
   12POPC   GL2  449   0.356   8.120   7.519 -0.1052 -0.1900 -0.1660
   12POPC   C1A  450   0.666   8.215   7.150  0.1111  0.0690 -0.0480
   12POPC   D2A  451   0.507   8.114   6.722  0.0312  0.2300 -0.0596
   12POPC   C3A  452   0.627   8.459   6.527 -0.1142  0.1628 -0.0025
   12POPC   C4A  453   0.711   8.811   6.409  0.1507  0.1250 -0.0534
   12POPC   C1B  454   0.123   8.166   7.107 -0.0008 -0.0425 -0.1510
   12POPC   C2B  455   0.073   7.905   6.714  0.1666 -0.1771 -0.0673
   12POPC   C3B  456   0.362   7.593   6.544  0.2040  0.0174 -0.1466
   12POPC   C4B  457   0.717   7.556   6.405 -0.1496  0.0192  0.2048
   13POPC   NC3  458  10.129   6.126   8.267  0.0543 -0.2336  0.1608
   13POPC   PO4  459  10.463   6.368   8.114 -0.3460  0.1188 -0.0914
   13POPC   GL1  460  10.364   6.355   7.675  0.1735 -0.1495  0.3293
   13POPC   GL2  461  10.620   6.389   7.502  0.4126 -0.3172 -0.1401
   13POPC   C1A  462  10.043   6.123   7.433 -0.0948  0.0096 -0.2536
   13POPC   D2A  463  10.153   5.931   7.025 -0.2138 -0.0065  0.0750
   13POPC   C3A  464  10.258   6.294   6.657  0.2371  0.0580  0.5987
   13POPC   C4A  465  10.429   6.676   6.337  0.3325  0.1065  0.1800
   13POPC   C1B  466  10.359   6.368   7.127  0.0248 -0.1036  0.0246
   13POPC   C2B  467  10.322   6.692   6.915  0.0864  0.1812 -0.3393
   13POPC   C3B  468   9.955   6.653   6.533 -0.1416  0.1193 -0.0149
   13POPC   C4B  469   9.663   7.031   6.314 -0.1961 -0.0463  0.0515
   14POPC   NC3  470   6.450   1.136   7.654  0.0606 -0.4323  0.1929
   14POPC   PO4  471   6.158   1.524   7.594  0.0858 -0.2046 -0.1858
   14POPC   GL1  472   6.052   1.436   7.086 -0.1439  0.3035 -0.0280
   14POPC   GL2  473   6.178   1.736   6.955 -0.1564 -0.2300  0.3353
   14POPC   C1A  474   6.117   1.272   6.670  0.0516  0.0623  0.1929
   14POPC   D2A  475   6.267   1.284   6.307 -0.1016 -0.2304  0.0299
   14POPC   C3A  476   6.092   1.174   5.871 -0.0530  0.2078  0.3311
   14POPC   C4A  477   5.848   1.065   5.513 -0.1434  0.0128  0.3139
   14POPC   C1B  478   6.041   1.748   6.552 -0.1337 -0.0330 -0.1520
   14POPC   C2B  479   5.978   1.676   6.071 -0.0144  0.3159  0.4077
   14POPC   C3B  480   5.924   1.831   5.748 -0.1429  0.1336 -0.1195
   14POPC   C4B  481   5.645   1.781   5.356 -0.0622 -0.2844  0.1841
   15POPC   NC3  482   8.593   0.974   7.373 -0.2774  0.2884  0.2238
   15POPC   PO4  483   8.224   0.743   7.360 -0.0800  0.0119 -0.0814
   15POPC   GL1  484   8.251   0.828   6.974 -0.2135  0.1873 -0.1789
   15POPC   GL2  485   8.439   1.131   6.915  0.1610  0.0324  0.4102
   15POPC   C1A  486   8.166   0.799   6.606 -0.1981  0.0230  0.0467
   15POPC   D2A  487   8.188   0.832   6.241 -0.3576 -0.0454  0.0525
   15POPC   C3A  488   8.020   0.827   5.913 -0.1292 -0.2469  0.0384
   15POPC   C4A  489   7.994   1.114   5.539 -0.0702 -0.1242  0.3611
   15POPC   C1B  490   8.281   1.368   6.541  0.3662 -0.1558  0.2297
   15POPC   C2B  491   8.203   1.458   6.124  0.0308  0.2801 -0.1502
   15POPC   C3B  492   8.395   1.420   5.652  0.2120  0.0801 -0.5203
   15POPC   C4B  493   8.299   1.492   5.204  0.1945  0.0920  0.2660
   16POPC   NC3  494   2.391   0.360   7.621 -0.1678  0.0856 -0.0592
   16POPC   PO4  495   2.694   0.085   7.434 -0.0891  0.1324  0.2613
   16POPC   GL1  496   2.569   0.272   7.114  0.0350  0.0301  0.1847
   16POPC   GL2  497   2.513   0.526   7.110  0.0205 -0.1326 -0.0099
   16POPC   C1A  498   2.618   0.232   6.657 -0.1155  0.2704 -0.2327
   16POPC   D2A  499   2.240   0.125   6.367  0.1951 -0.0475  0.0198
   16POPC   C3A  500   1.826  -0.015   6.327 -0.0598 -0.0385 -0.0557
   16POPC   C4A  501   1.515  -0.336   6.413 -0.1297 -0.1440  0.0716
   16POPC   C1B  502   2.227   0.503   6.767  0.2624 -0.1805 -0.0408
   16POPC   C2B  503   2.347   0.610   6.377 -0.2034  0.1266 -0.0181
   16POPC   C3B  504   2.279   0.456   5.929  0.3843 -0.0201  0.0156
   16POPC   C4B  505   1.975   0.111   5.817  0.4093  0.1646  0.1850
   17POPC   NC3  506   0.332   7.609   7.651  0.1167  0.1689 -0.1700
   17POPC   PO4  507   0.674   7.323   7.531 -0.0877 -0.1601 -0.0483
   17POPC   GL1  508   0.580   7.218   7.175  0.4428  0.3533  0.0174
   17POPC   GL2  509   0.263   7.081   7.110  0.3303 -0.2784 -0.0712
   17POPC   C1A  510   0.557   7.134   6.646  0.0952  0.2184  0.0038
   17POPC   D2A  511   0.434   7.071   6.257 -0.1483  0.1562  0.4519
   17POPC   C3A  512   0.456   7.028   5.764  0.0993 -0.1393  0.0634
   17POPC   C4A  513   0.852   7.053   5.530  0.1457  0.0865  0.0329
   17POPC   C1B  514   0.204   6.773   6.855 -0.5195  0.2293  0.1493
   17POPC   C2B  515   0.175   6.353   6.579  0.1275  0.1834  0.0575
   17POPC   C3B  516  -0.015   6.171   6.185 -0.2507 -0.2485  0.0568
   17POPC   C4B  517  -0.424   6.072   6.171 -0.0479  0.1844  0.0916
   18POPC   NC3  518   5.595   0.461   8.056 -0.2298  0.2206  0.1540
   18POPC   PO4  519   5.644   0.474   7.576 -0.1563  0.2339 -0.3382
   18POPC   GL1  520   5.563   0.338   7.136  0.2329  0.0537 -0.2001
   18POPC   GL2  521   5.428   0.575   6.909  0.1415  0.3159  0.0840
   18POPC   C1A  522   5.736   0.120   6.839  0.2697  0.0275 -0.2537
   18POPC   D2A  523   5.849  -0.093   6.419 -0.1311  0.1882 -0.1073
   18POPC   C3A  524   6.280  -0.019   6.351  0.2262  0.0116 -0.0688
   18POPC   C4A  525   6.686   0.034   6.535 -0.0928 -0.1245  0.0117
   18POPC   C1B  526   5.461   0.486   6.382 -0.0102  0.0048 -0.1321
   18POPC   C2B  527   5.342   0.253   6.069  0.0012  0.1861 -0.0152
   18POPC   C3B  528   4.972  -0.027   5.792 -0.0342 -0.4301  0.1769
   18POPC   C4B  529   4.773  -0.148   5.401 -0.1840  0.1514 -0.2548
   19POPC   NC3  530   0.629   9.935   8.040 -0.0078 -0.0692  0.1241
   19POPC   PO4  531   0.905   9.883   7.755 -0.0897  0.2540  0.3385
   19POPC   GL1  532   0.524   9.684   7.621  0.0683  0.1456 -0.0795
   19POPC   GL2  533   0.202   9.804   7.658 -0.2384  0.1078  0.2668
   19POPC   C1A  534   0.382   9.506   7.247 -0.0783  0.0164  0.1279
   19POPC   D2A  535   0.134   9.488   6.840 -0.0413  0.3117  0.1384
   19POPC   C3A  536  -0.301   9.393   6.852 -0.0302  0.0153 -0.0525
   19POPC   C4A  537  -0.559   9.012   6.915 -0.0064  0.1407 -0.2659
   19POPC   C1B  538  -0.062   9.830   7.349  0.0921 -0.2103 -0.2752
   19POPC   C2B  539  -0.044   9.976   6.885 -0.0334  0.0030 -0.1843
   19POPC   C3B  540   0.200  10.256   6.645 -0.0367 -0.0277 -0.1054
   19POPC   C4B  541   0.588  10.310   6.626 -0.2507 -0.0003 -0.0658
   20POPC   NC3  542   4.578   1.239   7.328 -0.1426  0.2474  0.4640
   20POPC   PO4  543   5.057   1.258   7.362 -0.2121  0.1905  0.2488
   20POPC   GL1  544   5.107   1.519   7.028  0.0791  0.1699 -0.3930
   20POPC   GL2  545   5.147   1.958   6.994  0.0229  0.0680  0.0457
   20POPC   C1A  546   5.213   1.547   6.603 -0.0774 -0.0326 -0.0240
   20POPC   D2A  547   5.056   1.692   6.269 -0.0605  0.0954 -0.3287
   20POPC   C3A  548   5.447   1.873   6.091 -0.3546  0.0779  0.2333
   20POPC   C4A  549   5.769   2.123   6.137  0.2901  0.2787  0.3014
   20POPC   C1B  550   4.921   2.098   6.695  0.1044 -0.2419  0.0637
   20POPC   C2B  551   4.893   2.148   6.250  0.0265  0.0656 -0.1461
   20POPC   C3B  552   4.628   2.412   5.956  0.1980  0.0571 -0.2945
   20POPC   C4B  553   4.541   2.824   5.974 -0.2959  0.1813 -0.0860
   21POPC   NC3  554   4.510   0.320   7.258  0.2662  0.2010  0.1524
   21POPC   PO4  555   4.393  -0.125   7.395  0.0601  0.0451  0.0595
   21POPC   GL1  556   4.330  -0.056   6.988  0.3320  0.3729 -0.0068
   21POPC   GL2  557   4.033   0.051   6.879  0.2721 -0.0283  0.0920
   21POPC   C1A  558   4.329  -0.246   6.490 -0.0111  0.3888 -0.3165
   21POPC   D2A  559   4.141   0.003   6.145  0.3434  0.0102 -0.2785
   21POPC   C3A  560   4.418   0.189   5.815  0.0454  0.0794 -0.2264
   21POPC   C4A  561   4.411   0.698   5.736  0.0725 -0.0101  0.1750
   21POPC   C1B  562   3.887   0.329   6.504  0.3903 -0.2257  0.1514
   21POPC   C2B  563   3.749   0.358   6.195  0.1173  0.0136 -0.4376
   21POPC   C3B  564   3.882   0.659   5.798  0.0187  0.2825  0.0008
   21POPC   C4B  565   4.073   1.018   5.850 -0.1394  0.0825 -0.1271
   22POPC   NC3  566   7.020   1.516   7.249  0.0294  0.0514 -0.0318
   22POPC   PO4  567   6.574   1.806   7.342  0.2755  0.0427 -0.0497
   22POPC   GL1  568   6.599   2.123   7.052  0.1541 -0.2061  0.1623
   22POPC   GL2  569   6.289   2.231   7.023  0.1283 -0.0830  0.1750
   22POPC   C1A  570   6.589   2.127   6.559 -0.1200  0.0496 -0.0720
   22POPC   D2A  571   6.500   1.737   6.341  0.3282  0.2092 -0.1785
   22POPC   C3A  572   6.420   1.568   5.917 -0.0519  0.1790 -0.0587
   22POPC   C4A  573   6.220   1.519   5.570  0.1233  0.1395 -0.1160
   22POPC   C1B  574   6.046   2.307   6.643 -0.0533 -0.2539 -0.5121
   22POPC   C2B  575   6.048   2.505   6.307  0.2416 -0.1065 -0.2744
   22POPC   C3B  576   5.999   2.468   5.818  0.1665 -0.1499 -0.1841
   22POPC   C4B  577   5.656   2.675   5.528  0.0684 -0.1533 -0.2579
   23POPC   NC3  578   4.594   8.113   7.855 -0.0637  0.0910 -0.0695
   23POPC   PO4  579   4.748   8.376   7.536 -0.1136  0.1959 -0.1347
   23POPC   GL1  580   4.831   8.476   7.162 -0.1494 -0.0714 -0.1267
   23POPC   GL2  581   5.072   8.740   6.992 -0.0476  0.0941 -0.1720
   23POPC   C1A  582   4.897   8.201   6.757 -0.1260 -0.0332 -0.3479
   23POPC   D2A  583   4.989   7.865   6.456 -0.2000  0.0562  0.1085
   23POPC   C3A  584   5.207   7.961   6.074 -0.0409  0.2629 -0.2446
   23POPC   C4A  585   5.333   7.782   5.664  0.1303  0.0794 -0.1213
   23POPC   C1B  586   5.383   8.796   6.660  0.1528  0.0533  0.1134
   23POPC   C2B  587   5.681   8.642   6.538  0.1159 -0.0648 -0.1353
   23POPC   C3B  588   5.960   8.620   6.151 -0.0104  0.1491  0.2705
   23POPC   C4B  589   6.195   8.859   5.826  0.1695  0.0663  0.1558
   24POPC   NC3  590   2.682   3.563   8.513 -0.0837 -0.0063 -0.0526
   24POPC   PO4  591   2.421   3.855   8.252  0.3008  0.0038 -0.1429
   24POPC   GL1  592   2.499   3.949   7.900 -0.1622 -0.0112  0.1456
   24POPC   GL2  593   2.751   3.850   7.717  0.0649 -0.0883 -0.1280
   24POPC   C1A  594   2.406   4.217   7.540  0.1503  0.2395  0.0126
   24POPC   D2A  595   2.487   4.339   7.145  0.3320  0.0578 -0.0890
   24POPC   C3A  596   2.548   4.590   6.812  0.0481  0.3184 -0.3903
   24POPC   C4A  597   2.485   4.639   6.373 -0.1260  0.2024 -0.0926
   24POPC   C1B  598   2.935   4.087   7.336  0.0639 -0.1269  0.2560
   24POPC   C2B  599   2.812   4.142   6.848 -0.0970  0.1877 -0.2991
   24POPC   C3B  600   2.945   4.192   6.467 -0.3510 -0.3125  0.1409
   24POPC   C4B  601   3.176   4.138   6.001  0.1203 -0.0782 -0.0603
   25POPC   NC3  602   6.756  10.001   7.907 -0.0286  0.0533  0.0850
   25POPC   PO4  603   6.384   9.709   7.937 -0.0364 -0.0072  0.0344
   25POPC   GL1  604   6.349   9.877   7.507 -0.3344 -0.2818 -0.1042
   25POPC   GL2  605   6.562  10.095   7.463  0.0624  0.2504 -0.2255
   25POPC   C1A  606   6.243   9.982   7.036  0.0903 -0.0465  0.2217
   25POPC   D2A  607   6.096  10.109   6.646 -0.1736  0.2692  0.1661
   25POPC   C3A  608   6.128  10.189   6.175 -0.0777 -0.0511 -0.0706
   25POPC   C4A  609   5.967  10.538   5.925  0.2075 -0.1220 -0.0659
   25POPC   C1B  610   6.681  10.216   6.931 -0.1852 -0.1470 -0.5123
   25POPC   C2B  611   6.564  10.116   6.502 -0.0677  0.1869 -0.0102
   25POPC   C3B  612   6.687  10.239   6.125  0.0533 -0.2713 -0.1720
   25POPC   C4B  613   6.817  10.553   5.949 -0.0336 -0.2796 -0.0148
   26POPC   NC3  614   1.910   8.351   7.801 -0.2947  0.0101  0.1130
   26POPC   PO4  615   1.848   8.796   7.678  0.2272 -0.4928  0.2464
   26POPC   GL1  616   1.851   8.670   7.242 -0.0305 -0.1421  0.4074
   26POPC   GL2  617   2.130   8.453   7.302 -0.2216 -0.0708  0.4873
   26POPC   C1A  618   1.592   8.643   6.854 -0.2494  0.0665  0.0992
   26POPC   D2A  619   1.588   8.656   6.399 -0.0007  0.0636  0.1240
   26POPC   C3A  620   1.604   8.346   6.115 -0.4279 -0.1405 -0.2737
   26POPC   C4A  621   1.785   8.008   6.043 -0.0163  0.1280  0.1409
   26POPC   C1B  622   2.009   8.377   6.814 -0.3468 -0.0193  0.5516
   26POPC   C2B  623   2.088   8.367   6.358  0.2207  0.0310  0.4088
   26POPC   C3B  624   2.130   8.413   5.894 -0.6471 -0.1276  0.2601
   26POPC   C4B  625   2.254   8.520   5.499 -0.0529  0.2521  0.3603
   27POPC   NC3  626   6.752   5.953   9.447 -0.2151  0.1445  0.2055
   27POPC   PO4  627   6.877   5.846   8.994  0.3433 -0.1778 -0.1005
   27POPC   GL1  628   7.133   5.803   8.635  0.0475  0.0169 -0.0989
   27POPC   GL2  629   7.469   5.879   8.552 -0.1588  0.0544  0.0704
   27POPC   C1A  630   7.375   5.432   8.422  0.2022 -0.0817 -0.1437
   27POPC   D2A  631   7.657   5.283   8.528  0.0670  0.1308 -0.0715
   27POPC   C3A  632   7.837   5.001   8.306 -0.0859  0.2265  0.1469
   27POPC   C4A  633   8.304   4.896   8.236  0.1751  0.1585 -0.3111
   27POPC   C1B  634   7.499   6.304   8.322 -0.1338 -0.0447 -0.1181
   27POPC   C2B  635   7.572   6.286   7.853  0.0552  0.1463 -0.1477
   27POPC   C3B  636   7.748   6.152   7.483 -0.1792  0.1318  0.2151
   27POPC   C4B  637   8.110   5.997   7.334 -0.3769  0.0335  0.1859
   28POPC   NC3  638   1.814   4.707   8.310  0.1395  0.1614 -0.0925
   28POPC   PO4  639   2.058   5.194   8.275 -0.0843  0.3102 -0.1641
   28POPC   GL1  640   1.961   5.022   7.937  0.0780  0.1546  0.0985
   28POPC   GL2  641   2.187   4.993   7.756 -0.0042  0.1175  0.1323
   28POPC   C1A  642   1.685   4.923   7.538 -0.0183  0.0865 -0.3431
   28POPC   D2A  643   1.537   4.716   7.121  0.1032  0.0391 -0.1146
   28POPC   C3A  644   1.597   4.940   6.711 -0.0048 -0.1306 -0.0353
   28POPC   C4A  645   1.751   5.196   6.448  0.3828 -0.2413 -0.0560
   28POPC   C1B  646   1.975   5.290   7.468 -0.0360  0.0628 -0.0970
   28POPC   C2B  647   1.643   5.297   7.117  0.1943 -0.1588  0.4235
   28POPC   C3B  648   1.386   5.362   6.771 -0.2295  0.0196 -0.0434
   28POPC   C4B  649   1.360   5.482   6.264 -0.1172 -0.3931 -0.0953
   29POPC   NC3  650   0.800   6.954   7.864 -0.0139  0.0654  0.4304
   29POPC   PO4  651   1.151   7.144   7.884  0.4638 -0.0719  0.2139
   29POPC   GL1  652   1.159   7.071   7.395 -0.1076 -0.1877  0.1062
   29POPC   GL2  653   1.053   7.327   7.185  0.0796 -0.2375  0.2077
   29POPC   C1A  654   1.127   6.682   7.131 -0.0956 -0.2710  0.2082
   29POPC   D2A  655   1.308   6.697   6.793 -0.2396  0.2327 -0.0857
   29POPC   C3A  656   1.608   6.759   6.418  0.0344  0.0955  0.1947
   29POPC   C4A  657   1.763   6.644   6.020 -0.0391 -0.0712 -0.0604
   29POPC   C1B  658   1.020   7.100   6.853 -0.2581 -0.0693 -0.3347
   29POPC   C2B  659   0.932   6.911   6.413 -0.3518 -0.1862  0.0906
   29POPC   C3B  660   0.838   7.270   5.976  0.2847 -0.0415  0.0456
   29POPC   C4B  661   0.506   7.479   5.963  0.0300  0.1523  0.0797
   30POPC   NC3  662   2.170   8.999   7.967 -0.2458 -0.1637 -0.0649
   30POPC   PO4  663   1.839   9.382   7.949 -0.1908  0.1844 -0.1586
   30POPC   GL1  664   2.048   9.240   7.469 -0.1222  0.0545  0.1053
   30POPC   GL2  665   2.194   9.008   7.427 -0.0142 -0.2046 -0.2139
   30POPC   C1A  666   2.395   9.329   7.086 -0.1446 -0.0239  0.0537
   30POPC   D2A  667   2.413   9.305   6.668  0.4770  0.0424 -0.3526
   30POPC   C3A  668   2.386   9.306   6.189  0.1421 -0.1089  0.4400
   30POPC   C4A  669   2.119   9.366   5.811  0.0520 -0.0580 -0.5773
   30POPC   C1B  670   1.798   9.087   7.028  0.1796  0.1229 -0.1037
   30POPC   C2B  671   1.472   9.200   6.718  0.2640  0.0598  0.0168
   30POPC   C3B  672   1.646   9.142   6.322 -0.1151 -0.4381  0.0113
   30POPC   C4B  673   1.962   8.914   6.095 -0.0476 -0.2025  0.1501
   31POPC   NC3  674   1.310   9.822   7.431  0.0916  0.4386  0.0111
   31POPC   PO4  675   1.493  10.283   7.502  0.2109  0.0364 -0.3613
   31POPC   GL1  676   1.702   9.904   7.165  0.0081 -0.0871 -0.1457
   31POPC   GL2  677   1.682   9.584   7.199  0.0442  0.1183  0.0297
   31POPC   C1A  678   1.545   9.866   6.753  0.1078  0.1716 -0.3502
   31POPC   D2A  679   1.495   9.692   6.282  0.1237 -0.0119  0.5417
   31POPC   C3A  680   1.130   9.468   6.168 -0.1334 -0.1820 -0.2996
   31POPC   C4A  681   0.791   9.406   6.378 -0.0827 -0.1273  0.2414
   31POPC   C1B  682   1.954   9.489   6.828 -0.0279  0.0140  0.0846
   31POPC   C2B  683   1.986   9.478   6.293 -0.0515 -0.5891  0.2405
   31POPC   C3B  684   1.778   9.748   5.916 -0.2658 -0.1335  0.0332
   31POPC   C4B  685   1.737  10.030   5.523 -0.0084  0.3695 -0.1242
   32POPC   NC3  686   1.421   9.033   7.929  0.1110 -0.2064  0.2324
   32POPC   PO4  687   1.385   8.606   7.979 -0.2241  0.4303 -0.3306
   32POPC   GL1  688   1.089   8.674   7.620  0.1047 -0.0370 -0.2365
   32POPC   GL2  689   1.398   8.842   7.497  0.2152  0.0812 -0.0205
   32POPC   C1A  690   0.723   8.735   7.258  0.1138 -0.0291  0.0797
   32POPC   D2A  691   0.697   8.653   6.947  0.1066  0.0702 -0.0832
   32POPC   C3A  692   1.103   8.763   6.723  0.0127 -0.0632 -0.0215
   32POPC   C4A  693   1.147   8.974   6.271  0.3320 -0.0072  0.3164
   32POPC   C1B  694   1.164   8.925   7.178 -0.4527  0.1231 -0.0569
   32POPC   C2B  695   0.960   9.215   6.808 -0.1895  0.2428  0.1795
   32POPC   C3B  696   0.609   9.522   6.801  0.3104 -0.0337 -0.0155
   32POPC   C4B  697   0.366   9.771   6.586  0.1359  0.2794 -0.1819
   33POPC   NC3  698   3.200   0.333   7.537  0.0261 -0.0791 -0.0865
   33POPC   PO4  699   3.251   0.748   7.506 -0.0777 -0.2524  0.2343
   33POPC   GL1  700   2.948   0.683   7.195  0.0612 -0.1218  0.0375
   33POPC   GL2  701   3.062   0.451   7.058  0.1449 -0.1361 -0.2301
   33POPC   C1A  702   2.684   0.722   6.737  0.1474 -0.3976  0.0045
   33POPC   D2A  703   2.900   0.695   6.287 -0.0768 -0.1065 -0.0818
   33POPC   C3A  704   2.778   0.401   6.074  0.1094 -0.0388 -0.0040
   33POPC   C4A  705   2.860  -0.000   5.985 -0.0012 -0.0633 -0.2406
   33POPC   C1B  706   3.191   0.528   6.675  0.0151  0.1857 -0.2465
   33POPC   C2B  707   3.529   0.769   6.535  0.1102  0.1490  0.0419
   33POPC   C3B  708   3.781   0.818   6.320 -0.2415  0.2261 -0.2794
   33POPC   C4B  709   4.193   0.584   6.204  0.0042 -0.2882  0.1306
   34POPC   NC3  710  10.165   5.210   8.218 -0.4251 -0.2323 -0.2357
   34POPC   PO4  711  10.236   4.937   8.049  0.0186 -0.2808  0.0351
   34POPC   GL1  712  10.361   5.201   7.651 -0.1334 -0.2645  0.0063
   34POPC   GL2  713  10.665   5.202   7.528 -0.0096 -0.0421  0.0557
   34POPC   C1A  714  10.404   5.621   7.438  0.0236 -0.0000 -0.0873
   34POPC   D2A  715  10.627   5.943   7.270 -0.0038 -0.0552 -0.0025
   34POPC   C3A  716  10.613   5.972   6.817 -0.1042 -0.0088  0.0957
   34POPC   C4A  717  10.642   5.705   6.388 -0.3796  0.0773 -0.1813
   34POPC   C1B  718  10.493   5.140   7.105 -0.0103  0.1033 -0.0782
   34POPC   C2B  719  10.474   5.422   6.738  0.0063  0.4178 -0.3047
   34POPC   C3B  720  10.167   5.710   6.510 -0.1588  0.3139  0.1197
   34POPC   C4B  721  10.024   5.634   6.053 -0.2467  0.1251 -0.0042
   35POPC   NC3  722   2.160   2.216   7.740  0.0975  0.2681 -0.1150
   35POPC   PO4  723   1.825   1.816   7.652  0.1680 -0.2419  0.0257
   35POPC   GL1  724   1.838   2.183   7.353 -0.0766  0.0470  0.0835
   35POPC   GL2  725   1.582   2.287   7.204 -0.0073  0.1961 -0.2135
   35POPC   C1A  726   2.068   2.097   6.984  0.1378  0.0417 -0.1767
   35POPC   D2A  727   2.022   2.472   6.780  0.0772 -0.3164  0.1128
   35POPC   C3A  728   1.739   2.570   6.503 -0.1293  0.1056 -0.0684
   35POPC   C4A  729   1.361   2.584   6.573  0.2210  0.0403  0.0844
   35POPC   C1B  730   1.667   2.621   7.040 -0.0992 -0.1110 -0.0212
   35POPC   C2B  731   1.567   2.972   6.784  0.1172  0.0400 -0.1503
   35POPC   C3B  732   1.552   3.075   6.407  0.1439  0.1149 -0.1834
   35POPC   C4B  733   1.655   2.905   6.065 -0.2374 -0.1435  0.1360
   36POPC   NC3  734   3.474   3.587   8.142  0.2871 -0.1165 -0.2919
   36POPC   PO4  735   3.413   4.007   7.959 -0.0911  0.2669 -0.2192
   36POPC   GL1  736   3.461   4.083   7.494  0.0649  0.1454 -0.0964
   36POPC   GL2  737   3.667   4.153   7.310 -0.1627 -0.1391  0.0706
   36POPC   C1A  738   3.335   4.266   7.037  0.0771 -0.1032 -0.2014
   36POPC   D2A  739   3.483   4.454   6.736  0.0132  0.1326  0.1041
   36POPC   C3A  740   3.492   4.433   6.340  0.5315 -0.0873 -0.1025
   36POPC   C4A  741   3.675   4.351   6.030  0.0856  0.1964  0.1074
   36POPC   C1B  742   3.765   4.060   6.901  0.1702 -0.0333  0.1184
   36POPC   C2B  743   3.898   4.124   6.431 -0.1812  0.1841 -0.0810
   36POPC   C3B  744   4.153   4.141   6.027 -0.0677 -0.1573  0.2291
   36POPC   C4B  745   3.995   4.408   5.671  0.2831 -0.0286  0.0343
   37POPC   NC3  746   4.774   6.618   7.840  0.4402 -0.0521 -0.0841
   37POPC   PO4  747   4.555   6.943   7.669  0.0794  0.0072 -0.2667
   37POPC   GL1  748   4.423   6.965   7.315  0.0331 -0.1415  0.0980
   37POPC   GL2  749   4.207   6.780   7.317 -0.1277  0.3636  0.0849
   37POPC   C1A  750   4.495   7.144   6.912 -0.0412  0.1817 -0.0162
   37POPC   D2A  751   4.521   6.983   6.447  0.1070 -0.1912 -0.1818
   37POPC   C3A  752   4.130   7.060   6.182  0.0552  0.3176  0.0273
   37POPC   C4A  753   3.925   7.187   5.823 -0.0795  0.2544  0.0970
   37POPC   C1B  754   4.253   6.625   6.877 -0.0849  0.2901 -0.4809
   37POPC   C2B  755   4.150   6.656   6.426  0.0334  0.0504  0.4429
   37POPC   C3B  756   3.726   6.624   6.137 -0.0757 -0.3243  0.0987
   37POPC   C4B  757   3.320   6.303   6.157 -0.0955  0.0437  0.1201
   38POPC   NC3  758   5.907   3.189   7.715  0.1967  0.0263  0.0663
   38POPC   PO4  759   5.611   3.466   7.950  0.0562  0.0593  0.0823
   38POPC   GL1  760   5.518   3.376   7.509 -0.1895  0.2596 -0.0527
   38POPC   GL2  761   5.806   3.626   7.299 -0.2518 -0.1392 -0.0237
   38POPC   C1A  762   5.407   3.373   7.083 -0.2158  0.0873  0.0150
   38POPC   D2A  763   5.233   3.097   6.814 -0.1670  0.0820  0.2720
   38POPC   C3A  764   5.171   3.106   6.390  0.0383 -0.2179  0.1964
   38POPC   C4A  765   4.931   3.127   6.072  0.2581 -0.0722 -0.2588
   38POPC   C1B  766   5.675   3.681   6.900  0.3636  0.0049  0.1388
   38POPC   C2B  767   5.385   3.908   6.637  0.0620  0.0235 -0.0546
   38POPC   C3B  768   5.269   3.884   6.284 -0.0831  0.1483  0.2970
   38POPC   C4B  769   4.967   4.114   6.185 -0.1112  0.3592  0.0699
   39POPC   NC3  770   8.018   5.477   9.206  0.0548 -0.2325 -0.1282
   39POPC   PO4  771   8.320   5.776   9.133 -0.3162 -0.0040 -0.0122
   39POPC   GL1  772   8.451   5.524   8.699  0.2123 -0.4299 -0.0876
   39POPC   GL2  773   8.182   5.318   8.552 -0.2785  0.1888 -0.0139
   39POPC   C1A  774   8.482   5.519   8.201 -0.1060  0.2695  0.2586
   39POPC   D2A  775   8.530   5.271   7.858  0.2091  0.0757  0.0526
   39POPC   C3A  776   8.097   5.082   7.804  0.0079  0.3387 -0.2944
   39POPC   C4A  777   7.749   4.811   7.848 -0.1564  0.1160  0.0222
   39POPC   C1B  778   7.982   5.572   8.189  0.0020 -0.2356 -0.2312
   39POPC   C2B  779   7.597   5.718   8.115  0.2255  0.0527 -0.1548
   39POPC   C3B  780   7.215   5.929   8.125 -0.1771 -0.2739 -0.3502
   39POPC   C4B  781   7.082   6.211   8.014 -0.1488 -0.0194  0.0051
   40POPC   NC3  782   2.613   1.347   7.531 -0.1275  0.1377  0.0757
   40POPC   PO4  783   2.580   0.831   7.467  0.1707  0.3294  0.0856
   40POPC   GL1  784   2.401   1.048   7.171 -0.1368  0.0363  0.0853
   40POPC   GL2  785   2.697   1.125   7.014  0.0155 -0.2591 -0.0466
   40POPC   C1A  786   2.249   1.140   6.718 -0.2033 -0.1642 -0.1707
   40POPC   D2A  787   2.341   1.121   6.354  0.2368 -0.1579  0.0288
   40POPC   C3A  788   2.485   0.902   5.971 -0.0201 -0.3012  0.0616
   40POPC   C4A  789   2.807   0.811   5.783  0.0160  0.1127  0.0039
   40POPC   C1B  790   3.022   1.424   6.916 -0.3331 -0.0860  0.0381
   40POPC   C2B  791   3.265   1.622   6.577 -0.2269 -0.3449 -0.0353
   40POPC   C3B  792   3.354   1.986   6.368  0.0384 -0.1117  0.1791
   40POPC   C4B  793   3.603   2.365   6.209  0.0567 -0.2187  0.0665
   41POPC   NC3  794   9.678   4.618   7.962  0.1397 -0.2532  0.0100
   41POPC   PO4  795   9.679   5.001   8.139  0.1917 -0.3173 -0.4274
   41POPC   GL1  796   9.813   5.134   7.770  0.1696 -0.1612 -0.0722
   41POPC   GL2  797   9.934   5.406   7.780 -0.1340 -0.1556 -0.0845
   41POPC   C1A  798  10.024   5.073   7.331  0.1665  0.0233  0.0015
   41POPC   D2A  799  10.126   4.641   7.067  0.0892 -0.0700 -0.2879
   41POPC   C3A  800   9.978   4.656   6.609  0.1628  0.0968  0.1705
   41POPC   C4A  801  10.072   4.852   6.264 -0.0583  0.1567  0.2476
   41POPC   C1B  802   9.847   5.604   7.437  0.2909 -0.0534 -0.2562
   41POPC   C2B  803  10.070   5.470   7.091 -0.0079  0.1706 -0.1467
   41POPC   C3B  804  10.099   5.134   6.812  0.2073 -0.1096 -0.1302
   41POPC   C4B  805  10.421   4.760   6.600 -0.0658  0.1354  0.3497
   42POPC   NC3  806   4.577   5.949   8.069  0.0452  0.0211 -0.3178
   42POPC   PO4  807   4.932   6.126   7.748 -0.1456 -0.0042  0.0391
   42POPC   GL1  808   4.885   6.018   7.430 -0.1908  0.0185 -0.1821
   42POPC   GL2  809   5.230   5.952   7.376 -0.2205  0.0087  0.3285
   42POPC   C1A  810   4.748   5.671   7.120 -0.1915  0.2159  0.3649
   42POPC   D2A  811   4.890   5.536   6.693 -0.2611 -0.1351 -0.0004
   42POPC   C3A  812   4.611   5.485   6.254 -0.1092  0.0465  0.1551
   42POPC   C4A  813   4.506   5.744   5.927  0.2614  0.1625 -0.2862
   42POPC   C1B  814   5.243   5.840   7.032  0.1563 -0.1103  0.2474
   42POPC   C2B  815   4.932   6.044   6.698  0.2273  0.2528  0.1055
   42POPC   C3B  816   4.800   5.946   6.233  0.1571 -0.1356  0.1322
   42POPC   C4B  817   5.019   5.573   6.009 -0.0184 -0.0845  0.0422
   43POPC   NC3  818   4.234   4.937   7.929 -0.1374 -0.0484  0.1552
   43POPC   PO4  819   3.741   5.136   7.836 -0.0042  0.3117 -0.1770
   43POPC   GL1  820   3.439   5.422   7.570  0.0234 -0.1407  0.0536
   43POPC   GL2  821   3.020   5.494   7.514  0.2613  0.0587  0.1879
   43POPC   C1A  822   3.316   5.678   7.173 -0.0258  0.0191 -0.0318
   43POPC   D2A  823   2.980   5.705   6.961 -0.1308 -0.2816  0.0805
   43POPC   C3A  824   2.896   5.794   6.523 -0.2076 -0.2289 -0.0689
   43POPC   C4A  825   2.506   5.965   6.348  0.0796 -0.2317 -0.1690
   43POPC   C1B  826   3.138   5.144   7.231  0.1979 -0.1110 -0.2292
   43POPC   C2B  827   3.087   5.202   6.802  0.2133  0.5420 -0.0465
   43POPC   C3B  828   3.139   5.248   6.365  0.2019 -0.1133 -0.0740
   43POPC   C4B  829   3.190   5.235   5.911 -0.2030 -0.3481 -0.0192
   44POPC   NC3  830  10.026   8.294   7.949  0.1009  0.1839 -0.1002
   44POPC   PO4  831  10.329   8.692   8.111  0.3360  0.1517  0.1259
   44POPC   GL1  832  10.440   8.539   7.763 -0.0727  0.0365  0.0377
   44POPC   GL2  833  10.318   8.240   7.595  0.2229 -0.1755 -0.2640
   44POPC   C1A  834  10.403   8.700   7.361  0.2663 -0.3021 -0.0143
   44POPC   D2A  835  10.446   8.653   6.919  0.2107  0.1074 -0.5355
   44POPC   C3A  836  10.349   8.829   6.527 -0.2761 -0.0283 -0.2762
   44POPC   C4A  837  10.090   9.219   6.422  0.1958  0.0811  0.0685
   44POPC   C1B  838  10.218   8.248   7.140 -0.0518  0.2374 -0.2092
   44POPC   C2B  839  10.328   8.176   6.741 -0.1471 -0.2697 -0.2689
   44POPC   C3B  840  10.238   8.355   6.317  0.0591  0.0695 -0.1985
   44POPC   C4B  841  10.156   8.659   6.038  0.1357 -0.3157 -0.1988
   45POPC   NC3  842   2.655   9.004   7.666  0.2314  0.0353  0.0585
   45POPC   PO4  843   2.411   8.563   7.639  0.1911  0.3404  0.1004
   45POPC   GL1  844   2.714   8.192   7.463  0.0661  0.3680 -0.3304
   45POPC   GL2  845   3.063   8.258   7.328 -0.1389 -0.4097 -0.1497
   45POPC   C1A  846   2.746   7.990   7.116  0.0860 -0.0224  0.3264
   45POPC   D2A  847   2.554   7.602   6.858 -0.1474  0.0741  0.0701
   45POPC   C3A  848   2.066   7.517   6.795 -0.1061  0.1237 -0.0257
   45POPC   C4A  849   1.698   7.663   6.972 -0.0684  0.3077 -0.3156
   45POPC   C1B  850   3.117   8.316   7.012  0.1935  0.1063  0.0188
   45POPC   C2B  851   3.189   8.223   6.610  0.1753 -0.0897 -0.4421
   45POPC   C3B  852   2.948   8.366   6.236 -0.1777  0.0604  0.0615
   45POPC   C4B  853   2.599   8.415   5.813 -0.0027  0.2207  0.0894
   46POPC   NC3  854   2.612   4.320   8.176  0.1747 -0.1490 -0.1692
   46POPC   PO4  855   2.216   4.310   8.233  0.2342  0.0175 -0.1230
   46POPC   GL1  856   2.062   4.459   7.862  0.1914 -0.2968 -0.2082
   46POPC   GL2  857   1.749   4.492   7.871  0.2531 -0.1792 -0.1154
   46POPC   C1A  858   2.014   4.520   7.453 -0.1418  0.0151  0.0163
   46POPC   D2A  859   2.006   4.392   6.998 -0.0183 -0.4066 -0.3271
   46POPC   C3A  860   2.045   4.449   6.651 -0.1927  0.1829  0.2826
   46POPC   C4A  861   1.925   4.258   6.239 -0.3596 -0.0069 -0.0361
   46POPC   C1B  862   1.490   4.450   7.563 -0.0491 -0.2449 -0.1166
   46POPC   C2B  863   1.566   4.268   7.201  0.0320 -0.0386  0.1035
   46POPC   C3B  864   1.592   4.392   6.731  0.3625 -0.2711 -0.0274
   46POPC   C4B  865   1.368   4.535   6.345  0.1484  0.3508 -0.1768
   47POPC   NC3  866  10.614   0.461   7.976 -0.0546  0.1130 -0.2319
   47POPC   PO4  867  10.808   0.666   7.656 -0.2128 -0.1296  0.2602
   47POPC   GL1  868  11.005   0.740   7.298 -0.0496  0.0441  0.0175
   47POPC   GL2  869  11.440   0.723   7.150 -0.1855 -0.1823 -0.1988
   47POPC   C1A  870  11.214   1.077   6.979  0.0018 -0.0624 -0.0413
   47POPC   D2A  871  11.083   1.199   6.648 -0.3013 -0.4555  0.0651
   47POPC   C3A  872  11.363   1.157   6.293 -0.1887  0.3620  0.0559
   47POPC   C4A  873  11.460   1.061   5.828  0.1002  0.3931  0.1848
   47POPC   C1B  874  11.156   0.597   6.786 -0.1082  0.2257  0.2517
   47POPC   C2B  875  10.918   0.628   6.391  0.1179  0.0154  0.1389
   47POPC   C3B  876  10.884   0.913   6.167 -0.0877 -0.0895  0.1397
   47POPC   C4B  877  10.933   0.930   5.742  0.1416 -0.2977  0.3064
   48POPC   NC3  878   1.593   6.937   8.188  0.1934 -0.0382  0.3306
   48POPC   PO4  879   1.896   6.914   7.885 -0.0816  0.0631  0.0715
   48POPC   GL1  880   1.959   7.076   7.496  0.2114  0.2024  0.0564
   48POPC   GL2  881   1.992   6.731   7.389 -0.2027 -0.0240 -0.2805
   48POPC   C1A  882   1.626   7.217   7.301 -0.0943  0.1089  0.2979
   48POPC   D2A  883   1.562   7.175   6.780  0.2985 -0.0440 -0.0443
   48POPC   C3A  884   1.736   7.549   6.442 -0.0835  0.1875 -0.0726
   48POPC   C4A  885   1.998   7.890   6.425 -0.0207 -0.1860 -0.2270
   48POPC   C1B  886   1.813   6.745   6.934 -0.0006  0.1913 -0.3275
   48POPC   C2B  887   2.054   6.984   6.625 -0.1113 -0.1071  0.1165
   48POPC   C3B  888   2.083   7.033   6.241  0.0130  0.0827 -0.0986
   48POPC   C4B  889   2.282   6.963   5.857  0.1553  0.0404 -0.1891
   49POPC   NC3  890   4.397   6.923   8.294  0.3348 -0.1626  0.0588
   49POPC   PO4  891   4.768   7.185   8.100  0.3255 -0.1051  0.2548
   49POPC   GL1  892   4.780   7.405   7.667  0.1203  0.2238  0.1509
   49POPC   GL2  893   4.558   7.687   7.570 -0.0702  0.1949 -0.1527
   49POPC   C1A  894   4.775   7.412   7.178  0.2248 -0.1130 -0.0988
   49POPC   D2A  895   4.652   7.600   6.784 -0.2796 -0.1175 -0.0692
   49POPC   C3A  896   4.389   7.489   6.406 -0.0756 -0.0931  0.1585
   49POPC   C4A  897   4.145   7.626   6.090 -0.1646 -0.0031  0.0919
   49POPC   C1B  898   4.403   7.727   7.151  0.1516 -0.0492  0.0139
   49POPC   C2B  899   4.083   7.755   6.873  0.1950 -0.0725 -0.1641
   49POPC   C3B  900   3.838   7.721   6.503  0.1019  0.3707  0.4179
   49POPC   C4B  901   3.658   7.567   6.178  0.0367 -0.0763 -0.0106
   50POPC   NC3  902   8.542   3.378   8.055 -0.3382  0.2337  0.2018
   50POPC   PO4  903   8.383   3.603   7.754 -0.0979  0.1486 -0.2068
   50POPC   GL1  904   8.400   3.444   7.325 -0.2906 -0.1436 -0.0809
   50POPC   GL2  905   8.403   3.708   7.225 -0.0005 -0.0641 -0.0458
   50POPC   C1A  906   8.624   3.462   6.872  0.0988  0.2557  0.0581
   50POPC   D2A  907   8.626   3.442   6.395 -0.1453 -0.5489  0.0071
   50POPC   C3A  908   8.983   3.365   6.058  0.2360 -0.3233 -0.0319
   50POPC   C4A  909   9.248   3.441   5.756 -0.2234  0.0189  0.2251
   50POPC   C1B  910   8.144   3.810   6.875 -0.1917  0.2482  0.0705
   50POPC   C2B  911   8.251   3.774   6.532 -0.4849  0.2759  0.3234
   50POPC   C3B  912   8.597   3.939   6.178 -0.1992  0.0065  0.0605
   50POPC   C4B  913   8.611   4.320   5.817 -0.1775 -0.2435  0.5168
   51POPC   NC3  914   7.988   6.965   8.803 -0.1103  0.1732  0.0666
   51POPC   PO4  915   8.238   6.571   8.761 -0.1529 -0.1188 -0.1746
   51POPC   GL1  916   7.976   6.429   8.439  0.0204 -0.2677 -0.0929
   51POPC   GL2  917   7.926   6.080   8.443  0.2466 -0.1089  0.0613
   51POPC   C1A  918   7.925   6.574   8.125 -0.0471 -0.0582 -0.0764
   51POPC   D2A  919   7.943   6.628   7.817  0.1950  0.1505 -0.1622
   51POPC   C3A  920   7.491   6.809   7.703 -0.0573  0.1777  0.1226
   51POPC   C4A  921   7.358   7.123   7.323  0.4231  0.1474 -0.2400
   51POPC   C1B  922   8.016   6.145   7.964  0.0612 -0.0105 -0.2387
   51POPC   C2B  923   8.271   6.317   7.659 -0.2900 -0.1715  0.1035
   51POPC   C3B  924   8.387   6.648   7.530 -0.3167 -0.1899 -0.1107
   51POPC   C4B  925   8.338   7.062   7.781  0.1484 -0.1187  0.1095
   52POPC   NC3  926   3.175   5.785   7.957  0.2190 -0.0860  0.0284
   52POPC   PO4  927   2.824   5.555   7.984 -0.1308 -0.1432  0.2981
   52POPC   GL1  928   2.505   5.491   7.711 -0.1976  0.1263 -0.3855
   52POPC   GL2  929   2.567   5.177   7.516 -0.1998  0.0177  0.3212
   52POPC   C1A  930   2.541   5.608   7.230  0.0980 -0.0913 -0.0528
   52POPC   D2A  931   2.452   5.848   6.817 -0.2293 -0.1336 -0.2203
   52POPC   C3A  932   2.136   6.034   6.703 -0.3454 -0.0781 -0.1541
   52POPC   C4A  933   2.063   6.492   6.483 -0.0778  0.1133  0.1082
   52POPC   C1B  934   2.609   5.198   6.934 -0.0469  0.0100  0.4213
   52POPC   C2B  935   2.533   5.182   6.481 -0.0924 -0.0289  0.3503
   52POPC   C3B  936   2.660   5.507   6.216  0.1005 -0.1227 -0.0642
   52POPC   C4B  937   2.594   5.401   5.779  0.0142 -0.0934 -0.2823
   53POPC   NC3  938   5.635   7.292   7.859  0.1140 -0.2651  0.3089
   53POPC   PO4  939   5.570   6.847   7.671 -0.0624  0.0026  0.0113
   53POPC   GL1  940   5.475   6.829   7.284  0.2704 -0.1611  0.0960
   53POPC   GL2  941   5.664   6.558   7.265  0.0224 -0.2078 -0.1112
   53POPC   C1A  942   5.119   6.965   6.902 -0.2442 -0.0400 -0.0840
   53POPC   D2A  943   5.026   6.937   6.447  0.0049 -0.1565 -0.0441
   53POPC   C3A  944   5.094   6.606   6.247 -0.3015  0.0113  0.4273
   53POPC   C4A  945   5.206   6.178   5.950 -0.0554  0.0321  0.1446
   53POPC   C1B  946   5.592   6.171   7.122 -0.1001 -0.2071  0.3439
   53POPC   C2B  947   5.757   5.742   7.155  0.1157 -0.0216 -0.1152
   53POPC   C3B  948   5.942   5.418   7.033  0.1305 -0.1401 -0.1374
   53POPC   C4B  949   6.150   4.978   7.036 -0.0114  0.1385  0.0212
   54POPC   NC3  950   2.046   7.875   7.989  0.3491  0.1169 -0.2975
   54POPC   PO4  951   2.356   8.136   7.896 -0.1519  0.0959  0.0388
   54POPC   GL1  952   2.246   7.973   7.563 -0.2122  0.3082  0.2018
   54POPC   GL2  953   1.939   8.009   7.385 -0.2496  0.2102  0.0980
   54POPC   C1A  954   2.168   7.492   7.359 -0.0165 -0.0258 -0.2840
   54POPC   D2A  955   2.245   7.046   7.114  0.0158  0.3654  0.2027
   54POPC   C3A  956   2.452   6.618   7.104  0.2322 -0.4416  0.1399
   54POPC   C4A  957   2.226   6.222   7.137  0.0006 -0.0629  0.1722
   54POPC   C1B  958   2.267   7.959   7.037  0.5222 -0.1177 -0.0954
   54POPC   C2B  959   2.465   8.039   6.639 -0.0900 -0.1209  0.0448
   54POPC   C3B  960   2.553   8.069   6.313 -0.1285  0.0029 -0.4833
   54POPC   C4B  961   2.364   7.995   5.981  0.1298 -0.0203 -0.2606
   55POPC   NC3  962   0.888   4.962   8.154 -0.1098 -0.1001  0.0330
   55POPC   PO4  963   0.555   5.245   8.108 -0.0930  0.0283 -0.2728
   55POPC   GL1  964   0.516   5.377   7.613 -0.2157  0.1405 -0.3955
   55POPC   GL2  965   0.462   5.670   7.545  0.0899  0.1680 -0.0188
   55POPC   C1A  966   0.591   5.197   7.172 -0.2345 -0.2401 -0.2213
   55POPC   D2A  967   0.691   4.719   7.115  0.0412 -0.1294  0.0308
   55POPC   C3A  968   0.428   4.334   7.116 -0.0585 -0.1600  0.0848
   55POPC   C4A  969   0.010   4.446   7.005  0.1973  0.1923 -0.3351
   55POPC   C1B  970   0.186   5.486   7.154 -0.2809  0.0114  0.2202
   55POPC   C2B  971   0.319   5.470   6.775 -0.1075 -0.0313  0.2940
   55POPC   C3B  972   0.215   5.192   6.334 -0.0399  0.0253  0.0694
   55POPC   C4B  973   0.082   4.816   6.234 -0.1003  0.2211 -0.0322
   56POPC   NC3  974   8.637   9.516   8.615 -0.2267 -0.2326  0.0757
   56POPC   PO4  975   8.632   9.823   8.463 -0.2066  0.0211 -0.3391
   56POPC   GL1  976   8.762   9.745   8.135 -0.2721 -0.0865 -0.0438
   56POPC   GL2  977   9.014   9.517   8.118 -0.3665  0.1427  0.0417
   56POPC   C1A  978   8.845   9.867   7.724  0.0217  0.2683 -0.0693
   56POPC   D2A  979   9.010   9.934   7.364  0.4887 -0.1344  0.2049
   56POPC   C3A  980   8.810   9.729   7.031  0.0018 -0.0977 -0.1263
   56POPC   C4A  981   8.882   9.735   6.518  0.1290 -0.0976 -0.0668
   56POPC   C1B  982   9.065   9.445   7.653  0.0370  0.2536 -0.1902
   56POPC   C2B  983   9.019   9.323   7.234 -0.2354  0.1894  0.0038
   56POPC   C3B  984   8.869   8.963   6.945  0.0996  0.1324 -0.0874
   56POPC   C4B  985   8.843   8.475   7.046 -0.3482  0.1468  0.1360
   57POPC   NC3  986   5.063   0.928   6.933  0.0834  0.1672  0.0187
   57POPC   PO4  987   4.600   0.764   6.992  0.0903 -0.0908 -0.2037
   57POPC   GL1  988   4.787   0.703   6.552 -0.2312  0.0736 -0.0880
   57POPC   GL2  989   5.043   0.550   6.606  0.1695  0.0702 -0.0004
   57POPC   C1A  990   4.821   0.729   6.095 -0.5205 -0.1142  0.0651
   57POPC   D2A  991   4.868   0.901   5.629  0.2339  0.1007 -0.1912
   57POPC   C3A  992   5.311   1.199   5.645  0.1930  0.1211 -0.2588
   57POPC   C4A  993   5.620   1.426   5.732 -0.0428  0.1728  0.2700
   57POPC   C1B  994   4.864   0.107   6.372 -0.0066  0.0026 -0.3424
   57POPC   C2B  995   4.668  -0.235   6.181  0.1072 -0.1266  0.1395
   57POPC   C3B  996   4.682  -0.484   5.824  0.1169 -0.1926  0.0783
   57POPC   C4B  997   4.566  -0.675   5.444  0.0549  0.0097  0.0294
   58POPC   NC3  998   2.647   5.095   8.021 -0.1039  0.2254 -0.3817
   58POPC   PO4  999   2.798   4.731   7.971  0.0652 -0.0955 -0.1777
   58POPC   GL1 1000   2.926   4.818   7.547 -0.2386 -0.0480 -0.5437
   58POPC   GL2 1001   3.152   4.643   7.262  0.1243  0.0029 -0.4746
   58POPC   C1A 1002   2.705   4.813   7.242 -0.3254 -0.0726  0.3949
   58POPC   D2A 1003   2.180   4.887   7.161 -0.2799 -0.1662 -0.0887
   58POPC   C3A 1004   2.127   5.031   6.734 -0.1971  0.1099  0.1813
   58POPC   C4A 1005   1.962   4.762   6.302  0.0430 -0.2016 -0.2434
   58POPC   C1B 1006   3.032   4.678   6.939  0.1810 -0.1129  0.0545
   58POPC   C2B 1007   3.004   4.673   6.544  0.4581  0.2132 -0.1743
   58POPC   C3B 1008   2.971   4.619   6.138  0.0006 -0.2358 -0.1086
   58POPC   C4B 1009   2.720   4.844   5.898 -0.1404 -0.0150  0.1015
   59POPC   NC3 1010   4.524   4.433   8.568 -0.5557 -0.0632  0.0674
   59POPC   PO4 1011   4.586   4.727   8.235 -0.3131 -0.1351 -0.0729
   59POPC   GL1 1012   4.744   4.910   7.804  0.0767  0.1102  0.2056
   59POPC   GL2 1013   4.592   4.712   7.633 -0.1562  0.0434 -0.3937
   59POPC   C1A 1014   4.963   4.846   7.341 -0.0624 -0.0741  0.2029
   59POPC   D2A 1015   5.181   4.785   7.039  0.0277  0.0090  0.3706
   59POPC   C3A 1016   5.226   4.467   6.776  0.0552 -0.0746  0.2029
   59POPC   C4A 1017   5.433   4.441   6.508 -0.0033  0.0824  0.0038
   59POPC   C1B 1018   4.757   4.416   7.276  0.2124  0.2850  0.0293
   59POPC   C2B 1019   4.901   4.122   6.984 -0.1496 -0.2075 -0.1814
   59POPC   C3B 1020   4.714   3.916   6.686  0.2865  0.2064 -0.0604
   59POPC   C4B 1021   4.526   3.762   6.274 -0.0328 -0.2022 -0.1518
   60POPC   NC3 1022   3.704   5.563   8.323  0.0618 -0.2458 -0.3712
   60POPC   PO4 1023   3.699   5.688   7.895 -0.1967 -0.0260 -0.1975
   60POPC   GL1 1024   3.934   5.612   7.528  0.0178 -0.1868 -0.1572
   60POPC   GL2 1025   3.818   5.360   7.280 -0.1550 -0.2016 -0.3266
   60POPC   C1A 1026   4.268   5.566   7.132 -0.1690  0.0643  0.1414
   60POPC   D2A 1027   4.412   5.254   6.690 -0.0337 -0.0251 -0.0369
   60POPC   C3A 1028   4.286   4.809   6.650 -0.1635  0.0297 -0.2297
   60POPC   C4A 1029   3.931   4.577   6.552 -0.1247  0.1214 -0.2046
   60POPC   C1B 1030   3.599   5.348   6.909 -0.0323 -0.3977 -0.0764
   60POPC   C2B 1031   3.396   5.627   6.695  0.4930  0.3129 -0.0489
   60POPC   C3B 1032   3.336   5.775   6.319 -0.0659 -0.0469 -0.1689
   60POPC   C4B 1033   3.621   5.861   6.164  0.1552 -0.1387 -0.0339
   61POPC   NC3 1034   5.324   5.870   7.877 -0.0270 -0.0123  0.0188
   61POPC   PO4 1035   5.555   5.514   8.040 -0.0694 -0.3189  0.0413
   61POPC   GL1 1036   5.387   5.472   7.604  0.0525  0.1329 -0.1943
   61POPC   GL2 1037   5.179   5.340   7.530 -0.1492  0.0455  0.0859
   61POPC   C1A 1038   5.688   5.283   7.404  0.3709 -0.0010 -0.1648
   61POPC   D2A 1039   5.654   5.024   7.062 -0.0308 -0.4002  0.2960
   61POPC   C3A 1040   5.277   5.025   6.635  0.2174 -0.0969 -0.0150
   61POPC   C4A 1041   5.226   5.191   6.211  0.2007 -0.2058 -0.2789
   61POPC   C1B 1042   5.202   5.352   7.114 -0.3112  0.2666 -0.1371
   61POPC   C2B 1043   5.469   5.474   6.757  0.5030 -0.0279  0.0826
   61POPC   C3B 1044   5.731   5.327   6.458 -0.1551 -0.0984 -0.0533
   61POPC   C4B 1045   5.896   5.244   6.120  0.3106 -0.3010 -0.4062
   62POPC   NC3 1046   5.811   5.206   8.411 -0.1928  0.2236  0.2821
   62POPC   PO4 1047   6.165   5.256   8.555 -0.1187  0.0347  0.0156
   62POPC   GL1 1048   6.565   5.318   8.360 -0.4721 -0.2436  0.0814
   62POPC   GL2 1049   6.917   5.214   8.442 -0.5506  0.0829 -0.4570
   62POPC   C1A 1050   6.801   5.680   8.174  0.2067  0.0975 -0.3154
   62POPC   D2A 1051   6.876   5.868   7.736 -0.1103  0.0929  0.2150
   62POPC   C3A 1052   7.335   5.856   7.634 -0.0868 -0.4294 -0.0851
   62POPC   C4A 1053   7.830   5.687   7.663  0.1885  0.4521 -0.0307
   62POPC   C1B 1054   7.191   5.357   8.003  0.1004  0.2871  0.0622
   62POPC   C2B 1055   7.445   5.180   7.643  0.2062  0.1489 -0.0071
   62POPC   C3B 1056   7.212   4.967   7.351 -0.1993  0.1215 -0.2788
   62POPC   C4B 1057   7.054   4.642   7.126 -0.1455  0.3635  0.0248
   63POPC   NC3 1058   2.926   9.183   8.520  0.2371  0.0658  0.1336
   63POPC   PO4 1059   3.001   9.277   8.045  0.1097  0.1028 -0.0578
   63POPC   GL1 1060   3.100   9.084   7.534  0.1774  0.0673 -0.0077
   63POPC   GL2 1061   2.847   9.213   7.252  0.0951  0.0154  0.2956
   63POPC   C1A 1062   2.963   8.749   7.173 -0.2298 -0.0140 -0.0577
   63POPC   D2A 1063   2.579   8.678   7.212  0.1075  0.0444  0.2439
   63POPC   C3A 1064   2.284   8.835   6.925  0.3074  0.4145 -0.0581
   63POPC   C4A 1065   2.025   8.989   6.576  0.1488  0.3474 -0.0385
   63POPC   C1B 1066   2.857   9.089   6.813  0.0019 -0.1142 -0.0927
   63POPC   C2B 1067   2.640   8.886   6.489  0.1861  0.4920 -0.1194
   63POPC   C3B 1068   2.422   8.757   6.093 -0.2420  0.1229  0.0566
   63POPC   C4B 1069   2.408   8.950   5.665  0.4261  0.0017 -0.4897
   64POPC   NC3 1070   1.502   0.134   7.439  0.0593 -0.1637 -0.0346
   64POPC   PO4 1071   1.580   0.558   7.397 -0.0810  0.3116  0.1309
   64POPC   GL1 1072   1.368   0.372   7.004  0.1933 -0.1956  0.0318
   64POPC   GL2 1073   1.287   0.064   6.972  0.1422 -0.0412 -0.1751
   64POPC   C1A 1074   1.065   0.511   6.720  0.1350  0.0568  0.4185
   64POPC   D2A 1075   0.884   0.850   6.588 -0.3206 -0.2856  0.3883
   64POPC   C3A 1076   0.972   1.311   6.708 -0.4146 -0.2398 -0.0512
   64POPC   C4A 1077   0.807   1.650   6.488 -0.0310 -0.0407 -0.2755
   64POPC   C1B 1078   1.318   0.226   6.449 -0.0110  0.3303 -0.2018
   64POPC   C2B 1079   1.474   0.325   6.042  0.1023 -0.3203  0.1503
   64POPC   C3B 1080   1.667   0.627   5.857  0.3007  0.0797  0.0580
   64POPC   C4B 1081   2.000   0.799   5.666 -0.2593 -0.2804  0.0191
   65POPC   NC3 1082   8.926   0.796   7.701  0.0906 -0.0562 -0.0837
   65POPC   PO4 1083   9.386   0.531   7.814  0.3575  0.4217 -0.2274
   65POPC   GL1 1084   9.295   0.354   7.362 -0.0114  0.1512 -0.0924
   65POPC   GL2 1085   9.107   0.045   7.498 -0.0444 -0.0527 -0.0133
   65POPC   C1A 1086   9.183   0.154   6.914  0.0967 -0.1920 -0.1723
   65POPC   D2A 1087   9.185  -0.101   6.411 -0.0018 -0.0527  0.0399
   65POPC   C3A 1088   9.126   0.144   6.040  0.0167 -0.1605  0.0758
   65POPC   C4A 1089   9.102   0.603   5.759 -0.1305 -0.2324  0.1611
   65POPC   C1B 1090   9.411  -0.193   7.165  0.0867 -0.3446 -0.0830
   65POPC   C2B 1091   9.882  -0.176   6.957 -0.0956 -0.0159 -0.0892
   65POPC   C3B 1092  10.222  -0.437   6.655 -0.1913 -0.0959 -0.0319
   65POPC   C4B 1093  10.160  -0.572   6.261  0.2964  0.1703  0.1819
   66POPC   NC3 1094   5.937  10.128   7.793  0.2784 -0.2688  0.0631
   66POPC   PO4 1095   5.912   9.679   7.710 -0.0883 -0.2913  0.0397
   66POPC   GL1 1096   5.949   9.687   7.317 -0.0454 -0.2757 -0.0634
   66POPC   GL2 1097   5.741   9.999   7.230  0.0870  0.3348 -0.1272
   66POPC   C1A 1098   6.118   9.396   7.034  0.1033  0.3035 -0.1543
   66POPC   D2A 1099   6.521   9.195   6.927  0.1612 -0.0831  0.2333
   66POPC   C3A 1100   6.588   8.895   6.597 -0.1319 -0.0053  0.3384
   66POPC   C4A 1101   6.548   8.732   6.168 -0.0003 -0.5545  0.0181
   66POPC   C1B 1102   5.799   9.780   6.841 -0.0285 -0.1276  0.0544
   66POPC   C2B 1103   5.839   9.570   6.413  0.1134 -0.0765  0.0134
   66POPC   C3B 1104   5.917   9.507   6.010  0.2362 -0.0479 -0.0415
   66POPC   C4B 1105   5.752   9.498   5.580 -0.0991  0.2221  0.1033
   67POPC   NC3 1106   4.788   1.916   7.939 -0.0070  0.2447  0.3140
   67POPC   PO4 1107   4.782   1.817   7.374 -0.0048  0.1655  0.1209
   67POPC   GL1 1108   4.674   1.716   7.055  0.0575  0.0828 -0.0815
   67POPC   GL2 1109   4.513   2.086   6.988 -0.0464 -0.1550 -0.3626
   67POPC   C1A 1110   4.750   1.656   6.655 -0.0772 -0.5345  0.0825
   67POPC   D2A 1111   4.571   1.632   6.261 -0.4578 -0.0074  0.2555
   67POPC   C3A 1112   4.576   1.947   5.889  0.0293  0.1128  0.5064
   67POPC   C4A 1113   4.277   2.290   5.661  0.1511 -0.0376 -0.1087
   67POPC   C1B 1114   4.325   1.937   6.572 -0.1985  0.2428  0.2388
   67POPC   C2B 1115   4.049   2.081   6.174  0.0807  0.0109 -0.0832
   67POPC   C3B 1116   3.828   2.040   5.812  0.3367  0.1121  0.0011
   67POPC   C4B 1117   3.446   2.223   5.792 -0.3769  0.2096 -0.1358
   68POPC   NC3 1118  10.430   8.237   8.198  0.1293 -0.3216  0.1825
   68POPC   PO4 1119  10.617   7.941   7.881  0.1240  0.1555  0.2139
   68POPC   GL1 1120  10.534   7.771   7.456 -0.1690  0.0507  0.3319
   68POPC   GL2 1121  10.495   7.451   7.371  0.0510  0.0359 -0.0629
   68POPC   C1A 1122  10.323   7.772   7.042  0.0253  0.0197  0.2787
   68POPC   D2A 1123  10.340   7.632   6.599  0.1747 -0.0257 -0.2122
   68POPC   C3A 1124   9.980   7.938   6.427 -0.1505  0.2309  0.0924
   68POPC   C4A 1125   9.756   8.289   6.190  0.1012  0.0202 -0.1008
   68POPC   C1B 1126  10.216   7.273   7.031 -0.0753  0.1682  0.0478
   68POPC   C2B 1127   9.991   7.104   6.695  0.1009 -0.3967  0.1624
   68POPC   C3B 1128  10.155   7.098   6.296 -0.0176  0.0914 -0.0453
   68POPC   C4B 1129  10.063   6.913   6.041  0.1997  0.0092  0.0847
   69POPC   NC3 1130   7.457   0.920   7.155  0.1212 -0.0511 -0.0443
   69POPC   PO4 1131   7.778   1.035   7.367 -0.0491  0.0754  0.1050
   69POPC   GL1 1132   7.894   1.202   6.888 -0.1496  0.3011  0.1496
   69POPC   GL2 1133   7.812   1.021   6.752  0.1100 -0.0190  0.2450
   69POPC   C1A 1134   7.742   1.501   6.581 -0.1746  0.2343  0.0396
   69POPC   D2A 1135   7.749   1.780   6.210 -0.0565 -0.2478 -0.1836
   69POPC   C3A 1136   8.084   1.883   5.794 -0.0156  0.1045  0.1734
   69POPC   C4A 1137   8.226   2.247   5.715 -0.0674  0.1316  0.1861
   69POPC   C1B 1138   7.738   1.155   6.213  0.0922  0.0678 -0.2443
   69POPC   C2B 1139   7.788   1.441   5.859 -0.1923 -0.1293  0.1324
   69POPC   C3B 1140   7.484   1.477   5.535  0.2425 -0.1427  0.1854
   69POPC   C4B 1141   7.172   1.296   5.298  0.1911 -0.0177 -0.1823
   70POPC   NC3 1142   8.270   3.123   7.700  0.2879 -0.1500 -0.1728
   70POPC   PO4 1143   7.847   2.964   7.644  0.0848  0.1745 -0.1494
   70POPC   GL1 1144   7.904   2.982   7.360  0.0919 -0.2289 -0.3091
   70POPC   GL2 1145   7.601   2.878   7.152 -0.2915  0.1407 -0.0108
   70POPC   C1A 1146   7.890   3.411   7.079 -0.0394 -0.2621 -0.0006
   70POPC   D2A 1147   7.862   3.429   6.570 -0.0913  0.1798 -0.0208
   70POPC   C3A 1148   8.080   3.476   6.154 -0.1604 -0.1174  0.3641
   70POPC   C4A 1149   8.477   3.546   5.920 -0.3008 -0.1246  0.1906
   70POPC   C1B 1150   7.629   2.997   6.722  0.1234 -0.0963  0.1929
   70POPC   C2B 1151   7.732   2.868   6.321 -0.1544  0.0550  0.0898
   70POPC   C3B 1152   7.540   2.660   5.957  0.1734  0.0194  0.4559
   70POPC   C4B 1153   7.729   2.428   5.743 -0.1931 -0.0255  0.0765
   71POPC   NC3 1154   7.322   9.454   7.761 -0.3608  0.0042 -0.1985
   71POPC   PO4 1155   7.158   9.133   8.074 -0.1538  0.1437  0.1429
   71POPC   GL1 1156   6.934   9.271   7.650 -0.1224  0.3227 -0.0852
   71POPC   GL2 1157   6.772   9.526   7.632 -0.0383 -0.1077  0.4299
   71POPC   C1A 1158   6.799   9.107   7.319 -0.0442 -0.2353 -0.0796
   71POPC   D2A 1159   6.767   8.720   7.027  0.1336  0.1232  0.1464
   71POPC   C3A 1160   6.563   8.338   7.125 -0.0683  0.1422  0.2273
   71POPC   C4A 1161   6.598   7.995   6.854 -0.0961  0.3316 -0.1302
   71POPC   C1B 1162   6.672   9.632   7.108 -0.0965 -0.1311 -0.1107
   71POPC   C2B 1163   6.392   9.679   6.736 -0.5693 -0.0078  0.2902
   71POPC   C3B 1164   6.377   9.680   6.304 -0.1772  0.1587  0.2100
   71POPC   C4B 1165   6.578   9.677   5.948 -0.2937 -0.0988 -0.0266
   72POPC   NC3 1166   1.128   7.546   7.615 -0.0843  0.0338  0.0695
   72POPC   PO4 1167   0.763   7.847   7.608 -0.0140  0.0906 -0.1356
   72POPC   GL1 1168   0.622   7.783   7.247 -0.1956  0.0431 -0.0802
   72POPC   GL2 1169   0.297   7.656   7.060  0.2576 -0.1553  0.1251
   72POPC   C1A 1170   0.790   7.720   6.840 -0.2499  0.2326 -0.0887
   72POPC   D2A 1171   0.923   7.996   6.480  0.0124  0.3510  0.1111
   72POPC   C3A 1172   1.053   8.289   6.716  0.4669  0.3688  0.0915
   72POPC   C4A 1173   1.157   8.478   7.102 -0.1301  0.2829 -0.2300
   72POPC   C1B 1174   0.014   7.449   6.913 -0.1775  0.1836  0.0591
   72POPC   C2B 1175  -0.089   7.101   6.656 -0.2737 -0.1297  0.2974
   72POPC   C3B 1176  -0.027   7.227   6.321 -0.0137 -0.0206  0.2265
   72POPC   C4B 1177   0.016   6.981   5.977 -0.2105 -0.0936  0.4116
   73POPC   NC3 1178   9.976   2.938   7.441  0.0578 -0.1646 -0.0205
   73POPC   PO4 1179   9.751   3.229   7.638  0.0631 -0.3482 -0.1080
   73POPC   GL1 1180   9.833   3.433   7.238  0.2598 -0.1415  0.1066
   73POPC   GL2 1181   9.776   3.220   6.918  0.1722 -0.0557 -0.1838
   73POPC   C1A 1182   9.637   3.685   6.865  0.1997 -0.5487  0.0679
   73POPC   D2A 1183   9.637   3.929   6.528  0.2546 -0.4613 -0.2688
   73POPC   C3A 1184  10.030   3.862   6.289 -0.1569  0.2375 -0.2099
   73POPC   C4A 1185  10.332   3.925   5.896  0.0654  0.0262 -0.2536
   73POPC   C1B 1186   9.535   3.053   6.547  0.2926 -0.0326  0.5616
   73POPC   C2B 1187   9.432   2.918   6.071  0.1322 -0.0067  0.4074
   73POPC   C3B 1188   9.365   2.959   5.677  0.3398 -0.0315 -0.2466
   73POPC   C4B 1189   9.209   3.067   5.258 -0.0076 -0.2581 -0.0127
   74POPC   NC3 1190   2.435   9.999   7.715 -0.0869 -0.2376 -0.1308
   74POPC   PO4 1191   2.911  10.013   7.751 -0.0974 -0.0945 -0.0445
   74POPC   GL1 1192   2.847   9.970   7.356  0.1895  0.1230  0.1257
   74POPC   GL2 1193   2.640   9.762   7.200 -0.1986  0.1400 -0.0772
   74POPC   C1A 1194   2.952  10.056   6.952 -0.1640 -0.0535  0.0515
   74POPC   D2A 1195   3.011   9.874   6.535  0.0212 -0.0766 -0.3765
   74POPC   C3A 1196   2.830   9.437   6.412 -0.0518  0.2385 -0.1826
   74POPC   C4A 1197   2.883   9.141   6.101 -0.2700 -0.2248 -0.3151
   74POPC   C1B 1198   2.883   9.590   6.896  0.1132 -0.0683  0.1527
   74POPC   C2B 1199   3.356   9.437   6.725  0.3368 -0.2051  0.1210
   74POPC   C3B 1200   3.274   9.078   6.337 -0.2430  0.0160 -0.3057
   74POPC   C4B 1201   3.425   8.966   5.878  0.2767 -0.0158  0.2105
   75POPC   NC3 1202   0.267   8.852   8.138  0.2752  0.1796 -0.1982
   75POPC   PO4 1203   0.286   9.267   7.858  0.0129  0.0936 -0.0654
   75POPC   GL1 1204   0.536   9.068   7.575 -0.1802  0.0747  0.2127
   75POPC   GL2 1205   0.368   8.763   7.623 -0.0895 -0.2757 -0.2500
   75POPC   C1A 1206   0.831   9.256   7.321 -0.2606  0.2038 -0.2734
   75POPC   D2A 1207   0.957   9.575   7.149 -0.0080  0.3354 -0.1242
   75POPC   C3A 1208   1.133   9.607   6.637 -0.1122 -0.2118 -0.1278
   75POPC   C4A 1209   1.086   9.968   6.407 -0.0302 -0.3373  0.0832
   75POPC   C1B 1210   0.275   8.617   7.140 -0.0563 -0.0768 -0.2337
   75POPC   C2B 1211   0.233   8.700   6.717 -0.4487 -0.1250 -0.0646
   75POPC   C3B 1212   0.222   9.078   6.576 -0.0666 -0.0400  0.1890
   75POPC   C4B 1213  -0.059   9.259   6.415  0.2221 -0.4702  0.0563
   76POPC   NC3 1214   2.054   3.707   7.994 -0.2890  0.0187  0.2015
   76POPC   PO4 1215   2.135   3.218   7.830  0.2217 -0.0036  0.1036
   76POPC   GL1 1216   2.103   3.411   7.515 -0.3128  0.0210  0.0157
   76POPC   GL2 1217   2.264   3.649   7.550 -0.1522  0.2593 -0.0640
   76POPC   C1A 1218   2.333   3.294   7.170  0.2853 -0.3198  0.1468
   76POPC   D2A 1219   2.287   3.379   6.653  0.0443 -0.0978 -0.3886
   76POPC   C3A 1220   2.649   3.190   6.390  0.1991 -0.2168  0.0086
   76POPC   C4A 1221   2.857   2.826   6.244  0.0313 -0.0064  0.1296
   76POPC   C1B 1222   2.457   3.780   7.236  0.3829 -0.2439 -0.0285
   76POPC   C2B 1223   2.346   3.972   6.849  0.3437  0.0333 -0.1045
   76POPC   C3B 1224   2.456   4.132   6.486  0.0798 -0.0800  0.1685
   76POPC   C4B 1225   2.430   4.158   5.961 -0.1416 -0.2040 -0.3798
   77POPC   NC3 1226   1.151   8.153   7.757  0.0123  0.1201 -0.1671
   77POPC   PO4 1227   1.541   7.868   7.817  0.1012  0.2327 -0.0552
   77POPC   GL1 1228   1.491   7.884   7.386 -0.1191 -0.1256 -0.1362
   77POPC   GL2 1229   1.141   8.034   7.300  0.2937  0.1274  0.0392
   77POPC   C1A 1230   1.567   8.149   7.023 -0.0183 -0.2141  0.0999
   77POPC   D2A 1231   1.525   8.198   6.585  0.2001 -0.0803 -0.0075
   77POPC   C3A 1232   1.369   7.943   6.336  0.0520  0.1503 -0.1716
   77POPC   C4A 1233   1.106   7.770   6.044 -0.2077 -0.1246 -0.2872
   77POPC   C1B 1234   1.274   7.792   6.824  0.0421 -0.3087  0.1060
   77POPC   C2B 1235   1.204   7.515   6.558 -0.1094 -0.2197  0.1909
   77POPC   C3B 1236   1.297   7.218   6.266 -0.1412 -0.5544  0.1933
   77POPC   C4B 1237   1.666   7.150   6.007  0.0136 -0.4589  0.2024
   78POPC   NC3 1238   5.653   8.247   7.520 -0.2717  0.2881 -0.0805
   78POPC   PO4 1239   5.254   8.445   7.504 -0.0269 -0.1187 -0.1377
   78POPC   GL1 1240   5.289   8.258   7.095 -0.0807 -0.0483 -0.0793
   78POPC   GL2 1241   5.702   8.372   6.949 -0.0609  0.1612  0.1840
   78POPC   C1A 1242   5.369   8.255   6.627 -0.2102  0.1659  0.3557
   78POPC   D2A 1243   5.665   8.232   6.245  0.1421 -0.1738  0.3382
   78POPC   C3A 1244   5.533   8.175   5.821  0.5721 -0.0103  0.0610
   78POPC   C4A 1245   5.254   8.250   5.409  0.1087 -0.2788  0.3843
   78POPC   C1B 1246   6.085   8.547   6.948 -0.1648  0.1841  0.0973
   78POPC   C2B 1247   6.423   8.438   6.630  0.1679 -0.1706  0.0748
   78POPC   C3B 1248   6.797   8.259   6.332 -0.0821 -0.1890  0.3661
   78POPC   C4B 1249   6.786   7.942   6.016 -0.1536  0.1158 -0.0736
   79POPC   NC3 1250   8.252  10.130   8.282  0.1213  0.0642 -0.0247
   79POPC   PO4 1251   8.201  10.563   8.022  0.1982 -0.0623  0.0574
   79POPC   GL1 1252   8.362  10.375   7.557 -0.2106 -0.1601  0.0191
   79POPC   GL2 1253   8.068  10.345   7.230 -0.2866 -0.2939  0.5405
   79POPC   C1A 1254   8.626  10.300   7.209 -0.2805  0.0750 -0.1463
   79POPC   D2A 1255   8.842  10.357   6.846 -0.1504 -0.2685  0.0255
   79POPC   C3A 1256   9.104  10.102   6.746 -0.0282 -0.0335  0.1197
   79POPC   C4A 1257   9.602  10.228   6.561  0.1012 -0.1497  0.0248
   79POPC   C1B 1258   7.843   9.985   7.209  0.0186 -0.2215  0.2456
   79POPC   C2B 1259   7.554   9.764   6.964 -0.0591 -0.2693  0.1577
   79POPC   C3B 1260   7.408   9.568   6.613  0.1918 -0.0564  0.0154
   79POPC   C4B 1261   7.430   9.130   6.541  0.0801  0.0642  0.4440
   80POPC   NC3 1262   3.345   0.840   7.940  0.0110  0.4009  0.2272
   80POPC   PO4 1263   3.407   1.195   7.688  0.1648  0.3273  0.0046
   80POPC   GL1 1264   3.442   1.424   7.279  0.2870 -0.0791  0.2100
   80POPC   GL2 1265   3.428   1.090   7.056 -0.0219  0.0713 -0.1324
   80POPC   C1A 1266   3.688   1.504   6.882  0.3500 -0.0945 -0.1119
   80POPC   D2A 1267   4.140   1.443   6.753  0.0106 -0.0294 -0.0330
   80POPC   C3A 1268   4.039   1.367   6.345  0.3748 -0.5014  0.1454
   80POPC   C4A 1269   3.738   1.751   6.208 -0.0304  0.2816 -0.0028
   80POPC   C1B 1270   3.133   1.021   6.645 -0.2823  0.0734  0.0118
   80POPC   C2B 1271   2.800   1.151   6.536 -0.1381  0.0715  0.1864
   80POPC   C3B 1272   2.704   1.341   6.002 -0.3498  0.2753 -0.1506
   80POPC   C4B 1273   2.838   1.465   5.596 -0.1102 -0.0068 -0.3921
   81POPC   NC3 1274   9.622   8.757   8.646 -0.0188  0.1764 -0.0329
   81POPC   PO4 1275   9.708   8.578   8.142 -0.0352 -0.1486 -0.0362
   81POPC   GL1 1276   9.818   8.832   7.747  0.0547 -0.0194 -0.1444
   81POPC   GL2 1277   9.973   8.592   7.557 -0.0976  0.3054  0.3308
   81POPC   C1A 1278  10.036   9.091   7.384 -0.1525  0.0779  0.1032
   81POPC   D2A 1279  10.414   9.320   7.372 -0.0516  0.1455  0.1768
   81POPC   C3A 1280  10.630   9.106   7.171 -0.1319  0.0478 -0.0774
   81POPC   C4A 1281  11.075   9.102   7.031 -0.0539  0.1443 -0.1883
   81POPC   C1B 1282   9.857   8.573   7.157 -0.2466  0.1416  0.0049
   81POPC   C2B 1283   9.904   8.442   6.773  0.3660 -0.4241 -0.0720
   81POPC   C3B 1284   9.778   8.755   6.353  0.2187  0.0059 -0.0087
   81POPC   C4B 1285   9.626   9.114   6.221  0.3449  0.3099 -0.0998
   82POPC   NC3 1286   6.398   2.931   7.275 -0.0220 -0.1274  0.2442
   82POPC   PO4 1287   6.361   2.467   7.433 -0.2292 -0.0697 -0.0423
   82POPC   GL1 1288   6.753   2.609   7.126 -0.1290  0.0011  0.2444
   82POPC   GL2 1289   6.917   2.791   7.104  0.1415 -0.0115 -0.0697
   82POPC   C1A 1290   6.804   2.547   6.604 -0.2354 -0.1071 -0.2162
   82POPC   D2A 1291   6.568   2.590   6.198  0.0365 -0.0939  0.0149
   82POPC   C3A 1292   6.319   2.903   6.041  0.1021  0.0976  0.0723
   82POPC   C4A 1293   5.964   2.966   5.818 -0.0167 -0.1963  0.1572
   82POPC   C1B 1294   7.140   2.955   6.712 -0.0769 -0.4442 -0.1503
   82POPC   C2B 1295   7.249   3.006   6.220  0.0777 -0.0483  0.0366
   82POPC   C3B 1296   7.376   3.089   5.803 -0.1694  0.1963  0.1110
   82POPC   C4B 1297   7.281   3.154   5.366  0.1918 -0.0015  0.6125
   83POPC   NC3 1298   9.126   4.068   7.673  0.0537 -0.0214 -0.0910
   83POPC   PO4 1299   8.923   3.657   7.890 -0.0495  0.3405 -0.2583
   83POPC   GL1 1300   8.784   3.729   7.512  0.1901  0.2931 -0.3088
   83POPC   GL2 1301   8.912   3.513   7.282  0.1306  0.0718  0.0541
   83POPC   C1A 1302   8.792   3.966   7.143 -0.2845 -0.0692  0.0147
   83POPC   D2A 1303   8.718   3.966   6.717 -0.0118  0.6087  0.0687
   83POPC   C3A 1304   9.050   3.987   6.362  0.1826 -0.0483  0.1609
   83POPC   C4A 1305   9.063   4.062   5.951 -0.1449  0.0255  0.0539
   83POPC   C1B 1306   9.142   3.471   6.843 -0.0182  0.0009 -0.0961
   83POPC   C2B 1307   9.344   3.579   6.454 -0.0291 -0.0594 -0.0047
   83POPC   C3B 1308   9.549   3.787   6.050 -0.0073  0.5050 -0.0118
   83POPC   C4B 1309   9.508   4.242   6.107 -0.1961 -0.2329 -0.1415
   84POPC   NC3 1310  10.005   2.606   7.916 -0.1055 -0.2633  0.0276
   84POPC   PO4 1311   9.940   2.436   7.547  0.0306  0.0829  0.1853
   84POPC   GL1 1312  10.085   2.481   7.100  0.1297 -0.0932  0.4945
   84POPC   GL2 1313  10.451   2.390   7.100 -0.2276  0.0420 -0.3332
   84POPC   C1A 1314   9.796   2.666   6.778  0.0453 -0.2897 -0.3209
   84POPC   D2A 1315   9.437   2.528   6.406 -0.1758 -0.0809  0.0529
   84POPC   C3A 1316   9.594   2.317   6.059 -0.1145 -0.1759  0.0715
   84POPC   C4A 1317   9.519   2.262   5.587 -0.0675  0.0203  0.2449
   84POPC   C1B 1318  10.349   2.613   6.667 -0.0203  0.3397  0.2918
   84POPC   C2B 1319  10.060   2.832   6.421  0.1117 -0.0349  0.0656
   84POPC   C3B 1320   9.873   2.776   5.920 -0.0029  0.2145 -0.0546
   84POPC   C4B 1321   9.950   2.473   5.571  0.0660 -0.2728 -0.1556
   85POPC   NC3 1322   9.558   7.727   8.082 -0.3094  0.2786  0.1321
   85POPC   PO4 1323   9.516   8.167   7.972 -0.1669 -0.2548  0.2710
   85POPC   GL1 1324   9.614   8.192   7.561 -0.1914  0.1551 -0.2283
   85POPC   GL2 1325   9.856   7.938   7.623 -0.1112 -0.0831  0.1412
   85POPC   C1A 1326   9.722   8.058   7.025  0.4098 -0.1448 -0.4002
   85POPC   D2A 1327   9.502   8.086   6.656  0.2362 -0.1313  0.2286
   85POPC   C3A 1328   9.176   7.766   6.541 -0.2537 -0.3409  0.0790
   85POPC   C4A 1329   8.860   7.470   6.481  0.0079  0.1232  0.1199
   85POPC   C1B 1330   9.606   7.715   7.317  0.1837  0.2171 -0.2555
   85POPC   C2B 1331   9.773   7.577   6.932 -0.1828 -0.1820 -0.1200
   85POPC   C3B 1332   9.767   7.540   6.493  0.1567 -0.0627 -0.1831
   85POPC   C4B 1333   9.766   7.483   6.130  0.0150  0.1593  0.2272
   86POPC   NC3 1334   9.101   2.672   7.446  0.0412 -0.0150 -0.2208
   86POPC   PO4 1335   8.741   2.686   7.653  0.1892 -0.1717 -0.1832
   86POPC   GL1 1336   8.557   2.870   7.260 -0.1879 -0.0830 -0.0335
   86POPC   GL2 1337   8.824   2.984   7.157  0.2151 -0.2654 -0.3359
   86POPC   C1A 1338   8.294   2.992   7.005  0.1923 -0.0056 -0.2131
   86POPC   D2A 1339   8.259   3.174   6.694  0.1972 -0.0661  0.0587
   86POPC   C3A 1340   8.342   2.999   6.314  0.1490 -0.4660 -0.1591
   86POPC   C4A 1341   8.351   3.067   5.821 -0.2880 -0.0200 -0.0214
   86POPC   C1B 1342   8.789   3.041   6.695 -0.1817 -0.2905 -0.4323
   86POPC   C2B 1343   8.867   2.974   6.316  0.1262 -0.1513 -0.3439
   86POPC   C3B 1344   8.612   2.697   6.013  0.1152 -0.0976  0.1092
   86POPC   C4B 1345   8.442   2.650   5.587  0.2673 -0.0081  0.0298
   87POPC   NC3 1346   9.549   1.007   7.795  0.2171  0.1198  0.1711
   87POPC   PO4 1347   9.363   0.892   7.425 -0.5942  0.0253  0.0173
   87POPC   GL1 1348   9.603   0.696   7.017 -0.4668  0.0376 -0.0077
   87POPC   GL2 1349   9.302   0.636   6.868 -0.0251  0.2001  0.0556
   87POPC   C1A 1350   9.757   0.607   6.641 -0.0463 -0.0791 -0.0806
   87POPC   D2A 1351   9.901   0.424   6.347  0.0255 -0.0297  0.1569
   87POPC   C3A 1352   9.723   0.497   5.851  0.1077  0.2961 -0.1846
   87POPC   C4A 1353   9.454   0.261   5.498 -0.3747  0.3512 -0.1051
   87POPC   C1B 1354   9.315   1.001   6.536 -0.4390 -0.1858  0.0535
   87POPC   C2B 1355   9.299   1.052   6.060  0.1777 -0.0791 -0.1775
   87POPC   C3B 1356   9.575   1.013   5.705  0.1593  0.2372  0.0736
   87POPC   C4B 1357   9.548   0.762   5.367 -0.1945  0.2408 -0.0203
   88POPC   NC3 1358   4.832   8.915   7.455  0.0190  0.2369  0.0701
   88POPC   PO4 1359   4.506   9.166   7.552 -0.0567  0.0593 -0.2977
   88POPC   GL1 1360   4.397   8.860   7.179  0.0887 -0.2263  0.0018
   88POPC   GL2 1361   4.306   8.547   7.265  0.1200  0.2241  0.0435
   88POPC   C1A 1362   4.550   8.698   6.845 -0.1333 -0.2088 -0.2294
   88POPC   D2A 1363   4.643   8.583   6.407 -0.0186 -0.2673  0.1265
   88POPC   C3A 1364   4.991   8.426   6.227 -0.1027  0.1736 -0.1515
   88POPC   C4A 1365   5.344   8.580   6.122 -0.4151 -0.1378  0.0498
   88POPC   C1B 1366   4.449   8.201   6.984 -0.0357 -0.2221  0.1566
   88POPC   C2B 1367   4.510   7.993   6.585 -0.2146  0.0130  0.2188
   88POPC   C3B 1368   4.633   8.076   6.132 -0.0608 -0.1350 -0.0910
   88POPC   C4B 1369   4.372   8.008   5.764 -0.0338  0.3245  0.0424
   89POPC   NC3 1370   9.243  10.630   8.060  0.1377  0.3288 -0.0693
   89POPC   PO4 1371   9.603  10.328   8.210 -0.1454  0.1412 -0.3889
   89POPC   GL1 1372   9.696  10.081   7.754  0.0958  0.0672  0.1372
   89POPC   GL2 1373   9.536   9.812   7.593  0.1874 -0.1537  0.0674
   89POPC   C1A 1374   9.799  10.167   7.313 -0.1475  0.0955  0.0791
   89POPC   D2A 1375   9.796   9.974   6.899  0.2681  0.2237  0.2029
   89POPC   C3A 1376   9.448   9.783   6.630 -0.0903 -0.0593  0.0572
   89POPC   C4A 1377   9.194   9.425   6.776  0.1450 -0.1125 -0.0145
   89POPC   C1B 1378   9.596   9.621   7.176 -0.1064 -0.0466 -0.1168
   89POPC   C2B 1379   9.789   9.442   6.764 -0.0971 -0.1711 -0.0569
   89POPC   C3B 1380  10.055   9.718   6.582 -0.0389  0.2943 -0.1380
   89POPC   C4B 1381  10.409   9.700   6.444 -0.2896  0.0057 -0.0090
   90POPC   NC3 1382   3.539  10.370   7.929 -0.1109  0.1948 -0.2085
   90POPC   PO4 1383   3.594  10.635   7.561  0.2198 -0.1165 -0.0412
   90POPC   GL1 1384   3.406  10.557   7.253 -0.1118  0.2402  0.0309
   90POPC   GL2 1385   3.059  10.449   7.211 -0.0718  0.3655 -0.0080
   90POPC   C1A 1386   3.473  10.730   6.810  0.0589 -0.1095  0.4542
   90POPC   D2A 1387   3.623  10.522   6.422 -0.2183  0.0321 -0.3721
   90POPC   C3A 1388   3.334  10.353   6.063  0.0042  0.0516 -0.1495
   90POPC   C4A 1389   3.267  10.417   5.629  0.0881  0.1087  0.1591
   90POPC   C1B 1390   2.972  10.584   6.838 -0.1320 -0.3892 -0.0735
   90POPC   C2B 1391   3.128  10.736   6.399 -0.1690  0.5100 -0.0062
   90POPC   C3B 1392   3.229  10.982   6.179  0.0161 -0.2957 -0.0194
   90POPC   C4B 1393   3.388  11.367   5.952  0.2152 -0.1456  0.0887
   91POPC   NC3 1394   2.534   2.923   7.651  0.2255 -0.0447 -0.1441
   91POPC   PO4 1395   2.947   3.035   7.794 -0.1997  0.2077 -0.0644
   91POPC   GL1 1396   3.110   2.996   7.339 -0.0885  0.0754 -0.0241
   91POPC   GL2 1397   2.811   2.831   7.195 -0.0546 -0.0745 -0.3981
   91POPC   C1A 1398   3.280   3.252   7.075  0.0447  0.1178  0.0297
   91POPC   D2A 1399   3.197   3.370   6.591  0.0803 -0.3623  0.2142
   91POPC   C3A 1400   2.795   3.676   6.557 -0.2677 -0.2464  0.0924
   91POPC   C4A 1401   2.748   3.889   6.156 -0.2313 -0.1333  0.5474
   91POPC   C1B 1402   2.604   2.578   6.970 -0.3121  0.0908  0.1311
   91POPC   C2B 1403   2.507   2.603   6.601  0.1903 -0.0392 -0.0476
   91POPC   C3B 1404   2.384   2.596   6.210 -0.3277  0.3158  0.1079
   91POPC   C4B 1405   2.154   2.654   5.852  0.0601 -0.0054 -0.2724
   92POPC   NC3 1406   2.312   5.977   7.983  0.0097 -0.0328  0.1955
   92POPC   PO4 1407   2.048   6.372   7.720  0.0959  0.2232  0.3378
   92POPC   GL1 1408   1.744   6.248   7.362  0.0693 -0.0189 -0.1123
   92POPC   GL2 1409   1.379   6.397   7.402 -0.0948 -0.0188  0.2652
   92POPC   C1A 1410   1.585   6.291   6.960  0.0316 -0.0455  0.0139
   92POPC   D2A 1411   1.686   6.246   6.480  0.2230  0.0555 -0.0652
   92POPC   C3A 1412   1.388   5.994   6.276  0.0611 -0.3597  0.0169
   92POPC   C4A 1413   1.249   5.819   5.861  0.0502  0.1729 -0.2286
   92POPC   C1B 1414   1.080   6.226   7.063 -0.1424 -0.1949 -0.0874
   92POPC   C2B 1415   1.146   6.203   6.692 -0.3326 -0.0360 -0.2053
   92POPC   C3B 1416   1.248   6.443   6.333  0.2478 -0.1888 -0.2204
   92POPC   C4B 1417   1.271   6.787   6.052  0.2071  0.2997  0.0613
   93POPC   NC3 1418   0.177   6.709   8.048  0.0046 -0.4545  0.1208
   93POPC   PO4 1419   0.478   6.418   7.830  0.0893  0.1782  0.1791
   93POPC   GL1 1420   0.433   6.550   7.421 -0.0609  0.0485  0.1187
   93POPC   GL2 1421   0.627   6.757   7.308 -0.1541 -0.2832  0.0083
   93POPC   C1A 1422   0.316   6.300   7.046  0.4117 -0.0269 -0.0426
   93POPC   D2A 1423   0.638   6.116   6.774 -0.0048 -0.3025 -0.0703
   93POPC   C3A 1424   0.479   5.935   6.461  0.3167 -0.4033  0.0821
   93POPC   C4A 1425   0.381   5.656   6.054  0.2816  0.1677 -0.1592
   93POPC   C1B 1426   0.719   6.649   6.780 -0.4280  0.1304  0.1123
   93POPC   C2B 1427   0.727   6.409   6.366 -0.0185 -0.1965  0.4131
   93POPC   C3B 1428   0.740   6.659   6.004  0.2571 -0.0945 -0.0767
   93POPC   C4B 1429   0.700   6.422   5.628  0.1513 -0.1436 -0.0331
   94POPC   NC3 1430   4.457  10.286   8.052 -0.0898 -0.0747 -0.0604
   94POPC   PO4 1431   4.817  10.516   7.808 -0.0003 -0.3045  0.3323
   94POPC   GL1 1432   4.894  10.493   7.328  0.0540 -0.2598 -0.3367
   94POPC   GL2 1433   4.723  10.169   7.149 -0.1091 -0.1946 -0.0596
   94POPC   C1A 1434   5.112  10.593   6.995 -0.0548 -0.0847  0.0493
   94POPC   D2A 1435   5.298  10.683   6.654 -0.1869  0.0712 -0.0947
   94POPC   C3A 1436   5.368  10.419   6.273 -0.0762  0.0941 -0.2873
   94POPC   C4A 1437   5.184  10.250   5.986  0.0204  0.0971 -0.0895
   94POPC   C1B 1438   4.766  10.334   6.736 -0.1673 -0.0353  0.0390
   94POPC   C2B 1439   4.988  10.115   6.432 -0.2031 -0.1753 -0.1786
   94POPC   C3B 1440   4.990   9.781   6.163 -0.1948  0.3294  0.1668
   94POPC   C4B 1441   5.348   9.561   6.014 -0.2407  0.2286 -0.0280
   95POPC   NC3 1442   4.604   4.291   7.967  0.4002  0.1712  0.0913
   95POPC   PO4 1443   4.236   3.930   7.946  0.1499  0.1037 -0.0026
   95POPC   GL1 1444   4.514   3.933   7.627  0.0547 -0.0477 -0.2208
   95POPC   GL2 1445   4.811   3.841   7.683 -0.0553 -0.1411  0.2117
   95POPC   C1A 1446   4.524   3.711   7.295 -0.1487  0.2417 -0.0202
   95POPC   D2A 1447   4.504   3.493   6.872 -0.0234 -0.0345 -0.0719
   95POPC   C3A 1448   4.233   3.133   6.733  0.1960  0.3617  0.1730
   95POPC   C4A 1449   3.904   2.823   6.633 -0.1624  0.0284 -0.0315
   95POPC   C1B 1450   5.000   3.722   7.360 -0.2829 -0.1403  0.1490
   95POPC   C2B 1451   5.076   3.645   6.881  0.1420 -0.1694  0.1936
   95POPC   C3B 1452   5.012   3.533   6.503 -0.1416  0.2230  0.1787
   95POPC   C4B 1453   4.913   3.642   5.974  0.1298  0.2239  0.1291
   96POPC   NC3 1454   1.046   1.688   8.091 -0.0891  0.0004 -0.0084
   96POPC   PO4 1455   1.256   1.587   7.731  0.0687  0.1141  0.1326
   96POPC   GL1 1456   1.451   1.771   7.266 -0.1006  0.0766 -0.1695
   96POPC   GL2 1457   1.842   1.668   7.171 -0.0062  0.0206  0.0619
   96POPC   C1A 1458   1.351   1.728   6.890  0.2320  0.0438 -0.0396
   96POPC   D2A 1459   1.274   1.633   6.492  0.0845  0.1196 -0.1226
   96POPC   C3A 1460   1.395   1.926   6.163  0.0051  0.0796  0.1042
   96POPC   C4A 1461   1.551   2.014   5.683  0.0517 -0.1247  0.1814
   96POPC   C1B 1462   2.021   1.643   6.726 -0.0658 -0.2889 -0.0762
   96POPC   C2B 1463   2.193   1.611   6.354  0.0017  0.0403  0.2490
   96POPC   C3B 1464   2.186   1.322   5.916 -0.2133  0.1779  0.1105
   96POPC   C4B 1465   2.411   1.172   5.492  0.1453 -0.0991  0.4269
   97POPC   NC3 1466   8.427   1.647   7.679 -0.1466 -0.0005  0.4035
   97POPC   PO4 1467   8.457   1.735   7.317  0.2267 -0.1087  0.0765
   97POPC   GL1 1468   8.333   2.040   7.010 -0.0529  0.1259 -0.0622
   97POPC   GL2 1469   8.501   1.849   6.839 -0.0974  0.2288 -0.2041
   97POPC   C1A 1470   7.965   2.030   6.658 -0.1373  0.1393  0.0881
   97POPC   D2A 1471   7.811   2.322   6.260  0.0229 -0.0420 -0.2061
   97POPC   C3A 1472   7.425   2.139   6.021  0.0992 -0.2874  0.0717
   97POPC   C4A 1473   7.156   1.783   5.906  0.0276  0.1813  0.2397
   97POPC   C1B 1474   8.528   2.137   6.508  0.1527 -0.0139 -0.0987
   97POPC   C2B 1475   8.298   2.278   6.209  0.1799 -0.5883 -0.1926
   97POPC   C3B 1476   8.091   2.678   6.009  0.1473 -0.0989  0.0011
   97POPC   C4B 1477   7.833   3.107   5.908 -0.1445  0.1757 -0.0810
   98POPC   NC3 1478   3.144   2.034   7.656 -0.2884 -0.0405 -0.0550
   98POPC   PO4 1479   2.675   2.017   7.671  0.1106 -0.2080 -0.1050
   98POPC   GL1 1480   2.404   1.830   7.354  0.2518 -0.3670 -0.0186
   98POPC   GL2 1481   2.306   1.514   7.089  0.3953  0.0812  0.0721
   98POPC   C1A 1482   2.577   1.896   6.941 -0.0311  0.0903  0.2117
   98POPC   D2A 1483   2.375   2.071   6.539  0.1342  0.2462 -0.2125
   98POPC   C3A 1484   1.992   2.041   6.475  0.0524 -0.2433 -0.0100
   98POPC   C4A 1485   1.546   2.128   6.607 -0.0984 -0.0812 -0.2529
   98POPC   C1B 1486   2.538   1.515   6.671 -0.3106  0.2881  0.1653
   98POPC   C2B 1487   2.805   1.649   6.309 -0.0461 -0.3772 -0.0165
   98POPC   C3B 1488   2.901   1.933   5.996 -0.3062  0.2602 -0.0856
   98POPC   C4B 1489   3.025   1.923   5.606  0.0639 -0.1164 -0.1241
   99POPC   NC3 1490   4.222   3.452   7.781  0.4346 -0.1515 -0.0165
   99POPC   PO4 1491   4.089   3.115   7.560  0.3082 -0.0113  0.0437
   99POPC   GL1 1492   4.014   3.313   7.295 -0.0970 -0.0208  0.1008
   99POPC   GL2 1493   3.796   3.593   7.276 -0.0391  0.0517  0.4713
   99POPC   C1A 1494   3.792   3.314   6.879 -0.2024 -0.0659 -0.0105
   99POPC   D2A 1495   3.647   3.536   6.538  0.2560 -0.1771 -0.1326
   99POPC   C3A 1496   3.177   3.566   6.163  0.0505  0.0255 -0.3083
   99POPC   C4A 1497   2.746   3.437   5.985  0.0592 -0.0534  0.3150
   99POPC   C1B 1498   3.458   3.709   7.045  0.3480  0.0807  0.0829
   99POPC   C2B 1499   3.267   3.882   6.757 -0.0960 -0.1595  0.1381
   99POPC   C3B 1500   3.403   3.952   6.455  0.0291 -0.1975 -0.0878
   99POPC   C4B 1501   3.614   3.882   6.072  0.2167 -0.1223  0.1195
  100POPC   NC3 1502   1.410  10.598   7.959  0.0631  0.0675  0.0214
  100POPC   PO4 1503   1.884  10.672   7.778 -0.0020 -0.0108 -0.0550
  100POPC   GL1 1504   2.097  10.734   7.302  0.2916  0.1575 -0.1311
  100POPC   GL2 1505   1.917  10.959   7.094 -0.1041  0.3499 -0.0535
  100POPC   C1A 1506   2.129  10.484   6.849 -0.4387 -0.0098  0.3393
  100POPC   D2A 1507   2.491  10.291   6.683  0.2584 -0.3568 -0.0951
  100POPC   C3A 1508   2.783  10.268   6.318  0.1308  0.0923  0.1818
  100POPC   C4A 1509   2.934  10.008   5.968 -0.0808  0.1324  0.3349
  100POPC   C1B 1510   1.764  10.891   6.730 -0.0043  0.1594 -0.3195
  100POPC   C2B 1511   1.806  11.099   6.372  0.1214  0.1325 -0.0404
  100POPC   C3B 1512   1.893  11.531   6.217 -0.0658 -0.1054 -0.1746
  100POPC   C4B 1513   1.635  11.780   5.953  0.0714 -0.1478 -0.2944
  101POPC   NC3 1514   2.863   8.024   7.895  0.3542  0.0437  0.0067
  101POPC   PO4 1515   3.202   8.137   7.823  0.3196  0.0308 -0.5027
  101POPC   GL1 1516   3.364   7.901   7.442  0.1024  0.2278 -0.2376
  101POPC   GL2 1517   3.120   7.729   7.458 -0.3902  0.0177  0.0635
  101POPC   C1A 1518   3.542   8.003   7.030 -0.1611 -0.1534 -0.1977
  101POPC   D2A 1519   3.686   8.260   6.613  0.2378 -0.1020 -0.0368
  101POPC   C3A 1520   3.549   8.002   6.278 -0.1841 -0.0134 -0.0586
  101POPC   C4A 1521   3.227   8.010   5.949  0.0024  0.2221 -0.2539
  101POPC   C1B 1522   3.085   7.634   6.969  0.0688  0.2511  0.0751
  101POPC   C2B 1523   2.864   7.724   6.534 -0.2474 -0.1436  0.1950
  101POPC   C3B 1524   2.657   7.614   6.109 -0.1727  0.1135 -0.2596
  101POPC   C4B 1525   2.590   7.619   5.684 -0.0163  0.2742 -0.1626
  102POPC   NC3 1526   6.793   2.310   7.910  0.0529  0.0194 -0.0560
  102POPC   PO4 1527   7.302   2.316   7.763 -0.4163  0.2980 -0.2705
  102POPC   GL1 1528   7.425   2.416   7.277 -0.1414 -0.0187  0.0525
  102POPC   GL2 1529   7.604   2.182   7.116 -0.0007 -0.4092 -0.2053
  102POPC   C1A 1530   7.209   2.446   6.851 -0.0103  0.1315  0.2510
  102POPC   D2A 1531   7.333   2.467   6.483  0.0648 -0.1497  0.0680
  102POPC   C3A 1532   7.092   2.525   6.042  0.1783 -0.1011  0.4020
  102POPC   C4A 1533   7.147   2.697   5.642  0.2415 -0.2829  0.1288
  102POPC   C1B 1534   7.491   2.078   6.687 -0.0363  0.0417 -0.1291
  102POPC   C2B 1535   7.097   2.027   6.389 -0.1485 -0.3643  0.0911
  102POPC   C3B 1536   6.827   2.087   6.059 -0.0324  0.0441 -0.0334
  102POPC   C4B 1537   6.326   2.112   6.002 -0.2383 -0.0919  0.2642
  103POPC   NC3 1538   3.649   4.454   8.396  0.1712 -0.0829  0.2410
  103POPC   PO4 1539   3.806   4.728   8.039 -0.1513  0.1735 -0.0040
  103POPC   GL1 1540   3.839   4.709   7.539  0.0356  0.0827  0.0723
  103POPC   GL2 1541   3.554   4.937   7.451  0.1250  0.0484 -0.1395
  103POPC   C1A 1542   3.955   4.569   7.055 -0.0899 -0.0423  0.1524
  103POPC   D2A 1543   3.937   5.020   6.928 -0.0153  0.1816  0.2676
  103POPC   C3A 1544   3.947   5.121   6.459 -0.3431 -0.0568  0.2044
  103POPC   C4A 1545   3.647   5.334   6.322  0.2946  0.0055  0.0155
  103POPC   C1B 1546   3.484   4.894   7.028 -0.0777  0.1780  0.2658
  103POPC   C2B 1547   3.484   4.922   6.519 -0.4147 -0.0059 -0.3357
  103POPC   C3B 1548   3.421   4.865   6.137 -0.1711 -0.2723  0.1281
  103POPC   C4B 1549   3.248   4.616   5.720  0.2524 -0.1903  0.2920
  104POPC   NC3 1550   7.337  10.407   7.913 -0.1261 -0.0429  0.1664
  104POPC   PO4 1551   7.257  10.714   7.588 -0.0413 -0.1361 -0.0980
  104POPC   GL1 1552   7.460  10.659   7.244 -0.0089 -0.0197  0.3431
  104POPC   GL2 1553   7.520  10.364   7.241 -0.0131  0.0831 -0.1405
  104POPC   C1A 1554   7.696  10.568   6.846 -0.0023  0.1609  0.1591
  104POPC   D2A 1555   7.960  10.257   6.764 -0.0048  0.1333 -0.2043
  104POPC   C3A 1556   7.940   9.849   6.659 -0.3885 -0.4095  0.1401
  104POPC   C4A 1557   8.098   9.599   6.990 -0.1185 -0.0787 -0.2923
  104POPC   C1B 1558   7.350  10.233   6.908 -0.3816  0.0723  0.0925
  104POPC   C2B 1559   7.479  10.110   6.540  0.1241 -0.0608  0.0365
  104POPC   C3B 1560   7.648   9.774   6.206  0.1232  0.0322 -0.3847
  104POPC   C4B 1561   7.688   9.479   5.784 -0.0011 -0.0259  0.1130
  105POPC   NC3 1562   1.435   3.819   8.535  0.1646  0.0954 -0.3596
  105POPC   PO4 1563   1.580   3.643   8.120 -0.0801  0.0132  0.1319
  105POPC   GL1 1564   1.602   3.960   7.775 -0.0981 -0.1724  0.3747
  105POPC   GL2 1565   1.901   4.044   7.616  0.3061  0.0464  0.2815
  105POPC   C1A 1566   1.248   3.804   7.317 -0.0930 -0.1234 -0.0867
  105POPC   D2A 1567   1.224   4.042   6.876  0.1422 -0.0071 -0.1421
  105POPC   C3A 1568   1.095   4.041   6.409 -0.0179 -0.1796 -0.2741
  105POPC   C4A 1569   1.026   4.172   5.934 -0.1576  0.0065 -0.0674
  105POPC   C1B 1570   1.880   3.858   7.258 -0.1596 -0.2037 -0.4568
  105POPC   C2B 1571   1.883   3.900   6.826  0.0346  0.1465 -0.0036
  105POPC   C3B 1572   2.068   3.820   6.424 -0.1983  0.0219  0.1460
  105POPC   C4B 1573   2.298   3.623   6.117  0.0292 -0.0769  0.2074
  106POPC   NC3 1574   9.758   1.697   8.073  0.3092  0.0065  0.1833
  106POPC   PO4 1575  10.196   1.629   7.860  0.0279  0.1384  0.1792
  106POPC   GL1 1576  10.261   1.612   7.421  0.1125  0.0085  0.1594
  106POPC   GL2 1577  10.155   1.913   7.159 -0.0378  0.1301  0.4264
  106POPC   C1A 1578  10.298   1.397   7.105 -0.0447 -0.5648 -0.3444
  106POPC   D2A 1579  10.234   0.979   6.948 -0.2502 -0.2320  0.0871
  106POPC   C3A 1580  10.209   0.806   6.581 -0.0334  0.2522  0.4624
  106POPC   C4A 1581  10.364   0.804   6.118  0.1336 -0.1578 -0.1449
  106POPC   C1B 1582   9.973   2.141   6.795 -0.3149  0.0688  0.0964
  106POPC   C2B 1583   9.950   2.371   6.380 -0.2525  0.1004 -0.0573
  106POPC   C3B 1584  10.253   2.412   6.043 -0.0506 -0.0812 -0.3033
  106POPC   C4B 1585  10.526   2.236   5.727  0.1700  0.1233  0.1279
  107POPC   NC3 1586   5.874   7.022   8.343  0.2466  0.1148  0.0392
  107POPC   PO4 1587   6.000   7.443   8.144 -0.1151  0.0957  0.0052
  107POPC   GL1 1588   6.204   7.478   7.807  0.2680 -0.2372  0.1705
  107POPC   GL2 1589   6.402   7.714   7.771  0.1183 -0.0925 -0.0418
  107POPC   C1A 1590   6.510   7.294   7.569 -0.0180  0.0283  0.2041
  107POPC   D2A 1591   6.605   7.091   7.249 -0.1861  0.0367  0.0698
  107POPC   C3A 1592   6.541   6.709   7.367  0.0647  0.0166 -0.1150
  107POPC   C4A 1593   6.177   6.416   7.497 -0.1023  0.0723 -0.2266
  107POPC   C1B 1594   6.837   7.652   7.668 -0.0722  0.0395  0.0366
  107POPC   C2B 1595   7.144   7.536   7.468  0.1843  0.1445 -0.5271
  107POPC   C3B 1596   7.538   7.588   7.417  0.0318 -0.0891 -0.2918
  107POPC   C4B 1597   8.057   7.789   7.383  0.2682 -0.3406  0.1275
  108POPC   NC3 1598   3.749   0.858   7.353  0.2170 -0.2855  0.0298
  108POPC   PO4 1599   4.118   1.093   7.148 -0.1221 -0.0708  0.1886
  108POPC   GL1 1600   3.839   1.005   6.781 -0.1329  0.0443 -0.0517
  108POPC   GL2 1601   4.236   0.933   6.633 -0.1494  0.1441 -0.0649
  108POPC   C1A 1602   3.552   1.225   6.513 -0.3592  0.3617  0.0383
  108POPC   D2A 1603   3.242   1.228   6.210 -0.0080  0.2194 -0.0293
  108POPC   C3A 1604   3.210   1.169   5.735  0.0046  0.0278 -0.2361
  108POPC   C4A 1605   3.556   1.027   5.506 -0.0572  0.0576  0.3475
  108POPC   C1B 1606   4.449   1.054   6.265  0.0644  0.6788 -0.1792
  108POPC   C2B 1607   4.574   1.105   5.952  0.0532  0.2755 -0.0175
  108POPC   C3B 1608   4.901   1.386   5.786  0.0327 -0.0468  0.1847
  108POPC   C4B 1609   5.189   1.708   5.698  0.2095  0.3906  0.1800
  109POPC   NC3 1610  10.634  10.566   8.251  0.0946  0.2093  0.2948
  109POPC   PO4 1611  10.654  10.622   7.840  0.2756 -0.0093 -0.1346
  109POPC   GL1 1612  10.658  10.659   7.413  0.2903 -0.1998 -0.3119
  109POPC   GL2 1613  10.592  11.023   7.325 -0.1393 -0.2798  0.0462
  109POPC   C1A 1614  10.512  10.606   6.875  0.1468 -0.1793 -0.0740
  109POPC   D2A 1615  10.542  10.470   6.327  0.0338 -0.2112 -0.5089
  109POPC   C3A 1616  10.694  10.002   6.170  0.0166 -0.1853  0.1057
  109POPC   C4A 1617  10.879   9.881   5.788  0.1400 -0.4188  0.0207
  109POPC   C1B 1618  10.880  10.860   6.974 -0.0897 -0.0841 -0.1445
  109POPC   C2B 1619  10.963  10.787   6.491 -0.3047  0.0816 -0.0216
  109POPC   C3B 1620  10.963  10.840   6.090  0.3915  0.3468 -0.2588
  109POPC   C4B 1621  10.586  10.692   5.882  0.0346  0.1468 -0.2684
  110POPC   NC3 1622   5.099   5.258   8.000  0.3042  0.0017  0.2708
  110POPC   PO4 1623   4.845   5.624   7.743 -0.0911 -0.1088 -0.1156
  110POPC   GL1 1624   4.641   5.265   7.448 -0.0586  0.1509  0.2424
  110POPC   GL2 1625   4.395   5.220   7.510  0.1852  0.3454  0.1099
  110POPC   C1A 1626   4.816   5.108   6.963  0.0479 -0.0509 -0.1095
  110POPC   D2A 1627   4.810   5.035   6.527 -0.1508 -0.0636 -0.1604
  110POPC   C3A 1628   4.371   5.093   6.238  0.2022  0.3558 -0.0056
  110POPC   C4A 1629   4.144   5.270   5.870 -0.5280 -0.2107 -0.2312
  110POPC   C1B 1630   4.461   4.881   7.197 -0.0786  0.0880  0.1095
  110POPC   C2B 1631   4.749   4.566   6.818  0.1339  0.1008  0.0822
  110POPC   C3B 1632   4.928   4.547   6.424 -0.1200 -0.1092  0.1205
  110POPC   C4B 1633   5.214   4.634   6.055  0.0928 -0.3611  0.2920
  111POPC   NC3 1634   0.581   5.712   8.002  0.0816  0.0550  0.0521
  111POPC   PO4 1635   0.906   6.202   8.067  0.0043 -0.0943  0.2933
  111POPC   GL1 1636   0.891   5.978   7.690 -0.2746  0.0831 -0.0334
  111POPC   GL2 1637   0.711   6.097   7.418  0.2751 -0.1841 -0.0935
  111POPC   C1A 1638   1.076   5.700   7.370  0.0452 -0.0416 -0.2237
  111POPC   D2A 1639   1.239   5.778   6.948  0.1942  0.0465  0.1551
  111POPC   C3A 1640   1.614   5.760   6.669 -0.3480 -0.0793  0.0906
  111POPC   C4A 1641   1.839   5.795   6.391 -0.0034 -0.2358  0.0727
  111POPC   C1B 1642   0.663   5.787   7.076 -0.0537  0.8223 -0.2053
  111POPC   C2B 1643   0.863   5.620   6.674 -0.0245  0.2469  0.2769
  111POPC   C3B 1644   0.947   5.848   6.361 -0.1056 -0.1465 -0.0226
  111POPC   C4B 1645   0.813   6.029   6.001  0.1411 -0.0072 -0.2786
  112POPC   NC3 1646   5.572   6.321   7.730 -0.0087 -0.3118  0.0936
  112POPC   PO4 1647   5.228   6.541   7.912 -0.0382 -0.0397 -0.0357
  112POPC   GL1 1648   5.152   6.526   7.516  0.1093  0.0125  0.1460
  112POPC   GL2 1649   4.947   6.817   7.295 -0.0631 -0.6064  0.0990
  112POPC   C1A 1650   5.076   6.356   7.199  0.2065 -0.0270 -0.1470
  112POPC   D2A 1651   5.263   6.457   6.809  0.0334 -0.1358 -0.3440
  112POPC   C3A 1652   5.375   6.216   6.431  0.3200 -0.0541  0.3831
  112POPC   C4A 1653   5.234   5.754   6.367 -0.0733  0.0250 -0.2374
  112POPC   C1B 1654   4.702   6.656   6.981  0.2045 -0.3223  0.2308
  112POPC   C2B 1655   4.630   6.403   6.531  0.3177 -0.1743 -0.0087
  112POPC   C3B 1656   4.495   6.422   6.087  0.0022  0.0114 -0.0503
  112POPC   C4B 1657   4.238   6.723   5.846 -0.1955 -0.0622  0.2470
  113POPC   NC3 1658   5.463   9.540   7.498 -0.2182 -0.1081 -0.0618
  113POPC   PO4 1659   5.360   9.972   7.626  0.0157 -0.1016  0.1982
  113POPC   GL1 1660   5.192   9.918   7.245  0.1320  0.0268  0.0478
  113POPC   GL2 1661   5.172  10.005   6.963  0.0704 -0.0891  0.0415
  113POPC   C1A 1662   4.923   9.650   7.062 -0.0859 -0.0740 -0.4865
  113POPC   D2A 1663   4.749   9.215   6.993 -0.3936 -0.0727 -0.0550
  113POPC   C3A 1664   4.504   9.188   6.697  0.0465  0.0526  0.1083
  113POPC   C4A 1665   4.243   8.945   6.488  0.0835  0.0691 -0.1352
  113POPC   C1B 1666   5.320   9.749   6.581 -0.1105  0.3094 -0.1841
  113POPC   C2B 1667   5.472   9.248   6.370 -0.0661 -0.0003 -0.1941
  113POPC   C3B 1668   5.652   9.010   6.196  0.2861 -0.0560 -0.0871
  113POPC   C4B 1669   5.706   8.956   5.791 -0.2791  0.1767 -0.3821
  114POPC   NC3 1670  10.066   9.166   8.032  0.0306 -0.0938 -0.0402
  114POPC   PO4 1671   9.938   9.381   8.398  0.1293  0.2049 -0.1662
  114POPC   GL1 1672   9.819   9.586   7.959  0.2434  0.0898  0.0337
  114POPC   GL2 1673   9.636   9.333   7.767  0.0319  0.1665  0.1696
  114POPC   C1A 1674  10.024   9.566   7.552  0.3335  0.1607  0.0993
  114POPC   D2A 1675  10.121   9.726   7.167  0.2362  0.2679 -0.0668
  114POPC   C3A 1676  10.259  10.221   7.152  0.1151  0.2193 -0.2513
  114POPC   C4A 1677  10.198  10.749   7.266 -0.0153  0.0593 -0.1303
  114POPC   C1B 1678   9.484   9.143   7.450  0.1585  0.2807  0.1966
  114POPC   C2B 1679   9.501   9.092   6.998 -0.2177 -0.0387 -0.0391
  114POPC   C3B 1680   9.239   9.003   6.574  0.0086  0.2478 -0.1145
  114POPC   C4B 1681   8.984   8.736   6.482  0.2185  0.0942  0.2898
  115POPC   NC3 1682   8.922   1.851   7.435 -0.1782  0.1382  0.1966
  115POPC   PO4 1683   8.842   1.444   7.412  0.0921 -0.3810  0.0326
  115POPC   GL1 1684   9.037   1.453   6.978 -0.1417 -0.1423  0.0365
  115POPC   GL2 1685   9.045   1.157   6.891  0.2493  0.1550 -0.4659
  115POPC   C1A 1686   9.367   1.477   6.648  0.3324 -0.0632 -0.0859
  115POPC   D2A 1687   9.446   1.451   6.275  0.1201  0.1039 -0.1067
  115POPC   C3A 1688   9.844   1.452   6.220 -0.3716 -0.0111 -0.0342
  115POPC   C4A 1689  10.133   1.318   6.328 -0.1374 -0.0232 -0.0087
  115POPC   C1B 1690   8.908   1.388   6.463  0.1839 -0.1054  0.0329
  115POPC   C2B 1691   8.686   1.743   6.331 -0.2395  0.1941  0.2434
  115POPC   C3B 1692   8.571   1.852   5.909  0.0551 -0.1449 -0.0795
  115POPC   C4B 1693   8.617   1.832   5.477  0.3622 -0.3511 -0.2243
  116POPC   NC3 1694   7.934   0.659   7.720  0.2763  0.3635 -0.2744
  116POPC   PO4 1695   7.570   0.573   7.434  0.5401  0.3219  0.0240
  116POPC   GL1 1696   7.851   0.293   7.202  0.2792 -0.3317  0.0241
  116POPC   GL2 1697   7.737   0.465   6.910 -0.0274  0.0016 -0.0922
  116POPC   C1A 1698   8.196   0.119   7.020 -0.0223 -0.0179 -0.0118
  116POPC   D2A 1699   8.370  -0.133   6.715  0.1885  0.4284 -0.0691
  116POPC   C3A 1700   8.240  -0.534   6.359  0.1417  0.0260  0.0787
  116POPC   C4A 1701   8.108  -0.808   6.000 -0.0303 -0.3467  0.2277
  116POPC   C1B 1702   8.068   0.297   6.551 -0.0268 -0.0590  0.0347
  116POPC   C2B 1703   8.221  -0.042   6.291  0.2546  0.2201  0.0830
  116POPC   C3B 1704   8.174  -0.224   5.941 -0.3346  0.1784  0.0376
  116POPC   C4B 1705   8.413  -0.433   5.884  0.3198 -0.2375 -0.2577
  117POPC   NC3 1706   2.400   6.906   7.740 -0.2065  0.0593 -0.1142
  117POPC   PO4 1707   2.772   7.244   7.903  0.0171 -0.1660 -0.1724
  117POPC   GL1 1708   2.839   7.138   7.451 -0.3067  0.3339  0.0015
  117POPC   GL2 1709   2.650   7.264   7.253 -0.0391  0.0011  0.1513
  117POPC   C1A 1710   3.226   7.158   7.205 -0.0163 -0.0080 -0.2504
  117POPC   D2A 1711   3.272   7.073   6.747  0.0800 -0.1132  0.0428
  117POPC   C3A 1712   2.957   7.248   6.551  0.1253  0.1561  0.0622
  117POPC   C4A 1713   2.425   7.307   6.435 -0.0467 -0.2171  0.0872
  117POPC   C1B 1714   2.658   7.098   6.864  0.2888 -0.1469 -0.1236
  117POPC   C2B 1715   2.616   6.833   6.588  0.0997  0.2450 -0.1931
  117POPC   C3B 1716   2.465   6.621   6.241  0.0717 -0.1365  0.2689
  117POPC   C4B 1717   2.501   6.274   5.967  0.1220 -0.2380 -0.0408
  118POPC   NC3 1718   1.196   0.821   7.504  0.0005  0.0216 -0.0773
  118POPC   PO4 1719   1.109   0.501   7.479  0.1362  0.0671  0.1965
  118POPC   GL1 1720   0.890   0.191   7.240 -0.0301  0.2468 -0.2258
  118POPC   GL2 1721   0.587   0.051   7.280 -0.1698 -0.1998 -0.0788
  118POPC   C1A 1722   0.724   0.130   6.776 -0.0694 -0.3295 -0.2474
  118POPC   D2A 1723   0.816   0.320   6.299 -0.2864 -0.2485  0.0365
  118POPC   C3A 1724   1.128   0.588   6.212 -0.1462 -0.1987  0.5018
  118POPC   C4A 1725   1.226   0.873   5.914 -0.1105  0.1955 -0.1944
  118POPC   C1B 1726   0.252  -0.312   7.166  0.0403 -0.4214  0.4147
  118POPC   C2B 1727   0.425  -0.683   7.103  0.1345 -0.1575 -0.1438
  118POPC   C3B 1728   0.850  -0.584   6.899  0.0213  0.1519  0.2930
  118POPC   C4B 1729   1.055  -0.262   6.642 -0.0756  0.0432 -0.4487
  119POPC   NC3 1730   8.416   6.051   8.700 -0.0612  0.2462 -0.2208
  119POPC   PO4 1731   8.767   6.342   8.638 -0.0744 -0.1515 -0.1791
  119POPC   GL1 1732   8.497   6.401   8.314  0.1626  0.3922 -0.2198
  119POPC   GL2 1733   8.425   5.993   8.203 -0.2842 -0.1281 -0.2096
  119POPC   C1A 1734   8.547   6.628   8.044  0.0207 -0.0303  0.2396
  119POPC   D2A 1735   8.798   6.970   7.969  0.0865 -0.1248  0.0561
  119POPC   C3A 1736   9.149   6.917   7.628  0.1598 -0.1078 -0.0150
  119POPC   C4A 1737   9.244   7.033   7.256 -0.2967 -0.2402 -0.1206
  119POPC   C1B 1738   8.713   6.172   7.839  0.0186  0.0146 -0.3019
  119POPC   C2B 1739   8.896   6.500   7.627  0.0392 -0.0670  0.0730
  119POPC   C3B 1740   8.924   6.668   7.234 -0.1280 -0.4164  0.1505
  119POPC   C4B 1741   8.859   6.581   6.919  0.3983 -0.1054 -0.2297
  120POPC   NC3 1742   3.950   8.686   7.609 -0.0567  0.2101 -0.1416
  120POPC   PO4 1743   3.854   8.268   7.602  0.0547 -0.0190 -0.1472
  120POPC   GL1 1744   3.789   8.414   7.230  0.0256 -0.5429 -0.1115
  120POPC   GL2 1745   3.983   8.266   7.013  0.3087 -0.0355  0.0673
  120POPC   C1A 1746   3.767   8.764   6.953  0.0630 -0.0204  0.2281
  120POPC   D2A 1747   3.702   8.771   6.532  0.1372  0.2800  0.1772
  120POPC   C3A 1748   3.405   8.599   6.296 -0.1230 -0.0881  0.1305
  120POPC   C4A 1749   3.525   8.437   5.803 -0.2526 -0.0836  0.1261
  120POPC   C1B 1750   4.173   8.354   6.526 -0.0819  0.0156 -0.1876
  120POPC   C2B 1751   4.049   8.066   6.178 -0.1031 -0.0802  0.2584
  120POPC   C3B 1752   3.794   7.920   5.848 -0.2730  0.1579 -0.0503
  120POPC   C4B 1753   3.960   7.698   5.626  0.1364 -0.1990  0.3655
  121POPC   NC3 1754   3.271   8.806   8.057  0.2199  0.1744  0.0454
  121POPC   PO4 1755   3.586   9.099   7.857  0.0499  0.0106  0.5002
  121POPC   GL1 1756   3.646   9.112   7.480 -0.1620  0.0657  0.0649
  121POPC   GL2 1757   4.005   9.204   7.386  0.0180 -0.2766  0.0645
  121POPC   C1A 1758   3.393   9.094   7.162 -0.0611  0.0614  0.2805
  121POPC   D2A 1759   3.321   8.980   6.868 -0.1961 -0.0604  0.1493
  121POPC   C3A 1760   3.112   8.683   6.685 -0.0346 -0.0630 -0.2528
  121POPC   C4A 1761   2.760   8.502   6.771 -0.1236  0.2105  0.0047
  121POPC   C1B 1762   3.771   9.305   7.019  0.3029 -0.2090  0.0174
  121POPC   C2B 1763   3.775   9.340   6.450  0.3073 -0.0054 -0.0353
  121POPC   C3B 1764   3.827   9.055   6.164  0.0093 -0.4440  0.2111
  121POPC   C4B 1765   3.965   8.618   6.155  0.1252 -0.0281  0.2630
  122POPC   NC3 1766   3.675   7.047   8.079  0.0886  0.1648  0.0451
  122POPC   PO4 1767   3.431   6.812   7.927  0.1500  0.1456 -0.0706
  122POPC   GL1 1768   3.386   6.668   7.502  0.2113 -0.1805 -0.2988
  122POPC   GL2 1769   3.198   6.582   7.404  0.2759  0.0054 -0.0452
  122POPC   C1A 1770   3.525   6.810   7.100 -0.1597  0.2504 -0.1859
  122POPC   D2A 1771   3.687   6.770   6.742  0.1226 -0.2339 -0.1828
  122POPC   C3A 1772   3.614   6.423   6.585 -0.0591  0.1897  0.1899
  122POPC   C4A 1773   3.704   5.985   6.625  0.2286 -0.0914 -0.2696
  122POPC   C1B 1774   2.973   6.677   7.040  0.1902  0.1773  0.1983
  122POPC   C2B 1775   3.117   6.627   6.650 -0.1074  0.0466  0.2418
  122POPC   C3B 1776   3.261   6.797   6.320  0.1242 -0.4171  0.0835
  122POPC   C4B 1777   3.168   6.727   5.835 -0.3208  0.1330  0.0325
  123POPC   NC3 1778   1.402   2.155   7.711  0.1892  0.2545 -0.1564
  123POPC   PO4 1779   1.718   2.330   7.970 -0.0542  0.0655  0.0018
  123POPC   GL1 1780   1.878   2.652   7.597  0.0959 -0.0725  0.2474
  123POPC   GL2 1781   1.753   2.954   7.374 -0.0775  0.0830 -0.0162
  123POPC   C1A 1782   2.130   2.794   7.161 -0.2059  0.2001  0.0472
  123POPC   D2A 1783   2.235   2.959   6.855 -0.0087 -0.1429  0.2909
  123POPC   C3A 1784   2.176   2.951   6.418 -0.3528 -0.0978 -0.3475
  123POPC   C4A 1785   2.139   3.127   6.063  0.1153 -0.0778  0.2165
  123POPC   C1B 1786   1.845   3.312   7.080 -0.0020  0.1738 -0.0375
  123POPC   C2B 1787   1.826   3.420   6.655  0.0179  0.0565  0.3520
  123POPC   C3B 1788   1.759   3.487   6.204  0.1204  0.3046 -0.1320
  123POPC   C4B 1789   1.932   3.667   5.776  0.1104  0.1546  0.3429
  124POPC   NC3 1790  10.052   7.328   8.292  0.0258 -0.0594 -0.2226
  124POPC   PO4 1791   9.686   7.122   8.237  0.1708 -0.3243  0.1151
  124POPC   GL1 1792   9.540   7.274   7.827  0.0991  0.0791  0.3708
  124POPC   GL2 1793   9.824   7.318   7.758 -0.1377 -0.3517  0.0806
  124POPC   C1A 1794   9.219   7.393   7.642 -0.0206  0.1329 -0.0214
  124POPC   D2A 1795   9.117   7.544   7.194  0.0225  0.2542 -0.2256
  124POPC   C3A 1796   9.299   7.393   6.901  0.0220  0.1014  0.1169
  124POPC   C4A 1797   9.302   7.296   6.541  0.0398  0.1842  0.0165
  124POPC   C1B 1798   9.962   7.425   7.419  0.2379  0.3122  0.3671
  124POPC   C2B 1799   9.805   7.081   7.226  0.1998 -0.1382  0.0531
  124POPC   C3B 1800   9.547   6.929   6.825  0.1223 -0.0267 -0.1623
  124POPC   C4B 1801   9.463   6.663   6.490 -0.1159  0.1370  0.0857
  125POPC   NC3 1802   9.331   1.374   7.356  0.2029 -0.1340  0.0766
  125POPC   PO4 1803   9.750   1.472   7.627  0.1671 -0.0509  0.0378
  125POPC   GL1 1804   9.855   1.493   7.225  0.0351 -0.3198 -0.0134
  125POPC   GL2 1805   9.711   1.277   7.041 -0.0316 -0.2352  0.0457
  125POPC   C1A 1806   9.910   1.657   6.739 -0.0077 -0.0962 -0.0000
  125POPC   D2A 1807  10.216   1.797   6.450 -0.0993  0.2434  0.1284
  125POPC   C3A 1808  10.561   1.562   6.556  0.0873 -0.3258 -0.1386
  125POPC   C4A 1809  10.648   1.161   6.478 -0.0291 -0.1431 -0.0463
  125POPC   C1B 1810   9.800   1.092   6.620 -0.2285 -0.1955 -0.0180
  125POPC   C2B 1811   9.823   0.934   6.157 -0.0189 -0.2035  0.2031
  125POPC   C3B 1812  10.061   0.893   5.717  0.0247 -0.1178  0.1931
  125POPC   C4B 1813  10.145   0.894   5.287  0.0114 -0.1400 -0.2456
  126POPC   NC3 1814   5.372  10.477   7.817  0.0498 -0.1802  0.0763
  126POPC   PO4 1815   5.775  10.635   7.960 -0.0983 -0.1232  0.1505
  126POPC   GL1 1816   5.745  10.579   7.477  0.1879 -0.5139  0.1069
  126POPC   GL2 1817   5.409  10.370   7.297 -0.2439  0.2193  0.0561
  126POPC   C1A 1818   6.019  10.390   7.136 -0.2501 -0.1050 -0.1447
  126POPC   D2A 1819   6.346  10.608   6.927 -0.4333  0.0245  0.3647
  126POPC   C3A 1820   6.225  10.955   6.790 -0.1668  0.0794 -0.1540
  126POPC   C4A 1821   5.974  11.056   6.479  0.1304  0.0139 -0.1102
  126POPC   C1B 1822   5.560  10.253   6.812 -0.0219 -0.2406  0.3031
  126POPC   C2B 1823   5.625  10.014   6.396  0.1753 -0.1003 -0.2201
  126POPC   C3B 1824   5.628   9.994   6.035 -0.2705 -0.1645  0.1245
  126POPC   C4B 1825   5.481   9.916   5.705  0.4261 -0.0757  0.4337
  127POPC   NC3 1826   6.116   8.998   7.820 -0.1670  0.1609 -0.0400
  127POPC   PO4 1827   6.492   8.664   7.736 -0.1361 -0.1111  0.0411
  127POPC   GL1 1828   6.912   8.463   7.520  0.3703 -0.0100  0.2902
  127POPC   GL2 1829   6.945   8.119   7.761  0.2266 -0.1516  0.0104
  127POPC   C1A 1830   7.062   8.052   7.301 -0.2126 -0.0156  0.1079
  127POPC   D2A 1831   7.173   7.952   6.964 -0.0130 -0.1606 -0.0382
  127POPC   C3A 1832   6.998   7.796   6.618  0.1252  0.1118  0.1782
  127POPC   C4A 1833   7.187   7.687   6.225  0.4340  0.0440 -0.1092
  127POPC   C1B 1834   7.370   8.109   7.745 -0.0006  0.3145  0.2584
  127POPC   C2B 1835   7.586   8.034   7.304 -0.5200  0.2425  0.2595
  127POPC   C3B 1836   7.687   7.832   6.974 -0.3432 -0.0790 -0.1334
  127POPC   C4B 1837   7.389   7.526   6.689  0.1798  0.3330  0.0666
  128POPC   NC3 1838   9.263   5.008   7.806 -0.2356 -0.0626 -0.0527
  128POPC   PO4 1839   9.249   4.564   7.692  0.0270 -0.2100  0.1829
  128POPC   GL1 1840   9.301   4.817   7.294 -0.1183 -0.0198 -0.0521
  128POPC   GL2 1841   9.445   5.137   7.383 -0.1367  0.0614 -0.2394
  128POPC   C1A 1842   9.561   4.806   6.901 -0.4299 -0.2549 -0.0732
  128POPC   D2A 1843   9.531   5.028   6.489 -0.0656 -0.1886  0.1187
  128POPC   C3A 1844   9.869   5.278   6.323 -0.3686  0.2245 -0.4173
  128POPC   C4A 1845  10.358   5.240   6.245 -0.0627  0.1344 -0.1200
  128POPC   C1B 1846   9.223   5.171   6.970 -0.1110 -0.2113 -0.3025
  128POPC   C2B 1847   9.111   5.358   6.535 -0.5188 -0.1349 -0.1133
  128POPC   C3B 1848   9.244   5.521   6.164 -0.1267  0.1042 -0.1673
  128POPC   C4B 1849   9.625   5.548   5.825 -0.1069 -0.1738  0.3088
  129POPC   NC3 1850   8.466   4.021   8.158  0.0546  0.0716 -0.1501
  129POPC   PO4 1851   8.754   4.325   7.960 -0.1618  0.1525 -0.1243
  129POPC   GL1 1852   8.708   4.298   7.498 -0.0934  0.2120  0.2252
  129POPC   GL2 1853   8.427   4.121   7.508 -0.0146 -0.0357 -0.3550
  129POPC   C1A 1854   8.697   4.503   7.171 -0.1987  0.3735 -0.3809
  129POPC   D2A 1855   8.530   4.684   6.867  0.0217 -0.0537  0.0437
  129POPC   C3A 1856   8.057   4.693   6.905  0.1700  0.0862  0.0307
  129POPC   C4A 1857   7.785   4.174   6.890  0.0051  0.0449 -0.1306
  129POPC   C1B 1858   8.292   4.281   7.122  0.1875  0.3173  0.0964
  129POPC   C2B 1859   8.232   4.274   6.624 -0.1082  0.1306  0.2787
  129POPC   C3B 1860   8.203   4.223   6.190  0.1457 -0.1109  0.0390
  129POPC   C4B 1861   8.163   3.936   5.877 -0.0828 -0.0791 -0.2213
  130POPC   NC3 1862   7.700   7.898   8.638 -0.0880 -0.1137  0.0546
  130POPC   PO4 1863   8.139   7.959   8.691 -0.1768 -0.0621 -0.0050
  130POPC   GL1 1864   8.276   7.910   8.207  0.0948 -0.3769 -0.0485
  130POPC   GL2 1865   8.594   7.836   8.017 -0.1289  0.0223  0.0309
  130POPC   C1A 1866   8.204   8.070   7.778  0.2644  0.2187 -0.4694
  130POPC   D2A 1867   7.921   8.307   7.559 -0.1144  0.0537 -0.0727
  130POPC   C3A 1868   7.943   8.306   7.118 -0.0717 -0.3336  0.0753
  130POPC   C4A 1869   7.979   8.329   6.684 -0.0852 -0.0510 -0.0817
  130POPC   C1B 1870   8.682   7.430   7.752 -0.0426  0.3421 -0.4164
  130POPC   C2B 1871   8.767   7.135   7.404  0.0096 -0.0492  0.2055
  130POPC   C3B 1872   8.824   7.178   6.938 -0.0307  0.1325  0.0811
  130POPC   C4B 1873   8.977   6.916   6.549  0.1194  0.0802 -0.1100
  131POPC   NC3 1874   4.436   6.516   8.558 -0.2368  0.0035  0.1171
  131POPC   PO4 1875   4.392   6.483   8.191  0.3135  0.1554 -0.1042
  131POPC   GL1 1876   4.335   6.464   7.676 -0.2158 -0.0924 -0.2657
  131POPC   GL2 1877   4.558   6.431   7.442 -0.2194  0.1272 -0.2716
  131POPC   C1A 1878   4.111   6.249   7.417  0.0287  0.2539  0.3866
  131POPC   D2A 1879   3.842   6.396   7.018 -0.1944  0.0270  0.0220
  131POPC   C3A 1880   3.458   6.312   7.041  0.3298 -0.1947  0.0076
  131POPC   C4A 1881   3.193   6.148   6.826  0.5054 -0.3528 -0.0760
  131POPC   C1B 1882   4.512   6.134   7.063  0.1613  0.1480 -0.1485
  131POPC   C2B 1883   4.468   5.874   6.663 -0.1090 -0.3207 -0.0864
  131POPC   C3B 1884   4.236   6.029   6.361  0.2434 -0.1212 -0.0628
  131POPC   C4B 1885   3.989   6.201   6.061  0.2015  0.2288  0.0014
  132POPC   NC3 1886   6.974   3.251   7.777  0.0427 -0.1238  0.0400
  132POPC   PO4 1887   6.766   3.203   7.381 -0.2510 -0.0360  0.0596
  132POPC   GL1 1888   6.617   3.345   7.065  0.1289 -0.0430 -0.0924
  132POPC   GL2 1889   6.365   3.365   6.812  0.1703 -0.1775  0.4270
  132POPC   C1A 1890   6.812   3.425   6.623  0.1565 -0.1617 -0.2313
  132POPC   D2A 1891   6.906   3.446   6.169  0.1115  0.3183 -0.1272
  132POPC   C3A 1892   7.045   3.792   6.056 -0.0590  0.0062  0.2499
  132POPC   C4A 1893   7.402   3.943   5.906 -0.1533 -0.0147 -0.2715
  132POPC   C1B 1894   6.060   3.629   6.606  0.2147 -0.1286  0.0982
  132POPC   C2B 1895   6.007   3.827   6.249 -0.3197 -0.2048  0.0814
  132POPC   C3B 1896   6.064   3.760   5.790 -0.0485  0.0825  0.0576
  132POPC   C4B 1897   6.220   3.397   5.705  0.0154  0.3152 -0.0425
  133POPC   NC3 1898   8.061   9.205   7.985  0.0898 -0.0112  0.0509
  133POPC   PO4 1899   7.647   9.042   8.042 -0.0352 -0.1737 -0.3589
  133POPC   GL1 1900   7.366   8.959   7.654 -0.0580 -0.0200 -0.0023
  133POPC   GL2 1901   7.556   9.035   7.378 -0.0310 -0.1324 -0.1916
  133POPC   C1A 1902   7.443   8.508   7.434 -0.0036 -0.0359 -0.1646
  133POPC   D2A 1903   7.257   8.456   7.074 -0.1187  0.0493  0.0709
  133POPC   C3A 1904   7.431   8.287   6.711 -0.0379  0.0108  0.0301
  133POPC   C4A 1905   7.422   8.112   6.229  0.3452  0.1428  0.1997
  133POPC   C1B 1906   7.203   8.941   7.024 -0.2281  0.0235 -0.0173
  133POPC   C2B 1907   7.097   8.692   6.676 -0.2673  0.2156  0.2102
  133POPC   C3B 1908   7.088   8.772   6.229  0.0222  0.0239 -0.2888
  133POPC   C4B 1909   7.032   8.720   5.744 -0.0636 -0.0296 -0.0295
  134POPC   NC3 1910   0.036   1.868   8.051 -0.1747 -0.2168 -0.1045
  134POPC   PO4 1911  -0.042   2.312   7.924 -0.0749  0.1778  0.0257
  134POPC   GL1 1912   0.220   2.388   7.516 -0.1600 -0.0524 -0.1958
  134POPC   GL2 1913   0.586   2.429   7.476  0.1445 -0.1708  0.0913
  134POPC   C1A 1914   0.223   2.643   7.118 -0.1470 -0.3328 -0.0658
  134POPC   D2A 1915   0.163   2.529   6.730 -0.3264  0.1846 -0.0004
  134POPC   C3A 1916   0.461   2.683   6.363  0.0347 -0.0927  0.0254
  134POPC   C4A 1917   0.801   2.511   6.114 -0.2862 -0.0017  0.1518
  134POPC   C1B 1918   0.660   2.474   7.090 -0.1447  0.1931 -0.2657
  134POPC   C2B 1919   0.624   2.375   6.688  0.2083 -0.1288 -0.2414
  134POPC   C3B 1920   0.402   2.099   6.486 -0.1429  0.0082  0.0574
  134POPC   C4B 1921   0.336   1.709   6.337 -0.3125 -0.4040 -0.0709
  135POPC   NC3 1922   7.051  10.238   7.515 -0.1096 -0.3549 -0.0009
  135POPC   PO4 1923   7.159   9.829   7.530  0.1934  0.2229  0.0547
  135POPC   GL1 1924   7.110   9.820   7.179  0.0986 -0.1433 -0.1474
  135POPC   GL2 1925   7.152   9.453   7.208  0.2924 -0.0325 -0.2380
  135POPC   C1A 1926   6.962   9.834   6.714 -0.2035 -0.0467 -0.0787
  135POPC   D2A 1927   7.063   9.793   6.290 -0.2225  0.0799  0.1065
  135POPC   C3A 1928   7.265   9.472   6.085 -0.0096  0.2515  0.0588
  135POPC   C4A 1929   7.366   9.032   5.985  0.0752 -0.1492 -0.1865
  135POPC   C1B 1930   6.982   9.291   6.768 -0.1336  0.0277  0.1486
  135POPC   C2B 1931   6.779   9.245   6.360  0.2742  0.1711  0.2646
  135POPC   C3B 1932   6.829   9.200   5.923  0.0611  0.1858  0.1462
  135POPC   C4B 1933   6.661   9.025   5.530 -0.1134  0.2386  0.1237
  136POPC   NC3 1934   3.819   4.255   7.834 -0.1941 -0.0602 -0.2770
  136POPC   PO4 1935   4.179   4.403   7.728  0.2470  0.0169  0.0033
  136POPC   GL1 1936   4.243   4.228   7.323 -0.4633 -0.2076 -0.2022
  136POPC   GL2 1937   4.120   3.974   7.329 -0.1246  0.1727  0.2087
  136POPC   C1A 1938   4.377   4.301   6.950 -0.2464 -0.1347 -0.1253
  136POPC   D2A 1939   4.387   4.252   6.499 -0.0969 -0.0468 -0.0081
  136POPC   C3A 1940   4.284   4.571   6.203 -0.1030  0.0685  0.2190
  136POPC   C4A 1941   3.971   4.750   6.054  0.0174 -0.0596 -0.0139
  136POPC   C1B 1942   4.165   3.797   7.010  0.1760 -0.0718 -0.0606
  136POPC   C2B 1943   4.085   3.697   6.583  0.0175 -0.0604 -0.1717
  136POPC   C3B 1944   4.025   3.668   6.182  0.0593  0.0194  0.0204
  136POPC   C4B 1945   4.213   3.421   5.829 -0.0010  0.0381  0.0900
  137POPC   NC3 1946   5.490   2.154   7.340 -0.0489  0.3605  0.0694
  137POPC   PO4 1947   5.837   2.428   7.300 -0.0601 -0.1740  0.1144
  137POPC   GL1 1948   5.604   2.510   6.982 -0.2059 -0.4389  0.0893
  137POPC   GL2 1949   5.243   2.539   6.961  0.0503 -0.0386  0.2160
  137POPC   C1A 1950   5.607   2.749   6.602 -0.1512  0.0014 -0.2560
  137POPC   D2A 1951   5.917   3.033   6.333 -0.1040  0.1984 -0.0852
  137POPC   C3A 1952   5.816   3.419   6.044 -0.2491  0.0199  0.2528
  137POPC   C4A 1953   5.595   3.760   5.882  0.0792  0.1189 -0.1090
  137POPC   C1B 1954   5.064   2.666   6.551  0.2557  0.0434 -0.0417
  137POPC   C2B 1955   5.038   2.602   6.123  0.1481 -0.2916 -0.2126
  137POPC   C3B 1956   5.147   2.323   5.876  0.1996 -0.4430 -0.1829
  137POPC   C4B 1957   5.560   2.162   5.646  0.3152 -0.1771 -0.2999
  138POPC   NC3 1958   6.474   0.367   7.742 -0.0243 -0.0563 -0.2383
  138POPC   PO4 1959   6.670  -0.095   7.741  0.0943  0.3122  0.0966
  138POPC   GL1 1960   6.653   0.123   7.354 -0.0059  0.1859 -0.2499
  138POPC   GL2 1961   6.902  -0.018   7.181  0.1116 -0.3502 -0.0518
  138POPC   C1A 1962   6.643   0.384   7.018  0.0959 -0.1367  0.2545
  138POPC   D2A 1963   6.763   0.510   6.584  0.0101 -0.0773  0.0264
  138POPC   C3A 1964   6.857   0.818   6.338  0.0614 -0.2445 -0.3010
  138POPC   C4A 1965   6.565   0.975   5.970 -0.2979  0.0049  0.1399
  138POPC   C1B 1966   7.085   0.040   6.860  0.1705 -0.3529  0.1774
  138POPC   C2B 1967   6.997  -0.308   6.540 -0.2179  0.2642 -0.1087
  138POPC   C3B 1968   7.229  -0.416   6.073 -0.1243 -0.0807 -0.2224
  138POPC   C4B 1969   7.245  -0.346   5.656  0.1055 -0.0476  0.0313
  139POPC   NC3 1970   9.767   0.242   8.104 -0.1720 -0.0342 -0.0482
  139POPC   PO4 1971   9.865   0.583   7.918  0.4822  0.0711 -0.1637
  139POPC   GL1 1972   9.844   0.549   7.553 -0.1647 -0.0780 -0.2493
  139POPC   GL2 1973  10.122   0.620   7.314 -0.0420 -0.1048  0.3053
  139POPC   C1A 1974   9.695   0.257   7.145 -0.1466  0.1276  0.1148
  139POPC   D2A 1975   9.615   0.138   6.658 -0.1235  0.1289  0.1316
  139POPC   C3A 1976   9.358   0.418   6.389 -0.0605 -0.1551  0.1301
  139POPC   C4A 1977   8.962   0.617   6.269  0.1169  0.3354  0.3888
  139POPC   C1B 1978  10.124   0.302   6.863  0.2554 -0.0788 -0.2084
  139POPC   C2B 1979  10.041  -0.069   6.484  0.2920  0.0966 -0.0420
  139POPC   C3B 1980  10.083  -0.088   6.066  0.0855 -0.2902 -0.0086
  139POPC   C4B 1981   9.836   0.034   5.713 -0.2183 -0.0715  0.1089
  140POPC   NC3 1982   7.235   0.864   7.712 -0.1310  0.3012  0.3582
  140POPC   PO4 1983   6.906   1.050   7.434 -0.0300 -0.0426 -0.1895
  140POPC   GL1 1984   6.905   0.831   7.027 -0.0745 -0.4600 -0.0012
  140POPC   GL2 1985   6.708   1.116   6.827  0.0012 -0.1568  0.2313
  140POPC   C1A 1986   7.160   0.521   6.821  0.3621 -0.3963  0.2215
  140POPC   D2A 1987   7.231   0.361   6.415 -0.0134 -0.1345  0.1086
  140POPC   C3A 1988   7.443  -0.042   6.334 -0.2894 -0.1518 -0.0805
  140POPC   C4A 1989   7.766  -0.281   6.257 -0.0557  0.3021 -0.0662
  140POPC   C1B 1990   6.815   1.320   6.475  0.0210 -0.0809 -0.3826
  140POPC   C2B 1991   6.828   1.415   6.142  0.1220 -0.0694 -0.0993
  140POPC   C3B 1992   6.893   1.401   5.691 -0.0639 -0.0894 -0.1925
  140POPC   C4B 1993   6.672   1.558   5.300 -0.3135  0.1599  0.1944
  141POPC   NC3 1994   5.079   4.720   8.053 -0.1497  0.0324  0.3305
  141POPC   PO4 1995   5.420   4.982   8.176  0.0952 -0.1326  0.0338
  141POPC   GL1 1996   5.793   5.010   7.874  0.3069  0.3355  0.3473
  141POPC   GL2 1997   5.977   5.282   7.879  0.0944  0.1851 -0.0963
  141POPC   C1A 1998   5.910   4.841   7.477  0.0965  0.1363  0.0565
  141POPC   D2A 1999   6.275   4.616   7.396 -0.0240  0.0886 -0.2657
  141POPC   C3A 2000   6.576   4.528   7.176 -0.0172 -0.4074 -0.0321
  141POPC   C4A 2001   6.765   4.211   6.887  0.0334 -0.0073  0.4281
  141POPC   C1B 2002   6.249   5.404   7.477 -0.1138  0.0168  0.2379
  141POPC   C2B 2003   6.226   5.841   7.353  0.2189  0.2098  0.1740
  141POPC   C3B 2004   6.084   6.149   7.069 -0.1314  0.0640  0.0915
  141POPC   C4B 2005   6.255   6.516   6.973  0.2389  0.4361 -0.2564
  142POPC   NC3 2006   7.603   3.747   8.192 -0.1287  0.3250  0.2007
  142POPC   PO4 2007   7.146   3.709   7.983 -0.1496  0.4155 -0.1884
  142POPC   GL1 2008   7.051   3.638   7.525  0.2846 -0.1302 -0.0980
  142POPC   GL2 2009   7.371   3.484   7.473  0.0321 -0.0350 -0.0020
  142POPC   C1A 2010   6.941   3.793   7.067  0.1058 -0.1475  0.1426
  142POPC   D2A 2011   7.035   3.863   6.635  0.3500 -0.5415  0.0978
  142POPC   C3A 2012   7.540   3.795   6.682  0.0176  0.1677  0.1455
  142POPC   C4A 2013   7.774   3.844   6.299  0.0988 -0.0226  0.0541
  142POPC   C1B 2014   7.334   3.494   6.994 -0.0621 -0.1258  0.1407
  142POPC   C2B 2015   7.282   3.435   6.483 -0.0690 -0.0182  0.1354
  142POPC   C3B 2016   7.530   3.457   6.105  0.2566 -0.1453 -0.4144
  142POPC   C4B 2017   7.669   3.551   5.754  0.2103  0.1635 -0.2604
  143POPC   NC3 2018   8.099   0.424   8.114  0.0289  0.2779 -0.0255
  143POPC   PO4 2019   8.460   0.633   7.794 -0.0810  0.2708 -0.0625
  143POPC   GL1 2020   8.709   0.401   7.400  0.3841 -0.2905 -0.0620
  143POPC   GL2 2021   8.900   0.639   7.152 -0.1148 -0.3170  0.3165
  143POPC   C1A 2022   8.674   0.231   7.002 -0.1392  0.2587  0.0220
  143POPC   D2A 2023   8.766   0.239   6.503 -0.0957 -0.1145  0.0132
  143POPC   C3A 2024   8.531   0.443   6.213  0.3511  0.1666 -0.1686
  143POPC   C4A 2025   8.170   0.391   6.032  0.0443  0.1096 -0.0304
  143POPC   C1B 2026   8.734   0.713   6.738  0.1124 -0.0080 -0.0639
  143POPC   C2B 2027   8.606   0.968   6.422 -0.0246  0.2150  0.1423
  143POPC   C3B 2028   8.768   1.106   6.072  0.0591 -0.0593  0.0610
  143POPC   C4B 2029   9.012   1.482   6.023 -0.1957 -0.2329  0.3703
  144POPC   NC3 2030   8.189   2.256   8.008 -0.0504 -0.0038 -0.2184
  144POPC   PO4 2031   8.548   2.194   7.680  0.0064 -0.1567 -0.3408
  144POPC   GL1 2032   8.687   2.274   7.340  0.0285  0.2110 -0.0065
  144POPC   GL2 2033   8.988   2.263   7.165  0.0217  0.1473  0.0474
  144POPC   C1A 2034   8.626   2.453   6.909 -0.1370  0.0621 -0.1174
  144POPC   D2A 2035   8.505   2.604   6.614 -0.0751  0.4140 -0.0490
  144POPC   C3A 2036   8.113   2.556   6.609  0.0041  0.1375  0.2450
  144POPC   C4A 2037   7.700   2.516   6.773 -0.4483 -0.3808 -0.0812
  144POPC   C1B 2038   8.964   2.035   6.704 -0.0532 -0.0860 -0.0513
  144POPC   C2B 2039   9.164   1.883   6.278 -0.0976 -0.0105 -0.0799
  144POPC   C3B 2040   9.139   1.938   5.801  0.1545 -0.1397 -0.0323
  144POPC   C4B 2041   9.091   1.635   5.474 -0.0738 -0.1391 -0.2196
  145POPC   NC3 2042   6.805   7.614   8.606 -0.0362  0.2508  0.0359
  145POPC   PO4 2043   7.202   7.785   8.493  0.2395  0.1532 -0.1006
  145POPC   GL1 2044   7.486   7.753   8.113  0.3239  0.2908 -0.0167
  145POPC   GL2 2045   7.337   7.548   7.903  0.0100 -0.0860  0.1170
  145POPC   C1A 2046   7.854   7.741   7.910 -0.1552 -0.0657 -0.1354
  145POPC   D2A 2047   8.233   7.559   7.790 -0.1971 -0.0366  0.1127
  145POPC   C3A 2048   8.537   7.753   7.402 -0.1664 -0.2226 -0.1039
  145POPC   C4A 2049   8.731   7.694   6.930  0.1433 -0.0469  0.0941
  145POPC   C1B 2050   7.675   7.296   8.042  0.3881  0.2330  0.0122
  145POPC   C2B 2051   7.867   7.184   7.651  0.1191  0.0249  0.2636
  145POPC   C3B 2052   8.249   7.313   7.364 -0.1220 -0.3457 -0.3107
  145POPC   C4B 2053   8.304   7.502   6.950  0.0810 -0.0339 -0.1940
  146POPC   NC3 2054   8.834   8.784   8.139 -0.0760 -0.2031  0.3689
  146POPC   PO4 2055   8.584   9.261   8.138  0.2332 -0.2379  0.0160
  146POPC   GL1 2056   8.609   9.336   7.748 -0.0435 -0.1342 -0.0534
  146POPC   GL2 2057   8.421   9.513   7.689  0.0559 -0.3450  0.1255
  146POPC   C1A 2058   8.682   9.005   7.388 -0.0440 -0.4077  0.2623
  146POPC   D2A 2059   8.439   8.722   7.069  0.2545  0.3337  0.2602
  146POPC   C3A 2060   8.487   8.716   6.685 -0.2241 -0.2305  0.1822
  146POPC   C4A 2061   8.428   8.445   6.342 -0.0345 -0.0223  0.2156
  146POPC   C1B 2062   8.420   9.865   7.305 -0.2104  0.0108 -0.0972
  146POPC   C2B 2063   8.442   9.999   6.830  0.0085 -0.1305  0.1290
  146POPC   C3B 2064   8.702  10.280   6.401 -0.0700  0.0716  0.0151
  146POPC   C4B 2065   8.936  10.356   6.014  0.1351 -0.0077  0.0049
  147POPC   NC3 2066   0.978   3.596   8.354  0.3532  0.2430 -0.2228
  147POPC   PO4 2067   0.678   3.900   8.098  0.0988  0.2340 -0.1648
  147POPC   GL1 2068   0.805   3.945   7.665  0.3307  0.1767  0.0585
  147POPC   GL2 2069   1.098   4.191   7.694 -0.3295  0.0557 -0.1902
  147POPC   C1A 2070   0.794   4.012   7.245  0.0053  0.0113 -0.0479
  147POPC   D2A 2071   0.733   4.179   6.792  0.1191  0.2665 -0.0205
  147POPC   C3A 2072   0.463   4.511   6.649 -0.2460  0.2316  0.0404
  147POPC   C4A 2073   0.243   4.848   6.832 -0.1798  0.0342  0.0798
  147POPC   C1B 2074   1.082   4.474   7.287 -0.2241  0.0700  0.1152
  147POPC   C2B 2075   1.092   4.532   6.841 -0.1466  0.2312 -0.0147
  147POPC   C3B 2076   0.872   4.579   6.393  0.0959  0.0150 -0.2033
  147POPC   C4B 2077   0.621   4.867   6.114  0.0471  0.3280 -0.1938
  148POPC   NC3 2078   5.579   1.343   7.517 -0.0593  0.1105  0.0187
  148POPC   PO4 2079   5.716   1.768   7.598 -0.1857 -0.3766  0.0460
  148POPC   GL1 2080   5.573   1.704   7.179 -0.0529 -0.1708  0.1191
  148POPC   GL2 2081   5.735   2.018   6.932 -0.1175 -0.2912 -0.2096
  148POPC   C1A 2082   5.665   1.505   6.741  0.1263  0.2226 -0.1925
  148POPC   D2A 2083   5.650   1.417   6.261 -0.0249  0.4115  0.1766
  148POPC   C3A 2084   5.277   1.083   6.231  0.3530 -0.1213  0.2381
  148POPC   C4A 2085   4.924   1.165   6.360  0.2726 -0.1620 -0.1360
  148POPC   C1B 2086   5.539   1.924   6.556  0.1107  0.0012  0.2382
  148POPC   C2B 2087   5.336   2.281   6.455 -0.3397 -0.0022  0.2276
  148POPC   C3B 2088   5.561   2.560   6.085  0.2025 -0.1073  0.1682
  148POPC   C4B 2089   5.503   3.013   5.947  0.0095 -0.1112  0.1194
  149POPC   NC3 2090   5.755   4.697   8.346 -0.0377  0.4115  0.1115
  149POPC   PO4 2091   6.036   4.417   8.362 -0.2008 -0.2525 -0.2385
  149POPC   GL1 2092   6.065   4.557   7.961 -0.0289  0.0139  0.2611
  149POPC   GL2 2093   5.945   4.271   7.698 -0.0329 -0.1268 -0.2670
  149POPC   C1A 2094   6.296   4.959   7.777 -0.0762 -0.0267  0.3167
  149POPC   D2A 2095   6.683   5.277   7.682 -0.1580 -0.1358 -0.0858
  149POPC   C3A 2096   6.445   5.632   7.860 -0.3197  0.2368  0.0977
  149POPC   C4A 2097   6.160   5.978   7.892 -0.3235 -0.1734  0.2458
  149POPC   C1B 2098   6.058   4.174   7.289 -0.1671  0.4289 -0.3365
  149POPC   C2B 2099   6.172   4.354   6.910  0.0764 -0.1373  0.0390
  149POPC   C3B 2100   6.255   4.619   6.479  0.2508 -0.3383 -0.1735
  149POPC   C4B 2101   6.197   4.803   6.031  0.1866 -0.1219 -0.1110
  150POPC   NC3 2102   7.490   9.432   8.279 -0.0573  0.0485 -0.1260
  150POPC   PO4 2103   7.758   9.645   7.978 -0.1835  0.0506  0.0441
  150POPC   GL1 2104   7.874   9.447   7.593 -0.0595 -0.2130 -0.2302
  150POPC   GL2 2105   7.640   9.577   7.405  0.1946 -0.1870 -0.3892
  150POPC   C1A 2106   8.186   9.220   7.329  0.0739 -0.1361 -0.4273
  150POPC   D2A 2107   8.470   9.340   7.019  0.1970 -0.0346  0.1702
  150POPC   C3A 2108   8.316   9.224   6.573 -0.1916  0.4462  0.2453
  150POPC   C4A 2109   7.971   9.414   6.210 -0.2329  0.2818 -0.0056
  150POPC   C1B 2110   7.700   9.309   7.010 -0.2686 -0.1305  0.0953
  150POPC   C2B 2111   7.855   9.329   6.619  0.1400  0.3769 -0.1246
  150POPC   C3B 2112   7.922   8.905   6.352  0.2601 -0.2813 -0.0652
  150POPC   C4B 2113   7.940   8.537   6.108 -0.2184 -0.1544 -0.0370
  151POPC   NC3 2114   0.931   2.626   7.826  0.0899  0.1996 -0.0256
  151POPC   PO4 2115   1.007   2.204   8.003  0.0023  0.0565 -0.1248
  151POPC   GL1 2116   0.940   2.059   7.575  0.3048 -0.2154 -0.1360
  151POPC   GL2 2117   1.054   2.352   7.330 -0.1383 -0.2794 -0.0318
  151POPC   C1A 2118   0.827   1.996   7.155 -0.0213  0.1278 -0.2341
  151POPC   D2A 2119   1.077   2.231   6.799 -0.0063 -0.1303 -0.0888
  151POPC   C3A 2120   0.938   2.116   6.405  0.0809 -0.3122  0.1690
  151POPC   C4A 2121   0.793   1.874   5.986 -0.0851  0.0261 -0.1590
  151POPC   C1B 2122   1.099   2.670   6.994 -0.3612 -0.1888  0.0022
  151POPC   C2B 2123   1.156   3.169   7.228 -0.2815 -0.3872  0.3126
  151POPC   C3B 2124   1.393   3.464   6.957  0.2912  0.0153 -0.2252
  151POPC   C4B 2125   1.465   3.756   6.554 -0.1536 -0.1000 -0.3168
  152POPC   NC3 2126   9.389   5.543   8.421  0.1120  0.2531  0.1589
  152POPC   PO4 2127   9.393   5.497   7.968 -0.1744 -0.1233 -0.0228
  152POPC   GL1 2128   9.377   5.619   7.528  0.2157  0.3689 -0.1445
  152POPC   GL2 2129   9.532   6.011   7.500 -0.0412  0.2345 -0.0576
  152POPC   C1A 2130   9.270   5.617   7.211 -0.0198  0.1074 -0.1561
  152POPC   D2A 2131   8.835   5.681   7.124 -0.1018  0.4349  0.0464
  152POPC   C3A 2132   8.638   5.805   7.471  0.3155 -0.1423 -0.0665
  152POPC   C4A 2133   8.344   5.732   7.759  0.2838  0.0402  0.1368
  152POPC   C1B 2134   9.676   6.015   7.041  0.0455  0.1605  0.1662
  152POPC   C2B 2135   9.759   6.116   6.685  0.4011  0.1079 -0.0653
  152POPC   C3B 2136   9.597   5.875   6.308 -0.0952  0.0299 -0.0540
  152POPC   C4B 2137   9.419   6.063   5.977 -0.1380 -0.1780 -0.1409
  153POPC   NC3 2138  10.566   4.242   7.659  0.2120  0.2659  0.1682
  153POPC   PO4 2139  10.092   4.185   7.508  0.3426  0.3062  0.2247
  153POPC   GL1 2140  10.143   4.105   7.114  0.0592  0.2779 -0.0338
  153POPC   GL2 2141  10.167   3.789   7.166  0.3151  0.2126  0.1228
  153POPC   C1A 2142  10.165   4.156   6.665  0.0447 -0.1572  0.0688
  153POPC   D2A 2143   9.997   4.338   6.241  0.1200 -0.4310 -0.5174
  153POPC   C3A 2144   9.962   4.241   5.718 -0.1704  0.0733 -0.0202
  153POPC   C4A 2145  10.177   4.045   5.369  0.1988 -0.3351 -0.3921
  153POPC   C1B 2146  10.141   3.652   6.756 -0.1087  0.0192 -0.0756
  153POPC   C2B 2147   9.928   3.336   6.486 -0.3974  0.0708  0.2864
  153POPC   C3B 2148   9.762   3.285   6.178  0.2862  0.0094  0.3226
  153POPC   C4B 2149   9.768   3.280   5.837  0.2366 -0.0074  0.0063
  154POPC   NC3 2150   9.754   1.984   7.505 -0.0019 -0.1037 -0.0430
  154POPC   PO4 2151   9.405   2.242   7.500 -0.0142 -0.0728  0.1600
  154POPC   GL1 2152   9.588   2.319   7.109  0.1533 -0.0428 -0.3948
  154POPC   GL2 2153   9.550   2.677   7.202  0.0049 -0.0826  0.4407
  154POPC   C1A 2154   9.514   2.139   6.704  0.0810 -0.0993  0.1942
  154POPC   D2A 2155   9.725   1.939   6.353  0.0280 -0.2640 -0.0760
  154POPC   C3A 2156   9.569   1.818   5.941 -0.2528 -0.0299 -0.1371
  154POPC   C4A 2157   9.496   1.515   5.727 -0.0663 -0.2137 -0.1973
  154POPC   C1B 2158   9.251   2.701   6.844 -0.0748 -0.2468 -0.0042
  154POPC   C2B 2159   8.990   2.566   6.616 -0.1400 -0.0957 -0.1089
  154POPC   C3B 2160   8.865   2.287   6.211  0.2751 -0.1537  0.0921
  154POPC   C4B 2161   8.709   2.262   5.725 -0.0708 -0.1015  0.0564
  155POPC   NC3 2162   9.099   8.293   8.262  0.2017 -0.1879 -0.1819
  155POPC   PO4 2163   9.175   8.659   8.453 -0.1791  0.0764 -0.1338
  155POPC   GL1 2164   9.201   8.535   7.865 -0.3302  0.3886  0.2027
  155POPC   GL2 2165   9.348   8.627   7.655  0.0765  0.2981 -0.0965
  155POPC   C1A 2166   8.909   8.374   7.628  0.0612 -0.1718 -0.1888
  155POPC   D2A 2167   8.977   7.957   7.418  0.1119 -0.3461  0.3120
  155POPC   C3A 2168   9.155   7.991   7.035 -0.1836 -0.3146 -0.5267
  155POPC   C4A 2169   8.915   8.246   6.594  0.6057 -0.1849  0.0006
  155POPC   C1B 2170   9.374   8.446   7.223  0.1871 -0.1543  0.1031
  155POPC   C2B 2171   9.337   8.516   6.803  0.1688  0.0631  0.0312
  155POPC   C3B 2172   9.303   8.376   6.314  0.0996 -0.0358 -0.2500
  155POPC   C4B 2173   9.341   8.009   6.141  0.2056 -0.1044  0.1988
  156POPC   NC3 2174   6.892   8.472   8.200 -0.0256  0.0828 -0.1045
  156POPC   PO4 2175   6.466   8.268   8.110  0.3148 -0.1545 -0.2236
  156POPC   GL1 2176   6.405   8.180   7.635 -0.0085 -0.1650 -0.2744
  156POPC   GL2 2177   6.146   8.164   7.465  0.4106 -0.0731  0.2343
  156POPC   C1A 2178   6.561   7.924   7.361  0.1424  0.0963 -0.0143
  156POPC   D2A 2179   6.322   7.589   7.130 -0.0552 -0.3863 -0.1698
  156POPC   C3A 2180   6.582   7.404   6.721  0.0014 -0.0608  0.3318
  156POPC   C4A 2181   6.931   7.292   6.398  0.0998 -0.1007  0.2250
  156POPC   C1B 2182   6.126   8.057   7.086  0.2496 -0.2193  0.0421
  156POPC   C2B 2183   5.999   8.148   6.632  0.1535 -0.2188  0.0574
  156POPC   C3B 2184   5.981   7.841   6.173  0.0353  0.1925 -0.1744
  156POPC   C4B 2185   5.829   7.653   5.782 -0.1471 -0.1945  0.2891
  157POPC   NC3 2186  10.189   3.451   7.588  0.2561 -0.0479 -0.0618
  157POPC   PO4 2187  10.467   3.732   7.637  0.0280  0.1110  0.1686
  157POPC   GL1 2188  10.624   3.770   7.294 -0.1469  0.1735  0.3438
  157POPC   GL2 2189  10.657   3.491   7.015 -0.2269  0.1184  0.1054
  157POPC   C1A 2190  10.726   3.962   6.823 -0.0455  0.0017  0.1211
  157POPC   D2A 2191  10.720   4.324   6.559 -0.3996  0.0247 -0.0564
  157POPC   C3A 2192  10.618   4.299   6.150 -0.0838 -0.2089  0.1345
  157POPC   C4A 2193  10.463   4.357   5.742 -0.1508 -0.0740  0.0625
  157POPC   C1B 2194  11.063   3.506   6.746  0.1187 -0.1472 -0.0043
  157POPC   C2B 2195  11.148   3.270   6.448 -0.1766 -0.1365  0.2124
  157POPC   C3B 2196  11.196   3.259   5.993 -0.0877 -0.1848 -0.3206
  157POPC   C4B 2197  11.344   3.697   5.827 -0.0006  0.2569  0.0445
  158POPC   NC3 2198   5.939   7.945   8.011  0.0092  0.2132 -0.1956
  158POPC   PO4 2199   5.665   7.816   7.869 -0.0090 -0.3607 -0.2075
  158POPC   GL1 2200   5.737   7.717   7.543  0.1400  0.1317 -0.0149
  158POPC   GL2 2201   5.666   7.858   7.292  0.4518  0.1901 -0.0404
  158POPC   C1A 2202   5.906   7.395   7.285 -0.1605 -0.0128 -0.0591
  158POPC   D2A 2203   6.018   7.290   6.800  0.0039  0.0355  0.0185
  158POPC   C3A 2204   6.146   7.643   6.563  0.2464  0.0293  0.1260
  158POPC   C4A 2205   6.484   7.854   6.384 -0.1654  0.1525  0.0504
  158POPC   C1B 2206   5.730   7.824   6.853 -0.1422  0.1474 -0.0914
  158POPC   C2B 2207   5.531   7.715   6.491 -0.0195  0.1593 -0.1561
  158POPC   C3B 2208   5.478   7.440   6.084  0.3502 -0.0118  0.2497
  158POPC   C4B 2209   5.197   7.232   5.920  0.0174  0.1538  0.3259
  159POPC   NC3 2210   5.069   8.752   7.841 -0.0292  0.0106  0.0473
  159POPC   PO4 2211   5.273   9.108   7.563 -0.2564 -0.3134  0.0828
  159POPC   GL1 2212   5.275   9.156   7.137  0.0928  0.1877 -0.0717
  159POPC   GL2 2213   5.601   9.350   7.072  0.0489 -0.1009 -0.1483
  159POPC   C1A 2214   5.205   9.306   6.761 -0.0752  0.0702  0.1165
  159POPC   D2A 2215   4.954   8.974   6.500  0.1308  0.0727  0.0434
  159POPC   C3A 2216   4.954   8.895   6.071  0.2707 -0.2748  0.2673
  159POPC   C4A 2217   5.020   8.590   5.735  0.1636  0.1787  0.2111
  159POPC   C1B 2218   5.756   9.136   6.800 -0.0678 -0.0399  0.0651
  159POPC   C2B 2219   6.092   9.137   6.538  0.0504 -0.0546 -0.1662
  159POPC   C3B 2220   6.346   9.210   6.136  0.1194 -0.0314 -0.1070
  159POPC   C4B 2221   6.236   9.368   5.692  0.0819 -0.0935  0.2570
  160POPC   NC3 2222   6.324   4.043   8.055 -0.5402  0.3954  0.0091
  160POPC   PO4 2223   6.564   3.685   7.827  0.0825  0.2718 -0.3201
  160POPC   GL1 2224   6.539   3.831   7.490 -0.0488  0.0449 -0.0893
  160POPC   GL2 2225   6.506   4.156   7.503  0.0702  0.3384 -0.2360
  160POPC   C1A 2226   6.440   3.877   7.003  0.1914  0.0654  0.1798
  160POPC   D2A 2227   6.344   4.044   6.559 -0.0978  0.0625 -0.1393
  160POPC   C3A 2228   6.568   3.785   6.337 -0.0257  0.1390 -0.0342
  160POPC   C4A 2229   6.323   3.390   6.223  0.0153 -0.2763  0.0904
  160POPC   C1B 2230   6.912   4.232   7.382 -0.0475 -0.1258 -0.0371
  160POPC   C2B 2231   7.246   4.141   7.159  0.2227 -0.1210 -0.1892
  160POPC   C3B 2232   7.615   3.837   7.269  0.0225 -0.2727 -0.1984
  160POPC   C4B 2233   8.010   3.910   7.389 -0.0721 -0.2752 -0.1755
  161POPC   NC3 2234   5.157   7.813   8.286  0.1077 -0.0188  0.2778
  161POPC   PO4 2235   5.175   7.505   7.935  0.0148  0.0178  0.0098
  161POPC   GL1 2236   5.247   7.504   7.499 -0.0846 -0.1875  0.0716
  161POPC   GL2 2237   5.436   7.290   7.419  0.4705  0.0080 -0.2608
  161POPC   C1A 2238   5.150   7.717   7.033  0.0788  0.0759 -0.2152
  161POPC   D2A 2239   5.189   7.425   6.621  0.0413 -0.2203  0.3510
  161POPC   C3A 2240   4.865   7.409   6.303  0.2441  0.0387  0.0154
  161POPC   C4A 2241   4.797   7.636   5.801  0.0028 -0.1509 -0.3774
  161POPC   C1B 2242   5.543   7.209   6.907  0.1237 -0.1954 -0.0693
  161POPC   C2B 2243   5.562   7.110   6.545  0.0928 -0.1155 -0.0223
  161POPC   C3B 2244   5.551   6.838   6.189 -0.1059 -0.1825  0.0051
  161POPC   C4B 2245   5.752   7.005   5.799 -0.1477 -0.1780 -0.3368
  162POPC   NC3 2246   5.245   3.863   8.385  0.0915  0.0438  0.0794
  162POPC   PO4 2247   5.061   4.192   8.164 -0.0620  0.0771  0.0537
  162POPC   GL1 2248   5.113   4.229   7.715  0.0721 -0.0428  0.1394
  162POPC   GL2 2249   5.362   3.934   7.663 -0.2076 -0.0711  0.0165
  162POPC   C1A 2250   5.240   4.401   7.368 -0.0730 -0.0241 -0.0507
  162POPC   D2A 2251   5.621   4.556   7.190  0.0338  0.2482 -0.1349
  162POPC   C3A 2252   5.806   4.718   6.773  0.0503  0.2184  0.2192
  162POPC   C4A 2253   5.698   4.832   6.328 -0.0309 -0.0430 -0.0735
  162POPC   C1B 2254   5.425   3.999   7.166  0.1725 -0.1148  0.0333
  162POPC   C2B 2255   5.709   4.202   6.859  0.0124  0.1694  0.0717
  162POPC   C3B 2256   5.916   4.274   6.473 -0.0172  0.3190  0.0562
  162POPC   C4B 2257   6.043   4.341   6.059  0.0178 -0.1173 -0.1149
  163POPC   NC3 2258   4.800   9.985   7.604  0.2776 -0.3295 -0.1655
  163POPC   PO4 2259   4.314  10.028   7.599  0.1141 -0.0527 -0.0518
  163POPC   GL1 2260   4.256  10.048   7.109 -0.0429 -0.0478 -0.0477
  163POPC   GL2 2261   3.950  10.185   6.830  0.0730 -0.0434 -0.2858
  163POPC   C1A 2262   4.458   9.967   6.745 -0.1360  0.0174 -0.0158
  163POPC   D2A 2263   4.754   9.673   6.553  0.0682  0.2109 -0.2520
  163POPC   C3A 2264   4.646   9.258   6.218  0.1930  0.2532  0.2582
  163POPC   C4A 2265   4.300   9.009   5.916  0.1063  0.1605 -0.1079
  163POPC   C1B 2266   3.960  10.030   6.413  0.3946  0.3504 -0.0356
  163POPC   C2B 2267   3.856   9.721   6.107 -0.2108 -0.2902  0.0328
  163POPC   C3B 2268   3.623   9.495   5.764 -0.2681 -0.1109 -0.1972
  163POPC   C4B 2269   3.585   9.295   5.461  0.0619 -0.0261  0.0505
  164POPC   NC3 2270   4.068   1.919   7.217 -0.1979  0.0597  0.2409
  164POPC   PO4 2271   3.977   2.330   7.488  0.2515  0.1326 -0.2216
  164POPC   GL1 2272   4.183   2.522   7.061  0.1551  0.0877 -0.0469
  164POPC   GL2 2273   4.128   2.800   7.150  0.3115  0.2212  0.1989
  164POPC   C1A 2274   4.004   2.290   6.714 -0.0292  0.1097  0.3257
  164POPC   D2A 2275   3.757   1.937   6.661  0.0551 -0.0114 -0.2604
  164POPC   C3A 2276   3.303   1.932   6.959 -0.0698  0.1179 -0.2721
  164POPC   C4A 2277   2.977   2.066   6.678 -0.0261  0.1486  0.1394
  164POPC   C1B 2278   3.730   2.859   7.098 -0.1177  0.2237  0.2705
  164POPC   C2B 2279   3.460   2.976   6.691 -0.0447 -0.0245  0.1239
  164POPC   C3B 2280   3.326   2.982   6.300  0.1199  0.0133 -0.0665
  164POPC   C4B 2281   3.220   2.643   5.956 -0.0329 -0.3095 -0.2901
  165POPC   NC3 2282   6.703   6.839   9.009  0.0363  0.1685  0.1803
  165POPC   PO4 2283   6.339   6.868   8.770 -0.0956 -0.0811 -0.1221
  165POPC   GL1 2284   6.294   6.737   8.355  0.1489 -0.0535  0.1275
  165POPC   GL2 2285   6.290   7.008   8.101 -0.0111 -0.4076  0.0476
  165POPC   C1A 2286   6.321   6.446   8.029 -0.1233  0.4076 -0.1565
  165POPC   D2A 2287   6.596   6.221   7.889 -0.0338 -0.0225  0.0892
  165POPC   C3A 2288   6.621   6.203   7.411 -0.0351  0.1585  0.1159
  165POPC   C4A 2289   6.743   6.415   6.997 -0.1801  0.0739  0.0048
  165POPC   C1B 2290   6.192   6.955   7.595  0.0567 -0.2032  0.0898
  165POPC   C2B 2291   6.082   6.875   7.258  0.1727 -0.1181 -0.1888
  165POPC   C3B 2292   5.825   6.770   6.859 -0.1154 -0.2927 -0.1349
  165POPC   C4B 2293   5.777   6.384   6.723 -0.2095  0.2230 -0.0230
  166POPC   NC3 2294   9.762   3.701   7.761  0.0869 -0.2204 -0.0774
  166POPC   PO4 2295   9.374   3.623   7.589  0.0040 -0.0046  0.0901
  166POPC   GL1 2296   9.398   3.785   7.298  0.1005  0.3063  0.1022
  166POPC   GL2 2297   9.624   4.036   7.312 -0.0352  0.0845  0.1716
  166POPC   C1A 2298   9.185   3.989   6.825 -0.2806  0.3057 -0.1316
  166POPC   D2A 2299   8.960   4.346   6.849  0.2638  0.1300  0.2979
  166POPC   C3A 2300   9.051   4.735   6.697  0.1848 -0.1718  0.3075
  166POPC   C4A 2301   8.734   4.993   6.514  0.0731  0.0552  0.1177
  166POPC   C1B 2302   9.695   4.279   6.927 -0.0801  0.0149 -0.0237
  166POPC   C2B 2303   9.495   4.489   6.558 -0.0579  0.1051 -0.1500
  166POPC   C3B 2304   9.153   4.559   6.251  0.0103 -0.1681 -0.2358
  166POPC   C4B 2305   9.139   5.000   6.087  0.1097  0.0789 -0.3214
  167POPC   NC3 2306   6.707   4.721   8.712  0.0707 -0.0889  0.2317
  167POPC   PO4 2307   7.115   4.479   8.656 -0.1602 -0.1041  0.2048
  167POPC   GL1 2308   6.944   4.508   8.252  0.0575  0.0614 -0.1537
  167POPC   GL2 2309   7.093   4.523   7.965  0.0239 -0.1277 -0.0883
  167POPC   C1A 2310   6.815   4.916   8.028  0.1260  0.2120 -0.1733
  167POPC   D2A 2311   6.757   4.821   7.567  0.1610 -0.0626 -0.0552
  167POPC   C3A 2312   6.657   5.037   7.216  0.1080 -0.0558  0.1630
  167POPC   C4A 2313   6.559   4.873   6.809  0.0860  0.0047  0.1384
  167POPC   C1B 2314   7.444   4.594   7.575  0.0345 -0.1428  0.1414
  167POPC   C2B 2315   7.570   4.490   7.215  0.4912  0.1560 -0.0015
  167POPC   C3B 2316   7.418   4.509   6.753  0.5934  0.3856 -0.2043
  167POPC   C4B 2317   7.444   4.248   6.403  0.2971 -0.1726 -0.0075
  168POPC   NC3 2318   0.167   3.167   8.218 -0.1868  0.1389 -0.0260
  168POPC   PO4 2319  -0.007   3.152   7.774  0.0559  0.2982 -0.5157
  168POPC   GL1 2320  -0.022   3.039   7.230 -0.2823 -0.3213 -0.0954
  168POPC   GL2 2321  -0.343   3.130   7.133 -0.0285 -0.3292 -0.3055
  168POPC   C1A 2322   0.200   3.007   6.790  0.0237 -0.0598 -0.1005
  168POPC   D2A 2323   0.009   2.984   6.432  0.0070 -0.0550 -0.0071
  168POPC   C3A 2324  -0.221   2.963   6.136 -0.1119 -0.1569 -0.0787
  168POPC   C4A 2325  -0.381   3.058   5.767  0.2261 -0.1664 -0.3023
  168POPC   C1B 2326  -0.284   3.152   6.771  0.0521  0.2164 -0.1450
  168POPC   C2B 2327   0.023   3.450   6.505  0.0225 -0.1773 -0.3118
  168POPC   C3B 2328   0.189   3.826   6.345  0.2537  0.0573 -0.1907
  168POPC   C4B 2329   0.313   3.935   5.950  0.0781 -0.0352  0.0767
  169POPC   NC3 2330   3.813   2.676   7.776  0.0003 -0.0512 -0.2764
  169POPC   PO4 2331   3.394   2.716   7.726  0.3262 -0.0562  0.4153
  169POPC   GL1 2332   3.333   2.443   7.295  0.0685 -0.2135 -0.1126
  169POPC   GL2 2333   3.705   2.297   7.093 -0.4649 -0.0035  0.2226
  169POPC   C1A 2334   3.252   2.652   6.971  0.2982  0.1686 -0.1930
  169POPC   D2A 2335   2.968   2.871   6.731  0.2835  0.0895  0.1491
  169POPC   C3A 2336   2.778   3.255   6.901 -0.1076 -0.1235 -0.2337
  169POPC   C4A 2337   2.886   3.647   7.085 -0.0755  0.3668 -0.0447
  169POPC   C1B 2338   3.507   2.332   6.722 -0.1399  0.4370 -0.0736
  169POPC   C2B 2339   3.194   2.492   6.497 -0.2287 -0.0466  0.1869
  169POPC   C3B 2340   2.805   2.320   6.305 -0.0555  0.0694 -0.1144
  169POPC   C4B 2341   2.476   2.156   6.026  0.0446  0.1705  0.1461
  170POPC   NC3 2342   1.531   3.225   7.887  0.2580 -0.0229 -0.0152
  170POPC   PO4 2343   1.029   3.083   7.792 -0.0696  0.0251  0.1368
  170POPC   GL1 2344   0.776   3.434   7.520  0.0295  0.1965 -0.2931
  170POPC   GL2 2345   0.343   3.429   7.521  0.0077 -0.2312 -0.2336
  170POPC   C1A 2346   0.843   3.545   7.076 -0.2607 -0.3323  0.1342
  170POPC   D2A 2347   1.021   3.458   6.636 -0.0645  0.2832  0.1841
  170POPC   C3A 2348   0.767   3.717   6.367 -0.0114 -0.1246  0.1617
  170POPC   C4A 2349   0.608   4.137   6.245 -0.0432  0.0907 -0.1683
  170POPC   C1B 2350   0.476   3.189   7.196  0.0082 -0.0267 -0.1619
  170POPC   C2B 2351   0.734   3.072   6.824 -0.0968  0.3992 -0.0636
  170POPC   C3B 2352   0.956   3.005   6.350 -0.0090 -0.1152  0.0129
  170POPC   C4B 2353   1.211   2.754   6.117 -0.1566  0.1101  0.2438
  171POPC   NC3 2354   1.592   1.282   7.441  0.0767 -0.0342 -0.0559
  171POPC   PO4 2355   2.048   1.332   7.539  0.1214  0.0370  0.0477
  171POPC   GL1 2356   1.905   1.087   7.078  0.1955 -0.1207  0.0327
  171POPC   GL2 2357   1.685   1.277   6.893  0.1388 -0.0590 -0.1821
  171POPC   C1A 2358   1.773   0.741   6.749 -0.2028 -0.2930  0.1924
  171POPC   D2A 2359   1.449   0.794   6.469 -0.1281  0.1484 -0.3316
  171POPC   C3A 2360   1.261   1.119   6.360  0.1027 -0.0061  0.3104
  171POPC   C4A 2361   1.040   1.459   6.101  0.0728 -0.1014  0.2984
  171POPC   C1B 2362   1.765   1.314   6.419  0.1751 -0.2974  0.0064
  171POPC   C2B 2363   1.771   1.597   6.045  0.1784  0.1970 -0.0789
  171POPC   C3B 2364   1.963   1.985   5.987 -0.2153 -0.0540  0.2231
  171POPC   C4B 2365   1.720   2.363   6.009 -0.1921 -0.2940 -0.0923
  172POPC   NC3 2366   3.516   9.544   7.651  0.1746  0.1016 -0.1099
  172POPC   PO4 2367   3.738   9.937   7.828 -0.1006  0.0313  0.3486
  172POPC   GL1 2368   3.808   9.757   7.337 -0.2906  0.1867  0.1489
  172POPC   GL2 2369   3.340   9.725   7.159 -0.0583 -0.2775 -0.2077
  172POPC   C1A 2370   4.022   9.686   6.889  0.1042  0.0238 -0.2318
  172POPC   D2A 2371   4.293   9.585   6.522  0.2240 -0.0639 -0.2767
  172POPC   C3A 2372   4.399   9.908   6.225 -0.1268 -0.3214  0.3616
  172POPC   C4A 2373   4.167  10.202   6.023 -0.0791 -0.1933  0.2446
  172POPC   C1B 2374   3.449   9.873   6.841 -0.3458  0.0299 -0.3309
  172POPC   C2B 2375   3.498   9.916   6.397 -0.3848  0.0707 -0.0202
  172POPC   C3B 2376   3.292   9.551   6.229 -0.0731  0.0386  0.1328
  172POPC   C4B 2377   3.114   9.481   5.903 -0.0961  0.0762 -0.0236
  173POPC   NC3 2378   5.265   2.646   7.514 -0.1754 -0.0790  0.0954
  173POPC   PO4 2379   5.555   2.883   7.499  0.1430 -0.1567  0.1669
  173POPC   GL1 2380   5.807   2.980   7.195 -0.1306  0.0337  0.1762
  173POPC   GL2 2381   6.003   2.733   6.950  0.0063  0.0744  0.2216
  173POPC   C1A 2382   5.824   3.156   6.838 -0.0752  0.0993 -0.1457
  173POPC   D2A 2383   5.603   3.387   6.464  0.0113 -0.1574 -0.0364
  173POPC   C3A 2384   5.325   3.450   6.094  0.0165  0.1068 -0.1390
  173POPC   C4A 2385   5.240   3.513   5.590 -0.0398  0.4077 -0.0699
  173POPC   C1B 2386   6.392   2.967   6.600 -0.0333  0.6303 -0.0827
  173POPC   C2B 2387   6.797   2.973   6.361 -0.0881  0.0769 -0.1401
  173POPC   C3B 2388   6.821   2.991   5.925 -0.0648 -0.1169  0.3227
  173POPC   C4B 2389   6.885   3.174   5.632  0.0229 -0.2019 -0.4819
  174POPC   NC3 2390   2.404   8.724   3.735  0.2765  0.2155  0.3427
  174POPC   PO4 2391   2.721   8.805   3.801 -0.2193  0.2595  0.1746
  174POPC   GL1 2392   3.001   8.760   4.124 -0.1079  0.0086  0.2600
  174POPC   GL2 2393   2.978   9.115   4.275 -0.1162  0.1173  0.3046
  174POPC   C1A 2394   2.971   8.382   4.471  0.0120  0.0224 -0.1433
  174POPC   D2A 2395   3.101   8.090   4.785  0.2047  0.6426  0.0857
  174POPC   C3A 2396   2.920   8.051   5.228 -0.2248 -0.3291 -0.2751
  174POPC   C4A 2397   3.054   8.269   5.592  0.2589 -0.2366 -0.2947
  174POPC   C1B 2398   2.658   8.984   4.609 -0.2107  0.1818  0.2237
  174POPC   C2B 2399   2.335   8.680   4.662  0.0937 -0.1449 -0.3266
  174POPC   C3B 2400   1.927   8.464   4.718 -0.0380  0.0584 -0.0233
  174POPC   C4B 2401   1.546   8.710   4.790  0.0459 -0.2921 -0.0355
  175POPC   NC3 2402   0.142   1.388   4.204  0.0933 -0.2851 -0.0422
  175POPC   PO4 2403  -0.277   1.401   3.984  0.2146 -0.0147 -0.2045
  175POPC   GL1 2404  -0.555   1.284   4.321 -0.1198 -0.1403  0.0916
  175POPC   GL2 2405  -0.648   1.624   4.464 -0.1676  0.2130  0.2659
  175POPC   C1A 2406  -0.507   1.122   4.697  0.1828  0.1431  0.0492
  175POPC   D2A 2407  -0.416   1.338   5.130  0.0051  0.0813  0.4703
  175POPC   C3A 2408  -0.302   1.792   5.087 -0.2568 -0.0786 -0.0977
  175POPC   C4A 2409  -0.396   2.181   4.798 -0.2124  0.0658 -0.1788
  175POPC   C1B 2410  -0.805   1.650   4.895 -0.1690 -0.2268 -0.1668
  175POPC   C2B 2411  -0.864   1.869   5.285 -0.2044 -0.0259 -0.0547
  175POPC   C3B 2412  -0.604   1.975   5.605 -0.0792  0.0041  0.0852
  175POPC   C4B 2413  -0.487   1.824   5.998 -0.0464 -0.1110  0.0124
  176POPC   NC3 2414   2.756   2.670   3.472 -0.1601  0.0524  0.1603
  176POPC   PO4 2415   2.454   2.552   3.477  0.0755  0.1324 -0.0835
  176POPC   GL1 2416   2.451   2.599   3.948  0.1873 -0.0605  0.1664
  176POPC   GL2 2417   2.725   2.597   3.990  0.0605 -0.0774 -0.0605
  176POPC   C1A 2418   2.434   2.880   4.376 -0.2163 -0.3268 -0.3668
  176POPC   D2A 2419   2.523   3.321   4.637  0.0050 -0.2067 -0.0583
  176POPC   C3A 2420   2.200   3.770   4.646  0.1216 -0.1662  0.0286
  176POPC   C4A 2421   1.751   3.918   4.890 -0.1431  0.0288  0.3392
  176POPC   C1B 2422   2.690   2.487   4.485  0.2996 -0.2659  0.0541
  176POPC   C2B 2423   3.180   2.535   4.633 -0.0403  0.1017 -0.1916
  176POPC   C3B 2424   3.253   2.822   5.007  0.2888 -0.1550  0.1580
  176POPC   C4B 2425   3.376   2.842   5.441 -0.4538 -0.1330 -0.1198
  177POPC   NC3 2426   8.473   0.617   3.621  0.1139  0.0925  0.1065
  177POPC   PO4 2427   8.981   0.779   3.727  0.1119  0.2273  0.0123
  177POPC   GL1 2428   8.761   0.684   4.011  0.1448 -0.0826  0.0429
  177POPC   GL2 2429   8.571   1.057   3.928 -0.1031  0.0907 -0.2447
  177POPC   C1A 2430   8.816   0.598   4.443 -0.0541  0.0464  0.2260
  177POPC   D2A 2431   8.704   0.518   4.801 -0.0849 -0.2105 -0.0645
  177POPC   C3A 2432   8.963   0.767   5.229  0.1037  0.3148 -0.2655
  177POPC   C4A 2433   9.133   1.119   5.578  0.0815  0.2516  0.2241
  177POPC   C1B 2434   8.522   1.298   4.350 -0.4316 -0.0867 -0.2437
  177POPC   C2B 2435   8.555   1.383   4.784 -0.2456 -0.1258  0.1593
  177POPC   C3B 2436   8.789   1.291   5.227  0.1122  0.1107  0.3189
  177POPC   C4B 2437   8.640   1.004   5.541  0.1027 -0.2206 -0.1526
  178POPC   NC3 2438   4.298   8.938   3.918 -0.2449 -0.0206 -0.1242
  178POPC   PO4 2439   4.529   8.621   4.118 -0.2866 -0.4443  0.2051
  178POPC   GL1 2440   4.641   9.029   4.374  0.2387 -0.1544  0.1020
  178POPC   GL2 2441   4.376   9.237   4.366  0.2123  0.0416 -0.0093
  178POPC   C1A 2442   4.877   9.331   4.663  0.0760 -0.0143 -0.0434
  178POPC   D2A 2443   4.960   9.503   5.036 -0.0373  0.0716  0.1520
  178POPC   C3A 2444   5.008   9.215   5.350  0.1011 -0.3740  0.1002
  178POPC   C4A 2445   5.237   9.107   5.727  0.3651 -0.0995  0.2682
  178POPC   C1B 2446   4.486   9.095   4.809  0.1086 -0.0025 -0.1616
  178POPC   C2B 2447   4.770   8.914   5.070 -0.2300  0.0896 -0.1335
  178POPC   C3B 2448   5.098   8.609   5.109 -0.4242 -0.0447  0.1571
  178POPC   C4B 2449   5.364   8.484   4.939 -0.0625  0.1019 -0.0680
  179POPC   NC3 2450   1.265  10.007   3.510 -0.0485 -0.1328 -0.0682
  179POPC   PO4 2451   1.392  10.434   3.464 -0.0572  0.0961  0.1210
  179POPC   GL1 2452   1.295  10.417   3.868  0.0371 -0.0438 -0.2396
  179POPC   GL2 2453   1.497  10.717   4.031  0.0103  0.0034 -0.1546
  179POPC   C1A 2454   1.073  10.338   4.263 -0.3134 -0.4490  0.0558
  179POPC   D2A 2455   1.323  10.608   4.594  0.0641  0.1755  0.0026
  179POPC   C3A 2456   1.469  10.840   5.010 -0.2397  0.1576  0.0927
  179POPC   C4A 2457   1.450  10.781   5.479 -0.0780  0.1069  0.3049
  179POPC   C1B 2458   1.421  11.052   4.123 -0.1286  0.0557  0.2580
  179POPC   C2B 2459   1.292  11.364   4.338  0.0922  0.3523  0.1152
  179POPC   C3B 2460   1.472  11.676   4.646  0.1178  0.2848 -0.3894
  179POPC   C4B 2461   1.803  11.814   4.939 -0.1016  0.0343 -0.0992
  180POPC   NC3 2462   4.513   3.432   3.825  0.0298  0.1161  0.2002
  180POPC   PO4 2463   4.327   3.747   3.993 -0.1744  0.0405 -0.0413
  180POPC   GL1 2464   4.281   3.998   4.378 -0.0996 -0.2757  0.0569
  180POPC   GL2 2465   4.172   4.378   4.459  0.1391  0.0469  0.0612
  180POPC   C1A 2466   4.294   3.911   4.859 -0.2367  0.1691  0.1951
  180POPC   D2A 2467   4.601   3.794   5.167 -0.3678 -0.0614 -0.0751
  180POPC   C3A 2468   4.891   3.903   5.420  0.0540 -0.0435  0.0848
  180POPC   C4A 2469   5.200   4.028   5.704 -0.0536  0.1605  0.1469
  180POPC   C1B 2470   3.860   4.188   4.621 -0.1172  0.2448 -0.1378
  180POPC   C2B 2471   3.607   4.128   4.918 -0.0326  0.2689  0.1088
  180POPC   C3B 2472   3.878   4.158   5.270 -0.1720  0.2493 -0.0775
  180POPC   C4B 2473   4.295   4.184   5.379 -0.3216  0.1697 -0.2277
  181POPC   NC3 2474   9.057   4.553   3.210  0.0842  0.0928  0.0352
  181POPC   PO4 2475   8.566   4.614   3.275 -0.1582  0.0825  0.3564
  181POPC   GL1 2476   8.710   4.554   3.746  0.1905 -0.1238 -0.0656
  181POPC   GL2 2477   8.505   4.388   3.956  0.2340  0.1158  0.6589
  181POPC   C1A 2478   8.737   4.695   4.274 -0.1279  0.1182 -0.0567
  181POPC   D2A 2479   8.546   4.839   4.700 -0.0020  0.0097  0.2623
  181POPC   C3A 2480   8.353   5.152   4.798  0.2990 -0.2673 -0.0749
  181POPC   C4A 2481   8.361   5.541   5.012 -0.2468 -0.1850 -0.1734
  181POPC   C1B 2482   8.327   4.329   4.405  0.2813  0.1244  0.2501
  181POPC   C2B 2483   8.095   4.049   4.810  0.0703  0.2478 -0.2326
  181POPC   C3B 2484   7.931   4.005   5.185 -0.0299  0.1436 -0.3773
  181POPC   C4B 2485   7.707   4.032   5.538 -0.1569  0.0780  0.1197
  182POPC   NC3 2486   8.408   6.777   3.490  0.2085 -0.1420 -0.0654
  182POPC   PO4 2487   8.308   7.147   3.665 -0.1607 -0.0399 -0.0800
  182POPC   GL1 2488   8.031   7.385   4.014  0.0327  0.0315 -0.2497
  182POPC   GL2 2489   8.289   7.650   4.239 -0.1701  0.2416  0.2761
  182POPC   C1A 2490   7.860   7.741   4.374  0.0783 -0.0498  0.0812
  182POPC   D2A 2491   7.813   7.898   4.724 -0.2736 -0.0217 -0.3797
  182POPC   C3A 2492   7.433   7.870   5.023 -0.2092  0.0962 -0.1579
  182POPC   C4A 2493   7.167   7.722   5.329 -0.1677 -0.4166  0.0826
  182POPC   C1B 2494   8.252   7.646   4.691 -0.0385 -0.2633  0.1377
  182POPC   C2B 2495   8.479   7.613   5.089 -0.0660 -0.0474 -0.0675
  182POPC   C3B 2496   8.357   7.551   5.534 -0.0551  0.2984 -0.1276
  182POPC   C4B 2497   8.617   7.422   6.055  0.2150 -0.1071 -0.1010
  183POPC   NC3 2498   2.105   4.268   4.063  0.0429  0.0683 -0.1457
  183POPC   PO4 2499   2.355   3.974   3.718  0.0978 -0.1784 -0.1012
  183POPC   GL1 2500   2.572   3.991   4.145 -0.0173 -0.1823  0.0112
  183POPC   GL2 2501   2.631   4.246   4.285 -0.2231 -0.0721 -0.0275
  183POPC   C1A 2502   2.724   3.792   4.444 -0.1193 -0.0080  0.0996
  183POPC   D2A 2503   2.669   3.781   4.862  0.1321 -0.3156  0.0226
  183POPC   C3A 2504   2.853   3.874   5.290 -0.1191 -0.1943 -0.3432
  183POPC   C4A 2505   2.935   3.821   5.698 -0.1382 -0.1764  0.1961
  183POPC   C1B 2506   2.353   4.215   4.664 -0.2085 -0.4263  0.0608
  183POPC   C2B 2507   2.226   4.004   5.082  0.1122  0.0264  0.0312
  183POPC   C3B 2508   1.933   3.852   5.340  0.0744 -0.1535 -0.0610
  183POPC   C4B 2509   1.457   3.662   5.260  0.1363 -0.0517 -0.1864
  184POPC   NC3 2510  10.292   7.303   4.052  0.1854 -0.2798 -0.3137
  184POPC   PO4 2511   9.898   7.432   3.860 -0.0774  0.1909  0.0430
  184POPC   GL1 2512   9.708   7.454   4.289  0.0639 -0.3808 -0.2440
  184POPC   GL2 2513   9.986   7.438   4.539  0.1701 -0.0962  0.2794
  184POPC   C1A 2514   9.712   7.061   4.522  0.2201  0.2148 -0.0739
  184POPC   D2A 2515   9.773   6.596   4.741 -0.2479 -0.1466 -0.0147
  184POPC   C3A 2516   9.765   6.340   4.421 -0.0933  0.1778  0.2796
  184POPC   C4A 2517   9.594   6.057   4.156 -0.3364 -0.0069 -0.1634
  184POPC   C1B 2518   9.760   7.459   4.965  0.0522 -0.5909 -0.1741
  184POPC   C2B 2519   9.671   7.264   5.391 -0.0064  0.1204  0.1810
  184POPC   C3B 2520   9.662   7.122   5.800 -0.0519  0.0139 -0.1469
  184POPC   C4B 2521   9.465   6.765   5.904  0.2822  0.0521 -0.1965
  185POPC   NC3 2522   3.718   7.416   3.856 -0.2098 -0.0893  0.0565
  185POPC   PO4 2523   3.474   7.786   3.852 -0.1344 -0.4123 -0.0152
  185POPC   GL1 2524   3.636   7.846   4.276 -0.1230  0.0005 -0.2504
  185POPC   GL2 2525   3.776   8.168   4.439 -0.2832  0.2002  0.2572
  185POPC   C1A 2526   3.519   7.741   4.761  0.0455  0.1451 -0.1124
  185POPC   D2A 2527   3.447   7.799   5.211 -0.3214 -0.0330 -0.2371
  185POPC   C3A 2528   3.524   8.143   5.409 -0.2088 -0.2746 -0.1972
  185POPC   C4A 2529   3.747   8.552   5.379  0.2601 -0.1723  0.0386
  185POPC   C1B 2530   4.061   8.241   4.767  0.0091  0.5725 -0.0279
  185POPC   C2B 2531   4.152   8.583   5.079  0.1684 -0.2884 -0.2680
  185POPC   C3B 2532   4.207   8.905   5.412 -0.1861  0.0684  0.3014
  185POPC   C4B 2533   3.817   8.920   5.667  0.0889  0.1692  0.1801
  186POPC   NC3 2534   5.639   9.207   3.642  0.1027 -0.0529  0.1483
  186POPC   PO4 2535   5.972   9.446   3.801 -0.2741  0.0937  0.1976
  186POPC   GL1 2536   5.844   9.603   4.220 -0.0683  0.2729  0.1437
  186POPC   GL2 2537   5.618   9.491   4.406 -0.1732  0.2570 -0.1591
  186POPC   C1A 2538   5.824   9.978   4.528 -0.3432  0.3785  0.2962
  186POPC   D2A 2539   5.724  10.471   4.551  0.1322 -0.1249 -0.0208
  186POPC   C3A 2540   5.434  10.669   4.662  0.0721  0.2183  0.4658
  186POPC   C4A 2541   5.186  11.058   4.624 -0.2745 -0.0697 -0.2567
  186POPC   C1B 2542   5.433   9.577   4.746 -0.0575  0.3730 -0.0152
  186POPC   C2B 2543   5.312   9.798   5.153 -0.0377  0.1291  0.1145
  186POPC   C3B 2544   5.127   9.623   5.534  0.0322  0.0457 -0.1328
  186POPC   C4B 2545   4.859   9.489   5.829  0.2100 -0.4480  0.0609
  187POPC   NC3 2546   2.768   7.306   3.444 -0.1047  0.1263  0.2701
  187POPC   PO4 2547   2.484   7.278   3.912 -0.2156  0.2176 -0.2860
  187POPC   GL1 2548   2.531   7.078   4.367  0.0819  0.1896  0.0303
  187POPC   GL2 2549   2.552   7.407   4.578 -0.0379  0.1735  0.0053
  187POPC   C1A 2550   2.277   6.959   4.683  0.0292  0.1773 -0.2180
  187POPC   D2A 2551   2.072   6.983   5.152 -0.1653 -0.1597  0.2731
  187POPC   C3A 2552   2.316   6.759   5.383  0.0932 -0.1238  0.1215
  187POPC   C4A 2553   2.674   6.644   5.668  0.1317 -0.0239  0.3320
  187POPC   C1B 2554   2.624   7.212   4.944 -0.0563  0.0800  0.0755
  187POPC   C2B 2555   2.664   7.145   5.374  0.1185 -0.0431  0.3747
  187POPC   C3B 2556   2.814   7.169   5.816 -0.4266 -0.3186  0.2154
  187POPC   C4B 2557   2.826   7.072   6.143  0.3749  0.0081 -0.0788
  188POPC   NC3 2558   6.616   2.466   3.866  0.1401  0.1076 -0.3036
  188POPC   PO4 2559   6.396   2.866   3.810 -0.0328 -0.0195  0.0037
  188POPC   GL1 2560   6.432   2.928   4.214  0.1702  0.0065 -0.3369
  188POPC   GL2 2561   6.692   2.726   4.274  0.0632  0.2896 -0.0223
  188POPC   C1A 2562   6.671   2.836   4.725  0.1486 -0.1868 -0.1794
  188POPC   D2A 2563   6.647   2.661   5.129  0.3078 -0.1363  0.3146
  188POPC   C3A 2564   6.798   2.365   5.420  0.0157 -0.1955  0.3125
  188POPC   C4A 2565   7.178   2.105   5.547  0.0239 -0.0434 -0.0261
  188POPC   C1B 2566   6.451   2.410   4.528  0.2550 -0.1975 -0.2028
  188POPC   C2B 2567   6.284   2.232   4.828 -0.4708 -0.1666  0.0942
  188POPC   C3B 2568   6.304   1.865   5.162 -0.0439  0.1240  0.4376
  188POPC   C4B 2569   6.087   1.411   5.126  0.1699 -0.1052 -0.0787
  189POPC   NC3 2570   0.134   4.126   3.709  0.0734 -0.3201  0.1373
  189POPC   PO4 2571   0.317   4.208   4.106 -0.3053 -0.6222  0.1243
  189POPC   GL1 2572   0.278   4.397   4.525  0.1801 -0.0653  0.0414
  189POPC   GL2 2573   0.555   4.373   4.763  0.0172 -0.0477  0.1335
  189POPC   C1A 2574  -0.136   4.407   4.593 -0.2246  0.0161  0.0612
  189POPC   D2A 2575  -0.452   4.369   4.919 -0.0176  0.3786  0.0600
  189POPC   C3A 2576  -0.842   4.205   4.794 -0.2032  0.0547 -0.1344
  189POPC   C4A 2577  -1.206   4.284   5.018 -0.0375 -0.0948 -0.0998
  189POPC   C1B 2578   0.551   4.035   4.916  0.0611  0.3240 -0.2345
  189POPC   C2B 2579   0.570   3.769   5.280 -0.1441  0.1017  0.1657
  189POPC   C3B 2580   0.331   3.592   5.559 -0.2763  0.0408 -0.0346
  189POPC   C4B 2581   0.180   3.203   5.680 -0.0123  0.2064 -0.0328
  190POPC   NC3 2582   4.503   0.632   3.584  0.4213 -0.0589 -0.2124
  190POPC   PO4 2583   4.807   0.871   3.695  0.2548 -0.2585  0.4057
  190POPC   GL1 2584   4.823   1.077   4.097 -0.1049  0.1869 -0.1014
  190POPC   GL2 2585   4.965   1.409   4.230 -0.1821 -0.1267  0.1815
  190POPC   C1A 2586   4.595   1.184   4.518 -0.3276  0.0504  0.2423
  190POPC   D2A 2587   4.809   1.099   4.946  0.0087  0.1275  0.1128
  190POPC   C3A 2588   4.720   1.269   5.307  0.1885  0.2592 -0.0663
  190POPC   C4A 2589   4.409   1.296   5.565  0.0799  0.1458 -0.0748
  190POPC   C1B 2590   4.836   1.722   4.461 -0.2241 -0.1348 -0.4001
  190POPC   C2B 2591   4.715   2.103   4.814  0.1739 -0.0020  0.2926
  190POPC   C3B 2592   4.747   2.264   5.268  0.2202  0.3407  0.2049
  190POPC   C4B 2593   4.663   2.608   5.514  0.2383 -0.0346 -0.2431
  191POPC   NC3 2594   0.984   6.965   3.803 -0.2236  0.3205  0.0224
  191POPC   PO4 2595   0.765   6.603   3.946  0.1707  0.0108 -0.0476
  191POPC   GL1 2596   0.789   6.828   4.413 -0.4232 -0.4178  0.1353
  191POPC   GL2 2597   0.447   6.852   4.476 -0.1177  0.2061 -0.0094
  191POPC   C1A 2598   0.867   7.134   4.725  0.1031 -0.0334  0.3682
  191POPC   D2A 2599   1.140   7.220   5.037 -0.1250  0.0885  0.1825
  191POPC   C3A 2600   1.178   7.423   5.377 -0.2248  0.1663 -0.1276
  191POPC   C4A 2601   1.274   7.366   5.784 -0.0589  0.1047 -0.1457
  191POPC   C1B 2602   0.691   6.745   4.940 -0.2058 -0.1225 -0.0055
  191POPC   C2B 2603   1.038   6.717   5.134  0.1462  0.2169 -0.1263
  191POPC   C3B 2604   1.215   6.398   5.388  0.2988 -0.0129  0.0145
  191POPC   C4B 2605   1.300   6.331   5.875 -0.2001 -0.0086  0.0473
  192POPC   NC3 2606   4.047   9.312   3.342 -0.1485  0.1409  0.0024
  192POPC   PO4 2607   4.340   9.401   3.770 -0.0861  0.2765 -0.0759
  192POPC   GL1 2608   4.201   9.735   4.158 -0.0941  0.1015  0.0449
  192POPC   GL2 2609   3.865   9.592   4.158  0.1536  0.2284 -0.4061
  192POPC   C1A 2610   4.102  10.011   4.518 -0.3090 -0.1587 -0.0112
  192POPC   D2A 2611   4.000  10.361   4.725  0.0339 -0.1446  0.0639
  192POPC   C3A 2612   4.041  10.553   5.109 -0.2381  0.2474  0.2615
  192POPC   C4A 2613   4.192  10.453   5.482 -0.1210 -0.1406 -0.1488
  192POPC   C1B 2614   3.991   9.516   4.578  0.2567  0.0450 -0.1713
  192POPC   C2B 2615   4.002   9.483   5.085 -0.0621  0.1602 -0.1593
  192POPC   C3B 2616   4.073   9.319   5.564 -0.1270 -0.0099 -0.0727
  192POPC   C4B 2617   4.337   9.561   5.819 -0.2831 -0.1188  0.0116
  193POPC   NC3 2618   3.450  10.257   3.762  0.0472 -0.0780  0.0233
  193POPC   PO4 2619   3.021  10.121   3.948 -0.0439 -0.2616  0.0317
  193POPC   GL1 2620   2.910  10.146   4.300  0.1335  0.1682 -0.0186
  193POPC   GL2 2621   3.039   9.788   4.346 -0.2428  0.2743 -0.2072
  193POPC   C1A 2622   2.625   9.997   4.586  0.1501 -0.0041  0.2372
  193POPC   D2A 2623   2.625   9.943   5.016  0.2842 -0.0102  0.1813
  193POPC   C3A 2624   2.338   9.666   5.222  0.0970  0.2672 -0.0076
  193POPC   C4A 2625   2.215   9.192   5.329  0.1197 -0.1915 -0.0490
  193POPC   C1B 2626   3.098   9.945   4.756  0.0569  0.0060 -0.1338
  193POPC   C2B 2627   3.139   9.923   5.247  0.0828 -0.0476 -0.2324
  193POPC   C3B 2628   2.981   9.733   5.526 -0.0078  0.0769  0.2137
  193POPC   C4B 2629   2.614   9.467   5.730  0.3367  0.0835  0.1756
  194POPC   NC3 2630   0.484   7.078   4.020 -0.1367  0.3048 -0.2889
  194POPC   PO4 2631   0.808   7.370   4.077  0.0767 -0.0933 -0.3126
  194POPC   GL1 2632   0.483   7.375   4.427 -0.1499  0.0538 -0.1396
  194POPC   GL2 2633   0.452   7.637   4.597  0.0523  0.3345  0.0481
  194POPC   C1A 2634   0.321   7.083   4.884  0.1658 -0.4151 -0.1799
  194POPC   D2A 2635   0.377   6.951   5.266  0.3614  0.0074 -0.0255
  194POPC   C3A 2636   0.357   6.534   5.204  0.1759  0.0177  0.1048
  194POPC   C4A 2637   0.501   6.321   4.768 -0.1845  0.1024  0.0083
  194POPC   C1B 2638   0.211   7.601   5.033  0.0891 -0.0911  0.3004
  194POPC   C2B 2639   0.048   7.717   5.310  0.1455 -0.0021  0.0610
  194POPC   C3B 2640  -0.299   7.921   5.665  0.0706 -0.0759 -0.0035
  194POPC   C4B 2641  -0.738   7.917   5.848 -0.1083 -0.1250  0.0890
  195POPC   NC3 2642   4.772   3.906   3.702  0.0474  0.1467 -0.3192
  195POPC   PO4 2643   4.928   4.185   4.068 -0.1380 -0.1568  0.3108
  195POPC   GL1 2644   5.051   4.301   4.509  0.0554  0.1392 -0.2487
  195POPC   GL2 2645   4.731   4.364   4.561  0.1950 -0.1033  0.0015
  195POPC   C1A 2646   5.342   4.542   4.668  0.1412 -0.1779  0.4298
  195POPC   D2A 2647   5.493   4.822   4.916 -0.4433  0.2413  0.2209
  195POPC   C3A 2648   5.303   4.982   5.225 -0.0363 -0.0112 -0.1514
  195POPC   C4A 2649   5.113   5.000   5.687 -0.0256  0.1540  0.2403
  195POPC   C1B 2650   4.992   4.646   5.004 -0.1029  0.0536  0.2430
  195POPC   C2B 2651   4.786   4.953   5.246 -0.3005  0.0563  0.0017
  195POPC   C3B 2652   4.541   5.143   5.489  0.1547 -0.2251 -0.0931
  195POPC   C4B 2653   4.681   5.234   5.852 -0.0731 -0.1956  0.2376
  196POPC   NC3 2654   1.053   9.419   3.967  0.1582  0.1927  0.1244
  196POPC   PO4 2655   0.910   9.829   3.966  0.0410  0.2664  0.1643
  196POPC   GL1 2656   0.739   9.957   4.275 -0.0819  0.0156  0.0341
  196POPC   GL2 2657   0.616   9.835   4.528  0.3056 -0.0859  0.1335
  196POPC   C1A 2658   0.679  10.258   4.641 -0.4355 -0.1479  0.2624
  196POPC   D2A 2659   0.645  10.305   5.061  0.0698 -0.0372 -0.0297
  196POPC   C3A 2660   0.846  10.469   5.363 -0.1630 -0.1463 -0.0608
  196POPC   C4A 2661   0.858  10.489   5.720 -0.0250  0.0354  0.2715
  196POPC   C1B 2662   0.746   9.829   4.980  0.0851  0.1691 -0.0621
  196POPC   C2B 2663   0.890   9.907   5.310 -0.0138  0.3150 -0.0524
  196POPC   C3B 2664   0.876   9.960   5.699 -0.2509 -0.0736  0.6068
  196POPC   C4B 2665   0.651   9.916   6.078 -0.0248  0.1968 -0.1610
  197POPC   NC3 2666   8.193   2.105   3.111  0.1587 -0.0921 -0.0394
  197POPC   PO4 2667   8.516   2.201   3.509  0.0314  0.0470  0.0357
  197POPC   GL1 2668   8.443   2.505   3.898 -0.1739  0.0311  0.0110
  197POPC   GL2 2669   8.767   2.546   4.067  0.0229  0.1884  0.1728
  197POPC   C1A 2670   8.122   2.603   4.108  0.0478 -0.1539  0.2788
  197POPC   D2A 2671   7.823   3.122   3.996  0.3090 -0.0508  0.3025
  197POPC   C3A 2672   7.840   3.374   4.324 -0.4146  0.1074 -0.1054
  197POPC   C4A 2673   8.257   3.501   4.466  0.1879  0.4995 -0.5423
  197POPC   C1B 2674   8.518   2.652   4.379 -0.2643 -0.0935 -0.1720
  197POPC   C2B 2675   8.190   2.500   4.602  0.1511 -0.1720 -0.1246
  197POPC   C3B 2676   7.854   2.189   4.784 -0.1319 -0.2964  0.1946
  197POPC   C4B 2677   7.771   1.780   5.055  0.2642 -0.0423 -0.2585
  198POPC   NC3 2678   2.924   5.444   3.817  0.0937  0.0068 -0.1245
  198POPC   PO4 2679   2.997   5.965   3.787  0.0173  0.0759  0.1923
  198POPC   GL1 2680   2.911   5.931   4.196  0.0918 -0.2839  0.3071
  198POPC   GL2 2681   3.292   5.971   4.184  0.0147  0.4443 -0.3707
  198POPC   C1A 2682   2.985   5.865   4.640  0.0952 -0.1626  0.0158
  198POPC   D2A 2683   2.897   5.861   5.101  0.0326  0.0564  0.1670
  198POPC   C3A 2684   2.907   5.498   5.399  0.0495 -0.1182  0.0937
  198POPC   C4A 2685   3.134   5.054   5.418 -0.0077 -0.2114 -0.1127
  198POPC   C1B 2686   3.499   6.076   4.540  0.1272  0.2658  0.0340
  198POPC   C2B 2687   3.197   6.347   4.906 -0.1761  0.2213  0.0506
  198POPC   C3B 2688   3.173   6.331   5.335 -0.0432  0.0463 -0.2576
  198POPC   C4B 2689   3.020   6.221   5.768 -0.1240  0.2672 -0.1567
  199POPC   NC3 2690   1.148   1.139   3.403  0.2006 -0.0587 -0.1403
  199POPC   PO4 2691   1.414   1.224   3.788 -0.3393 -0.0837  0.0140
  199POPC   GL1 2692   1.312   1.234   4.163 -0.0432  0.0453  0.2422
  199POPC   GL2 2693   1.348   1.489   4.309  0.0777  0.2040  0.0798
  199POPC   C1A 2694   0.978   1.162   4.314  0.1717 -0.0858  0.0869
  199POPC   D2A 2695   0.868   1.030   4.763 -0.1894 -0.2179  0.0739
  199POPC   C3A 2696   0.657   0.617   4.864 -0.1981  0.2741  0.1572
  199POPC   C4A 2697   0.256   0.298   4.937 -0.3243 -0.0723 -0.1798
  199POPC   C1B 2698   1.002   1.545   4.648 -0.0213  0.0983 -0.0869
  199POPC   C2B 2699   1.008   1.879   4.973  0.0529 -0.0303 -0.1200
  199POPC   C3B 2700   1.137   2.074   5.339 -0.0162 -0.1754 -0.0179
  199POPC   C4B 2701   0.873   2.276   5.667  0.0756  0.1503  0.2691
  200POPC   NC3 2702   7.542  10.392   3.457 -0.2940 -0.1323 -0.5008
  200POPC   PO4 2703   7.195  10.662   3.685  0.0840  0.0387 -0.2641
  200POPC   GL1 2704   7.103  10.651   4.108  0.1558 -0.1061 -0.1008
  200POPC   GL2 2705   7.202  10.906   4.244 -0.2086  0.1614 -0.2697
  200POPC   C1A 2706   7.053  10.394   4.532  0.0731  0.0607  0.3185
  200POPC   D2A 2707   6.933  10.481   5.009  0.2440 -0.0885  0.0963
  200POPC   C3A 2708   6.418  10.414   5.084 -0.2845 -0.1099 -0.1235
  200POPC   C4A 2709   6.200  10.748   5.405 -0.4378  0.0037  0.1211
  200POPC   C1B 2710   7.439  10.775   4.600 -0.1355 -0.1270 -0.0609
  200POPC   C2B 2711   7.718  10.976   4.999 -0.2479 -0.1082  0.1912
  200POPC   C3B 2712   7.982  10.868   5.174  0.0917  0.0035  0.3452
  200POPC   C4B 2713   8.181  10.755   5.602  0.1671  0.2347 -0.2329
  201POPC   NC3 2714  10.018   5.162   4.016  0.1247 -0.1101  0.1097
  201POPC   PO4 2715   9.648   5.425   3.862 -0.3121  0.0710  0.0338
  201POPC   GL1 2716   9.583   5.397   4.278 -0.2152 -0.0640  0.2556
  201POPC   GL2 2717   9.633   5.088   4.338  0.2348 -0.1116  0.1567
  201POPC   C1A 2718   9.310   5.495   4.621  0.0935 -0.1163 -0.2288
  201POPC   D2A 2719   8.859   5.541   4.803 -0.0822 -0.1456  0.0630
  201POPC   C3A 2720   8.820   5.074   5.000  0.0301 -0.1315 -0.1028
  201POPC   C4A 2721   8.886   4.914   5.438 -0.1172 -0.0598  0.2142
  201POPC   C1B 2722   9.848   5.302   4.749 -0.0387 -0.1348  0.0429
  201POPC   C2B 2723  10.246   5.455   5.043  0.1137  0.0313  0.0971
  201POPC   C3B 2724  10.514   5.641   5.325  0.1489  0.2425  0.1631
  201POPC   C4B 2725  10.922   5.654   5.512  0.2274  0.0917 -0.0136
  202POPC   NC3 2726   8.888   2.572   3.580  0.1539  0.3371  0.0023
  202POPC   PO4 2727   9.034   2.890   3.839  0.2418 -0.2388 -0.0960
  202POPC   GL1 2728   9.084   2.860   4.307  0.1637 -0.0258  0.2021
  202POPC   GL2 2729   9.174   3.123   4.536 -0.4402 -0.1278 -0.0695
  202POPC   C1A 2730   8.982   2.535   4.519 -0.3381 -0.0535 -0.2426
  202POPC   D2A 2731   8.923   2.423   4.894 -0.0615  0.0745 -0.2524
  202POPC   C3A 2732   8.607   2.208   5.175 -0.1572 -0.1098 -0.0040
  202POPC   C4A 2733   8.118   1.990   5.303 -0.1908  0.3000 -0.2677
  202POPC   C1B 2734   8.997   2.998   4.849 -0.2524 -0.2027  0.3223
  202POPC   C2B 2735   8.780   2.824   5.167  0.0517 -0.3084 -0.2225
  202POPC   C3B 2736   8.943   2.516   5.411 -0.2182  0.0243  0.2777
  202POPC   C4B 2737   9.156   2.480   5.857 -0.1330 -0.0941  0.4269
  203POPC   NC3 2738   6.988   1.286   3.520 -0.1424  0.3462 -0.3909
  203POPC   PO4 2739   6.770   1.605   3.667  0.1774 -0.2400  0.0641
  203POPC   GL1 2740   7.167   1.499   3.984  0.1899  0.1365  0.1223
  203POPC   GL2 2741   7.433   1.475   3.809 -0.2758  0.0773 -0.1801
  203POPC   C1A 2742   7.155   1.619   4.351 -0.3335  0.2081  0.0150
  203POPC   D2A 2743   7.093   1.929   4.659 -0.1695 -0.1481 -0.2428
  203POPC   C3A 2744   7.347   2.236   4.965 -0.0181  0.2652 -0.1039
  203POPC   C4A 2745   7.453   2.323   5.230  0.0177  0.1371  0.2213
  203POPC   C1B 2746   7.696   1.409   4.187  0.2261 -0.2862  0.0364
  203POPC   C2B 2747   7.954   1.192   4.459 -0.1989 -0.1890 -0.1920
  203POPC   C3B 2748   8.183   1.110   4.895  0.1867  0.2151 -0.1074
  203POPC   C4B 2749   8.557   0.929   5.006 -0.1725 -0.0730 -0.5489
  204POPC   NC3 2750   0.320   0.397   3.997  0.0320 -0.1436 -0.0802
  204POPC   PO4 2751   0.296   0.810   4.059  0.1065 -0.2429 -0.1524
  204POPC   GL1 2752   0.464   1.008   4.447 -0.0679  0.0261 -0.1466
  204POPC   GL2 2753   0.481   1.375   4.600  0.2159  0.0132 -0.0147
  204POPC   C1A 2754   0.451   1.089   4.984  0.0155  0.3988  0.1229
  204POPC   D2A 2755   0.422   0.817   5.274  0.0816  0.2442  0.0369
  204POPC   C3A 2756   0.682   0.732   5.506  0.3176  0.3607 -0.0158
  204POPC   C4A 2757   0.596   0.578   5.906  0.1326  0.0642 -0.3234
  204POPC   C1B 2758   0.626   1.565   4.986  0.0551 -0.2030  0.0283
  204POPC   C2B 2759   0.596   1.887   5.394 -0.2632  0.0132 -0.0512
  204POPC   C3B 2760   0.362   1.733   5.704 -0.0462  0.3050  0.0154
  204POPC   C4B 2761   0.380   1.325   5.974  0.1165 -0.0834  0.0150
  205POPC   NC3 2762   2.454   1.672   3.655  0.2300 -0.3991  0.3337
  205POPC   PO4 2763   2.054   1.722   3.835 -0.0081  0.3541 -0.0319
  205POPC   GL1 2764   1.866   1.512   4.064 -0.2690  0.2321  0.1431
  205POPC   GL2 2765   1.782   1.752   4.300  0.0817  0.0448  0.1096
  205POPC   C1A 2766   1.839   1.307   4.427  0.0712  0.1403  0.3448
  205POPC   D2A 2767   1.901   0.842   4.440 -0.0668 -0.2778 -0.0050
  205POPC   C3A 2768   2.080   0.718   4.716  0.1184 -0.1103 -0.0491
  205POPC   C4A 2769   2.098   0.811   5.094  0.1189  0.1707  0.0584
  205POPC   C1B 2770   1.960   2.013   4.709  0.3342  0.0779  0.3122
  205POPC   C2B 2771   2.146   2.085   5.011  0.0550  0.1630 -0.0723
  205POPC   C3B 2772   2.375   2.032   5.371 -0.2358 -0.0986 -0.0546
  205POPC   C4B 2773   2.428   1.747   5.762 -0.1777 -0.0521 -0.2219
  206POPC   NC3 2774   4.790   3.777   4.257  0.0470 -0.0885 -0.0707
  206POPC   PO4 2775   4.991   3.385   4.349 -0.1481 -0.1384 -0.1894
  206POPC   GL1 2776   4.840   3.435   4.755  0.2316 -0.4528  0.0200
  206POPC   GL2 2777   4.791   3.896   4.737  0.1283 -0.0756 -0.1960
  206POPC   C1A 2778   4.446   3.330   5.069 -0.1710  0.1692  0.2648
  206POPC   D2A 2779   4.254   3.545   5.376 -0.0062  0.2480  0.0648
  206POPC   C3A 2780   4.462   3.795   5.673 -0.1576  0.0920 -0.3171
  206POPC   C4A 2781   4.630   4.200   5.855 -0.0437  0.0922  0.2634
  206POPC   C1B 2782   5.045   4.128   4.988  0.1250  0.0031 -0.0840
  206POPC   C2B 2783   5.455   4.392   5.155  0.3012  0.1218  0.1301
  206POPC   C3B 2784   5.478   4.601   5.477 -0.2316 -0.2777  0.0865
  206POPC   C4B 2785   5.663   4.787   5.822  0.3028 -0.0354 -0.0011
  207POPC   NC3 2786   4.341  10.057   3.688 -0.0577  0.2767 -0.0413
  207POPC   PO4 2787   4.774  10.147   3.704 -0.0087 -0.0140 -0.0833
  207POPC   GL1 2788   4.701  10.032   4.139  0.0505 -0.2927  0.1865
  207POPC   GL2 2789   4.846   9.654   4.232  0.1737  0.0295  0.0731
  207POPC   C1A 2790   4.555  10.223   4.533 -0.2539  0.2907 -0.0480
  207POPC   D2A 2791   4.476  10.258   4.929 -0.2319  0.0626 -0.0577
  207POPC   C3A 2792   4.118   9.999   5.083  0.2026  0.0786 -0.0156
  207POPC   C4A 2793   4.017   9.926   5.505 -0.1337 -0.0789 -0.0325
  207POPC   C1B 2794   4.549   9.654   4.530  0.3017 -0.0629 -0.0612
  207POPC   C2B 2795   4.557   9.708   4.982  0.0068 -0.0490 -0.0616
  207POPC   C3B 2796   4.535   9.384   5.354 -0.0466 -0.0131  0.0146
  207POPC   C4B 2797   4.685   9.046   5.616  0.1397 -0.0762 -0.2610
  208POPC   NC3 2798   6.070   4.931   3.742  0.2637  0.2213  0.0954
  208POPC   PO4 2799   5.616   4.778   3.770  0.0353  0.2500 -0.0200
  208POPC   GL1 2800   5.843   4.780   4.128  0.1451  0.0897  0.0171
  208POPC   GL2 2801   6.174   4.735   4.213 -0.2133 -0.1286 -0.3143
  208POPC   C1A 2802   5.909   4.396   4.530  0.1611 -0.0929 -0.1875
  208POPC   D2A 2803   6.043   4.591   4.905  0.0545  0.2250  0.1002
  208POPC   C3A 2804   6.385   4.790   4.893 -0.0877  0.3490 -0.2781
  208POPC   C4A 2805   6.520   4.823   5.235  0.0210 -0.1883 -0.3428
  208POPC   C1B 2806   6.465   4.457   4.507  0.2655  0.2879  0.0085
  208POPC   C2B 2807   6.463   4.315   4.875  0.5315 -0.2452  0.0490
  208POPC   C3B 2808   6.277   4.331   5.293 -0.2608  0.1205 -0.2412
  208POPC   C4B 2809   6.293   4.219   5.699  0.2668  0.2055 -0.0761
  209POPC   NC3 2810   4.738   0.005   3.716 -0.1779 -0.0197 -0.2146
  209POPC   PO4 2811   4.392   0.220   3.845  0.2207  0.1666 -0.0322
  209POPC   GL1 2812   4.322   0.244   4.312 -0.0310 -0.2798  0.1600
  209POPC   GL2 2813   4.066   0.026   4.321 -0.2875  0.1395  0.0506
  209POPC   C1A 2814   4.223   0.399   4.800  0.5818  0.4087 -0.0440
  209POPC   D2A 2815   4.494   0.158   5.150 -0.2105 -0.1278  0.1108
  209POPC   C3A 2816   4.764   0.372   5.477  0.0350  0.3151 -0.0312
  209POPC   C4A 2817   5.142   0.513   5.590  0.1124  0.1556  0.3538
  209POPC   C1B 2818   3.886   0.448   4.424 -0.0935 -0.2281  0.0573
  209POPC   C2B 2819   3.559   0.660   4.742  0.3009 -0.0360  0.0411
  209POPC   C3B 2820   3.439   0.661   5.196 -0.2865  0.1032 -0.0932
  209POPC   C4B 2821   3.213   0.650   5.512 -0.0882 -0.1709 -0.1718
  210POPC   NC3 2822   2.409   5.992   3.745  0.3387  0.1645  0.2506
  210POPC   PO4 2823   2.401   5.607   3.812  0.0613  0.0674 -0.0093
  210POPC   GL1 2824   2.594   5.479   4.200  0.3623 -0.3100 -0.3496
  210POPC   GL2 2825   2.683   5.106   4.335 -0.0187 -0.1464 -0.1339
  210POPC   C1A 2826   2.553   5.472   4.701 -0.1803 -0.3297 -0.1818
  210POPC   D2A 2827   2.573   5.203   5.133  0.1180 -0.0137 -0.0096
  210POPC   C3A 2828   2.381   4.971   5.548  0.0187  0.1499 -0.5620
  210POPC   C4A 2829   2.220   4.641   5.902 -0.1130  0.2897 -0.1542
  210POPC   C1B 2830   2.939   5.081   4.696  0.0639 -0.0171 -0.0988
  210POPC   C2B 2831   3.037   4.765   5.021 -0.2470  0.0051 -0.0049
  210POPC   C3B 2832   2.800   4.610   5.378  0.0812 -0.1938  0.1156
  210POPC   C4B 2833   2.769   4.331   5.735  0.0996 -0.3183  0.2613
  211POPC   NC3 2834   6.295   9.799   4.011  0.4244  0.1595  0.0748
  211POPC   PO4 2835   6.660   9.921   3.687  0.2191  0.0294  0.0879
  211POPC   GL1 2836   6.821   9.938   4.027 -0.0457 -0.0330 -0.0685
  211POPC   GL2 2837   6.662   9.742   4.330 -0.0183  0.2361  0.0787
  211POPC   C1A 2838   7.271   9.908   4.250 -0.1670  0.1983 -0.0258
  211POPC   D2A 2839   7.681   9.713   4.472  0.2126 -0.2727 -0.3320
  211POPC   C3A 2840   7.895   9.642   4.876  0.2419  0.2136 -0.3654
  211POPC   C4A 2841   7.910   9.375   5.366 -0.0381  0.3157 -0.0467
  211POPC   C1B 2842   6.868   9.937   4.598  0.5659  0.2052  0.1199
  211POPC   C2B 2843   6.760  10.031   4.986  0.0452 -0.2431  0.2018
  211POPC   C3B 2844   7.030   9.799   5.188 -0.1627  0.0705 -0.1728
  211POPC   C4B 2845   7.436   9.838   5.339  0.0852  0.0493  0.0981
  212POPC   NC3 2846   9.401   9.642   4.368  0.2774  0.2961 -0.0506
  212POPC   PO4 2847   9.274   9.363   4.059 -0.1931 -0.0552 -0.1025
  212POPC   GL1 2848   9.091   9.257   4.529 -0.3029  0.1577 -0.2668
  212POPC   GL2 2849   9.394   9.201   4.740  0.3373 -0.2916 -0.0512
  212POPC   C1A 2850   8.904   9.304   4.826 -0.0735  0.0877  0.1136
  212POPC   D2A 2851   8.744   9.224   5.220  0.3582  0.0845  0.0241
  212POPC   C3A 2852   8.700   9.001   5.604 -0.2845 -0.0434 -0.0077
  212POPC   C4A 2853   8.895   8.886   6.020 -0.2667  0.0634 -0.1255
  212POPC   C1B 2854   9.268   9.028   5.083 -0.1286  0.3512 -0.1087
  212POPC   C2B 2855   9.302   9.138   5.557  0.0932  0.1072 -0.3123
  212POPC   C3B 2856   9.296   9.350   5.859 -0.1101  0.2151 -0.0501
  212POPC   C4B 2857   9.303   9.512   6.258 -0.1976  0.0812 -0.0328
  213POPC   NC3 2858   7.240   1.870   3.625 -0.0257  0.0314 -0.0078
  213POPC   PO4 2859   7.737   1.814   3.445 -0.0355  0.2014  0.0726
  213POPC   GL1 2860   7.652   1.923   3.916 -0.3591 -0.1857  0.1767
  213POPC   GL2 2861   7.758   2.291   3.944  0.0145  0.1014 -0.5120
  213POPC   C1A 2862   7.509   1.958   4.288  0.0857 -0.2005  0.1103
  213POPC   D2A 2863   7.656   1.764   4.523  0.2631 -0.2162 -0.0451
  213POPC   C3A 2864   7.576   1.447   4.831  0.3723  0.0561  0.1392
  213POPC   C4A 2865   7.721   1.221   5.085  0.2987 -0.0797  0.3769
  213POPC   C1B 2866   7.683   2.608   4.225 -0.0602  0.0416 -0.1279
  213POPC   C2B 2867   7.581   2.532   4.591 -0.1531  0.3222 -0.0941
  213POPC   C3B 2868   7.204   2.695   4.761 -0.0525 -0.0716  0.1682
  213POPC   C4B 2869   7.100   2.747   5.157 -0.1310  0.0849 -0.4567
  214POPC   NC3 2870   1.461   3.821   4.038 -0.0010 -0.0305 -0.1063
  214POPC   PO4 2871   1.661   4.190   4.302 -0.3272  0.1135  0.2029
  214POPC   GL1 2872   1.956   4.463   4.489  0.1445 -0.4347 -0.0649
  214POPC   GL2 2873   1.758   4.719   4.526  0.1598 -0.0014  0.2244
  214POPC   C1A 2874   1.868   4.418   4.878  0.1528  0.3331 -0.1111
  214POPC   D2A 2875   1.726   4.267   5.213 -0.2286 -0.2301 -0.1169
  214POPC   C3A 2876   1.362   4.117   5.164  0.1123 -0.3171 -0.3365
  214POPC   C4A 2877   1.109   3.867   4.970  0.0105  0.3539  0.2499
  214POPC   C1B 2878   1.904   4.955   4.828 -0.0511 -0.2668  0.0738
  214POPC   C2B 2879   1.978   4.798   5.263 -0.0113  0.0458  0.1360
  214POPC   C3B 2880   1.718   4.714   5.757 -0.0863  0.2718 -0.1955
  214POPC   C4B 2881   1.580   4.905   6.038 -0.0503  0.0126  0.2532
  215POPC   NC3 2882  10.279   3.249   3.846 -0.1576 -0.3205 -0.2387
  215POPC   PO4 2883  10.212   2.816   3.888  0.0377 -0.0134 -0.0692
  215POPC   GL1 2884  10.486   2.683   4.233 -0.2627 -0.1596 -0.2309
  215POPC   GL2 2885  10.798   2.768   4.289  0.0355 -0.0629  0.1405
  215POPC   C1A 2886  10.463   2.634   4.714  0.1338 -0.3704  0.2199
  215POPC   D2A 2887  10.439   2.906   5.116  0.0416 -0.2501 -0.1958
  215POPC   C3A 2888  10.575   3.244   5.191 -0.1833 -0.0060  0.1728
  215POPC   C4A 2889  10.755   3.614   5.113 -0.0829 -0.4661  0.1484
  215POPC   C1B 2890  10.872   2.428   4.507 -0.1706  0.0783  0.2937
  215POPC   C2B 2891  11.006   2.001   4.808 -0.2433 -0.0047 -0.2098
  215POPC   C3B 2892  10.816   1.915   5.185 -0.0531 -0.0065 -0.0159
  215POPC   C4B 2893  10.509   1.670   5.536 -0.0012 -0.1881 -0.3317
  216POPC   NC3 2894   4.784   4.713   3.918  0.0199 -0.3446  0.2387
  216POPC   PO4 2895   4.459   4.692   4.150 -0.0094  0.1303 -0.1593
  216POPC   GL1 2896   4.100   4.850   4.409  0.0921 -0.1827 -0.3279
  216POPC   GL2 2897   3.786   4.729   4.372 -0.1696  0.1649  0.0481
  216POPC   C1A 2898   3.931   5.159   4.745 -0.2205  0.3614  0.1090
  216POPC   D2A 2899   4.027   5.115   5.188 -0.0092  0.4429  0.0895
  216POPC   C3A 2900   4.011   5.521   5.405 -0.1105 -0.0980 -0.0564
  216POPC   C4A 2901   3.942   5.792   5.777  0.1235 -0.1267 -0.0626
  216POPC   C1B 2902   3.982   4.669   4.864  0.0967  0.0558  0.1415
  216POPC   C2B 2903   4.167   4.645   5.278 -0.0290 -0.0857  0.0147
  216POPC   C3B 2904   4.361   4.761   5.726 -0.3755  0.1696  0.0932
  216POPC   C4B 2905   4.769   4.712   5.960  0.0510  0.2262 -0.3890
  217POPC   NC3 2906   9.462   3.064   4.039  0.0200 -0.0727  0.0061
  217POPC   PO4 2907   9.881   3.053   4.211  0.0852  0.0224 -0.0287
  217POPC   GL1 2908   9.700   3.328   4.451 -0.0969 -0.1214 -0.1462
  217POPC   GL2 2909   9.954   3.517   4.563 -0.0824 -0.0043  0.0607
  217POPC   C1A 2910   9.488   3.333   4.819 -0.1359  0.0475 -0.0661
  217POPC   D2A 2911   9.116   3.502   4.995 -0.2657  0.3616 -0.2601
  217POPC   C3A 2912   8.798   3.356   5.372 -0.0829  0.0010 -0.0756
  217POPC   C4A 2913   8.863   2.971   5.653 -0.2268  0.1667  0.1182
  217POPC   C1B 2914   9.922   3.374   5.044  0.2769  0.1247 -0.0239
  217POPC   C2B 2915   9.617   3.382   5.298 -0.1221 -0.0006 -0.2185
  217POPC   C3B 2916   9.388   3.787   5.433 -0.0445 -0.0019 -0.0289
  217POPC   C4B 2917   9.495   4.228   5.571 -0.0184 -0.1554  0.1105
  218POPC   NC3 2918   0.949   8.205   3.746  0.2298 -0.0707  0.1693
  218POPC   PO4 2919   0.508   8.243   3.875 -0.2714 -0.1548  0.0089
  218POPC   GL1 2920   0.751   8.142   4.253 -0.1340  0.2128  0.1336
  218POPC   GL2 2921   0.605   8.147   4.476  0.2171 -0.1049  0.1007
  218POPC   C1A 2922   1.063   7.891   4.537  0.3161 -0.0948 -0.0840
  218POPC   D2A 2923   1.009   7.689   4.790 -0.1964 -0.2122 -0.0032
  218POPC   C3A 2924   0.798   7.593   5.087  0.0938  0.1375 -0.1041
  218POPC   C4A 2925   0.529   7.424   5.416 -0.0490 -0.1963  0.3131
  218POPC   C1B 2926   0.637   8.040   4.956 -0.1442 -0.0325 -0.1901
  218POPC   C2B 2927   0.515   7.944   5.397  0.2827  0.2176  0.3580
  218POPC   C3B 2928   0.263   7.924   5.718 -0.3214 -0.2384  0.0696
  218POPC   C4B 2929  -0.034   7.799   6.119  0.0791 -0.2222  0.0817
  219POPC   NC3 2930   0.064   5.699   4.225  0.1095 -0.0877 -0.0911
  219POPC   PO4 2931   0.072   6.151   4.045 -0.0042 -0.3246  0.1082
  219POPC   GL1 2932  -0.079   6.157   4.350 -0.0302 -0.0613  0.2013
  219POPC   GL2 2933   0.056   6.127   4.570  0.0461 -0.0480  0.0170
  219POPC   C1A 2934  -0.318   6.452   4.630  0.1016 -0.0169 -0.0880
  219POPC   D2A 2935  -0.535   6.463   5.107 -0.1402  0.0716  0.1466
  219POPC   C3A 2936  -1.023   6.378   5.121 -0.0909  0.1089  0.0278
  219POPC   C4A 2937  -1.378   6.325   5.333  0.0404  0.1282  0.2751
  219POPC   C1B 2938  -0.013   6.275   4.994  0.1933 -0.0627  0.0222
  219POPC   C2B 2939  -0.134   6.170   5.373 -0.0931 -0.1533 -0.0520
  219POPC   C3B 2940  -0.184   5.892   5.704 -0.2442  0.0879 -0.2229
  219POPC   C4B 2941  -0.142   5.496   5.815 -0.1025 -0.4222  0.0813
  220POPC   NC3 2942   3.559   4.736   3.753  0.0877 -0.1579 -0.0079
  220POPC   PO4 2943   3.219   5.064   3.813  0.1537 -0.1761  0.2737
  220POPC   GL1 2944   3.153   5.176   4.242 -0.0464 -0.3850 -0.1502
  220POPC   GL2 2945   3.190   5.509   4.384 -0.0980  0.1464 -0.0285
  220POPC   C1A 2946   3.492   5.063   4.558  0.0575 -0.5855  0.1945
  220POPC   D2A 2947   3.539   5.145   5.117  0.0575 -0.0163 -0.0461
  220POPC   C3A 2948   3.462   5.371   5.513 -0.3469 -0.0481 -0.0474
  220POPC   C4A 2949   3.688   5.394   5.842  0.2192  0.0032 -0.2064
  220POPC   C1B 2950   3.321   5.479   4.818 -0.0454 -0.2594  0.2209
  220POPC   C2B 2951   3.374   5.770   5.237 -0.0606  0.1888  0.0387
  220POPC   C3B 2952   3.288   5.797   5.682 -0.1978 -0.2626 -0.0019
  220POPC   C4B 2953   2.995   5.782   5.990 -0.2269 -0.2153 -0.1609
  221POPC   NC3 2954   1.912   5.572   4.042 -0.1679  0.2341 -0.2554
  221POPC   PO4 2955   1.570   5.622   4.314 -0.0882  0.0801  0.0890
  221POPC   GL1 2956   1.669   5.875   4.660 -0.0696  0.0023  0.1919
  221POPC   GL2 2957   1.728   6.180   4.520  0.0347 -0.0872 -0.5785
  221POPC   C1A 2958   2.025   6.030   4.978 -0.1035 -0.0540 -0.2539
  221POPC   D2A 2959   2.317   6.331   5.088  0.1981  0.0180 -0.0023
  221POPC   C3A 2960   2.531   6.239   5.371 -0.0017  0.2499 -0.0597
  221POPC   C4A 2961   2.674   5.903   5.594 -0.0083 -0.0220 -0.0831
  221POPC   C1B 2962   1.503   6.368   4.852 -0.0651 -0.0124 -0.0472
  221POPC   C2B 2963   1.501   6.777   5.130  0.1896  0.0503 -0.0976
  221POPC   C3B 2964   1.471   6.985   5.419 -0.1014  0.2848  0.0574
  221POPC   C4B 2965   1.854   7.037   5.584  0.0580  0.0074 -0.1376
  222POPC   NC3 2966   0.650   2.376   3.775 -0.0264  0.2497 -0.0157
  222POPC   PO4 2967   0.544   2.776   3.955  0.0191  0.0702 -0.1729
  222POPC   GL1 2968   0.664   2.809   4.445 -0.0357  0.1360 -0.1934
  222POPC   GL2 2969   0.809   3.105   4.572  0.0238 -0.0887  0.1350
  222POPC   C1A 2970   0.832   2.714   4.860  0.0354 -0.2429 -0.1222
  222POPC   D2A 2971   0.621   2.880   5.202 -0.0665 -0.0692  0.1451
  222POPC   C3A 2972   0.234   2.807   5.397  0.2525  0.0576 -0.0261
  222POPC   C4A 2973  -0.105   2.678   5.521  0.1444  0.1056 -0.1700
  222POPC   C1B 2974   1.144   3.152   4.903  0.0698  0.0603  0.0914
  222POPC   C2B 2975   1.239   3.220   5.301  0.2337 -0.0325 -0.0182
  222POPC   C3B 2976   1.466   2.944   5.655  0.2553 -0.1939 -0.2641
  222POPC   C4B 2977   1.426   2.510   5.653  0.2829 -0.6111  0.0054
  223POPC   NC3 2978   9.029   8.383   4.165 -0.0130 -0.2449 -0.0335
  223POPC   PO4 2979   9.478   8.343   4.132 -0.0120  0.0886 -0.5954
  223POPC   GL1 2980   9.372   8.113   4.425 -0.2616  0.0159 -0.0728
  223POPC   GL2 2981   9.666   7.954   4.466  0.0349 -0.2788 -0.0857
  223POPC   C1A 2982   9.231   8.146   4.885  0.1212  0.0125 -0.3156
  223POPC   D2A 2983   9.108   8.481   5.142 -0.0486  0.0554  0.1186
  223POPC   C3A 2984   9.085   8.594   5.624 -0.1298 -0.0268 -0.2790
  223POPC   C4A 2985   9.372   8.792   5.938 -0.1250 -0.0711  0.2274
  223POPC   C1B 2986   9.790   8.026   4.863 -0.0024  0.0083  0.2702
  223POPC   C2B 2987   9.766   7.860   5.352  0.2634 -0.1299 -0.1001
  223POPC   C3B 2988   9.449   7.712   5.622  0.2854  0.2253 -0.1366
  223POPC   C4B 2989   9.133   7.630   5.934 -0.0839  0.1004  0.1974
  224POPC   NC3 2990   0.649   3.906   3.437 -0.0749  0.1144 -0.2409
  224POPC   PO4 2991   0.512   3.766   3.825 -0.0600 -0.1782  0.0799
  224POPC   GL1 2992   0.385   3.781   4.340  0.0918 -0.1807 -0.2289
  224POPC   GL2 2993   0.314   3.501   4.585 -0.1994  0.0968  0.1885
  224POPC   C1A 2994   0.038   3.937   4.735  0.0487 -0.0943  0.0327
  224POPC   D2A 2995  -0.017   4.148   5.104  0.0106  0.0172 -0.2015
  224POPC   C3A 2996   0.189   4.095   5.452  0.0998 -0.0677  0.4041
  224POPC   C4A 2997   0.349   4.464   5.859 -0.0033  0.0754  0.0950
  224POPC   C1B 2998   0.491   3.323   4.982 -0.1192  0.2986  0.0258
  224POPC   C2B 2999   0.736   3.272   5.439  0.3684 -0.2293  0.1545
  224POPC   C3B 3000   1.026   3.260   5.792  0.1007 -0.0058  0.1068
  224POPC   C4B 3001   1.216   3.330   6.164 -0.0180 -0.1762  0.0057
  225POPC   NC3 3002   8.147   4.184   3.155 -0.1459  0.0771 -0.2256
  225POPC   PO4 3003   8.025   3.909   3.479  0.3248  0.0113  0.3540
  225POPC   GL1 3004   7.966   4.034   3.917  0.2316  0.2142  0.2972
  225POPC   GL2 3005   8.283   3.898   4.091 -0.0643  0.0163  0.1371
  225POPC   C1A 3006   7.865   3.854   4.372 -0.1004 -0.1871 -0.0596
  225POPC   D2A 3007   7.828   3.611   4.790 -0.0174  0.0546  0.0698
  225POPC   C3A 3008   8.122   3.302   4.968  0.1424 -0.0025 -0.0190
  225POPC   C4A 3009   8.242   3.074   5.313 -0.0191  0.0046 -0.1606
  225POPC   C1B 3010   8.616   3.821   4.340 -0.0053 -0.1301  0.0674
  225POPC   C2B 3011   8.646   3.744   4.849  0.1625  0.1165  0.0459
  225POPC   C3B 3012   8.381   3.676   5.224  0.0723 -0.2165 -0.1276
  225POPC   C4B 3013   8.140   3.585   5.418 -0.1996 -0.1332 -0.4771
  226POPC   NC3 3014   8.814   0.248   3.792 -0.1430  0.0125 -0.0020
  226POPC   PO4 3015   8.836  -0.027   4.034 -0.3299  0.2150  0.1535
  226POPC   GL1 3016   8.868  -0.082   4.446 -0.1979  0.5377  0.1834
  226POPC   GL2 3017   8.902  -0.416   4.459 -0.0918 -0.2852 -0.2020
  226POPC   C1A 3018   8.965   0.078   4.677  0.1869  0.1422 -0.2308
  226POPC   D2A 3019   9.040   0.175   5.068 -0.5262 -0.0509 -0.0465
  226POPC   C3A 3020   8.775   0.235   5.396  0.0025 -0.2415 -0.2454
  226POPC   C4A 3021   8.590   0.510   5.689  0.0412  0.2160  0.0353
  226POPC   C1B 3022   8.611  -0.390   4.776 -0.0406  0.1360 -0.0816
  226POPC   C2B 3023   8.717  -0.302   5.146 -0.0746  0.1472 -0.5082
  226POPC   C3B 3024   8.566  -0.178   5.504 -0.2494  0.4025 -0.4059
  226POPC   C4B 3025   8.587   0.046   5.856 -0.3023 -0.2231  0.2659
  227POPC   NC3 3026   5.673   0.797   3.563 -0.0228  0.0503  0.0480
  227POPC   PO4 3027   5.323   0.749   3.760  0.0278  0.0257  0.0896
  227POPC   GL1 3028   5.270   0.788   4.158 -0.0502  0.0938 -0.3602
  227POPC   GL2 3029   5.502   0.546   4.236 -0.0081 -0.0191 -0.0076
  227POPC   C1A 3030   5.143   0.977   4.534  0.4828 -0.2636 -0.0315
  227POPC   D2A 3031   5.282   1.008   4.961  0.2262  0.0808 -0.0439
  227POPC   C3A 3032   5.456   0.815   5.328 -0.2200 -0.0024  0.1209
  227POPC   C4A 3033   5.510   0.770   5.830  0.0257  0.0457  0.0469
  227POPC   C1B 3034   5.560   0.755   4.639  0.3505 -0.3042 -0.0078
  227POPC   C2B 3035   5.595   0.444   4.987  0.2542 -0.1447 -0.5009
  227POPC   C3B 3036   5.852   0.067   5.055 -0.1102  0.0876  0.1439
  227POPC   C4B 3037   5.932  -0.392   4.939  0.1679  0.1915  0.0888
  228POPC   NC3 3038   0.042   0.206   3.381  0.0063  0.1825  0.0029
  228POPC   PO4 3039   0.449   0.032   3.680 -0.1298  0.0417 -0.0652
  228POPC   GL1 3040   0.581  -0.060   4.141  0.1053  0.0240  0.1076
  228POPC   GL2 3041   0.792   0.129   4.135  0.0840  0.2406  0.1797
  228POPC   C1A 3042   0.529   0.098   4.571 -0.0943 -0.0332  0.0327
  228POPC   D2A 3043   0.819   0.136   4.848 -0.0568  0.0289 -0.1259
  228POPC   C3A 3044   0.778   0.316   5.260 -0.0995 -0.1208 -0.1495
  228POPC   C4A 3045   0.550   0.202   5.633  0.0577  0.2378  0.0581
  228POPC   C1B 3046   1.031   0.326   4.450  0.0512 -0.2978 -0.0182
  228POPC   C2B 3047   1.153   0.537   4.776  0.0825 -0.0801  0.0504
  228POPC   C3B 3048   1.174   0.647   5.295  0.0900 -0.0169 -0.1117
  228POPC   C4B 3049   1.060   0.412   5.720 -0.0824  0.0917 -0.2446
  229POPC   NC3 3050   4.912   7.730   3.722 -0.1539  0.0980  0.2422
  229POPC   PO4 3051   5.307   7.851   3.755  0.1183 -0.2322  0.1135
  229POPC   GL1 3052   5.204   7.749   4.174 -0.1184  0.1249 -0.1236
  229POPC   GL2 3053   5.555   7.722   4.294  0.3269 -0.0603 -0.0076
  229POPC   C1A 3054   4.983   7.800   4.544 -0.0537 -0.1907  0.3586
  229POPC   D2A 3055   4.875   7.588   4.929  0.2738 -0.2478  0.2575
  229POPC   C3A 3056   4.921   7.825   5.358 -0.2363  0.1525  0.0705
  229POPC   C4A 3057   4.883   8.104   5.720  0.1022 -0.2454  0.0619
  229POPC   C1B 3058   5.519   8.081   4.530  0.0311  0.0884 -0.2733
  229POPC   C2B 3059   5.756   8.234   4.917 -0.1313  0.0851 -0.1128
  229POPC   C3B 3060   5.775   8.289   5.381 -0.2368 -0.3590  0.0408
  229POPC   C4B 3061   6.033   8.306   5.775 -0.0301  0.1613 -0.2171
  230POPC   NC3 3062   5.563   3.312   4.162 -0.2538  0.0436 -0.0610
  230POPC   PO4 3063   6.025   3.399   3.950 -0.0147  0.0467  0.1017
  230POPC   GL1 3064   6.108   3.323   4.428  0.1255 -0.0240 -0.0059
  230POPC   GL2 3065   6.497   3.328   4.586 -0.0134 -0.1831 -0.1992
  230POPC   C1A 3066   5.929   3.173   4.785 -0.1379  0.3061  0.2103
  230POPC   D2A 3067   6.289   3.205   5.058  0.0373 -0.3401  0.0867
  230POPC   C3A 3068   6.369   2.979   5.437 -0.0179 -0.0573  0.0747
  230POPC   C4A 3069   6.450   2.598   5.725  0.3174 -0.2658 -0.0946
  230POPC   C1B 3070   6.503   3.700   4.857 -0.0692 -0.0060  0.0996
  230POPC   C2B 3071   6.730   3.942   5.195 -0.1925  0.0378 -0.1499
  230POPC   C3B 3072   7.031   3.876   5.503 -0.0282  0.2073  0.0172
  230POPC   C4B 3073   7.220   3.610   5.583 -0.0077  0.3159 -0.0005
  231POPC   NC3 3074   6.511   6.163   3.096 -0.1987  0.0195  0.0930
  231POPC   PO4 3075   6.357   5.870   3.569  0.1713  0.0516  0.0328
  231POPC   GL1 3076   6.532   5.963   4.067 -0.2444 -0.1665  0.0285
  231POPC   GL2 3077   6.769   6.051   3.973 -0.2746  0.1636  0.1558
  231POPC   C1A 3078   6.322   6.144   4.436 -0.0898 -0.4172  0.0676
  231POPC   D2A 3079   6.072   6.003   4.807 -0.0588  0.0905 -0.0654
  231POPC   C3A 3080   6.186   6.002   5.243  0.1633 -0.2266 -0.0490
  231POPC   C4A 3081   5.843   5.961   5.616 -0.0189  0.0741 -0.2592
  231POPC   C1B 3082   6.869   5.832   4.353  0.1836 -0.0657  0.1739
  231POPC   C2B 3083   7.030   5.591   4.652 -0.0629  0.0017  0.2598
  231POPC   C3B 3084   7.471   5.556   4.856  0.5230 -0.0539  0.1084
  231POPC   C4B 3085   7.862   5.368   4.743 -0.2146 -0.0910 -0.1433
  232POPC   NC3 3086   2.721  10.530   3.909  0.2404 -0.0478  0.1230
  232POPC   PO4 3087   3.158  10.610   3.754  0.0613 -0.0879 -0.0718
  232POPC   GL1 3088   3.134  10.619   4.164  0.3594  0.1124 -0.2140
  232POPC   GL2 3089   3.433  10.314   4.232 -0.1338  0.0991  0.1284
  232POPC   C1A 3090   2.890  10.579   4.504 -0.1721 -0.2572 -0.3677
  232POPC   D2A 3091   2.815  10.406   4.868 -0.0138 -0.1855  0.0325
  232POPC   C3A 3092   2.949  10.636   5.198  0.0008 -0.2147  0.0365
  232POPC   C4A 3093   2.887  10.890   5.480 -0.1995  0.0217  0.2170
  232POPC   C1B 3094   3.347  10.312   4.538  0.3607  0.2969 -0.0575
  232POPC   C2B 3095   3.330  10.435   4.914  0.2444 -0.1157 -0.0678
  232POPC   C3B 3096   3.417  10.738   5.244 -0.0885 -0.1353 -0.1265
  232POPC   C4B 3097   3.525  10.862   5.730  0.2048  0.1154  0.0064
  233POPC   NC3 3098   9.006   7.435   3.153 -0.1367 -0.0208  0.2264
  233POPC   PO4 3099   8.943   7.217   3.513  0.1769  0.0521  0.0131
  233POPC   GL1 3100   8.833   6.945   3.791  0.0148  0.0237  0.1319
  233POPC   GL2 3101   8.601   7.062   4.024  0.0116  0.4182 -0.0299
  233POPC   C1A 3102   8.883   6.655   4.121 -0.1107  0.0470 -0.3109
  233POPC   D2A 3103   8.741   6.377   4.382  0.2155  0.0805 -0.1289
  233POPC   C3A 3104   9.047   6.026   4.553 -0.1865  0.1849 -0.1377
  233POPC   C4A 3105   9.343   6.035   4.852 -0.2997  0.0326  0.0345
  233POPC   C1B 3106   8.299   7.133   4.399 -0.5596  0.1273  0.0283
  233POPC   C2B 3107   7.961   7.302   4.610  0.0547  0.0947 -0.0005
  233POPC   C3B 3108   7.711   7.336   5.017 -0.2615 -0.0127 -0.1068
  233POPC   C4B 3109   7.455   7.233   5.343 -0.0662 -0.1575  0.0089
  234POPC   NC3 3110   3.126   8.805   3.345 -0.2852 -0.3262 -0.0764
  234POPC   PO4 3111   3.354   8.905   3.718  0.1057  0.3050 -0.1080
  234POPC   GL1 3112   3.546   8.990   4.159 -0.0640 -0.2408  0.1222
  234POPC   GL2 3113   3.525   8.592   4.209 -0.1169 -0.0273 -0.0474
  234POPC   C1A 3114   3.829   9.054   4.419 -0.0741  0.3095  0.1360
  234POPC   D2A 3115   4.000   9.061   4.830 -0.3567  0.3963  0.1846
  234POPC   C3A 3116   3.656   8.988   5.109  0.1713  0.1265 -0.0144
  234POPC   C4A 3117   3.313   8.910   5.341  0.0791  0.1647 -0.0080
  234POPC   C1B 3118   3.296   8.758   4.532  0.0401 -0.1553 -0.4003
  234POPC   C2B 3119   3.201   9.006   4.814 -0.1750  0.1916 -0.2444
  234POPC   C3B 3120   2.823   8.989   5.077  0.0866 -0.0347 -0.1075
  234POPC   C4B 3121   2.447   8.801   5.133  0.4723  0.2532  0.3781
  235POPC   NC3 3122   4.143   8.267   3.978  0.1322  0.1011  0.1161
  235POPC   PO4 3123   3.852   8.700   3.889 -0.0355  0.1718 -0.3886
  235POPC   GL1 3124   4.070   8.629   4.320 -0.2235 -0.2668  0.0766
  235POPC   GL2 3125   4.298   8.730   4.528 -0.1491 -0.0796  0.1418
  235POPC   C1A 3126   3.764   8.594   4.720 -0.3213 -0.1196 -0.0584
  235POPC   D2A 3127   3.395   8.524   4.974 -0.0925 -0.0566 -0.3035
  235POPC   C3A 3128   2.980   8.549   4.999  0.0955 -0.1517 -0.0523
  235POPC   C4A 3129   2.766   8.611   5.421  0.4894  0.0066  0.2189
  235POPC   C1B 3130   4.641   8.526   4.792 -0.0176 -0.2065  0.2058
  235POPC   C2B 3131   4.591   8.387   5.205 -0.0357  0.4332  0.0388
  235POPC   C3B 3132   4.474   8.471   5.584 -0.0290  0.2717 -0.1982
  235POPC   C4B 3133   4.426   8.494   5.952  0.1287 -0.0330 -0.1196
  236POPC   NC3 3134   8.705   9.326   4.179  0.0178 -0.1402 -0.0638
  236POPC   PO4 3135   8.900   9.722   4.326  0.0824 -0.0544  0.0244
  236POPC   GL1 3136   9.025   9.818   4.767 -0.0784 -0.1549 -0.0244
  236POPC   GL2 3137   9.328   9.800   4.944 -0.4122 -0.1802 -0.0024
  236POPC   C1A 3138   8.792   9.851   5.151 -0.1932  0.0643  0.1275
  236POPC   D2A 3139   8.867  10.061   5.584  0.1763 -0.2498 -0.0937
  236POPC   C3A 3140   8.787   9.852   5.993 -0.0420  0.3095  0.2653
  236POPC   C4A 3141   8.487   9.644   6.249 -0.0708  0.4554  0.0750
  236POPC   C1B 3142   9.259   9.508   5.248  0.0909  0.1297  0.0056
  236POPC   C2B 3143   8.886   9.528   5.572 -0.1456 -0.1182  0.2089
  236POPC   C3B 3144   8.839   9.365   6.013  0.0669 -0.6304  0.0205
  236POPC   C4B 3145   8.800   9.249   6.464 -0.3269  0.0706  0.0340
  237POPC   NC3 3146   3.862   3.400   3.448  0.0339  0.3796 -0.1442
  237POPC   PO4 3147   4.013   3.411   3.767 -0.0444  0.2938  0.1855
  237POPC   GL1 3148   4.173   3.320   4.204 -0.0054 -0.1297 -0.0247
  237POPC   GL2 3149   4.411   3.431   4.442 -0.2865  0.2808  0.3776
  237POPC   C1A 3150   3.978   3.366   4.643 -0.0891  0.4032 -0.0747
  237POPC   D2A 3151   3.967   3.169   5.031  0.0674  0.0404  0.1723
  237POPC   C3A 3152   4.226   2.950   5.253 -0.1496  0.0397  0.1483
  237POPC   C4A 3153   4.527   3.135   5.563  0.0070 -0.0058 -0.0727
  237POPC   C1B 3154   4.458   3.055   4.576  0.0161  0.1586 -0.1568
  237POPC   C2B 3155   4.911   2.756   4.578  0.0429 -0.0978 -0.5400
  237POPC   C3B 3156   5.105   2.595   4.938 -0.3143 -0.1681 -0.0642
  237POPC   C4B 3157   5.196   2.442   5.391 -0.1513  0.0389 -0.0435
  238POPC   NC3 3158  10.143   1.035   3.520 -0.0321 -0.0914 -0.2056
  238POPC   PO4 3159   9.939   1.058   3.849 -0.2513  0.1294  0.1388
  238POPC   GL1 3160   9.707   0.982   4.274 -0.3103  0.1521  0.2093
  238POPC   GL2 3161   9.506   1.258   4.450  0.0546  0.0921 -0.2137
  238POPC   C1A 3162   9.365   0.775   4.438 -0.0141 -0.0081  0.0157
  238POPC   D2A 3163   9.187   0.536   4.732 -0.1541  0.2046 -0.2131
  238POPC   C3A 3164   9.482   0.389   5.045  0.0456 -0.1142  0.2373
  238POPC   C4A 3165   9.918   0.442   5.348 -0.0763 -0.1041  0.0031
  238POPC   C1B 3166   9.476   1.686   4.605  0.0602 -0.1310  0.2728
  238POPC   C2B 3167   9.519   2.003   4.788 -0.0982 -0.2843  0.1324
  238POPC   C3B 3168   9.741   2.218   4.945  0.0435 -0.0405  0.1155
  238POPC   C4B 3169   9.978   2.492   5.085 -0.1153 -0.1755  0.1032
  239POPC   NC3 3170   2.865   9.689   3.910  0.2839  0.0536  0.0343
  239POPC   PO4 3171   2.540   9.360   3.813 -0.2999  0.0715 -0.2688
  239POPC   GL1 3172   2.670   9.449   4.301  0.1206  0.1099  0.0136
  239POPC   GL2 3173   2.406   9.532   4.545 -0.2635 -0.3134  0.0955
  239POPC   C1A 3174   2.905   9.504   4.761  0.1449  0.2157  0.1643
  239POPC   D2A 3175   3.026   9.384   5.221 -0.1923 -0.3968 -0.0701
  239POPC   C3A 3176   2.970   9.086   5.620 -0.1473  0.0799  0.1876
  239POPC   C4A 3177   3.038   8.694   5.843 -0.2075 -0.2200  0.0772
  239POPC   C1B 3178   2.230   9.225   4.751  0.1373 -0.0145 -0.1407
  239POPC   C2B 3179   1.983   8.867   4.971 -0.5305  0.1240  0.2488
  239POPC   C3B 3180   1.876   8.596   5.192 -0.1467 -0.0699 -0.2256
  239POPC   C4B 3181   1.769   8.424   5.574 -0.0924  0.0463  0.0929
  240POPC   NC3 3182   1.325   4.722   4.294 -0.4917  0.0031 -0.1878
  240POPC   PO4 3183   0.841   4.661   4.306 -0.2946 -0.1683 -0.3449
  240POPC   GL1 3184   0.949   4.856   4.653  0.0929  0.1023 -0.0602
  240POPC   GL2 3185   0.679   4.860   4.732  0.4348  0.0690  0.1151
  240POPC   C1A 3186   1.115   5.137   4.982  0.0299 -0.0142  0.2865
  240POPC   D2A 3187   1.527   5.385   4.865 -0.0869  0.0449 -0.1914
  240POPC   C3A 3188   1.737   5.675   5.296  0.0462 -0.3721 -0.1530
  240POPC   C4A 3189   1.574   6.075   5.362  0.1555  0.0685  0.0676
  240POPC   C1B 3190   0.587   5.067   5.114  0.0063 -0.2119 -0.0703
  240POPC   C2B 3191   0.508   5.157   5.626  0.3165  0.4017 -0.0660
  240POPC   C3B 3192   0.144   5.009   5.806  0.0310 -0.2189 -0.0133
  240POPC   C4B 3193  -0.273   4.808   5.769 -0.3165 -0.0049 -0.0929
  241POPC   NC3 3194   5.726   5.257   3.797  0.0833  0.1012 -0.0167
  241POPC   PO4 3195   5.394   5.558   3.823  0.3026  0.1188 -0.1490
  241POPC   GL1 3196   5.291   5.590   4.173 -0.0899  0.1191 -0.2661
  241POPC   GL2 3197   5.102   5.328   4.320  0.2127 -0.0594 -0.0558
  241POPC   C1A 3198   5.260   5.656   4.644 -0.2690  0.1451 -0.2906
  241POPC   D2A 3199   5.387   5.387   4.973 -0.1204 -0.3324  0.1135
  241POPC   C3A 3200   5.410   5.438   5.373 -0.2138  0.4131  0.1267
  241POPC   C4A 3201   5.505   5.291   5.726  0.0536 -0.1814  0.0857
  241POPC   C1B 3202   5.396   5.026   4.437 -0.1305  0.0600 -0.1453
  241POPC   C2B 3203   5.776   5.133   4.499  0.2530  0.1082 -0.1291
  241POPC   C3B 3204   5.867   5.535   4.662 -0.1222 -0.0698 -0.0599
  241POPC   C4B 3205   5.739   5.777   4.442  0.0929  0.0873  0.0741
  242POPC   NC3 3206   6.657   5.532   3.771  0.0987 -0.1382  0.0262
  242POPC   PO4 3207   6.489   5.054   3.901 -0.0725 -0.1925  0.0360
  242POPC   GL1 3208   6.535   5.339   4.223  0.2496  0.1813 -0.0546
  242POPC   GL2 3209   6.680   5.259   4.480  0.1250 -0.1591  0.1066
  242POPC   C1A 3210   6.365   5.680   4.562 -0.1202 -0.2249  0.1123
  242POPC   D2A 3211   6.590   5.575   4.954 -0.2352  0.0345  0.1145
  242POPC   C3A 3212   6.396   5.338   5.193  0.0804  0.0887 -0.1592
  242POPC   C4A 3213   6.173   5.123   5.623  0.2768  0.1474  0.1189
  242POPC   C1B 3214   6.272   5.260   4.727  0.3368  0.1995 -0.0066
  242POPC   C2B 3215   5.957   5.085   4.962 -0.0326 -0.0358  0.0890
  242POPC   C3B 3216   5.843   4.923   5.288 -0.1072  0.2500  0.0669
  242POPC   C4B 3217   6.044   4.635   5.554 -0.0974 -0.0484 -0.0246
  243POPC   NC3 3218   0.140   9.340   3.864  0.1113 -0.1028 -0.0411
  243POPC   PO4 3219   0.171   9.103   4.216 -0.2860 -0.1633  0.0675
  243POPC   GL1 3220   0.283   9.216   4.584 -0.1432 -0.1018  0.1305
  243POPC   GL2 3221   0.478   8.946   4.663  0.0413  0.5138 -0.0164
  243POPC   C1A 3222   0.295   9.490   4.948 -0.2581  0.0302  0.2457
  243POPC   D2A 3223   0.050   9.574   5.346 -0.3060 -0.0692 -0.0537
  243POPC   C3A 3224   0.102   9.353   5.778  0.0208 -0.0239  0.0423
  243POPC   C4A 3225   0.272   9.584   6.177  0.1476 -0.1106  0.2016
  243POPC   C1B 3226   0.609   8.938   5.067  0.1600 -0.2759 -0.0012
  243POPC   C2B 3227   0.828   8.777   5.426  0.0808  0.1871  0.1638
  243POPC   C3B 3228   0.839   8.683   5.915  0.2820  0.0615 -0.3201
  243POPC   C4B 3229   1.103   8.435   6.216  0.2743  0.4276 -0.0102
  244POPC   NC3 3230   1.524   2.980   3.999  0.1285 -0.0635 -0.5615
  244POPC   PO4 3231   1.605   2.619   4.103 -0.0922 -0.2249 -0.1878
  244POPC   GL1 3232   1.869   2.771   4.403  0.1467 -0.1740  0.2825
  244POPC   GL2 3233   2.064   2.529   4.233 -0.0472  0.3832  0.1057
  244POPC   C1A 3234   1.780   2.538   4.839 -0.0790 -0.2100 -0.2984
  244POPC   D2A 3235   1.610   2.200   5.136  0.3445  0.0723 -0.3179
  244POPC   C3A 3236   1.736   1.755   5.165  0.3701 -0.3023  0.5255
  244POPC   C4A 3237   1.628   1.429   5.458 -0.0827  0.0456 -0.1967
  244POPC   C1B 3238   2.247   2.496   4.651  0.1936 -0.0106 -0.2194
  244POPC   C2B 3239   2.203   2.603   5.059 -0.4015  0.2228  0.2800
  244POPC   C3B 3240   2.378   2.538   5.430  0.3357 -0.0392 -0.4202
  244POPC   C4B 3241   2.808   2.350   5.690 -0.0428 -0.2890  0.1701
  245POPC   NC3 3242   5.269  10.063   3.611  0.2244  0.0229  0.3741
  245POPC   PO4 3243   5.261  10.448   3.676  0.3148 -0.1605 -0.3804
  245POPC   GL1 3244   5.036  10.397   4.055 -0.1137 -0.3085  0.1745
  245POPC   GL2 3245   4.831  10.654   4.243  0.1568 -0.2074 -0.0741
  245POPC   C1A 3246   5.085  10.340   4.492 -0.2732  0.2234 -0.2133
  245POPC   D2A 3247   5.451  10.130   4.788  0.0677  0.3511  0.1512
  245POPC   C3A 3248   5.516  10.234   5.239  0.0064 -0.1338  0.1075
  245POPC   C4A 3249   5.868  10.404   5.501  0.0023 -0.2172  0.0487
  245POPC   C1B 3250   4.671  10.701   4.678 -0.2785 -0.1029  0.1210
  245POPC   C2B 3251   4.981  10.627   4.915 -0.2821  0.2481 -0.2057
  245POPC   C3B 3252   5.282  10.685   5.246 -0.1849 -0.0635  0.0389
  245POPC   C4B 3253   5.455  10.478   5.703  0.0674 -0.0563 -0.0245
  246POPC   NC3 3254   0.523   7.767   4.058 -0.2416 -0.1449  0.0750
  246POPC   PO4 3255   0.159   7.574   4.069  0.0039  0.0680  0.1022
  246POPC   GL1 3256  -0.036   7.594   4.532  0.1797  0.1924 -0.2290
  246POPC   GL2 3257  -0.287   7.884   4.587 -0.0672 -0.1104  0.0379
  246POPC   C1A 3258  -0.162   7.262   4.960  0.0678 -0.0814 -0.0238
  246POPC   D2A 3259  -0.036   7.195   5.376  0.1458  0.0325  0.2350
  246POPC   C3A 3260   0.013   7.464   5.750 -0.1749 -0.0018 -0.3238
  246POPC   C4A 3261  -0.375   7.457   5.976  0.0278  0.2348 -0.0980
  246POPC   C1B 3262  -0.390   7.827   5.042  0.2356  0.0914 -0.1280
  246POPC   C2B 3263  -0.497   7.473   5.338  0.1150 -0.0330  0.0247
  246POPC   C3B 3264  -0.542   7.029   5.482 -0.0544 -0.3863 -0.1539
  246POPC   C4B 3265  -0.727   6.698   5.587  0.0970 -0.1348  0.3366
  247POPC   NC3 3266   6.316   0.480   3.250 -0.2301  0.0009 -0.1903
  247POPC   PO4 3267   6.198   0.789   3.601 -0.6750 -0.0816 -0.0798
  247POPC   GL1 3268   6.341   0.755   4.108 -0.0555 -0.2327  0.1925
  247POPC   GL2 3269   6.123   0.533   4.321 -0.1159 -0.2117  0.1804
  247POPC   C1A 3270   6.410   0.912   4.580 -0.0683 -0.1090 -0.0356
  247POPC   D2A 3271   6.720   0.792   4.838  0.0469 -0.3433  0.0648
  247POPC   C3A 3272   6.805   1.060   5.153  0.1989 -0.3396 -0.1062
  247POPC   C4A 3273   6.442   1.095   5.431  0.1124  0.2335  0.1542
  247POPC   C1B 3274   5.996   0.526   4.708 -0.1401  0.1391 -0.3586
  247POPC   C2B 3275   6.009   0.578   5.327  0.2378  0.2634  0.2528
  247POPC   C3B 3276   6.330   0.578   5.598 -0.1635  0.2607 -0.1586
  247POPC   C4B 3277   6.800   0.534   5.795 -0.0569  0.2112  0.4454
  248POPC   NC3 3278   2.887   3.160   3.309 -0.1328 -0.0613 -0.1283
  248POPC   PO4 3279   3.255   3.024   3.505  0.0106 -0.1913  0.0836
  248POPC   GL1 3280   3.152   2.925   3.978  0.1954  0.2585 -0.3129
  248POPC   GL2 3281   2.988   3.021   4.109  0.0535  0.2791 -0.0294
  248POPC   C1A 3282   3.399   2.802   4.318  0.5237 -0.1800  0.0576
  248POPC   D2A 3283   3.695   2.886   4.597 -0.2089  0.4387  0.0210
  248POPC   C3A 3284   4.066   2.679   4.814 -0.1194  0.0826 -0.0952
  248POPC   C4A 3285   4.116   2.245   4.756  0.2558 -0.0907 -0.0648
  248POPC   C1B 3286   2.909   2.937   4.567 -0.0578 -0.0773 -0.3850
  248POPC   C2B 3287   2.708   2.951   4.896 -0.3083  0.1607  0.0058
  248POPC   C3B 3288   2.639   2.925   5.309 -0.1608 -0.2249 -0.1188
  248POPC   C4B 3289   2.666   2.845   5.768 -0.3492  0.0272 -0.1587
  249POPC   NC3 3290   6.995   8.056   3.378  0.0467  0.0064 -0.0551
  249POPC   PO4 3291   6.700   8.223   3.711 -0.1908 -0.1135 -0.3143
  249POPC   GL1 3292   6.521   7.898   3.983  0.0038 -0.1305 -0.0352
  249POPC   GL2 3293   6.492   8.041   4.214 -0.1341 -0.2669 -0.0955
  249POPC   C1A 3294   6.811   7.670   4.243 -0.0877  0.0455  0.2051
  249POPC   D2A 3295   7.018   7.581   4.601 -0.0786 -0.0508 -0.1959
  249POPC   C3A 3296   7.481   7.550   4.580  0.0212  0.4226 -0.2021
  249POPC   C4A 3297   7.629   7.288   4.308  0.1570 -0.1186  0.0732
  249POPC   C1B 3298   6.682   8.087   4.572  0.0316 -0.0454 -0.3010
  249POPC   C2B 3299   6.955   7.974   4.902  0.0481 -0.0653 -0.0633
  249POPC   C3B 3300   7.144   8.192   5.329 -0.3302 -0.2761 -0.0188
  249POPC   C4B 3301   7.315   8.039   5.778  0.0608  0.0826  0.2273
  250POPC   NC3 3302   3.123   6.422   3.849  0.0415  0.2225  0.2708
  250POPC   PO4 3303   2.671   6.310   4.010  0.1094 -0.4307  0.0340
  250POPC   GL1 3304   2.452   6.126   4.346  0.2824 -0.1699 -0.0308
  250POPC   GL2 3305   2.263   6.247   4.552  0.1590 -0.3476 -0.0065
  250POPC   C1A 3306   2.509   5.950   4.820  0.1181 -0.0326  0.0303
  250POPC   D2A 3307   2.389   5.671   5.178 -0.3030  0.1137 -0.2914
  250POPC   C3A 3308   2.154   5.786   5.533  0.2390  0.0631  0.3853
  250POPC   C4A 3309   2.215   5.878   5.957 -0.0630  0.0311  0.1286
  250POPC   C1B 3310   2.692   6.403   4.733  0.1672  0.1029 -0.0660
  250POPC   C2B 3311   2.864   6.703   5.056  0.2298  0.2106 -0.0234
  250POPC   C3B 3312   3.056   6.883   5.359 -0.2600 -0.0008 -0.0097
  250POPC   C4B 3313   3.382   7.089   5.567 -0.1682 -0.1865  0.0001
  251POPC   NC3 3314   9.545   3.606   4.067 -0.3723  0.2200  0.0300
  251POPC   PO4 3315  10.119   3.694   4.113 -0.0628 -0.0900  0.0252
  251POPC   GL1 3316  10.484   3.533   4.445  0.2088 -0.2158  0.0674
  251POPC   GL2 3317  10.572   3.236   4.309  0.3765 -0.0672 -0.3034
  251POPC   C1A 3318  10.352   3.310   4.780  0.2058  0.0846 -0.0587
  251POPC   D2A 3319  10.094   2.984   4.712  0.1144 -0.1020 -0.1273
  251POPC   C3A 3320   9.964   2.534   4.531  0.0927  0.0805 -0.2284
  251POPC   C4A 3321   9.857   2.077   4.375  0.2874 -0.2075 -0.1131
  251POPC   C1B 3322  10.806   3.060   4.709 -0.0188 -0.1560  0.0286
  251POPC   C2B 3323  10.988   2.709   4.863 -0.0233  0.2247 -0.0807
  251POPC   C3B 3324  10.684   2.399   5.134 -0.3304 -0.2430  0.0577
  251POPC   C4B 3325  10.327   2.261   5.275 -0.3421  0.0400 -0.2097
  252POPC   NC3 3326   5.064   6.059   3.897  0.0693 -0.0355  0.0856
  252POPC   PO4 3327   4.553   6.034   3.871  0.3411  0.2212 -0.0138
  252POPC   GL1 3328   4.733   5.833   4.293  0.1338  0.0651  0.2081
  252POPC   GL2 3329   5.104   6.128   4.386  0.4068  0.0561 -0.1078
  252POPC   C1A 3330   4.683   5.684   4.720 -0.0494 -0.0880  0.2304
  252POPC   D2A 3331   4.750   5.989   5.086  0.1109  0.1756  0.4211
  252POPC   C3A 3332   4.398   5.819   5.391 -0.2441  0.2565 -0.0426
  252POPC   C4A 3333   4.141   6.238   5.568 -0.1280 -0.2328 -0.3446
  252POPC   C1B 3334   5.135   6.234   4.798 -0.2987  0.0617 -0.0045
  252POPC   C2B 3335   5.454   6.430   4.970 -0.0672 -0.0472 -0.2255
  252POPC   C3B 3336   5.830   6.805   4.781  0.4382  0.0383 -0.1359
  252POPC   C4B 3337   6.093   7.054   4.462 -0.2133  0.3203  0.1291
  253POPC   NC3 3338   9.789  10.471   4.411 -0.1335 -0.1893 -0.0078
  253POPC   PO4 3339   9.725  10.032   4.326  0.1248 -0.0814 -0.0481
  253POPC   GL1 3340   9.791   9.993   4.753 -0.0668 -0.0892 -0.0249
  253POPC   GL2 3341   9.952  10.228   4.874  0.0386  0.0280  0.3178
  253POPC   C1A 3342   9.675   9.840   5.271  0.0414  0.2470 -0.0681
  253POPC   D2A 3343   9.291   9.975   5.415 -0.1284  0.2157 -0.1177
  253POPC   C3A 3344   9.285   9.861   5.805  0.1144  0.2830  0.2358
  253POPC   C4A 3345   9.244  10.039   6.246  0.0003  0.1002 -0.1872
  253POPC   C1B 3346  10.386  10.115   4.876  0.0449  0.1030 -0.1176
  253POPC   C2B 3347  10.183   9.764   5.172  0.2275  0.2428  0.1104
  253POPC   C3B 3348  10.141   9.724   5.571  0.2454  0.0505 -0.0744
  253POPC   C4B 3349  10.355   9.640   5.893 -0.1920  0.0562  0.0283
  254POPC   NC3 3350  10.481   5.494   3.465  0.0047  0.2616  0.3086
  254POPC   PO4 3351  10.365   5.506   3.847  0.2806  0.2661 -0.1210
  254POPC   GL1 3352   9.993   5.612   4.221 -0.0370  0.0825  0.2370
  254POPC   GL2 3353  10.201   5.841   4.416  0.3661 -0.0760  0.2421
  254POPC   C1A 3354   9.715   5.808   4.572 -0.2626  0.0401 -0.1157
  254POPC   D2A 3355   9.692   5.710   5.025 -0.1757  0.0673  0.1533
  254POPC   C3A 3356   9.986   5.575   5.425  0.0373  0.3270  0.1398
  254POPC   C4A 3357  10.010   5.205   5.841 -0.0302 -0.3829  0.2101
  254POPC   C1B 3358  10.107   5.963   4.868 -0.2611 -0.0717 -0.0580
  254POPC   C2B 3359  10.037   6.002   5.265  0.0710 -0.1308 -0.0248
  254POPC   C3B 3360   9.952   6.153   5.715  0.2095  0.2205  0.0586
  254POPC   C4B 3361   9.784   6.334   6.144 -0.4553 -0.1044  0.0994
  255POPC   NC3 3362   3.971   6.724   3.765  0.0419 -0.0343 -0.0878
  255POPC   PO4 3363   4.435   6.501   3.697 -0.3393  0.0758  0.3129
  255POPC   GL1 3364   4.413   6.660   4.033  0.3833  0.0867 -0.5380
  255POPC   GL2 3365   4.554   6.459   4.166  0.1829  0.0532 -0.2508
  255POPC   C1A 3366   4.215   6.637   4.500  0.0310  0.0864 -0.1892
  255POPC   D2A 3367   3.855   6.543   4.645 -0.2467 -0.0916  0.0399
  255POPC   C3A 3368   3.535   6.776   4.648  0.0621  0.1893 -0.0819
  255POPC   C4A 3369   2.992   6.888   4.554 -0.0378 -0.1760  0.4341
  255POPC   C1B 3370   4.594   6.230   4.595  0.0916  0.1962 -0.1863
  255POPC   C2B 3371   4.357   6.308   5.083  0.0432 -0.0471 -0.4060
  255POPC   C3B 3372   4.504   6.577   5.429  0.0567  0.1705 -0.2033
  255POPC   C4B 3373   4.733   6.860   5.923 -0.1426  0.2515 -0.0513
  256POPC   NC3 3374   5.935   4.087   3.446  0.0847 -0.1039  0.0119
  256POPC   PO4 3375   5.985   4.377   3.834  0.1698 -0.2627 -0.0444
  256POPC   GL1 3376   6.194   4.121   4.155  0.1371 -0.3157 -0.1208
  256POPC   GL2 3377   6.073   3.802   4.242  0.1544  0.1839  0.1981
  256POPC   C1A 3378   6.506   3.943   4.356 -0.4925  0.2316  0.1032
  256POPC   D2A 3379   6.894   3.788   4.468 -0.0866 -0.3195  0.3605
  256POPC   C3A 3380   7.057   3.707   4.931 -0.1766  0.0319 -0.3465
  256POPC   C4A 3381   7.538   3.717   5.151  0.2644  0.0823  0.1415
  256POPC   C1B 3382   6.136   3.990   4.636  0.2756  0.0313 -0.2120
  256POPC   C2B 3383   6.023   3.635   4.860 -0.3708  0.0104  0.2979
  256POPC   C3B 3384   5.747   3.448   5.151 -0.1329 -0.0780 -0.2769
  256POPC   C4B 3385   5.653   3.288   5.551  0.1608  0.0862  0.0104
  257POPC   NC3 3386   7.417   2.988   3.692  0.1490  0.2042 -0.0493
  257POPC   PO4 3387   7.017   2.563   3.496  0.0580 -0.0005  0.1153
  257POPC   GL1 3388   7.162   2.638   3.895 -0.4166  0.1334 -0.0965
  257POPC   GL2 3389   7.231   2.310   4.027  0.3629 -0.0472 -0.1189
  257POPC   C1A 3390   7.207   2.828   4.264  0.1386  0.0211 -0.0899
  257POPC   D2A 3391   7.561   3.032   4.557  0.1188 -0.0090  0.0813
  257POPC   C3A 3392   7.510   3.205   4.957  0.1837 -0.0608  0.5347
  257POPC   C4A 3393   7.740   3.291   5.291  0.1627  0.2349 -0.2402
  257POPC   C1B 3394   7.145   2.293   4.395 -0.0596 -0.0906 -0.1103
  257POPC   C2B 3395   6.890   2.346   4.820  0.2554 -0.0566  0.1300
  257POPC   C3B 3396   6.825   1.981   5.123  0.0748 -0.1313  0.0220
  257POPC   C4B 3397   6.636   1.896   5.620 -0.1407 -0.2973 -0.1867
  258POPC   NC3 3398   7.908   9.598   4.042 -0.0083  0.0324 -0.3436
  258POPC   PO4 3399   8.225   9.372   3.949  0.0106 -0.0873 -0.1574
  258POPC   GL1 3400   8.156   9.373   4.403  0.2700  0.1716 -0.1863
  258POPC   GL2 3401   8.336   9.551   4.551 -0.1630  0.1059  0.0735
  258POPC   C1A 3402   7.974   9.145   4.825 -0.0442 -0.1217 -0.2287
  258POPC   D2A 3403   7.816   8.907   5.133  0.0668  0.1995 -0.0268
  258POPC   C3A 3404   7.677   8.985   5.515 -0.0929 -0.2639  0.1398
  258POPC   C4A 3405   7.825   8.976   5.866 -0.2595 -0.1785 -0.0602
  258POPC   C1B 3406   8.463   9.532   4.942 -0.0568  0.0369  0.0634
  258POPC   C2B 3407   8.433   9.566   5.397 -0.4077 -0.0067  0.2884
  258POPC   C3B 3408   8.346   9.408   5.835 -0.0989 -0.1991 -0.2539
  258POPC   C4B 3409   8.422   9.065   6.123  0.0183 -0.0627 -0.1827
  259POPC   NC3 3410   3.953   1.294   3.817 -0.1537  0.3334  0.0243
  259POPC   PO4 3411   4.340   1.124   3.887  0.0648 -0.0065  0.0055
  259POPC   GL1 3412   4.306   0.824   4.338 -0.0434 -0.1030  0.0394
  259POPC   GL2 3413   4.138   0.885   4.656 -0.3135  0.0392 -0.0661
  259POPC   C1A 3414   4.734   0.720   4.519 -0.1860  0.1053 -0.0508
  259POPC   D2A 3415   4.827   0.635   4.908 -0.2331  0.0501  0.1123
  259POPC   C3A 3416   4.441   0.771   5.156 -0.2542 -0.1773 -0.2036
  259POPC   C4A 3417   4.041   0.903   5.222  0.3955 -0.2230  0.1279
  259POPC   C1B 3418   3.772   1.063   4.835 -0.0043 -0.0835 -0.4528
  259POPC   C2B 3419   3.576   1.407   5.150  0.0120 -0.0859  0.0304
  259POPC   C3B 3420   3.459   1.633   5.520 -0.0877 -0.0114 -0.0091
  259POPC   C4B 3421   3.280   1.672   5.965 -0.1914  0.2662  0.0073
  260POPC   NC3 3422   9.189   5.105   3.921  0.2578  0.1226  0.4479
  260POPC   PO4 3423   9.211   4.622   3.841  0.2766 -0.2576  0.2605
  260POPC   GL1 3424   9.283   4.684   4.313 -0.5260  0.1825 -0.2187
  260POPC   GL2 3425   9.628   4.619   4.465 -0.1735  0.1257 -0.1679
  260POPC   C1A 3426   9.131   4.578   4.728 -0.3234 -0.0286 -0.0136
  260POPC   D2A 3427   8.834   4.558   5.046 -0.1866  0.1571  0.2638
  260POPC   C3A 3428   9.016   4.238   5.293  0.0670 -0.3151  0.0299
  260POPC   C4A 3429   8.999   3.938   5.113  0.0010 -0.0997  0.1512
  260POPC   C1B 3430   9.756   4.749   4.862 -0.0819  0.0292 -0.0395
  260POPC   C2B 3431   9.901   4.564   5.283  0.1509  0.2212 -0.1320
  260POPC   C3B 3432   9.854   4.733   5.733 -0.0658  0.1873  0.2000
  260POPC   C4B 3433   9.594   4.835   6.098  0.2912 -0.0252  0.4209
  261POPC   NC3 3434   8.635  10.502   3.167  0.0014  0.2591 -0.0610
  261POPC   PO4 3435   8.462  10.712   3.479  0.2151 -0.0028 -0.2032
  261POPC   GL1 3436   8.365  10.802   3.968 -0.0720  0.2443  0.4237
  261POPC   GL2 3437   8.198  10.972   4.061  0.2628  0.1401 -0.2404
  261POPC   C1A 3438   8.458  10.777   4.515  0.0451 -0.1874  0.2470
  261POPC   D2A 3439   8.452  10.748   4.966  0.0567  0.0509 -0.0446
  261POPC   C3A 3440   8.239  10.437   5.165 -0.1248  0.1559 -0.2638
  261POPC   C4A 3441   7.917  10.408   5.369  0.0535  0.4562  0.0784
  261POPC   C1B 3442   7.935  10.865   4.445 -0.1471  0.1153 -0.0476
  261POPC   C2B 3443   8.014  10.529   4.773  0.1925  0.0270  0.2040
  261POPC   C3B 3444   7.776  10.120   4.973 -0.1827 -0.1066 -0.4688
  261POPC   C4B 3445   7.312   9.936   4.847  0.0312  0.2889  0.0639
  262POPC   NC3 3446   3.044   4.133   3.943  0.1850 -0.1127  0.1364
  262POPC   PO4 3447   3.417   4.288   3.859 -0.2312  0.0191 -0.3814
  262POPC   GL1 3448   3.334   4.098   4.314 -0.2158  0.0236  0.0966
  262POPC   GL2 3449   3.087   4.156   4.560 -0.1773 -0.1894  0.4542
  262POPC   C1A 3450   3.578   3.731   4.562 -0.0385  0.1197  0.2597
  262POPC   D2A 3451   3.831   3.669   5.034  0.0519  0.0736  0.3168
  262POPC   C3A 3452   3.764   3.629   5.406 -0.3420  0.1281 -0.2836
  262POPC   C4A 3453   3.936   3.840   5.706 -0.0347 -0.4337 -0.2966
  262POPC   C1B 3454   3.171   3.854   4.865 -0.2884 -0.1808  0.1510
  262POPC   C2B 3455   3.308   3.773   5.255 -0.0495 -0.1083 -0.0517
  262POPC   C3B 3456   3.397   3.553   5.706  0.0731  0.5197  0.0960
  262POPC   C4B 3457   3.145   3.220   5.801  0.0291  0.2258 -0.1726
  263POPC   NC3 3458   4.901   1.386   3.704 -0.0941 -0.4999  0.0748
  263POPC   PO4 3459   4.924   1.821   3.836  0.4728 -0.0339 -0.2100
  263POPC   GL1 3460   5.238   1.816   4.178 -0.1125 -0.0564 -0.3401
  263POPC   GL2 3461   5.439   1.723   4.015  0.0330  0.2550 -0.2450
  263POPC   C1A 3462   5.297   1.964   4.558  0.1550  0.2060 -0.2818
  263POPC   D2A 3463   5.331   2.149   5.003  0.2579  0.0391  0.0787
  263POPC   C3A 3464   5.128   1.916   5.254 -0.1822 -0.0007 -0.0187
  263POPC   C4A 3465   4.705   1.756   5.488  0.0099  0.0834 -0.2640
  263POPC   C1B 3466   5.585   1.352   4.266 -0.0832  0.0848 -0.1316
  263POPC   C2B 3467   5.555   1.413   4.709  0.3516 -0.2040  0.1879
  263POPC   C3B 3468   5.091   1.476   4.790 -0.3112  0.2594  0.1707
  263POPC   C4B 3469   4.617   1.566   4.876  0.0376  0.1516 -0.0300
  264POPC   NC3 3470   6.779   3.417   3.282 -0.2084 -0.2570 -0.1390
  264POPC   PO4 3471   7.263   3.454   3.512  0.2209  0.0390 -0.0198
  264POPC   GL1 3472   7.169   3.486   3.984  0.0011 -0.1554  0.1893
  264POPC   GL2 3473   7.394   3.288   4.163  0.3686 -0.1802  0.0258
  264POPC   C1A 3474   6.896   3.314   4.360 -0.0060  0.1084 -0.1356
  264POPC   D2A 3475   7.070   3.172   4.705 -0.0732  0.0072  0.1892
  264POPC   C3A 3476   6.839   3.148   5.084  0.1752 -0.4000  0.0710
  264POPC   C4A 3477   6.658   3.418   5.325 -0.2027 -0.0989 -0.0743
  264POPC   C1B 3478   7.388   3.591   4.528  0.1597 -0.3084 -0.0497
  264POPC   C2B 3479   7.459   4.032   4.766 -0.0158 -0.2374  0.3807
  264POPC   C3B 3480   7.227   4.210   5.086  0.0927  0.3044  0.1155
  264POPC   C4B 3481   7.327   4.385   5.468 -0.1803 -0.3091 -0.1226
  265POPC   NC3 3482   8.327   3.528   3.752 -0.0800  0.2585 -0.0839
  265POPC   PO4 3483   8.775   3.339   3.742 -0.0616  0.0854  0.2523
  265POPC   GL1 3484   8.619   3.341   4.104  0.0682 -0.3248 -0.2377
  265POPC   GL2 3485   8.610   3.082   4.111 -0.0272  0.4973 -0.1990
  265POPC   C1A 3486   8.771   3.375   4.525  0.1434 -0.1231 -0.0392
  265POPC   D2A 3487   8.582   3.187   4.917  0.1529  0.0152  0.1545
  265POPC   C3A 3488   8.387   2.800   4.927  0.3541  0.1611 -0.1112
  265POPC   C4A 3489   8.135   2.466   5.156 -0.0934 -0.1052  0.1913
  265POPC   C1B 3490   8.230   3.061   4.170 -0.1702  0.1106  0.1494
  265POPC   C2B 3491   8.078   2.997   4.560  0.1158  0.1215  0.0263
  265POPC   C3B 3492   7.882   2.855   4.960 -0.0988  0.1714 -0.1261
  265POPC   C4B 3493   7.702   2.737   5.415 -0.3427  0.3631  0.2063
  266POPC   NC3 3494   6.782   8.713   3.511  0.2126 -0.0136 -0.0840
  266POPC   PO4 3495   6.795   8.726   3.926 -0.2266  0.1129  0.5732
  266POPC   GL1 3496   6.666   8.787   4.278 -0.1538 -0.1966 -0.1417
  266POPC   GL2 3497   6.893   8.538   4.424 -0.1531 -0.3110  0.0825
  266POPC   C1A 3498   6.507   8.558   4.692  0.4745  0.0376 -0.3642
  266POPC   D2A 3499   6.525   8.219   5.046 -0.0023  0.1749  0.1350
  266POPC   C3A 3500   6.313   8.276   5.287 -0.0088  0.2614  0.1519
  266POPC   C4A 3501   6.287   8.628   5.418  0.2460 -0.0922 -0.1686
  266POPC   C1B 3502   6.973   8.458   4.879  0.0222  0.0890 -0.3254
  266POPC   C2B 3503   6.777   8.552   5.286  0.1860  0.3339 -0.1216
  266POPC   C3B 3504   6.628   8.439   5.777 -0.1176  0.0830 -0.1344
  266POPC   C4B 3505   6.300   8.276   6.173 -0.1367  0.2944 -0.3912
  267POPC   NC3 3506   1.013   2.966   4.067 -0.0423 -0.0033 -0.2658
  267POPC   PO4 3507   1.125   2.506   3.932  0.0865 -0.0334  0.2594
  267POPC   GL1 3508   1.117   2.472   4.376 -0.2667 -0.0891  0.1344
  267POPC   GL2 3509   1.167   2.744   4.495 -0.2112  0.1211  0.1408
  267POPC   C1A 3510   1.260   2.413   4.866 -0.1500  0.2650  0.2014
  267POPC   D2A 3511   1.265   2.669   5.212 -0.0892 -0.1874 -0.0643
  267POPC   C3A 3512   1.016   2.767   5.551  0.0032 -0.3098  0.0166
  267POPC   C4A 3513   0.657   2.863   5.767  0.3277 -0.2547 -0.0280
  267POPC   C1B 3514   1.498   2.955   4.690 -0.1398  0.2391 -0.0834
  267POPC   C2B 3515   1.668   2.994   5.083 -0.2888 -0.0127  0.0059
  267POPC   C3B 3516   1.767   2.683   5.338  0.2617 -0.1546 -0.0600
  267POPC   C4B 3517   1.926   2.307   5.489  0.0476 -0.0254 -0.1521
  268POPC   NC3 3518   9.968   8.988   4.196  0.1555 -0.3987  0.0699
  268POPC   PO4 3519   9.795   9.351   4.241  0.0552 -0.1701 -0.1032
  268POPC   GL1 3520   9.956   9.291   4.616 -0.1699  0.0892 -0.0902
  268POPC   GL2 3521   9.961   9.013   4.726  0.1724 -0.2268 -0.0329
  268POPC   C1A 3522   9.792   9.410   5.023 -0.0319 -0.1091  0.0731
  268POPC   D2A 3523   9.778   9.163   5.398  0.2272 -0.2997 -0.0451
  268POPC   C3A 3524   9.781   9.456   5.839  0.2313  0.1187  0.2061
  268POPC   C4A 3525   9.869   9.590   6.183  0.0087  0.1086  0.1023
  268POPC   C1B 3526  10.010   8.795   5.152 -0.0361  0.2830  0.1026
  268POPC   C2B 3527  10.261   8.679   5.410  0.2022 -0.0707 -0.0389
  268POPC   C3B 3528  10.581   8.767   5.683  0.1338 -0.0530  0.1934
  268POPC   C4B 3529  10.615   8.764   6.118 -0.1550  0.1898 -0.0520
  269POPC   NC3 3530   1.866  10.572   3.704 -0.2147 -0.1406  0.2046
  269POPC   PO4 3531   2.119  10.122   3.799  0.1951  0.0866  0.2306
  269POPC   GL1 3532   1.800  10.187   4.010 -0.1182  0.1318  0.0920
  269POPC   GL2 3533   1.871   9.858   4.184  0.0467 -0.2442  0.1361
  269POPC   C1A 3534   1.528  10.190   4.418  0.0688  0.1470 -0.0191
  269POPC   D2A 3535   1.553   9.995   4.850  0.0147 -0.1503  0.2136
  269POPC   C3A 3536   1.686  10.324   5.117 -0.3234 -0.2877 -0.3405
  269POPC   C4A 3537   1.881  10.573   5.334 -0.4577 -0.2308 -0.0079
  269POPC   C1B 3538   2.065  10.063   4.496  0.2796 -0.3584  0.2280
  269POPC   C2B 3539   2.074  10.009   4.918 -0.1806  0.4390 -0.2688
  269POPC   C3B 3540   2.249  10.187   5.225  0.1349  0.2935  0.0823
  269POPC   C4B 3541   2.732  10.257   5.399  0.0437  0.0274  0.2010
  270POPC   NC3 3542   0.030   8.063   3.935  0.2972 -0.2024 -0.1167
  270POPC   PO4 3543   0.141   7.996   4.353 -0.0657 -0.1272  0.3822
  270POPC   GL1 3544   0.158   8.149   4.679  0.1276  0.2311 -0.0656
  270POPC   GL2 3545   0.290   8.479   4.672 -0.1011  0.0864  0.1016
  270POPC   C1A 3546   0.027   8.153   5.031 -0.0550  0.0345 -0.2350
  270POPC   D2A 3547  -0.043   8.318   5.485  0.0014 -0.1078  0.2476
  270POPC   C3A 3548  -0.026   8.316   5.907 -0.2735 -0.1012 -0.0783
  270POPC   C4A 3549   0.120   8.254   6.347 -0.0810 -0.0406  0.1617
  270POPC   C1B 3550   0.008   8.685   4.966 -0.0624 -0.3178  0.0997
  270POPC   C2B 3551   0.108   9.039   5.244 -0.0592  0.4611 -0.0887
  270POPC   C3B 3552   0.467   9.066   5.552  0.0961 -0.2289 -0.0094
  270POPC   C4B 3553   0.474   9.025   6.047  0.0493 -0.0583 -0.0804
  271POPC   NC3 3554   8.119   8.888   3.850 -0.1785  0.1285  0.0965
  271POPC   PO4 3555   8.491   8.708   4.052  0.2799  0.1181 -0.3562
  271POPC   GL1 3556   8.564   8.425   4.445 -0.5597 -0.3553 -0.0351
  271POPC   GL2 3557   8.335   8.182   4.475 -0.1534  0.0679  0.2316
  271POPC   C1A 3558   8.714   8.230   4.818 -0.1012 -0.3627  0.1439
  271POPC   D2A 3559   8.814   7.995   5.187  0.0439  0.1710  0.2714
  271POPC   C3A 3560   9.165   8.094   5.422 -0.0248  0.2555  0.4519
  271POPC   C4A 3561   9.558   8.197   5.621 -0.1024  0.0859 -0.0675
  271POPC   C1B 3562   8.182   8.082   4.978  0.0334 -0.1917 -0.0783
  271POPC   C2B 3563   8.337   8.014   5.420 -0.0345  0.2938  0.0792
  271POPC   C3B 3564   8.673   7.887   5.761 -0.3204  0.0856 -0.1539
  271POPC   C4B 3565   8.806   7.954   6.248  0.0749 -0.2339  0.0923
  272POPC   NC3 3566  10.260  10.094   3.808 -0.3785  0.1733 -0.2370
  272POPC   PO4 3567  10.512   9.764   3.940 -0.0143 -0.0542 -0.2054
  272POPC   GL1 3568  10.623   9.875   4.398 -0.2746  0.1474  0.0090
  272POPC   GL2 3569  10.754   9.671   4.427  0.0561  0.1421  0.0287
  272POPC   C1A 3570  10.910   9.991   4.780  0.4012 -0.0163  0.1947
  272POPC   D2A 3571  10.941   9.979   5.164 -0.0080 -0.0225 -0.1102
  272POPC   C3A 3572  10.535  10.100   5.368 -0.3055  0.1349  0.2016
  272POPC   C4A 3573  10.377  10.211   5.761  0.0038 -0.6026  0.1766
  272POPC   C1B 3574  10.510   9.494   4.669  0.2726 -0.0431  0.3057
  272POPC   C2B 3575  10.307   9.219   5.001  0.2004  0.2932  0.1363
  272POPC   C3B 3576  10.264   9.272   5.442  0.0818  0.1266  0.1330
  272POPC   C4B 3577  10.226   9.160   5.904 -0.1840  0.1009  0.0930
  273POPC   NC3 3578   5.787   7.860   3.679  0.1299  0.0830 -0.2692
  273POPC   PO4 3579   6.141   7.617   3.641  0.2167  0.1087 -0.1666
  273POPC   GL1 3580   5.975   7.380   4.077  0.0261 -0.2137  0.3084
  273POPC   GL2 3581   6.049   7.729   4.201  0.0903  0.1535 -0.0172
  273POPC   C1A 3582   5.797   7.434   4.500 -0.1863 -0.0347 -0.0177
  273POPC   D2A 3583   5.800   7.288   5.003 -0.0617 -0.0736 -0.3453
  273POPC   C3A 3584   5.972   7.237   5.455 -0.0045 -0.0446 -0.0881
  273POPC   C4A 3585   6.210   7.338   5.761 -0.0998  0.0713  0.3114
  273POPC   C1B 3586   6.275   7.571   4.506 -0.2692 -0.0252  0.3291
  273POPC   C2B 3587   6.586   7.641   4.735  0.1243 -0.0115 -0.4408
  273POPC   C3B 3588   6.622   7.753   5.194  0.0652  0.0775 -0.1273
  273POPC   C4B 3589   6.730   8.037   5.545 -0.1986  0.2815  0.1834
  274POPC   NC3 3590   7.877   1.156   3.258  0.1108  0.1047  0.0828
  274POPC   PO4 3591   7.485   0.999   3.552  0.0668  0.0647  0.0693
  274POPC   GL1 3592   7.448   0.945   3.969  0.0009  0.3249 -0.0891
  274POPC   GL2 3593   7.581   0.631   4.032  0.1783 -0.3920  0.6333
  274POPC   C1A 3594   7.343   1.048   4.414 -0.1617 -0.0927 -0.0574
  274POPC   D2A 3595   7.227   1.048   4.860 -0.0060 -0.1105  0.0910
  274POPC   C3A 3596   7.426   0.845   5.208  0.0156  0.0722  0.0161
  274POPC   C4A 3597   7.533   1.010   5.595 -0.1825  0.0812 -0.0792
  274POPC   C1B 3598   7.752   0.673   4.398 -0.1051  0.0607 -0.2178
  274POPC   C2B 3599   7.747   0.834   4.747 -0.1995  0.0181  0.0585
  274POPC   C3B 3600   7.908   0.776   5.189  0.1287 -0.2836  0.0745
  274POPC   C4B 3601   7.930   0.531   5.548  0.0052 -0.2468  0.1083
  275POPC   NC3 3602   2.033   3.776   3.412 -0.0768  0.1061 -0.1114
  275POPC   PO4 3603   1.885   3.422   3.696  0.2092  0.0075  0.2680
  275POPC   GL1 3604   1.736   3.376   4.129 -0.3393  0.1573  0.0618
  275POPC   GL2 3605   1.452   3.443   4.360 -0.0175 -0.1688  0.0036
  275POPC   C1A 3606   1.925   3.286   4.513 -0.0987  0.0659 -0.0633
  275POPC   D2A 3607   2.122   2.972   4.767  0.1166 -0.0033 -0.0099
  275POPC   C3A 3608   2.130   3.054   5.245 -0.3740  0.1145  0.0382
  275POPC   C4A 3609   1.800   3.266   5.534  0.1882 -0.2808 -0.2855
  275POPC   C1B 3610   1.476   3.526   4.747 -0.0607 -0.2368 -0.2667
  275POPC   C2B 3611   1.905   3.418   5.005  0.0927  0.0550  0.0667
  275POPC   C3B 3612   2.333   3.489   5.205  0.0071 -0.0801  0.4110
  275POPC   C4B 3613   2.501   3.819   5.623  0.2389 -0.1245  0.0996
  276POPC   NC3 3614  10.441   6.503   3.715  0.1838  0.0496 -0.3060
  276POPC   PO4 3615  10.243   6.771   3.901  0.2960 -0.1522  0.2284
  276POPC   GL1 3616  10.299   6.833   4.284 -0.0330 -0.1069  0.2007
  276POPC   GL2 3617  10.689   6.661   4.324 -0.0771 -0.0655  0.1664
  276POPC   C1A 3618  10.163   7.005   4.690  0.0870  0.0150 -0.1735
  276POPC   D2A 3619   9.994   6.942   5.005  0.1247  0.2489 -0.3031
  276POPC   C3A 3620   9.553   6.953   4.940  0.2742  0.3738  0.0825
  276POPC   C4A 3621   9.238   7.262   5.009  0.0138 -0.1457 -0.3182
  276POPC   C1B 3622  10.692   6.700   4.783 -0.2222 -0.2481  0.1421
  276POPC   C2B 3623  10.493   6.730   5.190  0.0324 -0.0507  0.0413
  276POPC   C3B 3624  10.386   6.650   5.584  0.0003  0.0278 -0.0907
  276POPC   C4B 3625  10.312   6.456   5.885 -0.1407  0.2951 -0.2281
  277POPC   NC3 3626   9.711   6.861   3.581 -0.2525 -0.0519 -0.2485
  277POPC   PO4 3627   9.806   6.370   3.600 -0.2949  0.3043  0.3077
  277POPC   GL1 3628   9.456   6.446   3.855  0.0006 -0.0470  0.1641
  277POPC   GL2 3629   9.306   6.787   3.829  0.3175  0.1122  0.0742
  277POPC   C1A 3630   9.271   6.464   4.335 -0.3344  0.3225 -0.0485
  277POPC   D2A 3631   9.246   6.573   4.763  0.1165 -0.2912  0.0497
  277POPC   C3A 3632   8.931   6.320   4.942  0.0679 -0.2148  0.0296
  277POPC   C4A 3633   8.898   5.954   5.232 -0.0774 -0.4237 -0.0044
  277POPC   C1B 3634   9.323   6.920   4.184  0.3310 -0.1157 -0.2770
  277POPC   C2B 3635   9.233   7.284   4.424  0.0310 -0.0162 -0.0375
  277POPC   C3B 3636   9.344   7.620   4.634  0.2987  0.0988  0.0272
  277POPC   C4B 3637   9.377   7.739   5.136  0.0948 -0.0289  0.2975
  278POPC   NC3 3638   2.309  10.555   3.144 -0.0093  0.0901 -0.1021
  278POPC   PO4 3639   2.328  10.548   3.631 -0.0196  0.0504 -0.0173
  278POPC   GL1 3640   2.201  10.551   4.074 -0.0012  0.2667 -0.2522
  278POPC   GL2 3641   2.422  10.265   4.243 -0.0879  0.1114 -0.3407
  278POPC   C1A 3642   1.923  10.531   4.363  0.3447 -0.0787  0.0582
  278POPC   D2A 3643   1.820  10.622   4.709  0.2682 -0.1824  0.0327
  278POPC   C3A 3644   1.967  10.976   4.944  0.1604  0.1021 -0.2510
  278POPC   C4A 3645   1.964  11.056   5.331 -0.2849  0.2619 -0.3021
  278POPC   C1B 3646   2.295  10.465   4.623 -0.1318 -0.2169  0.2321
  278POPC   C2B 3647   2.356  10.597   4.980 -0.2026 -0.1336  0.2260
  278POPC   C3B 3648   2.428  10.710   5.394  0.0621  0.0888 -0.2377
  278POPC   C4B 3649   2.419  10.478   5.781 -0.2377 -0.2991  0.0250
  279POPC   NC3 3650   6.408   8.981   3.936  0.3864 -0.2371 -0.1292
  279POPC   PO4 3651   5.963   8.948   3.900  0.0184 -0.0637  0.1942
  279POPC   GL1 3652   6.050   9.096   4.327 -0.1335  0.1543  0.2068
  279POPC   GL2 3653   6.244   9.360   4.220 -0.2336 -0.0615 -0.0574
  279POPC   C1A 3654   6.242   9.058   4.783 -0.2367 -0.3063  0.1247
  279POPC   D2A 3655   6.509   9.099   5.022 -0.0327  0.0450 -0.1178
  279POPC   C3A 3656   6.798   8.919   4.870  0.1452  0.1664  0.2009
  279POPC   C4A 3657   7.125   8.967   4.570  0.2676 -0.0867 -0.0435
  279POPC   C1B 3658   6.030   9.516   4.669 -0.0138  0.2058 -0.4363
  279POPC   C2B 3659   5.853   9.755   4.949  0.4195  0.1638 -0.1009
  279POPC   C3B 3660   5.836   9.876   5.323  0.0227 -0.1380 -0.1369
  279POPC   C4B 3661   6.136   9.862   5.770  0.0623 -0.1281  0.1022
  280POPC   NC3 3662   8.992   4.213   3.612 -0.0303  0.1068 -0.1154
  280POPC   PO4 3663   9.321   3.852   3.670 -0.1915 -0.0215  0.2576
  280POPC   GL1 3664   9.345   4.075   4.080 -0.0470  0.1376 -0.0454
  280POPC   GL2 3665   8.984   4.285   4.177  0.0857 -0.1536 -0.2199
  280POPC   C1A 3666   9.361   4.164   4.513  0.0285 -0.1448  0.1067
  280POPC   D2A 3667   9.531   3.856   4.744  0.1516  0.4292 -0.3670
  280POPC   C3A 3668   9.777   3.897   5.176 -0.0235 -0.0225  0.1975
  280POPC   C4A 3669   9.921   3.709   5.586 -0.0192 -0.1384  0.2740
  280POPC   C1B 3670   8.885   4.138   4.687  0.1565  0.3402  0.2972
  280POPC   C2B 3671   8.506   4.175   4.969 -0.0787 -0.0660 -0.1437
  280POPC   C3B 3672   8.403   4.103   5.419  0.3498 -0.0944 -0.2377
  280POPC   C4B 3673   8.748   3.826   5.569  0.4319  0.1350  0.1309
  281POPC   NC3 3674   4.872   8.664   3.803  0.3225 -0.0166  0.0245
  281POPC   PO4 3675   4.756   8.222   3.764  0.0641  0.0261  0.0111
  281POPC   GL1 3676   5.021   8.189   4.079  0.1654 -0.1934 -0.0287
  281POPC   GL2 3677   5.383   8.253   4.045  0.0072  0.0542 -0.3970
  281POPC   C1A 3678   5.050   8.303   4.562  0.1199 -0.0921  0.1136
  281POPC   D2A 3679   4.912   8.117   4.946 -0.0974 -0.0132  0.0881
  281POPC   C3A 3680   5.323   7.928   5.015  0.2636 -0.0843 -0.1400
  281POPC   C4A 3681   5.699   7.773   5.293  0.0356  0.1149 -0.1760
  281POPC   C1B 3682   5.503   8.555   4.397 -0.0894  0.3083 -0.2484
  281POPC   C2B 3683   5.632   8.905   4.576  0.0001  0.1545  0.0714
  281POPC   C3B 3684   5.728   9.192   4.921 -0.0689  0.0887 -0.0111
  281POPC   C4B 3685   5.514   9.365   5.196  0.1790 -0.0110  0.2554
  282POPC   NC3 3686   6.573   9.454   3.816  0.0045  0.0094  0.0355
  282POPC   PO4 3687   6.784   9.183   3.657  0.0273  0.1131  0.0961
  282POPC   GL1 3688   6.885   9.222   4.134  0.2845 -0.1134 -0.0837
  282POPC   GL2 3689   7.053   9.476   4.141  0.2192  0.2136 -0.3210
  282POPC   C1A 3690   6.649   9.260   4.508  0.1917 -0.0905  0.0926
  282POPC   D2A 3691   6.485   9.594   4.805 -0.1400 -0.0264 -0.1631
  282POPC   C3A 3692   6.151   9.442   5.205  0.2904  0.0927 -0.1517
  282POPC   C4A 3693   6.071   9.064   5.366  0.2104  0.0823  0.0964
  282POPC   C1B 3694   7.104   9.547   4.540 -0.3325 -0.1652 -0.1835
  282POPC   C2B 3695   7.023   9.322   4.959  0.0419  0.1193 -0.1263
  282POPC   C3B 3696   7.141   8.965   5.265 -0.1102 -0.1458 -0.1690
  282POPC   C4B 3697   7.360   8.620   5.365  0.1506  0.0849  0.2339
  283POPC   NC3 3698   8.321   8.261   3.960 -0.0413  0.1180  0.0058
  283POPC   PO4 3699   8.675   8.103   3.739  0.2828  0.1131 -0.0579
  283POPC   GL1 3700   8.806   7.950   4.126  0.3049 -0.2380 -0.0621
  283POPC   GL2 3701   8.800   7.547   4.125 -0.0306 -0.0666 -0.2336
  283POPC   C1A 3702   8.846   7.834   4.585  0.2882 -0.3219  0.3761
  283POPC   D2A 3703   8.920   7.619   4.909  0.2133  0.1887  0.1377
  283POPC   C3A 3704   8.987   7.565   5.420 -0.0295  0.1463 -0.2215
  283POPC   C4A 3705   9.116   7.250   5.620 -0.0872  0.1672  0.0494
  283POPC   C1B 3706   8.731   7.372   4.512 -0.3179 -0.0477 -0.2381
  283POPC   C2B 3707   8.751   7.168   4.987 -0.0426 -0.0748  0.0206
  283POPC   C3B 3708   8.982   6.802   5.165  0.0257  0.2684 -0.0371
  283POPC   C4B 3709   9.428   6.820   5.419 -0.0131  0.1015 -0.0762
  284POPC   NC3 3710   2.260   2.200   3.763 -0.3323  0.1882  0.4064
  284POPC   PO4 3711   2.752   2.208   3.673 -0.0883  0.1625  0.0460
  284POPC   GL1 3712   2.610   2.060   4.116  0.2307  0.0450 -0.1057
  284POPC   GL2 3713   2.235   1.988   4.238 -0.1573  0.2229 -0.2467
  284POPC   C1A 3714   2.921   1.968   4.392 -0.0329 -0.1393  0.2019
  284POPC   D2A 3715   2.859   1.607   4.663 -0.3178 -0.2293  0.0629
  284POPC   C3A 3716   2.820   1.174   4.646 -0.1055 -0.0520  0.2124
  284POPC   C4A 3717   2.640   0.801   4.646 -0.0759  0.3691  0.0357
  284POPC   C1B 3718   2.526   2.007   4.688 -0.1364  0.2709 -0.0096
  284POPC   C2B 3719   2.708   2.365   5.008  0.1495  0.1743 -0.0232
  284POPC   C3B 3720   2.988   2.493   5.237  0.0399 -0.0134 -0.0153
  284POPC   C4B 3721   3.341   2.280   5.321  0.1076 -0.0414 -0.3930
  285POPC   NC3 3722   4.876   2.284   3.586  0.0042 -0.0646 -0.1629
  285POPC   PO4 3723   4.612   2.577   3.653 -0.0519  0.0001 -0.0712
  285POPC   GL1 3724   4.278   2.555   4.168  0.0364  0.1747  0.0769
  285POPC   GL2 3725   4.134   2.238   4.250  0.1005  0.3689 -0.0488
  285POPC   C1A 3726   4.465   2.549   4.525  0.0457 -0.0965  0.0787
  285POPC   D2A 3727   4.558   2.619   4.999  0.1268  0.1793  0.0964
  285POPC   C3A 3728   4.831   2.972   5.104 -0.1171  0.0390 -0.0211
  285POPC   C4A 3729   4.923   3.327   5.222 -0.2186  0.1149  0.3832
  285POPC   C1B 3730   4.352   1.895   4.561  0.0810 -0.1173 -0.0051
  285POPC   C2B 3731   4.292   1.871   5.129 -0.1908 -0.1201  0.3576
  285POPC   C3B 3732   4.200   1.828   5.434  0.0896 -0.0674 -0.0426
  285POPC   C4B 3733   4.203   1.652   5.910  0.1253 -0.2079  0.0622
  286POPC   NC3 3734   0.024   1.855   3.911 -0.2199  0.2738 -0.5163
  286POPC   PO4 3735  -0.204   1.830   4.329 -0.0039  0.1345  0.2755
  286POPC   GL1 3736  -0.112   1.465   4.617 -0.0143 -0.0862  0.0561
  286POPC   GL2 3737   0.004   1.119   4.620 -0.0647  0.0288  0.0771
  286POPC   C1A 3738   0.138   1.428   5.048  0.0843  0.3451  0.0716
  286POPC   D2A 3739   0.373   1.287   5.460 -0.0627 -0.0024  0.1579
  286POPC   C3A 3740   0.762   1.488   5.594  0.2452 -0.0739  0.2183
  286POPC   C4A 3741   1.214   1.665   5.640  0.2577  0.1527 -0.2801
  286POPC   C1B 3742  -0.085   0.994   5.013  0.1029  0.2088  0.3684
  286POPC   C2B 3743  -0.101   1.087   5.515  0.0473  0.0993 -0.1901
  286POPC   C3B 3744  -0.155   1.258   5.886 -0.0581  0.1183 -0.3984
  286POPC   C4B 3745  -0.030   1.593   6.038  0.0316 -0.0104  0.1452
  287POPC   NC3 3746   1.665   9.267   3.529  0.1432  0.2395  0.2626
  287POPC   PO4 3747   1.554   9.406   3.957  0.2621  0.1169  0.3808
  287POPC   GL1 3748   1.445   9.525   4.388 -0.1878  0.2142  0.0734
  287POPC   GL2 3749   1.123   9.584   4.389 -0.0825 -0.2425 -0.0107
  287POPC   C1A 3750   1.294   9.516   4.829 -0.1534 -0.1543  0.0608
  287POPC   D2A 3751   1.403   9.706   5.198 -0.0538  0.0044  0.0429
  287POPC   C3A 3752   1.235   9.631   5.682 -0.0369  0.3221 -0.0327
  287POPC   C4A 3753   1.517   9.295   5.841 -0.1134 -0.0617  0.2094
  287POPC   C1B 3754   1.105   9.919   4.621 -0.4038  0.0022  0.0205
  287POPC   C2B 3755   1.184  10.254   4.918 -0.0272  0.0447 -0.1291
  287POPC   C3B 3756   1.301  10.238   5.450 -0.1287  0.1524  0.3575
  287POPC   C4B 3757   1.304  10.042   5.927 -0.2208  0.1199 -0.3146
  288POPC   NC3 3758   8.978   6.008   3.472 -0.1584 -0.0276 -0.1106
  288POPC   PO4 3759   8.528   5.945   3.434 -0.1033 -0.1233 -0.2055
  288POPC   GL1 3760   8.179   5.929   3.718  0.1337 -0.0529  0.1940
  288POPC   GL2 3761   8.149   6.339   3.778 -0.0795 -0.2370  0.3358
  288POPC   C1A 3762   7.939   5.797   3.999 -0.0053  0.1069  0.0322
  288POPC   D2A 3763   7.675   5.739   4.394 -0.2909 -0.0794  0.1109
  288POPC   C3A 3764   7.605   6.062   4.669 -0.2492  0.1364 -0.1236
  288POPC   C4A 3765   7.488   6.506   4.552 -0.0545  0.2606  0.1525
  288POPC   C1B 3766   7.854   6.237   4.121 -0.0257 -0.1914  0.5057
  288POPC   C2B 3767   7.500   6.064   4.063 -0.0568 -0.2902 -0.0360
  288POPC   C3B 3768   7.101   6.334   4.221 -0.1014 -0.1037  0.0723
  288POPC   C4B 3769   7.122   6.836   4.394 -0.0887  0.0564  0.0400
  289POPC   NC3 3770   2.715   1.100   3.385 -0.2130  0.0412 -0.0613
  289POPC   PO4 3771   2.309   1.213   3.386  0.4325 -0.2487  0.0501
  289POPC   GL1 3772   2.394   1.220   3.897 -0.3075 -0.2436 -0.0285
  289POPC   GL2 3773   2.704   1.234   3.873 -0.2121  0.3379 -0.3310
  289POPC   C1A 3774   2.335   1.134   4.343  0.0550 -0.0334  0.0321
  289POPC   D2A 3775   2.319   1.149   4.754  0.0499  0.2646 -0.0727
  289POPC   C3A 3776   2.583   0.977   5.071  0.4273 -0.0450 -0.2338
  289POPC   C4A 3777   2.871   1.019   5.337  0.0990  0.1512  0.1417
  289POPC   C1B 3778   2.951   0.773   4.008  0.2490  0.0066  0.2738
  289POPC   C2B 3779   3.239   0.588   4.177  0.3088 -0.3069 -0.0938
  289POPC   C3B 3780   3.100   0.548   4.595 -0.0640  0.1008  0.1751
  289POPC   C4B 3781   2.982   0.507   5.021 -0.0943  0.2382  0.0999
  290POPC   NC3 3782   1.025   6.194   4.049  0.0534 -0.1568  0.1640
  290POPC   PO4 3783   1.269   6.579   3.969 -0.2183  0.2024 -0.3467
  290POPC   GL1 3784   1.271   6.533   4.380  0.0033 -0.0584  0.2310
  290POPC   GL2 3785   1.011   6.437   4.627 -0.1673 -0.0371 -0.2360
  290POPC   C1A 3786   1.333   6.875   4.673  0.0686 -0.1107 -0.0410
  290POPC   D2A 3787   1.617   7.246   5.077 -0.0871  0.2419 -0.1975
  290POPC   C3A 3788   1.719   7.500   5.452 -0.1814  0.1822 -0.0730
  290POPC   C4A 3789   1.535   7.823   5.689  0.0048  0.2572  0.0821
  290POPC   C1B 3790   1.044   6.079   4.971  0.2712  0.2177 -0.3634
  290POPC   C2B 3791   0.871   5.971   5.471 -0.0846  0.1034  0.2182
  290POPC   C3B 3792   0.815   5.581   5.784  0.1070 -0.3811  0.3591
  290POPC   C4B 3793   0.768   5.390   6.132 -0.3518 -0.0283 -0.3461
  291POPC   NC3 3794   7.697   9.035   3.624  0.0934 -0.0570  0.1589
  291POPC   PO4 3795   7.502   9.276   3.774 -0.0876 -0.0099  0.1166
  291POPC   GL1 3796   7.739   9.157   4.190  0.4158  0.2919 -0.1287
  291POPC   GL2 3797   7.603   9.267   4.331  0.3010  0.0909  0.2161
  291POPC   C1A 3798   7.597   8.849   4.543  0.1376  0.1052  0.0801
  291POPC   D2A 3799   7.392   8.762   4.922 -0.0140 -0.2258 -0.2114
  291POPC   C3A 3800   7.712   8.426   5.109  0.0409  0.1554 -0.3527
  291POPC   C4A 3801   7.836   8.099   5.285 -0.1112 -0.2196  0.0213
  291POPC   C1B 3802   7.482   9.334   4.739  0.1720 -0.0946  0.2460
  291POPC   C2B 3803   7.474   9.312   5.168  0.1367 -0.0526  0.0453
  291POPC   C3B 3804   7.257   9.415   5.513 -0.0958  0.2092  0.0677
  291POPC   C4B 3805   7.051   9.817   5.743 -0.1670 -0.0058  0.2146
  292POPC   NC3 3806   9.711   4.485   3.955  0.4319 -0.1335  0.3024
  292POPC   PO4 3807  10.106   4.665   3.903  0.0091  0.0867 -0.1555
  292POPC   GL1 3808  10.087   4.517   4.286 -0.1897  0.1955 -0.0593
  292POPC   GL2 3809  10.070   4.226   4.388  0.0511 -0.0503 -0.1490
  292POPC   C1A 3810  10.170   4.770   4.588 -0.0647  0.1053  0.1365
  292POPC   D2A 3811  10.243   5.004   4.948  0.1112 -0.0335 -0.1215
  292POPC   C3A 3812  10.425   4.616   5.274  0.2560  0.0731 -0.1846
  292POPC   C4A 3813  10.756   4.667   5.482 -0.3360  0.0313  0.1021
  292POPC   C1B 3814  10.158   3.903   4.721  0.0250  0.0089 -0.1035
  292POPC   C2B 3815  10.288   3.715   5.061 -0.1955  0.2478 -0.1321
  292POPC   C3B 3816  10.419   3.511   5.514  0.1530 -0.0528 -0.2228
  292POPC   C4B 3817  10.528   3.437   6.013  0.0993  0.1568  0.2042
  293POPC   NC3 3818   9.500   1.307   3.640  0.1526  0.0148 -0.3024
  293POPC   PO4 3819   9.414   1.729   3.693  0.0822 -0.3434  0.1214
  293POPC   GL1 3820   9.256   1.479   4.090  0.1942 -0.0618 -0.1993
  293POPC   GL2 3821   9.091   1.210   4.017  0.0222  0.1649 -0.0269
  293POPC   C1A 3822   9.042   1.550   4.386 -0.0760  0.0901 -0.3110
  293POPC   D2A 3823   8.589   1.792   4.261  0.4503  0.0123 -0.1068
  293POPC   C3A 3824   8.411   2.134   4.212 -0.1310 -0.2814 -0.3016
  293POPC   C4A 3825   8.011   2.114   4.287  0.1217  0.0649  0.0753
  293POPC   C1B 3826   8.999   1.043   4.302  0.1261 -0.1252 -0.1301
  293POPC   C2B 3827   8.940   1.070   4.676 -0.0318  0.1021  0.2748
  293POPC   C3B 3828   9.176   1.293   4.882  0.0072 -0.0896 -0.0545
  293POPC   C4B 3829   9.331   1.562   5.043 -0.2200  0.3229 -0.0758
  294POPC   NC3 3830   9.119   9.040   3.552  0.0935 -0.0255  0.2405
  294POPC   PO4 3831   8.947   8.951   4.023 -0.1465 -0.2759 -0.0461
  294POPC   GL1 3832   8.858   8.811   4.370  0.1785  0.0586  0.0932
  294POPC   GL2 3833   8.553   8.954   4.444  0.1273 -0.1618 -0.1975
  294POPC   C1A 3834   8.851   8.797   4.782 -0.2018 -0.0150 -0.2286
  294POPC   D2A 3835   8.655   8.650   5.210 -0.0955  0.0141  0.1263
  294POPC   C3A 3836   8.676   8.340   5.561 -0.1130 -0.1595 -0.3919
  294POPC   C4A 3837   8.886   8.379   6.017 -0.1062 -0.1620 -0.0985
  294POPC   C1B 3838   8.462   9.066   4.766  0.1550  0.1106 -0.0637
  294POPC   C2B 3839   8.289   9.076   5.247 -0.2278  0.1637 -0.2313
  294POPC   C3B 3840   8.259   8.883   5.667  0.1268  0.4693 -0.0502
  294POPC   C4B 3841   8.279   8.446   5.824 -0.4176 -0.2688  0.4874
  295POPC   NC3 3842   9.764   2.074   3.640 -0.0597  0.0783 -0.0377
  295POPC   PO4 3843   9.417   2.373   3.700 -0.3083 -0.2968 -0.1779
  295POPC   GL1 3844   9.208   2.341   4.071 -0.1953 -0.1956  0.1101
  295POPC   GL2 3845   9.399   2.103   4.141 -0.0734 -0.2865  0.2882
  295POPC   C1A 3846   9.047   2.039   4.512 -0.1134 -0.1100  0.1490
  295POPC   D2A 3847   8.901   1.851   4.931 -0.1260 -0.2179  0.0531
  295POPC   C3A 3848   9.160   2.029   5.188 -0.0616  0.1695  0.0721
  295POPC   C4A 3849   9.354   2.467   5.148  0.0786  0.1338  0.1896
  295POPC   C1B 3850   9.488   2.464   4.558  0.0764  0.1947  0.2048
  295POPC   C2B 3851   9.596   2.761   4.801  0.3785 -0.1824  0.0136
  295POPC   C3B 3852   9.651   2.882   5.170  0.0536  0.1371  0.0585
  295POPC   C4B 3853  10.023   2.938   5.372  0.1562 -0.1077  0.0981
  296POPC   NC3 3854   5.352   7.178   3.204 -0.0010 -0.0903  0.0500
  296POPC   PO4 3855   5.033   7.238   3.540 -0.0451 -0.3327 -0.0789
  296POPC   GL1 3856   5.029   7.293   4.016 -0.4412  0.1254 -0.0478
  296POPC   GL2 3857   4.756   7.450   4.156 -0.2449 -0.0305  0.0434
  296POPC   C1A 3858   5.218   7.316   4.364  0.0531 -0.0073  0.2647
  296POPC   D2A 3859   5.416   7.557   4.746  0.4419  0.1037 -0.2540
  296POPC   C3A 3860   5.256   7.471   5.164  0.0283  0.2705  0.2857
  296POPC   C4A 3861   5.505   7.363   5.469  0.1688 -0.0217 -0.0174
  296POPC   C1B 3862   4.528   7.563   4.479 -0.1539  0.0544  0.1761
  296POPC   C2B 3863   4.343   7.324   4.796 -0.1960 -0.0433  0.0665
  296POPC   C3B 3864   4.112   7.375   5.152 -0.0801 -0.2993  0.0780
  296POPC   C4B 3865   3.701   7.390   5.258  0.2329 -0.1043  0.1437
  297POPC   NC3 3866   3.645   8.223   3.875  0.2445  0.3185  0.1828
  297POPC   PO4 3867   3.966   7.837   3.828  0.1965 -0.0070  0.2142
  297POPC   GL1 3868   4.140   7.815   4.181 -0.2507 -0.0057  0.3118
  297POPC   GL2 3869   4.507   7.995   4.182  0.0604  0.4895 -0.1076
  297POPC   C1A 3870   4.045   7.742   4.651 -0.0523  0.0120  0.0794
  297POPC   D2A 3871   3.909   7.835   5.075 -0.4538  0.0938 -0.2567
  297POPC   C3A 3872   4.103   8.113   5.395  0.1289  0.1401  0.1082
  297POPC   C4A 3873   4.027   8.355   5.763  0.1857 -0.1690 -0.0913
  297POPC   C1B 3874   4.521   8.073   4.580  0.0288  0.2106  0.0330
  297POPC   C2B 3875   4.469   7.868   5.078 -0.1274  0.1429 -0.0625
  297POPC   C3B 3876   4.456   7.631   5.443 -0.3369  0.2025  0.0805
  297POPC   C4B 3877   4.434   7.311   5.842 -0.1066 -0.1122  0.2354
  298POPC   NC3 3878   4.177   7.313   3.236 -0.1422  0.1095 -0.0662
  298POPC   PO4 3879   4.109   7.208   3.676  0.2510 -0.1764  0.3396
  298POPC   GL1 3880   4.194   7.263   4.089  0.0715 -0.1200  0.0856
  298POPC   GL2 3881   4.479   7.076   4.346 -0.1111  0.0539  0.1521
  298POPC   C1A 3882   4.017   7.268   4.451 -0.1562  0.0787 -0.0997
  298POPC   D2A 3883   3.929   6.999   4.895 -0.3905  0.0852  0.1998
  298POPC   C3A 3884   4.016   6.848   5.356 -0.2592  0.0153 -0.0287
  298POPC   C4A 3885   3.709   6.663   5.608 -0.1088  0.0509  0.1234
  298POPC   C1B 3886   4.790   7.176   4.628 -0.1984 -0.0051 -0.1878
  298POPC   C2B 3887   4.951   7.010   5.055  0.1354  0.4992 -0.0333
  298POPC   C3B 3888   4.934   6.568   5.188  0.2437  0.0199 -0.1012
  298POPC   C4B 3889   5.256   6.247   5.408 -0.0122 -0.0363  0.1659
  299POPC   NC3 3890   5.754   8.395   3.154 -0.2471  0.0006 -0.4111
  299POPC   PO4 3891   5.751   8.351   3.555 -0.1124  0.1715 -0.1751
  299POPC   GL1 3892   5.846   8.384   3.996 -0.0437 -0.0545  0.1541
  299POPC   GL2 3893   5.906   8.156   4.190 -0.1337  0.0060 -0.1640
  299POPC   C1A 3894   6.056   8.598   4.453 -0.0615  0.1197  0.2588
  299POPC   D2A 3895   6.042   8.623   4.906  0.0051 -0.0715 -0.3081
  299POPC   C3A 3896   5.740   8.715   5.138  0.0608 -0.0311  0.1856
  299POPC   C4A 3897   5.457   8.729   5.406  0.1525  0.0893 -0.2147
  299POPC   C1B 3898   6.121   8.062   4.575  0.0123 -0.2757 -0.0834
  299POPC   C2B 3899   6.014   7.705   4.913 -0.2567  0.1533  0.1865
  299POPC   C3B 3900   6.200   7.702   5.414 -0.0412  0.0706  0.0893
  299POPC   C4B 3901   6.292   7.853   5.833 -0.1046 -0.2366 -0.0108
  300POPC   NC3 3902   9.242  10.041   4.124  0.0415  0.2570  0.2062
  300POPC   PO4 3903   9.330  10.508   4.187 -0.0356 -0.4389 -0.0512
  300POPC   GL1 3904   9.356  10.279   4.581 -0.0474  0.0355 -0.0083
  300POPC   GL2 3905   9.432  10.616   4.843 -0.3040  0.1042 -0.5145
  300POPC   C1A 3906   9.160  10.253   4.985 -0.1780 -0.3449  0.1072
  300POPC   D2A 3907   9.157  10.477   5.383  0.1277 -0.1809  0.0742
  300POPC   C3A 3908   9.418  10.406   5.796 -0.1898  0.0686  0.3267
  300POPC   C4A 3909   9.603  10.506   6.136 -0.1154 -0.5024  0.2151
  300POPC   C1B 3910   9.652  10.577   5.159  0.2258 -0.3622  0.3588
  300POPC   C2B 3911   9.860  10.332   5.323  0.0303 -0.1295  0.0646
  300POPC   C3B 3912   9.882  10.157   5.724 -0.2832 -0.4326  0.0558
  300POPC   C4B 3913   9.705  10.054   6.081 -0.1458  0.3133 -0.0459
  301POPC   NC3 3914  10.167   8.691   3.607  0.5129 -0.0180  0.0433
  301POPC   PO4 3915   9.886   8.582   3.944 -0.1681 -0.0709 -0.0928
  301POPC   GL1 3916   9.967   8.375   4.314 -0.1085 -0.1247  0.0090
  301POPC   GL2 3917  10.313   8.269   4.256 -0.1311  0.1135 -0.2288
  301POPC   C1A 3918   9.827   8.562   4.709  0.0924 -0.3884  0.0098
  301POPC   D2A 3919   9.589   8.520   5.036 -0.2431  0.2179 -0.0253
  301POPC   C3A 3920   9.533   8.676   5.402  0.3431 -0.2203 -0.0234
  301POPC   C4A 3921   9.809   8.819   5.767  0.1688 -0.1325 -0.1228
  301POPC   C1B 3922  10.400   8.484   4.612 -0.1428  0.4126  0.3168
  301POPC   C2B 3923  10.235   8.301   4.864  0.3282 -0.0087  0.0562
  301POPC   C3B 3924  10.056   8.291   5.303 -0.1770  0.3118  0.1493
  301POPC   C4B 3925  10.065   8.333   5.700 -0.3051 -0.1681 -0.1280
  302POPC   NC3 3926   7.672   4.256   3.473  0.0528 -0.2411 -0.0458
  302POPC   PO4 3927   7.461   4.629   3.367 -0.0400  0.0758  0.1531
  302POPC   GL1 3928   7.375   4.681   3.792 -0.1633 -0.2823  0.3364
  302POPC   GL2 3929   7.160   4.368   3.915 -0.0207 -0.0331  0.2364
  302POPC   C1A 3930   7.429   4.838   4.139  0.0085  0.2296  0.0444
  302POPC   D2A 3931   7.303   4.585   4.539  0.5600 -0.0979 -0.3055
  302POPC   C3A 3932   7.338   4.678   5.007  0.0649  0.1387 -0.1053
  302POPC   C4A 3933   7.071   4.894   5.376 -0.0213  0.3153  0.1744
  302POPC   C1B 3934   7.031   4.282   4.307 -0.1272  0.1707  0.1042
  302POPC   C2B 3935   6.876   4.203   4.739  0.0348 -0.0323 -0.3898
  302POPC   C3B 3936   6.855   4.478   5.177  0.1075 -0.0375 -0.0309
  302POPC   C4B 3937   6.839   4.305   5.586  0.1085  0.1962  0.2265
  303POPC   NC3 3938   1.547   8.573   4.103 -0.1204  0.4074 -0.1382
  303POPC   PO4 3939   1.333   8.180   4.027  0.0222  0.1038  0.0887
  303POPC   GL1 3940   1.318   8.292   4.475  0.4698  0.0008 -0.0958
  303POPC   GL2 3941   1.073   8.499   4.492  0.0658 -0.0282 -0.2677
  303POPC   C1A 3942   1.136   8.157   4.928 -0.0922  0.2652  0.1575
  303POPC   D2A 3943   0.906   8.314   5.283 -0.2519  0.0155  0.4719
  303POPC   C3A 3944   0.782   8.183   5.728  0.2771  0.1767  0.0258
  303POPC   C4A 3945   0.649   7.948   6.036  0.2087 -0.3546  0.1318
  303POPC   C1B 3946   0.741   8.494   4.833  0.2583  0.2369 -0.2694
  303POPC   C2B 3947   0.452   8.455   5.165 -0.0600  0.1421 -0.1137
  303POPC   C3B 3948   0.383   8.466   5.601 -0.1178  0.4433  0.4029
  303POPC   C4B 3949   0.430   8.392   6.001  0.0357 -0.3650 -0.1619
  304POPC   NC3 3950   8.351  10.247   3.693 -0.1436 -0.1504 -0.3242
  304POPC   PO4 3951   7.881  10.105   3.706  0.1462  0.4205  0.0026
  304POPC   GL1 3952   7.942  10.135   4.114  0.0398  0.0231 -0.0869
  304POPC   GL2 3953   7.922  10.384   4.222 -0.2570 -0.0112 -0.1775
  304POPC   C1A 3954   8.134  10.026   4.613  0.0465  0.1513 -0.1361
  304POPC   D2A 3955   8.293   9.975   5.091  0.2466  0.2006 -0.0025
  304POPC   C3A 3956   8.174   9.991   5.519  0.1016  0.0863  0.1448
  304POPC   C4A 3957   7.850  10.052   5.682 -0.0739  0.1490 -0.2866
  304POPC   C1B 3958   7.541  10.273   4.549 -0.0609  0.2768  0.1274
  304POPC   C2B 3959   7.509  10.513   5.008 -0.0015 -0.0910  0.1789
  304POPC   C3B 3960   7.331  10.684   5.275 -0.2028 -0.1628 -0.2725
  304POPC   C4B 3961   7.484  11.041   5.443  0.0006  0.2063  0.0587
  305POPC   NC3 3962   1.983   0.802   3.293  0.0807 -0.0390 -0.2909
  305POPC   PO4 3963   2.393   0.786   3.581 -0.2923 -0.0993 -0.0946
  305POPC   GL1 3964   2.438   0.646   4.025 -0.0184  0.0113  0.1054
  305POPC   GL2 3965   2.495   0.336   3.911  0.0906  0.0718 -0.0677
  305POPC   C1A 3966   2.145   0.328   4.353 -0.2399  0.0914  0.3494
  305POPC   D2A 3967   1.691   0.428   4.527  0.0370 -0.1970 -0.1066
  305POPC   C3A 3968   1.611   0.674   4.949 -0.2651 -0.0061  0.1346
  305POPC   C4A 3969   1.651   0.820   5.356 -0.0098 -0.0656  0.1215
  305POPC   C1B 3970   2.694   0.338   4.308  0.1421  0.2490 -0.0858
  305POPC   C2B 3971   2.528   0.273   4.670  0.1208 -0.0610  0.2096
  305POPC   C3B 3972   2.503   0.446   4.988  0.2264  0.0069  0.0976
  305POPC   C4B 3973   2.456   0.551   5.515  0.1854 -0.0705  0.2741
  306POPC   NC3 3974   1.555   6.953   3.828 -0.2945  0.2243  0.1698
  306POPC   PO4 3975   1.748   7.329   3.935  0.1114 -0.0977  0.0610
  306POPC   GL1 3976   1.668   7.579   4.360 -0.2419  0.1187 -0.1659
  306POPC   GL2 3977   1.665   7.922   4.313 -0.1250 -0.2680 -0.3468
  306POPC   C1A 3978   1.489   7.412   4.619  0.0507  0.2112 -0.1793
  306POPC   D2A 3979   1.436   7.743   5.042  0.2423 -0.0320 -0.0334
  306POPC   C3A 3980   1.058   7.874   5.403 -0.1023  0.1216  0.0279
  306POPC   C4A 3981   0.842   7.648   5.675  0.2214  0.1312  0.2686
  306POPC   C1B 3982   1.680   7.991   4.717 -0.3154 -0.2033  0.1479
  306POPC   C2B 3983   1.636   8.211   5.035  0.1194 -0.0008 -0.2428
  306POPC   C3B 3984   1.385   8.223   5.374 -0.2472  0.1390 -0.0688
  306POPC   C4B 3985   1.227   8.220   5.788  0.1277 -0.2082  0.1631
  307POPC   NC3 3986   0.795   4.104   4.251  0.1994  0.0685  0.0748
  307POPC   PO4 3987   1.131   4.270   4.185 -0.1650 -0.1871  0.3383
  307POPC   GL1 3988   1.141   4.420   4.647  0.0977 -0.1381  0.0775
  307POPC   GL2 3989   1.411   4.353   4.679 -0.0821  0.0932 -0.0640
  307POPC   C1A 3990   0.974   4.368   5.039  0.2780 -0.0277 -0.0478
  307POPC   D2A 3991   0.948   4.229   5.423  0.0006  0.0047  0.3061
  307POPC   C3A 3992   1.090   3.763   5.554  0.0294 -0.3265  0.0887
  307POPC   C4A 3993   1.457   3.547   5.794  0.3301  0.2750  0.1234
  307POPC   C1B 3994   1.390   4.678   5.080 -0.1725  0.0289 -0.2447
  307POPC   C2B 3995   1.376   4.540   5.448  0.2251 -0.1792 -0.1052
  307POPC   C3B 3996   1.468   4.255   5.742  0.1381 -0.0095 -0.0255
  307POPC   C4B 3997   1.602   3.980   6.057 -0.0708  0.2171 -0.0906
  308POPC   NC3 3998   0.342   8.798   3.789  0.1080 -0.0337 -0.2455
  308POPC   PO4 3999   0.631   9.091   3.961  0.0032  0.0215  0.1085
  308POPC   GL1 4000   0.835   9.104   4.400 -0.1247 -0.1517 -0.1043
  308POPC   GL2 4001   1.138   9.043   4.418  0.0282 -0.1535 -0.3416
  308POPC   C1A 4002   0.786   9.302   4.737  0.1992 -0.1107 -0.0381
  308POPC   D2A 4003   0.801   9.401   5.206  0.1400 -0.1018 -0.1868
  308POPC   C3A 4004   0.567   9.578   5.438 -0.1427 -0.1588  0.0436
  308POPC   C4A 4005   0.614   9.473   5.817  0.1059  0.1748 -0.0719
  308POPC   C1B 4006   1.099   8.977   4.840 -0.1259 -0.1533  0.1122
  308POPC   C2B 4007   1.202   8.662   5.136  0.2255  0.0790 -0.0664
  308POPC   C3B 4008   1.301   8.689   5.527  0.0312  0.0658  0.1467
  308POPC   C4B 4009   1.476   8.776   5.918 -0.2835 -0.0926 -0.2763
  309POPC   NC3 4010   9.657   0.254   3.983 -0.1858 -0.2328  0.0888
  309POPC   PO4 4011   9.967   0.410   3.919  0.2614 -0.0301 -0.4014
  309POPC   GL1 4012  10.100   0.467   4.357  0.0038 -0.1723  0.0627
  309POPC   GL2 4013  10.103   0.773   4.367  0.1596  0.2487  0.2454
  309POPC   C1A 4014  10.363   0.595   4.706 -0.2170 -0.1546 -0.1721
  309POPC   D2A 4015  10.351   0.411   5.121  0.0876  0.3162  0.3403
  309POPC   C3A 4016  10.644   0.500   5.398  0.1483 -0.1503  0.1029
  309POPC   C4A 4017  10.693   0.516   5.883 -0.1176 -0.1465 -0.3364
  309POPC   C1B 4018   9.804   0.764   4.753  0.0310 -0.2568  0.1537
  309POPC   C2B 4019   9.714   1.174   5.041  0.1898  0.1317 -0.0386
  309POPC   C3B 4020   9.819   1.378   5.394 -0.2374 -0.0021 -0.1346
  309POPC   C4B 4021  10.080   1.383   5.675 -0.1790 -0.1341  0.0800
  310POPC   NC3 4022   0.386  10.058   3.992  0.1653 -0.1190 -0.0031
  310POPC   PO4 4023   0.035  10.326   4.040  0.1175 -0.1076 -0.0795
  310POPC   GL1 4024   0.081  10.403   4.453  0.1743 -0.0411  0.1777
  310POPC   GL2 4025   0.081  10.776   4.434  0.3950  0.0216 -0.0497
  310POPC   C1A 4026   0.138  10.454   4.906  0.2331 -0.0780 -0.0847
  310POPC   D2A 4027   0.196  10.602   5.259 -0.0275  0.0955 -0.0409
  310POPC   C3A 4028   0.381  10.314   5.623  0.0405 -0.1276 -0.0766
  310POPC   C4A 4029   0.441  10.337   6.115 -0.2234  0.0362 -0.0662
  310POPC   C1B 4030  -0.243  10.704   4.728  0.1150 -0.2255 -0.3013
  310POPC   C2B 4031  -0.338  10.527   5.112 -0.0463  0.2008  0.0398
  310POPC   C3B 4032  -0.375  10.608   5.504  0.2607  0.0805  0.0300
  310POPC   C4B 4033  -0.379  11.059   5.725 -0.1841  0.1062  0.0476
  311POPC   NC3 4034   4.856   6.681   3.793 -0.4846  0.3383 -0.0910
  311POPC   PO4 4035   5.340   6.429   3.658  0.2365  0.1860  0.1108
  311POPC   GL1 4036   5.307   6.540   4.108  0.0495  0.1372 -0.1802
  311POPC   GL2 4037   4.920   6.762   4.245  0.0447  0.0233  0.1840
  311POPC   C1A 4038   5.295   6.573   4.504 -0.0328 -0.1669 -0.1628
  311POPC   D2A 4039   5.364   6.989   4.761 -0.0671  0.1760  0.0927
  311POPC   C3A 4040   5.446   6.966   5.234  0.0682  0.1397 -0.0304
  311POPC   C4A 4041   5.139   6.774   5.623  0.0662  0.0325  0.0854
  311POPC   C1B 4042   4.802   6.653   4.716  0.0535  0.5634  0.2147
  311POPC   C2B 4043   4.494   6.870   5.018  0.0286 -0.2403 -0.3012
  311POPC   C3B 4044   4.541   7.098   5.314  0.2672  0.2555 -0.1199
  311POPC   C4B 4045   4.856   7.307   5.443  0.0763  0.1721 -0.0307
  312POPC   NC3 4046   2.140   7.618   4.056  0.0721  0.2054 -0.1332
  312POPC   PO4 4047   2.186   8.046   3.981 -0.3486 -0.2914 -0.0219
  312POPC   GL1 4048   2.210   8.116   4.417 -0.0526 -0.0877 -0.4578
  312POPC   GL2 4049   2.151   7.827   4.499  0.1350  0.2307  0.1562
  312POPC   C1A 4050   2.562   8.247   4.687 -0.1659 -0.2814  0.1038
  312POPC   D2A 4051   2.565   8.326   5.086  0.0940 -0.0651  0.0221
  312POPC   C3A 4052   2.472   8.086   5.472  0.1243 -0.0320 -0.2438
  312POPC   C4A 4053   2.019   7.976   5.522 -0.0798  0.1932 -0.2612
  312POPC   C1B 4054   2.455   7.825   4.825  0.1953  0.1957  0.0713
  312POPC   C2B 4055   2.411   7.642   5.230 -0.1900  0.1799 -0.0842
  312POPC   C3B 4056   2.230   7.350   5.479 -0.2615  0.0916 -0.0451
  312POPC   C4B 4057   2.138   7.521   5.908  0.1767 -0.0938 -0.5028
  313POPC   NC3 4058   3.525   3.315   3.848 -0.0778 -0.0923  0.0027
  313POPC   PO4 4059   3.267   3.716   3.905 -0.0635  0.1137  0.0272
  313POPC   GL1 4060   3.235   3.539   4.351 -0.2345  0.0114 -0.2899
  313POPC   GL2 4061   3.538   3.255   4.353  0.0604 -0.1610 -0.1442
  313POPC   C1A 4062   3.016   3.407   4.692 -0.0471  0.1563 -0.2344
  313POPC   D2A 4063   2.969   3.277   5.112  0.0046  0.1314  0.0658
  313POPC   C3A 4064   2.731   3.384   5.484  0.0673  0.2281  0.0858
  313POPC   C4A 4065   2.362   3.337   5.700 -0.0609 -0.1697 -0.2372
  313POPC   C1B 4066   3.494   3.244   4.815  0.2558 -0.0868 -0.1618
  313POPC   C2B 4067   3.484   3.299   5.229  0.0548  0.1022  0.1539
  313POPC   C3B 4068   3.797   3.170   5.625  0.1821 -0.0228 -0.3351
  313POPC   C4B 4069   4.095   2.919   5.706 -0.0012  0.1037 -0.0082
  314POPC   NC3 4070   7.998   7.587   3.552 -0.3803 -0.1405 -0.0419
  314POPC   PO4 4071   7.593   7.480   3.445  0.1033  0.1305 -0.1270
  314POPC   GL1 4072   7.503   7.408   3.825 -0.1373  0.1344 -0.1561
  314POPC   GL2 4073   7.535   7.044   3.905 -0.0054  0.1318  0.0742
  314POPC   C1A 4074   7.136   7.292   4.030 -0.0066 -0.2189  0.2942
  314POPC   D2A 4075   6.671   7.163   4.311 -0.1716 -0.0269  0.0922
  314POPC   C3A 4076   6.730   7.135   4.762  0.0603 -0.0060  0.1220
  314POPC   C4A 4077   6.951   7.285   5.099 -0.0284  0.0890  0.2232
  314POPC   C1B 4078   7.786   6.799   4.260 -0.1659  0.0229  0.1513
  314POPC   C2B 4079   7.953   6.734   4.633 -0.1583 -0.0562  0.4099
  314POPC   C3B 4080   8.393   6.694   4.905 -0.1475  0.2979  0.1101
  314POPC   C4B 4081   8.759   6.759   4.716  0.2168 -0.0539  0.2484
  315POPC   NC3 4082   2.025   6.832   3.721 -0.0662 -0.0909 -0.2749
  315POPC   PO4 4083   1.730   6.475   3.906  0.1187  0.0435 -0.1265
  315POPC   GL1 4084   1.664   6.766   4.269  0.1032 -0.2493  0.1692
  315POPC   GL2 4085   1.938   6.617   4.453  0.0748 -0.1589 -0.2933
  315POPC   C1A 4086   1.797   7.036   4.671 -0.1567 -0.1042 -0.1170
  315POPC   D2A 4087   1.984   7.406   4.870 -0.0807 -0.0827 -0.1299
  315POPC   C3A 4088   1.929   7.774   5.044 -0.2884  0.1947 -0.1307
  315POPC   C4A 4089   2.108   8.080   5.053  0.1549 -0.0102  0.0833
  315POPC   C1B 4090   1.981   6.537   4.822 -0.0903  0.0142  0.1166
  315POPC   C2B 4091   1.886   6.523   5.264  0.0394 -0.2715  0.0611
  315POPC   C3B 4092   1.944   6.350   5.618 -0.0560  0.0722 -0.1831
  315POPC   C4B 4093   1.733   6.024   5.870  0.0668 -0.0235  0.1619
  316POPC   NC3 4094   7.231   8.480   3.738  0.0026 -0.1302  0.0956
  316POPC   PO4 4095   7.674   8.572   3.828  0.2218 -0.0645 -0.1059
  316POPC   GL1 4096   7.948   8.594   4.200  0.1329  0.0442 -0.2007
  316POPC   GL2 4097   8.078   8.823   4.350  0.5276  0.0796  0.0461
  316POPC   C1A 4098   7.845   8.370   4.564  0.1602 -0.0452 -0.2352
  316POPC   D2A 4099   7.389   8.266   4.756 -0.1032 -0.1012  0.0447
  316POPC   C3A 4100   7.281   8.004   4.523 -0.0122  0.1777  0.0286
  316POPC   C4A 4101   7.329   7.734   4.182 -0.0459 -0.0116  0.1281
  316POPC   C1B 4102   8.226   8.550   4.770 -0.1513 -0.3009  0.0531
  316POPC   C2B 4103   8.166   8.490   5.259 -0.0575 -0.2717 -0.0220
  316POPC   C3B 4104   7.820   8.533   5.591  0.1392  0.1263 -0.1993
  316POPC   C4B 4105   7.495   8.518   5.843  0.0814 -0.3244 -0.0278
  317POPC   NC3 4106   4.050   5.749   3.671  0.1919  0.2823  0.3928
  317POPC   PO4 4107   3.701   6.024   3.855  0.0172 -0.1222 -0.1354
  317POPC   GL1 4108   3.792   5.737   4.084  0.3025 -0.0074  0.1360
  317POPC   GL2 4109   4.143   5.898   4.253  0.2560 -0.0949 -0.0741
  317POPC   C1A 4110   3.716   5.610   4.512  0.2093  0.1321 -0.0115
  317POPC   D2A 4111   3.796   5.673   4.952 -0.2397  0.0118  0.2584
  317POPC   C3A 4112   4.134   5.697   4.968 -0.1598  0.1597 -0.0460
  317POPC   C4A 4113   4.442   5.424   5.090  0.0409  0.1147  0.1625
  317POPC   C1B 4114   4.011   6.084   4.665 -0.3699 -0.3154 -0.1063
  317POPC   C2B 4115   3.890   6.179   4.985 -0.1299 -0.2896 -0.0784
  317POPC   C3B 4116   3.750   6.034   5.322  0.0728  0.1917 -0.0329
  317POPC   C4B 4117   3.568   6.203   5.731  0.0765 -0.0258 -0.0632
  318POPC   NC3 4118   0.382   4.853   4.229  0.0362  0.1897 -0.2087
  318POPC   PO4 4119   0.272   5.300   4.444  0.0118  0.5246  0.2079
  318POPC   GL1 4120   0.226   5.081   4.757 -0.2718 -0.4011 -0.0062
  318POPC   GL2 4121   0.070   4.859   4.655  0.0399 -0.2201 -0.0207
  318POPC   C1A 4122   0.077   5.127   5.131 -0.1079  0.2862  0.0071
  318POPC   D2A 4123  -0.304   5.166   5.450  0.2428  0.1397 -0.0506
  318POPC   C3A 4124  -0.705   5.086   5.313 -0.1538 -0.1388 -0.0269
  318POPC   C4A 4125  -0.981   5.237   5.201  0.2172  0.2121 -0.1616
  318POPC   C1B 4126   0.140   4.623   4.990 -0.1019  0.0056  0.3045
  318POPC   C2B 4127   0.509   4.490   5.233  0.3188 -0.2397 -0.1201
  318POPC   C3B 4128   0.782   4.627   5.664  0.3406  0.1417  0.2000
  318POPC   C4B 4129   1.141   4.665   5.884  0.2498 -0.2533 -0.1522
  319POPC   NC3 4130   5.754   2.236   3.607  0.3285 -0.0067  0.2129
  319POPC   PO4 4131   5.678   2.585   3.680 -0.0721 -0.0813  0.0551
  319POPC   GL1 4132   5.614   2.750   4.120  0.0792  0.0475 -0.0040
  319POPC   GL2 4133   5.887   2.933   4.101 -0.0087  0.0040 -0.0483
  319POPC   C1A 4134   5.461   2.810   4.595 -0.1157 -0.0580 -0.2178
  319POPC   D2A 4135   5.270   3.115   4.859 -0.2711 -0.1981 -0.0185
  319POPC   C3A 4136   5.356   3.057   5.298 -0.0264  0.1375  0.2236
  319POPC   C4A 4137   4.985   2.936   5.625 -0.2323  0.0881 -0.0414
  319POPC   C1B 4138   6.004   2.708   4.450 -0.1719  0.0689  0.0347
  319POPC   C2B 4139   6.160   2.696   4.875  0.0783 -0.2109 -0.1843
  319POPC   C3B 4140   6.136   2.525   5.290 -0.3167 -0.2100 -0.1721
  319POPC   C4B 4141   6.227   2.171   5.479  0.0569  0.0579 -0.4580
  320POPC   NC3 4142   3.216   0.228   3.349  0.0786 -0.1416 -0.1588
  320POPC   PO4 4143   3.625   0.078   3.464  0.1498 -0.0033  0.2983
  320POPC   GL1 4144   3.632   0.331   3.861 -0.0610  0.3306 -0.1754
  320POPC   GL2 4145   3.590   0.136   4.047 -0.3521 -0.0079 -0.1216
  320POPC   C1A 4146   3.664   0.669   3.963  0.0649 -0.1153 -0.0658
  320POPC   D2A 4147   3.773   0.911   4.315  0.0250  0.2893  0.2569
  320POPC   C3A 4148   3.569   1.430   4.311  0.2443  0.3292 -0.2310
  320POPC   C4A 4149   3.396   1.557   4.667 -0.1347 -0.1335 -0.2125
  320POPC   C1B 4150   3.489   0.157   4.404 -0.1790 -0.0562 -0.1381
  320POPC   C2B 4151   3.684   0.187   4.841  0.2295 -0.0971  0.2600
  320POPC   C3B 4152   3.839   0.373   5.118  0.1732  0.3306 -0.0389
  320POPC   C4B 4153   4.133   0.339   5.375  0.0370  0.0587  0.1207
  321POPC   NC3 4154   3.508   1.306   3.436 -0.0663  0.1767 -0.0237
  321POPC   PO4 4155   3.143   1.447   3.568  0.1526 -0.0298  0.0621
  321POPC   GL1 4156   3.078   1.554   3.925  0.0567  0.0902  0.2755
  321POPC   GL2 4157   2.910   1.715   3.962 -0.0531 -0.0715 -0.0368
  321POPC   C1A 4158   3.077   1.298   4.243 -0.0028  0.0793  0.0792
  321POPC   D2A 4159   3.335   1.043   4.503  0.0612  0.0400  0.0280
  321POPC   C3A 4160   3.252   1.050   4.884  0.0844  0.1050 -0.1359
  321POPC   C4A 4161   3.059   1.335   5.021 -0.1515  0.0295 -0.3228
  321POPC   C1B 4162   2.649   1.540   4.273  0.2609 -0.1862  0.0705
  321POPC   C2B 4163   2.349   1.597   4.543  0.0876  0.2151 -0.2498
  321POPC   C3B 4164   2.100   1.575   4.872  0.2994 -0.2011 -0.0035
  321POPC   C4B 4165   2.129   1.501   5.350 -0.1083  0.0570 -0.1727
  322POPC   NC3 4166   5.744  10.591   3.856 -0.2666  0.1900  0.1800
  322POPC   PO4 4167   6.073  10.700   4.143  0.0207 -0.1383  0.0524
  322POPC   GL1 4168   6.259  10.671   4.476 -0.2540  0.1215  0.3313
  322POPC   GL2 4169   6.598  10.443   4.559  0.1364  0.0366 -0.0046
  322POPC   C1A 4170   6.448  10.824   4.835 -0.1732 -0.0675 -0.0645
  322POPC   D2A 4171   6.529  11.097   5.126 -0.2515  0.0996  0.1955
  322POPC   C3A 4172   6.723  10.749   5.421  0.2915 -0.0149  0.0955
  322POPC   C4A 4173   6.773  10.322   5.493 -0.0841 -0.3140  0.2244
  322POPC   C1B 4174   6.329  10.006   4.646 -0.0329  0.2024  0.1792
  322POPC   C2B 4175   6.281   9.924   5.147  0.2703  0.0210 -0.0538
  322POPC   C3B 4176   6.586   9.871   5.462  0.0819 -0.2123  0.0032
  322POPC   C4B 4177   6.658   9.483   5.305  0.2721  0.0509  0.1151
  323POPC   NC3 4178   6.576   2.418   3.251 -0.0581 -0.0231  0.1191
  323POPC   PO4 4179   6.301   2.146   3.598 -0.0449  0.2416  0.0598
  323POPC   GL1 4180   6.271   2.002   4.015  0.2381 -0.1213  0.0825
  323POPC   GL2 4181   5.930   1.910   4.120 -0.0180 -0.1350  0.1406
  323POPC   C1A 4182   6.360   1.919   4.432 -0.1565  0.2079 -0.1618
  323POPC   D2A 4183   6.560   1.646   4.816  0.2083  0.0180 -0.0523
  323POPC   C3A 4184   6.483   1.261   4.892 -0.1866 -0.3061  0.2113
  323POPC   C4A 4185   6.227   0.872   5.041 -0.0740  0.1695  0.3078
  323POPC   C1B 4186   5.856   2.159   4.389  0.1824 -0.2374 -0.0323
  323POPC   C2B 4187   5.722   2.351   4.734 -0.0193 -0.1080 -0.2679
  323POPC   C3B 4188   5.634   2.638   5.064  0.1869 -0.3691  0.0337
  323POPC   C4B 4189   5.908   2.973   5.245  0.1886 -0.3152 -0.2919
  324POPC   NC3 4190   7.374   5.107   3.295 -0.0261 -0.2653 -0.0784
  324POPC   PO4 4191   7.103   5.469   3.564 -0.1295 -0.0149  0.2054
  324POPC   GL1 4192   7.476   5.223   3.797 -0.0443 -0.0079 -0.0411
  324POPC   GL2 4193   7.498   5.534   3.957 -0.1684  0.0238 -0.0017
  324POPC   C1A 4194   7.872   5.243   4.046 -0.1820  0.0978 -0.1278
  324POPC   D2A 4195   8.182   5.405   4.368  0.0670  0.0214 -0.0536
  324POPC   C3A 4196   8.207   5.804   4.421 -0.0824  0.1834  0.0433
  324POPC   C4A 4197   8.306   6.130   4.207 -0.1283 -0.0224  0.2735
  324POPC   C1B 4198   7.445   5.309   4.314  0.1602 -0.1626 -0.0547
  324POPC   C2B 4199   7.717   4.969   4.510 -0.0374  0.0879 -0.0043
  324POPC   C3B 4200   7.863   4.620   4.633  0.0444  0.0384  0.3042
  324POPC   C4B 4201   8.206   4.582   4.952  0.1649 -0.0821 -0.2469
  325POPC   NC3 4202   0.960   1.982   3.631 -0.2761 -0.1386  0.0527
  325POPC   PO4 4203   0.641   1.802   3.870  0.2744  0.1769 -0.1292
  325POPC   GL1 4204   0.881   1.984   4.202  0.1404 -0.0311  0.0181
  325POPC   GL2 4205   0.659   2.329   4.234 -0.3207 -0.1787 -0.2969
  325POPC   C1A 4206   1.232   1.996   4.481  0.1794 -0.0345 -0.0807
  325POPC   D2A 4207   1.479   1.632   4.760 -0.1459  0.0940  0.1588
  325POPC   C3A 4208   1.208   1.288   5.035  0.0428 -0.0946  0.0376
  325POPC   C4A 4209   1.228   1.081   5.402  0.1576  0.1121 -0.0888
  325POPC   C1B 4210   0.770   2.282   4.689  0.2151 -0.0397  0.0071
  325POPC   C2B 4211   0.665   2.297   5.097 -0.2123  0.0223 -0.0690
  325POPC   C3B 4212   0.373   2.342   5.461  0.1032 -0.2155 -0.1485
  325POPC   C4B 4213   0.359   2.169   5.925 -0.0495 -0.0639 -0.1033
  326POPC   NC3 4214   8.352   4.964   3.560 -0.0488 -0.2080  0.1017
  326POPC   PO4 4215   8.407   5.449   3.736 -0.0186  0.3539 -0.2364
  326POPC   GL1 4216   8.493   5.154   4.095  0.0985  0.1146 -0.0215
  326POPC   GL2 4217   8.789   5.233   4.188  0.0538 -0.2721  0.1641
  326POPC   C1A 4218   8.257   4.808   4.298  0.1492  0.1459 -0.2574
  326POPC   D2A 4219   7.909   4.612   4.030  0.0256 -0.1429  0.0984
  326POPC   C3A 4220   7.664   4.361   4.243 -0.1712 -0.1925  0.2213
  326POPC   C4A 4221   7.424   3.906   4.170 -0.0930  0.1167 -0.2058
  326POPC   C1B 4222   9.013   5.059   4.510 -0.1649  0.4709  0.0639
  326POPC   C2B 4223   9.356   5.069   4.831 -0.0345 -0.1333 -0.1380
  326POPC   C3B 4224   9.383   4.726   5.259 -0.0186 -0.1760  0.2319
  326POPC   C4B 4225   9.263   4.682   5.716 -0.1967  0.0494 -0.2141
  327POPC   NC3 4226   5.462   4.245   3.738 -0.2046 -0.0570  0.2169
  327POPC   PO4 4227   5.271   3.847   3.929  0.1120 -0.0755 -0.0106
  327POPC   GL1 4228   5.432   3.766   4.366  0.0050  0.2574  0.2112
  327POPC   GL2 4229   5.381   3.574   4.592  0.0571  0.0208 -0.4362
  327POPC   C1A 4230   5.628   3.989   4.721 -0.0379  0.1322  0.5282
  327POPC   D2A 4231   5.941   4.045   5.096  0.2654 -0.0741  0.0009
  327POPC   C3A 4232   6.253   3.758   5.308 -0.1576 -0.2188  0.1535
  327POPC   C4A 4233   6.571   3.799   5.679 -0.0082 -0.1580  0.0641
  327POPC   C1B 4234   5.245   3.713   5.007  0.1976  0.1951 -0.0572
  327POPC   C2B 4235   5.511   3.916   5.239  0.1303 -0.0206  0.2452
  327POPC   C3B 4236   5.730   4.153   5.593  0.2769 -0.2275  0.1044
  327POPC   C4B 4237   5.585   4.202   6.045 -0.0111 -0.2525  0.0348
  328POPC   NC3 4238   2.970   7.577   3.806  0.0747  0.1125  0.1428
  328POPC   PO4 4239   3.286   7.211   3.676  0.0813 -0.1890  0.3880
  328POPC   GL1 4240   3.362   7.268   4.123 -0.0713  0.0872  0.0985
  328POPC   GL2 4241   3.006   7.354   4.286 -0.2338  0.1099  0.0035
  328POPC   C1A 4242   3.459   7.300   4.562  0.0048  0.0930  0.4539
  328POPC   D2A 4243   3.273   7.240   4.911  0.2064  0.0806 -0.1424
  328POPC   C3A 4244   3.504   6.945   5.109 -0.4012 -0.1554 -0.0283
  328POPC   C4A 4245   3.623   6.536   5.145 -0.0435 -0.0126  0.1862
  328POPC   C1B 4246   3.073   7.636   4.471  0.3266  0.0267  0.1100
  328POPC   C2B 4247   2.921   7.612   4.982  0.1316 -0.0010  0.1019
  328POPC   C3B 4248   3.037   7.502   5.437  0.2148 -0.2979  0.0120
  328POPC   C4B 4249   3.411   7.560   5.718  0.1311 -0.0335  0.2829
  329POPC   NC3 4250   6.382   7.198   3.441  0.0206 -0.1663  0.0910
  329POPC   PO4 4251   6.605   6.911   3.738  0.1544 -0.0910  0.1038
  329POPC   GL1 4252   6.391   6.677   4.203 -0.1045 -0.0406  0.2315
  329POPC   GL2 4253   5.966   6.541   4.249 -0.0732  0.3376 -0.1444
  329POPC   C1A 4254   6.261   6.608   4.650  0.0939  0.2269  0.1418
  329POPC   D2A 4255   6.249   6.432   5.030  0.0078  0.0822  0.0156
  329POPC   C3A 4256   5.893   6.372   5.154 -0.0393 -0.3031 -0.2887
  329POPC   C4A 4257   5.578   6.576   5.476  0.2157  0.1696  0.2427
  329POPC   C1B 4258   5.811   6.256   4.529 -0.1508 -0.0178 -0.2153
  329POPC   C2B 4259   5.563   5.965   4.917 -0.3230 -0.3260  0.2968
  329POPC   C3B 4260   5.253   5.841   5.144  0.0679  0.4368  0.1125
  329POPC   C4B 4261   5.363   5.828   5.645 -0.0246 -0.0909 -0.1358
  330POPC   NC3 4262   1.710   5.016   3.715 -0.0498 -0.0173 -0.0036
  330POPC   PO4 4263   1.630   5.128   4.127  0.3888 -0.1718 -0.0220
  330POPC   GL1 4264   1.956   5.314   4.432  0.0128 -0.0511 -0.0560
  330POPC   GL2 4265   2.203   5.194   4.492  0.2512  0.0074  0.1670
  330POPC   C1A 4266   2.050   5.494   4.861  0.0740 -0.1371  0.1597
  330POPC   D2A 4267   2.038   5.287   5.347 -0.0874 -0.2609  0.3160
  330POPC   C3A 4268   1.562   5.052   5.437  0.2233  0.1101 -0.0653
  330POPC   C4A 4269   1.055   4.983   5.438  0.1182 -0.2593 -0.0292
  330POPC   C1B 4270   2.412   4.854   4.671 -0.2129 -0.0857 -0.1804
  330POPC   C2B 4271   2.353   4.528   5.054 -0.1191  0.3292  0.0837
  330POPC   C3B 4272   2.336   4.395   5.473  0.0812 -0.0630  0.0748
  330POPC   C4B 4273   1.934   4.198   5.671 -0.0921  0.1230  0.0805
  331POPC   NC3 4274   1.191   5.273   4.359  0.0780  0.0457  0.4162
  331POPC   PO4 4275   0.768   5.270   4.302  0.2411 -0.1576 -0.1478
  331POPC   GL1 4276   0.648   5.396   4.795  0.3514  0.1336 -0.1023
  331POPC   GL2 4277   0.477   5.655   4.716  0.0631  0.2797  0.2720
  331POPC   C1A 4278   0.843   5.465   5.237 -0.0297 -0.0407 -0.1096
  331POPC   D2A 4279   1.279   5.524   5.462  0.0736 -0.0362  0.0472
  331POPC   C3A 4280   1.246   5.205   5.866  0.0089 -0.3119  0.1601
  331POPC   C4A 4281   1.150   4.984   6.256 -0.1497 -0.2191 -0.0855
  331POPC   C1B 4282   0.514   5.865   5.071  0.1395  0.1188 -0.0861
  331POPC   C2B 4283   0.387   6.089   5.369  0.2280 -0.0454 -0.0198
  331POPC   C3B 4284   0.286   6.142   5.774  0.0512  0.0807  0.0519
  331POPC   C4B 4285   0.234   6.542   5.907  0.3052 -0.1324  0.0899
  332POPC   NC3 4286   8.508   1.615   3.656 -0.4048  0.0375  0.1330
  332POPC   PO4 4287   8.369   1.162   3.485 -0.2144  0.1483 -0.1228
  332POPC   GL1 4288   8.072   1.414   3.773  0.0895  0.2077  0.1454
  332POPC   GL2 4289   7.937   1.161   3.768  0.1003  0.0758  0.1903
  332POPC   C1A 4290   8.101   1.617   4.260  0.0575  0.1355  0.4742
  332POPC   D2A 4291   8.127   1.623   4.676 -0.0588  0.1239  0.1641
  332POPC   C3A 4292   8.374   1.881   4.825 -0.2076  0.1278 -0.1060
  332POPC   C4A 4293   8.550   2.159   4.681 -0.0772 -0.0965  0.0436
  332POPC   C1B 4294   8.083   0.886   4.076 -0.0768  0.1645  0.2948
  332POPC   C2B 4295   8.354   0.811   4.431  0.1991 -0.4498  0.2162
  332POPC   C3B 4296   8.188   0.566   4.786 -0.0391  0.0921  0.1575
  332POPC   C4B 4297   8.349   0.571   5.238 -0.0164 -0.3282  0.0707
  333POPC   NC3 4298   4.407   2.077   3.790  0.2558  0.1921  0.1362
  333POPC   PO4 4299   4.048   1.882   3.856  0.1108 -0.0109  0.0051
  333POPC   GL1 4300   3.981   1.740   4.177  0.0375  0.1108 -0.2568
  333POPC   GL2 4301   4.180   1.380   4.301  0.0739 -0.2968 -0.1943
  333POPC   C1A 4302   3.836   1.879   4.637 -0.1929 -0.0070 -0.0550
  333POPC   D2A 4303   3.785   1.805   5.041  0.0508 -0.0150  0.1357
  333POPC   C3A 4304   3.843   2.105   5.265  0.2194  0.0264  0.0242
  333POPC   C4A 4305   4.176   2.402   5.217 -0.1615  0.1228  0.1023
  333POPC   C1B 4306   4.100   1.451   4.796  0.2764 -0.2091 -0.1301
  333POPC   C2B 4307   4.116   1.430   5.157  0.2992 -0.1488  0.1312
  333POPC   C3B 4308   3.912   1.407   5.552 -0.3474  0.1565  0.1319
  333POPC   C4B 4309   3.639   1.318   5.912 -0.3041  0.1490  0.0273
  334POPC   NC3 4310   2.034   9.471   3.856  0.1129  0.0651 -0.0829
  334POPC   PO4 4311   1.867   9.040   3.922 -0.2519 -0.1609 -0.0089
  334POPC   GL1 4312   1.885   9.121   4.279 -0.0738  0.3631  0.0656
  334POPC   GL2 4313   2.030   9.389   4.323 -0.0755  0.0268 -0.2052
  334POPC   C1A 4314   1.664   9.146   4.612  0.1238 -0.0785 -0.2748
  334POPC   D2A 4315   1.523   9.134   5.076 -0.1966  0.2538 -0.2302
  334POPC   C3A 4316   1.258   9.188   5.450  0.0244  0.1488  0.0674
  334POPC   C4A 4317   0.997   9.144   5.804 -0.0778  0.2298 -0.0424
  334POPC   C1B 4318   1.913   9.586   4.678 -0.0972  0.0413  0.1951
  334POPC   C2B 4319   1.905   9.498   5.102  0.2248 -0.1303 -0.1787
  334POPC   C3B 4320   1.801   9.401   5.411  0.1425 -0.0194 -0.0872
  334POPC   C4B 4321   1.832   8.918   5.589 -0.1237 -0.0805  0.0469
  335POPC   NC3 4322   6.443   1.216   3.683 -0.2904  0.0007 -0.0144
  335POPC   PO4 4323   5.959   1.253   3.432 -0.1442  0.3376  0.0391
  335POPC   GL1 4324   6.016   1.224   3.882 -0.0352  0.0000 -0.0931
  335POPC   GL2 4325   5.855   0.973   4.021 -0.0721  0.2811  0.1592
  335POPC   C1A 4326   6.197   1.287   4.226 -0.0068 -0.0925  0.0847
  335POPC   D2A 4327   6.070   1.539   4.656 -0.2112  0.2001  0.3338
  335POPC   C3A 4328   5.848   1.881   4.870  0.0203  0.2551  0.3299
  335POPC   C4A 4329   5.814   2.184   5.198 -0.0885  0.0948 -0.1042
  335POPC   C1B 4330   5.946   1.006   4.550  0.0426 -0.2570  0.1321
  335POPC   C2B 4331   5.787   1.058   4.984  0.1755  0.1474 -0.2308
  335POPC   C3B 4332   5.538   1.290   5.247 -0.1700 -0.5425  0.4989
  335POPC   C4B 4333   5.213   1.447   5.225 -0.1099  0.0334 -0.0171
  336POPC   NC3 4334   6.804   0.356   3.538 -0.0568 -0.1019  0.3277
  336POPC   PO4 4335   6.736   0.738   3.727  0.1812 -0.0004  0.1344
  336POPC   GL1 4336   7.010   0.756   4.183  0.4743  0.1337  0.0730
  336POPC   GL2 4337   6.852   1.005   4.175 -0.1362  0.0031 -0.0426
  336POPC   C1A 4338   7.179   0.583   4.645  0.1320  0.4060 -0.1865
  336POPC   D2A 4339   7.070   0.471   5.024  0.1950  0.1844  0.0159
  336POPC   C3A 4340   7.025   0.576   5.339  0.0192  0.0855 -0.2857
  336POPC   C4A 4341   7.007   0.938   5.616 -0.2196  0.1577  0.0629
  336POPC   C1B 4342   6.819   1.222   4.532  0.0821 -0.0795 -0.2884
  336POPC   C2B 4343   7.018   1.490   4.894  0.1705  0.1189  0.0330
  336POPC   C3B 4344   7.262   1.762   5.217  0.2626  0.2909 -0.0080
  336POPC   C4B 4345   7.666   1.944   5.509  0.2276 -0.2127 -0.1692
  337POPC   NC3 4346   5.002   9.130   3.477 -0.1902  0.0305 -0.0716
  337POPC   PO4 4347   5.161   9.521   3.483  0.1331 -0.1456 -0.1271
  337POPC   GL1 4348   5.296   9.436   3.840  0.1514 -0.1243  0.0061
  337POPC   GL2 4349   5.378   9.750   3.967  0.1390  0.3470  0.0041
  337POPC   C1A 4350   5.310   9.127   4.141  0.4418  0.2729  0.2194
  337POPC   D2A 4351   5.095   8.760   4.227 -0.0413  0.0122 -0.0302
  337POPC   C3A 4352   5.009   8.803   4.628  0.1827 -0.0074  0.0407
  337POPC   C4A 4353   5.263   9.043   4.913  0.1888  0.5107 -0.1715
  337POPC   C1B 4354   5.259   9.868   4.395 -0.0241 -0.2097  0.2873
  337POPC   C2B 4355   4.933   9.917   4.693 -0.0497 -0.0555 -0.0897
  337POPC   C3B 4356   4.952  10.147   5.048  0.1097 -0.0765 -0.1730
  337POPC   C4B 4357   5.043  10.082   5.506  0.2948 -0.4135  0.1315
  338POPC   NC3 4358   2.848   9.649   3.385  0.1358 -0.0352  0.2859
  338POPC   PO4 4359   3.281   9.849   3.599 -0.1366  0.4662  0.1570
  338POPC   GL1 4360   3.427   9.798   3.997  0.1592  0.0365 -0.2735
  338POPC   GL2 4361   3.422   9.451   3.972  0.0607 -0.1631  0.1822
  338POPC   C1A 4362   3.487   9.840   4.486 -0.0454 -0.0198 -0.1067
  338POPC   D2A 4363   3.642  10.004   4.875  0.0088  0.1600 -0.0248
  338POPC   C3A 4364   3.628  10.270   5.368 -0.0245 -0.1845  0.2788
  338POPC   C4A 4365   3.756  10.396   5.805 -0.2034 -0.3927  0.1587
  338POPC   C1B 4366   3.394   9.345   4.475  0.1098 -0.1251 -0.1118
  338POPC   C2B 4367   3.475   9.467   4.994  0.1711  0.2782  0.4246
  338POPC   C3B 4368   3.627   9.757   5.309 -0.0389  0.0949  0.0872
  338POPC   C4B 4369   3.403   9.970   5.673 -0.2156 -0.1117  0.1153
  339POPC   NC3 4370   2.448   5.278   3.444 -0.1102 -0.0624  0.0334
  339POPC   PO4 4371   2.665   4.982   3.854  0.0719  0.0618 -0.0594
  339POPC   GL1 4372   2.919   4.686   4.077  0.0202  0.1033 -0.0050
  339POPC   GL2 4373   3.280   4.650   4.207  0.1598  0.3872  0.1267
  339POPC   C1A 4374   2.832   4.620   4.562 -0.0218 -0.1492 -0.4238
  339POPC   D2A 4375   2.828   4.319   4.933  0.1210 -0.0816  0.0844
  339POPC   C3A 4376   3.143   4.280   5.260 -0.1605 -0.0649  0.0203
  339POPC   C4A 4377   3.475   4.137   5.595 -0.0896 -0.0318 -0.1388
  339POPC   C1B 4378   3.342   4.577   4.608 -0.0605 -0.1228 -0.3392
  339POPC   C2B 4379   3.503   4.629   5.029 -0.2782 -0.1834  0.0497
  339POPC   C3B 4380   3.651   4.658   5.415 -0.2783  0.1118 -0.3352
  339POPC   C4B 4381   3.776   4.929   5.624 -0.0791 -0.0800 -0.0835
  340POPC   NC3 4382   4.015   2.425   3.768 -0.2911 -0.0304 -0.1903
  340POPC   PO4 4383   3.716   2.213   3.464  0.0151 -0.0093  0.0454
  340POPC   GL1 4384   3.681   2.175   4.015 -0.2127  0.0069  0.1328
  340POPC   GL2 4385   3.526   2.017   4.190  0.1178  0.0315  0.1296
  340POPC   C1A 4386   3.671   2.420   4.428  0.2199 -0.0754 -0.0881
  340POPC   D2A 4387   3.617   2.405   4.907 -0.3751 -0.0207  0.1050
  340POPC   C3A 4388   3.775   2.636   5.212  0.1448 -0.2997  0.0810
  340POPC   C4A 4389   3.842   2.495   5.557 -0.1051 -0.2916 -0.2635
  340POPC   C1B 4390   3.382   2.030   4.579  0.3954 -0.1256 -0.0490
  340POPC   C2B 4391   3.124   2.039   4.909 -0.0224 -0.1856  0.1174
  340POPC   C3B 4392   2.878   1.857   5.151 -0.0196 -0.1255 -0.1695
  340POPC   C4B 4393   2.565   1.550   5.076  0.1347 -0.0236  0.2463
  341POPC   NC3 4394   4.871   5.567   3.874  0.1555 -0.1278 -0.1853
  341POPC   PO4 4395   4.601   5.225   4.028  0.1131 -0.0137  0.3354
  341POPC   GL1 4396   4.630   5.089   4.447  0.1294  0.0720 -0.0684
  341POPC   GL2 4397   4.953   4.828   4.526  0.3030 -0.0419  0.1404
  341POPC   C1A 4398   4.428   4.933   4.887 -0.0436  0.0569 -0.0783
  341POPC   D2A 4399   4.462   4.435   4.967 -0.2427 -0.1623 -0.0638
  341POPC   C3A 4400   4.724   4.426   5.310 -0.2713  0.5288 -0.0759
  341POPC   C4A 4401   4.957   4.571   5.545 -0.0443  0.0779 -0.1245
  341POPC   C1B 4402   4.989   5.134   4.774  0.0647  0.2142  0.4943
  341POPC   C2B 4403   4.940   5.385   5.058 -0.1831  0.1532 -0.1240
  341POPC   C3B 4404   4.880   5.579   5.531  0.3215  0.0610  0.1180
  341POPC   C4B 4405   4.892   5.975   5.624  0.2144 -0.3263  0.3255
  342W        W 4406   5.307   7.491  10.462  0.1900  0.1510 -0.1356
  343W        W 4407   7.044   7.075   9.897 -0.2621  0.0283  0.0648
  344W        W 4408   4.686   6.412   9.501 -0.0765 -0.1319 -0.0355
  345W        W 4409   1.882   8.652   3.602 -0.2139  0.0001 -0.2641
  346W        W 4410   5.221   4.289   0.640  0.2805  0.0390 -0.0177
  347W        W 4411   6.330   1.339   3.119 -0.1836  0.1268  0.2135
  348W        W 4412   4.767   2.251   1.976  0.3379 -0.2091 -0.1341
  349W        W 4413   2.461  10.282  10.874  0.0382  0.0026  0.2174
  350W        W 4414   7.735   5.454  10.267  0.1162 -0.0180  0.0309
  351W        W 4415   3.613  10.293   9.189 -0.2234 -0.3016  0.1578
  352W        W 4416   7.638   9.980   0.125  0.1443 -0.0915  0.1597
  353W        W 4417   0.644   6.605  10.537 -0.2177  0.1045 -0.1703
  354W        W 4418   4.840   3.194   2.019 -0.0533  0.0159 -0.0408
  355W        W 4419   7.417   2.659  11.129 -0.2058  0.2487 -0.1223
  356W        W 4420   0.054   7.660   9.995  0.0247 -0.1992 -0.1266
  357W        W 4421  10.253   1.099   1.236  0.1486  0.0694 -0.5283
  358W        W 4422   9.773   2.166  11.509  0.2469  0.0311 -0.1620
  359W        W 4423   4.437   1.539   9.994 -0.1732  0.1305 -0.3476
  360W        W 4424   9.470   0.307   2.630 -0.1561  0.0545 -0.2097
  361W        W 4425   0.499   1.312   2.608 -0.5274 -0.0128  0.1056
  362W        W 4426   5.155   5.095   3.859  0.1060 -0.0583 -0.2535
  363W        W 4427   9.809   5.209  11.395  0.2241  0.1759  0.3285
  364W        W 4428   7.122   5.317   0.255  0.3282  0.0108 -0.3606
  365W        W 4429   8.831   5.263  10.848  0.5381  0.2355  0.0154
  366W        W 4430   9.648   3.196  10.189  0.1872 -0.0129  0.0731
  367W        W 4431   9.960   2.358   2.245 -0.1131  0.0489  0.0439
  368W        W 4432   5.138   5.599   9.279 -0.1570 -0.0189  0.1326
  369W        W 4433   1.177   6.693   9.887 -0.1045 -0.0932 -0.0683
  370W        W 4434   8.069   7.639   3.029  0.3879  0.0063  0.1440
  371W        W 4435   0.646   2.645  10.173  0.0170  0.0819  0.0789
  372W        W 4436   4.948   3.651   9.550  0.0083  0.3236 -0.2058
  373W        W 4437   6.574   1.766  11.247  0.5857  0.0212 -0.0349
  374W        W 4438   8.340   4.559   1.354 -0.1421 -0.1512 -0.0542
  375W        W 4439   8.859   3.718   3.444  0.2436  0.0020  0.0919
  376W        W 4440   9.125   5.131   1.460  0.0298 -0.1205 -0.4380
  377W        W 4441   3.044   9.444   9.455  0.1037  0.0494  0.0616
  378W        W 4442   1.820   6.346   0.037  0.1212 -0.0567 -0.1161
  379W        W 4443   4.421   8.404   9.207 -0.2952  0.1445 -0.4578
  380W        W 4444   4.466   4.913   1.107  0.2360 -0.0291  0.1338
  381W        W 4445  10.589   6.339  10.821  0.1825  0.3757 -0.0197
  382W        W 4446  10.170  10.487   0.256 -0.1516  0.0302  0.0091
  383W        W 4447   7.792   6.837  10.923  0.3029 -0.1498 -0.0582
  384W        W 4448   4.252   2.100   8.504 -0.0032  0.2160  0.0860
  385W        W 4449   1.636   0.550   9.659  0.0624 -0.3938 -0.0478
  386W        W 4450   5.416   1.363   9.060  0.1689 -0.3233  0.2026
  387W        W 4451   8.143   1.909   3.778  0.1405 -0.1524 -0.0861
  388W        W 4452   5.940   8.453  10.404  0.0180 -0.1946  0.3833
  389W        W 4453   6.040   4.020   2.356  0.0214  0.1146  0.0165
  390W        W 4454   3.476   4.883   1.480  0.1999 -0.2393 -0.3161
  391W        W 4455   4.922   3.852   9.095 -0.1570 -0.0226 -0.0523
  392W        W 4456   5.327   7.631   0.995 -0.1377  0.2942 -0.0014
  393W        W 4457   7.517   0.099   0.846  0.1419 -0.0079  0.2472
  394W        W 4458   7.325   5.251   0.896 -0.0861 -0.0303 -0.3970
  395W        W 4459   8.547   9.289  10.474  0.0200 -0.1455 -0.0855
  396W        W 4460   6.004   1.719   1.450 -0.0160 -0.0028 -0.1490
  397W        W 4461   1.897   6.533  10.597 -0.1079 -0.1972  0.0860
  398W        W 4462  10.613   8.132  10.202 -0.1138  0.2190  0.0666
  399W        W 4463   0.164   0.167   2.657 -0.0163 -0.3379  0.2707
  400W        W 4464   5.856   0.629   2.569 -0.1539 -0.0765 -0.1599
  401W        W 4465   4.200   9.550   1.168 -0.1452 -0.1655  0.3309
  402W        W 4466   6.196   8.110   3.686 -0.0953  0.3679 -0.0248
  403W        W 4467   1.896   3.234  11.386 -0.0519 -0.0537 -0.1183
  404W        W 4468   1.759   3.214   9.758  0.0489 -0.0523 -0.0834
  405W        W 4469   4.280   2.656   7.718 -0.0658  0.1702  0.0817
  406W        W 4470   4.327   4.499   1.447  0.1326  0.0222  0.0249
  407W        W 4471   6.862   4.288   2.473 -0.0261 -0.1663  0.0226
  408W        W 4472   7.634   3.949  11.134  0.0509 -0.2911  0.0530
  409W        W 4473   7.884   1.324   8.280 -0.0170 -0.1400 -0.0659
  410W        W 4474   7.256   5.701   3.137 -0.1119  0.1721 -0.1551
  411W        W 4475   9.315   0.602  10.607  0.2174  0.1117 -0.1041
  412W        W 4476   4.394   8.728   1.341 -0.0897  0.1584  0.1753
  413W        W 4477   3.200   2.458   0.212 -0.0740  0.1540 -0.2587
  414W        W 4478   2.606   4.126   9.149 -0.1207 -0.5156  0.1051
  415W        W 4479   3.083   8.508   3.014  0.0046  0.1181  0.3585
  416W        W 4480   5.817   0.687  10.998  0.1199 -0.1189 -0.4985
  417W        W 4481   3.773   3.474   2.895  0.0475  0.0244 -0.0583
  418W        W 4482   0.841   3.492   3.354 -0.1132 -0.2109  0.1470
  419W        W 4483   3.331   0.225   8.023 -0.1751 -0.2649 -0.0579
  420W        W 4484   9.176   3.221   1.587 -0.2063 -0.1583 -0.0931
  421W        W 4485   9.209   2.430  10.315 -0.1524 -0.2286 -0.4037
  422W        W 4486   0.919   5.611  10.641 -0.0881 -0.1748  0.2794
  423W        W 4487   7.238   9.119  11.478  0.0179 -0.0548 -0.3874
  424W        W 4488  10.144   9.588   1.420 -0.2930  0.1765 -0.2143
  425W        W 4489   3.111   4.802   9.709  0.0166  0.2506  0.0604
  426W        W 4490   2.050   6.083   4.136  0.0843 -0.2690  0.1069
  427W        W 4491  10.089   0.904   0.255 -0.5465 -0.0008  0.2326
  428W        W 4492   3.860  10.271   3.438 -0.0034  0.0000  0.0145
  429W        W 4493   6.202   4.769   9.999  0.3315 -0.2091 -0.0741
  430W        W 4494   3.647   6.885   1.265 -0.0336  0.0803  0.1088
  431W        W 4495   3.219   5.951  10.861  0.1133 -0.0286 -0.1145
  432W        W 4496   2.637   2.800  11.546 -0.3840  0.0648 -0.0832
  433W        W 4497   5.282   9.078   8.208  0.0395 -0.1092 -0.0689
  434W        W 4498   3.636   5.728   2.765 -0.0581 -0.2827  0.2096
  435W        W 4499   7.573   9.621   2.873  0.2128  0.0552  0.1402
  436W        W 4500   8.572   1.676   9.485  0.2947  0.0956 -0.4033
  437W        W 4501   8.560   4.922   9.413 -0.0057 -0.0259 -0.2540
  438W        W 4502   6.765   6.887  11.445  0.1485 -0.0779 -0.3232
  439W        W 4503   2.397   3.242  11.459  0.0666 -0.1332 -0.1336
  440W        W 4504   7.338   6.693   2.196  0.1651  0.1890  0.1785
  441W        W 4505   9.112   2.733  11.460 -0.0911 -0.2277  0.1943
  442W        W 4506   4.677   2.125   4.255 -0.2078  0.3360  0.1623
  443W        W 4507   0.252   3.278  10.618  0.4543 -0.2227  0.1854
  444W        W 4508   3.114   7.567   8.044 -0.0350  0.1504 -0.0749
  445W        W 4509   4.887   6.100   1.870  0.2691  0.2510  0.2695
  446W        W 4510  10.143   3.920   7.957 -0.1443  0.2912 -0.3171
  447W        W 4511   8.755   8.122   1.210  0.0873  0.0801  0.1132
  448W        W 4512   4.871   4.965  10.018 -0.0666  0.1366  0.0028
  449W        W 4513   4.461   3.392   8.217  0.0418  0.0207  0.0777
  450W        W 4514   8.777   5.426   2.743 -0.0926 -0.2652  0.1867
  451W        W 4515   5.724   4.231   2.804 -0.1589 -0.2616  0.1010
  452W        W 4516   4.115   0.263   3.404  0.3183 -0.0322  0.0552
  453W        W 4517   7.865   2.453  11.410 -0.0631  0.3075 -0.0338
  454W        W 4518   2.629   4.713   3.418  0.2956 -0.0634  0.1477
  455W        W 4519   1.315   9.302  10.578  0.0710 -0.0982  0.0534
  456W        W 4520   9.152   4.309   9.353 -0.1446  0.0491  0.1099
  457W        W 4521   9.823   5.919   7.891  0.2198  0.0042 -0.2309
  458W        W 4522  10.181   0.409  11.202  0.2549  0.0305  0.3747
  459W        W 4523   5.693   5.468   1.383  0.1147  0.4799 -0.0993
  460W        W 4524   0.713   1.561  10.780 -0.0823  0.1765 -0.0847
  461W        W 4525   1.636   7.332   3.388 -0.1063  0.0465 -0.0644
  462W        W 4526   9.287   3.485   2.540  0.0775 -0.3855 -0.3067
  463W        W 4527   6.069   9.872   0.311  0.2306  0.1076 -0.1861
  464W        W 4528   9.238   3.482   3.133 -0.3445 -0.3898 -0.1790
  465W        W 4529   7.925   8.596   3.212  0.1780  0.2153 -0.1307
  466W        W 4530   0.962   0.003   2.768 -0.0432  0.1969  0.1545
  467W        W 4531   8.727   4.159   3.094  0.0397 -0.2505 -0.2745
  468W        W 4532   1.379   8.066  10.326 -0.1964  0.1265  0.4668
  469W        W 4533  10.455   8.139   9.580  0.1209 -0.0423 -0.3540
  470W        W 4534   9.192   0.873   8.618  0.0872  0.1862  0.1216
  471W        W 4535   6.084   6.896  10.181  0.0663 -0.0594 -0.2910
  472W        W 4536   6.744   3.742  11.010  0.0830 -0.0696  0.0487
  473W        W 4537  10.154   5.008   3.474  0.2054  0.0109  0.2059
  474W        W 4538   4.035   8.471   8.471 -0.1842 -0.4291 -0.0641
  475W        W 4539   4.250   7.226   9.955  0.2324 -0.1050  0.0559
  476W        W 4540   4.973   7.387   8.489  0.0706 -0.0783 -0.0512
  477W        W 4541   9.076   6.177   2.524 -0.1797 -0.1234  0.1990
  478W        W 4542   3.628   6.089   8.128 -0.1471  0.0656 -0.1157
  479W        W 4543   7.861   4.327   1.000 -0.0443 -0.1015 -0.0829
  480W        W 4544   0.520   3.075   2.798  0.1384  0.0358  0.2484
  481W        W 4545   9.758   9.716   0.121 -0.0999 -0.0846  0.1673
  482W        W 4546   3.124   0.278   1.078  0.0323 -0.1117 -0.0023
  483W        W 4547   2.517   1.022   0.005 -0.0033 -0.1566  0.2120
  484W        W 4548   8.462   3.830  10.652  0.1225 -0.2156  0.0514
  485W        W 4549   9.222   1.729   2.306 -0.0226 -0.0858  0.2275
  486W        W 4550   2.299   7.211   9.213  0.1708  0.1081 -0.0903
  487W        W 4551  10.261   6.046  11.267 -0.2780  0.2431 -0.0104
  488W        W 4552   6.978   4.787   3.164 -0.2874 -0.4655  0.3548
  489W        W 4553   7.854   2.937  11.472 -0.1243 -0.2077  0.0014
  490W        W 4554   3.714   2.936  10.873  0.2044  0.1455 -0.0364
  491W        W 4555   5.698   2.619   2.068 -0.2822  0.2381 -0.2389
  492W        W 4556   3.577   4.890   0.949  0.2953 -0.0933 -0.0716
  493W        W 4557   8.402   1.311  11.034 -0.1300 -0.0229  0.1267
  494W        W 4558   6.788   0.138  10.529  0.3154 -0.0264 -0.0781
  495W        W 4559   9.324   0.893   1.967 -0.1837 -0.0177  0.2319
  496W        W 4560   8.697   8.803   0.064 -0.0781  0.1558 -0.0815
  497W        W 4561   6.173   7.865   1.059 -0.0946  0.0422 -0.1184
  498W        W 4562   6.769   2.170   2.474  0.0710  0.0104  0.0313
  499W        W 4563   1.772   4.563   3.386  0.1135  0.1173 -0.0284
  500W        W 4564   8.627   6.741  10.909 -0.0441  0.0768 -0.1104
  501W        W 4565   6.031   7.307   0.400 -0.2459 -0.1152 -0.1673
  502W        W 4566   8.897   7.205   2.597 -0.1245 -0.2102  0.1071
  503W        W 4567   2.648   7.242   1.743  0.0611  0.1606 -0.1543
  504W        W 4568   6.154   0.698  11.414  0.0614 -0.0977  0.1256
  505W        W 4569   7.815   1.320   2.082  0.2424 -0.2557 -0.1741
  506W        W 4570   8.220   8.932   1.653 -0.0465 -0.4474 -0.0838
  507W        W 4571   9.449   9.431   9.992  0.0242  0.0161  0.2226
  508W        W 4572   1.301   9.768  10.939  0.0163  0.1079  0.0501
  509W        W 4573   9.320   2.895   1.942 -0.1457 -0.2320 -0.3845
  510W        W 4574   8.721   7.805   2.999 -0.0047  0.0009  0.0638
  511W        W 4575   4.565   8.602  11.365 -0.0673  0.0068 -0.0258
  512W        W 4576   9.672   1.169   2.632  0.1353 -0.0266 -0.1669
  513W        W 4577   9.431   3.653   8.526  0.2072  0.3165 -0.1358
  514W        W 4578   1.468   7.527   1.728  0.0315 -0.0515 -0.2054
  515W        W 4579   1.211   7.642   9.744  0.0142  0.0713  0.0206
  516W        W 4580   5.195   4.767   3.416  0.1595 -0.2461 -0.5658
  517W        W 4581   3.085   7.799   0.404  0.0781 -0.2176  0.1950
  518W        W 4582   8.021   4.107   2.573 -0.0677 -0.0009  0.0438
  519W        W 4583   2.825   7.330   0.296 -0.0230 -0.0989 -0.2226
  520W        W 4584   4.270   0.813   2.547  0.0639  0.0621  0.0573
  521W        W 4585   4.172   8.598   0.583  0.0618 -0.0947  0.2577
  522W        W 4586   1.223   6.043  10.076  0.0229  0.1523  0.2200
  523W        W 4587   5.477   1.272   2.547  0.3315 -0.1964  0.3101
  524W        W 4588   8.747   1.459  11.405 -0.2411  0.1111 -0.2829
  525W        W 4589   4.550   0.544  11.469  0.1470  0.0756  0.0313
  526W        W 4590   3.241   6.495   0.661 -0.0346  0.1530 -0.1203
  527W        W 4591   6.927   3.476   0.016 -0.1048  0.0794  0.2133
  528W        W 4592   9.772   5.494   2.878 -0.0775 -0.2213  0.3989
  529W        W 4593   9.078   3.803   0.598  0.0060  0.2136 -0.1684
  530W        W 4594   2.678   3.890   0.640  0.0058 -0.1410  0.3023
  531W        W 4595   2.069   1.717   0.420  0.1714 -0.0188  0.0418
  532W        W 4596   8.688   9.981   2.021 -0.2663  0.1103  0.2299
  533W        W 4597   2.742   3.269   8.955 -0.0216  0.1917 -0.2173
  534W        W 4598   3.314   2.955   0.357 -0.2016 -0.1695  0.0643
  535W        W 4599   2.235   6.871  10.394 -0.0399  0.0082 -0.2513
  536W        W 4600   6.586   9.258   8.464 -0.2970 -0.1329  0.1491
  537W        W 4601   5.259  10.236   8.936  0.0576 -0.3210  0.1147
  538W        W 4602   2.185   0.421   0.600 -0.3512 -0.1150  0.1176
  539W        W 4603   7.860   5.651   2.742 -0.0358 -0.2269 -0.0484
  540W        W 4604   6.271   1.896   9.172  0.2830 -0.0231 -0.1631
  541W        W 4605   7.869   9.369   0.510  0.1514  0.1198  0.0439
  542W        W 4606   3.235   3.622   1.581 -0.0715  0.1651  0.2832
  543W        W 4607   5.526   8.270   7.991 -0.0960 -0.0354 -0.0447
  544W        W 4608   0.994  10.524  10.726  0.3171  0.1009 -0.1547
  545W        W 4609   3.905   4.634   2.234 -0.0342 -0.0493  0.1566
  546W        W 4610   3.699   3.566  11.423 -0.2737 -0.1128  0.0892
  547W        W 4611   7.330   3.929  11.524 -0.0369 -0.4398 -0.3363
  548W        W 4612   0.933   3.209   0.715  0.0300 -0.4432  0.2375
  549W        W 4613   2.693   3.680   0.110  0.2025  0.1812 -0.1188
  550W        W 4614   7.832   8.333   0.324 -0.1096  0.3321  0.1968
  551W        W 4615   8.610   0.860  11.442 -0.0922 -0.1360 -0.2494
  552W        W 4616   0.218   7.736   3.040  0.1832 -0.1465 -0.0394
  553W        W 4617   8.712   4.495   2.688 -0.0331  0.0735 -0.0423
  554W        W 4618   5.294   8.470   3.021 -0.0701  0.0529  0.2673
  555W        W 4619  10.402   9.280   1.047  0.1813 -0.1882  0.3458
  556W        W 4620   1.743   9.599  10.484 -0.1757 -0.3058  0.0851
  557W        W 4621   2.172   5.141  10.506 -0.0049  0.1523  0.2205
  558W        W 4622   5.767   7.864   2.293  0.3238 -0.1360  0.2630
  559W        W 4623   4.227   9.901  11.512 -0.1688  0.1783 -0.1116
  560W        W 4624   7.091  10.457   3.254  0.4611  0.0961  0.1208
  561W        W 4625  10.214   4.334   2.157  0.1049 -0.0074  0.1658
  562W        W 4626   5.300   5.338   3.374  0.0103  0.1342 -0.0214
  563W        W 4627   9.137  10.319   3.165  0.0058  0.0729  0.1500
  564W        W 4628   8.688   1.900   3.166  0.3195  0.2004 -0.3991
  565W        W 4629   8.315   8.566  10.871  0.0482 -0.0340  0.1597
  566W        W 4630   5.183   4.761   0.626  0.1706 -0.3603  0.0292
  567W        W 4631   1.834   7.004   1.661  0.0175  0.2348 -0.2991
  568W        W 4632   5.813   3.324  10.527  0.1260 -0.0467 -0.1126
  569W        W 4633  10.387   7.642   2.381 -0.2351  0.1675  0.2007
  570W        W 4634   7.494   6.956   3.341 -0.1473 -0.1175 -0.0298
  571W        W 4635   3.660   5.801   1.820  0.4764 -0.2480  0.2231
  572W        W 4636   2.837   1.273   1.884  0.1071 -0.3380 -0.1193
  573W        W 4637   6.164   1.464   1.827 -0.1146  0.2913  0.1155
  574W        W 4638   7.689   9.176   2.597 -0.0211 -0.1700 -0.1280
  575W        W 4639   7.277   0.680   0.300  0.0357 -0.0066 -0.1059
  576W        W 4640   1.655   9.032   9.339 -0.0080 -0.2555  0.1049
  577W        W 4641   5.212   7.332   0.087 -0.0005  0.2324 -0.2436
  578W        W 4642   9.211   1.325   1.050 -0.2894 -0.1837  0.3183
  579W        W 4643  10.458   1.550   2.063 -0.2301  0.0385 -0.1412
  580W        W 4644   4.827   3.730  10.666  0.1687  0.3170 -0.2298
  581W        W 4645   8.926   9.481   1.298  0.1330 -0.0869 -0.1375
  582W        W 4646   1.268   0.886   6.997 -0.2451  0.2123  0.0286
  583W        W 4647   1.551   2.232  11.003  0.1578  0.1983 -0.1709
  584W        W 4648   9.061   4.775   2.702 -0.1000  0.1149 -0.2012
  585W        W 4649   2.341   7.678   2.304  0.1611  0.2216 -0.1449
  586W        W 4650   7.803   4.540  10.047 -0.0682 -0.0661  0.1643
  587W        W 4651   8.059   4.158  10.216  0.0143 -0.1922 -0.0748
  588W        W 4652   2.204   2.515   1.858 -0.0338  0.1905 -0.0855
  589W        W 4653  10.569   6.644   8.534  0.0062 -0.0438  0.1640
  590W        W 4654   9.813   4.879  10.443 -0.0945  0.1220  0.0882
  591W        W 4655   0.267   1.439   8.128  0.0933 -0.2409  0.1888
  592W        W 4656   0.392   1.840   4.285  0.1307  0.2468  0.2515
  593W        W 4657   8.216   8.106   9.749 -0.0331 -0.0629  0.0215
  594W        W 4658   4.390   3.983   2.262  0.0902  0.0283  0.1598
  595W        W 4659   2.749   0.365   2.878  0.2922  0.2199 -0.1428
  596W        W 4660   2.748   5.607   1.273 -0.2683  0.3435  0.1531
  597W        W 4661   3.965   6.453  10.589 -0.0895  0.2339 -0.3038
  598W        W 4662   7.371   1.627   8.902  0.0058 -0.0164 -0.1834
  599W        W 4663   0.293   7.592   1.710  0.0092  0.3062  0.1651
  600W        W 4664   5.851   8.121  10.852  0.1928 -0.3063  0.2792
  601W        W 4665   8.439   8.512   2.006 -0.1543  0.1375 -0.0239
  602W        W 4666   6.802   2.722   1.162  0.1406 -0.2516  0.0182
  603W        W 4667   0.744   2.576   8.917  0.1875  0.0292 -0.0950
  604W        W 4668   5.019   5.893   2.901  0.0959  0.1754  0.0452
  605W        W 4669   0.128   9.310   2.403 -0.1374 -0.0137  0.0440
  606W        W 4670   5.069   3.446  11.214  0.1735  0.1971  0.1344
  607W        W 4671   0.981   2.725   0.225 -0.3452 -0.0537  0.0401
  608W        W 4672   1.018   5.088   9.772  0.1477  0.1561 -0.1169
  609W        W 4673   3.209   6.794   2.281  0.3764  0.2112 -0.1206
  610W        W 4674   5.674   4.398   1.480 -0.1207 -0.1823  0.0464
  611W        W 4675   1.862   4.230   2.923 -0.0019  0.1051 -0.0445
  612W        W 4676   9.936   6.006   2.135  0.3838 -0.3356  0.1091
  613W        W 4677   9.547   3.548   1.403  0.3072 -0.0611 -0.0374
  614W        W 4678   0.459   7.289  10.460  0.0069 -0.1265  0.2681
  615W        W 4679   7.133  10.385  10.316 -0.0758 -0.0723  0.0033
  616W        W 4680   3.534   4.402   2.550 -0.2125  0.0480 -0.2813
  617W        W 4681   4.166  10.325   0.139  0.2679 -0.0869 -0.3240
  618W        W 4682   8.172   3.062   1.797 -0.0251  0.3888  0.1184
  619W        W 4683   2.611   1.021  11.092 -0.1182  0.0398 -0.1117
  620W        W 4684  10.216   8.041  10.500  0.0580  0.0725 -0.0180
  621W        W 4685   2.087   4.358   0.553  0.0411  0.0713  0.2174
  622W        W 4686   2.110   5.848   1.842 -0.0647 -0.2880 -0.1787
  623W        W 4687   8.186   8.945  10.067  0.0167 -0.2574 -0.0517
  624W        W 4688   2.602   5.185   0.278 -0.3189 -0.0879  0.1540
  625W        W 4689   2.691   6.638  10.534  0.4027  0.1632  0.1377
  626W        W 4690   6.280   3.550  10.783 -0.0470  0.2533  0.2826
  627W        W 4691   7.809   2.362   1.238 -0.0640 -0.0025  0.0710
  628W        W 4692   3.950   0.220   8.573  0.1391  0.0887 -0.1645
  629W        W 4693   2.184   8.034   0.223  0.0779 -0.1325  0.1143
  630W        W 4694   5.356   0.551   2.817  0.0988  0.3982  0.2135
  631W        W 4695   7.945   1.461   8.823 -0.1958 -0.0918 -0.0770
  632W        W 4696   7.404   7.824   1.090  0.1687 -0.2226 -0.1881
  633W        W 4697   3.079   5.153  10.907  0.1027 -0.0877 -0.0661
  634W        W 4698  10.508   7.403   0.889  0.0663 -0.3396  0.1208
  635W        W 4699   2.213   4.502   2.024  0.0048  0.0433  0.0567
  636W        W 4700   4.442   4.256   3.953 -0.0253 -0.0603  0.0569
  637W        W 4701   2.594   9.527   9.190 -0.0994  0.1776 -0.0918
  638W        W 4702   9.587   6.937  10.096  0.0099  0.0686 -0.2453
  639W        W 4703   2.791   2.307  10.283  0.1875 -0.1934 -0.1230
  640W        W 4704  10.613   6.457   9.099  0.0252  0.0309  0.1631
  641W        W 4705   9.951   4.822   2.935 -0.0203  0.0756 -0.1723
  642W        W 4706   9.431   0.696   2.989  0.1755  0.2985  0.0795
  643W        W 4707  10.296   6.843  10.631  0.0275  0.0654  0.0384
  644W        W 4708   2.689   5.926   7.633  0.1193  0.0068  0.0642
  645W        W 4709   5.994   5.073   8.982  0.0140 -0.0660  0.0547
  646W        W 4710   6.656   3.013   8.697  0.2545 -0.0622  0.0542
  647W        W 4711   7.210  10.583  11.419  0.0086 -0.1262  0.0394
  648W        W 4712   4.210   0.100  10.697  0.0740 -0.2352 -0.3561
  649W        W 4713   3.164   7.094   8.223 -0.2104  0.1596  0.1178
  650W        W 4714   9.981   5.010   2.068 -0.0630 -0.1640 -0.0920
  651W        W 4715   6.822   4.098   7.874  0.0976  0.0009  0.0978
  652W        W 4716  10.530   7.051   8.263 -0.1770  0.1676  0.2456
  653W        W 4717   3.546   1.558   0.848 -0.0916  0.0632  0.1339
  654W        W 4718   3.250   1.729  11.186 -0.0060 -0.1094  0.2833
  655W        W 4719   7.491   7.937   3.725 -0.3904  0.2955  0.1022
  656W        W 4720   4.472  10.114  10.187  0.0394  0.3260  0.3412
  657W        W 4721   9.891   6.438   7.866  0.2479 -0.0575 -0.1240
  658W        W 4722   1.238   4.698  10.049 -0.0739  0.4630 -0.0350
  659W        W 4723   7.805   9.129   1.384 -0.2248 -0.1213  0.2085
  660W        W 4724   7.271   1.344   2.616 -0.2942  0.2217  0.1727
  661W        W 4725  10.559   2.001   8.696 -0.0179  0.1881  0.1583
  662W        W 4726   4.962   8.497  10.950  0.0823  0.0752  0.2944
  663W        W 4727   6.751   3.068   2.839 -0.2789 -0.1895  0.2125
  664W        W 4728   1.883   4.127   9.569  0.0979 -0.0463 -0.1541
  665W        W 4729   1.826   8.673   8.178  0.0518 -0.3357  0.0988
  666W        W 4730   5.289   9.069   2.251 -0.3268  0.3361 -0.2797
  667W        W 4731  10.173  10.261   3.151 -0.0282  0.2799 -0.0372
  668W        W 4732   9.649   1.145  11.493  0.0061 -0.0862  0.0809
  669W        W 4733   6.058   4.502   0.977  0.0890  0.2612  0.0491
  670W        W 4734   9.589   5.019   1.788 -0.1020 -0.0523 -0.3285
  671W        W 4735   4.583   7.745  10.828  0.0186  0.1419 -0.1306
  672W        W 4736   8.443   8.149  10.629 -0.0426  0.0479  0.1366
  673W        W 4737   6.488   7.390   3.885  0.0123  0.1224  0.0724
  674W        W 4738   8.763   7.632   1.238 -0.0760 -0.1455 -0.2886
  675W        W 4739   3.571   4.131  11.434  0.3650 -0.2453 -0.0763
  676W        W 4740   5.813   0.477   3.189 -0.0531  0.3949  0.2181
  677W        W 4741  10.387   0.455   2.847 -0.2106 -0.0267 -0.1450
  678W        W 4742   6.209   3.011  10.703  0.0018 -0.1227 -0.1368
  679W        W 4743   7.724  10.582   9.957 -0.1896  0.1906 -0.0462
  680W        W 4744   7.233   0.144   8.244  0.0901  0.1763 -0.2192
  681W        W 4745   7.393   9.265   9.725 -0.2632 -0.1270  0.2715
  682W        W 4746   9.565   2.603   8.636 -0.0368  0.1894  0.1888
  683W        W 4747   2.289   3.522   1.956 -0.3614  0.3048  0.0747
  684W        W 4748   9.763   9.347  10.764 -0.1028 -0.2763  0.2825
  685W        W 4749   8.559   1.279  10.589  0.2586  0.1170  0.3447
  686W        W 4750   3.745   0.584   3.439 -0.0138 -0.0958 -0.0571
  687W        W 4751  10.572   5.338   1.058  0.2737 -0.0522  0.0272
  688W        W 4752   6.330   8.617   1.557  0.0301  0.0633 -0.0638
  689W        W 4753   5.197   9.337   8.807 -0.1640  0.4338 -0.1286
  690W        W 4754   1.730   3.915   1.286  0.3850  0.0868  0.0918
  691W        W 4755  10.505  10.050   0.299 -0.1400  0.0738  0.3453
  692W        W 4756   9.236   2.255   9.161  0.2041  0.0766 -0.0983
  693W        W 4757   5.617   7.477   0.326  0.1295  0.0064  0.1474
  694W        W 4758   4.624   8.256  10.697  0.3685 -0.0055 -0.2474
  695W        W 4759   1.757   1.473   1.439 -0.1681  0.0575 -0.0334
  696W        W 4760   2.647   6.160   0.121  0.2403 -0.0245 -0.0122
  697W        W 4761   1.414   8.061   9.806 -0.0183  0.0514 -0.1299
  698W        W 4762   0.915   6.707   0.430 -0.1368  0.0737 -0.0212
  699W        W 4763   4.613   8.371   0.938 -0.0523  0.2795 -0.1316
  700W        W 4764   4.089   3.202   1.080 -0.1195 -0.0763 -0.0086
  701W        W 4765   7.898   5.965   0.650 -0.1081  0.1612  0.1845
  702W        W 4766   6.296   0.368   0.793 -0.0872 -0.0852  0.0315
  703W        W 4767   4.183   7.912   7.867  0.1701 -0.0189  0.0468
  704W        W 4768   7.057   7.723   0.726  0.1492  0.0851 -0.4468
  705W        W 4769   4.245   1.211   7.679 -0.0697 -0.2160  0.2147
  706W        W 4770   0.904   6.569  10.942 -0.0596 -0.2439  0.0288
  707W        W 4771   7.686   9.958   3.312 -0.0882 -0.0504  0.0159
  708W        W 4772   3.427   4.859  10.674  0.1041 -0.0432 -0.3108
  709W        W 4773   4.549   0.992   0.661  0.4334 -0.0370 -0.5073
  710W        W 4774   4.788   8.949  11.000  0.2358  0.2234 -0.1157
  711W        W 4775  10.412   2.900   9.759 -0.1403 -0.3033 -0.0838
  712W        W 4776   3.724   3.121   0.690 -0.3635  0.1794 -0.0577
  713W        W 4777   7.502   2.531   1.609 -0.2545  0.1836 -0.1407
  714W        W 4778   8.095   9.680   3.121 -0.2988  0.0639  0.0566
  715W        W 4779   9.446  10.612   2.108  0.1012 -0.1603 -0.6214
  716W        W 4780   8.664   1.706   1.487  0.1860  0.0488 -0.1131
  717W        W 4781  10.541   3.450   1.318 -0.0889  0.0520  0.1721
  718W        W 4782   3.105   6.018  10.342  0.1471  0.0692 -0.0326
  719W        W 4783   4.312   1.230   1.420 -0.0247 -0.1200 -0.1246
  720W        W 4784   4.044   7.139   9.459 -0.3250  0.2058 -0.2695
  721W        W 4785   8.497   1.110   2.146 -0.1878 -0.2231 -0.2196
  722W        W 4786   5.098   3.522   0.111 -0.0386  0.1872 -0.3110
  723W        W 4787   7.202   3.488   2.969  0.1492 -0.0729 -0.0261
  724W        W 4788   7.631   0.116   4.021 -0.2512 -0.1444 -0.2252
  725W        W 4789   9.255   3.934   2.214 -0.0018 -0.1081 -0.1418
  726W        W 4790   2.788   0.567   3.336 -0.1832 -0.2784 -0.0213
  727W        W 4791   6.339   7.905   8.830  0.2772  0.1241  0.0234
  728W        W 4792   6.995   2.522   2.133  0.3540  0.0347  0.1843
  729W        W 4793   5.003   0.344   2.432  0.0701  0.1198 -0.2364
  730W        W 4794   3.218   4.360  10.719  0.4723  0.1877 -0.0791
  731W        W 4795   9.939   3.075   8.054  0.1161 -0.2541  0.2221
  732W        W 4796   4.626   0.864   7.851 -0.2766  0.3310 -0.0118
  733W        W 4797   3.366   7.931  11.534 -0.0314 -0.0068 -0.3395
  734W        W 4798   2.502   8.543  11.583 -0.0438  0.1970 -0.0515
  735W        W 4799   8.021  10.326   9.600 -0.0188  0.2015  0.0625
  736W        W 4800   7.484   7.457   2.029 -0.0016 -0.0447 -0.2963
  737W        W 4801   2.513   4.824  10.323  0.0377 -0.0686 -0.0017
  738W        W 4802   6.974   2.825  10.738  0.1555  0.1057 -0.1673
  739W        W 4803   0.579   6.170   3.740 -0.0200  0.2286  0.0748
  740W        W 4804  10.546   1.406   2.608  0.0022  0.0611  0.1885
  741W        W 4805   3.290   0.150   2.426  0.2733  0.3965 -0.0053
  742W        W 4806   5.184   2.611   3.840 -0.2609  0.1626 -0.1398
  743W        W 4807   9.309  10.289   0.566 -0.0023  0.2769 -0.0713
  744W        W 4808   2.708   1.502   0.798 -0.3241  0.2385  0.0064
  745W        W 4809   4.288   5.788   8.906 -0.1678  0.4261 -0.1878
  746W        W 4810   6.758   5.509   1.771 -0.0015 -0.4978 -0.0411
  747W        W 4811   5.881   2.974   0.010  0.4220  0.1227  0.0152
  748W        W 4812   3.522   9.046  11.351 -0.0248 -0.3543 -0.1550
  749W        W 4813   7.138   2.878   9.146  0.0217 -0.3818  0.0374
  750W        W 4814   2.641   9.469   9.751  0.1919  0.1499 -0.1195
  751W        W 4815  10.487   9.400  10.508 -0.2752  0.0639  0.0491
  752W        W 4816   3.151   6.907  10.590  0.0740  0.0840  0.0174
  753W        W 4817   7.631   4.407   1.973 -0.0123  0.2404  0.2493
  754W        W 4818  10.061   9.788   3.033 -0.4050 -0.0541 -0.4107
  755W        W 4819   1.375   5.808  10.504  0.0478 -0.1926  0.1656
  756W        W 4820   1.281   2.230   1.900 -0.3471 -0.0249  0.0556
  757W        W 4821   4.249   8.571  10.913 -0.0509 -0.0213  0.1273
  758W        W 4822   6.745   6.715   0.967 -0.1268 -0.1209  0.1079
  759W        W 4823   1.160   3.273   9.608  0.2715 -0.1316 -0.1129
  760W        W 4824   5.050   2.043   9.942  0.3670 -0.0190 -0.0021
  761W        W 4825   1.107   5.679   4.088 -0.0194  0.0879 -0.2269
  762W        W 4826   8.663   3.464   9.529  0.0662 -0.0313  0.1476
  763W        W 4827   4.455   1.582  11.038 -0.0920  0.1272 -0.1657
  764W        W 4828   7.475   6.126   0.782 -0.0976 -0.4893  0.4949
  765W        W 4829   1.171   8.403   1.417 -0.1035  0.0694  0.0664
  766W        W 4830   7.555   1.218   1.600  0.1261 -0.1382 -0.2475
  767W        W 4831   4.427   7.861   1.861 -0.2348 -0.0249  0.1074
  768W        W 4832   7.502   6.413  11.009 -0.1422  0.0155  0.1102
  769W        W 4833   7.109   1.900   0.897  0.2757  0.1243  0.2773
  770W        W 4834   9.012   6.437  11.113 -0.1344 -0.1116  0.1006
  771W        W 4835   1.265   9.749   0.545 -0.1639 -0.4981 -0.1290
  772W        W 4836   6.469   0.477  10.281  0.0300  0.0151 -0.2622
  773W        W 4837   9.282   9.661   9.576 -0.0320  0.0260 -0.0680
  774W        W 4838   3.481   8.759   2.872 -0.0535 -0.1142 -0.2756
  775W        W 4839   3.666   9.947   8.355 -0.5225  0.0390 -0.2240
  776W        W 4840   5.262   3.681  10.345  0.3655 -0.1331 -0.2253
  777W        W 4841   8.394   0.060   1.792  0.0472  0.1678  0.0564
  778W        W 4842   7.881   5.080  11.192  0.0333  0.1768  0.1270
  779W        W 4843   2.066  10.630   0.467 -0.0155  0.2017  0.2218
  780W        W 4844   0.770   2.809   3.520  0.2262 -0.0203 -0.0967
  781W        W 4845   4.233   7.395  11.520  0.2791  0.0111  0.0428
  782W        W 4846   1.834   3.044   0.870 -0.1232 -0.1173 -0.2633
  783W        W 4847   2.520   4.202   0.258 -0.1894 -0.1431  0.2673
  784W        W 4848   9.392  10.195   1.790  0.1985  0.0766 -0.2035
  785W        W 4849   8.227   1.775   9.084  0.0612 -0.0406 -0.2226
  786W        W 4850   7.913   5.578  11.317  0.2646 -0.0584 -0.2626
  787W        W 4851   7.668   5.360   9.593  0.2855  0.0891  0.0293
  788W        W 4852   7.378   2.180   0.364  0.0589  0.2535  0.4521
  789W        W 4853   0.523   4.293   2.429 -0.3261 -0.2123  0.3006
  790W        W 4854   8.409   3.526   2.688  0.0024  0.2008  0.0760
  791W        W 4855   3.404   2.505  11.067 -0.1544 -0.3069 -0.1683
  792W        W 4856   5.778  10.013  10.052 -0.0295 -0.1782 -0.3440
  793W        W 4857   8.096   0.047   8.499  0.2521  0.1616  0.2192
  794W        W 4858   4.327   9.529   9.430  0.0437 -0.2625  0.0221
  795W        W 4859   8.249   0.373   9.095 -0.3016  0.0177  0.0058
  796W        W 4860   5.674   1.698   3.557  0.0775 -0.1534  0.1947
  797W        W 4861   7.583   6.703  10.034  0.1756  0.0042  0.2044
  798W        W 4862   4.166   4.819   1.792  0.1465 -0.1101  0.2792
  799W        W 4863   4.483   8.428   3.125  0.1426  0.0862  0.0106
  800W        W 4864   5.673  10.547   8.908  0.1501  0.1123 -0.0329
  801W        W 4865   9.059   6.284   1.900 -0.1710  0.2590 -0.2356
  802W        W 4866   4.803   2.566   8.698 -0.0818 -0.2909  0.0513
  803W        W 4867   1.342   6.812   3.392 -0.0115 -0.2556 -0.2662
  804W        W 4868   1.519   0.829  10.389  0.1103  0.1099 -0.3696
  805W        W 4869   9.367   4.134   8.629  0.1571  0.2679  0.1051
  806W        W 4870   6.781   3.147   9.920 -0.1402 -0.2580  0.1335
  807W        W 4871   9.953   8.158   8.935  0.1257 -0.2135  0.1150
  808W        W 4872   6.051   5.298   4.166  0.0562 -0.0902 -0.0686
  809W        W 4873   3.428   2.223   3.032 -0.1136 -0.1589 -0.0628
  810W        W 4874   2.333   5.102   0.717  0.2304 -0.0083 -0.0668
  811W        W 4875  10.474   9.515   2.861  0.0827  0.1046  0.1640
  812W        W 4876   1.384   0.643   2.612 -0.0950 -0.1941 -0.0613
  813W        W 4877   9.803   7.303   9.653 -0.0791  0.0863 -0.2258
  814W        W 4878   3.886   7.149  11.275 -0.0574  0.2072  0.1440
  815W        W 4879   3.850   5.932   2.289  0.0737  0.4309  0.0498
  816W        W 4880   0.484   6.308  11.044  0.2571 -0.0549  0.0821
  817W        W 4881   2.951   4.704  10.888 -0.0606 -0.0351 -0.4387
  818W        W 4882   4.175   8.154   2.707 -0.2727  0.0204  0.1661
  819W        W 4883   6.609   2.145   8.851 -0.1584  0.1121  0.1945
  820W        W 4884   8.426   0.633  10.104  0.1718 -0.0044  0.2638
  821W        W 4885  10.403   5.633   8.327 -0.0657  0.1264 -0.1395
  822W        W 4886   8.279   2.042   0.319  0.0549  0.2942 -0.1471
  823W        W 4887   9.717  10.321   9.088 -0.0364  0.2006 -0.0531
  824W        W 4888   6.035   9.716   1.136 -0.2574 -0.1324 -0.0343
  825W        W 4889   7.319   0.741   8.791 -0.2036  0.1151  0.1327
  826W        W 4890   9.641   2.279   3.144 -0.2381 -0.0888 -0.0490
  827W        W 4891   2.182   4.415  11.575  0.1434 -0.0383  0.1938
  828W        W 4892   9.657   4.920   3.746 -0.1154 -0.1596  0.0536
  829W        W 4893   3.189   5.410   8.443 -0.1436  0.1202 -0.2431
  830W        W 4894   1.205   7.706   4.078  0.1527 -0.3473  0.1138
  831W        W 4895   0.512   6.179   8.354 -0.0160 -0.0082  0.3574
  832W        W 4896   1.337   4.875   0.697  0.0718 -0.1293  0.1174
  833W        W 4897   5.020   4.402   0.214  0.0542  0.3364 -0.2256
  834W        W 4898   3.580   0.939   3.048  0.4592 -0.1784  0.0330
  835W        W 4899   5.500   5.381   9.866  0.1270 -0.1495 -0.0225
  836W        W 4900   9.342   0.776   2.502 -0.2151  0.0006 -0.1355
  837W        W 4901   4.780   1.302   1.929  0.2122  0.0722  0.1204
  838W        W 4902   4.575   5.181   2.730 -0.0616 -0.0272  0.2897
  839W        W 4903   7.883   4.764   0.058  0.3331 -0.0384 -0.0224
  840W        W 4904   0.459   7.806   0.443  0.1689 -0.1650  0.1087
  841W        W 4905   0.893   4.002   0.405  0.0084 -0.1146  0.0493
  842W        W 4906   4.336  10.456   3.426  0.3821 -0.2921 -0.0908
  843W        W 4907   4.182   9.056   0.948 -0.1379  0.0671 -0.0241
  844W        W 4908   7.413   1.465  10.882  0.3216  0.4463 -0.1980
  845W        W 4909   0.479   9.817  10.598 -0.0683 -0.0350 -0.0815
  846W        W 4910   6.820   0.975   2.253 -0.1175 -0.0975  0.1582
  847W        W 4911   8.673   6.298   9.689 -0.0816 -0.1440  0.0959
  848W        W 4912   4.842  10.270   9.878 -0.0637  0.2706 -0.0982
  849W        W 4913   1.860   5.999   1.264  0.0685 -0.0416 -0.1570
  850W        W 4914   5.453   4.413  11.357 -0.0134  0.1769 -0.0079
  851W        W 4915   1.641   4.010  10.818  0.0478  0.1762 -0.1833
  852W        W 4916   2.289   6.838   1.731  0.0347  0.0040 -0.1228
  853W        W 4917  10.326   7.125   8.767  0.2439  0.0917  0.1906
  854W        W 4918   4.449   6.048  10.285 -0.0511 -0.0281 -0.0778
  855W        W 4919   2.655   4.966   2.977 -0.1663 -0.3568  0.1652
  856W        W 4920   2.730   4.318   2.873 -0.0287  0.1304  0.0900
  857W        W 4921  10.049   4.669   8.421 -0.0894  0.0604  0.0894
  858W        W 4922   4.579   4.095   1.245  0.1134  0.0612  0.1601
  859W        W 4923   5.723  10.129   1.206 -0.0675  0.2737 -0.0949
  860W        W 4924   2.795   8.217   0.434  0.2713  0.0281 -0.0358
  861W        W 4925   1.702   2.990   3.504  0.1956 -0.0332 -0.0225
  862W        W 4926   4.600   7.114   9.271 -0.0194 -0.0271  0.1904
  863W        W 4927   4.175   3.710  10.099  0.1005  0.3176 -0.1204
  864W        W 4928   0.567   7.056   9.596  0.0882 -0.3348  0.1690
  865W        W 4929   5.308   9.296   9.868  0.1414  0.3823 -0.1687
  866W        W 4930   1.219   7.550   3.179 -0.2639  0.0067  0.2517
  867W        W 4931   7.006   6.903   2.551  0.0590  0.2971  0.1551
  868W        W 4932   5.772   1.551   8.466 -0.2227 -0.2536  0.0953
  869W        W 4933   4.385   2.263   8.889  0.1111 -0.0281 -0.2958
  870W        W 4934   4.765   9.213   0.284 -0.2867 -0.1423 -0.2834
  871W        W 4935   2.738   9.733   8.145  0.1905 -0.1730 -0.0507
  872W        W 4936   9.438   0.414  11.446 -0.0037 -0.0868  0.0016
  873W        W 4937   2.297   4.744   4.214  0.0357  0.1103 -0.0509
  874W        W 4938   8.042   5.037   9.496  0.2806  0.2203  0.1923
  875W        W 4939   1.241   0.904   9.525 -0.3614  0.2500  0.1231
  876W        W 4940  10.289   6.007   8.683 -0.0093  0.2375  0.2493
  877W        W 4941   2.611   7.210   2.299 -0.2010  0.2378  0.2262
  878W        W 4942   2.500   4.383  11.039  0.2547 -0.0637  0.1831
  879W        W 4943   7.723   2.126   8.009  0.0217  0.0433  0.1079
  880W        W 4944   5.360   0.916  11.125 -0.2359 -0.0036  0.0249
  881W        W 4945   6.659   4.401   9.912  0.1058  0.0020  0.0056
  882W        W 4946   0.096   4.394   0.084  0.0219  0.0835 -0.0192
  883W        W 4947   7.196   3.562  11.214  0.0537 -0.0330 -0.1863
  884W        W 4948   5.117   7.650   3.267  0.0438 -0.3966  0.0049
  885W        W 4949   8.306   8.089  11.121  0.0516 -0.1980 -0.1798
  886W        W 4950   4.298   0.681   1.851  0.0715 -0.3945 -0.0821
  887W        W 4951   1.183   2.067  10.029  0.1578 -0.0846 -0.2899
  888W        W 4952   4.434  10.411   2.348 -0.0963 -0.0843 -0.0129
  889W        W 4953   1.136   0.358   8.896  0.1255 -0.2852  0.3438
  890W        W 4954   1.139   7.766   8.635  0.2396  0.1542 -0.1419
  891W        W 4955   9.660   8.429   9.887 -0.2050  0.3289 -0.1404
  892W        W 4956   3.291   0.109   0.121  0.1885 -0.0995 -0.1271
  893W        W 4957  10.593   4.079   8.155 -0.0130 -0.2522 -0.1462
  894W        W 4958   5.641   2.515   0.109  0.0288  0.1688  0.0848
  895W        W 4959  10.082   3.014   3.359 -0.3084  0.1566  0.1321
  896W        W 4960   6.868   7.983   2.219 -0.1909 -0.1421  0.0963
  897W        W 4961   5.817   8.153   8.888 -0.0395  0.2154  0.3792
  898W        W 4962   9.306   2.889   0.394 -0.0852 -0.1312  0.0051
  899W        W 4963   0.331   0.616  11.231  0.0648 -0.0771 -0.1454
  900W        W 4964   2.989   9.788   9.962  0.1712 -0.0903 -0.0966
  901W        W 4965   1.858   1.960   9.276  0.3264  0.1066  0.0037
  902W        W 4966   0.770   4.935  10.283  0.2132  0.1967 -0.0174
  903W        W 4967   7.976   4.946   2.667  0.1268 -0.0495  0.0499
  904W        W 4968   3.135   5.037   2.819  0.1598 -0.1049  0.0363
  905W        W 4969   4.941   8.011   0.933  0.1839 -0.2071  0.3045
  906W        W 4970   1.606   0.119   2.786  0.0248  0.0495 -0.2260
  907W        W 4971   5.100   2.437   4.269 -0.1037  0.4034  0.2595
  908W        W 4972   5.878   3.839   0.344 -0.5632  0.1235 -0.0755
  909W        W 4973   0.908   2.092   8.520 -0.1010  0.1599  0.1676
  910W        W 4974   0.539   9.783   9.111 -0.0112  0.3226  0.0153
  911W        W 4975   8.146   0.098  10.918  0.0843  0.3103 -0.0909
  912W        W 4976   6.939   0.317  11.563  0.2569  0.2590 -0.1994
  913W        W 4977   4.968   7.568   2.763  0.0402  0.0339 -0.0948
  914W        W 4978   6.160   0.837   1.060  0.1479 -0.1418 -0.1550
  915W        W 4979   3.943  10.175   2.265 -0.3319  0.0468  0.0049
  916W        W 4980   8.406   0.277  11.433  0.3883  0.1777 -0.1144
  917W        W 4981   5.875   4.329   0.237 -0.1019  0.0795  0.1185
  918W        W 4982   8.677   9.590   1.735  0.2319  0.0868  0.0361
  919W        W 4983   3.517   9.559   0.706 -0.1333 -0.1500  0.1176
  920W        W 4984   0.637   7.731  10.587  0.2873 -0.3012 -0.0714
  921W        W 4985   0.290  10.113   1.814  0.2177  0.1756  0.3805
  922W        W 4986   3.990   3.044   3.063  0.0855  0.2515 -0.0784
  923W        W 4987   2.799   7.722   1.998  0.3359  0.4465 -0.1872
  924W        W 4988   1.083   4.643   9.008 -0.0263  0.0262  0.1084
  925W        W 4989   4.921   4.154  11.031  0.1978  0.3664 -0.3609
  926W        W 4990   3.273   8.757   9.462  0.3514  0.1327 -0.1209
  927W        W 4991  10.159   1.570  11.171 -0.1851 -0.2135  0.0924
  928W        W 4992   5.596   6.338   9.496  0.2194  0.0870 -0.2926
  929W        W 4993   4.369  10.499   8.731  0.3623  0.2105 -0.1487
  930W        W 4994   3.774   4.472   1.726  0.2392 -0.1923  0.2594
  931W        W 4995   4.829   4.048   8.644 -0.0629 -0.0275 -0.2151
  932W        W 4996   5.535   5.882   8.431  0.2563  0.0249  0.0576
  933W        W 4997   1.345   6.016   8.837  0.2355 -0.0566 -0.0449
  934W        W 4998   3.279   1.744   2.776 -0.4878  0.2335  0.1352
  935W        W 4999   2.878   3.199   0.167 -0.2083 -0.1249 -0.1307
  936W        W 5000   7.747   9.485   8.862 -0.1162 -0.0861  0.0824
  937W        W 5001   8.911   0.299   7.885 -0.0138  0.1927 -0.0819
  938W        W 5002   3.034   1.178   7.365 -0.4258  0.1071  0.2365
  939W        W 5003   6.510   0.061   8.336 -0.1540 -0.1131 -0.3267
  940W        W 5004   8.386   6.882   9.314 -0.1259  0.1955 -0.0676
  941W        W 5005   2.172   2.957   3.385  0.1360 -0.0981 -0.1196
  942W        W 5006   5.520   4.516   7.922 -0.2139 -0.0620 -0.0929
  943W        W 5007   3.251   9.703  10.598 -0.0469 -0.1366  0.6044
  944W        W 5008   3.216   9.337  11.092 -0.2760  0.1369  0.1282
  945W        W 5009   4.383   5.044  10.420 -0.1551 -0.0241 -0.0801
  946W        W 5010   8.769   1.099   0.247 -0.1888  0.0669 -0.1884
  947W        W 5011   0.100   8.065   0.229  0.1079 -0.2489  0.0891
  948W        W 5012   7.449   2.776  10.654  0.2185 -0.0280  0.0887
  949W        W 5013   1.551   5.617   9.961 -0.0515 -0.1499  0.1800
  950W        W 5014   1.725   2.546   2.728  0.1304 -0.0656  0.4014
  951W        W 5015   1.730   5.523   1.886 -0.0952  0.1227  0.0784
  952W        W 5016   9.641   3.844   3.249  0.0575  0.2353  0.0147
  953W        W 5017   8.582   8.600   1.510 -0.1437 -0.2601  0.0319
  954W        W 5018   3.376   5.371   9.603  0.0260 -0.1016  0.2051
  955W        W 5019   7.350   3.638  10.266 -0.2807 -0.1534  0.1677
  956W        W 5020   2.454   6.347   2.526  0.0817 -0.1680 -0.0486
  957W        W 5021  10.386   4.731   7.494  0.2438  0.0212  0.2090
  958W        W 5022  10.053   2.687   8.438 -0.1266 -0.0475 -0.0975
  959W        W 5023   6.036   0.510   1.925 -0.3580 -0.0932  0.3519
  960W        W 5024   5.877   7.778   8.574  0.2060 -0.0996  0.1324
  961W        W 5025   1.885   5.981  10.386  0.0270 -0.0685  0.1990
  962W        W 5026   6.984   6.056   1.646 -0.0055 -0.0202 -0.0167
  963W        W 5027   2.940   0.669  10.024 -0.1001  0.2960 -0.1934
  964W        W 5028   6.871   0.616  10.682 -0.4848 -0.2396 -0.1231
  965W        W 5029   8.460   1.695   2.760  0.0708 -0.1713 -0.0966
  966W        W 5030   2.046   9.393   9.096  0.0378 -0.2597 -0.0614
  967W        W 5031   1.051   4.317   2.178  0.0619 -0.0919 -0.1002
  968W        W 5032   4.089   4.723  11.244  0.3974  0.0387 -0.0023
  969W        W 5033   3.125   2.341   4.151  0.1518 -0.2596  0.2969
  970W        W 5034  10.508   0.204   2.193  0.0487  0.2350 -0.0820
  971W        W 5035   0.196   8.805   9.048  0.2207  0.1466 -0.0945
  972W        W 5036   3.900   6.890   4.184 -0.0161 -0.2056 -0.2535
  973W        W 5037   2.309   1.654   7.905 -0.0092  0.0180  0.1237
  974W        W 5038   7.635   7.377   2.918 -0.1490 -0.1425  0.3165
  975W        W 5039   0.165   4.665  10.036 -0.3716 -0.1553 -0.0540
  976W        W 5040   3.964   2.132  10.600  0.1238 -0.0019 -0.1764
  977W        W 5041   9.477   9.679  10.443 -0.0456 -0.4261  0.0139
  978W        W 5042   3.377   5.600   3.852  0.1788 -0.0119  0.0587
  979W        W 5043   6.722   1.701  10.162 -0.4213  0.2535  0.1830
  980W        W 5044   5.472   4.977  10.658 -0.0812 -0.0455  0.1965
  981W        W 5045   6.203   3.864   9.514  0.3681 -0.0880 -0.1652
  982W        W 5046   1.413   8.862   3.378  0.4528  0.0636  0.2545
  983W        W 5047   4.682   8.349   2.009 -0.2257  0.1756 -0.2336
  984W        W 5048   0.398   6.166   1.263  0.1829 -0.0095 -0.2157
  985W        W 5049   2.517   7.336   2.747  0.0589  0.0186 -0.2225
  986W        W 5050   4.181   2.057  10.123 -0.2281 -0.0419  0.0690
  987W        W 5051   0.342  10.202   8.379 -0.4224  0.2445 -0.0547
  988W        W 5052   3.557   3.908   1.903 -0.2186 -0.0643 -0.1114
  989W        W 5053   7.798   4.086   9.103 -0.0670 -0.3636 -0.1507
  990W        W 5054   5.701  10.265   3.428  0.1182  0.0155  0.1924
  991W        W 5055   3.878  10.351   1.739  0.0106  0.4498  0.0068
  992W        W 5056   6.462   9.311   9.412  0.2476 -0.5282  0.0777
  993W        W 5057   5.756   8.806  11.552 -0.2340  0.0909  0.0303
  994W        W 5058   7.978   9.842   9.778  0.0704 -0.2335 -0.1449
  995W        W 5059   4.193   3.857   3.523  0.1595  0.3449  0.2125
  996W        W 5060   0.724   1.384  10.023  0.1420 -0.1403 -0.4323
  997W        W 5061   6.349   3.576   1.389  0.0246  0.3071 -0.2294
  998W        W 5062   3.683   1.420   8.992 -0.0338  0.1322 -0.2158
  999W        W 5063   5.142   6.882   1.077  0.0448 -0.0328 -0.0420
 1000W        W 5064   7.983   3.352   0.106  0.3081 -0.2255 -0.1594
 1001W        W 5065  10.231   1.505   8.782 -0.2217  0.1650  0.0273
 1002W        W 5066   9.737   1.866   2.191  0.1051  0.0912 -0.0043
 1003W        W 5067   6.570   4.364   0.927 -0.1123 -0.0061 -0.0968
 1004W        W 5068   0.649   1.799   2.612  0.0742  0.0311  0.1418
 1005W        W 5069   1.332   3.692  11.344 -0.2140 -0.0745 -0.1232
 1006W        W 5070   0.804   5.905  10.210 -0.1503  0.2926 -0.1857
 1007W        W 5071   9.975   7.835   2.177 -0.0314 -0.0606 -0.0422
 1008W        W 5072   9.722   7.986  10.357 -0.0585 -0.0633  0.2250
 1009W        W 5073   4.258   2.279   1.191 -0.1318  0.5148  0.1441
 1010W        W 5074   0.643   7.445   9.909 -0.2339  0.2776  0.1202
 1011W        W 5075   2.247   8.160   1.594  0.2106  0.3316 -0.1804
 1012W        W 5076   0.968  10.551   7.685  0.2436  0.1137 -0.0997
 1013W        W 5077   2.102   3.749   2.904 -0.2313  0.0584 -0.2167
 1014W        W 5078   6.292   2.571   9.907 -0.0094 -0.0514 -0.1357
 1015W        W 5079   5.190   2.884  11.073 -0.0332  0.1378 -0.1656
 1016W        W 5080   5.605   0.234   1.736 -0.0081 -0.1005 -0.0300
 1017W        W 5081   2.578   4.577   8.657  0.1224  0.0290  0.1996
 1018W        W 5082   0.031   9.083  11.090  0.0004 -0.1352 -0.0514
 1019W        W 5083   3.595   1.945   7.408 -0.1762 -0.1171  0.3709
 1020W        W 5084   3.128   7.401   2.165  0.3789  0.1792  0.1531
 1021W        W 5085   0.155  10.394   0.511  0.4227 -0.0601  0.1867
 1022W        W 5086   2.090   7.783   8.529  0.2456  0.0476  0.1781
 1023W        W 5087   8.725   0.302   9.802 -0.0000 -0.0157  0.0518
 1024W        W 5088   0.215   0.505   1.068 -0.1387  0.1665  0.3014
 1025W        W 5089   0.007   6.993   0.671  0.1576  0.2793  0.1488
 1026W        W 5090   0.306   1.771   9.183 -0.0004  0.1536 -0.3219
 1027W        W 5091   7.521   4.490  11.220  0.2679  0.0258 -0.0267
 1028W        W 5092   6.265   8.650   3.589  0.1638  0.3718  0.3583
 1029W        W 5093   1.444   0.509  10.812 -0.1610  0.2893 -0.0459
 1030W        W 5094   2.023   4.238   1.047  0.1987  0.1593  0.0816
 1031W        W 5095   6.008   2.576  10.936 -0.0607 -0.0560  0.1749
 1032W        W 5096   2.517   1.832   0.105  0.1971 -0.0017  0.2587
 1033W        W 5097   0.124   7.634  10.479  0.6911  0.0350 -0.2438
 1034W        W 5098   9.038   2.818   0.919  0.0722 -0.0999 -0.2968
 1035W        W 5099   0.851   1.006   1.678  0.0264 -0.1134  0.1311
 1036W        W 5100  10.164   5.746   1.147  0.0122  0.2014  0.0907
 1037W        W 5101   3.198   9.757   1.628  0.0209 -0.2740  0.1568
 1038W        W 5102  10.015   7.622   8.801  0.1273 -0.1322  0.1694
 1039W        W 5103   0.562   9.847  11.056 -0.0424  0.0352 -0.0167
 1040W        W 5104   6.588   6.821  10.039  0.2487 -0.0456 -0.2676
 1041W        W 5105   7.124   0.761  10.234 -0.2388  0.4345 -0.2383
 1042W        W 5106   9.551   2.481   9.522  0.1724  0.1159  0.2167
 1043W        W 5107   7.797   1.947   8.860  0.1020  0.3718 -0.0581
 1044W        W 5108   1.190  10.217   0.781  0.0010  0.0361 -0.3433
 1045W        W 5109   8.598  10.485   2.329 -0.0485  0.1278 -0.2259
 1046W        W 5110   1.534  10.567  10.839 -0.1185 -0.1749 -0.5148
 1047W        W 5111  10.118   2.212  10.617  0.2949  0.1444  0.0513
 1048W        W 5112   1.301   3.910   4.504  0.3353 -0.1252  0.0146
 1049W        W 5113   0.008   4.934   9.132  0.1652  0.1616  0.1055
 1050W        W 5114   0.227   6.229   0.253 -0.0658 -0.1675 -0.0260
 1051W        W 5115   2.519   1.410   0.349 -0.4121 -0.1205  0.0034
 1052W        W 5116  10.590   6.680   0.242 -0.0349 -0.2376 -0.0219
 1053W        W 5117  10.432   1.183  10.808 -0.0373 -0.0167 -0.2948
 1054W        W 5118   4.972   9.662   9.929  0.3158 -0.1108 -0.1831
 1055W        W 5119   8.877   4.049  10.776  0.1674 -0.2240 -0.2448
 1056W        W 5120   7.982   7.312  10.754  0.3243  0.3601 -0.0428
 1057W        W 5121   7.942   5.858   3.199  0.1801 -0.2608 -0.2251
 1058W        W 5122   6.158   5.307  10.601  0.1063 -0.3282  0.0901
 1059W        W 5123   1.649  10.306   2.377  0.0470 -0.1437 -0.4554
 1060W        W 5124   0.467   6.062  11.489 -0.0577  0.0644  0.5020
 1061W        W 5125   1.955   3.491   8.919 -0.0058  0.0677 -0.0965
 1062W        W 5126   3.197  10.602  10.374 -0.1141 -0.0013  0.0643
 1063W        W 5127   7.415  10.497   1.577 -0.3419 -0.2068  0.1196
 1064W        W 5128   2.118   8.625   0.408 -0.0789 -0.0478 -0.0878
 1065W        W 5129   5.107   4.659  10.346 -0.1352  0.1623 -0.0837
 1066W        W 5130   7.527   5.427   1.816  0.0955  0.0499  0.1297
 1067W        W 5131   8.419   1.285   9.096  0.1345 -0.1437  0.1515
 1068W        W 5132   8.489   2.422   9.697 -0.0628 -0.1718  0.0349
 1069W        W 5133   5.813   9.122   7.449 -0.2299 -0.1571  0.1011
 1070W        W 5134   9.479   1.762  10.039  0.3152 -0.0276  0.2225
 1071W        W 5135   6.326   4.160   9.107 -0.1309  0.1960 -0.2392
 1072W        W 5136   7.063   5.632   2.133 -0.1834  0.2402 -0.0521
 1073W        W 5137   1.844   6.357   2.481  0.1156 -0.1908  0.0140
 1074W        W 5138   0.021   3.443   9.219  0.2720 -0.0642  0.0382
 1075W        W 5139   4.564   5.388   0.794  0.2937  0.3116 -0.1067
 1076W        W 5140   6.455   7.541   9.667  0.1048  0.2277 -0.0199
 1077W        W 5141   0.206   6.352  10.350 -0.1542 -0.3805  0.3821
 1078W        W 5142   0.120   2.028   0.887  0.0882  0.2357 -0.5733
 1079W        W 5143   2.975   6.345   2.338  0.0376 -0.1395 -0.0071
 1080W        W 5144   1.278   2.035   4.004 -0.4741  0.2306 -0.0144
 1081W        W 5145   8.097   5.791  10.175  0.0966  0.1530 -0.1368
 1082W        W 5146   0.109  10.387   2.316 -0.1157 -0.1494  0.0391
 1083W        W 5147   6.192   5.678   0.351 -0.0952  0.2433  0.2504
 1084W        W 5148   9.933   9.375  10.270 -0.1713 -0.0535  0.0908
 1085W        W 5149   2.093   5.905   0.162 -0.0139  0.0161 -0.0099
 1086W        W 5150   8.480   3.766   3.143  0.0968  0.1793  0.0082
 1087W        W 5151   4.786   4.358   2.227 -0.0726 -0.1007  0.1246
 1088W        W 5152   7.215   0.277   3.194  0.2450 -0.0113 -0.0678
 1089W        W 5153   7.331   2.121   8.641 -0.1497 -0.3267  0.2638
 1090W        W 5154  10.491   9.002   4.578  0.0233  0.0242  0.0108
 1091W        W 5155   6.743   4.964   9.274 -0.1434  0.0254  0.2024
 1092W        W 5156   0.702   5.509   9.887  0.2317  0.2670 -0.0282
 1093W        W 5157   4.739   5.657   2.571 -0.0500 -0.0419  0.2015
 1094W        W 5158   4.126   0.667   1.381  0.2122  0.0644 -0.3187
 1095W        W 5159   8.056   1.073  11.235  0.0102  0.1215 -0.0581
 1096W        W 5160   9.589   1.484   1.304  0.2123 -0.0155  0.1798
 1097W        W 5161   8.460   2.890   1.453 -0.0520 -0.0968  0.0651
 1098W        W 5162   4.843   9.878   3.295  0.0348  0.2880  0.0736
 1099W        W 5163   9.003   7.448  11.252  0.0971 -0.1214  0.1688
 1100W        W 5164   9.622   3.418   8.142 -0.0406 -0.2582 -0.1849
 1101W        W 5165   5.081   3.433   3.779 -0.4306  0.4512 -0.2817
 1102W        W 5166   9.588   9.729   0.629  0.0001 -0.0575  0.2605
 1103W        W 5167   8.498   7.681   9.964  0.0212  0.0413 -0.0106
 1104W        W 5168   0.924   9.824   1.055  0.0505 -0.3320 -0.2422
 1105W        W 5169   8.708   9.115   9.032 -0.1398 -0.0214 -0.0313
 1106W        W 5170   3.096   5.532  10.636 -0.1461  0.1926  0.1613
 1107W        W 5171   3.878   2.935   4.124  0.2797 -0.2373 -0.1390
 1108W        W 5172   5.795   5.628  10.323  0.0027  0.0728 -0.2447
 1109W        W 5173   4.190   4.059  10.738  0.0179  0.0120 -0.0682
 1110W        W 5174   2.957   2.147   1.954  0.2873 -0.1488  0.1218
 1111W        W 5175   7.897   3.618   0.548  0.0024 -0.3297 -0.1185
 1112W        W 5176   0.477   7.968  10.098  0.1576 -0.1282 -0.0388
 1113W        W 5177   8.204   6.309   3.300 -0.1050  0.1606 -0.0156
 1114W        W 5178   8.367  10.262   8.744 -0.2921 -0.0487 -0.3079
 1115W        W 5179   8.798   6.982  11.500  0.3728 -0.1144 -0.2363
 1116W        W 5180   2.259   6.826  10.971  0.0637 -0.2265  0.4163
 1117W        W 5181   2.746   2.390   2.684  0.1200  0.0026 -0.1830
 1118W        W 5182   5.141   0.141   3.054 -0.0903 -0.0195  0.1035
 1119W        W 5183   1.926   0.636   1.173  0.4356  0.0564 -0.0039
 1120W        W 5184   7.645   1.038   7.908 -0.0494  0.1365 -0.1137
 1121W        W 5185   9.271   8.620   4.685  0.1853 -0.0755  0.0977
 1122W        W 5186   4.586   0.500   2.275  0.0296  0.1286  0.2041
 1123W        W 5187   7.153   3.141  10.332 -0.1623  0.0534  0.1476
 1124W        W 5188   7.359   1.694  11.456  0.3496  0.0801  0.1154
 1125W        W 5189   4.389   4.510  10.536  0.1125  0.2211  0.2520
 1126W        W 5190   6.845   9.573   8.130 -0.1600  0.1051 -0.1203
 1127W        W 5191   2.730   3.038   9.833  0.0716  0.2502 -0.1623
 1128W        W 5192   5.998   8.246   8.370 -0.1195 -0.1757  0.1025
 1129W        W 5193   8.401   3.250   9.924  0.0053 -0.3779 -0.3753
 1130W        W 5194   2.853   2.355   9.300  0.0529  0.0044  0.0235
 1131W        W 5195   1.735   9.708   2.169  0.0435  0.0039  0.2034
 1132W        W 5196   9.280   5.842  11.332  0.0441  0.0974 -0.1467
 1133W        W 5197  10.559   0.149   3.844  0.0479  0.0092 -0.2140
 1134W        W 5198   5.151   7.867   0.055 -0.1622  0.2064  0.1166
 1135W        W 5199   1.064   6.439   8.496  0.2382  0.2338 -0.2915
 1136W        W 5200   1.509   2.851  10.072 -0.0459  0.0042  0.2408
 1137W        W 5201   6.568   0.699   0.126 -0.1411 -0.0050  0.3519
 1138W        W 5202  10.220   3.731   9.344 -0.1668 -0.0148  0.1888
 1139W        W 5203   6.508   7.811   3.414  0.0532  0.2390 -0.1421
 1140W        W 5204  10.030   8.401   8.482  0.2723  0.0565  0.2290
 1141W        W 5205   2.807   1.433  10.519 -0.1104 -0.3831 -0.0836
 1142W        W 5206  10.528   2.794   8.600 -0.2349 -0.0634 -0.0739
 1143W        W 5207   1.048   8.192   2.647 -0.0069 -0.1325 -0.0587
 1144W        W 5208   7.039   1.367   1.693  0.0029  0.2152  0.1532
 1145W        W 5209   8.260   3.942   0.601 -0.1792 -0.3203 -0.0961
 1146W        W 5210   4.729   4.485   1.718 -0.0372 -0.2205 -0.2241
 1147W        W 5211   4.180   4.821   0.331 -0.2130 -0.0439 -0.0336
 1148W        W 5212   4.291   2.815   1.357  0.1289  0.0815 -0.0531
 1149W        W 5213   7.839   9.439   9.390  0.0199  0.1580 -0.1464
 1150W        W 5214   8.838   3.291   0.731 -0.0736 -0.0005 -0.0014
 1151W        W 5215   2.059   9.497   1.600 -0.1508  0.1900  0.0393
 1152W        W 5216   0.480   7.377  10.980 -0.0281 -0.1329 -0.6218
 1153W        W 5217   1.588   3.450   7.452 -0.0198  0.0670  0.0193
 1154W        W 5218   3.671   8.621   2.046  0.2015  0.0587  0.3721
 1155W        W 5219   5.428   2.395   2.452  0.0942 -0.0582 -0.0463
 1156W        W 5220   9.073   2.483   9.802 -0.3010 -0.2993 -0.2306
 1157W        W 5221   8.178   2.130   0.799 -0.1080 -0.1229  0.0486
 1158W        W 5222   6.352   4.197   0.147  0.0514  0.2798  0.3142
 1159W        W 5223   3.887   5.598  10.948  0.0049  0.0915 -0.0469
 1160W        W 5224   9.269  10.071   9.191  0.1917  0.2197 -0.1667
 1161W        W 5225   5.278  10.447   1.230  0.1547  0.2667  0.1032
 1162W        W 5226   3.554   6.261   0.199  0.1253  0.2770  0.2890
 1163W        W 5227   7.965   6.135   8.997 -0.2068 -0.0968 -0.3815
 1164W        W 5228   1.806   0.142   8.295 -0.0146  0.2221  0.3044
 1165W        W 5229   7.309   4.953   8.797  0.0686  0.0974 -0.0927
 1166W        W 5230   1.494   8.975   9.842 -0.1890 -0.0888  0.1579
 1167W        W 5231   7.516   3.522   0.244 -0.0550  0.1449  0.4568
 1168W        W 5232   7.031   6.962   1.391 -0.0472 -0.1606  0.7258
 1169W        W 5233   8.248   1.043   0.166  0.2851 -0.0372 -0.1978
 1170W        W 5234   9.661   3.276   2.769 -0.2032  0.0607 -0.0719
 1171W        W 5235   7.964   4.716   3.198 -0.0494  0.6041 -0.0636
 1172W        W 5236   7.702   1.679  10.438  0.0408  0.1639 -0.0631
 1173W        W 5237   6.133   5.614   2.259 -0.0184  0.1165  0.1896
 1174W        W 5238  10.008   9.626   9.776 -0.0660 -0.0550  0.2141
 1175W        W 5239   5.946   7.227   8.783  0.0566 -0.2249 -0.2283
 1176W        W 5240   0.969   9.095  11.424  0.2784 -0.0425 -0.2583
 1177W        W 5241   2.080   0.598   0.140  0.0180  0.3837 -0.2450
 1178W        W 5242   2.417   6.335   9.084  0.2435  0.3228  0.1077
 1179W        W 5243  10.042   1.464   2.902  0.0999 -0.1334 -0.1668
 1180W        W 5244   6.616   7.305  10.064  0.0112  0.3556 -0.3373
 1181W        W 5245   7.063   5.251   2.487 -0.0480  0.0656 -0.0958
 1182W        W 5246   2.936   3.950  10.409 -0.2697  0.3892  0.1187
 1183W        W 5247   9.509   9.504   1.054  0.0448 -0.0695 -0.3404
 1184W        W 5248   3.676   6.496   3.125 -0.0150  0.1374  0.0377
 1185W        W 5249   3.418   3.760   9.064  0.2487 -0.0976 -0.4936
 1186W        W 5250   5.145   8.379   9.862  0.1418 -0.1061  0.0495
 1187W        W 5251  10.110   3.565  11.414  0.0283 -0.2714 -0.1648
 1188W        W 5252   4.409   7.003   2.846 -0.0982  0.0190  0.1343
 1189W        W 5253   6.841   4.935   2.203 -0.2021  0.3313  0.0777
 1190W        W 5254   6.751   5.657   0.098  0.0507 -0.0151  0.0295
 1191W        W 5255   6.737   8.205  10.375 -0.0958 -0.0543 -0.1406
 1192W        W 5256   8.474   0.600  10.994  0.1554 -0.1434  0.1171
 1193W        W 5257   1.661   9.234   1.324 -0.3368  0.0003 -0.0600
 1194W        W 5258   2.604   7.770   4.203 -0.2992  0.1138  0.0761
 1195W        W 5259   3.104   5.877  11.550  0.0107  0.1348  0.0603
 1196W        W 5260   5.318   8.221  11.204 -0.0809  0.0406  0.3191
 1197W        W 5261   4.574   2.014  10.824 -0.0213 -0.0779 -0.1967
 1198W        W 5262   5.502   9.340  10.665 -0.1109  0.0160  0.1040
 1199W        W 5263  10.632   3.661  11.526 -0.0665  0.0953 -0.3760
 1200W        W 5264  10.203   6.616   3.298 -0.0527  0.1627 -0.2287
 1201W        W 5265   0.090   8.166   1.140  0.1322  0.1899  0.0650
 1202W        W 5266  10.532   2.447  10.612 -0.0556  0.0315 -0.0904
 1203W        W 5267   5.821   2.016   0.202 -0.1973  0.0460 -0.2081
 1204W        W 5268   0.387   0.009   0.111  0.1350  0.0687  0.1206
 1205W        W 5269   0.422   1.969   7.458 -0.0332  0.3352 -0.2315
 1206W        W 5270   1.499  10.098  10.640 -0.2628  0.0421 -0.2192
 1207W        W 5271   4.840   1.016   2.363 -0.3382  0.1293  0.2082
 1208W        W 5272   2.493   3.899   3.242 -0.0366  0.0497  0.4316
 1209W        W 5273   7.152   7.011   9.295 -0.1531 -0.1279 -0.0856
 1210W        W 5274  10.084   2.362  11.123 -0.0545  0.0498 -0.0670
 1211W        W 5275   3.010   1.002   9.649 -0.1416  0.1033 -0.1714
 1212W        W 5276  10.409   1.635   0.980 -0.2320 -0.2577 -0.2231
 1213W        W 5277   9.057   1.608   9.772  0.0481 -0.1563 -0.0167
 1214W        W 5278   0.891   3.967  11.074  0.1083 -0.1522 -0.3145
 1215W        W 5279   1.134   3.922   3.228  0.1738 -0.2724  0.3624
 1216W        W 5280   2.203   1.320   0.730  0.2449  0.0721  0.3094
 1217W        W 5281   5.061   2.030   2.539 -0.3648  0.1028  0.0410
 1218W        W 5282  10.110   3.442   3.181  0.1726 -0.1161  0.1066
 1219W        W 5283   2.086  10.412   8.456 -0.0987  0.1828 -0.0371
 1220W        W 5284   9.114   5.053   9.895  0.0490 -0.0736 -0.0233
 1221W        W 5285   4.125   2.738   0.930  0.1703  0.0190  0.3343
 1222W        W 5286   1.385   6.034   1.347  0.3355  0.1648 -0.3068
 1223W        W 5287   3.134   8.248   9.814  0.0171 -0.2342 -0.0093
 1224W        W 5288   3.923   4.875  10.621 -0.3198 -0.4100  0.0290
 1225W        W 5289   6.527   0.960   2.715  0.1366 -0.1497 -0.0860
 1226W        W 5290   5.474   2.116   9.730 -0.2357 -0.2581  0.2018
 1227W        W 5291   7.574  10.476   0.142  0.1082  0.0738  0.1279
 1228W        W 5292   7.543   3.997   2.305  0.0825 -0.0624  0.1037
 1229W        W 5293   3.954   7.128   8.488  0.0624 -0.2628 -0.1704
 1230W        W 5294   4.580   3.780   2.703  0.0298 -0.0765 -0.0901
 1231W        W 5295   7.685   1.050  10.907 -0.1171 -0.3107  0.2663
 1232W        W 5296   0.133   9.636  11.296 -0.0700 -0.3314 -0.3466
 1233W        W 5297   9.373   6.901   0.957 -0.1669 -0.3067  0.0607
 1234W        W 5298   6.663   9.540   3.307  0.2218 -0.0455  0.2020
 1235W        W 5299   3.215   6.862   9.966 -0.2249  0.0422  0.1106
 1236W        W 5300   4.399   6.865   2.254  0.0625 -0.4292 -0.0514
 1237W        W 5301   4.870   4.517   9.300 -0.0514  0.0920 -0.1263
 1238W        W 5302   1.110   5.873   2.569  0.2689 -0.1449  0.0746
 1239W        W 5303  10.464   8.830   3.999 -0.1473  0.3211 -0.2085
 1240W        W 5304   1.276   4.932  11.068  0.0998  0.2763 -0.2802
 1241W        W 5305   7.529   0.106  11.011 -0.1494 -0.2934 -0.1948
 1242W        W 5306   0.098   9.483   0.643  0.0869 -0.0377  0.0911
 1243W        W 5307   2.997   6.494   9.067  0.2840  0.0114  0.2222
 1244W        W 5308   9.082   4.866  10.571  0.1576 -0.1409  0.0958
 1245W        W 5309   0.643   3.872   8.914 -0.2710  0.0798 -0.3381
 1246W        W 5310   7.029   3.535   0.510  0.0968 -0.0339  0.1725
 1247W        W 5311   4.652   9.310   0.773 -0.2307 -0.0505  0.3316
 1248W        W 5312   2.561   2.978   1.974 -0.0956  0.3622  0.0383
 1249W        W 5313   9.397  10.574  11.269  0.0382  0.1930 -0.1010
 1250W        W 5314   2.246   7.838   9.988 -0.0286  0.0714 -0.2091
 1251W        W 5315   0.879   6.077   2.137  0.0344  0.0581 -0.3730
 1252W        W 5316   2.101   0.107  10.842  0.2794 -0.1401  0.0823
 1253W        W 5317   7.676   9.091  10.791 -0.0686 -0.4213  0.1854
 1254W        W 5318   6.220   7.135   1.677  0.4550  0.3800  0.3309
 1255W        W 5319   5.126   5.930  11.460  0.0312  0.1254  0.2547
 1256W        W 5320   2.491   6.170   8.480  0.0371  0.3164 -0.1446
 1257W        W 5321   9.598   8.839  11.463 -0.0690  0.1256  0.1004
 1258W        W 5322   0.035   3.175  11.356 -0.3581  0.1285  0.0130
 1259W        W 5323   6.327   0.245   2.293  0.2057 -0.1246  0.0953
 1260W        W 5324   1.516   3.776   3.523 -0.0593 -0.1011  0.0342
 1261W        W 5325   5.208   9.574   7.937 -0.0411 -0.0023 -0.0900
 1262W        W 5326   6.048   5.218   2.716 -0.1474  0.0111 -0.5443
 1263W        W 5327   9.452   2.891  10.568 -0.1293 -0.2987  0.1676
 1264W        W 5328   8.455  10.360  11.364 -0.1470  0.0077 -0.0202
 1265W        W 5329   8.406   3.872   2.244  0.2285 -0.1208  0.3921
 1266W        W 5330   2.297   6.554  11.484 -0.1867  0.0381  0.1239
 1267W        W 5331   3.816   1.865   8.320  0.0908  0.0738  0.3732
 1268W        W 5332   6.032   9.358   9.971  0.0178  0.3113  0.2342
 1269W        W 5333   8.050   7.100   9.790 -0.1983  0.0978  0.0497
 1270W        W 5334   7.935   9.449   3.517  0.2658 -0.0206  0.2004
 1271W        W 5335  10.424   8.659  11.152  0.1310  0.4662  0.1443
 1272W        W 5336   7.268   9.831   1.970 -0.0768  0.0796 -0.2836
 1273W        W 5337   1.534   8.282  11.432  0.0086  0.3671 -0.0009
 1274W        W 5338   1.774   3.469   2.131 -0.0457 -0.1404  0.3165
 1275W        W 5339   1.696   4.588   4.003  0.0811  0.0601 -0.2099
 1276W        W 5340   3.532   3.999   0.852 -0.0109 -0.2845 -0.0660
 1277W        W 5341   6.432   7.604   0.009  0.0871  0.0003  0.0504
 1278W        W 5342   9.952   8.210   9.457 -0.0795  0.0338 -0.1814
 1279W        W 5343   8.974   8.568   9.846  0.0093  0.1265 -0.2963
 1280W        W 5344   3.463   6.221   1.579  0.1306 -0.0381 -0.0908
 1281W        W 5345   0.926   7.863   0.160 -0.3009  0.3842  0.3110
 1282W        W 5346  10.617   5.820  11.548 -0.0359  0.0965  0.1064
 1283W        W 5347   4.435   3.284   1.776  0.0625  0.2433  0.0757
 1284W        W 5348   8.124   2.548   7.164 -0.1549  0.0805  0.0899
 1285W        W 5349   0.248   9.617  10.219  0.0595  0.3447  0.2366
 1286W        W 5350   7.149   4.032  11.036 -0.0873  0.1732  0.1164
 1287W        W 5351  10.630   7.284   2.792  0.1432 -0.1943  0.1186
 1288W        W 5352   6.410   2.337   9.455 -0.0370 -0.0798 -0.1198
 1289W        W 5353   5.380   3.431   2.622  0.0117  0.0422 -0.1431
 1290W        W 5354   2.204   0.135  11.550  0.0305  0.0175  0.1005
 1291W        W 5355   0.750   0.593   4.201 -0.1151  0.0201 -0.0747
 1292W        W 5356   5.365   2.430   8.193  0.0268 -0.1334 -0.2059
 1293W        W 5357   8.595   4.392   9.447  0.1551  0.1745 -0.1202
 1294W        W 5358   1.471   7.313   0.797  0.0695 -0.1750  0.0600
 1295W        W 5359   3.889   2.240  11.157  0.2965 -0.1275 -0.1816
 1296W        W 5360   1.379   8.481   2.393 -0.0544  0.1295  0.0718
 1297W        W 5361  10.196   0.786   8.245 -0.0418 -0.3181 -0.0826
 1298W        W 5362   4.325  10.409   2.911  0.2597  0.0366 -0.2370
 1299W        W 5363   2.095  10.023   2.382  0.0114  0.0141 -0.0591
 1300W        W 5364   9.795   2.932  11.255 -0.0373 -0.0222 -0.1875
 1301W        W 5365   0.872   5.537   2.185  0.3104  0.2446  0.1102
 1302W        W 5366   5.184   4.217   1.967 -0.2229 -0.0794  0.1801
 1303W        W 5367   6.600   0.173  10.965 -0.0490  0.1301 -0.4897
 1304W        W 5368   3.877   7.834   7.370  0.2044 -0.0568  0.0919
 1305W        W 5369   4.611   9.859  10.805 -0.1901 -0.5505 -0.0299
 1306W        W 5370   7.010   2.391  11.182 -0.0812 -0.1474  0.0072
 1307W        W 5371   2.107   1.086  11.192  0.0093 -0.0411  0.1058
 1308W        W 5372   5.124   8.254   1.787  0.0613 -0.0291  0.0961
 1309W        W 5373  10.116   2.553   9.414  0.3308 -0.2004 -0.3820
 1310W        W 5374   1.121   3.920   2.532  0.0208 -0.2297 -0.2679
 1311W        W 5375  10.223   7.605  10.318 -0.5126 -0.3108  0.4663
 1312W        W 5376   7.281   9.909  10.432 -0.2495 -0.4745  0.0179
 1313W        W 5377   1.234   0.029   0.488 -0.2000  0.0319  0.0423
 1314W        W 5378   3.425   0.072  10.991  0.1293  0.0627  0.2797
 1315W        W 5379   2.073   5.562   0.564 -0.0752  0.0425  0.1151
 1316W        W 5380   5.293   9.279   0.259  0.2086  0.2447  0.3017
 1317W        W 5381   9.576   1.842   9.126  0.1030  0.0166 -0.1047
 1318W        W 5382   7.785   4.632   0.651  0.0559  0.2050 -0.2664
 1319W        W 5383   6.246   3.089  11.240 -0.1912  0.2502 -0.0431
 1320W        W 5384   0.416   7.511   2.651  0.1125  0.1766  0.0207
 1321W        W 5385   6.593   8.674   0.660  0.1471 -0.0911  0.0070
 1322W        W 5386   1.339   1.201   0.275  0.1409  0.2959  0.3781
 1323W        W 5387   3.841  10.204   2.969  0.0770  0.1158  0.1645
 1324W        W 5388   2.542   2.955   9.328  0.0208 -0.1979 -0.0785
 1325W        W 5389   3.428   3.311  10.510  0.0500  0.0137 -0.2352
 1326W        W 5390   0.272   1.661  11.131 -0.1285  0.0629 -0.1261
 1327W        W 5391   5.518   2.910  10.657 -0.0468  0.0373 -0.0133
 1328W        W 5392  10.537   5.951  10.457 -0.2219  0.0727 -0.3036
 1329W        W 5393   3.209   4.231   2.970  0.1210 -0.2194  0.0859
 1330W        W 5394  10.130   7.685   7.891 -0.2779  0.3087  0.0096
 1331W        W 5395   8.402   8.162   1.648  0.0554 -0.0278 -0.0115
 1332W        W 5396   4.396   2.203   8.001  0.2295  0.2911  0.0902
 1333W        W 5397   7.026   4.018  10.562  0.2641 -0.2977 -0.0234
 1334W        W 5398   9.930   3.609   1.860  0.0879 -0.2537  0.0447
 1335W        W 5399   2.363   7.708   9.377 -0.1219 -0.2158 -0.1423
 1336W        W 5400   6.221   0.017   9.673 -0.0993 -0.1528 -0.2939
 1337W        W 5401   6.381   7.067   1.189 -0.0851  0.0338  0.4452
 1338W        W 5402   8.785   2.369  11.343 -0.0903  0.0040  0.0322
 1339W        W 5403   5.777   6.503  10.343  0.1583 -0.0118  0.0452
 1340W        W 5404   9.525   1.800   0.887 -0.1558 -0.1703 -0.0375
 1341W        W 5405   6.706   2.049   2.967  0.2149  0.2306 -0.1628
 1342W        W 5406   3.790   8.557  10.968  0.1484 -0.0835 -0.0643
 1343W        W 5407   5.333   7.624   9.289  0.3224 -0.1854 -0.2127
 1344W        W 5408   0.070   9.814   8.904  0.1529  0.2504 -0.0665
 1345W        W 5409   6.600   0.335   9.750  0.1199 -0.1344  0.1309
 1346W        W 5410   9.745   7.950   3.961  0.2938  0.1420 -0.1058
 1347W        W 5411   6.383   0.823   0.580  0.0430 -0.0350  0.5083
 1348W        W 5412   9.371   1.766   7.732 -0.3198  0.1159  0.0634
 1349W        W 5413   3.406   1.984   2.116  0.2209  0.0866 -0.1454
 1350W        W 5414   2.946   2.490  11.262 -0.1930 -0.2335  0.2770
 1351W        W 5415   9.058   1.970   1.004 -0.1028 -0.2837 -0.1919
 1352W        W 5416   5.979   3.036   8.370 -0.0091 -0.1435 -0.2601
 1353W        W 5417   0.712   1.858  10.105 -0.0627 -0.0894 -0.1116
 1354W        W 5418   4.437   7.790  10.231  0.3105  0.0109  0.3701
 1355W        W 5419   7.476   2.664   0.057  0.0835  0.0370  0.0262
 1356W        W 5420   9.509   4.334   3.454  0.1004 -0.0282  0.1024
 1357W        W 5421   2.528   7.670   1.561  0.1445 -0.2335  0.4695
 1358W        W 5422   5.735   5.319  10.877  0.0121  0.0459  0.0835
 1359W        W 5423   7.631   7.039  10.420  0.1234  0.0877 -0.0184
 1360W        W 5424   3.725   7.434   3.356  0.3079  0.1649 -0.0382
 1361W        W 5425   9.991   5.981   9.048  0.1491 -0.0486 -0.2732
 1362W        W 5426   4.050   6.812  10.178  0.0313  0.0322 -0.0785
 1363W        W 5427   3.527   7.243   2.562  0.1435  0.0751  0.0736
 1364W        W 5428   4.892   0.414   9.138 -0.1892  0.0196 -0.2425
 1365W        W 5429   3.170   1.542   2.236  0.2534 -0.1043  0.1601
 1366W        W 5430   8.241   1.180   2.898 -0.0344  0.1260 -0.0057
 1367W        W 5431   7.304   8.068   2.421  0.1189 -0.0430 -0.0829
 1368W        W 5432   2.334   5.937   2.274  0.1117 -0.0289 -0.1259
 1369W        W 5433   5.617   4.432   3.249  0.0140  0.1399 -0.2038
 1370W        W 5434  10.324   3.266  10.625 -0.2461 -0.4502  0.0143
 1371W        W 5435   8.565   2.923   2.920 -0.0489  0.0403 -0.1573
 1372W        W 5436   4.286   2.372   2.150 -0.0397  0.3802  0.0793
 1373W        W 5437   1.662   5.621   0.887 -0.1862 -0.2754 -0.2153
 1374W        W 5438   4.092   5.689  10.127 -0.0656 -0.3135  0.1657
 1375W        W 5439  10.119   2.123   7.854 -0.0662 -0.0588  0.1723
 1376W        W 5440   1.023  10.399   2.065  0.2654  0.0393  0.1472
 1377W        W 5441   0.440   3.400   9.041 -0.2483  0.1692  0.0969
 1378W        W 5442   2.517   0.621   8.893  0.3989 -0.3294  0.0545
 1379W        W 5443   2.395   3.479   2.510 -0.1774 -0.0020 -0.0643
 1380W        W 5444   2.964   1.049   0.324  0.0026  0.0358  0.1955
 1381W        W 5445   3.844   0.320  10.921 -0.0856 -0.1647  0.2841
 1382W        W 5446   7.465   5.932   1.780  0.1319 -0.3480 -0.1337
 1383W        W 5447   4.796   5.263  11.530  0.0289  0.1449  0.1722
 1384W        W 5448  10.454   5.037   8.613 -0.1080 -0.1671 -0.0556
 1385W        W 5449   9.688   7.408   0.736 -0.1833 -0.0794  0.1703
 1386W        W 5450   4.039   0.208  11.579  0.0069  0.0507  0.1124
 1387W        W 5451   0.540   8.898   8.548  0.0675  0.1935  0.1156
 1388W        W 5452   8.977   6.737   1.796 -0.0643 -0.1113 -0.1249
 1389W        W 5453   0.640   0.783  10.105 -0.1294 -0.0001  0.1983
 1390W        W 5454   9.109   6.479   3.508 -0.1864 -0.2820 -0.1868
 1391W        W 5455   9.739   9.548   2.774  0.1673 -0.1149  0.1370
 1392W        W 5456   8.889   5.407   9.661  0.1068  0.4034 -0.0257
 1393W        W 5457   9.457   3.357   0.524  0.2484 -0.2632  0.0023
 1394W        W 5458   1.337   2.833   9.004 -0.3435  0.2313 -0.1216
 1395W        W 5459   3.046   1.527   8.554 -0.0983  0.1985  0.1625
 1396W        W 5460   1.804   3.678  11.161 -0.4147 -0.0623  0.1205
 1397W        W 5461   4.778   1.360   1.448 -0.2767  0.5500  0.2637
 1398W        W 5462   1.004   0.718  10.596  0.1444  0.1040  0.1166
 1399W        W 5463   9.798   4.798   0.843 -0.1774 -0.1552  0.2993
 1400W        W 5464   6.690   1.430   4.127  0.1934  0.1065  0.0020
 1401W        W 5465   8.982   5.219   0.423  0.1839  0.0282 -0.3727
 1402W        W 5466   0.902   6.767   1.622 -0.1988 -0.0313 -0.0063
 1403W        W 5467   7.663   6.349   9.586  0.1001  0.0438  0.3896
 1404W        W 5468   2.279   0.371   3.333 -0.3364  0.1400  0.4385
 1405W        W 5469   3.377   7.694   2.879  0.4475  0.1462 -0.1305
 1406W        W 5470   0.660   6.264   3.264 -0.3943  0.0075  0.1260
 1407W        W 5471   2.390   7.256   0.512  0.0854  0.0603  0.4204
 1408W        W 5472   7.472  10.128  10.054  0.0708  0.0165 -0.2090
 1409W        W 5473   0.317   5.979   2.238 -0.2229 -0.1368 -0.2003
 1410W        W 5474   8.522   7.770   9.021 -0.0131  0.0020 -0.0860
 1411W        W 5475  10.211   0.964   2.552 -0.1233  0.3449 -0.1794
 1412W        W 5476   6.978   1.403  11.170  0.2809 -0.0720  0.0282
 1413W        W 5477   7.807   4.503  10.577 -0.0789 -0.3808 -0.1908
 1414W        W 5478   7.809   0.517   8.837 -0.1773  0.1750 -0.1974
 1415W        W 5479   8.354   3.379   2.193  0.1259 -0.2114  0.2426
 1416W        W 5480   3.741   3.913   3.218 -0.1105  0.2191  0.0124
 1417W        W 5481   8.424   8.983   2.442 -0.1280 -0.0817  0.5032
 1418W        W 5482   9.756   7.508  10.168 -0.2704 -0.1110 -0.1607
 1419W        W 5483   1.266   2.266  10.572 -0.2470 -0.0226 -0.0236
 1420W        W 5484   3.100   0.159   8.487 -0.1772  0.2809  0.0034
 1421W        W 5485   5.867   0.141   2.524  0.0963  0.0581  0.0520
 1422W        W 5486   3.429   1.276   9.803 -0.3538 -0.0543 -0.1647
 1423W        W 5487   2.862   2.802   0.448  0.3454  0.2267  0.0643
 1424W        W 5488  10.090   0.966  11.109 -0.1426 -0.1736 -0.3400
 1425W        W 5489   9.625   8.415   3.051  0.0476  0.1928 -0.1831
 1426W        W 5490   8.037   4.636  11.012 -0.1243 -0.1219  0.1758
 1427W        W 5491   2.422   7.623   3.169  0.0846  0.0866 -0.0797
 1428W        W 5492   9.302   9.524   1.577  0.1244  0.1337 -0.0135
 1429W        W 5493   3.140   3.562   7.723  0.0310  0.6474  0.1416
 1430W        W 5494   8.020   2.627   1.619  0.2732  0.1843  0.0339
 1431W        W 5495   9.780   0.799   0.707 -0.3530 -0.0746  0.2876
 1432W        W 5496   6.942   7.286   3.466  0.3854 -0.0989  0.2048
 1433W        W 5497   0.419   2.912   8.631 -0.0073 -0.0002  0.1250
 1434W        W 5498  10.455   3.632   1.804 -0.3204  0.1022 -0.0352
 1435W        W 5499   2.627   0.396   9.339  0.2034  0.1203  0.1247
 1436W        W 5500   2.883   3.188   2.301  0.3641  0.1417 -0.3541
 1437W        W 5501  10.258   8.171  10.987 -0.0521 -0.2416 -0.3347
 1438W        W 5502  10.609   2.792   1.976  0.3865 -0.0219  0.2845
 1439W        W 5503   9.369   6.898   2.586  0.1870  0.2350  0.0585
 1440W        W 5504   6.943  10.197   0.878  0.5187 -0.0007 -0.1215
 1441W        W 5505   1.542  10.090   9.155  0.0701 -0.0007  0.1036
 1442W        W 5506   4.175   5.321   4.289  0.1279 -0.3358  0.0025
 1443W        W 5507   7.182   3.347   9.377  0.1529 -0.1367 -0.1703
 1444W        W 5508   3.524   6.369   9.252  0.0378  0.0865 -0.1559
 1445W        W 5509   1.338   0.401   2.056  0.0127 -0.2358 -0.1292
 1446W        W 5510   3.156   6.005   2.761  0.1187  0.0173 -0.1192
 1447W        W 5511   1.086   0.152  10.015 -0.1275  0.0182  0.0871
 1448W        W 5512   9.110   9.128   9.787 -0.2575 -0.1822 -0.2412
 1449W        W 5513   1.959   1.572  11.173  0.0037  0.1723  0.2957
 1450W        W 5514   5.381   0.633   8.473 -0.2559  0.0452  0.0069
 1451W        W 5515   3.071   4.994   2.111 -0.1357 -0.0080 -0.0644
 1452W        W 5516   3.460   1.674   7.782 -0.1420 -0.1506 -0.0236
 1453W        W 5517   1.159   1.311  10.608  0.3907 -0.0488 -0.1434
 1454W        W 5518   4.683   0.361   8.013  0.1898 -0.1459  0.1125
 1455W        W 5519   5.847   3.302  11.060 -0.1732  0.1948 -0.0555
 1456W        W 5520  10.480   3.693   3.088 -0.2654  0.1512  0.0787
 1457W        W 5521   4.531   8.774  10.495 -0.1120  0.3435  0.2230
 1458W        W 5522  10.164   7.074  11.060  0.0661 -0.0218  0.3727
 1459W        W 5523  10.290   9.585   2.396  0.0259 -0.1942 -0.3561
 1460W        W 5524   1.619   5.500  11.127  0.2656  0.2664 -0.2218
 1461W        W 5525   8.801   3.102  11.235  0.0868 -0.0496 -0.0275
 1462W        W 5526   7.592   5.796   9.965 -0.0838 -0.0616  0.0907
 1463W        W 5527   5.974   5.104   2.161 -0.1237 -0.0820  0.2802
 1464W        W 5528   7.681   3.198   9.509 -0.1454  0.0431  0.2201
 1465W        W 5529   9.212   8.324   2.831 -0.0107  0.0355  0.0272
 1466W        W 5530   9.694   4.233  11.588  0.0164  0.0650  0.1396
 1467W        W 5531   2.372   8.919   9.969  0.1360  0.3523  0.0710
 1468W        W 5532   9.340   1.149   1.523  0.2217  0.0428  0.0538
 1469W        W 5533  10.072   1.475   2.450  0.3120 -0.1725  0.1864
 1470W        W 5534   0.053   0.562   8.554 -0.0325 -0.0479 -0.1831
 1471W        W 5535   8.014   5.063   0.454  0.0352 -0.2150 -0.2393
 1472W        W 5536   4.818   7.538   0.980  0.0033 -0.0897 -0.0069
 1473W        W 5537   2.985   8.250   9.261 -0.0392  0.3416 -0.0510
 1474W        W 5538   4.914   3.136   9.700  0.0906  0.2577 -0.1186
 1475W        W 5539   9.125   2.089   3.419  0.1043  0.0515  0.3238
 1476W        W 5540   1.680   1.228   3.168 -0.0268  0.3772  0.1638
 1477W        W 5541   1.978   1.022  10.303 -0.2014 -0.1983 -0.0456
 1478W        W 5542   1.657   8.549   9.564 -0.1698 -0.6043 -0.3738
 1479W        W 5543   3.348   7.297  10.297 -0.3310 -0.2628 -0.1778
 1480W        W 5544  10.203   7.790   4.092 -0.2209  0.1121  0.0153
 1481W        W 5545   8.706   7.019   3.092  0.1023 -0.1383 -0.3565
 1482W        W 5546   8.636   2.793   8.471 -0.0976 -0.4053 -0.2376
 1483W        W 5547   2.103   3.048   1.701 -0.1169 -0.0161 -0.2418
 1484W        W 5548   7.766   7.871   2.166 -0.1316 -0.1170  0.0847
 1485W        W 5549   0.424   6.612   0.487  0.0949 -0.2234 -0.0072
 1486W        W 5550   4.528   7.295  11.116 -0.2712  0.1727  0.0686
 1487W        W 5551   1.955   2.524   3.672 -0.0830 -0.0821  0.0813
 1488W        W 5552   4.130   6.268   8.888  0.1280 -0.0172 -0.0288
 1489W        W 5553   0.097   6.694   1.972 -0.1433  0.0571 -0.2519
 1490W        W 5554   2.548  10.252   8.158 -0.0165 -0.0974 -0.0233
 1491W        W 5555   3.790   9.912   1.060  0.0478 -0.0856  0.1396
 1492W        W 5556   7.939   6.764   2.163  0.0260 -0.1483  0.1113
 1493W        W 5557   6.437   6.105   1.044  0.1191  0.1401  0.0249
 1494W        W 5558   3.857   4.518   0.609  0.0223 -0.3352  0.1433
 1495W        W 5559   4.968  10.502  11.475  0.3170 -0.1751  0.4680
 1496W        W 5560   5.754   8.894   8.241  0.2741 -0.3633  0.2062
 1497W        W 5561   2.037   2.936   2.838 -0.0554 -0.2073  0.0831
 1498W        W 5562   8.888  10.543   1.398 -0.2077 -0.0479  0.3278
 1499W        W 5563   4.042   9.846   9.050  0.0002 -0.0193  0.0177
 1500W        W 5564   0.851   1.914  11.524  0.0131 -0.0018 -0.4374
 1501W        W 5565   4.722   3.935   3.168  0.0690 -0.2108  0.0297
 1502W        W 5566   1.533   7.992   2.524  0.4251  0.2653 -0.0040
 1503W        W 5567   2.860   1.880  10.941 -0.1639 -0.0478  0.1582
 1504W        W 5568   7.580   7.701  10.535  0.3959 -0.0046 -0.0378
 1505W        W 5569   2.138   5.763   4.488  0.1220  0.3085 -0.0317
 1506W        W 5570   3.952   1.617  10.040 -0.0670  0.0666  0.1093
 1507W        W 5571   8.764   5.510   3.312  0.1350 -0.0712  0.3218
 1508W        W 5572   8.733   6.879   8.561  0.2013 -0.0987  0.2764
 1509W        W 5573   5.494   6.006   3.453  0.3140  0.1854  0.2456
 1510W        W 5574   9.203   2.380   0.662  0.0664 -0.2153  0.2410
 1511W        W 5575   5.290   3.676   0.637 -0.1714  0.3092 -0.3525
 1512W        W 5576   6.770   6.367   1.360  0.0735  0.0120  0.2173
 1513W        W 5577   7.252   8.460   1.024 -0.1732 -0.2481 -0.0115
 1514W        W 5578   3.363   5.126  10.218 -0.0172  0.0233  0.2239
 1515W        W 5579   6.994   1.101   8.740 -0.0781 -0.3125 -0.0677
 1516W        W 5580   7.248   1.823  10.501 -0.0093 -0.1132 -0.0531
 1517W        W 5581   4.142   8.406   7.998 -0.1339  0.1998  0.0071
 1518W        W 5582   1.189   5.905  10.953  0.0090  0.4853 -0.2395
 1519W        W 5583   7.292   4.437   9.963 -0.0688  0.1610  0.1155
 1520W        W 5584   6.866   3.062   3.834 -0.0200  0.0438  0.0343
 1521W        W 5585   2.195   0.511  11.116 -0.3247 -0.3399  0.0435
 1522W        W 5586   4.476   4.372  11.009  0.1584  0.0391 -0.1037
 1523W        W 5587   8.314   9.818  10.448 -0.1779 -0.1414 -0.2933
 1524W        W 5588   0.002   7.063   3.800 -0.2008  0.2762  0.2793
 1525W        W 5589   2.183   6.357   0.380 -0.0254  0.0291 -0.0513
 1526W        W 5590   0.925   5.106  10.734  0.0209  0.0884  0.0185
 1527W        W 5591   6.288   0.538   8.488 -0.3260 -0.0993 -0.0297
 1528W        W 5592   7.004  10.502  10.915  0.0479  0.1221  0.1290
 1529W        W 5593   4.890   6.302   8.234  0.1960  0.0325  0.2491
 1530W        W 5594   4.908   6.795   8.315  0.1061  0.1829  0.0170
 1531W        W 5595   0.722   2.735   2.443  0.5212 -0.1518 -0.0026
 1532W        W 5596  10.185   0.399   0.163 -0.0689 -0.0707 -0.0234
 1533W        W 5597   9.201   5.743   1.697 -0.0072 -0.2465 -0.1230
 1534W        W 5598   1.134   5.696   9.652  0.2801  0.0324  0.2614
 1535W        W 5599   9.856   7.200  10.588 -0.2175  0.2420 -0.0659
 1536W        W 5600   5.033   6.238   8.725 -0.0145  0.0780 -0.2423
 1537W        W 5601   9.102   8.609   1.448  0.2818 -0.0162  0.0159
 1538W        W 5602   1.476  10.307   2.950 -0.3304  0.0125  0.1625
 1539W        W 5603   9.767   9.169   0.678  0.0267  0.1684  0.3344
 1540W        W 5604   2.291   9.952   1.543  0.0271 -0.0532 -0.1000
 1541W        W 5605   5.868   0.225   9.290 -0.1119 -0.5717  0.1523
 1542W        W 5606   9.623   7.797   0.079  0.1740  0.0477 -0.3502
 1543W        W 5607  10.051   0.212   1.279  0.3947 -0.0675 -0.0300
 1544W        W 5608  10.593   2.112   9.723 -0.0201  0.2002 -0.1424
 1545W        W 5609   2.964   0.741   1.629  0.0336  0.1270 -0.0984
 1546W        W 5610   8.789   7.661   1.866 -0.0102  0.1795  0.1023
 1547W        W 5611  10.164   2.978   2.876 -0.1097 -0.1160 -0.1559
 1548W        W 5612   3.886   7.553   2.776  0.2969  0.0965 -0.1901
 1549W        W 5613   6.426   5.613  10.979  0.0558  0.3444  0.0436
 1550W        W 5614   7.467   4.159  10.361  0.4001 -0.0640 -0.0685
 1551W        W 5615   3.325   7.865   8.356  0.0799 -0.0206 -0.0983
 1552W        W 5616   8.395   2.248   8.573  0.1470 -0.0273 -0.0082
 1553W        W 5617   1.141   5.806   1.749 -0.0656 -0.0477  0.0545
 1554W        W 5618   5.703   6.129  11.575 -0.2454 -0.2057  0.0362
 1555W        W 5619   8.639   3.391  10.397 -0.0536 -0.3109 -0.1589
 1556W        W 5620   8.521   6.831   2.599 -0.2310  0.0487  0.1414
 1557W        W 5621   2.287   4.651   2.905 -0.3780  0.0468 -0.0445
 1558W        W 5622   9.201   9.114  11.406  0.0592 -0.2753 -0.3146
 1559W        W 5623   1.142   8.067   3.210  0.0825  0.1109 -0.1251
 1560W        W 5624   6.439   1.446   8.124  0.4876  0.3542  0.2327
 1561W        W 5625  10.101   2.180   0.287  0.0585 -0.0091  0.0345
 1562W        W 5626   6.347   8.485   4.068  0.1048  0.0433 -0.1757
 1563W        W 5627   0.686   1.436  11.311 -0.0516 -0.5525 -0.0378
 1564W        W 5628   2.472   4.088   1.871  0.4596 -0.2310  0.0300
 1565W        W 5629   8.325   1.657   1.874  0.3860  0.2307 -0.1467
 1566W        W 5630   0.371   1.206   3.189 -0.1856 -0.0193 -0.3107
 1567W        W 5631  10.314   8.981  10.247 -0.1927  0.1985  0.1576
 1568W        W 5632   9.472   9.062   8.202  0.2741  0.0586 -0.1704
 1569W        W 5633   2.470   4.894  10.849  0.3749 -0.0042  0.0796
 1570W        W 5634  10.226  10.019   7.686 -0.2454  0.2146 -0.1442
 1571W        W 5635   6.956   5.716  11.219 -0.0727 -0.2533  0.2311
 1572W        W 5636   6.819   1.460   2.489  0.0007  0.1299  0.0658
 1573W        W 5637   5.195   9.501   9.411  0.1014 -0.0470  0.3476
 1574W        W 5638   0.309   6.109   2.762 -0.1593  0.1004 -0.4249
 1575W        W 5639   3.077   0.518   0.018 -0.0417  0.1088  0.1648
 1576W        W 5640   6.484   8.815  11.015  0.2123  0.2952  0.0606
 1577W        W 5641   6.989   3.099   2.346  0.0664 -0.0040  0.2185
 1578W        W 5642   9.875   7.638   2.673 -0.2720 -0.2527 -0.0477
 1579W        W 5643   3.657   3.623   2.349  0.1121 -0.2088  0.1934
 1580W        W 5644   3.540   8.661   8.539  0.1158 -0.0031  0.1950
 1581W        W 5645   0.092   2.569   9.518  0.4769 -0.0515  0.0562
 1582W        W 5646   7.731   4.383   9.514 -0.1072  0.0644 -0.2122
 1583W        W 5647   0.916   7.132   8.329  0.1267  0.0648  0.0466
 1584W        W 5648   9.351   9.594  10.945  0.1234  0.1382 -0.0838
 1585W        W 5649   4.706   3.489   3.368 -0.0862  0.2561 -0.2236
 1586W        W 5650   1.233   4.109   1.192  0.0765 -0.1859  0.2490
 1587W        W 5651   6.186   4.238   3.039 -0.2922  0.0577  0.1193
 1588W        W 5652   9.873   7.408   3.128  0.0885  0.1947  0.1846
 1589W        W 5653   9.447   1.270   9.408 -0.0310 -0.1877 -0.0214
 1590W        W 5654   4.596   5.745   1.671  0.0704  0.1624  0.0032
 1591W        W 5655   2.525   2.214   1.679  0.3511  0.1877 -0.0433
 1592W        W 5656   2.008   1.950  11.460  0.2082 -0.1455  0.0754
 1593W        W 5657   7.566   3.742   3.259 -0.2941 -0.0122  0.0497
 1594W        W 5658   0.159   8.979  10.420 -0.0054  0.4580  0.4015
 1595W        W 5659   3.241   2.880  10.709 -0.0741 -0.2127 -0.0902
 1596W        W 5660   1.362   3.491   0.903 -0.2902 -0.0775 -0.0548
 1597W        W 5661   4.427   6.432   2.547  0.1281  0.2549 -0.1256
 1598W        W 5662   8.656   6.253   2.243  0.4219 -0.2636  0.3082
 1599W        W 5663   8.540   9.206   9.850  0.1826  0.2128  0.2380
 1600W        W 5664   8.109   0.149   2.326 -0.2428  0.1349 -0.0536
 1601W        W 5665   7.407   2.532   8.260 -0.1084 -0.1485  0.2004
 1602W        W 5666   5.953  10.636   0.878 -0.0881  0.0644  0.2694
 1603W        W 5667   4.240   5.076   2.330  0.2723 -0.0048  0.0775
 1604W        W 5668   1.076   2.751  10.397  0.0164 -0.1019  0.1727
 1605W        W 5669   0.720   1.496   1.320  0.0527  0.1280 -0.2582
 1606W        W 5670   8.998   2.406   1.966  0.2241  0.2837 -0.1691
 1607W        W 5671   7.028   7.981   9.535 -0.0508 -0.1943  0.1558
 1608W        W 5672   2.386   6.831   0.811 -0.0092 -0.1760  0.1147
 1609W        W 5673   8.734   8.795  10.670  0.0550 -0.3515  0.2852
 1610W        W 5674   0.800   8.402   3.047  0.0263  0.0337  0.0327
 1611W        W 5675  10.621   7.734  10.961 -0.0813 -0.2399  0.0027
 1612W        W 5676   3.228   9.828  11.060 -0.2002 -0.1744  0.1568
 1613W        W 5677  10.309   9.794  10.215  0.2027 -0.4360 -0.1222
 1614W        W 5678   7.341   4.201   8.989  0.1783 -0.3179 -0.4494
 1615W        W 5679   7.744   1.389   0.158  0.1200  0.0206  0.3003
 1616W        W 5680   4.586   0.181   0.635  0.0676  0.1027 -0.3763
 1617W        W 5681   2.728   8.840   1.728 -0.1055 -0.0087  0.1616
 1618W        W 5682   1.314   1.730   2.838  0.1744  0.0777 -0.2773
 1619W        W 5683   5.327   3.394   2.115  0.1869  0.2606  0.0226
 1620W        W 5684   2.768   0.088   7.988 -0.0971 -0.1689  0.1787
 1621W        W 5685   1.039   5.446   2.880  0.1388  0.0920 -0.2571
 1622W        W 5686   1.045   5.874   0.608  0.3613 -0.2540  0.2411
 1623W        W 5687   2.439   1.790  11.229  0.1193  0.3994 -0.2720
 1624W        W 5688   6.127   6.965   3.952 -0.1922 -0.1556 -0.1461
 1625W        W 5689   4.807   5.889   9.503  0.1680 -0.2642  0.0797
 1626W        W 5690   1.700   2.538   1.644 -0.3660  0.2212 -0.0775
 1627W        W 5691   8.813   5.728   3.844  0.1592 -0.1923 -0.1040
 1628W        W 5692   8.475   5.906   1.899 -0.1357  0.1103 -0.0927
 1629W        W 5693   7.596  10.545   9.439 -0.2069 -0.1876 -0.0358
 1630W        W 5694   5.529   9.707   0.229 -0.5157 -0.1358  0.0065
 1631W        W 5695   3.320  10.261  11.266  0.0218 -0.0926 -0.0025
 1632W        W 5696   5.758   6.705   3.801 -0.0895  0.5279  0.0260
 1633W        W 5697   2.903   1.909   0.463  0.1080  0.1299 -0.1648
 1634W        W 5698   3.886   6.738   9.200 -0.1606 -0.3236 -0.0150
 1635W        W 5699   3.201   0.623   2.973  0.3946  0.1588 -0.1639
 1636W        W 5700   5.718   3.832  10.507 -0.0000 -0.2363  0.1332
 1637W        W 5701  10.113   7.564   0.092 -0.0209  0.0394  0.1714
 1638W        W 5702   5.365   9.978   9.696 -0.2931 -0.0559  0.2131
 1639W        W 5703   6.018   3.509  11.475  0.2000  0.1270 -0.0740
 1640W        W 5704   6.794   7.925   0.356 -0.0156 -0.0135 -0.2464
 1641W        W 5705   9.809   3.933  11.188 -0.1099 -0.0990  0.1678
 1642W        W 5706   5.024   7.249  11.211  0.2968  0.1181  0.1356
 1643W        W 5707   2.738   3.426   7.464  0.1245  0.0366 -0.3498
 1644W        W 5708   1.488   8.650   8.944  0.0974 -0.0848  0.0604
 1645W        W 5709   5.823   6.573  11.404 -0.1462  0.0591 -0.0766
 1646W        W 5710   3.743   2.143   2.464  0.3025 -0.2138  0.1329
 1647W        W 5711   4.330   7.124   0.345 -0.2003  0.0251 -0.3186
 1648W        W 5712   1.271   4.265   3.724 -0.2344 -0.0569 -0.0935
 1649W        W 5713   2.414   8.190   9.257  0.1293  0.1852  0.0682
 1650W        W 5714   2.789   2.741  10.675  0.0518  0.0128  0.3862
 1651W        W 5715   6.265   6.751  11.228 -0.1657  0.0458 -0.0145
 1652W        W 5716   4.169   5.475   7.917 -0.2592  0.1765 -0.1614
 1653W        W 5717   5.293   0.871   0.247  0.1567  0.1380 -0.0011
 1654W        W 5718   1.812   8.386   3.189  0.0205  0.2317  0.1863
 1655W        W 5719   3.659   5.053   9.815  0.3135  0.1804  0.0007
 1656W        W 5720   0.539   4.411   0.275 -0.1980 -0.2746  0.1875
 1657W        W 5721   9.583   2.251   2.612 -0.0365 -0.0317 -0.3174
 1658W        W 5722   8.196   9.356  11.361 -0.4488 -0.1888  0.0576
 1659W        W 5723   6.078   3.309   9.201 -0.1091 -0.0913  0.2863
 1660W        W 5724  10.029   1.216  10.565  0.1040 -0.0009 -0.0873
 1661W        W 5725   5.466   4.795  10.036  0.2565  0.2422 -0.1286
 1662W        W 5726   7.843   2.790   3.499 -0.1955  0.1044 -0.3532
 1663W        W 5727   9.368   9.289   2.031  0.3138 -0.0682  0.3732
 1664W        W 5728   3.653   9.903   1.962  0.0598  0.0845  0.0151
 1665W        W 5729  10.598   1.092   8.697 -0.1509  0.1139  0.0111
 1666W        W 5730   3.182   9.300  10.078  0.1660 -0.0033  0.2678
 1667W        W 5731   8.746   1.542   1.059  0.0790 -0.0907  0.0225
 1668W        W 5732   6.568   1.186  11.435  0.3280 -0.0539 -0.2864
 1669W        W 5733   4.023   3.582   9.609 -0.1412  0.0090  0.3638
 1670W        W 5734   4.668   7.182   0.008  0.1704  0.2271  0.0174
 1671W        W 5735   8.344   5.001   3.047 -0.0767 -0.1863 -0.5049
 1672W        W 5736   6.487   9.379  10.319 -0.0896  0.3387  0.2903
 1673W        W 5737   8.793   5.120   3.615 -0.0206  0.1120 -0.2582
 1674W        W 5738   9.600   4.166   7.803 -0.1020  0.1446  0.0542
 1675W        W 5739   6.751   5.462   0.544 -0.1514  0.0318 -0.1491
 1676W        W 5740   3.837   7.157   1.666  0.2167 -0.0556 -0.1854
 1677W        W 5741   4.819  10.422   3.292  0.2117  0.1536 -0.1413
 1678W        W 5742   7.707   2.366  10.318 -0.2164 -0.0748  0.1078
 1679W        W 5743   3.248   4.486   2.060  0.2473 -0.2668  0.1475
 1680W        W 5744   2.547   6.664   8.712  0.2604  0.1559 -0.1174
 1681W        W 5745   1.168   0.646  11.255  0.3535  0.1330  0.1645
 1682W        W 5746   4.574   5.256   8.112  0.1136 -0.0611 -0.1480
 1683W        W 5747   5.576   6.705  10.948  0.0460 -0.0914 -0.1686
 1684W        W 5748   8.742   1.648   2.329  0.0889 -0.1983  0.1688
 1685W        W 5749   1.730   0.313   8.760  0.2687 -0.3537  0.0296
 1686W        W 5750   4.972   0.416   7.061  0.0916 -0.0539  0.1068
 1687W        W 5751   5.733   7.231   2.774  0.5057 -0.3360 -0.1047
 1688W        W 5752   6.312   4.690   0.052  0.4391  0.0199 -0.0744
 1689W        W 5753  10.068   5.550  11.119  0.2714  0.1286  0.0048
 1690W        W 5754   0.754   1.291   0.738  0.0294 -0.2722  0.1072
 1691W        W 5755   2.127   5.566  11.399  0.1683  0.3411 -0.1493
 1692W        W 5756   9.173   6.886   3.197  0.0411  0.1335  0.3516
 1693W        W 5757   7.441   4.770  10.363 -0.1363 -0.0892 -0.0540
 1694W        W 5758   1.058   8.358   0.095  0.3281 -0.0981 -0.0765
 1695W        W 5759   0.171   5.961   7.729 -0.0440  0.0014  0.2348
 1696W        W 5760   9.753   3.743   9.873  0.0032  0.3847 -0.1918
 1697W        W 5761   9.067   2.189   2.406  0.0205 -0.0073 -0.3175
 1698W        W 5762   7.719   4.357   2.912  0.0701  0.2107 -0.2207
 1699W        W 5763   6.105   6.534   3.299 -0.2352 -0.2192  0.0143
 1700W        W 5764   2.998   6.305   1.066 -0.2344  0.1356 -0.0134
 1701W        W 5765  10.569   1.022   7.360  0.3290 -0.1258 -0.0861
 1702W        W 5766   6.562   0.030   3.223 -0.3438 -0.0667 -0.4722
 1703W        W 5767   7.699   8.026  10.090  0.1640  0.0473  0.1729
 1704W        W 5768   0.214   6.791   9.941 -0.1169  0.1358  0.2110
 1705W        W 5769   5.401   6.229   3.053 -0.0010 -0.2623 -0.2935
 1706W        W 5770   7.352   3.557   2.432 -0.0314 -0.0457 -0.1392
 1707W        W 5771   2.204   8.105   3.133 -0.1718  0.0324  0.2113
 1708W        W 5772   5.536   8.325   2.101  0.0175  0.3094  0.1884
 1709W        W 5773   9.782   3.556   2.374 -0.2300  0.0282  0.0231
 1710W        W 5774   1.249   3.618   9.985 -0.2399  0.1600 -0.0386
 1711W        W 5775   2.037   5.520  10.107  0.0385 -0.1698 -0.0378
 1712W        W 5776   2.648   1.246   8.811 -0.2278 -0.0444  0.0172
 1713W        W 5777   6.869   5.407  10.358  0.0722 -0.1598  0.3241
 1714W        W 5778   9.764   1.321   9.040  0.1124  0.0960 -0.1807
 1715W        W 5779   3.065   4.088   9.948  0.0220 -0.3484 -0.0242
 1716W        W 5780   3.813   6.210   0.734 -0.0756 -0.2226  0.1661
 1717W        W 5781   6.041   8.990   1.983  0.2913  0.1368  0.0953
 1718W        W 5782   2.402   1.789  10.758  0.2194  0.1257 -0.1283
 1719W        W 5783   4.793   3.305   9.156  0.4205 -0.1270  0.1205
 1720W        W 5784   9.328   8.672   3.814  0.2375  0.2940  0.0020
 1721W        W 5785   5.206   1.641   1.756  0.0520 -0.2095 -0.0554
 1722W        W 5786   2.214   9.845   0.156  0.0901 -0.1299  0.1504
 1723W        W 5787   6.583   1.144   1.784  0.1759  0.3048 -0.0728
 1724W        W 5788   0.295   7.317   9.252  0.0811 -0.0241 -0.0802
 1725W        W 5789   3.786   6.515   9.710 -0.0754  0.1270 -0.2619
 1726W        W 5790   5.309  10.243   3.130  0.0898 -0.3548  0.0410
 1727W        W 5791   4.993   1.489   2.610  0.0012 -0.2223 -0.0923
 1728W        W 5792   2.111   7.292   8.694  0.2079 -0.0854  0.1452
 1729W        W 5793   1.040   8.614   4.046 -0.1133 -0.0593  0.0676
 1730W        W 5794   4.789  10.614   2.675  0.2493 -0.2090 -0.0930
 1731W        W 5795   8.064   3.148   3.011  0.0508 -0.0722 -0.0189
 1732W        W 5796  10.465   3.778   8.510 -0.2238  0.3123 -0.1975
 1733W        W 5797   2.482   0.794   1.556 -0.1036 -0.2534  0.0751
 1734W        W 5798   3.220   7.315   9.270 -0.1709 -0.0546 -0.0613
 1735W        W 5799   9.020  10.562   8.608 -0.1102 -0.0093  0.0293
 1736W        W 5800   9.303   5.020   8.481 -0.0201  0.4739  0.0026
 1737W        W 5801   7.291   5.744   2.609  0.1051  0.0352 -0.0000
 1738W        W 5802   3.633   3.915   1.397  0.1758 -0.1385  0.0524
 1739W        W 5803   6.842   7.946   8.178 -0.1556 -0.2569  0.3146
 1740W        W 5804   7.333   2.728   1.134 -0.0187 -0.0572  0.0028
 1741W        W 5805   2.842   1.762   3.320 -0.1321  0.4209 -0.0292
 1742W        W 5806   9.317   3.144   7.355 -0.1543  0.0656 -0.1957
 1743W        W 5807   6.513   7.293   8.955  0.3241 -0.0695 -0.3543
 1744W        W 5808   0.522   3.427   8.531  0.1398 -0.1023 -0.1918
 1745W        W 5809   6.157   3.675  10.298 -0.1429 -0.0048 -0.4465
 1746W        W 5810   9.679   0.099  10.579  0.3317 -0.1713  0.1215
 1747W        W 5811   4.469   2.712   2.904  0.3117 -0.0123 -0.0609
 1748W        W 5812   2.324   0.212   2.704 -0.2058 -0.1894  0.0881
 1749W        W 5813   6.936   4.414   3.450 -0.3296 -0.0399  0.0085
 1750W        W 5814   4.972   2.313  10.321  0.1632  0.4050 -0.0726
 1751W        W 5815  10.587  10.313   1.209  0.0191  0.0952  0.0187
 1752W        W 5816  10.455   4.256   3.067 -0.3282 -0.0043  0.2388
 1753W        W 5817   0.229   2.750   9.978  0.0935 -0.1165 -0.2161
 1754W        W 5818  10.011   3.096   2.248  0.0401 -0.1745  0.0451
 1755W        W 5819   7.124   0.306   8.846  0.1007  0.1182 -0.1248
 1756W        W 5820   4.310   2.902  10.195  0.1493 -0.1306 -0.1444
 1757W        W 5821   7.219   7.037   0.072 -0.0282  0.1138  0.0079
 1758W        W 5822   0.983   2.138   2.807  0.0291  0.0856  0.0002
 1759W        W 5823   0.683   9.411   8.832 -0.1015 -0.0752 -0.0120
 1760W        W 5824   3.404   1.284  11.416  0.1941  0.0684  0.0235
 1761W        W 5825   1.514   2.986   2.911 -0.2433 -0.6159 -0.0595
 1762W        W 5826   7.064   0.746   3.270  0.0820  0.0724 -0.0617
 1763W        W 5827   6.798   6.973  10.485 -0.2097  0.4055 -0.2263
 1764W        W 5828   8.438   7.094   0.352 -0.3794 -0.0352 -0.3010
 1765W        W 5829   8.853   0.987   0.883 -0.2024  0.1655 -0.3257
 1766W        W 5830   1.965   2.202   9.862 -0.0121 -0.2560  0.2281
 1767W        W 5831   1.356   5.019   8.343 -0.1565 -0.2010  0.1098
 1768W        W 5832   4.541   0.014   0.059  0.1991  0.0727  0.1486
 1769W        W 5833   6.340   7.352   8.504 -0.2821 -0.1989 -0.0701
 1770W        W 5834   7.275   8.152  10.446  0.0900  0.4383 -0.0052
 1771W        W 5835   9.131   1.721   8.754  0.3664  0.2594  0.1284
 1772W        W 5836   3.839   4.409  10.584 -0.1061 -0.0041  0.0105
 1773W        W 5837  10.548   3.705  10.489  0.0638  0.0092  0.1037
 1774W        W 5838   1.450   8.326   8.405 -0.0761  0.1798  0.2928
 1775W        W 5839   1.661   1.592   0.185 -0.1235 -0.0850  0.4478
 1776W        W 5840   8.813   0.541  10.661  0.1319  0.0327 -0.1757
 1777W        W 5841   4.759   2.898   1.557 -0.2555  0.2987 -0.2470
 1778W        W 5842   5.899   2.460   9.407  0.3029 -0.1852 -0.0907
 1779W        W 5843   7.138   8.125   1.438  0.0144 -0.2033 -0.4820
 1780W        W 5844   8.429   6.065   0.704  0.1944 -0.0863 -0.1299
 1781W        W 5845   2.897   3.711   8.966  0.2851 -0.0863  0.2359
 1782W        W 5846   5.079   7.488   1.429  0.1041 -0.1394 -0.2121
 1783W        W 5847   3.132   5.627   0.945 -0.0418  0.0671  0.0838
 1784W        W 5848   5.356   2.494   3.291 -0.0398 -0.3054  0.3533
 1785W        W 5849   3.841   3.470   9.150 -0.0154  0.1196 -0.0256
 1786W        W 5850   9.029   7.044  10.830  0.2896  0.0284  0.2032
 1787W        W 5851   4.339   1.773   1.320  0.0428  0.1730 -0.0825
 1788W        W 5852   2.801   6.737   1.493  0.0855  0.0279 -0.1172
 1789W        W 5853   3.261   2.322   1.116 -0.2179  0.1478  0.2288
 1790W        W 5854   8.239   6.876   8.372 -0.0727  0.0560  0.2097
 1791W        W 5855   8.631   6.012  10.353 -0.0221 -0.1479 -0.2644
 1792W        W 5856   4.425   0.446  10.987  0.2334 -0.1384  0.0468
 1793W        W 5857   0.101   3.555   2.451 -0.3674  0.0244  0.1865
 1794W        W 5858   8.981   5.340   7.533  0.0477 -0.0604 -0.0420
 1795W        W 5859   6.548   8.201   9.531  0.3744 -0.0138  0.0649
 1796W        W 5860  10.546   4.590   8.346 -0.0355  0.1636  0.0884
 1797W        W 5861   4.756  10.565   8.359  0.1216 -0.1604 -0.0167
 1798W        W 5862   0.422   3.681  11.153  0.1919  0.0094 -0.0930
 1799W        W 5863   1.367   7.893   3.617 -0.1528 -0.2591  0.0609
 1800W        W 5864   2.992   9.377   1.959 -0.1043  0.3008 -0.2458
 1801W        W 5865   3.930   2.882   3.570 -0.3804 -0.1961 -0.0305
 1802W        W 5866   2.876   7.615   2.545 -0.0033  0.0586  0.0566
 1803W        W 5867  10.068   1.984   1.241 -0.0919  0.0500 -0.0695
 1804W        W 5868   5.354   1.439  10.561 -0.0539 -0.1757  0.1505
 1805W        W 5869   3.428   9.622   3.162 -0.3775 -0.0121 -0.0420
 1806W        W 5870   0.574   2.176  11.121  0.0024  0.1294 -0.1221
 1807W        W 5871  10.212   5.473   8.823  0.2161  0.1743 -0.1685
 1808W        W 5872   0.434   4.755   2.240  0.1138  0.0173  0.0924
 1809W        W 5873   4.269   5.684   8.431 -0.0835  0.1089  0.0190
 1810W        W 5874   5.456   1.115   8.292  0.0677  0.1638 -0.2159
 1811W        W 5875   8.165   0.039   0.280 -0.1489 -0.3382 -0.1604
 1812W        W 5876   8.187   7.090   1.827 -0.2922  0.1273 -0.2337
 1813W        W 5877   2.942   2.478   7.638  0.1019  0.2008 -0.2800
 1814W        W 5878   6.826   1.716   9.161  0.1176 -0.1812 -0.0101
 1815W        W 5879  10.243   3.410   2.636 -0.2407 -0.0902 -0.1721
 1816W        W 5880   2.684   9.549   0.313 -0.1362  0.1049 -0.0131
 1817W        W 5881  10.236   7.051   0.022 -0.0625 -0.2305  0.0331
 1818W        W 5882   6.483   7.303   2.056  0.4974  0.1471  0.1886
 1819W        W 5883   3.303   1.835   8.254  0.0936 -0.1444 -0.0907
 1820W        W 5884   5.292   7.182   9.558 -0.1168  0.0157  0.2309
 1821W        W 5885   2.502   9.080   0.191 -0.1171  0.0094  0.2292
 1822W        W 5886   9.618   2.242   7.989 -0.0324 -0.1345 -0.1872
 1823W        W 5887   5.219   6.704   1.969 -0.1820 -0.0399  0.0632
 1824W        W 5888   0.702   7.889   2.840  0.0654  0.2359 -0.4323
 1825W        W 5889   1.141   6.508   1.238  0.2675 -0.0782 -0.2659
 1826W        W 5890   3.556   0.411  11.447  0.2900 -0.0346  0.3395
 1827W        W 5891   3.392   2.192   1.671  0.1505  0.1873 -0.3038
 1828W        W 5892   8.911  10.442   3.575  0.0311 -0.1145  0.2567
 1829W        W 5893   2.193   4.557  10.023 -0.1056 -0.0058 -0.1655
 1830W        W 5894   5.138   7.469   9.929 -0.1972 -0.1015  0.0756
 1831W        W 5895  10.035   4.242   0.456 -0.3241 -0.0151 -0.1825
 1832W        W 5896   4.172  10.414   9.848  0.1886  0.0921  0.1060
 1833W        W 5897   2.497  10.291   7.289 -0.0196 -0.1671  0.0256
 1834W        W 5898   9.944   1.200   9.504  0.1374 -0.1618  0.0423
 1835W        W 5899   4.938   8.949  11.477  0.1298 -0.0407  0.2117
 1836W        W 5900   0.317   4.616   3.658 -0.0337  0.1514 -0.1197
 1837W        W 5901   0.642   1.150   2.126 -0.2199  0.2111 -0.1667
 1838W        W 5902   7.266   8.887   4.060  0.0739  0.0510 -0.0923
 1839W        W 5903   4.919   3.276   8.263 -0.0270 -0.1753 -0.1865
 1840W        W 5904   8.384   1.083   1.032  0.4143  0.1611  0.0561
 1841W        W 5905  10.261   8.597   9.672  0.2780 -0.5472  0.0000
 1842W        W 5906   0.678   8.021   8.535 -0.0688  0.0816 -0.0745
 1843W        W 5907   5.522   6.333   8.967 -0.1294  0.0514 -0.0196
 1844W        W 5908   5.055   2.373   2.854 -0.0736  0.1322  0.1223
 1845W        W 5909   1.296   0.267   9.480  0.1310 -0.2253  0.1316
 1846W        W 5910   4.596   9.625   7.855  0.1770 -0.0009  0.1436
 1847W        W 5911   1.225   6.559   2.581  0.1211  0.0290 -0.1596
 1848W        W 5912   9.991   3.015   1.304  0.2672  0.2426 -0.0112
 1849W        W 5913   0.395   7.581   8.389  0.2186  0.0477  0.0149
 1850W        W 5914   6.146   9.064   8.625  0.4478 -0.0970  0.1654
 1851W        W 5915   1.233   2.281   8.938 -0.1639 -0.0499 -0.0179
 1852W        W 5916   2.714   9.179  10.185  0.0684 -0.1176 -0.2555
 1853W        W 5917   3.232   9.939   0.966  0.2941  0.3549 -0.0392
 1854W        W 5918   8.373   5.059  10.811  0.2478  0.1145  0.0429
 1855W        W 5919   4.730   9.095   8.724  0.3387  0.1193  0.0048
 1856W        W 5920   8.750   2.400   0.931  0.2438  0.0692 -0.1351
 1857W        W 5921   2.012   2.259   1.458 -0.1188 -0.1068  0.1523
 1858W        W 5922   4.490   3.410  10.369  0.1431  0.2505 -0.0264
 1859W        W 5923   9.080   9.473   8.902 -0.2854  0.0266  0.2448
 1860W        W 5924   7.182   9.253   2.506  0.2139 -0.2135  0.4606
 1861W        W 5925   6.801   2.116   3.554 -0.3006  0.2539 -0.4217
 1862W        W 5926   6.404   7.093   0.140 -0.1034 -0.1485  0.1652
 1863W        W 5927   8.839   6.490  10.138 -0.0164 -0.0612  0.1304
 1864W        W 5928   7.733   3.530   9.871 -0.1235 -0.2022  0.3805
 1865W        W 5929   7.207   5.070   1.396 -0.3135  0.0026  0.1543
 1866W        W 5930   4.575   2.290   2.656 -0.1956 -0.0752 -0.2399
 1867W        W 5931   7.577  10.043   7.624  0.0175 -0.2602 -0.1778
 1868W        W 5932   5.206   3.859   3.419 -0.1183  0.0725  0.1547
 1869W        W 5933   2.649   5.667  11.585  0.2973  0.2467  0.2769
 1870W        W 5934   2.903   8.453  10.620 -0.1606 -0.0456 -0.0512
 1871W        W 5935   7.225   2.198   3.150 -0.0140 -0.2277  0.2116
 1872W        W 5936   6.224   5.524   9.090  0.0462 -0.3185 -0.2139
 1873W        W 5937   6.505   9.904  11.525 -0.1525  0.1184  0.2391
 1874W        W 5938   2.285   7.401   7.821  0.1607 -0.1435  0.1917
 1875W        W 5939   7.265   0.174   0.398 -0.2571 -0.4064  0.0375
 1876W        W 5940   9.499   2.741   9.990  0.2361 -0.1338  0.0948
 1877W        W 5941   2.517  10.219   2.228  0.1724 -0.0667 -0.1403
 1878W        W 5942   4.589   9.616   2.795  0.2523  0.1510 -0.0036
 1879W        W 5943   3.959   9.385  11.382  0.2778 -0.1465 -0.1751
 1880W        W 5944   0.966  10.530   8.164  0.2646 -0.0381  0.0570
 1881W        W 5945   3.022   3.539   0.488 -0.2828 -0.4337  0.0894
 1882W        W 5946   9.746   4.627   7.444  0.1116 -0.3438 -0.0007
 1883W        W 5947   7.863   0.559   2.370  0.1590  0.1220 -0.2964
 1884W        W 5948   3.720   3.846   3.719 -0.0817 -0.1138 -0.0732
 1885W        W 5949   5.714   2.513   8.934  0.0620  0.0406 -0.0190
 1886W        W 5950   8.947   5.797   2.085 -0.0513  0.0974  0.2393
 1887W        W 5951   7.039  10.141   9.423 -0.0146 -0.0292  0.0424
 1888W        W 5952  10.329   0.299   1.750 -0.1779  0.0538  0.1384
 1889W        W 5953   1.598   4.406   0.947  0.2670 -0.4023  0.0861
 1890W        W 5954  10.285   6.601  11.433  0.3184 -0.2570  0.0234
 1891W        W 5955   5.894   3.540   2.426 -0.0801 -0.1522 -0.1607
 1892W        W 5956   1.982   9.236   2.113 -0.0660  0.1339  0.0464
 1893W        W 5957   0.914   3.051  10.840 -0.1281  0.2285  0.0318
 1894W        W 5958  10.582  10.267   3.452 -0.1664 -0.1444  0.0864
 1895W        W 5959   5.010   3.236  10.692 -0.1360  0.0862  0.2166
 1896W        W 5960   2.235   3.512  11.015 -0.0029 -0.1807 -0.1945
 1897W        W 5961   1.063   3.470   2.866  0.3799 -0.2959  0.0939
 1898W        W 5962   0.527   2.312   9.363 -0.0066 -0.0202 -0.2103
 1899W        W 5963   0.733   4.968   3.913 -0.0340  0.0286  0.2148
 1900W        W 5964   3.929   0.040   3.006  0.1327 -0.1587  0.1541
 1901W        W 5965   4.150   3.433  11.276 -0.4619  0.1856 -0.0416
 1902W        W 5966  10.041   6.666   1.338  0.0215 -0.0244  0.0261
 1903W        W 5967   8.838   8.913  10.187  0.3646 -0.0027 -0.3076
 1904W        W 5968   9.219   5.024   3.409 -0.0268  0.0756 -0.3187
 1905W        W 5969   2.004   7.507   9.662 -0.1096  0.0520 -0.2098
 1906W        W 5970   4.085   9.558   7.734  0.0483 -0.1002 -0.1247
 1907W        W 5971   2.294   2.140  10.332  0.1896  0.3446 -0.0439
 1908W        W 5972   6.775   6.528   2.809 -0.0793 -0.1277  0.2289
 1909W        W 5973   4.932   5.034   0.982  0.1600 -0.0926  0.1875
 1910W        W 5974   9.347   7.348   9.857  0.1075 -0.1482 -0.1432
 1911W        W 5975   9.657   2.979   9.303  0.1995  0.1021 -0.2893
 1912W        W 5976   2.422   5.585   8.315  0.0704 -0.0207 -0.0727
 1913W        W 5977   7.444   9.480   3.328  0.0352 -0.0692  0.1201
 1914W        W 5978   2.452  10.615   0.819  0.2107  0.2294  0.2927
 1915W        W 5979   0.738   0.504   3.739 -0.0716 -0.0235  0.0222
 1916W        W 5980   6.110   0.162   8.766 -0.3048  0.3413  0.2335
 1917W        W 5981   4.981   7.028   1.548 -0.2903  0.2236 -0.1748
 1918W        W 5982   5.960   1.271   2.739 -0.0157  0.3381  0.2831
 1919W        W 5983   3.081   8.367   2.006 -0.0575  0.2474  0.2106
 1920W        W 5984   3.042   7.172   2.645  0.0174 -0.0877 -0.1948
 1921W        W 5985   0.739   5.894   2.938  0.0267  0.0449 -0.0357
 1922W        W 5986   4.957   6.651  10.370 -0.0191 -0.0160 -0.2339
 1923W        W 5987  10.040   3.517   1.311  0.0509 -0.0486  0.2601
 1924W        W 5988   9.790   3.326   0.956  0.1900 -0.1733 -0.1506
 1925W        W 5989   5.673   0.190   8.476  0.0614  0.0991 -0.0525
 1926W        W 5990   7.830   4.317   7.563 -0.1703  0.1254  0.1844
 1927W        W 5991  10.290   4.698   2.481  0.0158  0.1848 -0.3474
 1928W        W 5992   3.319   2.258   9.032 -0.0419 -0.2393  0.0265
 1929W        W 5993   2.828   8.539   2.537 -0.1269  0.1311 -0.2333
 1930W        W 5994  10.113   2.059   3.257  0.3990 -0.2307  0.0043
 1931W        W 5995   6.541   3.257   0.562  0.0639  0.0815 -0.1517
 1932W        W 5996   0.413   0.811   2.457 -0.0201 -0.1611  0.2533
 1933W        W 5997   5.744   6.005   1.621 -0.0935  0.3620  0.5186
 1934W        W 5998   9.024   5.542   0.061 -0.1609 -0.2910 -0.2867
 1935W        W 5999   7.065   7.171  11.221 -0.1144 -0.0850 -0.0098
 1936W        W 6000  10.368   9.570   7.939 -0.2180  0.5283  0.1156
 1937W        W 6001   2.454   5.422   9.634  0.1713  0.1218 -0.1873
 1938W        W 6002   4.484   2.858   9.696  0.3730  0.0812 -0.2400
 1939W        W 6003   5.762   5.113  10.291 -0.1519  0.2820  0.2808
 1940W        W 6004  10.046   5.623   2.481  0.2723 -0.1272  0.4294
 1941W        W 6005   8.720   9.050   1.214  0.1411 -0.0626 -0.0451
 1942W        W 6006   4.637   8.791   2.366  0.0284  0.0110  0.5246
 1943W        W 6007   5.806   7.385  10.443  0.0328  0.4013 -0.1678
 1944W        W 6008   0.635   2.127   0.650 -0.1605  0.1433  0.1247
 1945W        W 6009   3.017   0.999  11.391 -0.1470  0.0550  0.3112
 1946W        W 6010   4.824   7.336  10.275  0.2141  0.0382 -0.1541
 1947W        W 6011   6.292   9.437   8.960  0.1987 -0.0289  0.0640
 1948W        W 6012  10.385   8.455   9.210 -0.0156 -0.3279  0.1676
 1949W        W 6013   4.444   6.488  10.445 -0.5335 -0.3145  0.0438
 1950W        W 6014   5.152  10.601   0.380 -0.2738  0.1388  0.0065
 1951W        W 6015   6.853   3.504   2.568 -0.0897 -0.0044  0.0579
 1952W        W 6016   8.438   9.027   8.550 -0.0862  0.0369 -0.2252
 1953W        W 6017   2.688   5.757   3.348 -0.0964 -0.4674  0.2233
 1954W        W 6018   8.083   6.756   0.028  0.1985 -0.3172 -0.0907
 1955W        W 6019   1.269   6.753   0.700 -0.0272  0.2728 -0.0418
 1956W        W 6020   1.936   4.792   0.252 -0.0428 -0.1607  0.0788
 1957W        W 6021   9.846  10.416  10.958 -0.1294 -0.3108  0.1080
 1958W        W 6022   1.803   5.909   2.287  0.0807  0.2562  0.0952
 1959W        W 6023   4.557   1.450  11.592 -0.2983  0.2750 -0.0165
 1960W        W 6024   5.234   7.028   2.337  0.0166  0.1795  0.2291
 1961W        W 6025  10.489   1.672  10.759 -0.0995  0.1625 -0.1098
 1962W        W 6026   1.145   8.004   2.186  0.0405 -0.0685 -0.0570
 1963W        W 6027   5.892   6.322   2.532  0.1326  0.0673  0.0398
 1964W        W 6028   5.498   4.973   8.725  0.1763  0.1289 -0.0551
 1965W        W 6029   8.334   2.472   0.032  0.1907 -0.1564 -0.3082
 1966W        W 6030   7.521   7.074   8.972  0.1132  0.0902  0.1013
 1967W        W 6031   0.637   9.048  11.076 -0.1856  0.2389  0.1370
 1968W        W 6032   6.749   8.908   1.668 -0.0437  0.0255  0.0739
 1969W        W 6033   7.522   1.738   2.454 -0.0139  0.1253  0.5167
 1970W        W 6034   9.455   1.240   9.889  0.1931 -0.1401  0.0193
 1971W        W 6035   2.398   3.665   8.943 -0.0345 -0.2104 -0.1289
 1972W        W 6036   1.505   6.532   3.013 -0.1865 -0.3199 -0.3408
 1973W        W 6037   3.644   8.476   0.647 -0.0929 -0.1884 -0.1383
 1974W        W 6038   0.135   3.979   2.194 -0.0681 -0.1955 -0.3541
 1975W        W 6039   7.693   4.470   8.773  0.2533 -0.1259 -0.1400
 1976W        W 6040   0.702   0.917   2.876 -0.1953 -0.0622 -0.0865
 1977W        W 6041   1.955   8.182  10.983 -0.3110 -0.1703 -0.0436
 1978W        W 6042   4.701   6.155  11.161  0.0391 -0.3648  0.0667
 1979W        W 6043   9.904   8.114   1.378 -0.4331  0.0254 -0.1573
 1980W        W 6044   1.101   5.590   4.803  0.2831 -0.2585  0.2160
 1981W        W 6045   5.038   5.821   8.384  0.1872  0.1604 -0.2236
 1982W        W 6046   8.243   4.507   2.811  0.3571  0.0897 -0.0130
 1983W        W 6047   5.607   3.366   3.150 -0.2047 -0.1854 -0.1579
 1984W        W 6048   7.500   1.117  10.438 -0.1293  0.1489 -0.0221
 1985W        W 6049   4.083   4.014   1.026 -0.0426 -0.2425 -0.0969
 1986W        W 6050   1.259   9.600   1.436 -0.2601  0.2087 -0.0196
 1987W        W 6051   4.189   9.976   2.665  0.1059 -0.0466 -0.2815
 1988W        W 6052   3.795   1.879   2.998 -0.2360  0.1781 -0.1654
 1989W        W 6053   3.902   6.246   1.830  0.1782 -0.1913 -0.3385
 1990W        W 6054  10.215   1.762   9.744  0.1087  0.1656 -0.1423
 1991W        W 6055   5.183   1.012   1.611 -0.0185 -0.1891 -0.1222
 1992W        W 6056   3.286   3.318   2.605  0.0090  0.3324  0.0223
 1993W        W 6057   9.774   3.023   0.387 -0.2139  0.4052 -0.1355
 1994W        W 6058   5.705   0.479   8.894 -0.0400 -0.0918 -0.0581
 1995W        W 6059   6.863   1.081   1.301  0.3404 -0.2863 -0.3192
 1996W        W 6060  10.104   8.781   0.073  0.1646 -0.3786  0.0102
 1997W        W 6061   1.384   6.218   2.211  0.0608 -0.1320  0.1777
 1998W        W 6062   7.970   7.537  10.301  0.0925  0.2218  0.0548
 1999W        W 6063   0.983  10.242   7.295  0.0078 -0.1179  0.1021
 2000W        W 6064   6.505   1.339   7.217  0.0069  0.0980  0.0042
 2001W        W 6065   9.140   1.894   0.509  0.1594  0.0521  0.0821
 2002W        W 6066   2.797   8.466   0.956 -0.2093  0.0092 -0.2691
 2003W        W 6067   1.328   3.832   1.629 -0.2591 -0.0150 -0.1657
 2004W        W 6068   5.519   1.998   0.681  0.1488  0.0826  0.0947
 2005W        W 6069   8.934   4.328  11.385  0.0645 -0.1220 -0.0552
 2006W        W 6070   0.276   3.964  10.769 -0.0328  0.0474 -0.0462
 2007W        W 6071   3.008   8.040   2.827 -0.1333  0.0469 -0.0761
 2008W        W 6072   7.834   8.661   1.222 -0.0940  0.1449  0.0431
 2009W        W 6073   2.434   1.169   2.579 -0.0403  0.1895 -0.2207
 2010W        W 6074   2.486   4.897   9.689  0.2825  0.1071  0.1099
 2011W        W 6075   3.791   6.558   8.249  0.0406  0.0500 -0.1636
 2012W        W 6076   3.132   4.561  10.285 -0.1523 -0.1648 -0.0274
 2013W        W 6077   2.294  10.314   9.019  0.0507  0.2690  0.2160
 2014W        W 6078  10.086   6.823   8.088  0.1129 -0.2310 -0.0322
 2015W        W 6079  10.512   5.389  11.342  0.0945 -0.0529  0.1581
 2016W        W 6080   6.751   4.757   4.169  0.0199 -0.0046 -0.1244
 2017W        W 6081   0.863   2.429   1.738  0.1820 -0.2181  0.0259
 2018W        W 6082   1.837   0.965   1.544  0.1160  0.0480  0.0338
 2019W        W 6083   5.578   1.846   2.633  0.0066  0.0124 -0.3328
 2020W        W 6084   5.324  10.176  10.768  0.1800 -0.1563  0.0420
 2021W        W 6085   8.273   1.498  11.459  0.1605  0.0952 -0.4315
 2022W        W 6086   5.800   3.530   9.531 -0.0659 -0.1839 -0.2497
 2023W        W 6087   7.164   9.805   9.789  0.0480  0.2841  0.0978
 2024W        W 6088   6.949   1.441   0.088 -0.1961  0.2834  0.1666
 2025W        W 6089   5.389   6.328   8.379 -0.2414 -0.1132  0.1698
 2026W        W 6090   1.651   5.252  10.404  0.1585  0.1608 -0.0380
 2027W        W 6091   4.700   7.232   9.794 -0.2217  0.0782 -0.2385
 2028W        W 6092   5.669   4.416   0.698 -0.0177 -0.0286  0.1248
 2029W        W 6093   1.355   8.984   3.853  0.3810  0.0928  0.2036
 2030W        W 6094   5.716   3.607   8.514  0.0479 -0.0257  0.0219
 2031W        W 6095   6.465   8.332   2.334 -0.3264  0.2003  0.1153
 2032W        W 6096   7.410   6.334   3.293  0.1947 -0.1311 -0.0448
 2033W        W 6097   4.295   3.581   0.555  0.0365 -0.1301 -0.2443
 2034W        W 6098  10.197   6.385  10.485  0.0962  0.2619 -0.1930
 2035W        W 6099   7.443   8.332   3.321  0.0114  0.2923 -0.0582
 2036W        W 6100   5.980   7.374   1.272 -0.3403 -0.1049 -0.0616
 2037W        W 6101   0.016   9.054   2.889  0.0815 -0.0097 -0.1178
 2038W        W 6102   9.906   2.878   9.731  0.0069 -0.0501 -0.2130
 2039W        W 6103   3.080   0.524  11.121  0.2862 -0.1294  0.1345
 2040W        W 6104   6.693   0.615   1.048 -0.1503 -0.1129  0.0332
 2041W        W 6105   0.603   7.906   9.020 -0.3729 -0.2718  0.1522
 2042W        W 6106   4.456   9.602   7.357 -0.0565  0.2113  0.0641
 2043W        W 6107   5.874   7.109   3.537  0.2404  0.0611  0.2416
 2044W        W 6108   0.656   1.184  10.456 -0.2116  0.2131 -0.4562
 2045W        W 6109   1.825   3.480   1.133  0.0057  0.1816 -0.1148
 2046W        W 6110   3.450   1.288   0.358 -0.0688 -0.1829 -0.3348
 2047W        W 6111   9.431   0.411   8.832 -0.1658 -0.0026 -0.2163
 2048W        W 6112   1.305   2.583   8.108  0.0928 -0.0284 -0.0521
 2049W        W 6113   5.004   8.450  11.553 -0.0279  0.0833 -0.1530
 2050W        W 6114   1.315   4.517   8.138 -0.2145  0.1634  0.1283
 2051W        W 6115   3.712   3.069  11.360 -0.1804 -0.0982  0.2431
 2052W        W 6116   1.369   8.775   1.145 -0.1693 -0.2086  0.1677
 2053W        W 6117   9.227   7.503   1.888  0.1821 -0.2054 -0.1973
 2054W        W 6118  10.049   4.450   1.339 -0.0116  0.1433 -0.4005
 2055W        W 6119   4.077   3.696   1.977 -0.0498  0.2620 -0.1775
 2056W        W 6120   4.609   6.504   1.931 -0.0001  0.2781 -0.2641
 2057W        W 6121   5.307   5.691   1.557  0.0881 -0.1477 -0.1490
 2058W        W 6122   2.423   2.501   0.813 -0.0426 -0.4183 -0.0009
 2059W        W 6123   0.554   4.742   2.719 -0.1650 -0.1274  0.3812
 2060W        W 6124   2.942   8.355   8.328  0.2798 -0.1874  0.2973
 2061W        W 6125  10.634   4.229   8.645 -0.0298  0.0737  0.2380
 2062W        W 6126   4.833   0.824   3.198  0.1374  0.2720  0.4171
 2063W        W 6127   5.784   0.113  10.730  0.1671 -0.0581  0.2134
 2064W        W 6128   1.545   5.845   9.405 -0.0710  0.1931 -0.2555
 2065W        W 6129   3.948   7.606  11.012  0.2008 -0.0888  0.1487
 2066W        W 6130   6.322   5.087   0.702 -0.1740 -0.0638 -0.1209
 2067W        W 6131   6.571   8.359   9.069  0.0403  0.0058 -0.4183
 2068W        W 6132   5.210   9.802   1.096 -0.1019  0.3028  0.1847
 2069W        W 6133   6.253   6.077   8.361  0.0446 -0.0181 -0.3453
 2070W        W 6134   7.098   3.063   0.801 -0.2614  0.1187 -0.1021
 2071W        W 6135   7.451   6.255   0.282 -0.1043 -0.2979 -0.3052
 2072W        W 6136   4.724   9.681   3.748 -0.1877 -0.2300 -0.0213
 2073W        W 6137   8.410   6.866   1.416 -0.0968 -0.0131 -0.0072
 2074W        W 6138   8.966   6.736   9.558 -0.1588 -0.1436 -0.0339
 2075W        W 6139   2.163   8.054   2.044 -0.1665 -0.0884 -0.3696
 2076W        W 6140   9.262   1.151  10.758 -0.2402  0.1467  0.1810
 2077W        W 6141   3.500  10.043   0.570  0.1219  0.3358  0.0427
 2078W        W 6142   8.418   0.611   9.565 -0.1216  0.1124 -0.2414
 2079W        W 6143   4.318   5.201   3.258 -0.0346 -0.0681  0.3065
 2080W        W 6144   0.302   9.798   0.325 -0.1677  0.1244 -0.0105
 2081W        W 6145   0.481   5.788   0.358  0.0351 -0.0051  0.0440
 2082W        W 6146   8.836   7.783   9.442  0.3557  0.2577  0.3138
 2083W        W 6147   1.505  10.303   1.876 -0.2953  0.0276  0.0049
 2084W        W 6148  10.215   0.232   7.756 -0.1556 -0.1039 -0.0409
 2085W        W 6149   3.122   2.645   1.514 -0.0948  0.0666 -0.1228
 2086W        W 6150   4.494   6.645   1.298  0.2585 -0.1547  0.1692
 2087W        W 6151   2.539   3.765  10.691 -0.0658  0.1764 -0.2081
 2088W        W 6152   8.066   8.569  11.474 -0.3092  0.4266  0.0855
 2089W        W 6153   6.404   6.808   2.512  0.0883  0.0558 -0.0470
 2090W        W 6154   1.502   8.093  10.970  0.1597  0.3072  0.1052
 2091W        W 6155   7.060   9.570   3.654  0.2473 -0.0199  0.2496
 2092W        W 6156   7.087   9.375   2.000 -0.0619  0.2264  0.1549
 2093W        W 6157   4.818   0.252  11.162  0.4038  0.0288  0.4247
 2094W        W 6158   0.699   8.512   9.708  0.3477  0.2474  0.0933
 2095W        W 6159  10.238   4.667   0.717  0.0600 -0.2095 -0.1193
 2096W        W 6160   0.308   9.445   1.881 -0.1639 -0.1470 -0.3895
 2097W        W 6161   5.668   8.763   2.309  0.0125  0.0102 -0.2326
 2098W        W 6162   7.408   0.973   2.962  0.0204 -0.4182  0.1849
 2099W        W 6163   4.711   5.482   8.589 -0.1574 -0.1621  0.3130
 2100W        W 6164   7.942   8.488   9.994  0.3244 -0.0595 -0.1825
 2101W        W 6165   3.184   9.671   0.265  0.1726 -0.3440  0.3026
 2102W        W 6166   3.664   5.863  11.404  0.3421  0.1727 -0.1842
 2103W        W 6167   5.598   6.981   0.383 -0.0143  0.1809  0.0404
 2104W        W 6168   0.901  10.037  11.458  0.0166 -0.1789  0.0738
 2105W        W 6169   1.960   6.146   8.323  0.0301 -0.3492  0.2726
 2106W        W 6170   3.771   0.892   2.575 -0.2254 -0.1427  0.0919
 2107W        W 6171   1.497   6.076   8.387  0.0223  0.3971  0.0141
 2108W        W 6172   4.534   1.615   4.068  0.0672 -0.4398 -0.0123
 2109W        W 6173   6.266   3.389   7.351  0.2453  0.2448  0.3243
 2110W        W 6174   4.019   0.176  10.133  0.1721 -0.3247  0.0230
 2111W        W 6175   0.683   8.277   1.337  0.1019 -0.0919 -0.1385
 2112W        W 6176   1.286  10.183   0.235  0.3354  0.0160 -0.1299
 2113W        W 6177   4.781   4.742   8.877  0.2387  0.2475  0.3911
 2114W        W 6178   0.549  10.042   2.289  0.0335  0.0417 -0.0517
 2115W        W 6179   5.005  10.037   1.514  0.1390  0.1117  0.0460
 2116W        W 6180   4.142   1.498   0.830 -0.1212  0.1519  0.1504
 2117W        W 6181   8.932   3.929   8.456 -0.0416 -0.4260  0.3572
 2118W        W 6182   1.717   2.441   9.252 -0.0737 -0.0162  0.1029
 2119W        W 6183  10.510   6.341   0.681 -0.2427  0.1139  0.0945
 2120W        W 6184   1.271   4.857  10.515  0.2705 -0.2131 -0.0400
 2121W        W 6185   6.898   8.548   2.252  0.1237  0.2963 -0.2015
 2122W        W 6186   1.444   1.098   9.041  0.0620  0.1895  0.0505
 2123W        W 6187   3.912   2.045   9.720 -0.1475 -0.1736 -0.3882
 2124W        W 6188   3.611   6.657   1.789 -0.3202 -0.2414  0.1191
 2125W        W 6189   0.225   0.044   8.659 -0.0965 -0.2385  0.0035
 2126W        W 6190   2.931   5.527   2.069  0.0963  0.2511  0.3605
 2127W        W 6191   1.564   8.493  10.050 -0.2899 -0.3831  0.4180
 2128W        W 6192   0.755   8.521   0.919 -0.3002 -0.3335  0.1312
 2129W        W 6193   2.384   7.078   8.203  0.1581  0.1592 -0.1616
 2130W        W 6194   3.717   6.788   2.501  0.1277  0.0190  0.3245
 2131W        W 6195   0.524   0.304   8.952 -0.1291  0.0669 -0.1941
 2132W        W 6196   6.778   5.818   3.314  0.1941  0.1431 -0.1602
 2133W        W 6197   0.491   1.044   1.099 -0.0026 -0.1866 -0.0409
 2134W        W 6198   5.339   0.000   2.629 -0.0372  0.2218  0.1723
 2135W        W 6199   2.833   5.809   8.580 -0.0376  0.0024 -0.1940
 2136W        W 6200   7.889   7.989   3.999 -0.1311 -0.0842  0.1041
 2137W        W 6201   0.313  10.541   9.300  0.0666 -0.2780 -0.3439
 2138W        W 6202   6.135  10.241   4.244  0.2803  0.3618  0.3103
 2139W        W 6203  10.464  10.197   8.454  0.0069 -0.2449  0.0007
 2140W        W 6204   4.342   1.026  11.316 -0.1063 -0.2732 -0.0079
 2141W        W 6205   3.593   1.090   2.170 -0.0874  0.0629  0.1686
 2142W        W 6206   1.633   0.631   8.340 -0.1310 -0.0929 -0.1774
 2143W        W 6207   1.981   0.915   3.917  0.0479  0.1170 -0.1983
 2144W        W 6208   1.322   7.093  10.656  0.1100  0.0874  0.3369
 2145W        W 6209   9.311  10.165   3.649  0.0115  0.0695 -0.0133
 2146W        W 6210   0.207   8.154  10.641 -0.1187 -0.0621 -0.1235
 2147W        W 6211   8.477  10.139   9.744  0.0705  0.0427  0.1866
 2148W        W 6212   7.378   9.558   0.401  0.0308  0.3021 -0.0175
 2149W        W 6213   6.495   8.295  11.139 -0.1143  0.1834 -0.0938
 2150W        W 6214   9.659   8.613  11.009  0.1175 -0.1151 -0.0889
 2151W        W 6215   7.219   2.269   1.242  0.0019 -0.1443 -0.4892
 2152W        W 6216   5.084   8.556   0.770  0.1622 -0.1736 -0.0617
 2153W        W 6217  10.499   0.611   0.552  0.1460  0.0064 -0.2426
 2154W        W 6218   3.067   2.339  10.705 -0.1716 -0.0231  0.1100
 2155W        W 6219   6.184   7.725  10.648 -0.0325 -0.1659 -0.0191
 2156W        W 6220  10.476   2.045   7.512  0.2295 -0.2153  0.1918
 2157W        W 6221   7.086   1.881  11.044  0.2061 -0.1953 -0.0946
 2158W        W 6222   1.431   2.195   2.503  0.2000  0.0137 -0.2524
 2159W        W 6223   4.395   4.773   3.615 -0.0152 -0.0189  0.0217
 2160W        W 6224   8.193   6.526   2.510 -0.0616  0.0909  0.2890
 2161W        W 6225   6.273   0.767   2.288  0.0373  0.1636  0.3815
 2162W        W 6226   0.066   0.969   8.224 -0.2761 -0.0322  0.2428
 2163W        W 6227  10.068  10.220  11.441 -0.0129 -0.0015 -0.2639
 2164W        W 6228   3.189   3.865   0.142 -0.1286  0.3213  0.1992
 2165W        W 6229   8.425   6.945   0.884 -0.0639 -0.0692 -0.1993
 2166W        W 6230   2.334   6.037  11.306  0.2060  0.1753  0.1676
 2167W        W 6231   0.237   6.687   1.482 -0.1451  0.1800 -0.0102
 2168W        W 6232   8.756   2.623   2.542 -0.4749  0.0313 -0.0021
 2169W        W 6233   1.716   2.985   1.422 -0.2754  0.1301 -0.2041
 2170W        W 6234   3.423   7.970   9.241 -0.0793 -0.0225  0.0022
 2171W        W 6235   1.027   7.337   1.476 -0.1349  0.2020 -0.3798
 2172W        W 6236   9.035   1.252   2.311 -0.1219 -0.3434  0.1536
 2173W        W 6237   5.706   7.623   9.007  0.1181 -0.0196 -0.0894
 2174W        W 6238   7.098   8.401   0.304 -0.5910  0.1455 -0.1616
 2175W        W 6239   6.376   1.094   8.911 -0.1536  0.0875 -0.1279
 2176W        W 6240   6.154   7.463  10.114  0.3351  0.2714  0.1038
 2177W        W 6241   3.934   7.062   0.676  0.0177 -0.1287 -0.1188
 2178W        W 6242   8.900   9.613   9.926 -0.2630  0.0885  0.2052
 2179W        W 6243   1.728   2.793   8.321 -0.0008 -0.2589 -0.0556
 2180W        W 6244   6.099   5.125  11.155 -0.3362 -0.0914  0.1710
 2181W        W 6245   0.507   5.346  10.913  0.1034 -0.0743 -0.1802
 2182W        W 6246   4.411   9.698   2.259 -0.3732 -0.1461  0.1284
 2183W        W 6247   6.788  10.557   9.620 -0.2117  0.0570  0.0193
 2184W        W 6248   5.129   4.999  11.035  0.2002 -0.0548  0.0474
 2185W        W 6249   7.992  10.456   9.078  0.2674  0.0549  0.1504
 2186W        W 6250   2.852   1.897   2.411  0.0655  0.2704 -0.0416
 2187W        W 6251   7.186   7.088   1.867  0.0816  0.4966  0.3321
 2188W        W 6252  10.298   7.931   9.183 -0.1526  0.1788 -0.1757
 2189W        W 6253   8.291   4.935   2.074 -0.0878 -0.1682 -0.0367
 2190W        W 6254   1.206  10.527   8.598 -0.1213  0.4244 -0.0488
 2191W        W 6255   6.715   7.279   1.637  0.0620  0.0437  0.1500
 2192W        W 6256   0.838   5.601   8.849 -0.0713  0.3327 -0.0109
 2193W        W 6257   1.494   5.568   1.450  0.1893 -0.0334 -0.0722
 2194W        W 6258   8.400   0.778   1.423 -0.1318 -0.2491  0.0312
 2195W        W 6259   2.525   6.384   7.590  0.0325  0.2462 -0.4159
 2196W        W 6260   8.982   7.724   3.575 -0.0522 -0.1072  0.0010
 2197W        W 6261   7.652   4.049   9.896 -0.0253  0.1318 -0.0038
 2198W        W 6262   2.131   4.446  10.542 -0.0739 -0.0872 -0.2289
 2199W        W 6263   8.923   7.313   0.281  0.2523  0.1716 -0.0504
 2200W        W 6264   1.865   3.356   2.602 -0.0868  0.1500  0.1091
 2201W        W 6265   5.409   3.050   3.726 -0.1413  0.3400 -0.0506
 2202W        W 6266   5.472   0.771  10.546 -0.0977 -0.0184  0.1168
 2203W        W 6267   3.571   6.365   8.707  0.1205 -0.0930 -0.2659
 2204W        W 6268   0.849   0.222   2.256  0.1710  0.0117  0.0249
 2205W        W 6269   3.496   9.256   0.268 -0.3873 -0.0293  0.1493
 2206W        W 6270   2.034   6.084   9.288  0.0495 -0.3381  0.0717
 2207W        W 6271   2.012   2.610  10.140 -0.0762  0.1933 -0.1350
 2208W        W 6272   7.056   1.722   3.174  0.1708  0.3115 -0.2210
 2209W        W 6273   6.498   5.913  11.384  0.0338 -0.0606  0.1255
 2210W        W 6274   5.367   6.217   2.022 -0.0168  0.0323 -0.0530
 2211W        W 6275   5.051   1.457   8.253 -0.0335 -0.1304 -0.0194
 2212W        W 6276   2.872   1.003   8.459 -0.2450 -0.1757  0.0663
 2213W        W 6277   6.103   2.533   0.318 -0.0866 -0.0338  0.0066
 2214W        W 6278   2.509   9.501   7.692  0.2204  0.0397 -0.0713
 2215W        W 6279   1.280   1.279   8.505 -0.0589  0.3203 -0.0560
 2216W        W 6280   2.236   9.631   9.539  0.2440  0.0532 -0.1628
 2217W        W 6281   4.892  10.580   1.489  0.0225 -0.0888 -0.0238
 2218W        W 6282   3.533   1.478  10.900  0.4273 -0.0864  0.2669
 2219W        W 6283   9.431   3.670   0.919  0.1488  0.1403 -0.1606
 2220W        W 6284   1.114   5.203   3.367  0.0160 -0.1346 -0.0308
 2221W        W 6285   3.297   3.168   9.915  0.3479 -0.2940 -0.1625
 2222W        W 6286   8.315   7.419  11.578 -0.3159  0.2033 -0.0711
 2223W        W 6287   0.421   9.665   3.118 -0.1019 -0.3192  0.0954
 2224W        W 6288   6.699   5.027   1.509  0.2569  0.4685  0.2069
 2225W        W 6289   9.006   5.153   2.427 -0.1457  0.0284 -0.0464
 2226W        W 6290   4.093   6.137   8.359 -0.2559 -0.4384  0.1910
 2227W        W 6291   5.082   4.576   9.782 -0.1161 -0.0466  0.2138
 2228W        W 6292   0.914   5.206   9.232  0.1755  0.2334  0.1048
 2229W        W 6293   0.150  10.175  11.069  0.0510  0.0941 -0.1239
 2230W        W 6294   0.909   9.033   0.859  0.3527 -0.0820 -0.0613
 2231W        W 6295   6.550   5.138   2.821  0.2502  0.2007 -0.0558
 2232W        W 6296   6.778   0.430   0.551 -0.0257 -0.2576 -0.2653
 2233W        W 6297   8.254   1.437   1.364 -0.1539  0.1285  0.1008
 2234W        W 6298   6.022   1.164   0.711 -0.1770  0.1315  0.0353
 2235W        W 6299   2.691   6.164  10.214 -0.4366  0.0849  0.0586
 2236W        W 6300   8.184   3.654   9.650 -0.3077  0.2264 -0.1533
 2237W        W 6301   6.985   4.953  10.031 -0.0006  0.0077 -0.1047
 2238W        W 6302   6.082   0.558   9.619 -0.0258  0.2777  0.3297
 2239W        W 6303   5.078   4.124   9.609 -0.1229  0.2932 -0.2108
 2240W        W 6304  10.636   9.487   0.161  0.1118 -0.0574  0.5320
 2241W        W 6305   0.295   2.520   3.335  0.2893  0.6085 -0.0771
 2242W        W 6306   4.026   3.245   2.240 -0.0446  0.1588 -0.1968
 2243W        W 6307   3.844   1.796   0.497 -0.1080  0.0495  0.0988
 2244W        W 6308   1.777   5.960  11.299 -0.2102 -0.0437 -0.0538
 2245W        W 6309   5.198   1.680   7.619 -0.0079 -0.1264 -0.0562
 2246W        W 6310   8.450   3.071  10.778 -0.2326 -0.0046 -0.0749
 2247W        W 6311   8.944   1.663   2.772  0.3742 -0.0119 -0.1706
 2248W        W 6312   6.606   7.042   2.935  0.3021 -0.2602  0.0080
 2249W        W 6313   0.978   4.211  11.514 -0.3558  0.1123 -0.3393
 2250W        W 6314   6.368   5.570   0.874 -0.1909 -0.2775  0.2495
 2251W        W 6315   3.440   2.962   2.201 -0.0551 -0.1606 -0.2458
 2252W        W 6316   5.597   9.793   3.280 -0.0323  0.0583  0.3060
 2253W        W 6317   5.437   2.782   8.566 -0.2579 -0.0407  0.2944
 2254W        W 6318   7.831   1.292  10.122 -0.0108  0.1920 -0.1860
 2255W        W 6319  10.188   5.918  10.809 -0.0769 -0.1295 -0.0362
 2256W        W 6320   2.956   1.987  11.569 -0.1666  0.2789 -0.0888
 2257W        W 6321   6.080   5.299   9.974  0.3184  0.0932 -0.4530
 2258W        W 6322  10.252  10.079  10.940 -0.0719  0.1647 -0.1916
 2259W        W 6323   0.420   3.062   3.287  0.2301 -0.5354  0.0589
 2260W        W 6324   5.972   4.375  11.357 -0.1829  0.1068  0.0002
 2261W        W 6325   9.903   9.170   1.227 -0.2055 -0.0275 -0.0295
 2262W        W 6326   2.381   8.237   0.708 -0.0168  0.0039  0.0703
 2263W        W 6327   1.533   0.407  10.121 -0.0373  0.0311  0.1552
 2264W        W 6328   2.893   0.396  10.424  0.4072 -0.0030 -0.2276
 2265W        W 6329   8.301   8.760   2.960  0.1002  0.1470  0.0519
 2266W        W 6330   4.076   7.218   2.458 -0.1735  0.3078  0.0318
 2267W        W 6331   5.445   9.050   9.286 -0.2631  0.1180  0.2257
 2268W        W 6332   5.685   4.862   1.318  0.0870  0.1462  0.1848
 2269W        W 6333   4.311   8.223   8.763 -0.1342 -0.2219  0.1310
 2270W        W 6334   0.749   6.922   8.774 -0.1753 -0.1650 -0.0294
 2271W        W 6335   6.171   1.523  11.396 -0.4456 -0.1657  0.4239
 2272W        W 6336   0.826   1.383   2.999 -0.2409 -0.0988 -0.4346
 2273W        W 6337   2.219   5.034   2.492  0.2750  0.1845 -0.0230
 2274W        W 6338   2.938   4.372   9.521 -0.0157 -0.0904 -0.1530
 2275W        W 6339   0.542   0.603   1.402 -0.0523  0.0284  0.2404
 2276W        W 6340   9.884   2.188   1.757 -0.0758  0.0499  0.1014
 2277W        W 6341   3.130   8.886  10.895  0.4614 -0.0482 -0.2105
 2278W        W 6342   6.938   3.676   9.122 -0.1920  0.0114 -0.0254
 2279W        W 6343   2.484   7.670   0.011  0.2885  0.3655 -0.1922
 2280W        W 6344   0.771   6.371  10.105 -0.3379  0.0426 -0.2419
 2281W        W 6345  10.610   2.159  11.092 -0.0470  0.1747  0.0932
 2282W        W 6346   7.804   9.166   3.093 -0.0094  0.0834  0.1366
 2283W        W 6347   4.907   6.216   3.378 -0.2436 -0.4904  0.2007
 2284W        W 6348   4.162   5.227   9.244  0.0082 -0.1183  0.3503
 2285W        W 6349   7.590   0.296   3.571 -0.2711  0.0691 -0.2124
 2286W        W 6350   3.006   5.304  11.525 -0.0368 -0.0339 -0.0382
 2287W        W 6351   9.975   5.551   3.484  0.3542 -0.4339 -0.0797
 2288W        W 6352   0.870   3.329  11.257 -0.3393 -0.2819  0.1388
 2289W        W 6353   6.373   0.844   9.961 -0.1267 -0.1011 -0.1934
 2290W        W 6354   3.968  10.613   3.795 -0.0454  0.1587  0.2604
 2291W        W 6355   9.894  10.254   8.605  0.0617 -0.0378 -0.0575
 2292W        W 6356   4.831   3.042   3.694 -0.1017  0.0514  0.0179
 2293W        W 6357   1.145   2.930  11.318  0.0601 -0.0431  0.3303
 2294W        W 6358  10.523   0.237   8.891 -0.2560 -0.0416 -0.3254
 2295W        W 6359   1.218   0.537   0.609  0.0381 -0.4070  0.0771
 2296W        W 6360   2.215   5.847   3.230 -0.0153  0.1183 -0.2312
 2297W        W 6361   5.042   8.669   2.057  0.1685 -0.0016  0.3016
 2298W        W 6362   1.694   7.404  11.444  0.0110  0.1576  0.2499
 2299W        W 6363   9.993   1.521   3.602 -0.0686  0.0521  0.2125
 2300W        W 6364   2.762   7.953   3.237  0.1718 -0.0539 -0.2869
 2301W        W 6365   3.771   8.705   8.099  0.0153 -0.1209  0.1513
 2302W        W 6366   0.853   9.935   0.353 -0.0055 -0.0564 -0.0769
 2303W        W 6367   3.779   4.364   1.231  0.3181  0.1079  0.1409
 2304W        W 6368   3.371   8.351   2.565 -0.2140 -0.1555 -0.0712
 2305W        W 6369   8.640   3.620   0.431  0.2388 -0.0974 -0.2716
 2306W        W 6370   7.198   2.558   2.542  0.3195  0.0525  0.0040
 2307W        W 6371   6.747   0.486   8.309  0.1709 -0.1563 -0.0363
 2308W        W 6372   8.751  10.448   7.850 -0.1296 -0.0790  0.2432
 2309W        W 6373   9.996   4.294   2.856 -0.0976 -0.0049  0.2119
 2310W        W 6374   3.489   5.362   1.234  0.1915  0.0877 -0.2827
 2311W        W 6375   0.445   5.070   1.137 -0.3099  0.0077  0.0911
 2312W        W 6376   6.357   6.321   2.368 -0.0380  0.0742  0.0524
 2313W        W 6377   1.998   5.170   9.532  0.1235 -0.2066 -0.0249
 2314W        W 6378   8.378   2.789   8.055 -0.0271  0.1207  0.2163
 2315W        W 6379   2.395   5.471   2.120 -0.2473 -0.2697  0.5130
 2316W        W 6380   8.622   3.236   1.729 -0.4473  0.1264 -0.3282
 2317W        W 6381   0.208   5.639  10.085  0.1044  0.1364 -0.1744
 2318W        W 6382   2.204   5.892   7.464 -0.2321  0.0055 -0.5700
 2319W        W 6383   7.511   6.769   0.318 -0.0595 -0.0727  0.0600
 2320W        W 6384   0.313   9.308   9.125 -0.1288  0.0092 -0.1677
 2321W        W 6385   7.145  10.601   9.237  0.1568  0.1947  0.2167
 2322W        W 6386   7.660   8.586   7.877  0.2637 -0.1060  0.3671
 2323W        W 6387   2.294   0.693   2.454 -0.1134 -0.1967  0.2725
 2324W        W 6388   8.308   9.748   3.652  0.2630 -0.2158 -0.2081
 2325W        W 6389   7.713   4.951   1.885 -0.0023  0.0524 -0.2125
 2326W        W 6390   7.298   6.018   1.288  0.1255 -0.2778  0.3432
 2327W        W 6391   3.349   8.555  11.317 -0.0342 -0.0419  0.2362
 2328W        W 6392   2.588   7.089   1.233  0.2564 -0.0833 -0.1029
 2329W        W 6393   1.311   3.380   1.944  0.0212 -0.0401  0.3129
 2330W        W 6394   1.463   5.300   9.528  0.1656  0.0440 -0.3381
 2331W        W 6395  10.214   1.081   2.087  0.1492 -0.0848  0.0765
 2332W        W 6396   7.848   8.715   2.684  0.2234 -0.2260  0.1620
 2333W        W 6397   1.752   9.150   8.739 -0.1939 -0.1801  0.1132
 2334W        W 6398  10.393   8.181   8.703  0.0031  0.1803  0.0253
 2335W        W 6399   9.261   1.963   1.899  0.0303 -0.1015  0.1888
 2336W        W 6400   3.573   6.316   2.659  0.2723  0.1918 -0.0400
 2337W        W 6401   8.063   0.330  10.069  0.0230  0.0939  0.4908
 2338W        W 6402   6.547   9.323   1.964  0.0583 -0.0281 -0.3100
 2339W        W 6403   2.935   3.674   3.172  0.2439  0.0498  0.0026
 2340W        W 6404   4.100   6.275   3.987  0.0514 -0.0758  0.1884
 2341W        W 6405   5.569   8.765   7.221 -0.0124 -0.0685 -0.0763
 2342W        W 6406   8.281   4.682  10.259 -0.0476  0.2419 -0.1813
 2343W        W 6407   8.209   0.236   7.618 -0.1725 -0.0546 -0.1996
 2344W        W 6408   5.141   8.288   8.734 -0.1932 -0.2727  0.1262
 2345W        W 6409   7.656   3.659   3.849 -0.1017 -0.0965  0.3118
 2346W        W 6410  10.202   3.113   0.000  0.3051 -0.1763  0.0732
 2347W        W 6411   2.575   3.357   0.561 -0.0641  0.0757 -0.1001
 2348W        W 6412   4.276   7.172   8.848  0.0119  0.0714  0.2211
 2349W        W 6413  10.172   9.626   1.928  0.1078  0.1963 -0.0599
 2350W        W 6414  10.412   3.713   3.595  0.1220 -0.0528 -0.0942
 2351W        W 6415   0.847   9.373   3.127 -0.0706  0.0291  0.2768
 2352W        W 6416   2.060   2.072  10.995 -0.0705 -0.2306 -0.0531
 2353W        W 6417   6.658   3.821   8.363 -0.0647  0.1811 -0.1762
 2354W        W 6418   7.561   7.904   9.560 -0.0040  0.1853 -0.1428
 2355W        W 6419   7.659   0.797   1.891  0.0419  0.2488  0.0746
 2356W        W 6420   6.111   4.371  10.322  0.2282  0.0905 -0.0854
 2357W        W 6421   2.071   9.822   1.111 -0.2589  0.2185 -0.0499
 2358W        W 6422   5.521   9.524   8.337 -0.1063 -0.3057  0.1009
 2359W        W 6423   3.267   7.978   1.827 -0.1405  0.1061 -0.3244
 2360W        W 6424   4.023   6.311   3.444  0.0709  0.1881  0.2722
 2361W        W 6425  10.276   4.360   9.382  0.3250  0.1260 -0.2500
 2362W        W 6426   5.695   4.977   3.342 -0.0124 -0.0894  0.0085
 2363W        W 6427   5.095   6.802  10.855  0.2180  0.1157  0.2355
 2364W        W 6428   6.000   1.264   9.961 -0.0922 -0.1815  0.2762
 2365W        W 6429   9.790   0.172   1.705  0.1318 -0.2401 -0.1807
 2366W        W 6430   4.708   3.813   8.214  0.0131 -0.2467  0.2155
 2367W        W 6431  10.453   9.949   1.629  0.4601 -0.4460  0.3662
 2368W        W 6432   8.550   8.591   0.984 -0.0667  0.2214 -0.2440
 2369W        W 6433   8.045   3.473  10.795 -0.1499  0.2474  0.1214
 2370W        W 6434   2.368   5.023   9.116 -0.1504  0.1686 -0.0210
 2371W        W 6435   9.318  10.633   1.515  0.0150  0.1980  0.3525
 2372W        W 6436   6.029   3.352   1.136  0.1160  0.4910  0.1889
 2373W        W 6437  10.499   5.749   2.927  0.3097  0.3975  0.1267
 2374W        W 6438   5.426   6.879  10.369  0.0452 -0.0411 -0.1475
 2375W        W 6439   5.767   1.816  10.970 -0.0709 -0.2095 -0.0021
 2376W        W 6440   7.295   7.762   3.083  0.3011  0.0135 -0.1065
 2377W        W 6441   0.033  10.089   7.985 -0.3980 -0.0373  0.0000
 2378W        W 6442   0.482   0.038   1.352  0.0071  0.0904  0.1793
 2379W        W 6443   7.901   6.155   1.139  0.1186 -0.1830 -0.1673
 2380W        W 6444   0.779   5.568   3.324  0.1101 -0.1663 -0.0130
 2381W        W 6445   4.356   0.985   0.218  0.0895 -0.0973  0.1584
 2382W        W 6446   0.877   3.179   1.266  0.1168  0.1456  0.2671
 2383W        W 6447   3.588   2.128   0.807 -0.2656  0.1849 -0.1358
 2384W        W 6448   1.860   7.391   9.095  0.0552 -0.0792  0.0065
 2385W        W 6449   8.608  10.607  10.884 -0.0785 -0.0969  0.0867
 2386W        W 6450   0.934   4.450   2.954 -0.0964  0.1952  0.3506
 2387W        W 6451   0.889   4.730   0.028 -0.3905  0.0175 -0.0312
 2388W        W 6452   2.809   8.108  11.538 -0.5333  0.0788  0.0991
 2389W        W 6453   1.365   5.824  11.485  0.0978  0.1557 -0.2218
 2390W        W 6454   3.686   2.558   0.563  0.2670  0.0364  0.1358
 2391W        W 6455   5.412   3.276   9.788  0.0072  0.2324  0.0214
 2392W        W 6456   6.106   2.511   3.975  0.1663 -0.2189  0.1924
 2393W        W 6457   6.068  10.291  10.640 -0.1881 -0.0851  0.2343
 2394W        W 6458   6.089   0.343   8.119 -0.3981 -0.1644  0.0308
 2395W        W 6459  10.629   4.420   1.195  0.3627 -0.1149 -0.1967
 2396W        W 6460   0.262   2.233   8.388 -0.2076 -0.0214 -0.2331
 2397W        W 6461   5.308   3.763   9.871  0.0615 -0.0553 -0.0065
 2398W        W 6462   7.203   1.233   8.047  0.2096  0.0841  0.1208
 2399W        W 6463   6.661   6.407   1.879  0.2576 -0.0879  0.1646
 2400W        W 6464   5.916   5.997   3.112  0.1202 -0.2133 -0.0364
 2401W        W 6465  10.336   6.210   0.194 -0.0668 -0.1919 -0.1338
 2402W        W 6466   4.369   1.683   7.549  0.1022  0.3352 -0.2542
 2403W        W 6467   6.241   7.770   0.441 -0.1760  0.0533 -0.1256
 2404W        W 6468   8.686   5.850   2.495 -0.0979  0.0091 -0.0864
 2405W        W 6469   5.562   9.574  10.238  0.1473  0.0244 -0.0306
 2406W        W 6470   8.393   9.846  11.308  0.0296 -0.1704  0.1291
 2407W        W 6471   5.726   1.886   1.074 -0.1929 -0.1022 -0.2801
 2408W        W 6472   8.382   0.283  10.504 -0.1195  0.4748  0.1563
 2409W        W 6473   5.346   2.908   2.374  0.1227  0.0727  0.2198
 2410W        W 6474   3.644   8.147   1.058  0.0932 -0.0776  0.0272
 2411W        W 6475   3.926   8.051   9.065 -0.0131  0.2935 -0.3178
 2412W        W 6476   9.768  10.385   1.397 -0.1267 -0.1633  0.1015
 2413W        W 6477   4.060   9.909   9.997 -0.1001  0.1088 -0.2043
 2414W        W 6478   5.040   6.703   0.632  0.0573  0.3600  0.0863
 2415W        W 6479  10.167  10.533   3.605 -0.3798  0.0721  0.0568
 2416W        W 6480   5.302   2.291   8.680  0.3286  0.1500  0.2177
 2417W        W 6481  10.615   4.598   4.003 -0.3142  0.0209 -0.1240
 2418W        W 6482   5.570   8.429   9.600 -0.0383 -0.2179  0.2131
 2419W        W 6483   9.078   0.909   8.160 -0.3579 -0.2997  0.0989
 2420W        W 6484   0.300   0.572   3.056 -0.2323  0.0038 -0.0324
 2421W        W 6485   3.593   3.138   8.021  0.5620  0.1474 -0.0099
 2422W        W 6486   6.149   7.983  10.186 -0.7128  0.2709  0.1155
 2423W        W 6487   7.443   9.381  11.103 -0.2301  0.4302 -0.1712
 2424W        W 6488   4.226   5.152  11.001 -0.2500  0.0235 -0.0731
 2425W        W 6489   2.471   5.300  10.151 -0.0275 -0.0355 -0.1979
 2426W        W 6490   5.106   0.930  10.175 -0.3057 -0.0849 -0.2483
 2427W        W 6491   1.630   8.148   8.783  0.0914 -0.0520  0.0425
 2428W        W 6492   7.382  10.170   2.995  0.2317 -0.2265  0.1569
 2429W        W 6493   8.168   1.556   0.884 -0.1441 -0.1648  0.0574
 2430W        W 6494   5.072   0.465  10.314  0.0586 -0.1205 -0.1192
 2431W        W 6495   8.596   3.489  10.967  0.0751  0.1257 -0.2644
 2432W        W 6496   3.352   5.980   0.718 -0.0752 -0.1759 -0.1064
 2433W        W 6497   3.134   3.789   2.475 -0.0661 -0.0472  0.3128
 2434W        W 6498   4.214   0.667   7.479  0.4325 -0.4128  0.0718
 2435W        W 6499   3.835   9.054  10.892  0.1610 -0.1279  0.2812
 2436W        W 6500   3.698   1.628   0.029 -0.0217 -0.4900  0.0923
 2437W        W 6501   2.439   5.543   2.835 -0.1508  0.2689 -0.0152
 2438W        W 6502   6.374   0.222   9.261 -0.1292  0.0234 -0.3651
 2439W        W 6503   9.621   9.098   2.596 -0.0936  0.1413  0.0289
 2440W        W 6504   2.636   6.787   3.637  0.1704 -0.4165  0.1391
 2441W        W 6505   4.727   6.973   8.753 -0.0421  0.0010  0.0410
 2442W        W 6506   4.821   7.925   8.621  0.2415 -0.3591  0.1018
 2443W        W 6507   1.258   6.891   8.655 -0.0312  0.0360  0.3911
 2444W        W 6508   3.309   6.748   2.848 -0.1445  0.0706 -0.1762
 2445W        W 6509   1.265   0.011   1.497  0.2958 -0.0587  0.0920
 2446W        W 6510   2.988   7.713   9.551 -0.5976  0.0957  0.0618
 2447W        W 6511   5.744   9.380   2.092 -0.1175  0.1774  0.0453
 2448W        W 6512   3.101   4.595   3.654 -0.1113  0.0745  0.0608
 2449W        W 6513   6.938   1.969  11.531 -0.1195  0.0585  0.0372
 2450W        W 6514  10.208   7.065   3.050  0.2428 -0.2853 -0.1504
 2451W        W 6515   6.317   9.166   1.566  0.3681 -0.2887 -0.0539
 2452W        W 6516   6.498   1.380   0.504  0.3912  0.1838  0.0562
 2453W        W 6517   6.932   0.112   0.909 -0.4247 -0.1364 -0.1243
 2454W        W 6518   9.383   6.472   1.552 -0.1577 -0.0518 -0.1142
 2455W        W 6519   7.789   7.254   0.205  0.0593  0.1957  0.1210
 2456W        W 6520   5.287   5.470   0.026 -0.0508  0.2536 -0.1477
 2457W        W 6521   4.862   0.762   7.436  0.1135 -0.0538  0.1622
 2458W        W 6522   4.278   9.138   9.693 -0.3780 -0.0371  0.0588
 2459W        W 6523   1.480   7.170   9.994 -0.4529 -0.0005  0.0177
 2460W        W 6524  10.585   5.315   9.738  0.0286 -0.2471 -0.3578
 2461W        W 6525   7.264   1.473  10.113  0.1415 -0.0590 -0.1122
 2462W        W 6526   4.903   3.908   0.355 -0.2113 -0.0839  0.4278
 2463W        W 6527   6.072   7.402  11.007  0.0626 -0.1956 -0.2751
 2464W        W 6528   7.993   5.304   2.230 -0.0640 -0.0381 -0.2939
 2465W        W 6529   2.412   2.085   3.307 -0.4507  0.1498 -0.1954
 2466W        W 6530   0.479   7.964  11.095 -0.0027 -0.0158 -0.1952
 2467W        W 6531   9.153   9.818   0.897 -0.1640 -0.0742 -0.1481
 2468W        W 6532   6.846   9.814  10.176 -0.0291  0.0281 -0.1783
 2469W        W 6533   1.176   1.014   0.739 -0.1953 -0.1724  0.3080
 2470W        W 6534   3.864   4.133   2.235  0.1671 -0.1501 -0.0552
 2471W        W 6535   5.150   7.967   1.359  0.0597 -0.0791 -0.0358
 2472W        W 6536   6.614   8.484   0.084  0.0742  0.0042  0.4066
 2473W        W 6537   8.046   6.117   2.806 -0.2693 -0.0269 -0.2139
 2474W        W 6538  10.082   0.943   3.060 -0.0464  0.0250  0.0445
 2475W        W 6539   0.646   6.657   8.233  0.0147  0.0072 -0.3430
 2476W        W 6540   5.980   5.643   8.222 -0.1262 -0.2149  0.1405
 2477W        W 6541   1.710   2.634  10.545  0.1746 -0.3512  0.2253
 2478W        W 6542   4.480   3.457   2.269 -0.0232  0.0384  0.1685
 2479W        W 6543   4.709   4.982   2.074 -0.0895 -0.1654 -0.0574
 2480W        W 6544   5.047   9.496   1.584  0.1102  0.0709 -0.0741
 2481W        W 6545   8.167   6.498   0.921  0.0994 -0.1482  0.1238
 2482W        W 6546   2.344   9.753   4.088  0.1461  0.0602 -0.0539
 2483W        W 6547   1.651   6.536   8.647 -0.1463  0.1201  0.2354
 2484W        W 6548   3.813   1.401   1.271  0.0388  0.2721 -0.0019
 2485W        W 6549   8.066   2.820   0.307 -0.1983 -0.1410 -0.6038
 2486W        W 6550   1.894  10.378  11.213 -0.0585  0.0993  0.0444
 2487W        W 6551   4.073   4.969   0.798 -0.0876 -0.0588  0.3483
 2488W        W 6552   5.364   4.611   1.075  0.1767 -0.2285  0.3601
 2489W        W 6553   0.273   2.042  10.685 -0.2303  0.0534  0.1465
 2490W        W 6554   6.813  10.545   0.387  0.0587 -0.1519  0.1541
 2491W        W 6555   5.145   8.491   1.274 -0.3163 -0.0813 -0.0056
 2492W        W 6556   5.336   6.930   3.773  0.0885 -0.0738 -0.0607
 2493W        W 6557   3.012   9.552   8.980  0.2309  0.1738  0.2299
 2494W        W 6558   4.836   5.149  10.618 -0.1828 -0.3582 -0.1100
 2495W        W 6559   1.492   6.365  10.365 -0.3137 -0.1662 -0.1683
 2496W        W 6560   5.821   6.835   9.529  0.2565  0.2243 -0.1878
 2497W        W 6561   4.358   3.864   8.528 -0.0036 -0.0062 -0.0104
 2498W        W 6562   0.745   3.557  10.762 -0.1520  0.0669 -0.2665
 2499W        W 6563   1.966   4.475   2.482 -0.2601  0.2127 -0.0156
 2500W        W 6564   0.997   5.458  11.155  0.1357 -0.3397 -0.4373
 2501W        W 6565   6.775   8.549   1.235  0.0059 -0.2842 -0.6111
 2502W        W 6566   2.254   0.070   9.425 -0.1373 -0.2142  0.2107
 2503W        W 6567   5.551   0.402   2.243  0.1473  0.0210 -0.0082
 2504W        W 6568   1.774   3.513   1.644 -0.2937  0.3262  0.0676
 2505W        W 6569   5.072   0.635  11.392 -0.1801 -0.0598 -0.1547
 2506W        W 6570   2.231   2.948   9.810 -0.0622  0.0322 -0.1433
 2507W        W 6571   0.841  10.286   3.772  0.2307 -0.1959 -0.2045
 2508W        W 6572   6.149   7.757   1.565  0.1118  0.2960 -0.0373
 2509W        W 6573   0.897   5.435   8.402 -0.1376 -0.0296  0.4131
 2510W        W 6574   7.066   8.799   0.716 -0.3135 -0.2208 -0.1611
 2511W        W 6575   9.865   1.371   0.886 -0.1770 -0.3298 -0.0487
 2512W        W 6576   5.007   8.280   8.080 -0.3342  0.2367 -0.2454
 2513W        W 6577   2.496   2.635  10.072  0.0703  0.1050 -0.2045
 2514W        W 6578   6.936   8.078   2.821 -0.1090 -0.2367  0.2980
 2515W        W 6579   8.841   4.471  10.375  0.0794 -0.1727 -0.2445
 2516W        W 6580   3.055   2.795   2.579  0.1595  0.2077 -0.2711
 2517W        W 6581   0.683   7.777   1.395  0.3651 -0.1233  0.0933
 2518W        W 6582   8.459   3.273   3.262 -0.2980  0.1982  0.0042
 2519W        W 6583   9.851   3.922   8.844 -0.2217  0.2835 -0.1141
 2520W        W 6584   2.975   2.106   8.573 -0.0986  0.0006  0.0456
 2521W        W 6585   0.153   3.649   8.089 -0.1084  0.0902  0.1899
 2522W        W 6586   4.616   9.315  10.638 -0.0703 -0.4765 -0.0796
 2523W        W 6587  10.082   8.566  10.151 -0.1277  0.0655 -0.0691
 2524W        W 6588   0.153   9.945   0.795  0.1580 -0.3371  0.1081
 2525W        W 6589   6.165   2.890   0.638  0.1097 -0.0948  0.1458
 2526W        W 6590   6.252   4.661   1.425  0.1515 -0.5290  0.1484
 2527W        W 6591   2.485   9.169   1.965 -0.0779  0.1371 -0.0684
 2528W        W 6592   0.713   4.625   1.845  0.1383 -0.1195 -0.0370
 2529W        W 6593   7.369   0.503   2.722 -0.1015  0.0528 -0.1625
 2530W        W 6594   9.756  10.493   0.618  0.0934 -0.0033 -0.0883
 2531W        W 6595   0.903   3.056   3.102 -0.0061  0.2347 -0.2627
 2532W        W 6596   5.972   7.868   2.714 -0.0672 -0.1247 -0.0527
 2533W        W 6597  10.053   5.268   1.088 -0.0994 -0.1965 -0.1448
 2534W        W 6598   1.519   8.820  10.459  0.1023  0.4670  0.1846
 2535W        W 6599   9.573   8.662   1.305  0.3676  0.0380 -0.1262
 2536W        W 6600   6.895   0.190   4.654 -0.2562  0.0914 -0.1157
 2537W        W 6601   0.851  10.603   9.081  0.0090  0.1086  0.0643
 2538W        W 6602   7.863   2.337   0.372  0.1275 -0.1608 -0.1684
 2539W        W 6603   7.340   4.098   7.752  0.2292 -0.4343 -0.2052
 2540W        W 6604   5.888   8.159  11.377  0.1516 -0.3299 -0.0797
 2541W        W 6605   8.059   2.945   9.769 -0.0918  0.2661  0.1367
 2542W        W 6606   0.299   5.809   9.125  0.0367  0.0848  0.1760
 2543W        W 6607   4.103   8.699   1.802  0.0472  0.0242  0.0901
 2544W        W 6608   5.150   9.868   2.902 -0.0213  0.0473  0.1585
 2545W        W 6609   6.416   9.681   1.451 -0.2760 -0.2577 -0.2696
 2546W        W 6610   7.286   8.806   8.945  0.0653  0.3733  0.0714
 2547W        W 6611   5.008   5.519  11.169  0.1782  0.0861  0.5016
 2548W        W 6612   1.426   2.206   8.372  0.1703 -0.1149  0.0321
 2549W        W 6613   8.700   3.118   2.471  0.3959  0.0446 -0.3123
 2550W        W 6614   5.396   8.039   9.044 -0.0499 -0.2012 -0.2702
 2551W        W 6615   9.146   6.049   4.013 -0.2528 -0.1109  0.6260
 2552W        W 6616   2.985   5.507   2.960  0.3284 -0.1551 -0.1841
 2553W        W 6617   3.982   1.298  11.112  0.1549  0.1510  0.2058
 2554W        W 6618   1.930   2.161   0.882 -0.0174 -0.0228 -0.0098
 2555W        W 6619   6.913   6.268   3.509  0.0791 -0.1579 -0.2349
 2556W        W 6620   9.074   3.452   8.301 -0.1868  0.1938  0.0058
 2557W        W 6621   2.967   2.710   2.031 -0.1639 -0.0073 -0.4151
 2558W        W 6622   9.170   7.787   2.830 -0.0073  0.4134 -0.0658
 2559W        W 6623   7.219   2.955   7.442 -0.0366 -0.0208 -0.0127
 2560W        W 6624   2.907   3.180   1.393 -0.0137  0.1179 -0.1666
 2561W        W 6625   9.254   0.823   9.106  0.0100  0.1334  0.2375
 2562W        W 6626   9.017   4.786   9.406 -0.0980  0.0592 -0.0581
 2563W        W 6627   7.517   9.764   3.780 -0.1061 -0.1118 -0.0144
 2564W        W 6628   0.654   9.417   3.600 -0.0405  0.2092 -0.1864
 2565W        W 6629   1.715   8.282   1.570  0.2459 -0.0174 -0.1839
 2566W        W 6630   6.894   8.858   0.249 -0.2618  0.0534  0.3159
 2567W        W 6631   0.837   7.531  11.329  0.0800  0.1601 -0.1973
 2568W        W 6632   9.728   6.867   0.628 -0.0289 -0.0509 -0.2704
 2569W        W 6633   1.805   2.158   0.364 -0.0133  0.0198 -0.0679
 2570W        W 6634   0.158   3.117   9.518 -0.1810 -0.1826 -0.0113
 2571W        W 6635   3.530   3.912   9.830 -0.1984 -0.1868 -0.0555
 2572W        W 6636   4.033   5.297   0.340  0.1970  0.1019  0.0352
 2573W        W 6637   0.680   6.124   8.830  0.2928 -0.2427 -0.3603
 2574W        W 6638   1.493   7.855   0.826 -0.1915  0.1064  0.1121
 2575W        W 6639   0.248   0.348   1.708  0.1587 -0.0497  0.1374
 2576W        W 6640   7.950   2.472   8.948  0.1815 -0.1384 -0.1454
 2577W        W 6641  10.240   8.646   1.963 -0.0608 -0.1653  0.1562
 2578W        W 6642   1.266   9.969   2.144  0.0690 -0.0661 -0.1192
 2579W        W 6643   0.330   3.832   9.314  0.3776  0.5262 -0.2075
 2580W        W 6644   7.063   9.827   3.094 -0.2009  0.3798  0.1092
 2581W        W 6645   8.029   7.932   9.305 -0.1825  0.0615  0.2478
 2582W        W 6646   1.994   0.553   2.886  0.3565  0.2064 -0.1972
 2583W        W 6647   4.185   0.661   9.907 -0.0533 -0.0768  0.0531
 2584W        W 6648   4.157   2.988  11.020 -0.3602 -0.1416  0.2916
 2585W        W 6649   1.519   0.741   0.298  0.4130 -0.0961  0.1833
 2586W        W 6650   4.713   8.565   8.802 -0.1551 -0.0324 -0.1241
 2587W        W 6651   6.831  10.225   9.944 -0.3035  0.3697 -0.1358
 2588W        W 6652   7.327   9.562   1.299 -0.0843 -0.1010  0.1121
 2589W        W 6653   9.470   6.268  11.349  0.0099 -0.3338 -0.1290
 2590W        W 6654   3.889   6.327  11.396 -0.2743  0.0727 -0.0941
 2591W        W 6655   0.882   9.341   7.897 -0.0930 -0.0263  0.0846
 2592W        W 6656   9.902   4.551   3.423 -0.1954 -0.3894  0.1086
 2593W        W 6657   8.368   8.967   0.655  0.0231  0.2455 -0.0062
 2594W        W 6658   3.087   3.307   8.187 -0.0851 -0.1363  0.0661
 2595W        W 6659   0.688   8.930   9.051 -0.0248  0.0969  0.3172
 2596W        W 6660   9.961   1.211   8.440  0.1471  0.0601 -0.0310
 2597W        W 6661   8.273   6.924  11.201 -0.1379 -0.2127 -0.3024
 2598W        W 6662   9.112   5.671   2.502  0.3320 -0.1157  0.3521
 2599W        W 6663   3.026   7.129  11.435 -0.0539  0.2667  0.1784
 2600W        W 6664  10.005   1.547   1.903  0.0356 -0.2110  0.1146
 2601W        W 6665   0.765   0.275  10.379  0.1952  0.1063  0.0874
 2602W        W 6666   5.200  10.597  11.007  0.2002 -0.2313  0.0952
 2603W        W 6667   4.312   0.500  10.412 -0.0081 -0.0978 -0.0737
 2604W        W 6668   2.980   1.742   9.088  0.2669  0.1416  0.1120
 2605W        W 6669   2.539   8.612   8.558  0.0900  0.1427  0.2961
 2606W        W 6670   9.245   7.749   1.028 -0.0190  0.0350  0.1653
 2607W        W 6671   1.202   1.483   1.442 -0.1950 -0.1042 -0.0356
 2608W        W 6672   0.260   7.062   0.275 -0.1614 -0.0233  0.0741
 2609W        W 6673   9.965   8.180   0.882  0.2572 -0.1089  0.2459
 2610W        W 6674   2.681   5.480   8.950 -0.0525 -0.2006  0.3724
 2611W        W 6675   1.948   4.363   8.673 -0.0585  0.0219  0.1069
 2612W        W 6676   2.292   6.485   3.505 -0.1318  0.0642 -0.0822
 2613W        W 6677   4.543   1.267   8.701 -0.3367 -0.1524 -0.2708
 2614W        W 6678  10.208   3.151  11.108 -0.1115 -0.0235 -0.1961
 2615W        W 6679   3.358   1.150   2.602 -0.0134 -0.2039  0.1671
 2616W        W 6680   8.434   6.469  10.504 -0.0121 -0.0254 -0.3046
 2617W        W 6681   3.263   6.995   0.268 -0.1418  0.0537 -0.2732
 2618W        W 6682   5.514   1.098   7.081 -0.1365  0.1438  0.0465
 2619W        W 6683   7.768   0.359   0.542  0.1306  0.0230  0.2041
 2620W        W 6684   4.307   0.299   2.802  0.0799  0.1566  0.1096
 2621W        W 6685   4.733   2.230   8.331 -0.3343 -0.2328 -0.0644
 2622W        W 6686   0.264  10.111  10.269 -0.4021 -0.2163 -0.2440
 2623W        W 6687   7.281   3.997   3.635  0.0340 -0.0614 -0.1102
 2624W        W 6688   7.090   4.406  11.489  0.0385  0.0371 -0.1025
 2625W        W 6689   2.206   4.330   3.347  0.2193  0.0462 -0.1423
 2626W        W 6690   4.134   1.091   8.979 -0.1539  0.0832 -0.0041
 2627W        W 6691   8.330   7.585   1.614  0.1207 -0.0532 -0.0225
 2628W        W 6692   2.344   2.550   9.583 -0.1450  0.1824 -0.0412
 2629W        W 6693   4.927   0.721   9.555 -0.0245  0.4868  0.0230
 2630W        W 6694   4.557   2.926  10.673 -0.0467 -0.2152  0.2931
 2631W        W 6695   2.432   9.116   1.403  0.0093 -0.0191 -0.0426
 2632W        W 6696   2.762   3.414   1.814  0.3361  0.1261  0.1015
 2633W        W 6697   5.393   8.026  10.716  0.0873 -0.0685 -0.0563
 2634W        W 6698   8.735   6.386   3.214 -0.0522  0.0156  0.0707
 2635W        W 6699   9.720   7.254   0.252  0.1083  0.0077  0.1804
 2636W        W 6700   9.145   7.448   1.407  0.0256 -0.1184  0.0050
 2637W        W 6701  10.357   0.846   9.513 -0.1321 -0.1080  0.0756
 2638W        W 6702   7.404   1.665   0.374 -0.1938 -0.0292  0.0695
 2639W        W 6703   2.986   4.348   0.234 -0.2257 -0.1429 -0.3557
 2640W        W 6704   8.935   0.314   9.100  0.1350  0.2850 -0.0075
 2641W        W 6705   3.038   7.874  10.602 -0.0735  0.0017  0.0487
 2642W        W 6706   6.372  10.243   8.055  0.0177 -0.2443 -0.2328
 2643W        W 6707   2.324   8.363   9.960 -0.1818  0.0950 -0.0538
 2644W        W 6708   0.350   6.243   9.372 -0.0237  0.1290  0.0928
 2645W        W 6709   5.207   2.774   9.036 -0.2350  0.0263 -0.2208
 2646W        W 6710   8.874   9.961  11.575  0.0723  0.2192 -0.4278
 2647W        W 6711   0.821   7.024  10.710  0.2626 -0.0016 -0.0575
 2648W        W 6712   4.558   1.911   2.301  0.0877  0.0709 -0.0100
 2649W        W 6713   3.196   9.786   2.260 -0.1044  0.0241 -0.1988
 2650W        W 6714   0.426   9.133   1.481 -0.0025  0.1301  0.0644
 2651W        W 6715   7.613   5.680   1.097 -0.0526 -0.0778  0.1351
 2652W        W 6716   9.184   6.504   0.597 -0.2477 -0.0118  0.1788
 2653W        W 6717   9.479   5.793   3.170 -0.0276 -0.0241 -0.3981
 2654W        W 6718   0.123   2.829   0.158 -0.3340 -0.0797  0.0727
 2655W        W 6719   3.685   5.658   8.799 -0.0409 -0.0083  0.0894
 2656W        W 6720   1.693   0.289   0.635 -0.1025  0.0930  0.0090
 2657W        W 6721   4.546   9.183  10.123 -0.4479 -0.0708 -0.0169
 2658W        W 6722   7.200   3.734   8.577  0.3683  0.2129  0.4087
 2659W        W 6723   4.821   7.150   0.580 -0.2770  0.0915  0.0348
 2660W        W 6724   6.013   3.802   2.817 -0.1872 -0.0055 -0.0219
 2661W        W 6725   3.879   2.689   2.090  0.4575 -0.1393  0.4281
 2662W        W 6726   8.815   2.408   8.846  0.3495 -0.0388 -0.2981
 2663W        W 6727   1.370   6.176   0.831  0.1279 -0.0162 -0.1686
 2664W        W 6728   2.632   8.889  10.758 -0.0962 -0.3543 -0.1530
 2665W        W 6729   7.887   9.913   9.098 -0.4102 -0.3783 -0.0299
 2666W        W 6730   6.959   4.173   1.745 -0.0755  0.3278  0.0842
 2667W        W 6731   7.370   8.215   8.250 -0.1071  0.0696 -0.1074
 2668W        W 6732  10.165   4.442   7.973  0.3219  0.1103  0.0588
 2669W        W 6733   6.605   4.890  11.306  0.0327  0.0921  0.0874
 2670W        W 6734   0.548   5.679   2.538  0.5692  0.0708 -0.1052
 2671W        W 6735   6.376   3.188   7.758 -0.0355  0.4310 -0.0142
 2672W        W 6736   2.535   5.264  11.310 -0.2033 -0.2848  0.0387
 2673W        W 6737   4.853   8.001   9.090 -0.2891  0.0947  0.0440
 2674W        W 6738   3.654   5.244   3.660 -0.2035 -0.2387  0.2626
 2675W        W 6739   2.845   7.240   0.796  0.1833  0.0931 -0.0184
 2676W        W 6740   1.462   3.837   2.106  0.0038 -0.0039 -0.0459
 2677W        W 6741   5.128   6.175   9.243  0.0036  0.4297  0.0815
 2678W        W 6742   2.052   6.449   0.843  0.1723 -0.1831  0.0200
 2679W        W 6743   9.975   2.521   3.472 -0.1363  0.1642 -0.1543
 2680W        W 6744   3.908   1.867   1.034  0.0473 -0.2754 -0.1217
 2681W        W 6745   5.605   4.426   2.230  0.0067 -0.0330 -0.1743
 2682W        W 6746   7.354   2.845   7.883  0.0263  0.0495  0.0356
 2683W        W 6747   1.615   6.205  10.816  0.0183  0.2141  0.0109
 2684W        W 6748   4.372   6.975   1.677 -0.0713  0.0276 -0.1445
 2685W        W 6749   3.973  10.405   1.286 -0.0289 -0.1403  0.1845
 2686W        W 6750   6.074   2.107   3.176 -0.0531  0.4862  0.0866
 2687W        W 6751   3.577   9.058   1.463 -0.0761 -0.5063  0.1558
 2688W        W 6752   4.505   5.321   0.302  0.0684 -0.2652 -0.1854
 2689W        W 6753   7.211   7.286   1.039 -0.0605 -0.2180  0.2871
 2690W        W 6754  10.294   1.265  11.546  0.0419 -0.0807  0.0757
 2691W        W 6755   8.614   8.293   9.489 -0.1291  0.0783 -0.0685
 2692W        W 6756   5.476  10.631   0.814 -0.0054 -0.2968  0.1990
 2693W        W 6757   1.085   5.289   0.577 -0.0054 -0.1233 -0.3005
 2694W        W 6758   3.285   3.998   3.467  0.2002  0.0456  0.1865
 2695W        W 6759   9.846   8.827   2.194 -0.2480  0.0427 -0.0384
 2696W        W 6760   8.582   1.546   9.961 -0.0678  0.0999 -0.0216
 2697W        W 6761   4.350   0.691   3.140  0.2578  0.0590  0.0675
 2698W        W 6762   5.736   1.997   8.844 -0.4500 -0.0443 -0.1419
 2699W        W 6763   3.447   9.566  11.474 -0.0242  0.0823  0.1317
 2700W        W 6764   1.315   0.759   8.673 -0.1688  0.1625 -0.0094
 2701W        W 6765   4.835   6.246  10.706  0.2067  0.0720 -0.3831
 2702W        W 6766  10.367   5.671  10.036  0.1782 -0.0300 -0.2495
 2703W        W 6767   6.757   7.412  10.815  0.2207 -0.0964 -0.0970
 2704W        W 6768   0.739  10.437  10.242  0.1915 -0.1295  0.1603
 2705W        W 6769   6.855   9.018   9.065 -0.1516  0.1936  0.2105
 2706W        W 6770   2.043   0.520   7.973  0.1052  0.0190 -0.2667
 2707W        W 6771   2.363   6.985   9.626 -0.1073 -0.2886 -0.2991
 2708W        W 6772   0.391   1.762   1.738  0.2568  0.2088  0.2373
 2709W        W 6773   0.988   0.828   0.189  0.1296 -0.4385  0.0173
 2710W        W 6774  10.354   3.918  10.045  0.2937  0.0321  0.0347
 2711W        W 6775   6.197   6.711   1.982  0.0334  0.0231 -0.2385
 2712W        W 6776   6.118   3.947   8.571  0.1889 -0.2551  0.0517
 2713W        W 6777  10.610   8.867  11.587 -0.2872 -0.2074 -0.1096
 2714W        W 6778   0.144   5.026  11.070 -0.4092 -0.0571 -0.1952
 2715W        W 6779   3.313  10.265   2.137  0.0783  0.2620  0.1246
 2716W        W 6780   9.590   8.207   8.526  0.0283  0.1564 -0.0883
 2717W        W 6781   7.237   2.489  10.238 -0.0336 -0.3797  0.1584
 2718W        W 6782   9.524   2.865   1.393 -0.0597  0.1504 -0.2509
 2719W        W 6783   4.255   2.007  11.381  0.1871 -0.2127 -0.0710
 2720W        W 6784   0.607   5.106   1.617  0.2306 -0.2803 -0.2710
 2721W        W 6785   3.794   9.702   0.313 -0.3844  0.0175  0.1523
 2722W        W 6786   4.449   8.016   3.425  0.0849 -0.1260 -0.1003
 2723W        W 6787   7.961   8.278   8.187  0.0252  0.3270  0.0130
 2724W        W 6788   8.287   1.108   8.612 -0.0006 -0.1439  0.1089
 2725W        W 6789   2.699   7.659   7.626  0.2338  0.1264 -0.1364
 2726W        W 6790   6.282   0.517   2.763 -0.2671 -0.1471 -0.2644
 2727W        W 6791   9.443   1.815   7.055 -0.0552  0.0604  0.1482
 2728W        W 6792   9.807   4.536   1.878 -0.0333  0.0367 -0.0396
 2729W        W 6793   0.448   1.980   8.751  0.0513 -0.1620 -0.2470
 2730W        W 6794   9.252   6.123  10.852  0.0597  0.0284  0.3888
 2731W        W 6795   8.564  10.100  10.852  0.0054 -0.0574 -0.4951
 2732W        W 6796   1.915   9.830   9.878 -0.2474 -0.0518 -0.2288
 2733W        W 6797   3.537   8.688  10.537 -0.2312 -0.0643 -0.0779
 2734W        W 6798   7.507   0.670  10.659  0.2000  0.1813  0.0228
 2735W        W 6799   3.787   7.575   9.387 -0.1784 -0.0990 -0.1629
 2736W        W 6800   4.174   9.346   8.969  0.0993 -0.1406  0.4108
 2737W        W 6801   3.787   9.314   1.098 -0.1560 -0.2022  0.0152
 2738W        W 6802   0.469   4.570   0.863  0.0760 -0.2840  0.4607
 2739W        W 6803   1.618   7.714   9.444 -0.2742  0.1794  0.0241
 2740W        W 6804   0.993   7.236   0.598 -0.2535  0.0248 -0.3196
 2741W        W 6805   0.943   6.129  11.302  0.0640  0.2858  0.0125
 2742W        W 6806   4.440   6.076   2.117 -0.0782 -0.1814  0.1976
 2743W        W 6807  10.519  10.365  10.681  0.0097 -0.1462 -0.5105
 2744W        W 6808   0.193   6.834  10.511 -0.2666 -0.2353 -0.2944
 2745W        W 6809  10.105   6.530   8.738 -0.1184  0.0991 -0.0391
 2746W        W 6810   3.923  10.134   3.979  0.1519 -0.3390 -0.0418
 2747W        W 6811   9.407   6.948   9.482  0.2375 -0.0931 -0.2456
 2748W        W 6812   9.358   2.169   8.697 -0.0329 -0.1161  0.0504
 2749W        W 6813   3.226   0.783   3.490 -0.2668 -0.0161 -0.0481
 2750W        W 6814   8.987   0.509   2.767 -0.4634  0.2604 -0.2650
 2751W        W 6815   7.046   3.130   1.310 -0.3034 -0.1608  0.3770
 2752W        W 6816   8.020   4.267  11.394  0.3285  0.3928  0.1362
 2753W        W 6817   0.704  10.484   0.436  0.1533  0.0406 -0.0331
 2754W        W 6818   6.287   6.957   9.254 -0.0577  0.3859 -0.0021
 2755W        W 6819   9.327   5.280  10.535  0.0217  0.1274  0.1755
 2756W        W 6820   3.075   2.525   8.722 -0.0602 -0.0697 -0.0276
 2757W        W 6821   0.446   4.868   0.157  0.2089  0.0742  0.2200
 2758W        W 6822   2.286  10.261  11.424 -0.1571 -0.1401  0.0872
 2759W        W 6823   1.346   6.764   0.175 -0.1606 -0.3075 -0.0525
 2760W        W 6824   5.537   7.476   8.297  0.0015  0.1270 -0.0312
 2761W        W 6825  10.200   6.507   2.202 -0.2103  0.4643 -0.1723
 2762W        W 6826   2.519   0.119  11.150 -0.0168  0.1220 -0.1338
 2763W        W 6827   5.545   9.761  11.220  0.3526  0.1064  0.3067
 2764W        W 6828  10.151   1.896   3.899  0.0584 -0.2124  0.0349
 2765W        W 6829   9.410   5.559   9.686 -0.0247 -0.1192  0.0297
 2766W        W 6830  10.368   8.342  11.518  0.2260  0.0605 -0.0993
 2767W        W 6831   2.485   7.723   8.892 -0.1125 -0.0994 -0.0736
 2768W        W 6832   5.829   7.659   0.755  0.1500  0.0772 -0.0621
 2769W        W 6833   5.737   4.923   0.758 -0.3035 -0.0075 -0.1353
 2770W        W 6834   8.421   7.431   9.410  0.2445  0.0724  0.0143
 2771W        W 6835   3.910   2.381   2.946  0.1084  0.0935 -0.2213
 2772W        W 6836   7.699   0.509   1.049  0.1142 -0.2566 -0.2398
 2773W        W 6837   1.065   1.803  10.519  0.0549 -0.0374  0.2286
 2774W        W 6838   5.753   8.161   9.964  0.1430  0.4058  0.0760
 2775W        W 6839   6.756   7.078   8.560 -0.2068 -0.2508  0.1775
 2776W        W 6840   6.162   7.591   9.247 -0.3853  0.0923 -0.4873
 2777W        W 6841   4.335   6.928  11.289  0.3078  0.2463 -0.4275
 2778W        W 6842   2.714   2.355   1.182 -0.4752 -0.1325 -0.1684
 2779W        W 6843   8.247   0.539   1.955  0.0226 -0.1007  0.4834
 2780W        W 6844   7.020   0.777   9.191  0.0691  0.1060  0.0392
 2781W        W 6845   8.883   1.443   8.376 -0.1022 -0.1044  0.1757
 2782W        W 6846   3.198   7.652   3.406  0.2626 -0.0579  0.0753
 2783W        W 6847   1.214   7.015   2.946 -0.0195 -0.1081  0.0122
 2784W        W 6848   4.152   9.597  10.945 -0.3131  0.0368  0.0467
 2785W        W 6849   9.727   9.793   8.539  0.0885 -0.1230  0.1572
 2786W        W 6850   9.431   8.664   0.780 -0.3411 -0.1335  0.1690
 2787W        W 6851   9.282   3.359   3.657 -0.1241  0.2234  0.0952
 2788W        W 6852   1.203  10.318  10.304  0.0868  0.2529  0.1650
 2789W        W 6853   0.704   9.582   0.668  0.2396 -0.1000 -0.0016
 2790W        W 6854   2.002   3.821   8.529 -0.0946  0.2221 -0.2126
 2791W        W 6855   9.808   9.863  11.161  0.2287 -0.2536  0.3648
 2792W        W 6856   4.271   5.772   2.469 -0.1772  0.3623 -0.1457
 2793W        W 6857   4.144   0.081   0.432 -0.0708  0.1649 -0.1325
 2794W        W 6858   2.051   8.895   9.069  0.3547  0.1902  0.4361
 2795W        W 6859   5.021   0.608   2.019  0.0689  0.3221 -0.0846
 2796W        W 6860   4.290   8.171   9.898  0.0332  0.4172 -0.3836
 2797W        W 6861   9.684   4.442  10.714 -0.0753 -0.0831  0.2977
 2798W        W 6862   3.522   9.150   3.322 -0.0854  0.2441 -0.1520
 2799W        W 6863   3.949   1.124   1.711  0.3315 -0.2339  0.1704
 2800W        W 6864   4.875   3.299   2.536 -0.3125 -0.2430 -0.0300
 2801W        W 6865   7.039   9.923   1.454 -0.3691 -0.2353  0.1701
 2802W        W 6866   3.907   7.329  10.327  0.0284 -0.0751  0.0041
 2803W        W 6867   0.257   1.371   0.073  0.3352  0.0236  0.3326
 2804W        W 6868   2.318   4.100   2.728 -0.2607 -0.2443  0.2487
 2805W        W 6869   7.855  10.603   1.909 -0.3298 -0.3418 -0.1124
 2806W        W 6870   4.133   6.815   3.290 -0.5524  0.1116  0.0693
 2807W        W 6871   6.379   8.888   9.068  0.1050  0.0990 -0.2139
 2808W        W 6872   1.023   9.142   8.492  0.0837  0.0583  0.2611
 2809W        W 6873   5.443   3.436  10.828  0.0006  0.0085 -0.0452
 2810W        W 6874   6.698  10.506  11.423  0.0840  0.3752  0.0784
 2811W        W 6875   3.466   0.481   9.224  0.2941 -0.0479 -0.0924
 2812W        W 6876   8.481   0.288   0.641 -0.0943  0.0605  0.1793
 2813W        W 6877   7.063   3.501  10.682  0.2382 -0.1820  0.1473
 2814W        W 6878   7.562   0.364  10.192 -0.0343 -0.3189 -0.1680
 2815W        W 6879   1.576   1.278  11.349 -0.0200  0.0404 -0.2924
 2816W        W 6880   4.966   9.808   9.042 -0.1789  0.0552  0.0354
 2817W        W 6881   9.685   7.274   1.855  0.2149 -0.0613 -0.2122
 2818W        W 6882   0.945   8.178   9.335  0.2061  0.2445  0.0439
 2819W        W 6883   8.711   4.684   9.831 -0.2993  0.1003 -0.0286
 2820W        W 6884   3.667   1.582   1.871  0.0073  0.2699 -0.1182
 2821W        W 6885   6.345   7.824   2.327 -0.0854 -0.2651  0.2965
 2822W        W 6886   0.616   6.732   3.402  0.3592  0.0258  0.0708
 2823W        W 6887   3.618   7.914   0.428  0.0221  0.0400 -0.2499
 2824W        W 6888   9.803   6.822  11.323 -0.0608  0.0555  0.0556
 2825W        W 6889   8.408   4.323  10.632 -0.0285 -0.3830  0.3399
 2826W        W 6890   2.145   8.233   8.760  0.2259 -0.0549 -0.1053
 2827W        W 6891   2.490   7.687   3.661  0.1375 -0.0869  0.0069
 2828W        W 6892   4.637   9.121   1.426 -0.0984 -0.0957 -0.1133
 2829W        W 6893   3.155  10.135   9.196  0.1626  0.0922  0.0544
 2830W        W 6894   9.472  10.350   9.929  0.0004  0.0585  0.0967
 2831W        W 6895   3.881   4.414   3.059  0.1616  0.3040  0.1793
 2832W        W 6896   1.750  10.414   7.123  0.1700  0.3827  0.0196
 2833W        W 6897   7.236   6.197  10.069 -0.0699  0.0153 -0.2549
 2834W        W 6898   0.986   1.443   2.512  0.0260  0.2767 -0.0154
 2835W        W 6899   1.294   2.672  10.864 -0.0722 -0.0696  0.0040
 2836W        W 6900   4.886   6.021   1.321 -0.0729 -0.1499  0.0495
 2837W        W 6901   8.380   3.613   0.920 -0.1269 -0.2581 -0.1040
 2838W        W 6902   6.960   5.231  11.349  0.1559 -0.0267 -0.1587
 2839W        W 6903   1.428   3.317   8.776 -0.2847  0.2160 -0.2797
 2840W        W 6904   3.042   1.317  10.953  0.1844 -0.1075  0.0608
 2841W        W 6905   1.953   2.038   2.541  0.2072 -0.1645  0.2591
 2842W        W 6906   7.627   3.021   1.691  0.2827  0.2254  0.0643
 2843W        W 6907   3.981   6.862   2.024  0.0409 -0.1356 -0.1315
 2844W        W 6908   2.618   3.068   8.369  0.1280  0.1337  0.0524
 2845W        W 6909   1.205   4.756   3.842 -0.0318 -0.2750  0.0914
 2846W        W 6910   5.110   7.692  10.942  0.5602 -0.4144  0.0222
 2847W        W 6911   6.583   1.935   0.743  0.3429 -0.0277  0.3676
 2848W        W 6912   0.212   8.051   8.477  0.1289 -0.0375  0.3923
 2849W        W 6913   8.828   9.914   9.460  0.0533  0.0409  0.2272
 2850W        W 6914   9.251   6.813   8.114 -0.0619  0.1289 -0.1736
 2851W        W 6915   7.089   8.769   2.667  0.1831  0.1809 -0.0417
 2852W        W 6916   4.333   1.959   0.354  0.0134 -0.1096 -0.0064
 2853W        W 6917  10.546   2.463   0.409 -0.1170 -0.3332 -0.0836
 2854W        W 6918   9.353   2.815   3.370  0.2412  0.0619 -0.2065
 2855W        W 6919   8.606   3.875   9.236  0.3550 -0.0131 -0.2835
 2856W        W 6920   0.134   4.103  11.290  0.1507 -0.3158 -0.0981
 2857W        W 6921   8.270   5.436   3.243  0.3206  0.1046 -0.3542
 2858W        W 6922   1.710   9.588   9.401 -0.2209 -0.1744  0.0341
 2859W        W 6923   4.233   3.948   0.093  0.2213  0.0864  0.1838
 2860W        W 6924   3.215   2.509   3.548  0.0333 -0.1451 -0.0810
 2861W        W 6925   6.591  10.521   4.076  0.2475 -0.2491 -0.0277
 2862W        W 6926   6.997   4.672   9.649  0.2197 -0.3593  0.0052
 2863W        W 6927  10.617   0.805   9.080 -0.0368  0.0363 -0.5330
 2864W        W 6928   9.673  10.378   0.097 -0.1314 -0.0252 -0.1770
 2865W        W 6929   8.033   9.470   1.998 -0.0442 -0.0754 -0.2343
 2866W        W 6930   7.633   0.573   3.194  0.2172  0.0972  0.0084
 2867W        W 6931   2.473   8.454   1.932 -0.2923 -0.0692 -0.0512
 2868W        W 6932   5.733   8.565   1.101  0.2280  0.2594 -0.1975
 2869W        W 6933   3.571   8.780   0.221  0.1869 -0.0813 -0.2621
 2870W        W 6934   3.831   8.479   2.494 -0.2044 -0.1230  0.2515
 2871W        W 6935   1.391   3.964   0.133  0.0742  0.1522 -0.0735
 2872W        W 6936  10.548   8.729   8.571  0.0562  0.0805  0.0789
 2873W        W 6937   8.150   3.302  10.346  0.0192  0.1718 -0.0875
 2874W        W 6938   1.251   4.715   1.347  0.1657  0.3126 -0.0753
 2875W        W 6939   2.068   1.329   8.896 -0.4906 -0.0098  0.2243
 2876W        W 6940  10.047   7.833   3.478 -0.1078 -0.1012  0.1879
 2877W        W 6941   4.811   5.785   8.981  0.1097  0.2943  0.1023
 2878W        W 6942   1.253   0.329   0.087 -0.0401  0.2642 -0.1820
 2879W        W 6943   4.877   2.605   1.109  0.0275  0.0626 -0.1594
 2880W        W 6944   5.170   1.138   7.837  0.3520  0.1692  0.3628
 2881W        W 6945   7.704   9.808   8.454  0.3698  0.1062  0.0187
 2882W        W 6946   8.744   9.413   0.831  0.0302 -0.1806  0.1794
 2883W        W 6947   8.430   6.190   1.222  0.0452 -0.0921 -0.0764
 2884W        W 6948   8.014   7.698   9.797 -0.1966 -0.2358  0.3494
 2885W        W 6949   1.354   8.484   2.934  0.4470  0.3863 -0.1743
 2886W        W 6950   9.837   5.179   8.586 -0.0969 -0.0327 -0.0306
 2887W        W 6951   4.182   4.267   2.617 -0.0219 -0.2090 -0.0821
 2888W        W 6952   9.746  10.499   9.522  0.2529 -0.1322  0.0364
 2889W        W 6953   7.680   3.108   0.435  0.3334 -0.2290  0.2823
 2890W        W 6954   2.707   4.316   1.459 -0.0636  0.2680 -0.2286
 2891W        W 6955   7.772   4.125   0.533  0.2839  0.1069  0.3442
 2892W        W 6956   2.428   3.495   3.556 -0.0582 -0.1650 -0.0963
 2893W        W 6957   0.645   8.070   3.364 -0.3409  0.1126 -0.3641
 2894W        W 6958   0.586   4.787   9.660  0.0224 -0.1733  0.0460
 2895W        W 6959   7.275   6.379   2.622  0.3197 -0.1102  0.0406
 2896W        W 6960   5.954   2.482   0.952  0.0870 -0.6019 -0.1192
 2897W        W 6961   1.127   8.937  10.893  0.3291 -0.0382 -0.1495
 2898W        W 6962   0.687   8.704  11.532 -0.1352  0.0109 -0.3151
 2899W        W 6963   0.253   5.755   9.596  0.0779  0.2124 -0.4365
 2900W        W 6964   1.607   1.802   2.262 -0.0470  0.0823 -0.1380
 2901W        W 6965   9.677   3.601   9.395  0.0503  0.2238 -0.0230
 2902W        W 6966   3.215   7.310   9.784 -0.0222 -0.3558 -0.0060
 2903W        W 6967   1.421   1.082   7.998  0.1275  0.3676  0.1686
 2904W        W 6968   4.670   9.875   8.299  0.3165 -0.2581  0.2002
 2905W        W 6969   6.868   6.506   2.300 -0.1087  0.1851  0.0943
 2906W        W 6970  10.012   0.353   0.716  0.0640 -0.1858  0.0325
 2907W        W 6971   0.022  10.406   2.954  0.2518  0.0674  0.0018
 2908W        W 6972   1.394   8.426   3.541 -0.3076 -0.0870 -0.0996
 2909W        W 6973   9.195   7.322   0.830 -0.1214  0.3198 -0.2214
 2910W        W 6974   5.879   1.506   9.068  0.1766 -0.1764 -0.0383
 2911W        W 6975   1.822   0.205   9.311 -0.1221  0.1677  0.4222
 2912W        W 6976  10.215   0.240  10.716 -0.1464 -0.3568  0.0780
 2913W        W 6977   5.015   5.210   0.427  0.1192  0.1087  0.1120
 2914W        W 6978   2.192   3.607   0.800 -0.1706  0.1236 -0.2582
 2915W        W 6979  10.434   1.231   1.679  0.1875 -0.1124 -0.1040
 2916W        W 6980   8.346   5.107   9.036  0.1122 -0.0056  0.1772
 2917W        W 6981   4.827   4.506   1.221  0.1890  0.2854 -0.1425
 2918W        W 6982   3.665   9.902   2.612  0.1098 -0.1701 -0.1602
 2919W        W 6983   3.798   9.142   1.920 -0.0189  0.1956  0.0512
 2920W        W 6984   1.931   1.657   0.942 -0.2286 -0.0892  0.0138
 2921W        W 6985   5.357   3.246   9.259 -0.1973  0.2249  0.0119
 2922W        W 6986   5.845   0.773   8.347  0.2962  0.3222  0.0732
 2923W        W 6987   0.265   3.486   2.969  0.4964  0.1727  0.0891
 2924W        W 6988   6.505   5.368  11.371 -0.4938 -0.0815 -0.2534
 2925W        W 6989   9.476   7.197  11.026 -0.0196  0.0682 -0.1339
 2926W        W 6990   1.565   1.815  11.297 -0.1566  0.2821 -0.2304
 2927W        W 6991   0.536   1.399   9.558  0.1347 -0.2097  0.0850
 2928W        W 6992  10.279   5.126  10.671  0.1103 -0.0934 -0.2862
 2929W        W 6993   1.729   8.903   0.328 -0.0381  0.0332 -0.3745
 2930W        W 6994   4.480   8.697   7.746  0.3025  0.1883  0.2230
 2931W        W 6995   2.650   5.765   1.760  0.3461  0.0939  0.5458
 2932W        W 6996   7.209   6.152   9.564  0.1268  0.4274 -0.1174
 2933W        W 6997   9.780   0.179   9.133 -0.1855 -0.3005  0.1701
 2934W        W 6998   5.820   6.726   8.750  0.1244  0.0602  0.1431
 2935W        W 6999   9.383   3.652  10.179  0.0626 -0.0595 -0.0504
 2936W        W 7000   6.219   1.650   0.967 -0.1627 -0.2894  0.0059
 2937W        W 7001   3.536   6.910   9.547 -0.0333 -0.2814  0.0562
 2938W        W 7002   6.901   8.715  10.335  0.1344  0.1757 -0.0036
 2939W        W 7003   1.193   1.551  11.043  0.3345  0.2379  0.0140
 2940W        W 7004   6.017   3.388   0.607 -0.2577 -0.1503  0.3122
 2941W        W 7005   7.539  10.264  11.259  0.2427  0.0912 -0.1862
 2942W        W 7006   6.224   8.912   9.599 -0.0627  0.0680 -0.0146
 2943W        W 7007   1.881   7.904  11.400 -0.0405 -0.0290  0.0791
 2944W        W 7008   9.285   6.989   1.488 -0.1017 -0.0615  0.0940
 2945W        W 7009   6.186   3.788   1.942  0.0422  0.0783 -0.3472
 2946W        W 7010   1.445   3.199  10.533  0.3492 -0.0530 -0.1061
 2947W        W 7011   6.314   9.154   3.436  0.0881  0.1907 -0.1223
 2948W        W 7012   3.495   6.275   1.111 -0.2651  0.2836  0.1864
 2949W        W 7013   0.061   7.155   4.374 -0.0542  0.0569 -0.2469
 2950W        W 7014   1.013   0.146   3.545 -0.0789 -0.1345 -0.1699
 2951W        W 7015   3.267   3.484   8.678  0.0248 -0.2927  0.0880
 2952W        W 7016   5.053   3.759   2.430  0.0153  0.0729  0.2058
 2953W        W 7017   3.143   4.162   9.006  0.1422  0.0330  0.1406
 2954W        W 7018   4.063   6.122   2.752 -0.2814  0.0843 -0.0275
 2955W        W 7019   9.949   0.582  10.313  0.0199  0.1058  0.0806
 2956W        W 7020   3.374   5.883   2.356  0.1985  0.0815 -0.1177
 2957W        W 7021  10.467   3.855   0.407  0.0091 -0.0608  0.2535
 2958W        W 7022   1.638   2.822  11.312  0.0295  0.1125 -0.1144
 2959W        W 7023   4.106   4.707   8.660 -0.3405 -0.0009  0.0813
 2960W        W 7024   0.934   0.666   2.017 -0.1305 -0.2489 -0.1472
 2961W        W 7025   6.623   4.203  10.932  0.3213 -0.1399  0.0672
 2962W        W 7026   9.509   4.077   0.466 -0.1703 -0.1333  0.2692
 2963W        W 7027   4.569   7.414   2.191 -0.0845 -0.2605 -0.0048
 2964W        W 7028   0.877   8.223   1.814 -0.2190 -0.1994  0.0323
 2965W        W 7029   0.205   8.634   1.285 -0.1126  0.1385  0.0073
 2966W        W 7030   4.378   3.711   9.131 -0.1005  0.1967 -0.1884
 2967W        W 7031   2.917   5.556   9.456  0.1870 -0.2298  0.0464
 2968W        W 7032   4.101   0.533   6.954 -0.1375 -0.3923  0.1332
 2969W        W 7033   4.253   5.591  10.612 -0.3086 -0.0317 -0.3774
 2970W        W 7034   0.040   5.690   2.002 -0.1316  0.1823  0.0869
 2971W        W 7035   4.284   1.568   3.147  0.2166 -0.0798 -0.1097
 2972W        W 7036   1.334   9.552   7.872 -0.2923 -0.2262 -0.1998
 2973W        W 7037   7.599   7.121   0.661 -0.3011 -0.1471  0.2048
 2974W        W 7038   9.406   1.446   1.938  0.0227 -0.0338 -0.0400
 2975W        W 7039   0.763   9.123   1.839  0.0512 -0.1331  0.2843
 2976W        W 7040   7.360   8.302   1.948 -0.0819  0.2978  0.0271
 2977W        W 7041   5.769   0.564   0.881  0.0632 -0.1947 -0.4086
 2978W        W 7042   4.025   8.810   3.470  0.0600 -0.2282 -0.0649
 2979W        W 7043   1.228  10.094   1.469  0.3231  0.0756  0.0420
 2980W        W 7044   1.228   2.826   1.521  0.1314  0.1868 -0.1266
 2981W        W 7045   3.611   9.821   9.271 -0.1270  0.4010 -0.1261
 2982W        W 7046   9.380   9.838   2.358  0.0229  0.1337  0.0613
 2983W        W 7047   4.577   1.226   6.790 -0.1086  0.0775 -0.0974
 2984W        W 7048   3.217   5.198   0.607 -0.0783  0.2754 -0.1851
 2985W        W 7049   3.717   6.875  10.510 -0.1953  0.1034 -0.2711
 2986W        W 7050   5.059   2.720   1.923  0.0936  0.2494 -0.0274
 2987W        W 7051   4.092   7.582   0.426 -0.0820 -0.1538 -0.0053
 2988W        W 7052   3.823   7.774   0.004 -0.3496 -0.3456 -0.0214
 2989W        W 7053   0.962   7.747  10.186  0.1013 -0.2811  0.2184
 2990W        W 7054   0.136   1.839   2.532 -0.1058  0.1859 -0.0602
 2991W        W 7055   2.726   4.722  11.334  0.1305 -0.2835  0.0697
 2992W        W 7056   5.781   3.886   3.850 -0.1173 -0.2471 -0.0268
 2993W        W 7057   4.040   6.662   1.512 -0.0780  0.0234 -0.2089
 2994W        W 7058   1.311   0.050   2.405 -0.2715 -0.2492 -0.1941
 2995W        W 7059   5.866   1.026   2.268 -0.1512 -0.3157 -0.1938
 2996W        W 7060   7.149   6.683  11.199 -0.2641 -0.1158 -0.2157
 2997W        W 7061   7.603   4.015   8.616  0.0842  0.3931 -0.3189
 2998W        W 7062  10.407   2.750   8.102 -0.2228  0.0323 -0.1579
 2999W        W 7063   0.545   9.890   9.681 -0.0384 -0.2744  0.2210
 3000W        W 7064   9.176   7.842   8.491  0.0090 -0.2915  0.2581
 3001W        W 7065   6.339   6.552   1.193  0.3373  0.3152  0.0772
 3002W        W 7066   7.105   2.807   8.650  0.0483 -0.0921  0.1092
 3003W        W 7067   3.093   5.374   1.546 -0.4003 -0.0718  0.0820
 3004W        W 7068   9.761   6.801   2.220 -0.0952  0.2061 -0.0790
 3005W        W 7069   4.859   6.675   9.105  0.0842 -0.1473 -0.0646
 3006W        W 7070   9.059   3.267   2.151 -0.0779 -0.1951  0.0250
 3007W        W 7071   9.296   6.634  10.395  0.2213 -0.0972  0.0519
 3008W        W 7072   5.649   9.273  11.441  0.1015 -0.0459  0.1155
 3009W        W 7073   8.396   9.669   9.999 -0.0538 -0.0485 -0.0473
 3010W        W 7074   5.162   5.733   2.081  0.0635  0.3138 -0.3042
 3011W        W 7075  10.515   9.027   7.799  0.0988  0.2305  0.2870
 3012W        W 7076   9.849   2.740   2.567  0.0270 -0.0160  0.3488
 3013W        W 7077   5.796   6.208   8.129 -0.0752  0.4873 -0.0917
 3014W        W 7078   0.851   3.311   2.265  0.0270 -0.0545 -0.0140
 3015W        W 7079   4.717   0.553   2.776  0.1825 -0.1151 -0.2939
 3016W        W 7080   2.743   0.038   3.436  0.1294  0.0790  0.1388
 3017W        W 7081   0.831   5.027   2.979  0.0312  0.0588 -0.3085
 3018W        W 7082   0.434   6.827  11.058 -0.0743 -0.1888 -0.1857
 3019W        W 7083  10.276   2.883   0.453  0.3105  0.0189  0.3317
 3020W        W 7084   1.855   7.004   9.454 -0.4672  0.1942 -0.2747
 3021W        W 7085   6.914   8.649  11.314  0.1066 -0.1303 -0.1454
 3022W        W 7086   7.795   8.875   9.741 -0.0452 -0.1299  0.2615
 3023W        W 7087   9.038  10.175   8.288 -0.2985 -0.1040  0.0528
 3024W        W 7088   4.411   9.340   8.201 -0.0304  0.3238  0.1855
 3025W        W 7089  10.339   1.279   9.853 -0.1636  0.0109 -0.2678
 3026W        W 7090   3.554   4.233   8.832 -0.1458  0.0603  0.4056
 3027W        W 7091   7.858   6.239  10.078  0.1061  0.0939 -0.1415
 3028W        W 7092   7.972  10.112  10.971  0.1206 -0.0015  0.0720
 3029W        W 7093   6.082  10.090   1.674  0.3762  0.0834  0.1882
 3030W        W 7094   6.028   5.660  11.396  0.1220 -0.0309 -0.0582
 3031W        W 7095   9.475   5.088   2.783 -0.1100  0.0126  0.0651
 3032W        W 7096   6.007   6.698   0.264 -0.1272  0.1869 -0.1691
 3033W        W 7097   1.101   1.900   2.327 -0.0729  0.0600  0.0038
 3034W        W 7098   9.405   4.546  11.325 -0.1649 -0.0063  0.0122
 3035W        W 7099   3.458   8.307   8.214 -0.2645 -0.2507 -0.2474
 3036W        W 7100   5.066  10.198   9.425 -0.0224 -0.4572  0.0706
 3037W        W 7101   3.579   7.733   8.820 -0.1151  0.1551 -0.1755
 3038W        W 7102   3.227   0.461   1.985 -0.0198  0.1455  0.0728
 3039W        W 7103   9.111   3.447  11.303  0.0559 -0.0985  0.0001
 3040W        W 7104   8.747   0.745   3.179 -0.1919 -0.1969  0.0812
 3041W        W 7105   0.737   8.907   8.097  0.2541 -0.1168  0.1947
 3042W        W 7106   1.059   1.729   0.528 -0.1181  0.1771  0.2563
 3043W        W 7107   5.324   0.809   7.442 -0.2923  0.0758  0.0115
 3044W        W 7108   8.672   7.858  11.402  0.0289  0.2460 -0.0275
 3045W        W 7109  10.122   3.016  10.229  0.0935  0.2930  0.1397
 3046W        W 7110   3.882   1.873   8.837  0.0099 -0.0281 -0.2477
 3047W        W 7111   0.388   4.262   7.974 -0.2664 -0.3443 -0.1537
 3048W        W 7112   2.525   0.296   9.969  0.4082 -0.0680 -0.1352
 3049W        W 7113   0.690  10.227   9.380 -0.1604  0.0991 -0.0885
 3050W        W 7114   6.085   5.143   1.106  0.2008 -0.1342 -0.2540
 3051W        W 7115   9.039   4.947  11.294 -0.0238 -0.1789  0.0621
 3052W        W 7116   9.193   8.152   3.717  0.2337 -0.5206  0.1817
 3053W        W 7117   9.770   4.017   3.801 -0.1817  0.0305 -0.0279
 3054W        W 7118   0.008   3.333  10.155 -0.0696 -0.0015 -0.1016
 3055W        W 7119   0.055   7.299   3.286 -0.2976 -0.2289  0.3791
 3056W        W 7120   7.289   5.962   3.619 -0.1900 -0.2250  0.3072
 3057W        W 7121   4.790   1.840   1.632 -0.1037 -0.1089 -0.0070
 3058W        W 7122   7.741   8.963  11.290  0.1063 -0.0410 -0.1125
 3059W        W 7123   3.935   8.503   3.010  0.1112  0.0251  0.1277
 3060W        W 7124   9.618   1.232   3.134 -0.0789  0.0571 -0.0609
 3061W        W 7125   5.613   7.118   9.960  0.0330 -0.1652 -0.0148
 3062W        W 7126   3.989   8.887  11.359 -0.0804  0.0950  0.1780
 3063W        W 7127   8.474   4.870  11.266  0.0840 -0.3161 -0.3644
 3064W        W 7128   4.818   1.332  10.353 -0.3072  0.3431  0.3114
 3065W        W 7129   5.472   8.352   0.042  0.1935 -0.0385 -0.3940
 3066W        W 7130   5.405   2.363   1.062 -0.0351  0.4866 -0.2352
 3067W        W 7131   7.369   8.396   4.262  0.2919  0.1344  0.1569
 3068W        W 7132   1.604   8.857   1.666  0.2645  0.2264 -0.2646
 3069W        W 7133   6.620   7.454   0.462 -0.0236  0.0552 -0.2019
 3070W        W 7134   4.106   6.881   7.888  0.1182  0.1831  0.2131
 3071W        W 7135   8.756   8.405   2.815  0.1654  0.0196 -0.0622
 3072W        W 7136   4.574   0.237   9.757  0.1348 -0.3074  0.3044
 3073W        W 7137   3.020   8.663   8.680 -0.2982 -0.0624  0.2255
 3074W        W 7138   3.561  10.482   9.978  0.1523 -0.1724  0.0181
 3075W        W 7139   0.277   5.312   0.730 -0.2005  0.1865  0.0289
 3076W        W 7140   7.883   2.678   8.088  0.0891 -0.0865 -0.2379
 3077W        W 7141   5.576   6.141  10.048 -0.1036  0.1968 -0.3834
 3078W        W 7142   7.594   0.680  11.217 -0.0256  0.1929 -0.1747
 3079W        W 7143   8.001   6.943   2.717  0.1275 -0.0503 -0.4262
 3080W        W 7144   6.854  10.238   2.754 -0.3264  0.2600  0.1247
 3081W        W 7145   0.278   0.011  10.321 -0.1617  0.2322 -0.0699
 3082W        W 7146   1.996   8.709  10.707 -0.0593 -0.0341  0.3093
 3083W        W 7147   0.782   1.382   0.175 -0.0928  0.0136 -0.1252
 3084W        W 7148   3.820   0.217   8.096  0.1545 -0.0231  0.1506
 3085W        W 7149   6.071   6.972   3.089  0.0380 -0.0488 -0.0042
 3086W        W 7150   5.728   2.259  11.279 -0.0499 -0.1613 -0.0509
 3087W        W 7151   6.877  10.024   8.942 -0.0345 -0.2005 -0.3550
 3088W        W 7152   9.809   3.141   1.775  0.0479  0.1325  0.1981
 3089W        W 7153   0.855   4.332   3.440  0.0768 -0.1405 -0.0484
 3090W        W 7154   8.473   0.353   3.011 -0.0114 -0.2452 -0.3545
 3091W        W 7155   0.184   0.571  10.308 -0.1758 -0.1422  0.0145
 3092W        W 7156  10.158   8.260   3.232 -0.1601 -0.0406 -0.3495
 3093W        W 7157  10.316   9.797  11.437  0.2211 -0.1749  0.1005
 3094W        W 7158   6.033  10.440  10.182  0.0077 -0.0501  0.0769
 3095W        W 7159   1.649   1.729  10.821  0.0821  0.2462  0.2601
 3096W        W 7160   7.083   9.393  10.077 -0.1033  0.0692 -0.0756
 3097W        W 7161   5.438   9.832   1.656 -0.3075 -0.3816 -0.0734
 3098W        W 7162  10.299   4.064   8.961 -0.0092 -0.0109 -0.4209
 3099W        W 7163   6.688   7.508   2.606  0.0321  0.2310  0.3964
 3100W        W 7164   5.687   1.329   1.858  0.3486  0.1844 -0.1197
 3101W        W 7165   0.364  10.552   0.897  0.2804  0.1798  0.1292
 3102W        W 7166  10.171   7.333   9.189  0.1747 -0.0092 -0.1335
 3103W        W 7167   1.355   4.069   0.651  0.1414  0.4993  0.1743
 3104W        W 7168   6.383   5.414   1.391  0.1271  0.0404  0.1727
 3105W        W 7169   6.671   2.879   1.984  0.0722  0.1491 -0.1652
 3106W        W 7170  10.318   2.298   8.330 -0.0501 -0.2991  0.2687
 3107W        W 7171   2.582   5.839   9.768 -0.0989  0.0466 -0.0339
 3108W        W 7172   9.167   4.297   7.253  0.0307  0.4846 -0.2372
 3109W        W 7173   8.815   4.179   2.225 -0.1538 -0.0448 -0.0168
 3110W        W 7174  10.190   7.653   0.570 -0.2487  0.0957  0.5427
 3111W        W 7175   8.433   2.663   3.384  0.2144 -0.1036 -0.1356
 3112W        W 7176   4.048   0.744  10.804 -0.0666 -0.0913 -0.0555
 3113W        W 7177   7.498   5.526   9.010  0.1576 -0.0009 -0.1295
 3114W        W 7178   4.888   2.381  10.999 -0.0256 -0.0060  0.0605
 3115W        W 7179   2.174   7.754  10.996 -0.0973 -0.1128 -0.3763
 3116W        W 7180   7.339   7.529   2.517 -0.0280  0.0838  0.1539
 3117W        W 7181   1.095   7.854  10.806 -0.1542  0.1789 -0.0396
 3118W        W 7182   8.769   0.006  10.408 -0.1713  0.3763  0.2301
 3119W        W 7183   5.251   1.947  10.723  0.1132 -0.1997 -0.2861
 3120W        W 7184   9.745   4.646   2.519  0.1221 -0.2164  0.3806
 3121W        W 7185   5.204   8.896  10.603  0.2472 -0.0710 -0.4460
 3122W        W 7186   5.612   9.851   0.741  0.1661  0.1001 -0.2209
 3123W        W 7187   5.602  10.529   2.167 -0.1330 -0.2049  0.1707
 3124W        W 7188   5.240   8.581   2.527 -0.1570 -0.2136  0.3480
 3125W        W 7189   3.421   0.793   0.597 -0.1941  0.2504  0.0727
 3126W        W 7190   8.011   7.095   3.234  0.1297  0.2056 -0.3520
 3127W        W 7191   6.844   6.052   2.503 -0.2240 -0.0850  0.1764
 3128W        W 7192  10.355   3.667   0.861  0.0443  0.2182  0.0500
 3129W        W 7193   9.741   0.672   3.391 -0.3462  0.0988  0.0003
 3130W        W 7194   7.732  10.077   1.061  0.0268 -0.0226  0.0278
 3131W        W 7195   0.344   7.690  11.540 -0.0898 -0.2644  0.2517
 3132W        W 7196   6.102   0.879   2.995 -0.2099  0.0400 -0.2215
 3133W        W 7197   1.566   6.679   1.104 -0.1954 -0.0838  0.0825
 3134W        W 7198   0.804   1.053  11.005  0.0070  0.0544  0.3303
 3135W        W 7199   6.125  10.246   3.221  0.1800 -0.0321  0.1456
 3136W        W 7200   6.519   4.268   1.441  0.1501 -0.0072 -0.1601
 3137W        W 7201   3.468  10.160  10.698  0.0144  0.3004 -0.1922
 3138W        W 7202   0.690   9.704   2.644  0.1184 -0.0336 -0.2272
 3139W        W 7203   0.751   4.814   3.408  0.0433 -0.1156 -0.0097
 3140W        W 7204   6.459   2.426   0.813  0.2485 -0.0191 -0.0672
 3141W        W 7205   6.390   8.762  10.438  0.0536 -0.0600  0.0777
 3142W        W 7206   2.674   6.695   2.140  0.1568  0.3591  0.1646
 3143W        W 7207   1.585   6.871   9.041 -0.0505 -0.0549  0.4209
 3144W        W 7208   1.320   7.557   2.258 -0.0429  0.1602 -0.1214
 3145W        W 7209   1.969   2.058   8.340  0.0828 -0.0711  0.0993
 3146W        W 7210   1.739   6.018   3.138  0.2052 -0.2697 -0.1074
 3147W        W 7211   3.226   7.601   0.909 -0.0516  0.0177 -0.2641
 3148W        W 7212   4.769   4.969   9.501  0.0471  0.0692 -0.0872
 3149W        W 7213  10.405   6.467   1.681  0.0593  0.0917  0.0983
 3150W        W 7214   4.439   0.662   9.430  0.0037  0.0771  0.4189
 3151W        W 7215   2.593   6.794   9.183  0.0963 -0.3752  0.3524
 3152W        W 7216  10.597   3.524  11.007 -0.1861 -0.0439  0.0408
 3153W        W 7217   1.652   9.631   8.877 -0.0097  0.3607  0.0583
 3154W        W 7218   3.976   2.949   8.990  0.2578  0.0011  0.2508
 3155W        W 7219   9.943  10.072   1.765  0.2616 -0.1258 -0.2021
 3156W        W 7220   4.538   3.009   8.547 -0.1904  0.0214 -0.4276
 3157W        W 7221   8.942   6.703   2.318  0.0062 -0.3446  0.2415
 3158W        W 7222   4.080   1.058   1.017 -0.0239  0.2722  0.0159
 3159W        W 7223   9.159   5.500   3.580  0.0741  0.0796 -0.0584
 3160W        W 7224   0.072   7.864   0.775  0.2881 -0.2025 -0.0465
 3161W        W 7225   6.683   3.773   1.714 -0.2154 -0.0208  0.1914
 3162W        W 7226   9.684   5.905   0.934 -0.3485 -0.1263 -0.1426
 3163W        W 7227   6.978   3.886   3.254  0.2379  0.5616  0.1680
 3164W        W 7228   8.883   2.995   8.068 -0.1436  0.1677 -0.0547
 3165W        W 7229   4.707   9.844   0.152 -0.0262  0.0368 -0.1754
 3166W        W 7230   9.738   3.346   8.938  0.2849 -0.0878  0.1536
 3167W        W 7231   0.189   3.202   1.695 -0.0316  0.1163 -0.2659
 3168W        W 7232   5.719   1.117   8.788 -0.2016  0.1400  0.2194
 3169W        W 7233   0.192   0.593   4.515 -0.0227  0.1784 -0.1684
 3170W        W 7234   9.634   9.718   1.919 -0.0365 -0.0273 -0.0787
 3171W        W 7235   2.162   7.850   1.136 -0.0740  0.2169 -0.0727
 3172W        W 7236   9.153   4.423  10.885  0.1422 -0.1699 -0.2225
 3173W        W 7237   7.623   3.241  10.521 -0.0958  0.1739 -0.0857
 3174W        W 7238   5.865   9.468   8.650 -0.1160  0.0392 -0.2315
 3175W        W 7239   5.530   4.234   8.361 -0.2486 -0.0338 -0.0005
 3176W        W 7240   0.111   5.942   8.247 -0.2334  0.3560  0.1230
 3177W        W 7241   1.053   5.871   3.605  0.3047  0.1162  0.0287
 3178W        W 7242   0.601   3.389   7.946  0.0184 -0.0635  0.1798
 3179W        W 7243   5.530   5.103   0.310  0.0863 -0.0910  0.0543
 3180W        W 7244   2.596   1.749   8.704 -0.2405  0.1230  0.2395
 3181W        W 7245   7.752   2.192   9.388  0.2586 -0.3824  0.2830
 3182W        W 7246   5.244   9.581   2.140  0.2464  0.2994  0.3316
 3183W        W 7247   3.381   1.816   8.835 -0.0371 -0.2478  0.1573
 3184W        W 7248   4.531   1.390   2.415  0.0122  0.5176 -0.0375
 3185W        W 7249   0.020   0.068   9.909 -0.0997  0.1420  0.1898
 3186W        W 7250   5.284   5.928   9.692 -0.1479 -0.1182 -0.0330
 3187W        W 7251   6.372   0.317   3.782 -0.0750 -0.0796  0.1905
 3188W        W 7252   2.295   6.354   1.590  0.3635  0.1751 -0.0173
 3189W        W 7253   0.448   6.558   2.940 -0.1309  0.2452  0.5137
 3190W        W 7254   2.361   3.383   4.053 -0.1662  0.1082  0.0071
 3191W        W 7255   1.269   5.776   8.088  0.2970 -0.1729  0.1197
 3192W        W 7256  10.197   6.714   0.824  0.0598  0.0140 -0.0016
 3193W        W 7257   1.284   2.914   1.032  0.0286 -0.0825 -0.0296
 3194W        W 7258   5.966   3.084   1.596  0.0280 -0.0204 -0.0922
 3195W        W 7259  10.117  10.070   1.105 -0.1121 -0.0556  0.0120
 3196W        W 7260   3.507   9.288   9.287  0.3572 -0.3924  0.2428
 3197W        W 7261   8.633   0.550   1.071  0.0490  0.0528 -0.2653
 3198W        W 7262   2.619   9.463   2.925  0.1376 -0.0036 -0.0886
 3199W        W 7263   0.363   8.711   2.908 -0.3382 -0.4482 -0.2257
 3200W        W 7264   5.281   5.092   9.513  0.1493 -0.0037 -0.1753
 3201W        W 7265   5.600   8.464   0.571  0.0541  0.0615 -0.3345
 3202W        W 7266   8.284   5.383   1.793  0.2317  0.2774  0.1526
 3203W        W 7267   5.795   4.448   9.884 -0.1516  0.3375  0.1621
 3204W        W 7268   1.515   6.918   2.133  0.1857  0.3729 -0.1803
 3205W        W 7269   3.815   8.990   8.821  0.0091  0.5319  0.1603
 3206W        W 7270   3.003   4.049   1.950 -0.0561  0.2146 -0.0882
 3207W        W 7271   5.626   4.542  10.434 -0.1393  0.2386 -0.2218
 3208W        W 7272   7.996   5.771   1.937  0.3935  0.2167 -0.0383
 3209W        W 7273  10.631   0.923   2.813 -0.1539  0.2125 -0.0661
 3210W        W 7274   9.380   1.101   0.581 -0.0666  0.0855 -0.3122
 3211W        W 7275  10.161   2.443   2.855 -0.0878  0.0343 -0.0543
 3212W        W 7276   4.008   2.538   8.733  0.0812 -0.0784 -0.1278
 3213W        W 7277   7.068   0.993   0.866  0.0375  0.2560 -0.2200
 3214W        W 7278   0.492   0.280   7.716  0.0489  0.1406 -0.2126
 3215W        W 7279   4.866   7.534   9.431 -0.1262  0.1009 -0.1487
 3216W        W 7280   9.568   3.704  10.648 -0.0511 -0.0592 -0.1113
 3217W        W 7281   8.865   6.907   0.673  0.1999  0.1881  0.1872
 3218W        W 7282   9.679   9.133   3.822 -0.1294  0.0043  0.2420
 3219W        W 7283   7.260   9.807  11.399 -0.1753 -0.0477  0.2285
 3220W        W 7284   1.117   3.702   9.409 -0.3137  0.1267  0.2772
 3221W        W 7285   9.097  10.429   0.106 -0.1476 -0.0586 -0.0319
 3222W        W 7286   2.462   8.168   8.395  0.2873  0.0576 -0.3161
 3223W        W 7287   9.082   3.662  10.610  0.2410  0.0864 -0.0137
 3224W        W 7288   5.800   4.997   9.688 -0.0008  0.2749 -0.0814
 3225W        W 7289   9.798   5.076   0.301 -0.0237  0.0387 -0.0167
 3226W        W 7290   8.869   3.583   9.994 -0.1342  0.3294 -0.1438
 3227W        W 7291  10.534   7.840   1.477  0.1755  0.1129 -0.2037
 3228W        W 7292   0.562   0.991  11.449 -0.0251  0.0215 -0.1258
 3229W        W 7293   1.038   8.645   9.256  0.0733 -0.2828 -0.0934
 3230W        W 7294   6.108   7.589   2.012 -0.2630  0.3259  0.0578
 3231W        W 7295   3.815   3.674   4.156 -0.2026 -0.1422  0.0208
 3232W        W 7296   8.764   8.675   8.733  0.4335 -0.0018 -0.1941
 3233W        W 7297   4.515   6.463   3.092 -0.0627 -0.0132 -0.2849
 3234W        W 7298   9.582   0.999  10.324  0.0118 -0.4897  0.2687
 3235W        W 7299   5.566   3.979   8.786 -0.0965 -0.0959 -0.0504
 3236W        W 7300   9.270   6.022   0.666 -0.1466  0.3853 -0.1137
 3237W        W 7301   3.678   4.980   1.977 -0.1921 -0.2528  0.1701
 3238W        W 7302   5.626   6.665   3.300  0.1093  0.2583  0.2223
 3239W        W 7303   6.982   2.866  11.343  0.1511  0.0776  0.0072
 3240W        W 7304   9.360   4.406   2.279 -0.0600  0.1136  0.3769
 3241W        W 7305   0.074   5.553   2.552 -0.3379 -0.0408  0.2169
 3242W        W 7306  10.388   1.821   2.867  0.0186 -0.0100 -0.1130
 3243W        W 7307   6.708   5.206   3.350  0.0689  0.1795 -0.2284
 3244W        W 7308   9.340   8.878  10.296  0.1610  0.0202 -0.1788
 3245W        W 7309   5.994   3.587   3.425  0.0310  0.0687 -0.0681
 3246W        W 7310   0.417   6.643  11.552 -0.2595 -0.0308  0.0809
 3247W        W 7311   2.859   6.627  11.307  0.1154 -0.2790 -0.2646
 3248W        W 7312   3.522   5.600  10.062 -0.1735  0.0439 -0.0599
 3249W        W 7313   7.712   3.230   2.145  0.3266 -0.2292 -0.1331
 3250W        W 7314   1.621   9.085   0.820 -0.0243  0.0517  0.1535
 3251W        W 7315   7.093   3.279   8.307  0.0055  0.1547 -0.0900
 3252W        W 7316  10.319   2.128   0.744 -0.2122  0.0134 -0.1151
 3253W        W 7317   0.325   0.388   2.222  0.0219 -0.0180 -0.0682
 3254W        W 7318   3.318   2.743   8.299 -0.2019 -0.1560  0.0216
 3255W        W 7319   1.015   0.966   2.480 -0.2694 -0.1300  0.3052
 3256W        W 7320   5.044   1.076  10.700  0.0215 -0.0517  0.1252
 3257W        W 7321   2.574   5.077   1.200  0.1284  0.2257  0.1225
 3258W        W 7322   3.466   4.458   3.329 -0.2501  0.0824  0.0152
 3259W        W 7323   8.402   0.775   2.700 -0.1065  0.0591  0.2824
 3260W        W 7324   7.089   3.040   0.275 -0.1708  0.1899 -0.2419
 3261W        W 7325   5.733   7.904  10.406  0.2599  0.0605 -0.2059
 3262W        W 7326   5.753   1.901   9.347 -0.2067 -0.1344 -0.1415
 3263W        W 7327   1.818   2.678   9.689 -0.0259  0.0852 -0.0673
 3264W        W 7328   8.474   5.286   0.477 -0.0334  0.1807  0.0632
 3265W        W 7329   7.394   8.474  11.242 -0.0127 -0.3881  0.0663
 3266W        W 7330   5.824   5.421   0.699 -0.3868  0.3310 -0.0960
 3267W        W 7331   2.487   9.541   1.167  0.2089  0.0797 -0.0969
 3268W        W 7332   0.654   7.416   0.244  0.1184 -0.1060  0.0779
 3269W        W 7333   2.582   8.060  10.858  0.2069  0.2245  0.1358
 3270W        W 7334   5.699   8.782   2.856  0.2133 -0.1284 -0.1548
 3271W        W 7335   4.111   8.192   1.197  0.1514 -0.1095 -0.1931
 3272W        W 7336   9.659   7.906   9.823  0.1583  0.0521  0.0634
 3273W        W 7337   1.486   4.239   3.249 -0.1556 -0.1476 -0.1480
 3274W        W 7338   2.987   8.761   0.188  0.1309  0.0958  0.0444
 3275W        W 7339   4.059   7.099   1.188  0.0960 -0.0447 -0.3847
 3276W        W 7340   4.622   1.829   2.836  0.2143 -0.1257 -0.0334
 3277W        W 7341   4.473   4.482   9.638  0.2203 -0.1319  0.0108
 3278W        W 7342   6.737   9.039   3.098  0.4472  0.3047  0.2921
 3279W        W 7343   2.125   1.684   1.934 -0.1938  0.0220 -0.0110
 3280W        W 7344   9.656   8.276   3.548  0.2025  0.0958 -0.1991
 3281W        W 7345   3.850   7.649   0.857  0.6516  0.2249 -0.1673
 3282W        W 7346   5.399   6.722   9.263  0.6115 -0.2142  0.2939
 3283W        W 7347   6.998   1.594   9.640 -0.0953 -0.1753 -0.0105
 3284W        W 7348   5.085   4.525   8.569  0.1653 -0.1534 -0.1039
 3285W        W 7349   8.683   7.429   0.802 -0.0041 -0.0454  0.1757
 3286W        W 7350   1.842   3.561  10.670  0.1028 -0.0101  0.0980
 3287W        W 7351   2.149   9.524   2.481  0.5118 -0.2949 -0.0404
 3288W        W 7352   3.492   8.679   1.146  0.1192 -0.1394  0.0817
 3289W        W 7353   9.418   4.937   2.245 -0.1484  0.2828 -0.3381
 3290W        W 7354   8.036   8.182   3.563  0.0966 -0.1250  0.1394
 3291W        W 7355   7.157   0.744   8.263  0.2027 -0.2005 -0.0064
 3292W        W 7356   1.581   2.989   2.427  0.2855 -0.4648  0.1171
 3293W        W 7357   8.317   8.127   0.053  0.0044  0.0933 -0.1183
 3294W        W 7358   9.527   1.473  10.486 -0.2986 -0.1826 -0.0715
 3295W        W 7359   4.443   7.604   3.771 -0.1047 -0.1170 -0.1306
 3296W        W 7360   0.818   5.712  11.542  0.2288 -0.1253 -0.1544
 3297W        W 7361   9.563   0.775   0.222 -0.0023 -0.0568 -0.0491
 3298W        W 7362   4.604   7.984   2.883  0.1230 -0.1279 -0.0002
 3299W        W 7363   1.754   5.271   8.639 -0.1832  0.1514  0.0696
 3300W        W 7364   6.758  10.446   3.613 -0.1833 -0.1836 -0.0229
 3301W        W 7365   6.874   1.001   0.359  0.1875 -0.0073  0.0552
 3302W        W 7366   2.214   6.157   9.910  0.0908 -0.1505 -0.2169
 3303W        W 7367   5.776   9.924   2.063 -0.0639 -0.0367 -0.0124
 3304W        W 7368   9.783   4.685   9.448 -0.3001  0.1617  0.2126
 3305W        W 7369   1.934   5.669   8.408  0.0347 -0.1103 -0.0335
 3306W        W 7370   2.020   2.946   9.305 -0.2021  0.2431 -0.0136
 3307W        W 7371   3.420   7.464   1.766 -0.0730  0.0810  0.1248
 3308W        W 7372   7.110   9.102   8.585  0.0669 -0.2283 -0.0552
 3309W        W 7373   4.515   2.506   0.731 -0.2424  0.2748  0.2002
 3310W        W 7374   1.284   9.405   1.003 -0.3133 -0.2069 -0.0251
 3311W        W 7375   9.241   1.286  11.216 -0.2863  0.0562  0.1672
 3312W        W 7376   2.220   9.509  10.864  0.1217 -0.0670 -0.1547
 3313W        W 7377   0.698   7.160   2.277  0.0836 -0.3334  0.2897
 3314W        W 7378   2.961   6.065   0.478  0.3941 -0.1629  0.3212
 3315W        W 7379   2.052   2.560   3.183  0.0082 -0.2458  0.2500
 3316W        W 7380   2.621  10.538   8.587 -0.0020  0.0401 -0.1843
 3317W        W 7381   5.199   1.146   3.386  0.1039 -0.0340  0.1844
 3318W        W 7382   3.373   6.828   9.100  0.0294 -0.0682 -0.1524
 3319W        W 7383   3.204  10.186   9.706  0.0977 -0.1586 -0.0716
 3320W        W 7384   2.216   1.452  11.564  0.0193 -0.0812  0.0584
 3321W        W 7385   1.799   4.926  10.783 -0.1122  0.1206 -0.1333
 3322W        W 7386   5.159   0.111   8.140  0.0091 -0.0888  0.1464
 3323W        W 7387   5.585   1.496   0.815 -0.0100 -0.1934  0.0534
 3324W        W 7388  10.636   8.593   9.994 -0.0861 -0.3303 -0.0494
 3325W        W 7389   0.458   0.945   8.512  0.0525 -0.0957 -0.1123
 3326W        W 7390   1.488   6.146   2.737 -0.2960  0.0153  0.1505
 3327W        W 7391   3.147   8.335   1.436 -0.0570 -0.0777  0.2387
 3328W        W 7392   8.907   3.928   0.096 -0.1076  0.1287 -0.4544
 3329W        W 7393   5.443   6.582   1.449  0.2164  0.1805 -0.4780
 3330W        W 7394   2.598   8.363   2.938 -0.3309 -0.1077  0.2740
 3331W        W 7395   1.166   2.583   2.859  0.0137  0.0480  0.0424
 3332W        W 7396   4.470   4.475  11.503  0.0130 -0.1220 -0.1776
 3333W        W 7397   1.961   7.456   3.061  0.2899  0.1489 -0.1930
 3334W        W 7398   4.531   2.420  11.410 -0.1898 -0.2138  0.1435
 3335W        W 7399   8.018   9.327   8.494  0.1875  0.1129 -0.0389
 3336W        W 7400   0.447   8.463  10.158  0.1715 -0.0543 -0.1184
 3337W        W 7401   0.799   0.606   8.599  0.0566  0.1788  0.3653
 3338W        W 7402   1.058   7.885   8.144 -0.1341 -0.0627 -0.0134
 3339W        W 7403   4.272   7.537   9.158  0.1415  0.2676 -0.0219
 3340W        W 7404   5.861   2.520   8.286  0.0010  0.2727  0.0729
 3341W        W 7405   2.052   1.564   2.503  0.0574 -0.0443  0.3556
 3342W        W 7406   6.634  10.409   9.166 -0.0888 -0.0855  0.0597
 3343W        W 7407   5.995   9.584  10.460  0.1148 -0.3076  0.1650
 3344W        W 7408   6.790   9.223   0.554 -0.2791  0.0383  0.3006
 3345W        W 7409   0.222   7.893   2.475 -0.0464 -0.0967 -0.2238
 3346W        W 7410   1.651   7.855   3.072  0.0658  0.2975 -0.3749
 3347W        W 7411   8.786   3.246   1.257  0.1203  0.1838  0.0600
 3348W        W 7412   2.206   7.283   1.486  0.0660  0.2055 -0.2690
 3349W        W 7413   4.771   9.173   3.892 -0.0743 -0.0390 -0.3305
 3350W        W 7414  10.560   4.022   9.577 -0.2371 -0.0467 -0.0052
 3351W        W 7415   6.278   2.810   9.363 -0.3984  0.2353 -0.0224
 3352W        W 7416   5.050   8.420  10.488 -0.2038 -0.0348 -0.0681
 3353W        W 7417   9.813   5.206   9.556 -0.1457  0.2243 -0.0894
 3354W        W 7418   6.158   2.715   1.880  0.0339 -0.0942  0.1044
 3355W        W 7419   9.429   9.886   8.129  0.0272  0.2446 -0.1332
 3356W        W 7420   3.478   5.332   0.131  0.1311 -0.2003  0.1364
 3357W        W 7421   8.120   1.079   1.756  0.0208  0.0457  0.1686
 3358W        W 7422   4.990   2.274   7.359  0.0645  0.1307 -0.0071
 3359W        W 7423   7.034  10.138   0.083  0.0314 -0.0168 -0.0971
 3360W        W 7424   7.753  10.632   1.249  0.3428 -0.2219  0.1212
 3361W        W 7425   4.007   2.511   9.935  0.0992 -0.0953 -0.1232
 3362W        W 7426   9.208   2.267   0.113 -0.0321  0.3948  0.2601
 3363W        W 7427   9.582   5.103   9.990  0.0477  0.2437 -0.0589
 3364W        W 7428   0.669   2.927  11.469  0.3022 -0.2365  0.2409
 3365W        W 7429   6.399   2.810   8.111  0.2524 -0.0395 -0.0065
 3366W        W 7430   6.320   1.366   2.337  0.0553 -0.0746  0.1145
 3367W        W 7431   5.560   3.298   1.392  0.6679 -0.1143 -0.2541
 3368W        W 7432   0.370   5.528  11.404  0.0429  0.0134  0.0419
 3369W        W 7433   6.907   4.201   0.348 -0.2245 -0.4485 -0.0737
 3370W        W 7434   6.134   2.040   8.546  0.2341  0.2093 -0.2143
 3371W        W 7435  10.090   3.396   0.522 -0.0477  0.1322 -0.0355
 3372W        W 7436   3.632   2.064  10.216 -0.1793  0.1812 -0.0406
 3373W        W 7437   2.877   0.038  10.741  0.3796  0.1524  0.3657
 3374W        W 7438   0.191   9.761   2.615 -0.3371  0.0829 -0.2195
 3375W        W 7439   5.853  10.000   3.814 -0.1070  0.2253  0.1250
 3376W        W 7440   8.181   2.013   9.508  0.2029  0.0787 -0.3834
 3377W        W 7441   1.444   4.362   2.679  0.0008  0.0538 -0.0861
 3378W        W 7442   5.979   9.797   8.215  0.0300  0.1089  0.0398
 3379W        W 7443   4.277   1.132   9.691 -0.3194  0.1900  0.2513
 3380W        W 7444   7.323   7.489   9.418 -0.0883  0.1165 -0.0004
 3381W        W 7445   0.697   8.801  10.555  0.0589  0.1235 -0.3352
 3382W        W 7446   1.247   3.587  10.831  0.0563  0.0912 -0.0677
 3383W        W 7447  10.565   9.712   1.224  0.2633 -0.1687 -0.0192
 3384W        W 7448   1.710   9.812   7.727  0.3161  0.2777 -0.0990
 3385W        W 7449   2.076   6.827   1.218 -0.1553  0.1806 -0.3190
 3386W        W 7450   6.200   8.480   8.764  0.0706 -0.0189 -0.0353
 3387W        W 7451   3.166  10.618   9.334 -0.1962  0.1861 -0.2026
 3388W        W 7452   5.050   3.107   7.410  0.1622  0.3190  0.1962
 3389W        W 7453   0.220   7.262   9.808  0.4946 -0.0864 -0.1414
 3390W        W 7454   2.734   0.467   1.236  0.1606  0.2306 -0.0832
 3391W        W 7455   5.906   6.480   1.591 -0.1358 -0.3234  0.0442
 3392W        W 7456   4.919   1.487   9.030 -0.0781  0.0462 -0.3407
 3393W        W 7457   1.703  10.571  10.363 -0.0088  0.3715  0.1184
 3394W        W 7458   5.232   9.849   8.607 -0.0718 -0.1870  0.2211
 3395W        W 7459   8.405   3.181   0.507  0.1196 -0.1871  0.1581
 3396W        W 7460   9.040   2.036  11.009  0.0141 -0.1420  0.1193
 3397W        W 7461   0.522   9.494   4.214  0.2692  0.1950 -0.1740
 3398W        W 7462   8.376   1.980   2.290 -0.2789  0.2984  0.0427
 3399W        W 7463  10.494   4.223  10.434  0.1270 -0.0448 -0.1307
 3400W        W 7464   5.417   2.004  10.241 -0.2825 -0.0238  0.4609
 3401W        W 7465   2.260   9.039  11.063  0.0191  0.0405  0.0069
 3402W        W 7466   4.168   3.340   8.741 -0.1022 -0.1326  0.1621
 3403W        W 7467   6.535   2.680  11.037 -0.2461 -0.2468 -0.0627
 3404W        W 7468   2.264   0.003  10.364  0.0203  0.0334  0.0501
 3405W        W 7469   1.474   5.604   0.392 -0.0782 -0.2174  0.7245
 3406W        W 7470   1.198   7.344   8.851 -0.1169 -0.2536  0.1176
 3407W        W 7471   4.080   5.329   2.745 -0.1453  0.1012  0.2904
 3408W        W 7472   7.874   8.396   2.049 -0.2330 -0.4499  0.1940
 3409W        W 7473   6.198   4.430   9.618 -0.3295  0.1921 -0.1133
 3410W        W 7474   8.790   3.681   1.962  0.1034  0.0055 -0.0745
 3411W        W 7475   8.663   2.363   8.198  0.1115 -0.0611  0.0429
 3412W        W 7476   6.063   6.124   9.535 -0.0083  0.2657 -0.0486
 3413W        W 7477   8.060   7.919   0.503  0.1207  0.1508  0.0669
 3414W        W 7478   9.854   8.580   1.730  0.1129 -0.0090  0.2577
 3415W        W 7479   8.686   4.692   9.001 -0.4083  0.3691 -0.0864
 3416W        W 7480   0.047   9.381   3.308 -0.2094  0.2208  0.1816
 3417W        W 7481   6.873  10.044  10.709  0.1535  0.2640 -0.1388
 3418W        W 7482   8.032  10.383   3.329 -0.0411 -0.1913 -0.0358
 3419W        W 7483   0.690   4.622   1.292  0.1002 -0.1183  0.1472
 3420W        W 7484   7.303   1.256   2.110  0.0542 -0.2756  0.0273
 3421W        W 7485   3.561  10.527   8.417  0.2876 -0.2289  0.1288
 3422W        W 7486   6.712   3.570  10.230  0.0626 -0.0273  0.0522
 3423W        W 7487   4.442   7.482   2.782  0.0862  0.0870 -0.3263
 3424W        W 7488   6.384   9.822  10.653 -0.0907  0.0293  0.3333
 3425W        W 7489   6.801   6.603   8.477  0.2497  0.1638  0.1646
 3426W        W 7490   0.869   1.925   9.570 -0.1164  0.3023  0.1245
 3427W        W 7491   9.980   8.785   2.985 -0.0566  0.1006 -0.0196
 3428W        W 7492   3.955   3.216  10.474 -0.0563  0.0349 -0.0651
 3429W        W 7493   6.043   2.716   7.833  0.0282 -0.0002  0.3992
 3430W        W 7494  10.341   1.548   0.453  0.2930 -0.2225  0.2015
 3431W        W 7495  10.625   2.870  10.902 -0.0728 -0.1595 -0.1024
 3432W        W 7496   1.189   6.122   3.169 -0.3546 -0.3364  0.0447
 3433W        W 7497   2.020   8.494  11.511  0.1175 -0.2486  0.3616
 3434W        W 7498   7.209   6.868   8.655  0.2013  0.0265  0.3205
 3435W        W 7499   1.295   4.881   2.849 -0.3371 -0.1474  0.1310
 3436W        W 7500   6.360   1.879   2.226 -0.0362  0.1366 -0.2141
 3437W        W 7501   1.096   0.561   1.576  0.0002 -0.3999 -0.0431
 3438W        W 7502   8.370   0.812  10.519  0.0135 -0.1371 -0.2623
 3439W        W 7503   2.569   7.119  11.485  0.2992  0.2146  0.0212
 3440W        W 7504   3.511   4.192   0.342  0.0333  0.1408  0.4533
 3441W        W 7505   9.044   7.429   8.707  0.0061  0.1417 -0.0086
 3442W        W 7506   2.906   2.579   9.743 -0.3977  0.0568 -0.2510
 3443W        W 7507   6.793   5.767   1.221 -0.0452  0.0623 -0.2322
 3444W        W 7508   4.149   4.405   8.215  0.1676  0.3382 -0.3316
 3445W        W 7509   7.970   3.746   2.910  0.2565  0.0477 -0.3876
 3446W        W 7510   4.438   4.651   2.437  0.1798  0.0642  0.1892
 3447W        W 7511   0.379   8.121   1.710 -0.0876 -0.1457 -0.1446
 3448W        W 7512   2.126   2.602   8.974  0.0139  0.0260 -0.1140
 3449W        W 7513   6.238   4.673  11.051 -0.0385  0.0521  0.1892
 3450W        W 7514   3.761   3.569   7.794 -0.4376 -0.0125  0.1175
 3451W        W 7515   2.834   4.866   0.712  0.0874  0.2626  0.1348
 3452W        W 7516   7.519   3.849   9.459  0.0125  0.1215  0.4594
 3453W        W 7517   2.567   1.430   3.005 -0.0392  0.0964  0.0400
 3454W        W 7518   5.685   1.151   9.377  0.0878 -0.1628 -0.0213
 3455W        W 7519  10.273   9.747   8.511  0.0246 -0.1583  0.0231
 3456W        W 7520   5.403   3.979  10.866  0.0480  0.1306 -0.0246
 3457W        W 7521   3.996   6.712   8.713  0.0745 -0.0610  0.1364
 3458W        W 7522   4.819   7.072   2.560 -0.3181 -0.1539 -0.0906
 3459W        W 7523   2.740   7.026   9.939  0.0539 -0.1324 -0.0610
 3460W        W 7524   4.495   3.914   1.761  0.0079 -0.0273 -0.0306
 3461W        W 7525   6.780   5.319   1.027  0.0844  0.1460 -0.1191
 3462W        W 7526   6.735   4.339   3.019 -0.1380  0.0342  0.0440
 3463W        W 7527   2.934   9.017   9.714 -0.0182  0.3000  0.0483
 3464W        W 7528   1.504   9.784   3.122 -0.1221 -0.0321  0.0877
 3465W        W 7529   5.245   2.120  11.327  0.0147 -0.0944 -0.1288
 3466W        W 7530   0.473   5.735   8.510  0.1334  0.1508 -0.3371
 3467W        W 7531   6.594   4.842   1.027  0.1017 -0.1477  0.0596
 3468W        W 7532   8.906   9.930   3.350  0.3698  0.0170  0.0612
 3469W        W 7533   2.919   5.036  10.474  0.0194  0.3760 -0.0132
 3470W        W 7534   8.913   2.617   9.334 -0.1435  0.2085 -0.0424
 3471W        W 7535   6.048   8.830  10.076  0.0740  0.0968  0.1199
 3472W        W 7536   0.665   3.099  10.399 -0.2350 -0.2914 -0.1276
 3473W        W 7537   9.215   9.231   9.297 -0.1946 -0.0382 -0.1863
 3474W        W 7538  10.374   9.191   0.517 -0.0489 -0.0955  0.0622
 3475W        W 7539   7.457   3.483   0.726 -0.0619  0.2259 -0.0707
 3476W        W 7540   0.480   2.205   7.937  0.1304  0.4082  0.3020
 3477W        W 7541   3.953   9.116  10.080 -0.1027 -0.0070  0.2959
 3478W        W 7542   4.704   3.323   0.363  0.0859 -0.0380 -0.0051
 3479W        W 7543   7.420   2.690   3.075 -0.1177  0.1728 -0.1277
 3480W        W 7544   0.019   1.054   0.374  0.0563  0.0161 -0.3357
 3481W        W 7545   5.796   2.213   1.456 -0.1639  0.2537 -0.1043
 3482W        W 7546   6.921   2.341   8.469 -0.3145 -0.0210 -0.3321
 3483W        W 7547   4.992   0.099   9.524 -0.1221  0.1311  0.1001
 3484W        W 7548   0.924   9.691   8.355  0.3619  0.5595  0.1040
 3485W        W 7549   5.423   5.214   0.987  0.4124  0.2572  0.1946
 3486W        W 7550   0.241   5.237   8.487  0.0086  0.2123 -0.0996
 3487W        W 7551   8.812   2.869   2.003  0.1114 -0.0869  0.1433
 3488W        W 7552   4.382   3.076  11.519 -0.2557 -0.0806 -0.0658
 3489W        W 7553  10.023   7.930   8.348 -0.0175  0.0808 -0.1165
 3490W        W 7554   9.117   7.875   7.886  0.2076  0.2066  0.0674
 3491W        W 7555   9.346   2.007   9.629 -0.1066  0.3028 -0.2568
 3492W        W 7556   0.138   8.918   1.864 -0.3120  0.0880  0.2655
 3493W        W 7557   5.135   7.112   9.072  0.2423 -0.2090 -0.0005
 3494W        W 7558   3.089   0.635   8.261 -0.0538  0.2640 -0.3544
 3495W        W 7559   4.144   4.253  10.107 -0.0680  0.1758 -0.2228
 3496W        W 7560   3.432   9.220   8.354  0.0216 -0.0806 -0.1835
 3497W        W 7561   2.563   9.154   2.498  0.0999  0.1409 -0.0991
 3498W        W 7562   4.093   2.224   0.683  0.2777 -0.0110  0.0115
 3499W        W 7563   0.678   5.624   0.802 -0.2417  0.0510  0.1211
 3500W        W 7564   3.529   7.433   8.361 -0.1920  0.1806  0.1655
 3501W        W 7565   3.158   8.158   3.369  0.0457  0.1400 -0.1203
 3502W        W 7566   5.211   5.211  10.264 -0.0663  0.2519  0.2272
 3503W        W 7567   2.697   6.424   0.634  0.2200  0.0071  0.0226
 3504W        W 7568   0.867   8.479   2.257 -0.3780 -0.0075 -0.2106
 3505W        W 7569   5.673   1.676  11.458  0.0142  0.1320  0.0177
 3506W        W 7570   7.229   3.357   9.867 -0.0920 -0.0570  0.4156
 3507W        W 7571   3.512   0.245   2.880 -0.1599  0.1573 -0.0916
 3508W        W 7572   5.779   3.481   1.944 -0.1990 -0.1019 -0.1181
 3509W        W 7573   2.721   6.865   0.399  0.1152  0.2526  0.0630
 3510W        W 7574   9.101   9.692   2.026  0.1897  0.0326 -0.2657
 3511W        W 7575   4.517   0.356   1.392  0.2094  0.2810  0.1328
 3512W        W 7576   9.292   3.224   1.033  0.0802  0.0226 -0.1062
 3513W        W 7577   1.512   4.772   2.377  0.0683 -0.3206 -0.1366
 3514W        W 7578  10.349   7.563   3.146  0.5794 -0.5700  0.0084
 3515W        W 7579   7.389   1.349   7.549 -0.1084 -0.0143 -0.0425
 3516W        W 7580   9.181   8.858   8.965 -0.0102  0.1106  0.0063
 3517W        W 7581   5.197   5.955  10.854 -0.0548  0.1971  0.3053
 3518W        W 7582   0.376   6.584   8.643 -0.1275  0.0454  0.1473
 3519W        W 7583   8.302  10.252   2.002 -0.0179 -0.0863 -0.1686
 3520W        W 7584   1.275   2.098   3.165  0.2274 -0.0232 -0.0607
 3521W        W 7585   7.160   5.678   9.382 -0.1636 -0.1013  0.1535
 3522W        W 7586   1.985  10.183   8.018  0.2616  0.1575  0.0038
 3523W        W 7587   4.268  10.614  11.194 -0.2484 -0.0269  0.1400
 3524W        W 7588   7.911   0.636   3.672 -0.1830 -0.1342  0.0481
 3525W        W 7589   2.606   1.341   9.764  0.3438  0.3136  0.5222
 3526W        W 7590   4.952   0.660   8.750  0.2845 -0.2587  0.1301
 3527W        W 7591   7.859  10.154   2.894 -0.1714  0.1815 -0.0672
 3528W        W 7592   2.832   2.820   1.023  0.1228 -0.4096 -0.0141
 3529W        W 7593   6.678   2.100   1.934  0.0326  0.1128 -0.0252
 3530W        W 7594   9.049   6.537   0.060  0.0404  0.0579 -0.1323
 3531W        W 7595   8.146   0.840   8.992 -0.0912  0.1787 -0.1308
 3532W        W 7596   1.128   9.725   9.898  0.1455  0.0218 -0.0492
 3533W        W 7597   3.886   9.505   9.599  0.1462 -0.0762  0.0204
 3534W        W 7598  10.180  10.527   9.218 -0.2291 -0.0277  0.3461
 3535W        W 7599   4.547   5.435   2.084  0.2069 -0.1050 -0.2416
 3536W        W 7600  10.103   0.585   2.122 -0.1769  0.3176  0.1277
 3537W        W 7601   4.370   3.076   3.437 -0.1272  0.2344 -0.0110
 3538W        W 7602   4.630   4.886  11.112 -0.1566 -0.1495  0.0085
 3539W        W 7603   8.257   8.225   2.952  0.1345 -0.0513  0.1998
 3540W        W 7604   0.709   6.236   0.310 -0.0616 -0.2929  0.0082
 3541W        W 7605   1.336   6.914  11.218 -0.3126  0.6643 -0.1065
 3542W        W 7606   2.113   4.628   3.709 -0.1237 -0.1304 -0.0522
 3543W        W 7607   9.258   0.571   3.427 -0.0829  0.0945  0.1577
 3544W        W 7608   6.499   3.476   4.106  0.1387 -0.0138  0.1261
 3545W        W 7609   1.186  10.340   9.385 -0.1134  0.2257  0.0290
 3546W        W 7610  10.513   7.880  11.410  0.0832 -0.0333 -0.0768
 3547W        W 7611   1.684   7.818   0.255 -0.1069  0.1433 -0.0691
 3548W        W 7612   8.087   0.616  11.369 -0.1230  0.0377 -0.0834
 3549W        W 7613   6.295   8.841   0.257  0.0476  0.0317  0.1881
 3550W        W 7614   8.987   3.211  10.771 -0.0170  0.1176 -0.1074
 3551W        W 7615   2.130   0.459   8.525  0.3085 -0.1124  0.3899
 3552W        W 7616  10.119   5.158  10.087 -0.1616 -0.1308  0.0052
 3553W        W 7617   2.701  10.077   0.189  0.0401 -0.3748  0.0395
 3554W        W 7618   0.903   3.119   8.731 -0.2793 -0.0639  0.0302
 3555W        W 7619   6.468   8.292   3.257  0.1478  0.0864 -0.0429
 3556W        W 7620   2.307   4.764   8.213  0.2538 -0.4395  0.1024
 3557W        W 7621   0.617  10.138   0.763 -0.1075  0.3579  0.3211
 3558W        W 7622   6.227   2.252   8.100  0.3426  0.1141  0.0804
 3559W        W 7623   1.821   4.105  11.364  0.1158 -0.1552 -0.2546
 3560W        W 7624   1.702   0.192  11.207  0.2532  0.0236 -0.0309
 3561W        W 7625   8.294   3.014   3.679  0.0100 -0.4395  0.1932
 3562W        W 7626   8.877   1.668   7.934  0.2228  0.1573 -0.1167
 3563W        W 7627   7.843   8.933   0.775 -0.0636 -0.0586  0.1534
 3564W        W 7628   2.915   5.243   9.906 -0.2238 -0.3473  0.1115
 3565W        W 7629   3.091   9.238   3.149 -0.1110 -0.0464  0.0081
 3566W        W 7630   9.476   5.453   0.284 -0.0678 -0.1016 -0.3142
 3567W        W 7631   5.814   3.072   2.812  0.0853 -0.1673  0.0047
 3568W        W 7632   0.120   5.485   8.019 -0.0649  0.1369  0.1014
 3569W        W 7633   2.180   8.603   9.504 -0.3307  0.2116 -0.1437
 3570W        W 7634   0.433   5.332   8.979  0.0875 -0.2617  0.0190
 3571W        W 7635   9.278   0.448   8.290 -0.4945 -0.3219  0.0789
 3572W        W 7636   2.598  10.086   3.692  0.0275 -0.2730 -0.4588
 3573W        W 7637   6.434   4.253   3.466 -0.0205  0.0848 -0.0902
 3574W        W 7638   5.123   3.593   7.969 -0.2766  0.1008  0.0600
 3575W        W 7639   2.674   7.257   8.950  0.0219  0.1549  0.0027
 3576W        W 7640   6.309   0.312   0.316  0.2493 -0.1605 -0.0717
 3577W        W 7641   3.743   8.247  10.417 -0.0897 -0.0873 -0.0666
 3578W        W 7642   4.164   5.784   9.401 -0.4043 -0.1079  0.2038
 3579W        W 7643   6.403   3.111   2.412  0.0490  0.1892  0.2680
 3580W        W 7644   8.178   2.669   8.504  0.1769  0.1554 -0.0036
 3581W        W 7645   1.150   7.601   1.100  0.0924  0.0926  0.2705
 3582W        W 7646   9.421   2.836   8.152 -0.0708  0.0829 -0.1286
 3583W        W 7647   0.728   0.268   1.766 -0.0404 -0.2710  0.0557
 3584W        W 7648  10.459   8.569   3.082  0.1712 -0.3527 -0.0164
 3585W        W 7649   0.716   4.353   9.045  0.0977  0.5703  0.0341
 3586W        W 7650   2.624   1.775  10.163 -0.0579 -0.5031 -0.1524
 3587W        W 7651   9.875   0.654  11.471  0.2088  0.3599 -0.0850
 3588W        W 7652   0.159   1.589   8.620 -0.0096 -0.0733 -0.1612
 3589W        W 7653   1.376  10.059   7.984  0.1524 -0.3311 -0.1493
 3590W        W 7654   6.923   4.484  10.317 -0.3556  0.3036 -0.1625
 3591W        W 7655   5.896   0.241  11.552 -0.1237 -0.0994 -0.0678
 3592W        W 7656   6.427   6.174  10.867 -0.0736  0.2516 -0.4486
 3593W        W 7657   1.635   1.922   1.718  0.0698  0.2464 -0.3031
 3594W        W 7658   4.281   5.073  11.526  0.1167  0.2327 -0.0183
 3595W        W 7659   4.398   4.721   9.171  0.1932  0.1095 -0.4389
 3596W        W 7660  10.347   4.896   9.616  0.1381 -0.0183 -0.0672
 3597W        W 7661   0.885   6.361   0.746 -0.1987  0.2411  0.0363
 3598W        W 7662   8.171   4.129   9.487 -0.0953 -0.1117  0.1052
 3599W        W 7663   7.688   7.437   1.112  0.0055  0.0794 -0.1074
 3600W        W 7664   9.277   6.444   9.876  0.1091 -0.0731  0.0421
 3601W        W 7665   7.490   8.759   3.079  0.2426  0.2665 -0.1111
 3602W        W 7666   6.960   4.039  10.064  0.2919  0.4754  0.0138
 3603W        W 7667   9.808   9.965   9.431  0.0853  0.1856 -0.0985
 3604W        W 7668   4.899   9.464   7.492 -0.3047  0.1405 -0.0383
 3605W        W 7669   9.269   1.821   8.230 -0.0228  0.0774  0.1254
 3606W        W 7670   0.251   4.668   8.747  0.2475 -0.0204  0.1035
 3607W        W 7671   1.859   7.853  10.566 -0.0947 -0.1235 -0.0589
 3608W        W 7672   0.661   0.950   9.588 -0.0318 -0.2870  0.1439
 3609W        W 7673   8.504   0.069   1.160 -0.2175  0.0399  0.0202
 3610W        W 7674   9.362   6.944   1.980  0.1761 -0.2276 -0.1554
 3611W        W 7675   8.054   2.550   9.456  0.0573  0.2892  0.0382
 3612W        W 7676   6.996   5.367   8.964  0.0051  0.3933 -0.1818
 3613W        W 7677   8.381   3.450   9.128  0.1067  0.0433  0.0277
 3614W        W 7678   6.333   3.833   3.785 -0.0241  0.2093  0.0720
 3615W        W 7679   3.127   4.054   0.658 -0.0442 -0.0427  0.0818
 3616W        W 7680   5.082   2.380   0.718 -0.0007  0.0635  0.2475
 3617W        W 7681  10.307   5.336   0.584  0.1660 -0.3084  0.0197
 3618W        W 7682   3.485   2.735   8.856 -0.1025  0.1171 -0.4750
 3619W        W 7683   9.183   0.392   4.172 -0.1073  0.2412  0.4315
 3620W        W 7684   5.370   7.205   0.767  0.1367 -0.1359 -0.0788
 3621W        W 7685   4.364   1.534   3.631  0.0452 -0.0463  0.0065
 3622W        W 7686   1.442   7.411   8.284  0.2448  0.0742  0.0733
 3623W        W 7687   5.318   6.879   2.813  0.2100  0.1989 -0.2273
 3624W        W 7688   0.235   8.400   7.933  0.1464  0.1232  0.0469
 3625W        W 7689   7.267  10.295   0.527  0.3354 -0.3333  0.0847
 3626W        W 7690   6.100   2.842   8.868  0.0590  0.1585  0.1219
 3627W        W 7691   6.326   5.768  10.498 -0.2585 -0.2479 -0.1726
 3628W        W 7692   2.521   4.593   2.487 -0.0573 -0.0409  0.1605
 3629W        W 7693   8.559   0.075   9.405  0.2574  0.2720 -0.1256
 3630W        W 7694   5.613   5.406   8.924 -0.2015 -0.1769  0.0926
 3631W        W 7695   5.701   1.324  10.898  0.1514  0.1689  0.2919
 3632W        W 7696   8.173   3.182   8.672 -0.2699  0.2686  0.0304
 3633W        W 7697   6.310   8.765   3.107  0.1356 -0.0330  0.0243
 3634W        W 7698   0.474   0.803   9.018 -0.0488  0.2766  0.2341
 3635W        W 7699  10.601   2.255   2.714  0.1188 -0.0108  0.3371
 3636W        W 7700   9.520   1.636   0.415  0.4626 -0.2357 -0.1556
 3637W        W 7701  10.003   3.344   9.850  0.1036 -0.2491  0.0845
 3638W        W 7702   3.004   4.964   8.866 -0.1692 -0.0757 -0.0538
 3639W        W 7703   1.664   6.570   0.507  0.0823 -0.2434  0.0040
 3640W        W 7704  10.150   5.558  10.453 -0.0783 -0.2312  0.2669
 3641W        W 7705   9.334   4.692   0.956  0.0641 -0.2069 -0.0698
 3642W        W 7706   6.528   2.750   0.068 -0.1252 -0.0133  0.2046
 3643W        W 7707   1.356   9.948   4.025  0.4516  0.0718  0.2668
 3644W        W 7708   3.647   5.477   0.763  0.2493  0.0022  0.1571
 3645W        W 7709   5.576   9.587   9.079  0.2164  0.0397  0.1284
 3646W        W 7710   2.355   8.677   0.917 -0.0292 -0.0656 -0.0138
 3647W        W 7711   9.695   4.870  10.921  0.1505  0.3672  0.1762
 3648W        W 7712   0.185   1.630  10.002  0.0783 -0.2567 -0.2366
 3649W        W 7713   1.745   9.406   2.833  0.0532  0.0279  0.2858
 3650W        W 7714   6.939   2.792   8.142 -0.4264  0.1270  0.1682
 3651W        W 7715   6.599  10.041   3.155 -0.2183 -0.1250 -0.1180
 3652W        W 7716   1.707   5.068   1.530 -0.0155 -0.4348 -0.0582
 3653W        W 7717   4.415  10.507   1.774  0.1416  0.1479 -0.1253
 3654W        W 7718   1.663   8.404   0.274 -0.1465 -0.1356  0.2378
 3655W        W 7719   2.776   6.267   3.474  0.0338 -0.2332 -0.2040
 3656W        W 7720  10.335   8.210   2.288  0.0961 -0.2432 -0.0436
 3657W        W 7721   4.479   3.398   9.705  0.0724 -0.0852  0.1555
 3658W        W 7722   8.176   9.079  10.769 -0.0467  0.1562 -0.0336
 3659W        W 7723   6.231   9.796   3.498  0.0744  0.1441  0.4339
 3660W        W 7724   8.563   7.236  10.789 -0.1849 -0.1899  0.4133
 3661W        W 7725   1.557   9.893   1.013 -0.0161 -0.1975  0.1586
 3662W        W 7726   2.740   3.482  10.315 -0.0404 -0.0794  0.0142
 3663W        W 7727   0.397   2.946   7.657 -0.0121  0.0909 -0.0454
 3664W        W 7728   8.227   9.403   0.871 -0.0396  0.0378 -0.0760
 3665W        W 7729   7.387   2.682   0.559 -0.2081 -0.2261  0.0641
 3666W        W 7730   2.121   7.327   3.561 -0.1760 -0.0784 -0.1204
 3667W        W 7731   7.125   4.489   2.150  0.0025 -0.0173  0.1839
 3668W        W 7732   0.556   4.365   8.537 -0.1293 -0.0375  0.0942
 3669W        W 7733   6.560   4.520   7.926  0.0621 -0.2482  0.0167
 3670W        W 7734  10.302   0.629   1.073  0.4164  0.1064 -0.1364
 3671W        W 7735  10.314   9.310   4.216 -0.3297  0.4000  0.1118
 3672W        W 7736   2.668   3.954   9.661  0.0257 -0.3343 -0.1146
 3673W        W 7737   9.331   2.988  11.019  0.0990 -0.2152  0.0554
 3674W        W 7738   1.144   8.245   8.884  0.2312 -0.0673 -0.1049
 3675W        W 7739   9.577   2.822   0.846  0.2621 -0.1242 -0.0027
 3676W        W 7740   7.660   2.751   2.639  0.1595 -0.1141 -0.0480
 3677W        W 7741   1.944   4.668   9.415 -0.1867 -0.0416  0.1190
 3678W        W 7742   8.927   6.610   2.815 -0.1317 -0.1739 -0.2136
 3679W        W 7743   5.168  10.577   1.926 -0.0839 -0.2550 -0.0739
 3680W        W 7744   2.525   6.549   3.042  0.1443 -0.0887 -0.4372
 3681W        W 7745   6.356   8.263   0.489 -0.1486  0.1014  0.2758
 3682W        W 7746   2.343   5.487   1.072 -0.3004 -0.2000  0.1086
 3683W        W 7747   1.771   8.609   0.761 -0.2993  0.1011 -0.0937
 3684W        W 7748   6.544   5.175   8.844  0.2541  0.0001 -0.0675
 3685W        W 7749   9.661   6.382   0.577 -0.1522 -0.1077  0.0280
 3686W        W 7750   1.455   9.914  11.433  0.2616 -0.0457 -0.1681
 3687W        W 7751   7.959   2.859  10.510 -0.0594 -0.1141 -0.2926
 3688W        W 7752   5.658   6.966   4.218 -0.2209 -0.0343  0.0359
 3689W        W 7753   0.422  10.157   1.239 -0.0154  0.2145 -0.2886
 3690W        W 7754   3.416   6.310  11.274 -0.0607  0.0959  0.1334
 3691W        W 7755   2.989   9.556   7.592  0.0743 -0.1238  0.0100
 3692W        W 7756   8.875   1.970   3.872  0.1206  0.0354  0.2856
 3693W        W 7757   5.731   2.689   9.859  0.4885 -0.2160  0.0261
 3694W        W 7758   7.449   8.316   2.813 -0.0070 -0.0403 -0.2235
 3695W        W 7759  10.067   0.034   8.710  0.0052  0.1230 -0.1613
 3696W        W 7760   0.745   8.727   0.461 -0.1042  0.0342 -0.0705
 3697W        W 7761   1.168   7.084   2.469  0.2311 -0.0761 -0.2348
 3698W        W 7762   2.483   1.000  10.603  0.1068  0.2749  0.1925
 3699W        W 7763   6.415   6.290  10.325  0.2436  0.0634  0.0048
 3700W        W 7764   3.537   0.423   7.195 -0.2978 -0.2255  0.0463
 3701W        W 7765   7.194   2.038   9.779  0.2955  0.1733  0.1419
 3702W        W 7766   4.787   1.132   9.772 -0.1212 -0.0414 -0.1772
 3703W        W 7767   6.343   9.369   2.413 -0.0605 -0.1824  0.0686
 3704W        W 7768   1.092   9.037   2.210 -0.1684  0.1236 -0.0266
 3705W        W 7769   7.322  10.339   1.084  0.1017  0.0641 -0.2181
 3706W        W 7770   3.857   2.178   1.982  0.1202 -0.0717  0.1564
 3707W        W 7771   0.907   1.117   8.822  0.0011  0.0855  0.0125
 3708W        W 7772   8.720   5.891   9.431 -0.1245 -0.0431 -0.3079
 3709W        W 7773   1.640   7.145   0.358 -0.1113 -0.1881 -0.1218
 3710W        W 7774   1.411   3.482   2.502 -0.0520  0.1308 -0.0950
 3711W        W 7775   3.559   6.414   3.614  0.1371 -0.2944  0.0829
 3712W        W 7776   0.123   5.802   1.014 -0.1512 -0.1778 -0.4019
 3713W        W 7777   8.187   1.681  10.307  0.0627 -0.1210  0.1114
 3714W        W 7778   6.549   6.712   3.253 -0.1809 -0.0209 -0.2947
 3715W        W 7779   2.347   7.304  10.714 -0.1212  0.1955  0.1377
 3716W        W 7780   5.887   8.741   9.114  0.3007 -0.0760 -0.4031
 3717W        W 7781   6.755   9.457   2.840 -0.1022 -0.3260 -0.2119
 3718W        W 7782   6.133   9.707   2.932 -0.1768  0.0346 -0.0992
 3719W        W 7783   3.224   1.752  10.460 -0.0784  0.0507  0.1140
 3720W        W 7784   9.014   5.057   8.932  0.2464 -0.0947 -0.0389
 3721W        W 7785   9.086   3.351   4.120  0.2200  0.3753 -0.3277
 3722W        W 7786   7.530   0.082   8.639  0.3024  0.0530  0.2347
 3723W        W 7787   3.998   3.451   0.192  0.1363  0.0147 -0.3214
 3724W        W 7788   2.945   2.231   3.209  0.1059  0.1980  0.0496
 3725W        W 7789   9.601   5.614   1.357  0.1853 -0.1632  0.0052
 3726W        W 7790   0.784   9.880  10.174  0.1106 -0.1453 -0.0988
 3727W        W 7791   9.824   0.347   3.008  0.1748  0.0196 -0.0885
 3728W        W 7792   1.114   4.462   0.427  0.0357 -0.2709  0.2413
 3729W        W 7793   0.537   4.904   7.735  0.5602 -0.2875  0.0224
 3730W        W 7794   3.030   4.550   1.123 -0.0672 -0.0018  0.2896
 3731W        W 7795   2.716   8.160   8.800 -0.0139 -0.0034 -0.0902
 3732W        W 7796   4.600   6.925  10.731  0.0095 -0.0253  0.0084
 3733W        W 7797   5.888   1.343   7.988 -0.0040  0.4495  0.2530
 3734W        W 7798   8.696  10.202   2.756 -0.1835 -0.0526 -0.0840
 3735W        W 7799   7.118   6.677  10.192 -0.2210 -0.0181  0.3575
 3736W        W 7800   8.981   5.256   8.167 -0.0767  0.2577  0.1378
 3737W        W 7801   0.941   0.543   9.681 -0.0734  0.0873  0.1648
 3738W        W 7802   1.881   3.126  10.339  0.0206  0.4049 -0.1342
 3739W        W 7803   8.819   9.452   3.714 -0.1235  0.1759 -0.3208
 3740W        W 7804   9.598   5.339   3.310  0.1753 -0.3379 -0.1440
 3741W        W 7805   3.239   4.299   1.551 -0.1929  0.0542  0.2749
 3742W        W 7806   1.598   4.492   9.766  0.2202 -0.1330  0.1560
 3743W        W 7807   9.320   7.719   9.505 -0.0394  0.0075  0.2806
 3744W        W 7808   5.094   8.075   2.773 -0.1359 -0.0613  0.1566
 3745W        W 7809   9.522   5.943   3.664  0.1153  0.3092  0.3522
 3746W        W 7810   7.064   1.270  10.573  0.2358  0.0532  0.0939
 3747W        W 7811   2.246   2.810   8.064 -0.1482 -0.1362  0.0310
 3748W        W 7812   6.344   8.399   1.039  0.1815 -0.1531  0.1635
 3749W        W 7813   7.194   4.499  10.751 -0.2682  0.4144  0.1777
 3750W        W 7814   5.243   3.595   1.183 -0.2233 -0.2537  0.0325
 3751W        W 7815   0.619   1.535   7.298 -0.2313 -0.1601  0.0603
 3752W        W 7816   8.061   8.869   2.162 -0.1601 -0.1730 -0.3951
 3753W        W 7817   5.616   0.924   7.873 -0.0098 -0.2242  0.1760
 3754W        W 7818   5.648   0.884   1.281  0.0093  0.0605  0.1126
 3755W        W 7819   6.238   7.846  11.146 -0.0187  0.1007  0.1218
 3756W        W 7820   2.609   8.372   4.118  0.1178 -0.2833 -0.2951
 3757W        W 7821   1.905   0.837   0.640 -0.1060  0.0689  0.0423
 3758W        W 7822   9.674   2.497  10.855  0.0986 -0.1156  0.0779
 3759W        W 7823   5.600   3.414   0.317 -0.0824  0.0135  0.1381
 3760W        W 7824   3.795  10.464  11.405 -0.1240  0.0951  0.1403
 3761W        W 7825   6.950   9.826   0.518 -0.3197 -0.0102 -0.0062
 3762W        W 7826   9.362   5.027   0.086 -0.0923  0.1381 -0.1716
 3763W        W 7827   2.322   8.130  11.318 -0.0383 -0.2092 -0.2341
 3764W        W 7828   5.491   0.988   0.773  0.2656  0.4122  0.0525
 3765W        W 7829   8.719   8.782   3.228 -0.0430  0.0941 -0.1371
 3766W        W 7830   0.790   6.267   1.701  0.3391  0.0653 -0.2640
 3767W        W 7831   8.660   3.347   8.534 -0.1947  0.2558 -0.0486
 3768W        W 7832   0.280   8.674  11.290 -0.0181 -0.2386 -0.0277
 3769W        W 7833   7.627   6.907   1.756  0.0465 -0.0263  0.1473
 3770W        W 7834   4.005   9.087   0.353 -0.2030  0.1425 -0.2709
 3771W        W 7835   3.987   5.482   9.720  0.0308  0.1179 -0.2570
 3772W        W 7836   1.737   7.523  10.960 -0.1337 -0.1229 -0.4640
 3773W        W 7837   2.122   3.821   9.900  0.0522  0.0467 -0.0517
 3774W        W 7838   9.788   6.961   4.077 -0.2786  0.3308 -0.0775
 3775W        W 7839   0.150   9.813   3.569  0.0464 -0.3167  0.2271
 3776W        W 7840   6.267   8.895   7.327 -0.1757 -0.0739  0.0610
 3777W        W 7841   7.736   3.453   8.529  0.3863  0.1837  0.1467
 3778W        W 7842   3.893   4.469   9.164 -0.1557  0.2431 -0.2089
 3779W        W 7843   7.850   6.469  10.546 -0.1098  0.0514  0.1817
 3780W        W 7844   4.459   0.002  10.217  0.3046 -0.2159 -0.2019
 3781W        W 7845   3.339   9.994   8.760  0.0038 -0.1434  0.2191
 3782W        W 7846   4.621   8.843   0.687 -0.1191  0.3155 -0.1000
 3783W        W 7847   1.341   3.345   3.269  0.0135 -0.0659 -0.0980
 3784W        W 7848   3.632   6.384   4.176  0.0473 -0.0740  0.2968
 3785W        W 7849   6.624   4.383  11.414  0.0198 -0.0544 -0.2237
 3786W        W 7850   4.311   2.995   3.887 -0.1521 -0.1645 -0.0013
 3787W        W 7851   5.402   1.672   2.181 -0.0798  0.1574  0.0677
 3788W        W 7852   9.570   6.044   9.947 -0.0238 -0.0979  0.2532
 3789W        W 7853   3.768  10.018  11.149 -0.0386  0.0274  0.3435
 3790W        W 7854   9.215   5.496   0.800  0.2381 -0.1505 -0.4183
 3791W        W 7855  10.500   0.190   0.865 -0.1026 -0.1895 -0.0284
 3792W        W 7856   7.892   6.723   3.573  0.0147  0.0973  0.4641
 3793W        W 7857   3.021   4.657   3.149  0.0376  0.0803 -0.4186
 3794W        W 7858   6.754   2.184   1.157  0.0300 -0.0315 -0.0349
 3795W        W 7859   6.713   9.111  10.648 -0.0189  0.1242 -0.2410
 3796W        W 7860   7.809  10.528   7.687 -0.0592 -0.3669  0.1031
 3797W        W 7861   6.140   6.248  11.289 -0.0472 -0.1103 -0.1795
 3798W        W 7862   8.338   8.565   0.314 -0.1275  0.1230 -0.2063
 3799W        W 7863   3.138   9.328   2.408  0.0800  0.1391  0.0230
 3800W        W 7864   9.801  10.358   2.370  0.2448 -0.0704  0.0391
 3801W        W 7865   2.218   3.497  10.342 -0.2421  0.0645 -0.0160
 3802W        W 7866   1.283   7.411  11.044 -0.0134 -0.1332  0.1090
 3803W        W 7867   2.219   8.718   3.261  0.2515  0.1682  0.0109
 3804W        W 7868   5.179   7.997   7.730 -0.2517  0.0531 -0.0549
 3805W        W 7869   7.435   8.512  10.186  0.2214  0.0055 -0.0466
 3806W        W 7870   2.671   3.510   1.008  0.1084 -0.0081 -0.2044
 3807W        W 7871   6.549   4.067  10.361 -0.1462  0.0737  0.1842
 3808W        W 7872   0.696   0.724   7.645  0.4235 -0.4837  0.0756
 3809W        W 7873   8.746   5.382   9.151  0.4094  0.0272  0.0374
 3810W        W 7874   5.457   4.174  10.180  0.0445  0.1463  0.1879
 3811W        W 7875   3.704   8.139   2.037  0.0899  0.2407 -0.1126
 3812W        W 7876   7.516   1.818   2.947 -0.2255  0.1150 -0.0200
 3813W        W 7877   3.759   6.081  10.961 -0.0452 -0.0267 -0.0616
 3814W        W 7878   3.980   8.224   3.459 -0.2047 -0.3774  0.1664
 3815W        W 7879  10.391   5.204   2.518  0.0789 -0.0059  0.2577
 3816W        W 7880   7.215   7.340   0.463  0.0335 -0.0156 -0.0067
 3817W        W 7881   9.049   1.829  11.548 -0.0477  0.0056  0.0677
 3818W        W 7882   5.342   0.862   9.067 -0.1842  0.4189 -0.0714
 3819W        W 7883   7.486   2.658   8.871 -0.3118  0.1968 -0.1608
 3820W        W 7884   4.682   7.607   0.263  0.2184  0.0587 -0.0430
 3821W        W 7885   1.799   9.914   1.562 -0.0566 -0.2813  0.1088
 3822W        W 7886   0.597   4.799   9.101  0.0539  0.3526  0.1060
 3823W        W 7887   4.388   7.652   9.710  0.1758  0.0628 -0.3560
 3824W        W 7888   2.562   5.728   0.482 -0.2138 -0.0757  0.4780
 3825W        W 7889   1.669   6.030   1.796 -0.0030 -0.2129 -0.1796
 3826W        W 7890   6.095   8.284   9.244 -0.2077 -0.0988  0.0489
 3827W        W 7891   4.912   8.107   3.273 -0.1527 -0.0305 -0.0155
 3828W        W 7892   6.600   0.101   2.684  0.1371 -0.3533 -0.1721
 3829W        W 7893   8.847   4.663   2.234 -0.0374 -0.2224 -0.2468
 3830W        W 7894   9.842   7.346  11.321  0.3742 -0.1330  0.4222
 3831W        W 7895   2.735   4.087  11.424  0.0595 -0.2135 -0.0764
 3832W        W 7896   1.361   6.889   1.634 -0.0171 -0.0408  0.2710
 3833W        W 7897   3.821   0.993   7.836 -0.4593  0.1516 -0.0845
 3834W        W 7898   2.734   9.776  10.895  0.0435  0.1612 -0.0715
 3835W        W 7899   6.152   2.362   9.015  0.0522  0.0634 -0.4545
 3836W        W 7900   1.362   1.967   9.339 -0.1486 -0.0109  0.0828
 3837W        W 7901   1.841   3.996   1.835  0.1137 -0.0229  0.4243
 3838W        W 7902   9.827   0.868   9.884  0.1407 -0.0281 -0.0291
 3839W        W 7903   1.223   8.525   0.696 -0.0777  0.0007  0.2326
 3840W        W 7904   5.728   8.616   8.620  0.1522  0.1216  0.2937
 3841W        W 7905   0.801   2.867   7.340 -0.1080 -0.0751 -0.2378
 3842W        W 7906   5.657   8.783   7.745  0.0628  0.1354 -0.1242
 3843W        W 7907   8.603   5.556   0.962 -0.3318  0.0928  0.4197
 3844W        W 7908   7.963   4.063  10.703  0.2625  0.3673 -0.1750
 3845W        W 7909   8.527   6.430   1.705 -0.0102  0.0713 -0.0780
 3846W        W 7910   4.053   1.273   2.211 -0.2929  0.2523  0.1254
 3847W        W 7911   2.062   1.853   8.846 -0.0405  0.0871  0.1420
 3848W        W 7912   5.938   7.137   2.126  0.2253 -0.1290  0.1377
 3849W        W 7913   7.195   6.158   2.121  0.1184 -0.3983 -0.1146
 3850W        W 7914  10.464   6.524   9.643 -0.4231  0.4364 -0.2681
 3851W        W 7915   4.387   6.204   1.547  0.2662 -0.3788  0.1427
 3852W        W 7916   3.177  10.266   0.205  0.0704  0.1722 -0.2669
 3853W        W 7917   5.607  10.232   0.380 -0.2865  0.5567  0.0656
 3854W        W 7918   7.499   1.404   9.651  0.3500 -0.0533 -0.0839
 3855W        W 7919   9.320   7.187  10.465  0.2926 -0.5697  0.0634
 3856W        W 7920   0.906   7.753   0.616  0.3680 -0.0068  0.3287
 3857W        W 7921   4.235   2.595   3.337 -0.0811 -0.1950 -0.1396
 3858W        W 7922  10.391   2.275   3.652 -0.5410 -0.0831  0.3697
 3859W        W 7923   0.304   6.912   2.453 -0.3643  0.0546  0.1768
 3860W        W 7924   2.992   2.999  10.307 -0.0498 -0.1492 -0.2541
 3861W        W 7925   3.628   8.994   0.679 -0.0436  0.1430 -0.3388
 3862W        W 7926   9.819   8.924  10.559 -0.2435  0.1227 -0.4586
 3863W        W 7927   6.401   8.869   1.135  0.1261 -0.0117 -0.0934
 3864W        W 7928   8.910   2.041   8.452  0.2103  0.1338  0.2106
 3865W        W 7929  10.584   5.055   1.961 -0.0842  0.0001  0.2110
 3866W        W 7930   7.837   2.694   0.760 -0.1623 -0.1994  0.2119
 3867W        W 7931   3.216   4.656   9.251 -0.4193 -0.5479  0.0450
 3868W        W 7932   1.338   5.575   8.551  0.0131  0.2839  0.2201
 3869W        W 7933   9.096   1.047   3.256 -0.0492  0.0257  0.0097
 3870W        W 7934   3.703   9.536  10.066 -0.0094 -0.1106 -0.0080
 3871W        W 7935   2.106   5.517   2.464 -0.1047  0.0431  0.3297
 3872W        W 7936   4.667   8.344   2.542  0.0529  0.1169  0.0608
 3873W        W 7937   7.487   1.630   8.004 -0.0540 -0.2737  0.0376
 3874W        W 7938   7.564   0.820   9.945 -0.0952  0.3300 -0.2761
 3875W        W 7939   0.775   4.075   0.901 -0.0955 -0.1948 -0.1941
 3876W        W 7940   1.784   4.637   1.781 -0.1313 -0.3361 -0.0275
 3877W        W 7941   5.219   4.966  11.576  0.1188 -0.1469 -0.0954
 3878W        W 7942   0.325   9.395   1.073 -0.0858  0.2513 -0.5055
 3879W        W 7943   5.309   1.229  11.520  0.1647  0.0715  0.2160
 3880W        W 7944   6.206   5.083   9.449  0.2594  0.2415  0.2076
 3881W        W 7945   6.385   4.626   9.195  0.0770 -0.1996 -0.0324
 3882W        W 7946   9.692   1.788   3.237 -0.1619  0.1233 -0.2390
 3883W        W 7947   7.665   8.256   0.953 -0.0737  0.1338  0.1525
 3884W        W 7948   4.592   0.243   3.213 -0.4320 -0.0398 -0.4866
 3885W        W 7949   1.072   4.070  10.143 -0.2303  0.1586  0.1275
 3886W        W 7950   4.647   1.858   3.394  0.0394  0.2854 -0.5345
 3887W        W 7951   3.536   3.467   9.556  0.0853 -0.4861 -0.2705
 3888W        W 7952   0.423   2.750  10.695  0.0177 -0.1176 -0.0622
 3889W        W 7953   8.597   9.635   0.332 -0.3390  0.0533 -0.0383
 3890W        W 7954   7.536  10.086   9.555 -0.0340 -0.1660 -0.0800
 3891W        W 7955   1.043   4.538   0.946 -0.0338  0.0847  0.1801
 3892W        W 7956   0.485   5.368   2.980  0.0098 -0.1512 -0.0926
 3893W        W 7957   0.324   0.586   0.127  0.3493  0.0461  0.1600
 3894W        W 7958   5.419   3.295   8.341  0.0446 -0.0631 -0.1302
 3895W        W 7959   8.808   6.063   1.537 -0.0892  0.1122 -0.1132
 3896W        W 7960   7.155   6.576   1.715 -0.0317  0.1823  0.0535
 3897W        W 7961   9.749   1.478   4.033 -0.0213 -0.4057 -0.0766
 3898W        W 7962   8.947   1.052  10.445  0.1684 -0.1759  0.3225
 3899W        W 7963   9.486   7.324   9.112  0.4187 -0.1315 -0.0258
 3900W        W 7964   2.663  10.312  10.308  0.1937 -0.1368  0.1703
 3901W        W 7965   1.188   8.523   9.713 -0.0729  0.0665  0.1169
 3902W        W 7966   6.205   8.789   2.461 -0.1925  0.2834 -0.1290
 3903W        W 7967   4.525   5.448  10.129 -0.2105 -0.1208 -0.1184
 3904W        W 7968   5.133  10.133   0.629 -0.0063 -0.0371 -0.2040
 3905W        W 7969   5.936   7.662  11.482  0.3116  0.2963 -0.1076
 3906W        W 7970   8.780   9.401   9.463 -0.4164 -0.0288 -0.2536
 3907W        W 7971   7.783   1.536  11.187  0.2430  0.0840 -0.6697
 3908W        W 7972   0.871   7.701   3.660 -0.0751 -0.1053  0.1599
 3909W        W 7973   2.736   1.216   9.313  0.2736  0.2021  0.0719
 3910W        W 7974   6.839   6.893   0.379  0.0529  0.1193  0.1479
 3911W        W 7975   2.261   8.317   2.495 -0.1656 -0.0924  0.5442
 3912W        W 7976   7.126   5.190   1.851  0.0442  0.3161  0.1598
 3913W        W 7977   4.332   1.691   8.907 -0.2461 -0.2491  0.0489
 3914W        W 7978   3.283   3.766  10.698 -0.0403 -0.1381 -0.1466
 3915W        W 7979   9.616   5.957   1.736 -0.3754  0.3199  0.0346
 3916W        W 7980   9.268   7.714  10.302  0.2395  0.1252 -0.1913
 3917W        W 7981   7.019   0.475   7.380  0.0227 -0.0344 -0.1743
 3918W        W 7982   4.092   1.485   8.525 -0.0016 -0.1665 -0.3588
 3919W        W 7983   3.582   0.601   9.704 -0.2284 -0.2297  0.1438
 3920W        W 7984   1.393   0.548   7.897  0.3055  0.2668 -0.1287
 3921W        W 7985   7.799   0.952   8.644  0.0237 -0.2771 -0.0236
 3922W        W 7986   2.925   6.756   0.970 -0.0575  0.1014  0.0184
 3923W        W 7987  10.385   7.232   7.831  0.0046  0.2387 -0.2750
 3924W        W 7988   4.050   3.097   9.802 -0.1971  0.0691  0.0756
 3925W        W 7989   8.932   9.961   1.549  0.4227 -0.2127 -0.1250
 3926W        W 7990   3.987   0.452   9.150 -0.0008  0.1079 -0.2395
 3927W        W 7991   6.829   1.886   4.081  0.1627  0.0202 -0.2489
 3928W        W 7992   3.172   5.240   7.935 -0.2238 -0.5258  0.1032
 3929W        W 7993   1.594   4.309   2.105 -0.0882 -0.3008  0.1557
 3930W        W 7994   3.881   5.221   8.770 -0.1176  0.0145 -0.2829
 3931W        W 7995   6.926   1.881   0.409  0.0324 -0.1802 -0.1615
 3932W        W 7996   8.346   6.343  10.056 -0.1517 -0.2017 -0.2035
 3933W        W 7997   0.290   5.800   3.238 -0.3284 -0.0788  0.4014
 3934W        W 7998   1.763   3.556  10.125  0.2781  0.1717  0.1412
 3935W        W 7999   6.543   0.730   7.396  0.0307  0.1198  0.1710
 3936W        W 8000   9.648  10.076   2.770  0.2899  0.1647 -0.1147
 3937W        W 8001  10.108   6.512  10.978  0.4106 -0.3339 -0.2348
 3938W        W 8002   7.386   1.402   3.308  0.0373  0.2723 -0.1379
 3939W        W 8003   7.012   2.465   0.115 -0.0565 -0.0442 -0.3076
 3940W        W 8004   5.019  10.339   2.387 -0.2634 -0.1364 -0.1879
 3941W        W 8005   5.590   9.100   8.701 -0.0602  0.0045  0.3007
 3942W        W 8006   1.713   8.850   3.008 -0.2151 -0.0207 -0.3097
 3943W        W 8007   5.546   8.266   1.531  0.1756 -0.0989 -0.4616
 3944W        W 8008   7.526   3.922   2.826 -0.2326 -0.2985  0.0205
 3945W        W 8009   1.042   7.157   9.714  0.0742 -0.0898 -0.1035
 3946W        W 8010   8.939   3.659   1.067  0.0129 -0.1322 -0.0861
 3947W        W 8011   6.166   3.425   8.675 -0.4070 -0.1157 -0.1698
 3948W        W 8012   8.444   9.812   4.157 -0.0389  0.0707 -0.0549
 3949W        W 8013   9.738   2.312   0.852 -0.0968 -0.0584 -0.3159
 3950W        W 8014   8.475   5.132   9.849 -0.4816  0.1090 -0.3945
 3951W        W 8015   0.940   6.483   7.652 -0.1501 -0.0618  0.3956
 3952W        W 8016   5.333   3.018   2.874  0.0694 -0.2341 -0.0091
 3953W        W 8017   8.835   7.398  10.293  0.0147 -0.3093  0.0605
 3954W        W 8018   3.442   7.573  11.190 -0.0447  0.0198  0.0017
 3955W        W 8019   3.029   0.883  10.578 -0.0778 -0.3927  0.0634
 3956W        W 8020   1.221   1.564  11.553 -0.1039 -0.2670  0.2141
 3957W        W 8021   1.199   9.492   2.056  0.1813 -0.0230  0.1495
 3958W        W 8022   4.592   6.881  10.106  0.1141 -0.1537 -0.3728
 3959W        W 8023   6.370   8.790   8.230 -0.1224 -0.2769 -0.0610
 3960W        W 8024   7.958   7.261  11.255 -0.0953 -0.0240 -0.0952
 3961W        W 8025   5.258   5.506  10.688 -0.1160 -0.0358 -0.4874
 3962W        W 8026   2.585   1.834   1.113  0.0199  0.1767  0.1514
 3963W        W 8027   1.590   4.574  11.508 -0.1379  0.1332 -0.0386
 3964W        W 8028   4.690   8.147   9.588  0.1581 -0.2491 -0.1855
 3965W        W 8029   1.558   5.303   7.979 -0.0102 -0.1129  0.2153
 3966W        W 8030   7.001   8.357   9.263  0.1133 -0.0135  0.0050
 3967W        W 8031   0.155   7.585   8.852 -0.4183  0.0403  0.0965
 3968W        W 8032   0.003   6.338   2.382 -0.2884  0.2101 -0.0352
 3969W        W 8033   3.532   7.799   7.885 -0.0016  0.2470 -0.2199
 3970W        W 8034   6.936   4.090   1.157 -0.1393 -0.3201  0.1867
 3971W        W 8035   8.064   0.087   0.884  0.0257  0.0334  0.2606
 3972W        W 8036   7.213   2.053   8.193 -0.4189  0.0786  0.1897
 3973W        W 8037  10.181   9.600   0.348 -0.0930  0.3564  0.2542
 3974W        W 8038  10.070   8.070   0.251  0.1262 -0.1514 -0.0411
 3975W        W 8039   8.820   5.732   0.481  0.0552  0.2107  0.2855
 3976W        W 8040   7.027   1.081   9.645  0.1861 -0.2685 -0.0828
 3977W        W 8041   2.123   4.289   1.515 -0.0071  0.0223 -0.0264
 3978W        W 8042   2.522   5.849   9.259  0.2866 -0.2508  0.0493
 3979W        W 8043   9.771   4.158   8.270  0.2095 -0.1548  0.3055
 3980W        W 8044  10.362   7.454   1.840 -0.0321 -0.1823 -0.2183
 3981W        W 8045   3.008   7.943  11.083  0.1213 -0.0456  0.2794
 3982W        W 8046   2.482   6.391  10.970 -0.3020  0.2337 -0.1559
 3983W        W 8047   8.314   1.187  10.152  0.0835 -0.0480 -0.1176
 3984W        W 8048   1.920   5.475   3.454  0.1072  0.0894 -0.0722
 3985W        W 8049   0.799   1.498   1.803  0.2881 -0.0472 -0.0067
 3986W        W 8050   4.275   7.864  11.327  0.2139 -0.1572 -0.2083
 3987W        W 8051   8.561   0.822   8.292 -0.2444  0.6002 -0.0567
 3988W        W 8052   4.276   1.570   1.785 -0.0867  0.0213  0.0100
 3989W        W 8053   7.813   3.862   0.053  0.0714 -0.0587 -0.2907
 3990W        W 8054   3.173   7.426   8.709 -0.1932 -0.0746 -0.0797
 3991W        W 8055  10.083   8.914   8.481 -0.2864  0.2254 -0.0064
 3992W        W 8056   5.835   4.793   0.008  0.1325  0.3894  0.0697
 3993W        W 8057   4.901   3.402  10.162 -0.1296 -0.0008 -0.1245
 3994W        W 8058   2.067   9.401   0.297  0.1234 -0.0304  0.0185
 3995W        W 8059   8.883   9.160  11.025 -0.1648 -0.0762  0.0269
 3996W        W 8060   6.421   9.791   0.763  0.0084  0.3152  0.1530
 3997W        W 8061   8.850   1.019  10.961  0.0338  0.2730 -0.1833
 3998W        W 8062   1.301   1.020  10.949 -0.0784  0.0596 -0.1105
 3999W        W 8063   9.866   9.225   0.214 -0.0545 -0.2827  0.0795
 4000W        W 8064   2.489   9.307   8.278  0.1179 -0.1076  0.0743
 4001W        W 8065   7.199   5.135   9.407  0.1115 -0.1039  0.3499
 4002W        W 8066   6.507   3.515  11.346 -0.2703  0.1474 -0.0737
 4003W        W 8067   7.560   9.502  10.551 -0.1995  0.0413  0.0134
 4004W        W 8068   1.990   7.864   9.098  0.0680  0.0375  0.4548
 4005W        W 8069   3.258   9.091   0.949 -0.0366 -0.1371  0.1648
 4006W        W 8070   8.150   8.995   3.368  0.0474  0.1348 -0.0251
 4007W        W 8071  10.136   6.638   2.735 -0.2211 -0.1569 -0.0236
 4008W        W 8072   6.475   5.120   0.225  0.1558 -0.0406 -0.0373
 4009W        W 8073   9.359   8.768   1.881  0.1419  0.1362 -0.3284
 4010W        W 8074   1.963  10.359   2.794  0.0534 -0.1297  0.4315
 4011W        W 8075   0.743   5.935   4.474  0.0877  0.1104  0.1180
 4012W        W 8076   2.235   3.805  11.386  0.1993  0.0813 -0.3634
 4013W        W 8077   2.480   8.645  10.378  0.0389 -0.0323 -0.0848
 4014W        W 8078   2.015  10.174   1.908 -0.1775  0.1303 -0.1922
 4015W        W 8079   7.402   6.064   9.084 -0.0170  0.1079  0.0385
 4016W        W 8080   0.775   9.718   1.858 -0.2189 -0.0276 -0.0023
 4017W        W 8081   8.626   8.252   8.974 -0.1096  0.1815 -0.0230
 4018W        W 8082   3.033   8.864  10.417 -0.2812  0.1715 -0.0601
 4019W        W 8083   7.740   7.984   3.220 -0.3082 -0.0881  0.2171
 4020W        W 8084   8.216   5.288   1.257  0.2486 -0.2217 -0.0392
 4021W        W 8085   4.089   5.775   1.582 -0.0277 -0.1562  0.3115
 4022W        W 8086   1.060   9.247  10.151 -0.2735  0.2434  0.0224
 4023W        W 8087   8.238   9.841   1.695 -0.4003  0.0145  0.2433
 4024W        W 8088   1.809   0.038   1.889 -0.0280 -0.0129  0.0149
 4025W        W 8089   1.395   2.853   9.500 -0.2739  0.2619  0.3675
 4026W        W 8090   6.691   0.684   8.794 -0.0996 -0.2570 -0.0971
 4027W        W 8091  10.601   5.852   0.544  0.0046 -0.0873  0.2143
 4028W        W 8092   6.877   2.573   1.616 -0.4244  0.3850  0.2076
 4029W        W 8093   8.825   8.714   2.207 -0.1023  0.0967  0.3715
 4030W        W 8094   5.798   5.570   3.398 -0.2010 -0.0821 -0.0871
 4031W        W 8095   4.969   0.370   3.500  0.3930 -0.1766  0.1973
 4032W        W 8096   2.175   9.166   3.011  0.2311  0.0248 -0.2630
 4033W        W 8097   2.217   2.498   0.254 -0.2040 -0.1160 -0.1912
 4034W        W 8098   3.552   2.449  10.540 -0.1959  0.1049 -0.0630
 4035W        W 8099  10.585   6.769   2.902 -0.0200  0.1844  0.1328
 4036W        W 8100   5.829   4.222   9.217  0.1997  0.0683 -0.3232
 4037W        W 8101   8.962  10.239  11.195  0.0502 -0.0987 -0.1427
 4038W        W 8102   3.644   0.895   8.949  0.2274 -0.3652  0.2643
 4039W        W 8103   1.560   2.600   3.202 -0.0560  0.2004 -0.0856
 4040W        W 8104   8.972   1.446   3.615  0.0828  0.0948  0.0775
 4041W        W 8105   9.962   8.204   2.672 -0.3153 -0.0553  0.0066
 4042W        W 8106   4.402   9.108  11.524 -0.3569 -0.1851  0.0503
 4043W        W 8107  10.032   4.308  10.327 -0.3435 -0.2637  0.2411
 4044W        W 8108   8.356   2.276  11.074  0.0793 -0.1058 -0.1858
 4045W        W 8109   2.843   6.096  11.227  0.0061 -0.0481  0.1791
 4046W        W 8110   4.694   2.818  11.143 -0.0415 -0.2675  0.0105
 4047W        W 8111   4.891   6.120   2.385 -0.0259  0.1623  0.0883
 4048W        W 8112   7.624   4.352   0.111 -0.1099  0.0663  0.0738
 4049W        W 8113   2.305   9.834  11.189  0.1617  0.1200 -0.0815
 4050W        W 8114   9.488   9.075  11.014 -0.1596 -0.1715  0.0904
 4051W        W 8115   1.511   0.281   3.587 -0.0827 -0.0939  0.0949
 4052W        W 8116   8.357   3.896   0.123  0.1421  0.0307  0.2460
 4053W        W 8117   6.646   7.950  10.830 -0.0945  0.0161  0.0737
 4054W        W 8118   0.643   6.977   0.765 -0.1040 -0.1298  0.1965
 4055W        W 8119   4.050   4.036   1.593 -0.0053 -0.0230 -0.1137
 4056W        W 8120   4.509   1.150   3.374  0.1113 -0.2662  0.1205
 4057W        W 8121   7.467  10.339   8.949  0.3254 -0.1724  0.0853
 4058W        W 8122   0.694   0.373   3.256 -0.2196  0.0524 -0.0298
 4059W        W 8123   8.395   7.922   3.360  0.1959  0.1031 -0.1443
 4060W        W 8124   2.030   4.022   9.090  0.1425  0.1046  0.0954
 4061W        W 8125   2.327   6.962   3.291  0.3925 -0.0967  0.3177
 4062W        W 8126   8.794   8.282   0.032  0.0822  0.0601  0.1586
 4063W        W 8127   9.160   5.369   3.012 -0.0406 -0.0519  0.4550
 4064W        W 8128   1.730   0.212   0.139 -0.1946 -0.3332 -0.0216
 4065W        W 8129   0.417   6.088   9.917  0.5639  0.1498 -0.3181
 4066W        W 8130   6.698   4.168   3.905 -0.0154  0.0159 -0.2028
 4067W        W 8131   9.278   9.075   1.293  0.2190 -0.2175  0.1054
 4068W        W 8132   4.021   9.617   1.981 -0.2529 -0.0394  0.2221
 4069W        W 8133   0.980   8.088  11.265  0.2718  0.2990  0.1194
 4070W        W 8134   9.248   0.057  10.325  0.2491 -0.0331  0.0886
 4071W        W 8135   3.381   3.237   9.069  0.4671 -0.2905 -0.0829
 4072W        W 8136   5.655   8.946   0.544  0.1425 -0.4158 -0.0692
 4073W        W 8137   5.619   5.858   0.795 -0.1618 -0.0785 -0.0540
 4074W        W 8138   9.725   0.684   9.328  0.1123  0.0193  0.0827
 4075W        W 8139  10.351   8.946  10.716 -0.1217 -0.0459  0.0080
 4076W        W 8140   0.855   6.070   9.696 -0.0470  0.4137 -0.0528
 4077W        W 8141   1.858   2.183  10.530 -0.3634  0.1416 -0.4810
 4078W        W 8142   6.875   2.743   9.534 -0.1452 -0.0565  0.3424
 4079W        W 8143   1.541  10.011  10.171 -0.0606 -0.0065  0.0038
 4080W        W 8144   0.536   0.987   8.004 -0.0100  0.1567 -0.3495
 4081W        W 8145   2.976   7.627  11.432  0.0558 -0.2334 -0.0600
 4082W        W 8146   8.105   4.368   0.333 -0.0346 -0.1718 -0.0270
 4083W        W 8147   8.134   4.377   1.770  0.2011 -0.0712 -0.2111
 4084W        W 8148   2.059   1.364  10.748 -0.1662 -0.0989 -0.0107
 4085W        W 8149   8.454   8.912  11.232 -0.0197  0.0718 -0.1603
 4086W        W 8150   5.916   8.988  10.566  0.0184  0.0153  0.0209
 4087W        W 8151   7.600   2.271   2.083  0.1214  0.0846 -0.0041
 4088W        W 8152   1.359   1.432   0.896  0.0786 -0.2155  0.0206
 4089W        W 8153   0.462   8.884   2.256 -0.0433 -0.2641 -0.1262
 4090W        W 8154   0.432   3.164   0.409 -0.1683 -0.2140  0.0398
 4091W        W 8155   3.857   7.069   2.924  0.0445 -0.0486  0.1368
 4092W        W 8156  10.236   7.119   3.532 -0.1254 -0.1018  0.3425
 4093W        W 8157   6.502   2.133  10.023 -0.5142 -0.1092  0.1224
 4094W        W 8158   3.811  10.396   0.780  0.2003 -0.1832 -0.1164
 4095W        W 8159   2.833   0.676   0.702  0.0401  0.1624 -0.3130
 4096W        W 8160   5.358  10.493   9.944 -0.0020  0.3909  0.1537
 4097W        W 8161   3.831   5.999   9.140 -0.2964  0.0437 -0.1220
 4098W        W 8162   0.809   3.472   1.662  0.2425 -0.0990 -0.2096
 4099W        W 8163   6.739   6.878   2.045 -0.0830  0.0289  0.3768
 4100W        W 8164   0.672   5.835  11.042 -0.1031  0.0987  0.1857
 4101W        W 8165  10.006   4.143   9.732 -0.1605 -0.0162 -0.0350
 4102W        W 8166   4.097   6.671   0.187 -0.1422  0.3692 -0.2023
 4103W        W 8167   3.946   2.289   8.103 -0.2643  0.1846 -0.0417
 4104W        W 8168   0.265   7.087   1.093 -0.2336  0.1227 -0.2321
 4105W        W 8169   6.297   8.052   0.007  0.0943  0.2689  0.1397
 4106W        W 8170   0.382   2.027   3.469  0.0695  0.0563  0.0565
 4107W        W 8171   8.264  10.501   2.848  0.0466 -0.2497  0.0489
 4108W        W 8172   3.510   0.998  10.714  0.0632 -0.0049  0.0993
 4109W        W 8173   8.867   0.264   3.324 -0.0492  0.1442 -0.1957
 4110W        W 8174   5.893   8.513   1.782  0.0007  0.1161 -0.0524
 4111W        W 8175   4.531   0.663   8.463  0.1233 -0.1349 -0.1107
 4112W        W 8176   5.064   9.285   1.108  0.0402 -0.2349  0.1286
 4113W        W 8177   4.776  10.164   1.090  0.0849  0.1435 -0.0587
 4114W        W 8178   5.667   7.660  10.832 -0.1938 -0.0315 -0.3926
 4115W        W 8179   2.016   6.291   8.818  0.0640  0.1496 -0.0334
 4116W        W 8180   1.629   6.404   9.162 -0.1653 -0.0733  0.2285
 4117W        W 8181   6.245   0.883   8.060 -0.1187  0.2908  0.0139
 4118W        W 8182   1.060  10.190   2.537  0.2325  0.4347 -0.0026
 4119W        W 8183   0.718   5.662   9.419  0.4085 -0.0162  0.0955
 4120W        W 8184   7.373   0.763   1.279  0.2289 -0.1160 -0.3158
 4121W        W 8185   3.774   0.863   8.276  0.0472  0.1102 -0.0553
 4122W        W 8186   2.852   1.042   7.917  0.1351 -0.0243 -0.0961
 4123W        W 8187   0.550   0.245   9.917  0.0345 -0.4084  0.1294
 4124W        W 8188   0.551   7.193   3.568 -0.0377 -0.1143  0.4975
 4125W        W 8189   8.403   4.467   2.358  0.0202  0.0662 -0.0706
 4126W        W 8190   3.548  10.079   1.435 -0.1211 -0.0418  0.0700
 4127W        W 8191   8.807   8.900   9.514  0.2394  0.0535 -0.2725
 4128W        W 8192   0.755   5.481   3.800 -0.0250  0.0354  0.1543
 4129W        W 8193   2.808   3.257   2.816 -0.2894 -0.3146  0.2650
 4130W        W 8194   8.770  10.148   0.489 -0.3220  0.0492  0.0583
 4131W        W 8195   7.897   8.380   9.537 -0.0080  0.3197  0.1295
 4132W        W 8196   3.271   4.587   0.639 -0.1283  0.4238  0.0946
 4133W        W 8197  10.332  10.204   2.165  0.0900  0.0158 -0.0809
 4134W        W 8198   1.516   3.758   2.975  0.1020  0.0533 -0.0629
 4135W        W 8199   2.633   9.595   1.608 -0.0903  0.0175  0.3854
 4136W        W 8200   0.957  10.266   9.841 -0.3734 -0.0738  0.2998
 4137W        W 8201   3.942   0.808   9.471  0.0741 -0.0321 -0.0035
 4138W        W 8202   7.297   1.170   0.377  0.0268  0.4209  0.1062
 4139W        W 8203   6.574   8.066   1.327  0.1285 -0.1478 -0.2195
 4140W        W 8204   1.045   3.842   3.737 -0.4001  0.5993  0.4384
 4141W        W 8205   3.556   7.362  10.750 -0.1328 -0.1850 -0.3939
 4142W        W 8206   5.911   6.438   9.892 -0.4702  0.0570  0.0604
 4143W        W 8207   0.016   7.608   0.317  0.1339  0.3877 -0.1873
 4144W        W 8208   5.279  10.032  10.250  0.2667  0.0464  0.2321
 4145W        W 8209   6.655   8.542   2.807 -0.2569  0.1833 -0.0462
 4146W        W 8210   1.663   5.353  11.586 -0.3351  0.4148  0.0119
 4147W        W 8211   7.414   3.952   1.798 -0.1453  0.0005 -0.0141
 4148W        W 8212   0.434  10.124   2.907 -0.1325 -0.1289 -0.1705
 4149W        W 8213   3.133   1.110   8.927 -0.1077  0.0620  0.0514
 4150W        W 8214   5.732   2.269   7.817 -0.4417  0.3615  0.0791
 4151W        W 8215   1.959   6.410  11.103 -0.0281  0.0758 -0.2402
 4152W        W 8216   8.521   0.325   2.526  0.2139 -0.4517  0.3203
 4153W        W 8217   9.740   6.797   1.725 -0.1306  0.1550 -0.2597
 4154W        W 8218   4.852   2.286   9.547  0.0137 -0.1436 -0.2842
 4155W        W 8219   9.946   6.171   1.297  0.0167  0.0418 -0.0549
 4156W        W 8220   7.652   3.143   8.949  0.0925 -0.0367  0.1088
 4157W        W 8221   4.367   5.852   1.132 -0.0343 -0.1287 -0.0304
 4158W        W 8222   6.911   5.029   0.618 -0.0017 -0.1271 -0.1648
 4159W        W 8223   8.353   6.145   0.216  0.1657 -0.2712 -0.1393
 4160W        W 8224   7.891   1.546   1.660 -0.3554 -0.0551 -0.4639
 4161W        W 8225  10.089   3.590  10.888  0.0057 -0.0766 -0.2166
 4162W        W 8226   3.229   2.860  11.446  0.0643 -0.2048  0.0590
 4163W        W 8227   3.020   9.187   0.474 -0.0129 -0.1684  0.0449
 4164W        W 8228   5.912   8.867   3.366 -0.1659  0.4070 -0.0763
 4165W        W 8229   5.250   0.212   3.971 -0.2191  0.0785  0.2549
 4166W        W 8230   9.803   6.706  10.578 -0.1177 -0.1751  0.0768
 4167W        W 8231   0.651   4.431   7.562  0.3878 -0.1331  0.0151
 4168W        W 8232   1.192   6.823   9.361 -0.1275 -0.0693  0.0671
 4169W        W 8233   8.256   7.321   1.216 -0.2528 -0.4675 -0.0565
 4170W        W 8234   5.146   0.296   7.515 -0.0983 -0.3217 -0.1269
 4171W        W 8235   1.912   9.603  11.427 -0.0446  0.0803  0.1598
 4172W        W 8236   8.853   5.030   3.070  0.2144  0.2257  0.0346
 4173W        W 8237  10.441   6.249   2.906  0.0092  0.0298  0.2704
 4174W        W 8238   4.551   6.029   2.834 -0.0354 -0.3079 -0.1232
 4175W        W 8239   4.330   9.684  10.425  0.0176 -0.2396 -0.3229
 4176W        W 8240   6.465   1.591   8.800  0.0163 -0.0363 -0.1156
 4177W        W 8241   1.160   2.602   8.561  0.0529 -0.0108 -0.0804
 4178W        W 8242   1.234   0.281   8.335 -0.0529  0.1732 -0.0766
 4179W        W 8243   4.918   0.963   8.255  0.1077 -0.1161 -0.1281
 4180W        W 8244   8.016   3.965   7.948 -0.1254 -0.1351  0.1194
 4181W        W 8245   3.504   2.404   9.556 -0.1453 -0.0335  0.0794
 4182W        W 8246  10.611   8.830   2.348 -0.3062  0.3054 -0.0707
 4183W        W 8247   8.710   6.444   0.847 -0.0267 -0.0789  0.1374
 4184W        W 8248   4.264  10.051   1.067  0.2366  0.3528 -0.3996
 4185W        W 8249   8.249   5.939   2.384  0.0497  0.3693 -0.2069
 4186W        W 8250   5.986   9.536   1.672 -0.1765 -0.2185 -0.0587
 4187W        W 8251   6.446   9.384   1.084 -0.0521 -0.0926 -0.2671
 4188W        W 8252   1.599   9.336   0.151  0.2381  0.0544 -0.0327
 4189W        W 8253   8.051   1.716  10.800 -0.1232 -0.1775 -0.0809
 4190W        W 8254   9.325   8.845   2.902 -0.0500  0.3576 -0.0569
 4191W        W 8255   8.902   0.168  11.302 -0.2070 -0.1456  0.3243
 4192W        W 8256  10.418   2.534  10.105  0.2611 -0.1453 -0.2810
 4193W        W 8257   8.437   5.713   1.429 -0.0766 -0.0385  0.1412
 4194W        W 8258   3.778  10.188   9.669  0.0569 -0.1033  0.1648
 4195W        W 8259   6.875   9.291  11.090 -0.0393 -0.1480  0.1041
 4196W        W 8260   6.129   2.621   3.425  0.3327  0.1649  0.0583
 4197W        W 8261   5.652   5.520   1.891 -0.3122  0.0181 -0.2411
 4198W        W 8262   5.589   3.305   0.868  0.4947 -0.1713 -0.2557
 4199W        W 8263   3.210   7.916   2.366  0.3099  0.2008 -0.1749
 4200W        W 8264   9.066   7.729   0.067 -0.0119  0.0019  0.2064
 4201W        W 8265   6.731   3.948   0.723  0.0951 -0.1858  0.1054
 4202W        W 8266   3.632   9.564  10.926  0.1905 -0.3204  0.3002
 4203W        W 8267   2.846   5.743   2.468  0.0340 -0.2107 -0.1263
 4204W        W 8268   1.027   9.837   9.443 -0.2186  0.3471 -0.0056
 4205W        W 8269   1.641   4.822   8.794  0.3289 -0.0431 -0.0862
 4206W        W 8270   8.986   7.832   0.652  0.3715  0.2756  0.3030
 4207W        W 8271   1.977   9.191   9.778 -0.0728 -0.1845 -0.0490
 4208W        W 8272   4.176   0.671   3.911  0.2566  0.4153 -0.1383
 4209W        W 8273   5.389   1.021   9.784 -0.1863 -0.0425 -0.0332
 4210W        W 8274   9.552   4.551   8.444 -0.1689 -0.1545  0.2595
 4211W        W 8275   5.706   6.047  10.558 -0.1879 -0.0624 -0.0097
 4212W        W 8276   7.493   5.270   2.700 -0.0145  0.3043  0.0210
 4213W        W 8277   0.198   1.525   3.609 -0.2571 -0.0062  0.0433
 4214W        W 8278   0.255   3.532   3.443 -0.1855 -0.1447 -0.0463
 4215W        W 8279   0.704   0.857   3.415  0.1336 -0.1098  0.0723
 4216W        W 8280   4.346   8.096   7.427  0.1533 -0.0647  0.0778
 4217W        W 8281   8.917   5.474   8.679 -0.0629 -0.0804 -0.1224
 4218W        W 8282   5.184   0.524  10.866  0.3134  0.0636 -0.0958
 4219W        W 8283  10.595   7.257  10.244 -0.0441  0.1055  0.0756
 4220W        W 8284   3.528   2.906   9.508  0.1303 -0.2607  0.2605
 4221W        W 8285   0.375   3.904   8.477  0.0770  0.0376  0.1086
 4222W        W 8286   7.769  10.464  10.414  0.0501  0.0619  0.0240
 4223W        W 8287   6.091   0.297  10.072  0.1355 -0.0348  0.3825
 4224W        W 8288   6.075   4.597   3.373  0.0107  0.0791 -0.1641
 4225W        W 8289   9.057   0.602  10.188 -0.2255  0.0937  0.1911
 4226W        W 8290   7.123   5.701   0.792 -0.0125 -0.0243  0.1665
 4227W        W 8291   5.601   8.224   2.597  0.0178  0.0714 -0.1338
 4228W        W 8292   0.389   7.072   8.463  0.2291  0.2806  0.0109
 4229W        W 8293   7.625   0.101   2.484  0.0795 -0.1007  0.1378
 4230W        W 8294   7.450   8.693   0.074  0.1514  0.4402 -0.1230
 4231W        W 8295   0.734   0.193   0.790 -0.2650  0.0852 -0.2121
 4232W        W 8296   7.263  10.560   9.822  0.0992 -0.2383  0.0931
 4233W        W 8297   2.827   4.262   3.391  0.3945  0.0529 -0.0871
 4234W        W 8298   2.380   8.502  10.974  0.0699  0.3285 -0.1705
 4235W        W 8299   1.099   1.902   1.046  0.0218  0.3640  0.0403
 4236W        W 8300   7.020   7.758  10.520  0.2830 -0.0286  0.0659
 4237W        W 8301   7.121   3.660   1.507 -0.0211 -0.4900 -0.0485
 4238W        W 8302   4.696   0.271   1.823  0.1259  0.2959 -0.2488
 4239W        W 8303   5.238   8.393   3.578 -0.2430  0.2257  0.2641
 4240W        W 8304   4.188   3.982   3.016  0.2617 -0.1475  0.1599
 4241W        W 8305   9.242   4.106  10.352  0.2694  0.1073 -0.1106
 4242W        W 8306   9.750   2.004  11.032 -0.2718  0.1260 -0.1174
 4243W        W 8307   2.437  10.573   1.309 -0.1925 -0.3682  0.2747
 4244W        W 8308   2.878   0.061   1.499 -0.0194 -0.1563 -0.0895
 4245W        W 8309   2.711   1.434   8.216 -0.1511  0.0692 -0.1766
 4246W        W 8310   0.331   5.343   3.485 -0.0547 -0.0158  0.2338
 4247W        W 8311   5.103   1.909   3.011 -0.0976 -0.2768  0.2893
 4248W        W 8312   6.452  10.166   0.362 -0.0543  0.0060 -0.1937
 4249W        W 8313   4.544   4.220   9.024  0.1440  0.1562 -0.1063
 4250W        W 8314   0.126   1.102   2.181  0.2758  0.0637 -0.1221
 4251W        W 8315   7.562   9.206   2.078 -0.1183 -0.0276 -0.2225
 4252W        W 8316  10.499   4.567   3.501  0.4446 -0.0764  0.1862
 4253W        W 8317   2.472   0.818  10.119  0.2495  0.0779  0.0534
 4254W        W 8318   3.735   3.954   2.713  0.0506  0.0391 -0.0028
 4255W        W 8319   5.876   1.603   2.280 -0.1328  0.1749  0.0512
 4256W        W 8320   0.992   4.618   8.504  0.2286 -0.2089 -0.0504
 4257W        W 8321   0.380   1.900   9.654 -0.2508  0.1000  0.1086
 4258W        W 8322   1.486   1.340   2.525  0.0883 -0.0551 -0.0769
 4259W        W 8323   9.843   6.369   3.050  0.0129  0.1331  0.0190
 4260W        W 8324   5.320   9.044   2.764 -0.0309  0.1722 -0.1552
 4261W        W 8325   8.401   5.419   9.499 -0.2710 -0.2473 -0.1439
 4262W        W 8326   9.873   7.036   2.652 -0.1113  0.0173 -0.1640
 4263W        W 8327   7.819   8.291  10.474 -0.1027 -0.2580  0.0573
 4264W        W 8328   1.702   2.424   8.768 -0.1150  0.1343 -0.2175
 4265W        W 8329   7.356   5.617  11.547 -0.0556 -0.0614  0.1001
 4266W        W 8330   7.709   8.789   1.787 -0.2675  0.0204  0.1984
 4267W        W 8331   4.957   2.595   9.886  0.0708  0.0405 -0.1120
 4268W        W 8332   9.979   9.844  10.642 -0.0994 -0.4711 -0.1385
 4269W        W 8333  10.037   1.110   7.949  0.3094  0.0334  0.3047
 4270W        W 8334   1.212  10.273  11.097  0.0212 -0.0103 -0.4243
 4271W        W 8335   5.737   5.909   2.181  0.0037  0.1521  0.1756
 4272W        W 8336   5.674   7.902   9.473  0.2202 -0.0620 -0.1756
 4273W        W 8337   3.723   6.614  11.004  0.1608  0.2101 -0.4433
 4274W        W 8338   0.835  10.147   8.492 -0.3457 -0.1268 -0.0392
 4275W        W 8339   7.177   7.933  10.020  0.0888  0.1886  0.0332
 4276W        W 8340   9.821   0.785  10.697 -0.0231  0.1147 -0.0677
 4277W        W 8341   1.271   4.664   3.305  0.1922  0.2128 -0.0381
 4278W        W 8342   9.710   8.395   0.261  0.1188 -0.1781 -0.1455
 4279W        W 8343   0.336   7.411   0.659 -0.0752  0.0255 -0.4425
 4280W        W 8344   0.730  10.483  11.214 -0.1266  0.0042 -0.0863
 4281W        W 8345   7.565   6.452   1.452 -0.0761 -0.3506  0.1095
 4282W        W 8346   4.017   5.942   0.125 -0.0762  0.1022  0.3257
 4283W        W 8347   9.271   6.219   3.020  0.0032  0.0860 -0.1691
 4284W        W 8348   4.015   9.333  10.524  0.0581  0.0906  0.0067
 4285W        W 8349   2.199   2.773   8.561 -0.0595  0.0139  0.0176
 4286W        W 8350   3.251  10.503   0.672 -0.1466  0.0066  0.0682
 4287W        W 8351   5.115   1.041   2.846  0.2094  0.1087 -0.1112
 4288W        W 8352   6.891   0.390   1.489 -0.2226 -0.0843 -0.1251
 4289W        W 8353   6.015   8.607  10.986 -0.1530 -0.1582 -0.2916
 4290W        W 8354   1.490   9.417  11.207 -0.2201  0.2462 -0.1293
 4291W        W 8355   4.207   2.524   0.266  0.1284 -0.1702  0.1509
 4292W        W 8356   3.335   7.907   1.357 -0.0755  0.5272  0.2456
 4293W        W 8357   4.014   4.758   3.949  0.1091 -0.0517 -0.1865
 4294W        W 8358   7.732   3.591   1.595  0.2649  0.1604  0.0941
 4295W        W 8359   2.443   3.441   9.874 -0.1091 -0.0351 -0.2846
 4296W        W 8360   5.185   2.972   4.199 -0.5240  0.1462  0.0358
 4297W        W 8361   6.624   9.772   9.288 -0.2407 -0.2000 -0.4416
 4298W        W 8362   0.449   0.737  10.718 -0.1322  0.0810  0.1296
 4299W        W 8363   5.876   9.155   0.995  0.1031  0.0311  0.3494
 4300W        W 8364   5.895   4.714   2.851  0.0288 -0.3006  0.2509
 4301W        W 8365   9.942   3.566   3.596  0.0441  0.1870  0.0571
 4302W        W 8366   1.765  10.074   8.699 -0.0007  0.2430 -0.1165
 4303W        W 8367   3.685   2.826  10.234  0.0851 -0.0391 -0.3863
 4304W        W 8368   1.415   7.285   9.346 -0.3490 -0.0742 -0.1702
 4305W        W 8369   2.288   9.123  10.508 -0.1620  0.1270 -0.1128
 4306W        W 8370  10.277   2.434   8.845 -0.0934  0.1232  0.0491
 4307W        W 8371   4.191   2.052   3.316  0.0270 -0.0217  0.2467
 4308W        W 8372   1.265   0.176   3.146  0.2536 -0.1936 -0.2536
 4309W        W 8373   2.912   0.776   9.197 -0.0817  0.1588  0.1509
 4310W        W 8374   6.147   0.249   7.325  0.2469 -0.0870  0.2848
 4311W        W 8375   5.033   5.218   2.940  0.0010  0.0890 -0.0126
 4312W        W 8376   6.603   2.960   3.357  0.1998 -0.0257 -0.0897
 4313W        W 8377   5.021   8.439   9.372  0.0363 -0.1531 -0.1434
 4314W        W 8378   7.229   9.659   8.706  0.3363  0.0975  0.2059
 4315W        W 8379   3.388  10.456   1.177  0.1280 -0.1780  0.3274
 4316W        W 8380   7.481   7.451  11.441  0.0931 -0.0155  0.1017
 4317W        W 8381   5.970   9.241   9.325  0.1230  0.0099  0.1453
 4318W        W 8382   1.411   5.659   3.261  0.3479  0.1150 -0.3382
 4319W        W 8383   2.649   9.697  10.334 -0.0291  0.0063  0.0446
 4320W        W 8384   3.615   1.065   0.907 -0.0930  0.2097 -0.0161
 4321W        W 8385   8.174   1.578   3.173 -0.0963 -0.2911 -0.0619
 4322W        W 8386  10.345   0.731  10.543  0.2878  0.1886 -0.1203
 4323W        W 8387   8.919   0.078   0.726  0.0688 -0.0527 -0.0683
 4324W        W 8388   0.228   7.301   8.021  0.1021  0.3063 -0.0403
 4325W        W 8389   0.870   0.039   9.571 -0.0616  0.4881  0.0319
 4326W        W 8390   5.772   1.205  11.376 -0.2414 -0.0134  0.0619
 4327W        W 8391   6.464   6.087   9.842  0.5164 -0.0589  0.0029
 4328W        W 8392   0.321   4.449   3.181 -0.0737 -0.2523 -0.1679
 4329W        W 8393   6.373   1.680   2.765  0.2149 -0.2126  0.2706
 4330W        W 8394   3.350   8.367  10.845 -0.2050  0.1815 -0.0568
 4331W        W 8395  10.150   8.178   1.811  0.3365  0.1179  0.2628
 4332W        W 8396   0.618   8.937  10.040 -0.0143 -0.2108  0.3195
 4333W        W 8397   9.436   7.698  11.176  0.0105 -0.0366 -0.1468
 4334W        W 8398   4.864   8.797   2.798 -0.0376 -0.5359 -0.1942
 4335W        W 8399   1.625   7.600   8.731 -0.3943  0.0903 -0.1454
 4336W        W 8400   3.303   4.926  11.294 -0.2958  0.1621 -0.3296
 4337W        W 8401   9.550   8.452   9.075 -0.0479 -0.2543  0.1118
 4338W        W 8402   7.910   1.845   2.117 -0.2109 -0.3012 -0.2889
 4339W        W 8403   8.361   5.446  11.182 -0.0991 -0.1017 -0.1669
 4340W        W 8404   3.022   1.565   9.874 -0.1744  0.0808  0.1235
 4341W        W 8405   1.603   3.273   9.284 -0.2189 -0.2120  0.0249
 4342W        W 8406   2.522   0.968   2.081 -0.0616  0.2327  0.1401
 4343W        W 8407   5.056   9.644  11.405 -0.0767  0.4489  0.1003
 4344W        W 8408   0.729   7.370   1.011  0.1873  0.0131  0.1009
 4345W        W 8409   6.386  10.280   2.769  0.0083  0.2480 -0.0650
 4346W        W 8410   3.084   5.101   1.109 -0.0030 -0.1819  0.0968
 4347W        W 8411   7.308   9.150   1.554  0.1144 -0.1586 -0.3422
 4348W        W 8412   8.584   9.646   9.056  0.0623  0.0548  0.2843
 4349W        W 8413   5.128   9.700  10.869  0.0519 -0.0556 -0.3811
 4350W        W 8414   2.880   1.449   2.610  0.0490  0.1894  0.1592
 4351W        W 8415   0.601   2.115   2.016 -0.3645  0.1894 -0.1454
 4352W        W 8416   5.054   1.730   0.122 -0.1322  0.2083 -0.1302
 4353W        W 8417   6.827   9.767  11.113  0.1125  0.0706  0.1533
 4354W        W 8418   3.518   9.291   2.833 -0.2304  0.2066  0.0426
 4355W        W 8419   5.834   3.752   0.897 -0.0109  0.0031 -0.4794
 4356W        W 8420   7.975   4.020   2.033 -0.1521 -0.2059  0.0316
 4357W        W 8421   1.839   6.495   1.591 -0.0290 -0.1843  0.1068
 4358W        W 8422   8.575   4.440   8.469  0.1868  0.1635 -0.1217
 4359W        W 8423   0.652   5.047  11.317  0.0329  0.1396  0.2453
 4360W        W 8424   3.272   3.386  11.558 -0.1656  0.0600  0.1018
 4361W        W 8425   1.902   1.392   8.130 -0.1855  0.0873 -0.0533
 4362W        W 8426   7.888   2.908   1.261  0.0272  0.0802  0.2952
 4363W        W 8427   4.856   1.488   3.107 -0.0157 -0.1537 -0.0319
 4364W        W 8428   4.690   5.380   9.264  0.1484  0.1018 -0.2320
 4365W        W 8429   1.127   9.555   0.122  0.0343 -0.0295 -0.3505
 4366W        W 8430   4.732   8.334   1.455  0.0131 -0.1189  0.0740
 4367W        W 8431   9.653   7.350   1.283 -0.2600  0.1528 -0.1237
 4368W        W 8432   5.574   4.474   8.871 -0.1569  0.2768 -0.0512
 4369W        W 8433   4.356   7.363  10.657  0.0834  0.2171  0.0302
 4370W        W 8434   1.207   7.742   9.179 -0.0692 -0.0822 -0.0861
 4371W        W 8435   5.918   3.962   9.975  0.3050 -0.0682 -0.0987
 4372W        W 8436  10.391   3.914   1.327  0.0762 -0.0223 -0.2303
 4373W        W 8437   0.997   3.513  10.361  0.1070  0.0082 -0.2295
 4374W        W 8438   7.730   4.633   1.417 -0.4096  0.1767 -0.0941
 4375W        W 8439   6.865  10.390   8.173 -0.0804 -0.1390 -0.1109
 4376W        W 8440   2.093   6.835   8.943 -0.1296 -0.1044  0.1146
 4377W        W 8441   6.984  10.147   2.268 -0.0678  0.3013 -0.2428
 4378W        W 8442   3.839   5.298   1.559 -0.4086 -0.2181  0.0191
 4379W        W 8443   0.349   5.310   3.959  0.1680 -0.3045 -0.4166
 4380W        W 8444   4.342   8.825   8.183  0.2871  0.2011 -0.0490
 4381W        W 8445   8.959   0.762   1.360 -0.0452 -0.1183  0.3065
 4382W        W 8446   9.186   0.084  10.828 -0.2909 -0.0034 -0.0527
 4383W        W 8447   1.741   0.938   2.675 -0.0551  0.3012 -0.1984
 4384W        W 8448   0.443   0.500   8.182  0.0123  0.0558  0.0515
 4385W        W 8449   8.365   2.579  10.620 -0.0792  0.2503  0.1034
 4386W        W 8450   5.234   4.236   9.141 -0.0371  0.0949 -0.1012
 4387W        W 8451   9.651   0.043   7.637  0.0071  0.2433  0.1296
 4388W        W 8452   8.632   5.072   1.476 -0.1115 -0.2366  0.1267
 4389W        W 8453   2.673   8.166  10.271  0.1826  0.2044  0.2573
 4390W        W 8454   9.128   4.277   0.785  0.2148  0.1107 -0.3964
 4391W        W 8455   0.571   3.933   1.449 -0.2059  0.1224 -0.1009
 4392W        W 8456  10.302   6.961   1.993  0.1176  0.0440  0.2968
 4393W        W 8457  10.017   8.466  10.659 -0.3330  0.0307 -0.1973
 4394W        W 8458   9.373   9.206   0.310 -0.0267  0.0948 -0.1865
 4395W        W 8459   4.900   3.070  11.536  0.5606  0.2420  0.2154
 4396W        W 8460   9.888  10.554   2.822  0.0935  0.0534  0.1610
 4397W        W 8461   1.874   7.003   0.763  0.1893  0.2283 -0.1430
 4398W        W 8462   5.983   9.704   2.472 -0.0379 -0.0324 -0.0837
 4399W        W 8463   0.484   9.284   2.833 -0.5531  0.0588  0.1808
 4400W        W 8464  10.491   4.055   4.192  0.0686 -0.0661  0.0226
 4401W        W 8465   9.546   7.888   8.944  0.2291  0.0331  0.1304
 4402W        W 8466   7.726   8.843   9.238 -0.0505 -0.0695 -0.1819
 4403W        W 8467   4.408   7.363   0.771 -0.0901 -0.2735 -0.0807
 4404W        W 8468   2.828   1.057   1.211 -0.0255 -0.0111  0.0593
 4405W        W 8469   3.874   1.463   7.483  0.3282 -0.0506  0.2500
 4406W        W 8470   9.557   6.619   0.163 -0.2397 -0.1438  0.2559
 4407W        W 8471  10.392   1.377   8.240  0.2062 -0.0555 -0.2065
 4408W        W 8472   5.398   7.166   8.611  0.0649  0.1508 -0.1015
 4409W        W 8473   5.375   1.994   1.476 -0.1769  0.2959 -0.3225
 4410W        W 8474   5.243   6.740   8.743  0.0388 -0.1750  0.0308
 4411W        W 8475   2.392   3.312   3.035  0.0180 -0.1496 -0.1899
 4412W        W 8476   8.771   2.423   3.139  0.1337 -0.1020 -0.0326
 4413W        W 8477   5.180   1.667   3.428 -0.0903 -0.1723 -0.1828
 4414W        W 8478   8.804   3.996   9.734 -0.4139  0.1760  0.2766
 4415W        W 8479   5.335   5.970   0.291 -0.1341  0.2539 -0.2796
 4416W        W 8480   4.365  10.278  10.627  0.0267  0.0258 -0.0389
 4417W        W 8481   8.232   2.603   7.635  0.2163 -0.1028  0.3055
 4418W        W 8482   6.114   0.974   1.695  0.0031 -0.2764  0.2301
 4419W        W 8483  10.536   0.626   2.396 -0.1537 -0.2604 -0.0897
 4420W        W 8484   9.493   5.190   1.111 -0.0074  0.1529 -0.1466
 4421W        W 8485   4.821   1.067   0.079 -0.1774 -0.0017  0.3312
 4422W        W 8486   5.233   7.351   1.873 -0.1173  0.0419 -0.0788
 4423W        W 8487   9.388   4.620   9.729 -0.0752  0.0810  0.0919
 4424W        W 8488   8.378   2.265   9.115  0.0174 -0.0760  0.0439
 4425W        W 8489   9.152   5.556   4.192 -0.1028  0.0923  0.3524
 4426W        W 8490   7.539   9.742   2.379  0.1357 -0.3651  0.1939
 4427W        W 8491   5.616   2.490   2.882 -0.1525 -0.0449  0.1349
 4428W        W 8492   3.699   9.536   8.139  0.4307 -0.0064  0.1619
 4429W        W 8493   0.780   3.777   9.887 -0.1884  0.0427 -0.0718
 4430W        W 8494   9.210   4.023   3.188 -0.1006 -0.0851 -0.0289
 4431W        W 8495   2.736   4.354  10.552  0.1419 -0.1468 -0.2481
 4432W        W 8496   2.034   3.765   4.101  0.5320 -0.1721  0.2732
 4433W        W 8497  10.254   3.771   2.220 -0.0271  0.1798 -0.0556
 4434W        W 8498   0.621   3.230   3.748 -0.0460 -0.1993  0.0389
 4435W        W 8499   0.404   3.422  11.573 -0.0235 -0.0892  0.3067
 4436W        W 8500   4.797   4.963   1.514 -0.1658  0.2618  0.5785
 4437W        W 8501   8.839   9.771  10.572 -0.1465 -0.0421  0.3808
 4438W        W 8502   0.665   7.392   8.779  0.0358  0.2663 -0.1256
 4439W        W 8503   1.868  10.508   8.946 -0.2446  0.0132  0.0263
 4440W        W 8504   9.953   1.839   0.622 -0.0218  0.0364  0.2439
 4441W        W 8505   7.290   2.896   9.781  0.2150 -0.1718 -0.0188
 4442W        W 8506  10.025   5.920   3.826  0.0531  0.0051 -0.2825
 4443W        W 8507  10.121   3.199   9.358 -0.1992 -0.0864 -0.2173
 4444W        W 8508   0.090   4.420   2.668 -0.0556 -0.4790 -0.1975
 4445W        W 8509   4.150   7.845   2.314  0.2416 -0.1350 -0.2898
 4446W        W 8510   6.121   8.365   2.741 -0.2827  0.0258  0.2789
 4447W        W 8511   8.333   1.362   8.119  0.5582  0.0071  0.1201
 4448W        W 8512   4.043   8.107   0.666  0.2120 -0.2072 -0.0097
 4449W        W 8513   0.280   3.712   9.797 -0.3042  0.1558  0.3362
 4450W        W 8514   0.925   1.170   7.814  0.2694  0.1254 -0.1236
 4451W        W 8515  10.131   7.627  10.857 -0.0361  0.0776  0.1702
 4452W        W 8516   3.054   5.572   0.336 -0.1716 -0.1756 -0.0501
 4453W        W 8517   5.474   8.533  10.287 -0.0098  0.3096  0.0431
 4454W        W 8518   8.016   4.834   1.031 -0.0503 -0.0902 -0.0501
 4455W        W 8519   4.149   9.884   8.133  0.4820 -0.0502  0.0256
 4456W        W 8520  10.625   5.437  10.769 -0.0960  0.2487  0.3214
 4457W        W 8521   0.701   9.379   2.274  0.2975 -0.1593  0.0151
 4458W        W 8522   3.683   3.164   8.603 -0.2758  0.1037  0.1041
 4459W        W 8523   3.394   9.693   9.701 -0.3189 -0.2422  0.2155
 4460W        W 8524   4.344   9.214   1.955 -0.2388  0.2650 -0.3585
 4461W        W 8525   7.738   6.139   3.607 -0.2083  0.0303  0.0578
 4462W        W 8526   2.026   6.316   2.043 -0.1037 -0.0990 -0.0019
 4463W        W 8527   1.674   9.837   0.298 -0.0760  0.0954 -0.2838
 4464W        W 8528   0.626   9.434   9.885  0.1250  0.0721  0.2368
 4465W        W 8529   0.346   2.629   1.431 -0.3193 -0.1425 -0.2319
 4466W        W 8530   1.803   2.396  11.524 -0.2546 -0.0668 -0.4642
 4467W        W 8531   5.090   8.896   1.564 -0.3544  0.0381 -0.2673
 4468W        W 8532   7.146   1.986   7.117 -0.3095  0.0642  0.1486
 4469W        W 8533   9.416   2.451   1.657  0.0272  0.1282 -0.2326
 4470W        W 8534   4.845   9.273   1.962 -0.2273  0.1868  0.2023
 4471W        W 8535   8.469   6.319   9.186 -0.1876  0.0299  0.1288
 4472W        W 8536   9.108   4.299   0.277 -0.4084 -0.1788 -0.2875
 4473W        W 8537   1.717   4.970  11.299  0.0110 -0.1789  0.2689
 4474W        W 8538   7.869   1.566   7.533  0.3227 -0.0541 -0.0141
 4475W        W 8539   4.258   4.482   0.930 -0.0572 -0.0098  0.0746
 4476W        W 8540   3.589   0.140   9.578  0.0217  0.2680  0.0828
 4477W        W 8541   3.443   4.197   9.377 -0.1254  0.0640 -0.0088
 4478W        W 8542  10.548  10.315   8.896  0.0287 -0.2011  0.0427
 4479W        W 8543   4.478   9.893   0.681 -0.1181 -0.2579 -0.1634
 4480W        W 8544   4.391   6.299   0.980  0.1513 -0.2595  0.3134
 4481W        W 8545   2.942  10.567   2.999  0.3546  0.3322  0.0405
 4482W        W 8546   0.464  10.339  10.691 -0.2148 -0.0464  0.0020
 4483W        W 8547   1.968   1.078   0.131  0.0053 -0.1730  0.0173
 4484W        W 8548   7.750   6.023   2.392  0.1072  0.0109 -0.0476
 4485W        W 8549   7.297   0.285   1.269 -0.0037  0.3059 -0.1434
 4486W        W 8550   2.719   5.979  10.722 -0.2645 -0.0142  0.1541
 4487W        W 8551  10.277   5.017   0.188 -0.0910 -0.0580 -0.0197
 4488W        W 8552   4.784   8.092  11.170 -0.1429 -0.1961  0.1698
 4489W        W 8553   4.411   5.579  11.073  0.1504 -0.1293 -0.0650
 4490W        W 8554   1.559   4.986   9.889  0.0973 -0.1064 -0.3215
 4491W        W 8555   4.613   7.867   2.380 -0.0279 -0.0129 -0.0603
 4492W        W 8556   9.287   8.199   9.603  0.0564 -0.2265 -0.0265
 4493W        W 8557  10.137   2.728  10.654 -0.2848  0.1179 -0.0611
 4494W        W 8558   6.946   1.819   8.672 -0.0185  0.2979  0.1152
 4495W        W 8559   4.019  10.040   0.548 -0.1633  0.0224 -0.2193
 4496W        W 8560   8.094   2.116   9.990  0.0801  0.0463  0.0790
 4497W        W 8561   2.710   9.972   9.544 -0.1161  0.2108  0.0735
 4498W        W 8562   6.355   1.347   1.369 -0.1606 -0.0740 -0.1160
 4499W        W 8563   1.142   8.459  10.608  0.1713  0.0160  0.2077
 4500W        W 8564   4.044   5.398   1.982 -0.1794 -0.3505 -0.0276
 4501W        W 8565   4.462   5.864   0.400 -0.0367 -0.2866 -0.4679
 4502W        W 8566   4.886   2.391   7.835  0.2173  0.0210  0.1418
 4503W        W 8567   1.294   6.387   1.688  0.0167 -0.1656  0.0706
 4504W        W 8568   5.373   2.427  10.888 -0.3013 -0.0418 -0.4447
 4505W        W 8569   3.428   5.193   8.920  0.2957  0.1561  0.0373
 4506W        W 8570  10.352   3.145   1.661 -0.2824 -0.1543  0.0074
 4507W        W 8571   2.148   7.281  11.227  0.2165 -0.1512  0.0163
 4508W        W 8572   1.907   9.038   2.561  0.2839  0.0202  0.0532
 4509W        W 8573   8.084   0.273   1.483 -0.0590 -0.1503  0.1588
 4510W        W 8574   6.402   9.730   8.472 -0.0298  0.1158 -0.1458
 4511W        W 8575   7.156   6.507   1.110 -0.1438  0.0406 -0.0856
 4512W        W 8576   1.613   4.415   0.373  0.0858 -0.1062 -0.1299
 4513W        W 8577   4.777   5.440   1.234 -0.5767 -0.0528 -0.0642
 4514W        W 8578   0.999   8.899   3.075  0.0038 -0.1238 -0.0244
 4515W        W 8579   8.268   2.555   1.121  0.3546  0.0238  0.2420
 4516W        W 8580   8.488   2.432   1.577  0.0958 -0.0052 -0.3158
 4517W        W 8581   9.734   0.969   2.178  0.0738 -0.2376 -0.0402
 4518W        W 8582   0.586  10.460   2.544  0.0707 -0.1920 -0.3526
 4519W        W 8583   9.764   5.423   0.711 -0.0359  0.3933  0.0103
 4520W        W 8584   4.345   3.008   0.491  0.0960  0.4307  0.2549
 4521W        W 8585   0.979   4.534  11.095 -0.0305  0.2358 -0.0778
 4522W        W 8586   9.823   6.480  10.102 -0.2104 -0.1262 -0.0592
 4523W        W 8587   0.446  10.141   0.009  0.0182  0.1156  0.0455
 4524W        W 8588   4.400  10.401   4.075  0.2116 -0.0081  0.1535
 4525W        W 8589   8.778   8.247   3.299  0.1664  0.1218  0.1374
 4526W        W 8590   1.490   5.588   2.722  0.0851  0.1573 -0.0395
 4527W        W 8591   0.800   2.962   1.756 -0.1636  0.0640  0.1110
 4528W        W 8592   1.283   7.584   0.387  0.3226 -0.0776  0.4679
 4529W        W 8593   8.547   6.850   9.922 -0.0160 -0.1663 -0.2392
 4530W        W 8594   5.578   4.875   2.389  0.0879 -0.6258 -0.0316
 4531W        W 8595   3.434   2.169  11.430 -0.1304  0.5036 -0.0258
 4532W        W 8596   3.456   1.018   9.408  0.1150  0.3252 -0.2582
 4533W        W 8597   9.005   8.317   0.820  0.1117 -0.0938 -0.1973
 4534W        W 8598   1.458   6.759   7.682 -0.3753 -0.1580  0.2891
 4535W        W 8599   7.206   8.881   9.946 -0.2233  0.0325  0.2248
 4536W        W 8600  10.134   6.392   9.231 -0.0750 -0.4042  0.0475
 4537W        W 8601   6.284  10.371   3.689 -0.2122  0.1462  0.0296
 4538W        W 8602   2.774   0.510   2.278 -0.0425  0.0619 -0.4953
 4539W        W 8603   3.407   8.479   9.073  0.0154 -0.1092 -0.0390
 4540W        W 8604   7.595   1.759   8.465  0.0219 -0.0977 -0.0459
 4541W        W 8605   7.704   5.954  10.995 -0.0983  0.3908  0.1598
 4542W        W 8606   4.100   9.086   7.846 -0.3114 -0.2754  0.0200
 4543W        W 8607   4.822   0.502   4.020  0.2152  0.0231  0.0972
 4544W        W 8608   3.464   2.017  10.830 -0.1008 -0.1902  0.2865
 4545W        W 8609   8.020   0.262   3.291 -0.1230 -0.2350 -0.1289
 4546W        W 8610   3.680   8.233   8.680  0.1212 -0.1177  0.0426
 4547W        W 8611   2.324   8.762   2.715 -0.2176 -0.0967  0.1738
 4548W        W 8612   1.451   3.779  10.419 -0.0952  0.1087  0.0792
 4549W        W 8613   6.559   0.968   8.424 -0.2839 -0.1537 -0.1140
 4550W        W 8614   5.803   5.422   9.396 -0.2408 -0.2606 -0.2527
 4551W        W 8615   7.494   4.790   2.904 -0.0971  0.0241  0.2112
 4552W        W 8616   1.290   5.542   9.112  0.2556 -0.0058 -0.0679
 4553W        W 8617   5.292   1.653   8.652 -0.1667 -0.1670  0.1177
 4554W        W 8618   5.485   9.302   3.119 -0.2457 -0.2364  0.2589
 4555W        W 8619   0.410   9.652   1.467 -0.1649 -0.2540  0.0943
 4556W        W 8620   3.501   4.939   2.469  0.0643  0.0188  0.1345
 4557W        W 8621   5.031   2.745  10.639 -0.0627  0.2773  0.2538
 4558W        W 8622   5.909   1.283   1.167 -0.1458  0.0752  0.2061
 4559W        W 8623   4.140   3.576  10.724 -0.1503 -0.2868  0.0508
 4560W        W 8624   3.384   6.966   0.820 -0.1160  0.1481 -0.0497
 4561W        W 8625   0.814   1.862   3.186 -0.1119 -0.0482  0.0820
 4562W        W 8626   6.057   6.049  10.157  0.1123  0.0014 -0.0057
 4563W        W 8627  10.063   7.642   1.505 -0.2492 -0.0441  0.3637
 4564W        W 8628   4.408   1.593  10.510 -0.0443  0.0883  0.0379
 4565W        W 8629   1.923   8.833   1.220 -0.2325  0.0727  0.2250
 4566W        W 8630   4.823   9.206   9.716 -0.1573 -0.0268 -0.1557
 4567W        W 8631   0.163   6.072   8.721 -0.2604 -0.2696 -0.1474
 4568W        W 8632   7.014   5.378   4.080  0.1204 -0.1340  0.1454
 4569W        W 8633   0.550   1.834   8.272 -0.1272 -0.0608 -0.0272
 4570W        W 8634   8.039   6.730  10.185 -0.0383 -0.0540  0.0651
 4571W        W 8635   3.614   2.642   1.685  0.0729  0.0030  0.5176
 4572W        W 8636   3.394   0.405   1.486  0.2080  0.1050  0.0772
 4573W        W 8637   7.873   7.370   1.627  0.0225  0.2063  0.3474
 4574W        W 8638   5.245   8.780   0.264  0.1389 -0.0505 -0.1316
 4575W        W 8639   8.922   6.433  10.636 -0.1139 -0.0668 -0.2055
 4576W        W 8640   8.343   9.106   0.136 -0.0639  0.0291  0.0242
 4577W        W 8641   5.697   2.195  10.642 -0.0147 -0.1429 -0.2234
 4578W        W 8642   2.675   1.720   1.786 -0.0742  0.0967 -0.0566
 4579W        W 8643   2.010   0.100   9.829  0.2761  0.3871  0.2615
 4580W        W 8644   2.113   1.630   3.154 -0.0196  0.0583 -0.2535
 4581W        W 8645   7.315   1.993   9.208  0.1222  0.0645 -0.1861
 4582W        W 8646  10.318   5.889   7.866 -0.0875 -0.0706 -0.4971
 4583W        W 8647   4.143   1.993   9.259  0.0691  0.1130  0.0665
 4584W        W 8648  10.198   8.627   2.564 -0.0117  0.2411  0.1151
 4585W        W 8649   2.180   1.070   9.730 -0.1311  0.2948 -0.1061
 4586W        W 8650  10.036   7.288   2.245 -0.5210 -0.0144  0.0974
 4587W        W 8651   9.228   4.287   8.193  0.2141  0.0542  0.0702
 4588W        W 8652   0.606   9.275  10.346 -0.1234 -0.3203 -0.4200
 4589W        W 8653   6.401   2.540   8.538  0.2438 -0.3987  0.0574
 4590W        W 8654   1.036   6.000   9.224 -0.0113  0.3845 -0.1427
 4591W        W 8655   5.474  10.078   2.494  0.0502  0.2451  0.1479
 4592W        W 8656   3.124   8.032   4.168 -0.1141  0.1272 -0.2838
 4593W        W 8657   1.722   4.762  10.315 -0.2038  0.5831  0.1745
 4594W        W 8658   9.030   2.033  10.016  0.0528  0.0855  0.0512
 4595W        W 8659  10.439   0.605   3.900  0.0469 -0.1059  0.4514
 4596W        W 8660   3.383   5.595   3.263 -0.0649 -0.1490 -0.2756
 4597W        W 8661   9.126   1.686   1.428  0.1294 -0.1107 -0.1002
 4598W        W 8662   8.760   8.384  10.995 -0.2064 -0.0567  0.2191
 4599W        W 8663   9.238   2.604   2.910  0.1646 -0.0883 -0.1958
 4600W        W 8664   1.433   6.377  11.309 -0.1477  0.2916  0.2363
 4601W        W 8665   0.078   8.225  11.149 -0.0602  0.0333 -0.0407
 4602W        W 8666   1.535  10.379   1.203 -0.0227 -0.0872  0.0080
 4603W        W 8667   8.210   3.636   1.754 -0.1089  0.0962 -0.2508
 4604W        W 8668   8.061   6.621   9.730  0.2560  0.0566  0.0755
 4605W        W 8669   2.617   7.622   1.032  0.3676  0.0067  0.3267
 4606W        W 8670   3.910  10.575   2.539  0.1794 -0.2863  0.3261
 4607W        W 8671   4.686   0.639  10.049  0.0116  0.3184 -0.1733
 4608W        W 8672   9.181   8.546   3.331  0.1721  0.1058 -0.2354
 4609W        W 8673   7.293   5.730  10.333 -0.0576  0.1864 -0.1450
 4610W        W 8674   2.841   8.575  10.061  0.0343 -0.2630  0.2144
 4611W        W 8675   0.818   2.040   9.064  0.1029 -0.3462 -0.0647
 4612W        W 8676   2.493   9.152   8.820  0.1327  0.1505  0.0703
 4613W        W 8677   9.763   6.068  11.014  0.1573 -0.0734  0.0422
 4614W        W 8678   7.632   5.859   9.440 -0.1910 -0.1273 -0.2825
 4615W        W 8679   6.867   9.960   8.462  0.0444  0.2616 -0.0623
 4616W        W 8680   0.755   7.883   9.721 -0.2792  0.2314  0.1279
 4617W        W 8681   4.525  10.093   1.496 -0.1403  0.1923  0.0583
 4618W        W 8682   1.524   9.469  10.048 -0.1115  0.2811 -0.0318
 4619W        W 8683   1.314   9.965   8.467 -0.0233 -0.0810 -0.2520
 4620W        W 8684   2.264   4.474   9.041  0.1948  0.0140 -0.3913
 4621W        W 8685   0.011   9.748  10.827  0.0556 -0.0696 -0.0139
 4622W        W 8686   8.908   8.198   1.883 -0.1174 -0.0625  0.1230
 4623W        W 8687   2.704   8.925  11.311 -0.1240 -0.1771 -0.1753
 4624W        W 8688   4.692   8.685   9.662 -0.0384 -0.1337  0.0845
 4625W        W 8689   8.050  10.171  10.104 -0.2403  0.1193 -0.2718
 4626W        W 8690   1.222   8.863   0.283 -0.0424 -0.2517 -0.1526
 4627W        W 8691   9.440   5.863   2.195 -0.1493 -0.2878  0.0880
 4628W        W 8692   4.337   6.055   9.781  0.1589 -0.2110 -0.1289
 4629W        W 8693   0.411   2.157   2.932  0.1216 -0.1593  0.2077
 4630W        W 8694   5.673   9.531   9.629 -0.0176 -0.2323  0.0656
 4631W        W 8695   0.697   3.564   0.460  0.0195  0.1409  0.2107
 4632W        W 8696   5.601   4.066   9.635  0.0124 -0.0200 -0.0106
 4633W        W 8697   3.062   3.144   9.485  0.1949  0.0589  0.0343
 4634W        W 8698  10.097   3.983   3.299 -0.0885 -0.2178 -0.0854
 4635W        W 8699   4.479   3.959  10.356 -0.0578  0.0206  0.0920
 4636W        W 8700   1.243   3.106   8.281 -0.0176 -0.0412  0.2654
 4637W        W 8701  10.240  10.236   4.339  0.2116 -0.0893  0.0673
 4638W        W 8702   6.808   0.926   7.957  0.1542  0.1093  0.0325
 4639W        W 8703   9.007   5.925   8.404  0.0364 -0.0927  0.1293
 4640W        W 8704   2.368   2.006   2.283 -0.3900  0.0092  0.0062
 4641W        W 8705  10.633   6.884  11.281  0.0128 -0.0823  0.0056
 4642W        W 8706   1.571   1.770   3.746 -0.0251 -0.1775  0.2007
 4643W        W 8707   1.368   4.239  11.223 -0.0637 -0.1247 -0.1298
 4644W        W 8708  10.004  10.163  10.025  0.1451  0.0649 -0.0668
 4645W        W 8709   8.070   4.162   8.499  0.2488 -0.1466 -0.0692
 4646W        W 8710   8.801   4.832   7.709  0.1957 -0.0191  0.1616
 4647W        W 8711   0.549   4.787  10.830  0.1630  0.0735 -0.3868
 4648W        W 8712   8.601   6.200  10.922 -0.1131 -0.0915  0.1057
 4649W        W 8713   6.859   5.357   9.727 -0.0778  0.0756 -0.1395
 4650W        W 8714   0.808  10.324   1.604  0.0980  0.0743 -0.1990
 4651W        W 8715   8.829   0.761   2.386 -0.2928  0.2971  0.0217
 4652W        W 8716   7.869  10.232   8.576 -0.4633 -0.1862 -0.3543
 4653W        W 8717   9.748   5.858   0.405  0.0739 -0.0376 -0.1999
 4654W        W 8718   3.091  10.475   7.685  0.1884  0.0114 -0.2771
 4655W        W 8719   1.494   6.063   4.055  0.2169 -0.0955 -0.0874
 4656W        W 8720   2.099   5.219  11.028  0.4022  0.0956  0.2152
 4657W        W 8721   2.689   2.146   9.807 -0.1845  0.2080 -0.0471
 4658W        W 8722   4.705   3.495   1.446 -0.2579  0.2344  0.3731
 4659W        W 8723   4.447   2.191   7.459 -0.0586  0.1786  0.0215
 4660W        W 8724   2.302   7.370  10.226 -0.1290 -0.1936 -0.0533
 4661W        W 8725   3.806   2.362   9.160  0.0200  0.2130 -0.0836
 4662W        W 8726   8.911   1.474   1.866 -0.2053 -0.0828 -0.1289
 4663W        W 8727   0.886   7.355   2.808 -0.0323  0.2055  0.1809
 4664W        W 8728   2.346   3.101   0.945 -0.0330 -0.0544 -0.1846
 4665W        W 8729   2.320   4.783   1.672  0.0284  0.0397  0.1142
 4666W        W 8730   7.187   9.191   3.012 -0.2040 -0.1313 -0.0664
 4667W        W 8731   3.702   3.382  10.057 -0.2605  0.1645  0.2658
 4668W        W 8732   7.147   1.798   1.442 -0.0095 -0.4113 -0.2496
 4669W        W 8733   8.836   6.219   0.381  0.2339 -0.3605 -0.1435
 4670W        W 8734  10.390   4.596   8.832 -0.0882 -0.1013  0.1087
 4671W        W 8735   0.663   7.549   3.221 -0.3951 -0.1221  0.1548
 4672W        W 8736  10.229   4.960  11.180  0.1118 -0.1286  0.2557
 4673W        W 8737   1.025   2.461   9.394 -0.1175 -0.0573 -0.1024
 4674W        W 8738   1.041   6.436   3.555  0.0513 -0.4079  0.1459
 4675W        W 8739   0.160   6.778   9.436  0.0122  0.0023 -0.1698
 4676W        W 8740   1.506   1.910   0.618 -0.0481  0.0300  0.1752
 4677W        W 8741   8.101   6.095   1.597  0.2933  0.1335 -0.0404
 4678W        W 8742   3.565   3.280   1.383  0.1114 -0.1642 -0.2281
 4679W        W 8743   7.534   0.242   9.092 -0.2098  0.1897 -0.1255
 4680W        W 8744   4.066   2.995   8.048 -0.2056 -0.4130  0.1729
 4681W        W 8745   8.296   9.305   2.821 -0.2336  0.1487 -0.0462
 4682W        W 8746   7.494   3.796  10.722  0.1139  0.1528 -0.1365
 4683W        W 8747   6.632   6.395  11.277  0.1599 -0.0473 -0.0629
 4684W        W 8748   8.369   2.522   0.594  0.1471  0.1352 -0.0103
 4685W        W 8749   9.055   0.717   0.475  0.0263 -0.3346  0.0466
 4686W        W 8750   9.579   7.603  10.690 -0.0913 -0.0757 -0.2749
 4687W        W 8751   3.996   6.240  10.138  0.0358 -0.0132 -0.0466
 4688W        W 8752   7.920   4.559   2.373  0.2217 -0.2441  0.0043
 4689W        W 8753   7.787   2.330   8.516  0.0255 -0.1081 -0.0919
 4690W        W 8754   6.085   9.895  11.076 -0.0870  0.0299  0.3138
 4691W        W 8755   4.407   5.271   1.548 -0.0065  0.1949  0.0257
 4692W        W 8756   3.599   4.579   9.653  0.0469  0.0991  0.2946
 4693W        W 8757   4.622   7.122   3.845  0.0366 -0.1302  0.0226
 4694W        W 8758   1.206   5.266   3.838 -0.0790  0.5736 -0.0872
 4695W        W 8759   9.433   8.883   4.295  0.3451 -0.1146 -0.1023
 4696W        W 8760   8.467   9.831   1.178 -0.3097  0.0026 -0.1433
 4697W        W 8761   1.958   4.490  11.109 -0.1923  0.1215  0.3673
 4698W        W 8762   6.754  10.634   2.164  0.4316  0.1689  0.0197
 4699W        W 8763   4.602   1.105   9.210  0.3465 -0.1339 -0.3175
 4700W        W 8764   3.178   8.150   8.782 -0.1406 -0.2210 -0.2500
 4701W        W 8765   5.158   0.141   8.640 -0.1619 -0.3695 -0.1730
 4702W        W 8766   4.069   1.789   2.229  0.2075 -0.0245 -0.1192
 4703W        W 8767   1.790   2.947   0.201 -0.0005  0.1276 -0.1859
 4704W        W 8768  10.254   7.848   1.013  0.0717 -0.0435 -0.3788
 4705W        W 8769   6.391  10.235   9.761 -0.3272 -0.2960  0.1595
 4706W        W 8770   2.045   7.823   3.496 -0.2249  0.2003  0.0603
 4707W        W 8771   5.382   8.582   9.128  0.2725 -0.0354  0.2044
 4708W        W 8772   4.849   7.971   7.300  0.2802  0.0450 -0.0503
 4709W        W 8773   0.338   1.233  10.849  0.1626  0.1056  0.2323
 4710W        W 8774   1.052   6.655   2.063 -0.4024  0.0195 -0.0562
 4711W        W 8775   9.567   0.396   1.274 -0.0783 -0.2344  0.1004
 4712W        W 8776   1.894   8.094   0.652  0.0515  0.0635 -0.1238
 4713W        W 8777   0.723   5.033   8.634 -0.0265 -0.2231  0.0405
 4714W        W 8778   8.933   8.439  10.342 -0.0276  0.1397  0.0631
 4715W        W 8779   0.029   5.579   8.735 -0.0105 -0.1275 -0.0188
 4716W        W 8780   2.737  10.052   3.010 -0.1115 -0.0937 -0.3167
 4717W        W 8781   4.250   4.388   1.965  0.0123 -0.4240  0.0685
 4718W        W 8782   6.944   5.337  10.840 -0.1306  0.1031 -0.0661
 4719W        W 8783   5.108   9.066   0.692  0.0810 -0.0427  0.2022
 4720W        W 8784   9.679   8.984   9.056 -0.2809 -0.4395 -0.0308
 4721W        W 8785  10.536   7.580   9.485  0.0943  0.0884  0.0598
 4722W        W 8786   8.108   9.674   0.170 -0.0583 -0.0225 -0.0861
 4723W        W 8787   0.094   1.024  10.463 -0.3652 -0.1656  0.2981
 4724W        W 8788   6.540   1.823   1.508 -0.0719 -0.1401  0.0285
 4725W        W 8789   0.794   4.139   9.546 -0.1034 -0.0911  0.0783
 4726W        W 8790   4.088   5.398   1.090 -0.0924  0.0623  0.0685
 4727W        W 8791   4.826   2.744   9.361  0.0041  0.1106  0.3251
 4728W        W 8792   3.097  10.421   8.788 -0.1533 -0.4370  0.2182
 4729W        W 8793   9.910   9.871   2.406  0.2349 -0.0741  0.0889
 4730W        W 8794  10.632   0.295  11.474 -0.1756  0.3917 -0.0062
 4731W        W 8795   7.507   8.630   2.295  0.1250 -0.0379 -0.0384
 4732W        W 8796   7.743   2.499   7.642  0.0171 -0.0189  0.1780
 4733W        W 8797   9.616   4.292  10.019  0.0568 -0.1284  0.0426
 4734W        W 8798   4.929   5.394   1.787  0.0691 -0.0084  0.1578
 4735W        W 8799   3.432   7.806   9.788  0.1593 -0.1608  0.3241
 4736W        W 8800   3.575   9.993  11.573 -0.0164  0.0278  0.1019
 4737W        W 8801   7.725   2.288   3.070  0.1417 -0.2980 -0.1270
 4738W        W 8802   0.546   5.737   1.789  0.1404  0.4015 -0.0455
 4739W        W 8803   6.259   9.309  10.770 -0.1152  0.1176 -0.2059
 4740W        W 8804   2.037   8.343   1.110  0.2039  0.2126  0.2474
 4741W        W 8805   5.011   2.553  11.462 -0.0078 -0.1018 -0.0221
 4742W        W 8806  10.619   1.010   3.667  0.1070 -0.0169 -0.2754
 4743W        W 8807   7.077   8.184  10.956  0.2990 -0.2372  0.1566
 4744W        W 8808   6.308   6.623   9.698 -0.2410 -0.2400 -0.4294
 4745W        W 8809   3.146   0.441   9.585 -0.1819 -0.2176  0.1538
 4746W        W 8810   8.252   7.152   2.306  0.2197 -0.2194 -0.5124
 4747W        W 8811  10.431   4.970   1.398 -0.0592 -0.0423 -0.3119
 4748W        W 8812   2.853   6.942   3.109  0.0293 -0.2448 -0.0574
 4749W        W 8813   5.069   8.163   2.321  0.0843  0.0866  0.1150
 4750W        W 8814   1.296   8.082   0.449  0.0868  0.0498 -0.1716
 4751W        W 8815   5.246   8.849   9.669  0.1638  0.1284  0.1911
 4752W        W 8816   8.471   5.788   9.849 -0.1927 -0.1264 -0.1313
 4753W        W 8817   3.562   2.234   8.555 -0.2641 -0.1100  0.0780
 4754W        W 8818   6.547   9.192  11.565  0.3806 -0.0028 -0.1419
 4755W        W 8819   7.706   5.898  10.493 -0.1661  0.0370 -0.1760
 4756W        W 8820   3.592   5.372  10.593 -0.4325  0.1064 -0.2434
 4757W        W 8821   9.809   6.976   9.253 -0.1764 -0.2091  0.0043
 4758W        W 8822  10.476   3.479   9.663 -0.0961 -0.2240  0.0621
 4759W        W 8823   8.872   8.931   2.753 -0.0137 -0.2834  0.0546
 4760W        W 8824   9.491   2.331   2.154  0.0001 -0.1271 -0.3516
 4761W        W 8825   0.957   8.932   9.634  0.1142  0.0379 -0.0435
 4762W        W 8826   4.316   6.045  10.780  0.0667 -0.0644  0.1221
 4763W        W 8827   8.102   3.800  11.191  0.0075 -0.1126 -0.0847
 4764W        W 8828   7.156   0.519   9.664  0.4847  0.1762 -0.0766
 4765W        W 8829   0.115   0.335  10.724 -0.0879  0.1318 -0.0150
 4766W        W 8830   6.398   6.650  10.683 -0.0336  0.1651 -0.0766
 4767W        W 8831   1.465   6.172   3.576  0.1251 -0.4826  0.0896
 4768W        W 8832   8.454   7.626  10.534 -0.0173 -0.0401  0.0824
 4769W        W 8833   5.601   7.666  10.025  0.0615 -0.1539  0.1551
 4770W        W 8834   1.862   7.308  10.469 -0.2334  0.0426 -0.0360
 4771W        W 8835   0.464  10.633   2.997 -0.1223 -0.1807  0.2302
 4772W        W 8836   2.702   8.093   2.332 -0.0464 -0.1175 -0.1922
 4773W        W 8837   8.389  10.278   4.234 -0.3586 -0.2622 -0.0688
 4774W        W 8838   8.536   4.109   3.535 -0.0322  0.2234 -0.0389
 4775W        W 8839   1.888   4.699   1.264 -0.0480  0.0307 -0.4884
 4776W        W 8840   4.128   8.349  11.316  0.0485  0.1961  0.2372
 4777W        W 8841   8.478   3.829   8.656  0.3701 -0.1145  0.0124
 4778W        W 8842   9.170   5.733   9.275 -0.0252 -0.3621 -0.0956
 4779W        W 8843   9.981   2.106   9.453 -0.1017  0.3192 -0.0137
 4780W        W 8844   1.737   7.676  10.050  0.0445  0.1334 -0.0040
 4781W        W 8845   4.527   3.945   9.615 -0.0772 -0.4127 -0.0220
 4782W        W 8846   5.381   5.924   2.569 -0.1538 -0.2104  0.0494
 4783W        W 8847   3.956   4.861   1.317  0.0797  0.3313 -0.0200
 4784W        W 8848  10.210  10.552   9.741 -0.1643  0.0484  0.2884
 4785W        W 8849   5.639  10.053   9.204  0.2218  0.1140 -0.1207
 4786W        W 8850   1.730   6.547   9.730 -0.1012 -0.0779 -0.4802
 4787W        W 8851   5.664   0.705  11.558 -0.2306  0.0613 -0.2420
 4788W        W 8852   1.254   7.378   3.713 -0.2337 -0.0939  0.1428
 4789W        W 8853   0.517   2.584   0.861  0.2774 -0.1289  0.2396
 4790W        W 8854   8.157   8.033  10.224 -0.3152  0.0754  0.2011
 4791W        W 8855   8.175   2.138  10.565 -0.3425 -0.0178  0.4335
 4792W        W 8856   2.259   3.365   8.381 -0.0939 -0.1115 -0.0386
 4793W        W 8857   7.489   0.965   2.479 -0.1928 -0.0294  0.3622
 4794W        W 8858   5.835   9.292   2.673 -0.0827 -0.2756  0.3352
 4795W        W 8859   2.919  10.194   2.560 -0.0651 -0.2259  0.3091
 4796W        W 8860   6.378   2.427   2.223 -0.2746 -0.0128 -0.1386
 4797W        W 8861   8.076   3.337   1.355  0.1887  0.2110 -0.1350
 4798W        W 8862   4.743   5.703  10.609 -0.3262 -0.0524  0.0803
 4799W        W 8863   2.460   3.180  10.770 -0.4456  0.1258  0.2445
 4800W        W 8864   9.314   4.071   1.168  0.1066  0.0491 -0.1920
 4801W        W 8865   3.646   2.690   3.239  0.0059 -0.1005  0.1318
 4802W        W 8866   0.930   6.011   1.208  0.0984  0.1549  0.2658
 4803W        W 8867   6.191   1.656   3.668 -0.2093  0.1859 -0.2794
 4804W        W 8868   4.527   8.398   8.342 -0.0177 -0.3056  0.2185
 4805W        W 8869   8.523   1.965  11.480 -0.1851 -0.3782 -0.2026
 4806W        W 8870   0.917   8.257  10.115 -0.0350 -0.1790  0.0856
 4807W        W 8871   0.981   5.443   7.872  0.0471  0.0674 -0.2023
 4808W        W 8872   3.722   9.577   1.573  0.3091  0.2333 -0.0565
 4809W        W 8873   9.356   3.993   9.709 -0.1191  0.0123  0.1156
 4810W        W 8874   1.117   6.464   8.985  0.2752  0.1161 -0.1234
 4811W        W 8875   9.215   5.343   2.007 -0.0179  0.2354 -0.2580
 4812W        W 8876   8.357  10.132   0.238 -0.4598  0.2578  0.1512
 4813W        W 8877   6.144   4.669   8.771  0.1625 -0.2224 -0.1414
 4814W        W 8878   6.290   2.772   2.847  0.0185 -0.1530 -0.0008
 4815W        W 8879   3.129   4.416  11.325  0.0076  0.2888  0.1052
 4816W        W 8880   4.485   1.995   9.637 -0.0295 -0.1488  0.0060
 4817W        W 8881   5.260   2.160   2.037 -0.1181  0.2552  0.0050
 4818W        W 8882   1.469   5.067   1.084 -0.0023 -0.1054  0.1562
 4819W        W 8883   7.140   0.460  11.127 -0.1361 -0.2511  0.2505
 4820W        W 8884   7.845   4.124   1.463  0.3122  0.2724 -0.0021
 4821W        W 8885   6.958   0.408   2.518 -0.0962 -0.4267  0.1680
 4822W        W 8886   8.792   3.959  10.303 -0.2369 -0.3349 -0.3674
 4823W        W 8887  10.480  10.297  10.132  0.0080 -0.0683  0.1619
 4824W        W 8888   9.620   3.062   8.513  0.0183  0.1146  0.2128
 4825W        W 8889   7.403   6.800   2.849 -0.0224 -0.0200  0.0080
 4826W        W 8890   0.413   7.215  11.429 -0.0123 -0.2728 -0.0438
 4827W        W 8891   2.014   6.559  10.129  0.1854 -0.0877 -0.0286
 4828W        W 8892   9.267  10.612   8.998 -0.1584  0.4965  0.0041
 4829W        W 8893   0.322   2.175  10.211  0.0511  0.2667 -0.0269
 4830W        W 8894   6.764   5.678   2.829  0.1717  0.1923 -0.1669
 4831W        W 8895   8.887   5.875   2.951 -0.1062  0.1795  0.1233
 4832W        W 8896   1.733   9.536   0.675 -0.4094  0.0499  0.0691
 4833W        W 8897   3.766   7.250   9.011  0.1240 -0.0380  0.3396
 4834W        W 8898   1.592   8.687  11.002 -0.0639 -0.1835  0.1735
 4835W        W 8899   1.639   0.986   9.950  0.0122 -0.4215  0.1710
 4836W        W 8900   7.310   9.873   0.881  0.1025  0.1564 -0.4030
 4837W        W 8901   7.595   0.349   1.713 -0.2045 -0.0984  0.1689
 4838W        W 8902   2.625   4.406   3.803 -0.1773  0.0390  0.0074
 4839W        W 8903   1.823   9.783  10.961  0.0101  0.1648  0.2052
 4840W        W 8904  10.121   5.031   9.070  0.1907  0.2351 -0.0153
 4841W        W 8905  10.098   2.582  11.580 -0.2699  0.2527 -0.0604
 4842W        W 8906   1.662   4.008  10.032  0.1705 -0.0157 -0.2061
 4843W        W 8907   3.018   3.153   0.761  0.4567 -0.1522 -0.0880
 4844W        W 8908  10.031   9.704   3.985 -0.2832  0.1498 -0.2699
 4845W        W 8909   2.895   2.177   7.193 -0.1027 -0.3170  0.0973
 4846W        W 8910   7.365   6.201  10.541 -0.2185 -0.1683 -0.0153
 4847W        W 8911   3.942   4.292   3.577 -0.2738 -0.0461  0.2757
 4848W        W 8912   1.143   8.603  11.277 -0.0498  0.1538 -0.3812
 4849W        W 8913   3.462   1.850   1.292 -0.3335  0.1165 -0.0504
 4850W        W 8914   0.547   1.706   0.917  0.0941 -0.2102 -0.0485
 4851W        W 8915   2.492  10.468   1.795  0.1884 -0.0423 -0.1286
 4852W        W 8916   6.052  10.115   0.760 -0.2581  0.1570 -0.0361
 4853W        W 8917   6.641   7.962   9.945 -0.1054 -0.0605  0.2161
 4854W        W 8918   6.030   8.204   1.397  0.1212 -0.0516  0.0160
 4855W        W 8919   0.488   0.426   9.422  0.0534  0.0930 -0.1874
 4856W        W 8920   3.175   7.067   1.774  0.2548  0.0889 -0.0218
 4857W        W 8921   9.398   1.695  10.909  0.0950  0.1286  0.1414
 4858W        W 8922   8.671   1.241   2.661  0.0425  0.4358  0.0232
 4859W        W 8923   2.955   3.774   8.151  0.3278 -0.1921  0.1943
 4860W        W 8924   6.761   6.812   9.495  0.1453  0.5162 -0.1166
 4861W        W 8925   5.287   5.184   1.452  0.4589  0.2942 -0.2071
 4862W        W 8926   6.347   1.936  10.473 -0.1848  0.1116  0.1584
 4863W        W 8927   3.001   6.878   8.766  0.2146  0.0275  0.1500
 4864W        W 8928   2.934   7.518   3.016  0.0928 -0.1457 -0.1300
 4865W        W 8929   2.073   6.779   2.214 -0.0628  0.1030 -0.1359
 4866W        W 8930   7.077   6.763   3.736  0.0569  0.0430  0.0378
 4867W        W 8931   3.116   6.524   1.822  0.0850  0.0198 -0.0842
 4868W        W 8932   9.792   8.344   2.179  0.1085  0.0236  0.3122
 4869W        W 8933   6.306   3.967  11.255  0.0071 -0.2159  0.1406
 4870W        W 8934   7.719   5.184   1.403 -0.2809 -0.1842  0.2373
 4871W        W 8935   1.198   5.111   8.764  0.0363  0.1612 -0.2007
 4872W        W 8936   6.501  10.350   1.669 -0.2914  0.0949  0.1144
 4873W        W 8937   5.727  10.131   2.933  0.0988  0.1567 -0.1808
 4874W        W 8938   8.123   7.550   2.069  0.1534  0.0563  0.0319
 4875W        W 8939   9.065   4.653   1.376  0.0532 -0.0340  0.2172
 4876W        W 8940   9.373  10.161   8.701  0.1224  0.0509  0.1091
 4877W        W 8941   9.570   1.929   1.440  0.1201 -0.0820 -0.0784
 4878W        W 8942   9.091   9.016   7.840 -0.2035 -0.4433  0.3246
 4879W        W 8943   9.786   4.875   1.338  0.1673 -0.1569  0.1178
 4880W        W 8944   4.836   8.813   1.125 -0.0016 -0.2172  0.2434
 4881W        W 8945   5.883   0.440   3.804  0.3195  0.0721 -0.1611
 4882W        W 8946   4.676  10.096   2.843  0.1991 -0.2089 -0.0656
 4883W        W 8947   3.896   0.559   2.933 -0.1214  0.0901  0.1527
 4884W        W 8948   9.556   6.409   2.586  0.0488 -0.0245 -0.0429
 4885W        W 8949   7.366   3.925   0.478 -0.0146  0.0445 -0.1106
 4886W        W 8950   0.968   3.225   0.188 -0.0872  0.1320 -0.2020
 4887W        W 8951   2.425   2.851   2.526 -0.2366 -0.1388 -0.1814
 4888W        W 8952   6.706   4.062   9.380  0.0017  0.3394 -0.1843
 4889W        W 8953   0.067   4.373   0.607  0.1594 -0.0361 -0.0998
 4890W        W 8954   4.053   7.863   3.131 -0.1388 -0.4108  0.1675
 4891W        W 8955   9.429   8.228   1.045  0.0301 -0.3216 -0.2245
 4892W        W 8956   9.215   2.696   2.378  0.2366  0.3444  0.1598
 4893W        W 8957   0.987   0.900   8.285 -0.2570  0.0698  0.0814
 4894W        W 8958  10.472   9.466   9.909  0.0662 -0.1590 -0.0345
 4895W        W 8959   5.083   2.365   1.508 -0.0961 -0.0494  0.0163
 4896W        W 8960  10.066   6.163   9.670 -0.1301 -0.0452  0.0819
 4897W        W 8961   9.218   2.526  10.845  0.3302 -0.2009  0.1319
 4898W        W 8962   3.884   1.009   0.457 -0.1105  0.3412  0.0362
 4899W        W 8963   7.771   1.951   0.095  0.1277  0.1299  0.1480
 4900W        W 8964   3.595   8.263   9.958 -0.1306  0.1947 -0.2573
 4901W        W 8965   1.557   7.402   2.792 -0.0029  0.1100  0.4518
 4902W        W 8966   3.557   7.874  10.785 -0.0086 -0.0370 -0.1480
 4903W        W 8967   5.778   7.529   3.223  0.1793  0.2760  0.1672
 4904W        W 8968   4.387   8.535   3.642 -0.3894  0.0001 -0.0450
 4905W        W 8969  10.408   9.098   8.988 -0.1093 -0.0634 -0.2957
 4906W        W 8970   7.457   4.855   9.732  0.0376 -0.1005 -0.0494
 4907W        W 8971   8.851  10.442   9.850 -0.1777  0.1933  0.1125
 4908W        W 8972   9.708   9.855   1.373  0.0350 -0.1683 -0.0388
 4909W        W 8973   5.575   5.186   2.859 -0.0371  0.1863 -0.2058
 4910W        W 8974   5.263   4.558  10.859 -0.2516  0.0309  0.2127
 4911W        W 8975  10.317   6.847   9.270 -0.4270 -0.1013 -0.5244
 4912W        W 8976   4.867   9.228   7.940  0.0949 -0.0032 -0.0129
 4913W        W 8977   9.041   7.862   8.982 -0.0056  0.1578  0.2100
 4914W        W 8978   3.522   6.913   8.553  0.0443  0.0208  0.1594
 4915W        W 8979   3.425  10.397   3.192 -0.0058  0.0775  0.1717
 4916W        W 8980   3.597   7.627   2.198 -0.3466 -0.1869 -0.1631
 4917W        W 8981   0.852   4.433   8.078  0.1032  0.2604  0.1333
 4918W        W 8982   6.457   3.684   9.099  0.0471  0.3119 -0.1704
 4919W        W 8983   7.202   0.014   2.797 -0.1062  0.3847  0.0002
 4920W        W 8984   8.080   0.195   9.529 -0.2490 -0.0169  0.1839
 4921W        W 8985   3.497   7.810  10.307 -0.1008 -0.1048 -0.0920
 4922W        W 8986   6.810   4.459   9.142 -0.0259 -0.2173 -0.0954
 4923W        W 8987   8.975   5.720  10.581 -0.0258  0.1018  0.2204
 4924W        W 8988   3.358   3.061   1.043  0.2684  0.2658  0.1239
 4925W        W 8989   0.852   9.498  10.729 -0.2261  0.1781 -0.2666
 4926W        W 8990   3.045   9.647   2.790 -0.2938  0.1658  0.0417
 4927W        W 8991   4.912   3.928  10.140  0.0044 -0.1842  0.3076
 4928W        W 8992   3.932   0.444   2.418 -0.0649  0.3174  0.1405
 4929W        W 8993   0.185   8.107   9.233  0.1392  0.0478 -0.2485
 4930W        W 8994   5.464  10.498   9.405 -0.0459 -0.0585  0.2638
 4931W        W 8995  10.198   4.144   0.945 -0.4296  0.0012 -0.0106
 4932W        W 8996   5.200   4.594   1.575 -0.3179 -0.2162 -0.2581
 4933W        W 8997   2.066   9.352   1.027  0.0387  0.1723 -0.1499
 4934W        W 8998   9.803   5.546   9.207 -0.3856 -0.0669  0.0562
 4935W        W 8999   1.610   4.321   9.197  0.0032  0.1571 -0.0532
 4936W        W 9000   4.983   4.023   1.512 -0.1704 -0.1427  0.0764
 4937W        W 9001  10.044   8.643   8.916  0.0376  0.3057  0.0168
 4938W        W 9002  10.475   8.626   0.438 -0.2215 -0.0190  0.3303
 4939W        W 9003   6.704   9.021   9.955 -0.0137 -0.2427 -0.0429
 4940W        W 9004   0.062   2.018   0.408 -0.0558 -0.1668 -0.0133
 4941W        W 9005   9.572   9.752   3.911 -0.1917  0.0502 -0.0780
 4942W        W 9006   4.886   0.392   0.236  0.0026  0.3770  0.0964
 4943W        W 9007   4.322   8.744   2.730  0.1767 -0.0679 -0.2714
 4944W        W 9008   0.658   1.631   7.780  0.0499  0.3627  0.2545
 4945W        W 9009   5.005   4.024   0.983 -0.0566 -0.2641 -0.1613
 4946W        W 9010   7.041   5.250   2.972  0.1842  0.2986  0.1296
 4947W        W 9011   4.956   4.765   2.633 -0.0660 -0.2010  0.1884
 4948W        W 9012   9.956   1.993   2.771  0.2070  0.1378 -0.1135
 4949W        W 9013   7.587   6.970   9.541 -0.3475 -0.3799 -0.0473
 4950W        W 9014   3.255   3.552   0.971 -0.3244 -0.1634  0.1584
 4951W        W 9015   8.856   4.726   0.098  0.0853  0.0124 -0.0862
 4952W        W 9016   5.457   2.505  10.343  0.1668 -0.2075  0.2716
 4953W        W 9017   5.029   3.064   8.715  0.0191 -0.2314  0.0049
 4954W        W 9018   8.722   9.396  11.465  0.1412  0.1525 -0.1802
 4955W        W 9019   4.878   3.642   1.910  0.0434 -0.1363  0.2056
 4956W        W 9020   6.058   8.668   0.709 -0.2617 -0.2404 -0.1100
 4957W        W 9021   5.291   8.030  10.224 -0.1840 -0.0674 -0.1175
 4958W        W 9022   4.458   5.499   9.666  0.1748 -0.0223  0.0373
 4959W        W 9023   6.107   7.858   9.716 -0.2698  0.1346  0.0253
 4960W        W 9024   6.113   4.252   1.711 -0.2797 -0.0876 -0.2095
 4961W        W 9025   9.547   6.448   9.474 -0.3231  0.0774  0.1430
 4962W        W 9026   7.987   0.034   3.734  0.1787  0.2982 -0.0881
 4963W        W 9027   5.540  10.328   1.678 -0.0825  0.2751  0.1195
 4964W        W 9028   9.311   6.817  11.337  0.0828  0.0717  0.0753
 4965W        W 9029   8.443   5.685   0.062  0.2999 -0.0689 -0.1886
 4966W        W 9030   1.927   8.220   8.345 -0.0098 -0.0401 -0.1123
 4967W        W 9031   9.848   1.120   1.657 -0.1595  0.0133 -0.2391
 4968W        W 9032   0.697   9.897   3.456  0.1743  0.0304 -0.0990
 4969W        W 9033   4.988   9.416   2.997 -0.0655 -0.1841 -0.2084
 4970W        W 9034   7.919   9.553  10.925  0.1391 -0.1288 -0.0011
 4971W        W 9035   4.423   6.025   3.360  0.2717  0.0373 -0.0170
 4972W        W 9036   0.065   2.950   0.679  0.3210 -0.1334  0.1719
 4973W        W 9037   6.678   7.383   8.075 -0.2278  0.5230  0.2333
 4974W        W 9038   2.552   4.719   0.197  0.0574 -0.1392  0.0695
 4975W        W 9039   7.203   7.988  11.398  0.0330 -0.1000  0.0700
 4976W        W 9040   5.952   8.198   0.772  0.0174  0.0400  0.0086
 4977W        W 9041  10.554   7.359   1.361  0.3701  0.0963  0.2252
 4978W        W 9042   7.178   8.848   1.988 -0.2898  0.2902 -0.1809
 4979W        W 9043   8.850   9.827   2.454 -0.2242  0.1652 -0.0947
 4980W        W 9044   5.709   6.657   2.146 -0.0385 -0.0400  0.1411
 4981W        W 9045   8.676   1.212   7.792  0.2803  0.0288  0.3373
 4982W        W 9046   4.445  10.534   1.277 -0.1477 -0.3230  0.0693
 4983W        W 9047   0.036   8.411   2.625 -0.0281  0.2197  0.0659
 4984W        W 9048   0.338   4.483  10.483  0.0463 -0.1341 -0.0323
 4985W        W 9049   6.906  10.449   1.327  0.2526 -0.2230  0.1706
 4986W        W 9050   2.845   0.522   7.825 -0.0844  0.2379  0.0675
 4987W        W 9051   5.987   5.876  10.956 -0.3246  0.0194 -0.3365
 4988W        W 9052   8.936   2.793  10.510 -0.0092  0.1553  0.1609
 4989W        W 9053   1.927   7.384   8.205 -0.0447 -0.0307 -0.1654
 4990W        W 9054   0.078   4.451   2.135  0.0995 -0.0462  0.0785
 4991W        W 9055   2.844   3.740   3.648 -0.1880 -0.0418 -0.3395
 4992W        W 9056   1.523   1.885  10.353 -0.0250  0.0796  0.2233
 4993W        W 9057   0.346   3.919   7.663  0.2337 -0.0369 -0.0646
 4994W        W 9058   7.173   0.204   1.849  0.0648  0.1318 -0.0697
 4995W        W 9059   3.908   8.546   9.011 -0.1565 -0.1153  0.1093
 4996W        W 9060   9.801   3.203  10.724 -0.1307  0.4352 -0.0760
 4997W        W 9061   7.928   5.698   8.748 -0.2031 -0.2128  0.1063
 4998W        W 9062   0.948   4.728   2.437  0.7116 -0.1443  0.2822
 4999W        W 9063   6.277   5.679   9.593  0.1174 -0.0597 -0.4237
 5000W        W 9064   4.845   2.844   0.664 -0.3450 -0.0992  0.0985
 5001W        W 9065   8.322   9.607   9.482 -0.3614  0.2946  0.0691
 5002W        W 9066   6.850   2.132   9.415 -0.3633  0.2869  0.3442
 5003W        W 9067   3.672   4.996   0.475  0.1196 -0.0971 -0.0752
 5004W        W 9068   1.157   4.818   7.740 -0.0991  0.2078 -0.0621
 5005W        W 9069   3.351   9.524   1.217  0.0556 -0.2867 -0.0209
 5006W        W 9070   6.092  10.410   9.143 -0.0823 -0.3410  0.0185
 5007W        W 9071  10.212   9.135   3.211 -0.1159 -0.3498 -0.1523
 5008W        W 9072   7.268   4.657   9.194  0.0212  0.2507  0.1628
 5009W        W 9073   2.371   8.241   3.595 -0.2204 -0.2255 -0.0535
 5010W        W 9074   1.810   7.594   2.201 -0.0984 -0.3078 -0.2344
 5011W        W 9075   6.534   3.280   8.256 -0.1817  0.2034 -0.2209
 5012W        W 9076  10.369   2.709   7.565 -0.2960 -0.0692 -0.1306
 5013W        W 9077   1.001   9.881   3.052 -0.1103 -0.0763 -0.1786
 5014W        W 9078   6.004   9.616  11.481 -0.1273 -0.0394  0.2233
 5015W        W 9079   5.136   4.209   3.023  0.2652  0.1939  0.0446
 5016W        W 9080  10.349   2.653   2.437 -0.0651  0.0871  0.2809
 5017W        W 9081   3.307   3.264  11.071  0.1446 -0.0176 -0.1737
 5018W        W 9082   2.901   9.063   9.166  0.0330 -0.1831 -0.0791
 5019W        W 9083   8.010  10.250   1.519 -0.2989  0.0994  0.0309
 5020W        W 9084   0.128   7.398   2.145  0.0987 -0.0994 -0.1512
 5021W        W 9085   4.964   2.469   2.342  0.4397 -0.2241 -0.0560
 5022W        W 9086   7.239   0.522   0.842 -0.2051  0.2107 -0.5103
 5023W        W 9087   3.063   4.852   8.368  0.1391 -0.0427 -0.0699
 5024W        W 9088   8.887   7.072   1.176 -0.0042 -0.0425 -0.1633
 5025W        W 9089   5.720   1.820   1.856 -0.1567 -0.0898 -0.0916
 5026W        W 9090   2.966   0.019  11.293 -0.0285  0.1917 -0.1183
 5027W        W 9091   5.691   6.966   1.749 -0.1394  0.1776 -0.3424
 5028W        W 9092  10.144   1.022   9.050 -0.0506  0.3510 -0.0612
 5029W        W 9093   3.432   0.861   0.115 -0.0422  0.0769  0.1340
 5030W        W 9094   0.138   2.224   1.685 -0.0214 -0.0926  0.1462
 5031W        W 9095   7.330   8.997  10.455  0.4244 -0.2779  0.0425
 5032W        W 9096   2.872   0.170   0.588  0.1297  0.1559  0.2187
 5033W        W 9097   5.323   2.168   0.261  0.3079 -0.0590 -0.2304
 5034W        W 9098   1.167   3.360   3.751  0.3108 -0.0246 -0.1074
 5035W        W 9099   1.094   7.024   1.069 -0.1499  0.3092 -0.0500
 5036W        W 9100   7.444   0.876   9.398 -0.1533  0.0179  0.0895
 5037W        W 9101   2.397  10.227   0.543 -0.0308  0.1366 -0.1106
 5038W        W 9102   5.212  10.625  10.487 -0.0886 -0.0919  0.0956
 5039W        W 9103   3.294   9.032   8.829  0.0916 -0.0773 -0.1228
 5040W        W 9104   3.747   2.316   1.257  0.2107 -0.1700  0.0481
 5041W        W 9105  10.536   0.723  10.986 -0.3212 -0.0609 -0.2219
 5042W        W 9106   5.497   1.519   1.393  0.0118  0.0961  0.1322
 5043W        W 9107   9.165   1.916  10.528  0.0071 -0.1795  0.3865
 5044W        W 9108   5.528   2.235   4.095 -0.5411  0.0123  0.2572
 5045W        W 9109   5.340   9.464   2.608  0.0193  0.1369 -0.3295
 5046W        W 9110   4.495   2.380   9.946 -0.2301  0.0478  0.0220
 5047W        W 9111   3.904   2.905   0.259 -0.0177 -0.1865 -0.1983
 5048W        W 9112   4.419   1.158  10.754  0.1857  0.1811  0.0266
 5049W        W 9113  10.561   3.177   3.192 -0.1010  0.0060 -0.3173
 5050W        W 9114  10.487   7.969   2.784 -0.0845 -0.1094 -0.2070
 5051W        W 9115   7.137   5.851   0.321  0.0256 -0.0997  0.6433
 5052W        W 9116   6.946  10.463   8.664 -0.1484  0.1637  0.0256
 5053W        W 9117   5.297   4.654   4.124 -0.1146  0.0364 -0.0556
 5054W        W 9118   9.616   2.022  10.544 -0.0679  0.0299  0.2879
 5055W        W 9119   9.133   7.627   2.365  0.2911 -0.2452 -0.0510
 5056W        W 9120   9.970   1.933  10.168  0.0083  0.2778  0.1625
 5057W        W 9121   5.614   2.507   0.624  0.0302  0.1138 -0.0464
 5058W        W 9122   2.732   1.744   9.512  0.1072  0.1214  0.1627
 5059W        W 9123  10.493   0.793  11.552 -0.0452 -0.0958  0.0322
 5060W        W 9124   2.064   8.983  11.505 -0.4351  0.0697  0.1641
 5061W        W 9125   6.264   2.829   1.125  0.1340 -0.1543 -0.2677
 5062W        W 9126   0.496   8.610   1.756 -0.0553  0.2709  0.0391
 5063W        W 9127   8.157   1.552   0.371 -0.1558  0.4662  0.2608
 5064W        W 9128   2.122   4.051  10.983  0.2307  0.0360  0.2082
 5065W        W 9129   8.179   5.755   1.022 -0.1325 -0.1541  0.0999
 5066W        W 9130   9.847   2.262   8.417 -0.2039  0.2417 -0.0855
 5067W        W 9131  10.236   5.602   0.126  0.3178  0.2825  0.3988
 5068W        W 9132   0.995   8.339   8.302  0.1388 -0.0633  0.3385
 5069W        W 9133   5.222   0.683   1.125 -0.1876 -0.0358  0.0576
 5070W        W 9134  10.025   8.685   1.027  0.0058 -0.0031 -0.0979
 5071W        W 9135   6.109   2.054   9.689  0.1253 -0.3636 -0.0133
 5072W        W 9136   0.840   2.382   3.293 -0.1227 -0.1747  0.2968
 5073W        W 9137   0.084   6.361  11.390  0.0160  0.0324 -0.2090
 5074W        W 9138   2.953   0.055   9.878 -0.0596 -0.0895 -0.1111
 5075W        W 9139  10.443   6.890   2.456 -0.0939 -0.1737  0.4324
 5076W        W 9140   8.260   8.229   1.163  0.1866 -0.1254 -0.2425
 5077W        W 9141   1.604  10.316   8.325  0.1839  0.1493  0.1982
 5078W        W 9142   1.148   5.604   1.011  0.0862 -0.0235 -0.1564
 5079W        W 9143   7.993   5.553   0.378 -0.0811  0.0501  0.1706
 5080W        W 9144   4.637   6.386   9.997  0.0599  0.0890  0.3975
 5081W        W 9145   1.089   7.195   0.070  0.0043  0.1024  0.0652
 5082W        W 9146   2.415   3.356   1.458 -0.4019  0.2401  0.1514
 5083W        W 9147   8.022   1.842   1.243  0.1702  0.0381 -0.2444
 5084W        W 9148   0.495   6.111   0.766  0.0222  0.1352 -0.0621
 5085W        W 9149   5.934   8.346   0.243 -0.1722  0.0158  0.1855
 5086W        W 9150   1.038   8.084   0.907 -0.1452 -0.3506 -0.0877
 5087W        W 9151   2.960   3.299  10.702  0.0145 -0.1778 -0.0625
 5088W        W 9152   6.874   9.440   1.567  0.2095  0.0248  0.1038
 5089W        W 9153   2.536   6.359   9.621  0.0295  0.0463 -0.5914
 5090W        W 9154   7.245   6.667   8.167  0.0093 -0.3104  0.0173
 5091W        W 9155   3.503   3.165   7.544  0.2334 -0.1370  0.0229
 5092W        W 9156   1.056   2.696   9.882 -0.0228  0.2267 -0.4439
 5093W        W 9157   4.720   4.272   2.723 -0.0602 -0.1148  0.1357
 5094W        W 9158   1.738   3.403   0.492 -0.0159  0.0519  0.0327
 5095W        W 9159   3.555   2.651   3.847  0.1678 -0.1241  0.2411
 5096W        W 9160   4.855   2.751   3.230  0.0126 -0.0229  0.0234
 5097W        W 9161   0.332   2.636  11.214  0.1826  0.2496  0.0646
 5098W        W 9162   8.579   1.889   0.714  0.3785  0.2748 -0.0439
 5099W        W 9163   5.645   9.276   7.901 -0.1163  0.0859  0.0720
 5100W        W 9164   9.003   1.405   0.611 -0.0437 -0.0483 -0.0252
 5101W        W 9165   7.562   7.009  11.345 -0.0971  0.0825  0.4109
 5102W        W 9166   3.730   3.800  10.446  0.2352 -0.2578  0.1746
 5103W        W 9167  10.087   7.156   1.540  0.3373 -0.1149  0.0470
 5104W        W 9168   5.969   5.745   8.734 -0.1110 -0.2220 -0.0175
 5105W        W 9169   4.133   1.475   2.673 -0.0378 -0.1958 -0.0665
 5106W        W 9170   6.547   4.599  10.619 -0.0511 -0.2181  0.0878
 5107W        W 9171   4.698   2.878   4.171  0.0214 -0.0063 -0.0655
 5108W        W 9172   7.018   6.187  10.949 -0.0719 -0.2841  0.1458
 5109W        W 9173   2.923   6.959   4.002 -0.1899  0.1233 -0.1462
 5110W        W 9174   6.081   3.020   9.740  0.0200  0.1465 -0.1721
 5111W        W 9175   5.815   9.440  10.989 -0.0955  0.2345  0.1416
 5112W        W 9176   0.430   8.929   9.545 -0.0423 -0.0123 -0.2336
 5113W        W 9177   9.248   9.608  11.472 -0.0359 -0.0945  0.0369
 5114W        W 9178   5.987  10.187   2.493 -0.1847 -0.2245 -0.2093
 5115W        W 9179   8.563   3.000   0.064  0.2258 -0.1607 -0.1204
 5116W        W 9180   0.999   2.415   2.287 -0.1564  0.1662 -0.0852
 5117W        W 9181   6.436   4.566   3.866  0.0010 -0.0540  0.3831
 5118W        W 9182   4.469   7.404   8.479  0.2121  0.0095  0.3594
 5119W        W 9183   6.652   5.449   2.390 -0.1423  0.0479 -0.1479
 5120W        W 9184   3.130   3.827   9.483  0.3605  0.2000 -0.0012
 5121W        W 9185   4.608   6.229   9.042 -0.0654 -0.0679  0.1442
 5122W        W 9186   9.127   6.240   9.201  0.2041  0.2219  0.0916
 5123W        W 9187   9.250   9.128   0.789  0.2314 -0.2137  0.0737
 5124W        W 9188   5.422   6.850  11.397 -0.0133  0.0216  0.1283
 5125W        W 9189   3.390   0.452  10.577 -0.0911  0.1261  0.2138
 5126W        W 9190   5.461   9.275   1.682  0.2646  0.0825 -0.0625
 5127W        W 9191   8.490   1.871   8.215 -0.1310 -0.0291 -0.0785
 5128W        W 9192   9.384   7.342   2.835  0.2304  0.0141  0.0551
 5129W        W 9193   0.527   2.597   0.352 -0.5116 -0.0137  0.0881
 5130W        W 9194   8.009  10.310  11.511 -0.1466  0.3723 -0.1470
 5131W        W 9195   2.868  10.028   8.526 -0.2144 -0.1357  0.1839
 5132W        W 9196   7.963   1.716   7.044 -0.0665 -0.0590  0.0464
 5133W        W 9197   0.960   3.161  10.042 -0.2660 -0.0313 -0.0858
 5134W        W 9198   2.160   1.806   1.393 -0.0584  0.1260 -0.1210
 5135W        W 9199   5.452   1.482   3.026  0.2564 -0.0148  0.0080
 5136W        W 9200   7.431   4.389   2.522 -0.3403 -0.2458  0.0354
 5137W        W 9201   6.352   6.008   9.067  0.2672 -0.0936  0.3383
 5138W        W 9202   4.117   7.646   8.734 -0.1130 -0.2120  0.2669
 5139W        W 9203   4.814   2.200   0.209 -0.0768 -0.1924  0.4290
 5140W        W 9204   2.822   7.310  10.361 -0.0084 -0.1324 -0.0130
 5141W        W 9205   6.696   2.165  10.874  0.0938  0.0125 -0.2486
 5142W        W 9206   0.843   2.645   1.204 -0.1174  0.3939 -0.0285
 5143W        W 9207   0.596   9.681  11.527 -0.1824  0.2272 -0.3513
 5144W        W 9208   2.554   2.816   3.005 -0.0043 -0.2199  0.0013
 5145W        W 9209   5.444   6.695   9.823  0.1228 -0.1456 -0.5842
 5146W        W 9210   5.633   7.773   1.372 -0.2830 -0.0168 -0.0767
 5147W        W 9211  10.020   9.583   0.908 -0.0531  0.4966  0.2451
 5148W        W 9212   9.194   2.440   8.303 -0.3527 -0.1691  0.1446
 5149W        W 9213   4.026   1.004   3.439 -0.2025 -0.1077  0.0466
 5150W        W 9214   9.612   8.853   3.394 -0.0326 -0.1776 -0.2366
 5151W        W 9215   2.455   2.741  11.034  0.0420  0.0235 -0.1819
 5152W        W 9216   8.876   3.620   8.942 -0.2245 -0.1430  0.0829
 5153W        W 9217   9.502   5.749  10.650  0.0419 -0.0525  0.1010
 5154W        W 9218   1.469   0.755   1.051 -0.2458 -0.2450 -0.1234
 5155W        W 9219   1.902   5.563  10.721 -0.0631  0.2618  0.1998
 5156W        W 9220   1.525   8.388   7.444  0.0435  0.0468 -0.0585
 5157W        W 9221   8.053  10.014   7.751 -0.2144  0.0813  0.0827
 5158W        W 9222   8.933   4.724   8.172 -0.3259 -0.1093 -0.0837
 5159W        W 9223   3.737   1.386   8.072  0.0676  0.1705 -0.0036
 5160W        W 9224   1.218   2.290   1.390  0.1099  0.1386  0.1037
 5161W        W 9225   3.645  10.452   0.313  0.3157 -0.1248 -0.0152
 5162W        W 9226   2.372   2.357  11.376  0.1743 -0.1318  0.0260
 5163W        W 9227   7.386  10.298   8.419 -0.2889 -0.2215 -0.4347
 5164W        W 9228   1.569   5.109   3.206  0.1968  0.1586 -0.1379
 5165W        W 9229   6.225   5.374   3.582  0.0057  0.2356  0.1084
 5166W        W 9230   3.992   1.075  10.419 -0.2580 -0.1954  0.0817
 5167W        W 9231   8.151   1.510   2.380  0.1929 -0.3533 -0.0466
 5168W        W 9232   8.519   1.794  10.961 -0.0351  0.0330 -0.5837
 5169W        W 9233   8.821   3.189   7.635 -0.0567  0.1225 -0.4669
 5170W        W 9234  10.008   1.708  10.646  0.2973  0.0604  0.2880
 5171W        W 9235   9.160   0.859  11.505  0.2427  0.0639 -0.2738
 5172W        W 9236   1.989   9.970   0.665  0.1788  0.0893  0.1182
 5173W        W 9237   2.873   0.974   2.832 -0.0053  0.2012 -0.1245
 5174W        W 9238   7.095   3.027   1.764  0.0815 -0.1052  0.2768
 5175W        W 9239   7.334   3.192  10.953  0.2436 -0.0882 -0.0358
 5176W        W 9240   7.326   6.765  10.705 -0.0055 -0.1891 -0.0951
 5177W        W 9241   9.308   6.084   0.161  0.0075  0.2036  0.0911
 5178W        W 9242   3.370   1.136   3.899 -0.0415  0.2407  0.0126
 5179W        W 9243   9.296   5.360  11.028  0.1102 -0.2383 -0.1135
 5180W        W 9244   0.677   8.293  10.551  0.0047  0.1686  0.0967
 5181W        W 9245   6.279   7.434   0.835  0.0625  0.0705  0.1001
 5182W        W 9246   9.460   3.519   1.976  0.1372 -0.1119  0.0427
 5183W        W 9247   9.902   6.201   0.006  0.1647 -0.0638  0.0856
 5184W        W 9248   6.556   1.763   9.620 -0.0805 -0.0571  0.1687
 5185W        W 9249   1.621   2.217   4.430  0.1189  0.3494  0.3824
 5186W        W 9250   9.159   9.930  10.212 -0.2792 -0.0662  0.2897
 5187W        W 9251   1.061   6.771  10.343 -0.0748  0.1091  0.0045
 5188W        W 9252   3.525   1.738   9.797 -0.0742  0.0570  0.0175
 5189W        W 9253   5.498   1.691   8.049 -0.2065 -0.1248 -0.0432
 5190W        W 9254   4.940   1.698   2.156 -0.3051  0.2888 -0.1154
 5191W        W 9255   7.203   2.180   1.769 -0.1211 -0.0337 -0.1546
 5192W        W 9256   4.063  10.393   8.327  0.1284 -0.0132 -0.1759
 5193W        W 9257   6.536   1.903   7.821  0.1343  0.2052  0.0850
 5194W        W 9258   0.462   6.366   4.297  0.0019 -0.3522  0.0990
 5195W        W 9259   7.633   9.514   1.679 -0.2244 -0.0957  0.0629
 5196W        W 9260   3.318   1.165   1.769  0.0023 -0.2254 -0.0959
 5197W        W 9261   0.391   8.495   3.379  0.1532  0.0529  0.3047
 5198W        W 9262   2.144   5.897   2.745 -0.0827 -0.3660 -0.0578
 5199W        W 9263   0.555   2.267   2.462  0.1767 -0.1974 -0.2480
 5200W        W 9264   0.677   3.468   9.490  0.0204 -0.2786  0.0800
 5201W        W 9265   3.615   1.898   9.318 -0.1412  0.1687  0.2610
 5202W        W 9266   9.022   5.083   0.957  0.3609 -0.0561 -0.1646
 5203W        W 9267   0.649   5.178   2.510  0.2003  0.1898  0.1807
 5204W        W 9268   0.646   4.333  10.115  0.0047  0.0719 -0.1240
 5205W        W 9269  10.130   4.085   1.740  0.2883  0.0720  0.2044
 5206W        W 9270   3.881   4.819   3.361 -0.1909  0.1243 -0.1334
 5207W        W 9271   2.180   8.972   8.450  0.0764  0.3329  0.2121
 5208W        W 9272   2.342   9.054   4.193 -0.6363  0.0037 -0.1419
 5209W        W 9273   3.888   1.091  11.535  0.3694 -0.0399  0.0519
 5210W        W 9274   2.581   5.244   1.682  0.4478 -0.1528 -0.0276
 5211W        W 9275   7.135  10.029   3.585 -0.3152  0.1739 -0.0973
 5212W        W 9276   9.002   1.538  10.274  0.0854  0.2254  0.1588
 5213W        W 9277   2.895   9.520   0.860 -0.0220 -0.0082  0.2547
 5214W        W 9278   4.917   7.892  10.491  0.1451  0.3379 -0.0811
 5215W        W 9279   3.646   6.767  11.487  0.3101 -0.0558 -0.0027
 5216W        W 9280   4.756   5.827   0.820 -0.3562  0.0219 -0.3711
 5217W        W 9281  10.179   7.541   9.831 -0.0641  0.0530 -0.1089
 5218W        W 9282   6.801   3.228  11.026  0.0377  0.1108  0.0702
 5219W        W 9283  10.314   0.788   7.732  0.0963  0.4454 -0.1278
 5220W        W 9284   5.213   2.715   0.348  0.1473  0.0557  0.1854
 5221W        W 9285   0.379   2.836   9.167 -0.0463  0.0776  0.3531
 5222W        W 9286   6.076   1.156  10.581  0.0491  0.0290  0.0117
 5223W        W 9287   6.111   3.129   3.195 -0.3278  0.3045  0.2333
 5224W        W 9288   7.891   1.222   1.148  0.0621 -0.1515 -0.1436
 5225W        W 9289   5.470   4.125   1.107  0.2130 -0.0621  0.0116
 5226W        W 9290   6.324   0.703  10.773 -0.1735  0.5121 -0.0980
 5227W        W 9291   0.965   5.944   8.457 -0.2609 -0.1472  0.0471
 5228W        W 9292   6.744   6.779  10.979 -0.0278 -0.1639 -0.0813
 5229W        W 9293   3.927   9.114   8.341  0.3050 -0.2122  0.2207
 5230W        W 9294   5.024   5.728   3.415  0.1056  0.0299 -0.1736
 5231W        W 9295   6.200   1.534  10.858 -0.3500 -0.0253  0.0980
 5232W        W 9296   7.802   6.560   3.028  0.1448  0.1012  0.0947
 5233W        W 9297  10.357   3.426   8.081  0.0052  0.3457 -0.0223
 5234W        W 9298   7.347   4.242   0.884 -0.0821 -0.0733  0.0023
 5235W        W 9299   7.312   4.787   8.333  0.0122 -0.2782  0.5821
 5236W        W 9300   9.674   5.509  10.240 -0.1530 -0.0513  0.0967
 5237W        W 9301   6.531   4.771   3.446  0.1319  0.0119  0.0562
 5238W        W 9302   9.603   4.987   9.052  0.1492  0.2499  0.1554
 5239W        W 9303  10.427   5.885   2.413 -0.0272 -0.0624 -0.1631
 5240W        W 9304   6.829   6.093   8.447 -0.1433  0.0481  0.1627
 5241W        W 9305   0.871   1.927   1.628 -0.2148 -0.2359 -0.1003
 5242W        W 9306   7.643   9.397   0.014  0.2905 -0.0156 -0.0171
 5243W        W 9307   4.089   2.489   1.641  0.3927  0.4102 -0.2928
 5244W        W 9308   5.779   6.712   2.799 -0.0934  0.4170  0.1871
 5245W        W 9309   9.779   4.135   2.367 -0.4288  0.1218  0.3096
 5246W        W 9310   0.109   5.378   0.275  0.3282  0.1134  0.2635
 5247W        W 9311   8.556   6.563  11.511 -0.0533 -0.3848  0.5262
 5248W        W 9312   6.447   0.098   1.242  0.1145 -0.0423  0.0121
 5249W        W 9313   9.258   0.131   3.699 -0.2764 -0.1650  0.3755
 5250W        W 9314   9.589   7.752   1.591 -0.3076  0.0785  0.2772
 5251W        W 9315   8.258   5.240  10.352  0.1065 -0.0150  0.1330
 5252W        W 9316   3.229  10.263   6.622 -0.2769  0.2154  0.3164
 5253W        W 9317   9.494   7.761   3.592 -0.0753  0.3657 -0.1913
 5254W        W 9318   1.802   4.771   2.915 -0.0486 -0.0040 -0.1492
 5255W        W 9319   5.855   1.684  10.437 -0.0115  0.0161 -0.0121
 5256W        W 9320   8.179   3.259  11.284 -0.2303 -0.0496 -0.0384
 5257W        W 9321   4.920   0.042  10.099 -0.0409  0.0926 -0.0758
 5258W        W 9322   5.135   3.274   3.303  0.0019  0.2485 -0.1274
 5259W        W 9323   0.882   3.009   9.202  0.1586 -0.1734  0.0267
 5260W        W 9324   7.756   5.916   0.137  0.1092  0.1506  0.1432
 5261W        W 9325   2.305   6.252  10.495 -0.0275  0.2584  0.3453
 5262W        W 9326   1.805  10.384   9.494 -0.1229 -0.0936  0.3392
 5263W        W 9327   9.898   1.335  10.079 -0.4019 -0.1626 -0.3291
 5264W        W 9328   5.796   2.924   9.327  0.0756 -0.0279 -0.2025
 5265W        W 9329  10.125   6.329   4.092 -0.0387  0.1425 -0.1953
 5266W        W 9330   2.022   7.688   2.670 -0.1328 -0.2328  0.3422
 5267W        W 9331   3.560   2.243   7.807 -0.0793 -0.1400 -0.1251
 5268W        W 9332   9.778   9.217   1.740  0.1023 -0.0327  0.1955
 5269W        W 9333   0.548   8.427   9.277  0.1589  0.1831 -0.0897
 5270W        W 9334   7.190   0.943  10.928  0.0134 -0.0486  0.0072
 5271W        W 9335  10.544   9.332   1.570  0.0881 -0.0094 -0.1598
 5272W        W 9336   7.721   0.076   8.151 -0.1993  0.0690  0.0328
 5273W        W 9337   9.654   8.564   2.592 -0.0855 -0.0238 -0.2069
 5274W        W 9338  10.224   9.284   3.718 -0.0185  0.0322 -0.1824
 5275W        W 9339   2.947   3.608   9.883  0.0633  0.2270  0.0349
 5276W        W 9340   8.487   8.708   9.219  0.0574 -0.1124  0.1677
 5277W        W 9341   8.085   3.232   0.868 -0.1410 -0.3437  0.0630
 5278W        W 9342   8.524   2.004   9.954 -0.0468  0.0621 -0.1967
 5279W        W 9343   5.334   3.052  10.229 -0.0528  0.0940  0.4013
 5280W        W 9344   0.386   3.999   0.539  0.0093  0.1845  0.0954
 5281W        W 9345   8.869   2.126   9.512 -0.2105 -0.1212 -0.1448
 5282W        W 9346   7.560   8.279   9.159  0.2024 -0.4994 -0.0368
 5283W        W 9347   1.114   6.664   8.075 -0.1042 -0.0323  0.2646
 5284W        W 9348   6.081   5.878   1.280  0.1313 -0.1049  0.0195
 5285W        W 9349   7.227   8.994   3.464  0.1208 -0.0315 -0.1547
 5286W        W 9350   2.769   7.283   8.435 -0.0851 -0.0841 -0.0402
 5287W        W 9351  10.221   9.392  10.944 -0.0741 -0.3540 -0.4006
 5288W        W 9352   3.256   9.823   8.070  0.2384 -0.1895  0.0579
 5289W        W 9353   5.505   8.715   3.827 -0.0158 -0.0488 -0.0910
 5290W        W 9354   8.988  10.275  10.675  0.2419  0.2063  0.2395
 5291W        W 9355   7.631   8.295   1.446  0.2264  0.2906  0.1519
 5292W        W 9356   4.713   4.396  10.131  0.1109  0.0425 -0.0918
 5293W        W 9357   0.106   9.081   9.955 -0.3182 -0.0235 -0.3601
 5294W        W 9358   5.591   5.445   2.402  0.0379  0.1428 -0.3542
 5295W        W 9359   4.034   2.720  10.577  0.0914 -0.1128 -0.1664
 5296W        W 9360   8.423   6.559   0.468  0.3137  0.1191 -0.3326
 5297W        W 9361   5.322   2.804   0.834 -0.2925  0.0797 -0.2016
 5298W        W 9362   8.801  10.420   9.094  0.1149 -0.0069 -0.2551
 5299W        W 9363   0.499  10.519   1.992 -0.4235  0.0581 -0.0700
 5300W        W 9364  10.429   7.554   3.640 -0.1425 -0.1620  0.2492
 5301W        W 9365   9.049   2.183   7.834  0.0908 -0.2325  0.1018
 5302W        W 9366   9.176   8.576  10.841 -0.1657 -0.0477  0.1137
 5303W        W 9367  10.527   0.743   3.269  0.0556  0.1488  0.0364
 5304W        W 9368   4.455   9.596   9.904 -0.1085  0.1398 -0.0267
 5305W        W 9369   9.160   1.619   9.287  0.4205 -0.2329  0.1496
 5306W        W 9370   4.591   4.906   0.620 -0.1422 -0.1808 -0.1142
 5307W        W 9371   8.733   6.042  11.511 -0.3343  0.1628 -0.0076
 5308W        W 9372  10.272   4.546   0.152  0.1858  0.0571  0.2754
 5309W        W 9373   1.604   1.373  10.364 -0.3229  0.1903 -0.1777
 5310W        W 9374   8.807   5.905   8.935 -0.0599 -0.1265  0.0707
 5311W        W 9375   6.662   5.918   0.558  0.3930 -0.2156 -0.2210
 5312W        W 9376   3.268   1.494   9.401  0.0676 -0.1315 -0.0841
 5313W        W 9377   8.505   6.759   2.068 -0.1763  0.1388  0.0188
 5314W        W 9378   2.130   0.398   1.546 -0.3073 -0.2182  0.0871
 5315W        W 9379   3.995   4.202   9.640  0.0264  0.1991 -0.1061
 5316W        W 9380   6.438   0.254  11.449 -0.1501 -0.1442 -0.0151
 5317W        W 9381   2.397   9.224   0.628  0.3151 -0.0625 -0.1424
 5318W        W 9382   7.987   7.759  11.577 -0.2277  0.0232 -0.2440
 5319W        W 9383   2.147   9.885  10.378 -0.0883  0.0158  0.1728
 5320W        W 9384   0.558   9.319   8.304 -0.4235 -0.0830  0.1628
 5321W        W 9385   6.141   0.676   9.048 -0.0405 -0.0527 -0.3071
 5322W        W 9386   5.379  10.395   8.355 -0.3003 -0.0908  0.2531
 5323W        W 9387   8.242   0.487   8.621  0.1062  0.3129 -0.2001
 5324W        W 9388   7.165   6.329   8.681  0.2785 -0.1960 -0.1912
 5325W        W 9389   4.186   8.056   0.197  0.3273 -0.0171 -0.3040
 5326W        W 9390   3.376   0.849  10.148 -0.0421 -0.0904 -0.0231
 5327W        W 9391   1.214   1.641   3.406  0.0580 -0.1294 -0.0285
 5328W        W 9392   3.442   3.150   3.053  0.1312  0.0209  0.1679
 5329W        W 9393   3.274   6.383   9.771 -0.1932  0.1455 -0.2065
 5330W        W 9394   1.347   2.339   0.852 -0.1774  0.1952 -0.0167
 5331W        W 9395   5.332   5.512   0.587  0.2034 -0.2370  0.0541
 5332W        W 9396   6.525  10.295  10.445  0.1635  0.1466 -0.0884
 5333W        W 9397   8.432   9.496  10.909  0.0457 -0.0786  0.3886
 5334W        W 9398   7.080   5.784   9.873  0.0854  0.3968  0.1466
 5335W        W 9399   0.791   6.302   2.699 -0.0964  0.2355  0.3917
 5336W        W 9400   8.005   6.812   0.545 -0.0184 -0.2222  0.1615
 5337W        W 9401   0.092   4.694   7.871 -0.1524  0.0674  0.1154
 5338W        W 9402   4.435   6.811   0.712  0.0867 -0.3490  0.2439
 5339W        W 9403   2.395   4.585   1.096  0.1414 -0.1992 -0.1153
 5340W        W 9404   6.741   8.088   8.647 -0.0644 -0.2180 -0.1022
 5341W        W 9405  10.081   1.525   1.426 -0.3101  0.0595  0.1616
 5342W        W 9406   9.840   7.024   8.696 -0.1402 -0.0356 -0.0347
 5343W        W 9407   9.834   0.038  10.105 -0.0760  0.1537  0.1238
 5344W        W 9408   9.599   7.514   8.590 -0.1207 -0.2255  0.0664
 5345W        W 9409   5.176   8.109   0.490 -0.2376 -0.0008  0.4614
 5346W        W 9410   8.061   2.655   2.989  0.2090 -0.3515  0.0169
 5347W        W 9411   5.375   6.116   1.266 -0.0244 -0.4921 -0.1725
 5348W        W 9412   2.166   7.306   0.973  0.1577  0.2013  0.3988
 5349W        W 9413   3.278   8.249   0.294 -0.2747  0.1935  0.4351
 5350W        W 9414   8.133   6.332   2.078 -0.1796 -0.1102 -0.1518
 5351W        W 9415   6.749   7.703  11.220  0.3015  0.0498 -0.3008
 5352W        W 9416   2.256   6.580   4.110 -0.0645  0.1741 -0.0140
 5353W        W 9417   7.552   2.975   8.422  0.0564  0.0916 -0.1838
 5354W        W 9418   9.850   3.703   0.241  0.1213 -0.2614 -0.1800
 5355W        W 9419   9.720   8.046  10.913  0.1710 -0.2373  0.3663
 5356W        W 9420   7.730   3.277   2.630 -0.0077  0.2167  0.1056
 5357W        W 9421   1.008   8.649   8.728 -0.1425 -0.0789  0.2042
 5358W        W 9422   4.852   6.594   2.342  0.0388 -0.2014 -0.1501
 5359W        W 9423   8.635   9.676   2.892  0.4267  0.1487  0.1402
 5360W        W 9424   9.265   1.266   8.931 -0.0081  0.0065  0.2445
 5361W        W 9425   3.478   6.787   3.896  0.1273 -0.1482  0.1533
 5362W        W 9426   9.619  10.079   0.932  0.0296 -0.0690 -0.3329
 5363W        W 9427   2.330   9.979   8.541  0.0851 -0.1557  0.2106
 5364W        W 9428   2.827   6.110   8.122 -0.1108 -0.1248 -0.0631
 5365W        W 9429   0.718   1.347   8.282  0.1810 -0.0296 -0.0768
 5366W        W 9430   6.354   3.366   2.821  0.0189 -0.2713 -0.1569
 5367W        W 9431   1.246   6.276   0.323  0.0075  0.0100 -0.0916
 5368W        W 9432   4.384   5.027   9.905  0.0094 -0.0366 -0.0138
 5369W        W 9433   9.057   5.978   9.814  0.1139 -0.1188  0.1382
 5370W        W 9434   4.612   2.968   7.969 -0.1203 -0.2070  0.0216
 5371W        W 9435   5.607   3.203   8.812 -0.0203 -0.3350 -0.1539
 5372W        W 9436   5.744  10.117  11.510  0.1553 -0.1064 -0.2886
 5373W        W 9437   9.241  10.464   9.522  0.2637 -0.1617  0.0848
 5374W        W 9438   9.549   9.364   8.733  0.3769 -0.0230  0.4397
 5375W        W 9439   6.709   2.792   0.526 -0.0857 -0.0580  0.1322
 5376W        W 9440   4.199   5.727   3.030 -0.2852 -0.2536 -0.0041
 5377W        W 9441   0.723   3.920   2.929 -0.0107  0.3636  0.2700
 5378W        W 9442   5.481   8.530  10.804 -0.0400  0.3930 -0.4174
 5379W        W 9443  10.199   4.213   8.443  0.2063  0.0911  0.1494
 5380W        W 9444   8.757   1.962   1.928 -0.2522 -0.2152  0.0545
 5381W        W 9445  10.141   1.848   8.460  0.1025 -0.0816 -0.1258
 5382W        W 9446   7.666   0.039   3.024  0.2089 -0.0781  0.1416
 5383W        W 9447   5.970   8.316   2.277 -0.0467 -0.1704 -0.0318
 5384W        W 9448   1.834   4.142   3.715  0.1994  0.1618  0.1241
 5385W        W 9449   9.522   2.225  10.023 -0.2019  0.0179  0.1753
 5386W        W 9450   4.789  10.293   1.964  0.1234 -0.0444  0.1565
 5387W        W 9451   9.092   2.890   8.592  0.2263  0.1340  0.0354
 5388W        W 9452   5.372   7.820   1.943 -0.1194 -0.1329  0.0763
 5389W        W 9453   6.182   0.050   2.923  0.1992  0.0701  0.0497
 5390W        W 9454   1.614   7.984   1.952 -0.2864 -0.0511 -0.2961
 5391W        W 9455   5.512  10.007   8.111 -0.4186 -0.0097  0.5303
 5392W        W 9456   9.021   8.635  11.316  0.0795 -0.2911 -0.3684
 5393W        W 9457   9.972   7.893  11.311 -0.1333 -0.0433  0.1953
 5394W        W 9458   2.307   9.719   2.001 -0.1380 -0.0410  0.1108
 5395W        W 9459   4.709   7.669   8.056 -0.2248 -0.1735 -0.0817
 5396W        W 9460   2.429   9.734   0.662 -0.1545 -0.2376 -0.2682
 5397W        W 9461   7.586   7.707   9.079  0.2047 -0.0849  0.0422
 5398W        W 9462   1.624   7.870   1.321  0.2610  0.0945 -0.0823
 5399W        W 9463   7.829   5.286   0.912 -0.1407 -0.0023 -0.2603
 5400W        W 9464   2.760   7.270   9.488  0.5577  0.1179 -0.1071
 5401W        W 9465   4.767   7.653  11.357 -0.3419 -0.0197  0.1077
 5402W        W 9466  10.305  10.077   9.560  0.4393 -0.1014  0.0732
 5403W        W 9467   3.692   5.089  11.034 -0.1163  0.1121  0.2076
 5404W        W 9468   2.101   0.674   7.338 -0.1871 -0.0609 -0.0476
 5405W        W 9469   7.183   8.355   8.727 -0.1536  0.0394 -0.2058
 5406W        W 9470   2.077   0.535  10.043  0.4551  0.0458  0.3041
 5407W        W 9471   3.404   2.465   2.109 -0.1835 -0.2690  0.0736
 5408W        W 9472   8.776   3.088   8.990  0.2643  0.3473  0.1807
 5409W        W 9473   3.563   5.042   8.392  0.1555  0.1293 -0.1605
 5410W        W 9474   5.881  10.225   9.647 -0.1602 -0.1317 -0.0821
 5411W        W 9475   3.647   3.572  10.918 -0.5509 -0.0102 -0.0613
 5412W        W 9476   3.226   1.324   8.170 -0.0016  0.0831 -0.0132
 5413W        W 9477   8.466   4.397  11.487 -0.2751 -0.2081  0.1403
 5414W        W 9478   2.677   5.138   8.493  0.0325 -0.2012  0.1016
 5415W        W 9479   1.687   5.206   0.594  0.1784 -0.1477  0.4688
 5416W        W 9480   0.572   8.008   2.139  0.0247 -0.1347  0.0604
 5417W        W 9481   4.801   3.599   0.901  0.1929 -0.0894 -0.1330
 5418W        W 9482   9.055   0.567  11.092 -0.0340  0.0937 -0.1653
 5419W        W 9483   3.048   4.922   0.212 -0.0145 -0.1595  0.1560
 5420W        W 9484   6.653   1.611   1.966 -0.0842  0.0309  0.4639
 5421W        W 9485   2.137   6.889   2.794 -0.1888  0.0696 -0.1682
 5422W        W 9486   9.103   7.900   1.568 -0.2839 -0.3402  0.1566
 5423W        W 9487  10.238   0.445   3.493  0.1840  0.1264 -0.1100
 5424W        W 9488   3.512   6.344   2.181 -0.1187  0.0555  0.1199
 5425W        W 9489   2.894   7.970   1.214  0.0562  0.2284  0.0146
 5426W        W 9490   9.238   3.300   8.820  0.0116 -0.0905  0.2137
 5427W        W 9491  10.560   7.982   3.400 -0.0843  0.1770  0.0415
 5428W        W 9492   5.993   6.518   9.155 -0.0168  0.1926  0.2580
 5429W        W 9493   1.185   3.652   7.771 -0.0751  0.1450 -0.0314
 5430W        W 9494   8.238   5.375   2.712 -0.0738  0.2159  0.3941
 5431W        W 9495   1.968   7.026   9.988  0.1638  0.0981 -0.1847
 5432W        W 9496   7.921   0.739  10.336 -0.0516 -0.3486 -0.1143
 5433W        W 9497   8.053   2.142   1.723 -0.2113 -0.1736 -0.0778
 5434W        W 9498   5.688   5.695   0.189  0.1224  0.1874 -0.1965
 5435W        W 9499   5.917  10.538   1.366  0.0530 -0.1361 -0.1965
 5436W        W 9500   0.750   2.534   8.351  0.2644  0.0114 -0.0931
 5437W        W 9501   7.228   8.628   1.522  0.2680  0.0132 -0.1470
 5438W        W 9502   5.364   6.388  10.663  0.2807 -0.0062 -0.0028
 5439W        W 9503   8.537   5.015   1.017  0.3819  0.0798  0.1492
 5440W        W 9504   7.508   5.500   0.494  0.1781 -0.3498 -0.2083
 5441W        W 9505   6.198  10.519   7.599  0.2451  0.1958  0.1507
 5442W        W 9506   6.922   1.501   8.340  0.0402  0.1140  0.1749
 5443W        W 9507   4.988   8.888   9.156  0.0949  0.0238  0.1124
 5444W        W 9508   5.288   5.691  10.189 -0.1281 -0.2722 -0.0550
 5445W        W 9509   2.993   2.005   1.421  0.2140  0.2627 -0.1634
 5446W        W 9510   7.083   3.051   3.245 -0.1211  0.1002  0.0500
 5447W        W 9511   3.003  10.218  10.769  0.2655 -0.1865 -0.0281
 5448W        W 9512   5.917   5.742   3.849 -0.2320  0.1390 -0.2864
 5449W        W 9513   4.642   5.745  11.479  0.2700 -0.0063 -0.0089
 5450W        W 9514   7.831   8.754  10.447 -0.0350  0.2252  0.1728
 5451W        W 9515   6.072  10.480   0.281  0.2080 -0.1388  0.0906
 5452W        W 9516   9.886   2.498   1.364  0.2934  0.1121  0.0389
 5453W        W 9517   0.119   7.134   1.748 -0.0453  0.1124  0.1214
 5454W        W 9518   5.314   5.382   8.482 -0.2602  0.0685 -0.2030
 5455W        W 9519   9.167   3.394   9.339 -0.0744 -0.1447  0.1188
 5456W        W 9520   9.602   0.824   8.274  0.0881 -0.0681  0.3113
 5457W        W 9521   5.299   0.444   0.605 -0.3062 -0.0882  0.0408
 5458W        W 9522   4.727  10.279   0.401 -0.1595 -0.2025  0.1988
 5459W        W 9523   9.233   0.224   9.833 -0.0863  0.2143 -0.2314
 5460W        W 9524   8.401   2.721   9.012 -0.2419 -0.0374 -0.1940
 5461W        W 9525   3.548   2.646   2.717  0.3140  0.2234 -0.1960
 5462W        W 9526  10.455   6.101   1.982 -0.0339  0.1002  0.1770
 5463W        W 9527   9.842   1.288   0.353  0.0673 -0.3604  0.0843
 5464W        W 9528   5.695   9.977   8.695 -0.2840 -0.2367  0.0685
 5465W        W 9529   6.808   2.750  10.209  0.0108 -0.0367  0.0148
 5466W        W 9530   8.449  10.461   0.701 -0.0647  0.1276  0.0750
 5467W        W 9531   5.647   2.912   3.277  0.1789 -0.3845 -0.0357
 5468W        W 9532   0.334   0.390   0.607  0.1035  0.1043  0.0069
 5469W        W 9533   8.340   4.240   8.935 -0.1724  0.2083 -0.1148
 5470W        W 9534   4.710   3.186   2.999  0.1089  0.2025 -0.0470
 5471W        W 9535   0.992   2.267   0.355 -0.1372 -0.2207 -0.1002
 5472W        W 9536   2.192   1.800   9.696 -0.2627 -0.1867 -0.0159
 5473W        W 9537   9.763   6.569   8.418  0.0883 -0.2425  0.0198
 5474W        W 9538   0.823   5.520   1.423 -0.1857  0.0244  0.1081
 5475W        W 9539   5.534   3.928   2.396  0.1404  0.0055  0.0826
 5476W        W 9540   4.415   2.409   9.392 -0.1366 -0.3711  0.4114
 5477W        W 9541   4.931   2.830   2.743  0.1830  0.1631  0.1303
 5478W        W 9542   6.454   6.400   0.585 -0.1821 -0.1048  0.0855
 5479W        W 9543   9.994   5.972  10.209  0.0537 -0.0101  0.1040
 5480W        W 9544   3.126   6.517   0.178 -0.1196  0.0761 -0.1203
 5481W        W 9545   8.551   2.968   0.937  0.1173  0.1297 -0.0679
 5482W        W 9546   5.746   1.736   9.889  0.2652  0.1906 -0.2911
 5483W        W 9547   8.665   2.158   2.733  0.0214  0.2007 -0.0110
 5484W        W 9548   9.094   6.955   9.977  0.0637  0.0073 -0.0787
 5485W        W 9549   4.461   2.795   8.990  0.0525  0.0709 -0.0670
 5486W        W 9550   5.316   8.735  11.231  0.1699 -0.1036  0.1701
 5487W        W 9551   9.499   4.601   0.433  0.1084  0.1672  0.0059
 5488W        W 9552   3.265  10.014   2.980  0.0179 -0.4057  0.1585
 5489W        W 9553   8.834   3.596   2.447 -0.1159 -0.0131  0.0438
 5490W        W 9554   0.414   3.210   4.205  0.2049 -0.4033  0.0713
 5491W        W 9555   2.692  10.467   9.308 -0.3731  0.1448 -0.0011
 5492W        W 9556   3.037   1.687   7.310 -0.1437  0.0713 -0.2731
 5493W        W 9557   0.087   8.561   9.503  0.0356  0.3395 -0.0252
 5494W        W 9558   0.186   2.388   3.985 -0.1458  0.0987  0.1380
 5495W        W 9559   2.016   3.972  10.445  0.2258  0.0610  0.0335
 5496W        W 9560   1.508   8.928   8.372 -0.3135  0.1438  0.1599
 5497W        W 9561   2.087   0.631   9.358 -0.1233  0.0992 -0.1707
 5498W        W 9562   3.082   5.805   9.825 -0.0912  0.2123  0.0431
 5499W        W 9563  10.269   0.696   8.725  0.2870  0.0563  0.4655
 5500W        W 9564   0.781   8.621   3.624  0.0967 -0.0996  0.1052
 5501W        W 9565   6.945   8.137   4.140 -0.2080 -0.1733  0.4517
 5502W        W 9566   7.691   0.898   0.101 -0.1035 -0.0320  0.1406
 5503W        W 9567   3.700   0.129   2.087  0.0212  0.1080 -0.3729
 5504W        W 9568   2.837  10.015   1.931 -0.0337 -0.2009 -0.3068
 5505W        W 9569   7.447   2.775   2.132  0.1750 -0.0212  0.2715
 5506W        W 9570   7.927   3.668   2.360 -0.1875  0.2367 -0.2204
 5507W        W 9571   5.271   3.571   8.796  0.1173 -0.1108  0.0095
 5508W        W 9572  10.414   2.641   3.235  0.1151 -0.0907  0.3960
 5509W        W 9573   0.492   4.540  11.378  0.0709  0.1191 -0.1009
 5510W        W 9574  10.112   5.838   1.694 -0.0438 -0.1079 -0.0612
 5511W        W 9575   5.193   4.807   9.072 -0.4245  0.1349  0.1206
 5512W        W 9576   1.796   2.132   2.969  0.0185  0.0565  0.1360
 5513W        W 9577   9.187   6.132  10.315  0.1340  0.0359 -0.1890
 5514W        W 9578   2.782   6.979  10.926  0.0612 -0.0438  0.2046
 5515W        W 9579   3.982   0.649  11.318  0.0376  0.4404 -0.3013
 5516W        W 9580   4.173   7.416   1.935 -0.2324  0.3188  0.0026
 5517W        W 9581   6.412   9.520   0.296 -0.3048 -0.0885  0.1951
 5518W        W 9582   9.404  10.489   2.732 -0.0832 -0.0496 -0.0716
 5519W        W 9583   7.516   6.556   3.779  0.0853 -0.1402  0.1611
 5520W        W 9584   1.446   8.155   9.281  0.1511 -0.1889 -0.4080
 5521W        W 9585   7.399   1.210  11.337  0.3017  0.1758 -0.1851
 5522W        W 9586   6.919   9.530   0.021 -0.1254 -0.0853 -0.0982
 5523W        W 9587   9.420  10.176  10.910 -0.1077 -0.1051 -0.3047
 5524W        W 9588   8.498   4.936   2.546  0.0461  0.0534  0.3963
 5525W        W 9589   1.741   6.012   0.482  0.1128 -0.0755 -0.2069
 5526W        W 9590   3.424   0.600   2.503  0.1625  0.2071  0.1905
 5527W        W 9591   2.880  10.412   1.016  0.0179 -0.0380  0.0694
 5528W        W 9592   7.416   8.495   9.694  0.1295 -0.2374  0.0786
 5529W        W 9593   6.516   6.397   8.804 -0.0495  0.0033  0.0103
 5530W        W 9594   1.642   0.471   1.661 -0.0729  0.1550  0.0114
 5531W        W 9595   2.984   3.932   1.108 -0.0094 -0.0262  0.1969
 5532W        W 9596   7.606   0.569   8.390 -0.2386  0.0696  0.0753
 5533W        W 9597   8.493   3.643   1.386  0.2840 -0.3307  0.0460
 5534W        W 9598   4.727   4.787   0.176  0.1757  0.0843  0.0171
 5535W        W 9599   0.538   6.491   2.249 -0.1764  0.0349 -0.2671
 5536W        W 9600   4.700   0.695  10.585  0.1456 -0.0437  0.0340
 5537W        W 9601   4.713   9.648   1.208 -0.1188 -0.2739  0.3036
 5538W        W 9602   9.568   2.734   7.689 -0.3098 -0.2876 -0.0074
 5539W        W 9603   6.134   6.191   0.213  0.0551  0.1614  0.1232
 5540W        W 9604   9.172   0.437   1.801  0.0183 -0.1144 -0.1079
 5541W        W 9605   0.217   4.715   1.598  0.0139 -0.4923 -0.0319
 5542W        W 9606   4.072   0.211   1.595 -0.0088  0.1736 -0.3749
 5543W        W 9607   1.612   2.047   1.254  0.1279  0.2620 -0.1021
 5544W        W 9608   5.100   6.190  10.240 -0.1357 -0.0998  0.2344
 5545W        W 9609   1.881   0.902   7.727  0.0493  0.4837 -0.1118
 5546W        W 9610   2.416   2.190   8.638 -0.1501 -0.0194  0.1367
 5547W        W 9611   9.094   9.662   0.381 -0.0071  0.1572  0.0374
 5548W        W 9612  10.547   7.241  10.766 -0.0399  0.0011 -0.1289
 5549W        W 9613   4.072   0.255   9.641  0.2534  0.2301 -0.0466
 5550W        W 9614   8.224   5.931  11.064  0.0542 -0.1643 -0.3181
 5551W        W 9615   6.211   2.217   2.651  0.0285  0.0639 -0.0202
 5552W        W 9616   1.343   9.316   7.421  0.0563  0.0368 -0.2286
 5553W        W 9617  10.266   5.313   4.488  0.1148  0.0183 -0.2656
 5554W        W 9618  10.108   1.943   8.945 -0.1545 -0.2266  0.0460
 5555W        W 9619   9.403   5.048   0.615  0.1845  0.0018  0.3042
 5556W        W 9620   0.257   8.318   0.662  0.1045  0.0124  0.0901
 5557W        W 9621   8.062   6.202  11.459 -0.1457 -0.1278  0.0920
 5558W        W 9622   3.090   5.993   1.883  0.3325  0.0046 -0.0110
 5559W        W 9623   1.003   4.079   8.642  0.0441 -0.3333 -0.2191
 5560W        W 9624   3.302   5.963   8.455 -0.1119 -0.0675  0.0185
 5561W        W 9625   5.382   6.479   2.456  0.0901 -0.1900 -0.4999
 5562W        W 9626   3.257   6.626   1.328  0.0391 -0.1270 -0.0743
 5563W        W 9627   1.834   1.080   1.083 -0.1079 -0.2846 -0.0529
 5564W        W 9628   3.194   8.178   0.781 -0.2768  0.0228 -0.0718
 5565W        W 9629   7.242   7.280   8.314  0.1479  0.0614 -0.2245
 5566W        W 9630   2.873   4.827   1.517 -0.1127 -0.0663 -0.2864
 5567W        W 9631   3.454  10.612   1.688 -0.0357  0.0378  0.1104
 5568W        W 9632   2.402   7.761  10.485  0.0409  0.2508 -0.1473
 5569W        W 9633   2.237   1.060   8.497  0.0796  0.0165 -0.0208
 5570W        W 9634   7.828   9.833   0.617 -0.1608 -0.1403  0.0281
 5571W        W 9635   4.435   1.044  10.184  0.0492 -0.2516 -0.2794
 5572W        W 9636   6.547   6.763   1.575  0.2633 -0.0714 -0.1199
 5573W        W 9637   1.962  10.246  10.755  0.0497 -0.2683  0.0105
 5574W        W 9638   3.650   8.346   9.482  0.1580 -0.0445  0.0633
 5575W        W 9639   4.778   0.829  11.082  0.1119  0.0448  0.1931
 5576W        W 9640   4.941   7.282  10.775 -0.0944 -0.0403  0.0757
 5577W        W 9641   5.583   7.410   2.297  0.3153  0.0040 -0.0623
 5578W        W 9642   4.318  10.009   8.576 -0.1588 -0.0191 -0.3945
 5579W        W 9643   3.910   9.921  10.614 -0.1199  0.0009  0.2160
 5580W        W 9644  10.155   9.723   4.457 -0.0966 -0.3924 -0.0570
 5581W        W 9645   5.489   0.216   3.509  0.1461 -0.4628 -0.0184
 5582W        W 9646   0.014   5.259   3.042  0.0658 -0.3371 -0.0574
 5583W        W 9647  10.292   3.086   0.889  0.2739  0.0259 -0.1603
 5584W        W 9648   3.419   0.292   0.543  0.3477  0.1527  0.1213
 5585W        W 9649   3.212   5.581   9.069 -0.0989  0.0593  0.2348
 5586W        W 9650   2.478  10.111   1.061  0.2066  0.0282 -0.3649
 5587W        W 9651   9.375   4.715  10.216 -0.0075 -0.0941 -0.0759
 5588W        W 9652   9.259   2.864   9.036  0.2634 -0.0778 -0.2040
 5589W        W 9653   7.026   6.705   3.224 -0.1821 -0.2724  0.2444
 5590W        W 9654   7.215   2.303  10.734  0.0463 -0.1791  0.0255
 5591W        W 9655   5.193   5.678   1.081  0.1526  0.1701  0.0013
 5592W        W 9656   2.883   8.955   2.197 -0.0057  0.1849 -0.2915
 5593W        W 9657   9.148   2.965   9.599  0.2012  0.1660  0.0056
 5594W        W 9658   0.606   1.263   3.935  0.1709  0.0696 -0.0575
 5595W        W 9659   6.719   3.484   8.737 -0.4081  0.1116  0.0188
 5596W        W 9660   5.920   7.085   0.802  0.1811 -0.0170  0.0904
 5597W        W 9661   8.889   5.764  11.045  0.0245 -0.4234  0.0227
 5598W        W 9662   7.915   1.210   9.433  0.3954 -0.1988 -0.0604
 5599W        W 9663   6.981   3.896   2.169  0.1557  0.0394 -0.0813
 5600W        W 9664   8.685   6.235   3.859  0.1292  0.1083 -0.0751
 5601W        W 9665   3.379   7.049  11.105 -0.1796  0.1095  0.0022
 5602W        W 9666   5.880   7.094  11.554 -0.2091  0.0379  0.0809
 5603W        W 9667   8.508   2.922   9.497 -0.0795 -0.2443 -0.0284
 5604W        W 9668   8.762   1.139   8.784 -0.0331  0.0018 -0.1611
 5605W        W 9669   2.618   7.554   9.886 -0.0765 -0.4282  0.0409
 5606W        W 9670   9.362   8.765   9.425 -0.1023  0.0500 -0.0267
 5607W        W 9671   6.924   4.914   3.668 -0.0066  0.0318 -0.1318
 5608W        W 9672   1.631   8.392  10.590 -0.1702  0.0420 -0.2616
 5609W        W 9673  10.305  10.303   0.726  0.1179 -0.2678  0.1503
 5610W        W 9674  10.477   8.520  10.519 -0.1429  0.2239  0.1481
 5611W        W 9675   2.813   6.731   2.626  0.0710 -0.3002  0.1464
 5612W        W 9676   5.507   7.748   2.842  0.2831 -0.3045 -0.4753
 5613W        W 9677   6.086   6.020   0.710  0.0221  0.2922 -0.1081
 5614W        W 9678   0.699   5.339   0.296 -0.2521  0.1754 -0.0588
 5615W        W 9679   1.734   1.397   2.006  0.0997 -0.2035 -0.2148
 5616W        W 9680  10.486   5.409   9.228  0.0357  0.0657  0.0754
 5617W        W 9681   3.377   0.284  10.088 -0.2065  0.0241 -0.3681
 5618W        W 9682   8.493   4.033   2.697 -0.0390  0.1573  0.1465
 5619W        W 9683   9.678   6.842   3.075  0.0697  0.0485  0.0776
 5620W        W 9684   7.969   7.512   2.542  0.2250  0.0245  0.1720
 5621W        W 9685   2.434   9.901   9.970 -0.1555 -0.1767  0.0251
 5622W        W 9686   8.721   4.961   8.526  0.2092 -0.0958  0.4239
 5623W        W 9687   0.809   0.338   0.323 -0.0465 -0.2174 -0.1793
 5624W        W 9688   8.184   1.075   7.730 -0.2142  0.0078 -0.0716
 5625W        W 9689   8.850   8.545   3.728  0.0189 -0.0072  0.1648
 5626W        W 9690   7.595   2.757   9.388 -0.0549 -0.2064 -0.1241
 5627W        W 9691   4.942   6.415   2.832 -0.5103  0.2605 -0.0155
 5628W        W 9692   5.595   0.994   3.013  0.2285  0.0454  0.1544
 5629W        W 9693  10.257   9.279  11.475 -0.0234  0.0750 -0.0535
 5630W        W 9694   9.165   8.743   0.211  0.0074 -0.1985 -0.3200
 5631W        W 9695   9.762   0.167   3.481 -0.0615  0.1835 -0.1428
 5632W        W 9696   3.105   6.492  10.326 -0.0535 -0.1263 -0.0749
 5633W        W 9697   6.348   8.219   1.852  0.1875  0.3027 -0.1654
 5634W        W 9698   8.711   0.356   1.575 -0.1155  0.0784 -0.1511
 5635W        W 9699   8.007   6.607   1.656  0.0251  0.0189  0.2187
 5636W        W 9700   7.998   0.655  10.884  0.0286 -0.1673  0.2385
 5637W        W 9701   5.123   7.568   0.530 -0.3278  0.0664 -0.2959
 5638W        W 9702  10.461   4.797   3.016  0.0372  0.0772 -0.5170
 5639W        W 9703   3.241   0.754   1.125 -0.0600  0.0331 -0.0827
 5640W        W 9704   2.088   1.136   2.239 -0.0232  0.2426  0.1195
 5641W        W 9705   1.494   9.989   9.716  0.1132  0.1407  0.2066
 5642W        W 9706   6.475   8.719   2.006 -0.4018 -0.2613  0.1598
 5643W        W 9707   1.802   3.406   3.178 -0.3663 -0.2428  0.0721
 5644W        W 9708   3.149   8.672   0.645  0.1088 -0.2554  0.0207
 5645W        W 9709   2.832   8.105   3.791  0.0014  0.0016  0.2606
 5646W        W 9710   0.214   3.986   3.242  0.2340 -0.0531  0.0135
 5647W        W 9711   1.163   0.620   3.425  0.4466 -0.2727  0.0546
 5648W        W 9712   1.977   5.076   1.994  0.1086  0.0857 -0.0074
 5649W        W 9713   7.918   8.227   2.549 -0.2277 -0.0923 -0.2504
 5650W        W 9714   2.634   6.211   1.969  0.1803 -0.1795 -0.1853
 5651W        W 9715   9.916   8.408  11.373  0.2062  0.1830  0.2534
 5652W        W 9716   8.502   5.419   2.264 -0.0685 -0.1880  0.0104
 5653W        W 9717  10.275   0.092   3.126  0.2591  0.2397  0.2861
 5654W        W 9718   1.903   7.581   0.651 -0.2170 -0.0294  0.2504
 5655W        W 9719   7.262   4.278   3.041  0.1007 -0.2698  0.1814
 5656W        W 9720   6.832   2.159  10.363  0.1535  0.2427 -0.1751
 5657W        W 9721   9.548  10.228  10.442  0.0727  0.2193  0.1429
 5658W        W 9722  10.002   5.856   3.105 -0.1249  0.1267 -0.1456
 5659W        W 9723   8.437   1.582   8.644  0.0547 -0.0932  0.0997
 5660W        W 9724   0.969   1.570   9.152  0.0304  0.0020  0.1168
 5661W        W 9725   4.592   8.813   1.847 -0.0544  0.1793 -0.1355
 5662W        W 9726   0.665   3.525   0.975  0.0294  0.1382  0.1092
 5663W        W 9727   4.885   1.578  10.748 -0.1125  0.0927 -0.2355
 5664W        W 9728   9.979   4.023  10.721  0.2594 -0.1465  0.2129
 5665W        W 9729   0.626   2.860   9.612 -0.2061 -0.0459  0.1204
 5666W        W 9730   3.835   1.929   1.574  0.4038 -0.0196  0.4520
 5667W        W 9731   5.278   2.119   7.757  0.3178  0.1766  0.1472
 5668W        W 9732   3.808   9.684   3.655  0.2075 -0.2371  0.3258
 5669W        W 9733  10.510   1.718  11.499 -0.0427  0.0994 -0.2627
 5670W        W 9734   4.931  10.617   0.942  0.4311 -0.3852 -0.1415
 5671W        W 9735   0.321   9.330  10.770 -0.0229 -0.0312 -0.0340
 5672W        W 9736   2.961   1.583   7.796  0.2841  0.3101  0.0829
 5673W        W 9737   6.395   7.815   8.271  0.1046  0.3788 -0.1514
 5674W        W 9738   1.770   5.791   8.915 -0.2299  0.2182  0.1782
 5675W        W 9739  10.215   9.110   2.588  0.0263 -0.0214  0.2545
 5676W        W 9740   6.751   6.195   0.176 -0.1779  0.0058  0.1161
 5677W        W 9741   3.595   9.534   2.299  0.2024 -0.0291  0.0692
 5678W        W 9742   4.050   5.163   8.339 -0.1245 -0.2899  0.3985
 5679W        W 9743   3.578   9.519   8.775  0.0909 -0.0565  0.1510
 5680W        W 9744   7.338   1.296   1.182 -0.0318  0.0092  0.1580
 5681W        W 9745   6.852   9.718   1.017 -0.2018  0.0214 -0.0376
 5682W        W 9746   7.263   4.546   0.435 -0.0269  0.1729  0.0479
 5683W        W 9747   6.789   3.680   3.703 -0.0012  0.0137  0.0784
 5684W        W 9748   9.526   1.650   2.710 -0.2930  0.0460 -0.1301
 5685W        W 9749   7.458   9.879  10.943  0.0685  0.0966  0.1425
 5686W        W 9750   7.050   2.392   8.996 -0.2671  0.2045  0.3550
 5687W        W 9751   4.368   2.825   1.870 -0.0812  0.0965  0.3332
 5688W        W 9752   8.750   6.852  10.442 -0.1662 -0.5322 -0.0499
 5689W        W 9753   1.427   4.336  10.320 -0.0632 -0.0928 -0.1308
 5690W        W 9754   0.945   0.746   9.187 -0.2861  0.0761  0.0957
 5691W        W 9755   6.408   3.619   2.344  0.0042  0.4130  0.2124
 5692W        W 9756   4.755   8.301  10.117  0.1995  0.1973  0.3985
 5693W        W 9757  10.102   7.995   9.975  0.3405  0.0287  0.3188
 5694W        W 9758   2.518   2.277  10.766 -0.0031 -0.0540  0.0721
 5695W        W 9759   4.510   7.872   0.637  0.2194 -0.2027  0.2709
 5696W        W 9760   5.480   8.748   1.827  0.4612 -0.0468  0.2307
 5697W        W 9761   5.064   9.332  10.376  0.1340 -0.0912  0.1379
 5698W        W 9762   0.366   5.496   1.331  0.0345 -0.3394  0.4717
 5699W        W 9763   6.565   0.907   3.257  0.1505 -0.1080  0.0373
 5700W        W 9764   6.665   1.073  10.871 -0.1184  0.0847 -0.0130
 5701W        W 9765   9.407   4.535   9.008 -0.0501  0.2111  0.0741
 5702W        W 9766   6.680   0.643  11.145 -0.3388  0.0824  0.0729
 5703W        W 9767   9.642   9.254   9.520 -0.0557 -0.0494  0.2652
 5704W        W 9768   6.941   2.607   2.959 -0.4136 -0.0526 -0.2881
 5705W        W 9769   0.287   7.762   3.577 -0.2438  0.0479  0.1359
 5706W        W 9770   9.368   1.322   8.378  0.0856 -0.0046 -0.0679
 5707W        W 9771   0.730   1.610   8.705  0.4445  0.0340 -0.3306
 5708W        W 9772   9.389   0.802   9.665  0.1220  0.0269  0.1583
 5709W        W 9773   0.981   7.183   3.376 -0.0583 -0.2031  0.0934
 5710W        W 9774   4.781   2.911  10.228 -0.1055 -0.2767  0.0150
 5711W        W 9775   7.738   8.416   8.629 -0.2496 -0.2652 -0.0176
 5712W        W 9776   9.086   4.327   1.824  0.0280 -0.0600  0.1345
 5713W        W 9777   7.389   3.814   1.095 -0.0165  0.0912 -0.1669
 5714W        W 9778   5.692   4.752   1.857  0.0959  0.0594  0.0034
 5715W        W 9779   3.447   4.613   0.068 -0.0885  0.1330  0.1620
 5716W        W 9780   1.781   9.882   2.693  0.1360 -0.1555 -0.1803
 5717W        W 9781   6.574   7.803   1.790 -0.1958 -0.1070  0.4945
 5718W        W 9782   4.992   6.818   9.566 -0.1490 -0.0008  0.0414
 5719W        W 9783   0.968   6.607  11.465  0.4988  0.1822 -0.0812
 5720W        W 9784   2.417   1.570   9.150  0.0695 -0.1717 -0.0782
 5721W        W 9785   9.088   3.748   1.511 -0.0637  0.1992  0.0445
 5722W        W 9786   1.594   0.887   2.156 -0.1242 -0.3490 -0.0374
 5723W        W 9787   2.596   3.413   7.962  0.1506  0.3758  0.0626
 5724W        W 9788   1.896   5.966   3.633 -0.2349  0.0823  0.0389
 5725W        W 9789   2.727   4.532   9.957 -0.0950  0.3702  0.1320
 5726W        W 9790   6.268   5.932   2.654  0.2778 -0.3127 -0.2335
 5727W        W 9791   1.013   0.945   3.811  0.1453  0.1813 -0.3225
 5728W        W 9792   7.589   6.582   0.765  0.1340  0.0656 -0.1937
 5729W        W 9793   0.753   8.854   2.633 -0.2949 -0.2801  0.1129
 5730W        W 9794   9.546   3.078   2.338 -0.0572 -0.3179 -0.1275
 5731W        W 9795   9.703   2.595   4.067  0.0028 -0.3420  0.0877
 5732W        W 9796   5.717   4.314  10.951 -0.3042 -0.0697 -0.1758
 5733W        W 9797  10.628   5.935   1.552  0.0496  0.0338  0.0117
 5734W        W 9798   9.084   8.026  11.168  0.0453 -0.2649 -0.0838
 5735W        W 9799   2.053   5.281   2.947 -0.2499 -0.0033 -0.0622
 5736W        W 9800   4.219   7.610   1.183 -0.0533  0.0587  0.0538
 5737W        W 9801   4.351   0.191   8.305  0.3514 -0.1040 -0.2446
 5738W        W 9802   5.736   5.954   9.155  0.0647  0.2010 -0.1570
 5739W        W 9803   9.994   1.067   7.435  0.1427  0.0853 -0.1113
 5740W        W 9804   4.991   0.829   0.703 -0.2468  0.1550  0.0245
 5741W        W 9805   7.144   6.873   0.777  0.2028 -0.2360 -0.1220
 5742W        W 9806   9.721   1.673   9.593  0.1156  0.3508  0.2049
 5743W        W 9807   9.671   7.932   3.138 -0.2368  0.2231 -0.2068
 5744W        W 9808   0.346   8.981   0.851  0.1815  0.1022 -0.2032
 5745W        W 9809   0.639   6.993  10.057 -0.2686  0.3195 -0.3003
 5746W        W 9810   5.345   0.342   0.109 -0.2701  0.0196 -0.0912
 5747W        W 9811   4.035   9.475   0.696  0.1549 -0.1104 -0.0711
 5748W        W 9812   7.936   3.741   1.032  0.1771  0.1666  0.1757
 5749W        W 9813   8.044   2.029   7.481 -0.1055  0.1196  0.1702
 5750W        W 9814   1.504   4.527  10.862  0.4006 -0.0929  0.0949
 5751W        W 9815   3.336   3.707   2.940 -0.2163 -0.0618 -0.2361
 5752W        W 9816   8.346   9.943   0.735  0.3162  0.0790 -0.0114
 5753W        W 9817   2.525   4.123  10.150 -0.0882 -0.0294 -0.0315
 5754W        W 9818   3.622   5.757   0.346 -0.0767  0.0007  0.1000
 5755W        W 9819   0.712   7.532   8.022  0.2500 -0.0855 -0.0363
 5756W        W 9820   3.620   6.927   3.396  0.0701  0.0998  0.0574
 5757W        W 9821   5.275   0.395   9.871 -0.1147 -0.0462 -0.0798
 5758W        W 9822   8.719   8.084   8.509  0.2981  0.0212 -0.2340
 5759W        W 9823   5.981   2.128  10.182 -0.4323  0.0655  0.2795
 5760W        W 9824   0.935  10.451   1.140 -0.0236  0.0164 -0.3000
 5761W        W 9825   9.030   3.996   2.658 -0.1122 -0.1770 -0.1111
 5762W        W 9826   2.526   1.932   2.809 -0.0849  0.0670  0.0077
 5763W        W 9827   5.788   7.453   9.627  0.2206 -0.1296 -0.4729
 5764W        W 9828   6.153   3.568   8.201 -0.3336 -0.1328 -0.0739
 5765W        W 9829   3.807   6.475   7.761  0.0770  0.0755  0.0592
 5766W        W 9830   8.839   7.923  10.369 -0.2172 -0.1468 -0.2698
 5767W        W 9831   3.806   3.984   8.267 -0.3141 -0.1104  0.3019
 5768W        W 9832  10.190   8.202   3.745  0.1181  0.2064  0.1403
 5769W        W 9833   6.197   2.133  10.978  0.1275  0.4118  0.1751
 5770W        W 9834   0.532   8.367   2.560 -0.1251 -0.2213  0.1006
 5771W        W 9835   8.845   0.816   1.866 -0.0654  0.2619  0.4036
 5772W        W 9836   7.460   6.918   1.223 -0.0648 -0.3258  0.3791
 5773W        W 9837   2.922  10.630   2.021  0.2980 -0.0750 -0.0061
 5774W        W 9838   7.878   6.634   9.225 -0.3170  0.2357  0.1708
 5775W        W 9839   8.071   8.797   8.864  0.0600 -0.1341 -0.1129
 5776W        W 9840   9.383   2.354  11.252 -0.4222 -0.4013 -0.3104
 5777W        W 9841   2.958   9.996   0.589 -0.0161 -0.0584  0.3489
 5778W        W 9842   9.631  10.364   3.260  0.2288 -0.1663  0.4031
 5779W        W 9843   5.683   2.982   0.483 -0.0456  0.0212  0.1244
 5780W        W 9844   1.650  10.309   0.633 -0.0169  0.2553 -0.0824
 5781W        W 9845   5.813   3.933   8.077  0.2749 -0.0459  0.0400
 5782W        W 9846   0.336   4.918   3.136  0.0993 -0.2742 -0.1351
 5783W        W 9847   1.656   7.139   8.668 -0.3928  0.2357  0.0738
 5784W        W 9848   3.874   5.237  10.210 -0.1727 -0.1336 -0.1259
 5785W        W 9849   0.102   1.283   1.257 -0.1108 -0.1848  0.0333
 5786W        W 9850   5.541   3.447  11.391 -0.0529  0.4652 -0.2803
 5787W        W 9851   2.089   6.003  10.869  0.0069 -0.1760  0.2027
 5788W        W 9852   0.427   1.720   0.420  0.0001  0.0848 -0.0362
 5789W        W 9853   9.417   5.448   8.900  0.1372  0.0197 -0.5087
 5790W        W 9854   2.192   3.934   2.278  0.1479  0.1515 -0.1631
 5791W        W 9855   0.251   6.612   0.922 -0.2555  0.1433 -0.0377
 5792W        W 9856   6.815   8.369   1.716 -0.0876 -0.2221  0.1539
 5793W        W 9857   4.547   3.135   0.953 -0.0583 -0.1013 -0.0573
 5794W        W 9858   3.344   2.504  10.005 -0.1795  0.1328 -0.0854
 5795W        W 9859   9.066   4.891   1.867 -0.3471 -0.1813 -0.1475
 5796W        W 9860   6.539   5.094  10.843  0.1180 -0.3660 -0.4270
 5797W        W 9861  10.405   7.052   9.779  0.0290  0.0331  0.2384
 5798W        W 9862   3.112   1.847   0.949  0.2284 -0.1197 -0.1484
 5799W        W 9863   6.539   1.278  10.334 -0.1294  0.0416 -0.1240
 5800W        W 9864   4.233   6.344   0.493  0.1008 -0.2562 -0.3322
 5801W        W 9865   6.811   9.592   2.326  0.1470 -0.1246  0.2382
 5802W        W 9866   0.445   3.621   2.022 -0.4320  0.1355  0.1392
 5803W        W 9867   1.440   9.426   8.410  0.2856  0.0939  0.0589
 5804W        W 9868   4.430   5.102   8.695 -0.3880  0.0774 -0.0579
 5805W        W 9869   3.601   9.106   9.743 -0.2165 -0.1540 -0.5631
 5806W        W 9870   3.553   1.481   8.526 -0.1842 -0.0240 -0.2168
 5807W        W 9871   6.562   2.295   0.321  0.2480 -0.2250  0.0321
 5808W        W 9872   6.026   1.802   8.024  0.2372 -0.1092  0.0733
 5809W        W 9873   1.890   4.753   0.795 -0.0704 -0.0568  0.2654
 5810W        W 9874   0.298   8.385   8.832 -0.1732 -0.0238 -0.1511
 5811W        W 9875   9.490   9.807   3.189 -0.1797 -0.2072 -0.0129
 5812W        W 9876   4.264   1.678   8.048 -0.1657  0.1105  0.0499
 5813W        W 9877   7.107   1.897   2.174  0.1152 -0.1430  0.1482
 5814W        W 9878   2.023   5.700   9.644 -0.0903  0.0619 -0.0005
 5815W        W 9879   7.566   1.186   9.001  0.1557 -0.2584 -0.2063
 5816W        W 9880   4.630   8.045   0.019 -0.0908  0.1036 -0.3054
 5817W        W 9881   2.707  10.587   0.123  0.0462  0.1772  0.0715
 5818W        W 9882   4.115   1.465   0.248 -0.2150  0.1359  0.0866
 5819W        W 9883   6.326   3.660   0.887 -0.2516  0.0429 -0.1510
 5820W        W 9884   3.964   7.762   9.986  0.1853  0.2005 -0.2305
 5821W        W 9885   6.538   5.050  10.271 -0.1140 -0.1843 -0.4372
 5822W        W 9886   7.390   9.042   0.391  0.2581  0.1217  0.0287
 5823W        W 9887   8.244   9.658   8.165 -0.0208  0.0102  0.2540
 5824W        W 9888   1.050   1.552   3.885  0.0897  0.0040 -0.1140
 5825W        W 9889   9.475  10.596   1.035 -0.0029  0.2790 -0.1795
 5826W        W 9890   4.327   2.024   1.745  0.0920 -0.0252  0.0187
 5827W        W 9891   0.412   5.104  10.040  0.0943  0.1781  0.1915
 5828W        W 9892   3.886   1.628   3.431  0.0331 -0.1443  0.0821
 5829W        W 9893   1.657   3.047   1.915 -0.1709  0.1500 -0.0766
 5830W        W 9894   6.266   3.239   1.933  0.1775  0.0592 -0.1596
 5831W        W 9895   1.164   0.130  11.151  0.2615  0.2730  0.1600
 5832W        W 9896   8.676   0.345   2.059  0.0611  0.1049  0.2404
 5833W        W 9897   4.131   3.710   2.568  0.0184 -0.2017  0.0494
 5834W        W 9898   1.773   6.885  11.512  0.3483  0.4183  0.1159
 5835W        W 9899   4.780   1.952  11.324  0.0539 -0.1257 -0.1136
 5836W        W 9900   3.985   6.214   1.277  0.3102 -0.0998  0.1214
 5837W        W 9901  10.569   1.354   9.120 -0.2351  0.2380 -0.1131
 5838W        W 9902   1.412   3.239   0.016 -0.1377  0.2126 -0.0933
 5839W        W 9903   7.202   7.724  10.970 -0.1822  0.1699  0.1253
 5840W        W 9904   4.349   0.506   0.326  0.4239 -0.0280  0.2312
 5841W        W 9905   4.128   0.107   0.977  0.2955 -0.1576 -0.0481
 5842W        W 9906   1.221   5.982   4.469 -0.0945 -0.0785  0.1163
 5843W        W 9907   1.252   2.755   3.521 -0.2657  0.2988  0.1392
 5844W        W 9908   6.036   7.960   3.225 -0.0467  0.0937  0.1194
 5845W        W 9909   3.707   1.406   2.977 -0.1443  0.3945  0.1451
 5846W        W 9910   5.142   0.599   7.901  0.0462 -0.0539  0.1137
 5847W        W 9911   7.444   3.660   8.979  0.1738  0.2638  0.0843
 5848W        W 9912   2.357   1.401   1.193 -0.0295  0.2071  0.2849
 5849W        W 9913   8.359  10.028   9.260  0.1972 -0.0074  0.2236
 5850W        W 9914   5.848   9.049   1.451 -0.0919  0.2459 -0.2721
 5851W        W 9915   9.261   1.589   3.191  0.0680  0.3263  0.3176
 5852W        W 9916   9.686   1.650   8.653 -0.0976  0.0158  0.0781
 5853W        W 9917   0.996   9.981   8.975  0.4492  0.1573  0.0735
 5854W        W 9918   4.649   0.276   8.677 -0.0370 -0.1614 -0.4049
 5855W        W 9919  10.010   7.110   1.009  0.0959 -0.0904  0.0748
 5856W        W 9920   4.579   3.296  11.001  0.3321  0.2297 -0.1206
 5857W        W 9921   8.103   8.506   1.573  0.1316  0.2485  0.3347
 5858W        W 9922   4.581   9.487   3.288  0.0012 -0.0962 -0.1848
 5859W        W 9923   2.857   4.040  10.937 -0.1037 -0.2648  0.2849
 5860W        W 9924   5.254   1.848   9.109 -0.4253 -0.2601  0.0836
 5861W        W 9925   2.296   0.336   2.121 -0.0150  0.4224  0.2346
 5862W        W 9926   6.008   5.163   1.664  0.0400  0.0884 -0.1555
 5863W        W 9927   3.643   0.024  10.482 -0.2708  0.0562 -0.0641
 5864W        W 9928   5.560   5.754  11.236 -0.1967 -0.1709  0.0323
 5865W        W 9929   6.297   9.369   7.536  0.0026  0.1812 -0.0806
 5866W        W 9930   9.635   8.917   9.881  0.0792 -0.0646  0.0186
 5867W        W 9931   2.163   7.286   2.017 -0.1666 -0.0527  0.0410
 5868W        W 9932   2.375   5.785  10.370  0.2028  0.0906  0.0721
 5869W        W 9933   6.709   2.736   7.650  0.0111  0.2056  0.5023
 5870W        W 9934   5.099   1.216   9.414 -0.0217 -0.3611  0.2533
 5871W        W 9935   8.693   5.011  10.267 -0.0785  0.1497 -0.3665
 5872W        W 9936   7.824   1.406   2.725 -0.2459  0.2728  0.2360
 5873W        W 9937   0.222   9.048   0.373  0.3190 -0.0826  0.1497
 5874W        W 9938   0.244   4.050  10.200 -0.1579 -0.0247 -0.2194
 5875W        W 9939   3.570   6.554  10.198  0.0498  0.2217  0.0341
 5876W        W 9940   9.510   0.818   3.851  0.1088 -0.0884 -0.2294
 5877W        W 9941   4.366   6.316  11.526  0.2350  0.1779 -0.1062
 5878W        W 9942   9.744   5.473   1.917  0.0858 -0.1544 -0.1380
 5879W        W 9943   9.487   7.945   2.069  0.2732 -0.2055  0.0113
 5880W        W 9944   2.667   8.076   9.789  0.2425  0.3164 -0.0254
 5881W        W 9945   9.072   4.582   8.654 -0.1299 -0.2587  0.1578
 5882W        W 9946   4.958   6.419   1.033 -0.0945  0.3474  0.1830
 5883W        W 9947   6.649   0.520   2.043 -0.0900  0.1520  0.1754
 5884W        W 9948   1.019   0.569   2.957  0.0196 -0.1656 -0.0030
 5885W        W 9949  10.280   1.091   0.723  0.0829  0.2887 -0.1047
 5886W        W 9950   1.998   8.681  10.205 -0.0007 -0.0664 -0.1179
 5887W        W 9951   2.064   2.989   3.915 -0.1467  0.0016  0.2960
 5888W        W 9952   4.146   9.134   1.490  0.1887 -0.2507  0.4405
 5889W        W 9953   2.066   5.386   1.525 -0.0674 -0.1105 -0.2898
 5890W        W 9954   1.073   3.632   8.923  0.1541  0.2547  0.1697
 5891W        W 9955   3.642   0.891   1.416 -0.0662  0.1897  0.0325
 5892W        W 9956   4.039  10.477   7.833  0.3318 -0.1533  0.1809
 5893W        W 9957   2.585   0.438   0.283  0.1624  0.1176  0.0391
 5894W        W 9958   8.225   4.452   8.006 -0.2083 -0.0539  0.2970
 5895W        W 9959   5.963   9.518   0.642 -0.3793 -0.0040 -0.0272
 5896W        W 9960   8.156   6.139   9.566 -0.3130 -0.2606 -0.2349
 5897W        W 9961   7.228   9.889   8.140 -0.0761 -0.1855  0.3195
 5898W        W 9962   2.864   0.262   8.926  0.0174  0.1786 -0.0396
 5899W        W 9963   6.755   9.491   8.884  0.1069 -0.0276  0.3134
 5900W        W 9964   9.535   8.017   0.625 -0.0666  0.3718  0.0614
 5901W        W 9965   3.606   7.945   3.373  0.0624  0.3823 -0.2783
 5902W        W 9966  10.313  10.581   2.542  0.1915 -0.1394 -0.0512
 5903W        W 9967   8.252   7.599  11.061 -0.0799 -0.0838 -0.1432
 5904W        W 9968   3.374   3.913   8.496  0.0178 -0.1457  0.0809
 5905W        W 9969   0.133   4.630   9.540 -0.1257 -0.1375  0.1559
 5906W        W 9970   6.407   6.114   1.578  0.1121  0.0157 -0.1151
 5907W        W 9971   1.063   1.027  10.182  0.1898  0.0213  0.2251
 5908W        W 9972   0.350   7.697   9.567 -0.0588 -0.1821  0.0518
 5909W        W 9973   8.723   2.864   9.940 -0.2289  0.3063 -0.2062
 5910W        W 9974   8.848   2.678   0.443 -0.0335  0.1931 -0.1807
 5911W        W 9975   1.619   7.352   7.823 -0.0769  0.0437  0.4223
 5912W        W 9976   5.009   9.595   0.523  0.1061  0.2919 -0.3598
 5913W        W 9977   6.200   1.691  10.028 -0.1280 -0.0880  0.1257
 5914W        W 9978   3.915   9.707   3.017 -0.0496  0.2377 -0.1324
 5915W        W 9979   6.902   6.114   0.918 -0.0123  0.2526 -0.0385
 5916W        W 9980   4.839   1.938   8.742 -0.2295 -0.2295  0.2279
 5917W        W 9981   2.649   9.161   3.370  0.0295  0.0192  0.1890
 5918W        W 9982   1.758   0.989   9.427  0.1937  0.1262 -0.2851
 5919W        W 9983   9.590   0.022   8.623  0.3652  0.0402  0.2181
 5920W        W 9984   7.198   8.866   9.421  0.3752 -0.1098  0.1657
 5921W        W 9985   6.274   7.107   9.717 -0.2662  0.1544 -0.2213
 5922W        W 9986   7.389   6.621   9.180  0.2904 -0.1128  0.2110
 5923W        W 9987   6.334   7.184  10.499  0.2581  0.2408  0.2424
 5924W        W 9988   3.730   6.995   7.542  0.2410 -0.2491 -0.4804
 5925W        W 9989   9.450   9.294   3.117  0.1259 -0.2003  0.2508
 5926W        W 9990   1.181   4.016   8.140 -0.2202  0.0273  0.1201
 5927W        W 9991   8.437   2.423   2.097 -0.1583 -0.1689 -0.0580
 5928W        W 9992   3.509   8.258   3.004 -0.0856  0.3234 -0.4460
 5929W        W 9993  10.328   4.754  10.272  0.3855  0.0968  0.3361
 5930W        W 9994  10.208   9.952   9.026 -0.1132 -0.2572  0.0619
 5931W        W 9995   0.302   1.159   1.700 -0.1196 -0.1720 -0.0595
 5932W        W 9996   1.719   5.185   2.573 -0.0474  0.3070  0.2420
 5933W        W 9997   8.730   0.467   0.150  0.0304  0.0464  0.0144
 5934W        W 9998   8.374   8.578  10.339  0.0024  0.0123  0.1810
 5935W        W 9999  10.586   1.734   1.472  0.0679  0.1817  0.1367
 5936W        W10000   0.295   7.614   1.147  0.0337  0.1595  0.3120
 5937W        W10001   8.096   8.353   9.037  0.0822  0.0137  0.2086
 5938W        W10002   4.015   5.520  11.462  0.0256 -0.2140 -0.1952
 5939W        W10003   3.124  10.264   1.630  0.1957  0.0510 -0.0345
 5940W        W10004   3.646   7.406   1.249  0.0560 -0.2084 -0.3688
 5941W        W10005   0.529   5.402  10.422  0.4027 -0.1475 -0.2947
 5942W        W10006   8.760   2.246  10.683 -0.1368 -0.1092 -0.2857
 5943W        W10007   6.059   2.101   0.630  0.4468  0.0426  0.0661
 5944W        W10008  10.256   0.401   9.785 -0.0753  0.0326  0.0171
 5945W        W10009   2.402   0.911   0.454 -0.0081 -0.0116  0.4223
 5946W        W10010   9.464   8.215  11.373  0.1854 -0.1310  0.2734
 5947W        W10011  10.116   3.230   8.534 -0.2385  0.0280  0.0044
 5948W        W10012   7.634   6.520   8.792 -0.1759 -0.0665 -0.1705
 5949W        W10013   7.662   5.553   3.438 -0.1370  0.2952 -0.2234
 5950W        W10014   2.103   2.488   2.376  0.0493  0.5180 -0.0136
 5951W        W10015   2.681   2.360   0.198  0.0945  0.1885  0.1626
 5952W        W10016   1.376   7.560  10.473  0.1520 -0.1677  0.0820
 5953W        W10017   7.548   6.090   2.897  0.2604 -0.1070  0.2160
 5954W        W10018   5.270   2.857   1.394  0.0715  0.0300 -0.1603
 5955W        W10019   0.410  10.393   9.772  0.2936 -0.0247 -0.1958
 5956W        W10020   6.708   1.658   6.860 -0.0279 -0.1770 -0.1067
 5957W        W10021   4.774   2.085   1.217  0.1545  0.0774 -0.1208
 5958W        W10022   8.054   1.882   8.449  0.2046  0.0155  0.1361
 5959W        W10023   4.412   4.321   0.370  0.1197 -0.1438  0.1281
 5960W        W10024   6.801   1.473   7.825  0.1149  0.4009 -0.0662
 5961W        W10025   3.932   8.598  10.030  0.0507  0.2738 -0.1482
 5962W        W10026   8.274   8.478   8.577  0.4005  0.1426  0.0588
 5963W        W10027   2.092   0.186   1.075 -0.3338  0.3649 -0.3830
 5964W        W10028   2.689   3.691   2.188  0.1349  0.0455  0.0198
 5965W        W10029   2.055   0.795   8.890  0.2436  0.1582 -0.1496
 5966W        W10030   3.951   1.770  10.986 -0.1671 -0.0814 -0.3388
 5967W        W10031   1.813   9.132  10.840 -0.0015 -0.1414 -0.2686
 5968W        W10032   8.828   4.126   1.364 -0.1356 -0.0087  0.0414
 5969W        W10033   8.019   9.322   9.844 -0.2268  0.1106  0.3577
 5970W        W10034   3.745   0.491   7.713 -0.1336 -0.0802 -0.0653
 5971W        W10035   7.662   6.362   1.929  0.2115 -0.1260  0.0757
 5972W        W10036   5.902   9.217   0.250 -0.1162 -0.0780 -0.0480
 5973W        W10037   3.714   5.798   1.196  0.0925 -0.2896 -0.0998
 5974W        W10038   0.580   6.638   9.166 -0.0631  0.5485 -0.0073
 5975W        W10039   6.032   0.084   3.434 -0.1172  0.0859  0.0632
 5976W        W10040   4.076   4.234   8.731 -0.1446 -0.0614  0.1681
 5977W        W10041   5.384   8.917   1.145  0.0932  0.1690  0.1927
 5978W        W10042   1.287   3.392   1.409 -0.0583  0.1817  0.0260
 5979W        W10043   9.503   5.933   2.682  0.3224  0.0057 -0.3486
 5980W        W10044   3.191   4.524   8.708 -0.0029 -0.3840 -0.0448
 5981W        W10045   7.736   5.243   0.121 -0.1449  0.4178 -0.2481
 5982W        W10046   8.486   2.940  10.313 -0.1065 -0.3467 -0.3597
 5983W        W10047   7.290   7.341  10.311  0.0138 -0.2624 -0.4135
 5984W        W10048   9.103  10.258   2.340  0.0036 -0.0381 -0.2270
 5985W        W10049   0.080   0.913   0.870 -0.1206 -0.1427  0.4068
 5986W        W10050   6.012  10.451   8.353 -0.2065  0.0734  0.1413
 5987W        W10051   9.514   4.730   3.177 -0.1484 -0.0864 -0.1695
 5988W        W10052   4.940   5.696   0.349 -0.0969 -0.2935  0.0413
 5989W        W10053   5.092   6.690   3.260  0.2170 -0.0124 -0.1834
 5990W        W10054   2.801   8.831   8.213  0.0234  0.0059  0.1698
 5991W        W10055   1.623   1.861   9.818  0.0678 -0.3782  0.0389
 5992W        W10056   2.219   5.965   0.868 -0.2882  0.1454 -0.5722
 5993W        W10057   3.713   7.255   9.861 -0.0314 -0.3568  0.2523
 5994W        W10058   1.847   0.105   3.240 -0.1432 -0.2447 -0.0741
 5995W        W10059   5.490   1.233   3.748  0.1425  0.2626 -0.0075
 5996W        W10060   6.522   3.900   2.755  0.4613  0.1565  0.2998
 5997W        W10061   6.217   2.098   1.172 -0.0218 -0.2032 -0.5656
 5998W        W10062   2.672   9.042   1.004 -0.2742 -0.1392  0.2267
 5999W        W10063   1.688   6.129   9.948  0.1312  0.1819  0.0263
 6000W        W10064   2.563   2.443   2.204 -0.0753 -0.2263 -0.2029
 6001W        W10065   1.109   9.534   9.043 -0.2156  0.0823 -0.3440
 6002W        W10066   8.352   7.206  10.292  0.1962 -0.0091 -0.3770
 6003W        W10067   2.317   0.146   8.212  0.0551  0.0604  0.2525
 6004W        W10068   5.453   0.347  11.241 -0.2494  0.3107 -0.1227
 6005W        W10069   8.093   1.549   9.794  0.0719  0.1453  0.3493
 6006W        W10070   7.923   6.355   0.362 -0.3863 -0.0802  0.0041
 6007W        W10071   7.429  10.327  10.752 -0.0718  0.3679  0.1530
 6008W        W10072   1.433  10.621   9.095  0.3013 -0.2093  0.3939
 6009W        W10073   9.349   0.326   9.354  0.1401 -0.0275  0.1390
 6010W        W10074   9.537   7.377   2.343  0.0890  0.0958 -0.3101
 6011W        W10075   0.109   4.303   9.119 -0.0959 -0.4387 -0.2177
 6012W        W10076   3.864   0.589   0.745  0.2936 -0.1536 -0.0182
 6013W        W10077   5.464   8.101   0.971 -0.1868 -0.0996  0.0578
 6014W        W10078   3.827   7.700   1.640  0.1349 -0.2518 -0.2321
 6015W        W10079   4.736   6.336   0.566  0.2532  0.2038 -0.1484
 6016W        W10080   4.107   8.216   1.714 -0.0074 -0.2936 -0.2504
 6017W        W10081   7.404   4.914   2.267  0.1478  0.0429 -0.1207
 6018W        W10082   9.807   9.381   2.265 -0.2991 -0.1315 -0.0293
 6019W        W10083   4.813   5.857  10.006  0.0487 -0.0150  0.0437
 6020W        W10084   7.906   3.546   9.236 -0.3267 -0.3660 -0.0791
 6021W        W10085   6.516  10.204  11.036 -0.1048  0.1942 -0.0021
 6022W        W10086   0.421   4.781   8.259  0.3453  0.1866 -0.3088
 6023W        W10087   3.729   2.803   1.225 -0.1030  0.0329  0.2414
 6024W        W10088   1.249   7.063   4.187  0.1118 -0.2000 -0.2709
 6025W        W10089   0.448   2.607   2.001  0.1151  0.0389 -0.0138
 6026W        W10090   6.522   2.298  11.387 -0.1895 -0.0021  0.3210
 6027W        W10091   1.724   6.469   8.036  0.2023  0.4543  0.2590
 6028W        W10092   6.479   5.728   8.646 -0.2366 -0.2932 -0.3088
 6029W        W10093   6.705   3.168  10.515  0.1534 -0.3029  0.2263
 6030W        W10094   0.559   7.981   0.926  0.0813  0.3886 -0.0653
 6031W        W10095   5.232   3.180   0.549 -0.1434 -0.1462  0.0347
 6032W        W10096   5.325   5.154   1.988 -0.1832  0.1606  0.0657
 6033W        W10097   8.365   7.300   2.768  0.0932 -0.0900 -0.2140
 6034W        W10098   2.739   8.887   2.991  0.2513 -0.2513 -0.1404
 6035W        W10099   1.556   3.826   9.022 -0.1730 -0.1674  0.1861
 6036W        W10100   4.651   2.265   3.141  0.1760 -0.1083  0.0825
 6037W        W10101   3.151   6.708   3.433 -0.1589  0.1568  0.1777
 6038W        W10102   3.209   8.208  10.278 -0.2794 -0.0505 -0.2577
 6039W        W10103   7.728  10.140   8.089  0.1117  0.1873  0.0864
 6040W        W10104   3.275   7.219   7.708  0.1311 -0.1949 -0.1445
 6041W        W10105   9.286   7.761   4.110 -0.3162 -0.0654  0.2026
 6042W        W10106   2.297   8.548   8.126 -0.0970 -0.1749 -0.0577
 6043W        W10107   3.144   0.648   8.758  0.0754  0.2208 -0.1395
 6044W        W10108   4.001   6.627   0.948 -0.0373 -0.1581  0.0513
 6045W        W10109   0.020   4.889  11.521  0.4971  0.1648 -0.1505
 6046W        W10110   7.363   7.345   1.503 -0.1463 -0.0908 -0.0552
 6047W        W10111   6.969   2.393   0.712  0.1627 -0.0579  0.0655
 6048W        W10112   6.480   0.744   1.463 -0.0605 -0.1209 -0.1063
 6049W        W10113   7.771   2.978  10.982 -0.1222 -0.1002 -0.3761
 6050W        W10114   5.102   6.997  10.021  0.0167 -0.2184 -0.1196
 6051W        W10115   1.598   9.332   1.808  0.0162  0.3257  0.0847
 6052W        W10116   9.718   4.319   0.834  0.0965  0.1953 -0.2214
 6053W        W10117   5.464   5.687   3.028 -0.0017  0.0374 -0.1744
 6054W        W10118   0.442   3.955   0.064  0.1311 -0.0561  0.2809
 6055W        W10119   3.741   5.983   3.180  0.0556 -0.5527 -0.0348
 6056W        W10120   0.473  10.624   8.110 -0.3692  0.1468 -0.0947
 6057W        W10121   6.516   1.160   0.962 -0.1650  0.1884 -0.1583
 6058W        W10122   5.287   3.917  11.322 -0.1636 -0.0527  0.2280
 6059W        W10123   1.746   0.741  11.361  0.1262  0.1810 -0.1933
 6060W        W10124   1.014   4.235   1.636  0.1853 -0.2491 -0.3985
 6061W        W10125   7.055   1.471   0.670  0.0035  0.0060 -0.1673
 6062W        W10126  10.465   9.184   8.288  0.1701 -0.1755 -0.1876
 6063W        W10127   0.312   8.208   2.992 -0.0433 -0.0478 -0.0961
 6064W        W10128  10.062   7.023  10.116  0.1134  0.0687 -0.0386
 6065W        W10129   6.337   3.069  10.200 -0.2057 -0.2616  0.1081
 6066W        W10130   4.871   7.176   3.055 -0.0822 -0.0126 -0.1227
 6067W        W10131   8.351   6.671   2.996 -0.2007 -0.0828  0.0361
 6068W        W10132   7.426   8.924   1.110 -0.0952  0.0533  0.1350
 6069W        W10133   4.725   8.344   0.439 -0.2508  0.3268  0.1145
 6070W        W10134   2.388   4.385   9.578  0.1064  0.2978  0.1446
 6071W        W10135  10.447   7.429  11.294  0.3164  0.1608  0.0083
 6072W        W10136   8.934   0.638   9.491  0.1865 -0.1570  0.0636
 6073W        W10137   6.288   9.122   0.671  0.1190 -0.1173  0.2774
 6074W        W10138   2.631   5.995   2.899 -0.0184 -0.0363  0.0972
 6075W        W10139   3.320   1.802   3.294 -0.1404 -0.0140  0.1557
 6076W        W10140   0.651   0.406   2.690 -0.0736  0.1956  0.1118
 6077W        W10141   8.101   9.385  10.352  0.1920 -0.0169  0.1340
 6078W        W10142   7.198   0.519   3.775 -0.1355  0.0973 -0.1449
 6079W        W10143   4.655   7.422   1.721  0.1114 -0.1604 -0.0700
 6080W        W10144   5.651   2.841  11.162 -0.1090  0.0886  0.0883
 6081W        W10145   6.221   9.778   2.047 -0.1290 -0.2306  0.1767
 6082W        W10146  10.523   8.749   0.947 -0.1107 -0.2821 -0.0601
 6083W        W10147   7.989   1.977  11.248  0.1807  0.1042 -0.2076
 6084W        W10148   2.415  10.330   2.675 -0.4251 -0.2257 -0.1184
 6085W        W10149   4.684   1.522   0.487 -0.1669  0.0121  0.3670
 6086W        W10150   5.907   6.169   3.570  0.1451 -0.3545 -0.1940
 6087W        W10151   2.264   9.885   2.851 -0.0667  0.0185 -0.0592
 6088W        W10152   0.056   9.920   9.797  0.0726 -0.0135 -0.4376
 6089W        W10153   2.083   7.052   4.164 -0.2869  0.1269 -0.3090
 6090W        W10154   7.449   5.010   0.467  0.0569  0.1243  0.0989
 6091W        W10155   3.400   8.717   9.994  0.1061 -0.0125 -0.1383
 6092W        W10156   7.102   7.222   2.986 -0.3697 -0.2937 -0.0947
 6093W        W10157   1.420   4.910   0.211  0.4675  0.0914 -0.0677
 6094W        W10158   6.465   5.589  10.070 -0.1318 -0.0248 -0.4076
 6095W        W10159   9.530   0.443  10.130  0.0903  0.1047  0.3809
 6096W        W10160   2.924   5.153   3.411  0.2403  0.1128  0.2267
 6097W        W10161   2.043   6.698   8.422  0.2907 -0.0395 -0.0134
 6098W        W10162   2.163   5.130   3.944  0.0315 -0.0329 -0.0674
 6099W        W10163   8.182   4.620   9.732 -0.0023 -0.2084  0.2767
 6100W        W10164   9.751   7.806   1.073  0.2286  0.2311  0.0726
 6101W        W10165   5.305   5.849   8.872 -0.0487  0.0988 -0.0279
 6102W        W10166   2.607   7.553  11.040 -0.1484  0.2245 -0.1275
 6103W        W10167   1.734   9.806   8.253 -0.0928  0.0325 -0.0318
 6104W        W10168   2.762   1.897   8.190 -0.1266  0.1543  0.1942
 6105W        W10169   0.049   3.264   8.709  0.0884 -0.0626  0.0587
 6106W        W10170   2.351   9.690   3.537  0.0366 -0.0039  0.2681
 6107W        W10171   1.558   1.810   8.067  0.0251 -0.1468  0.0566
 6108W        W10172   0.510  10.264   7.693  0.1874  0.0065  0.0548
 6109W        W10173   5.825   8.013   1.850 -0.1508 -0.2168  0.3212
 6110W        W10174   9.620   5.983   9.430  0.1488 -0.0968  0.0261
 6111W        W10175   2.828   1.122  10.161 -0.1428 -0.3688  0.1082
 6112W        W10176   2.684   3.546   9.406 -0.0501 -0.0592 -0.2232
 6113W        W10177   1.749   5.316   9.108  0.1987  0.1189 -0.0807
 6114W        W10178   9.155   1.137   2.770 -0.1499  0.1650  0.2402
 6115W        W10179   6.629   3.146   1.020 -0.0676 -0.0903  0.1542
 6116W        W10180   7.440   5.379  11.098  0.1127  0.0022  0.1627
 6117W        W10181   6.743   1.673  10.685  0.1081 -0.0796  0.2293
 6118W        W10182   6.345   2.456  10.451  0.0096  0.2191  0.1879
 6119W        W10183   8.471   4.259  10.006 -0.1996 -0.1728  0.1260
 6120W        W10184   3.241   2.307   2.550 -0.1007  0.1777 -0.0437
 6121W        W10185   9.688  10.401   3.805  0.2652 -0.0766  0.1326
 6122W        W10186   2.017   1.717  10.396 -0.3532  0.3123 -0.2563
 6123W        W10187   2.269   2.660  10.598 -0.0445 -0.0575  0.0573
 6124W        W10188   8.581   0.104   8.768  0.2295  0.0964 -0.0207
 6125W        W10189   4.365  10.396   0.762  0.1664  0.0003 -0.2371
 6126W        W10190   4.927   5.047   8.475 -0.0619  0.0897 -0.0737
 6127W        W10191   3.663   4.767   8.817 -0.1769  0.1053  0.0214
 6128W        W10192   8.890   9.992   8.854  0.2404  0.1466 -0.1592
 6129W        W10193   5.442   9.396   0.736 -0.1226  0.1907 -0.1239
 6130W        W10194   8.762   1.881   9.040 -0.4891  0.0566 -0.3076
 6131W        W10195   9.589   9.888   9.940  0.0163  0.1597  0.1603
 6132W        W10196   8.470   7.729   0.333  0.0953  0.2070 -0.1154
 6133W        W10197   3.232   8.766   1.713 -0.2273  0.0700  0.3448
 6134W        W10198   8.068   2.417   2.510 -0.2105  0.2854  0.1388
 6135W        W10199   0.971   9.562  11.230  0.3470 -0.0297 -0.0156
 6136W        W10200   5.095   5.272   2.432  0.2324 -0.1712 -0.3249
 6137W        W10201   3.543   1.641   3.874 -0.2871 -0.1061 -0.0663
 6138W        W10202   5.165   4.730   2.135 -0.2434  0.1782  0.0831
 6139W        W10203  10.196   2.350   4.083  0.0496  0.0032 -0.0068
 6140W        W10204   0.108   8.444   4.166 -0.1943  0.3097 -0.2298
 6141W        W10205   9.758   0.327   9.687  0.0799 -0.1139 -0.0687
 6142W        W10206   9.416   0.419   0.794 -0.0467  0.1016 -0.1356
 6143W        W10207   8.409   5.786   2.946  0.3597  0.0205  0.0127
 6144W        W10208   7.561   7.426   9.872 -0.0436 -0.2681  0.1796
 6145W        W10209   3.482   4.692   2.941  0.1457  0.2082  0.0832
 6146W        W10210   2.926   6.134   9.444  0.3124 -0.0831  0.0410
 6147W        W10211   6.341   3.175   0.109  0.0508 -0.0805 -0.1002
 6148W        W10212   1.874   8.366   9.163 -0.2510 -0.4390  0.2653
 6149W        W10213   2.081   5.050   9.999  0.1004  0.0621  0.0036
 6150W        W10214   3.062   0.949   2.286  0.2463  0.0007  0.0746
 6151W        W10215  10.623   3.072   2.571  0.1945 -0.0089  0.1814
 6152W        W10216   2.989  10.266   3.449  0.0129 -0.2476  0.1078
 6153W        W10217   7.871   3.551   7.638 -0.1477  0.2772 -0.2123
 6154W        W10218   6.903   3.625   1.040 -0.0257  0.2055  0.1124
 6155W        W10219   9.761   2.929   3.700  0.2173 -0.4329  0.0979
 6156W        W10220   6.861   4.805   0.090 -0.0863 -0.0666 -0.3154
 6157W        W10221   7.098   7.443   8.986 -0.0147  0.0137  0.2538
 6158W        W10222   3.567   9.982  10.215  0.0344 -0.1169  0.1415
 6159W        W10223   6.484  10.482   0.769 -0.0040  0.0349  0.0563
 6160W        W10224   1.149   4.129  10.716 -0.1892 -0.1937 -0.2272
 6161W        W10225   4.828   0.472   0.985 -0.0478  0.0317  0.2905
 6162W        W10226   4.496   4.333   3.331 -0.1058 -0.0309 -0.1668
 6163W        W10227  10.112   7.117   0.511 -0.0967  0.3458 -0.1945
 6164W        W10228   2.211   1.562   8.460  0.0679  0.2023  0.0650
 6165W        W10229   0.535   4.337  10.942  0.0093  0.0284  0.2155
 6166W        W10230   8.785   5.442   1.799  0.2987 -0.4483 -0.0489
 6167W        W10231   9.805   2.691   1.932  0.0733 -0.4046  0.1136
 6168W        W10232   0.846   4.463  10.549 -0.3025  0.0056 -0.1042
 6169W        W10233   4.960   5.420   9.829 -0.3520  0.0294  0.1358
 6170W        W10234   1.344   5.341  10.754  0.0449 -0.3211 -0.0078
 6171W        W10235   4.080   2.714  11.375  0.0470  0.0539 -0.1239
 6172W        W10236  10.102   9.209   9.340  0.0208  0.0957 -0.0497
 6173W        W10237   2.984   7.813  10.114  0.0801  0.1680  0.1570
 6174W        W10238   2.275   3.099   8.901 -0.4871 -0.0575 -0.3384
 6175W        W10239   6.746   7.214   0.878  0.2312  0.0972 -0.2426
 6176W        W10240   1.396   2.738   7.616  0.1241  0.0325 -0.0641
 6177W        W10241   1.016   1.351   9.574  0.4108 -0.0370 -0.1441
 6178W        W10242   8.990   4.711   0.570  0.2551 -0.2064  0.0741
 6179W        W10243   6.424   0.204   1.700  0.1104 -0.5093  0.1757
 6180W        W10244   5.460   3.817   2.968 -0.1852 -0.2049 -0.3903
 6181W        W10245   9.078   0.351   1.129  0.1569  0.0466 -0.2104
 6182W        W10246   9.677   0.672   1.643  0.0299 -0.1250 -0.4059
 6183W        W10247   8.689   4.637  10.887 -0.2148  0.0014  0.0190
 6184W        W10248   7.978   7.855   1.228 -0.0243 -0.0532  0.2264
 6185W        W10249   1.689   1.716   8.548 -0.1267 -0.1252 -0.2239
 6186W        W10250   3.810   4.663  10.107 -0.0558  0.0138 -0.0021
 6187W        W10251   1.211   9.737  10.383 -0.0291  0.4044 -0.1139
 6188W        W10252   6.061   8.480   7.916 -0.0378  0.2634 -0.2704
 6189W        W10253  10.480   5.979   9.213 -0.0141  0.2000  0.0181
 6190W        W10254   7.868   5.018  10.527  0.0496  0.0524 -0.3764
 6191W        W10255   5.325   0.802   2.397 -0.0064 -0.2076  0.1098
 6192W        W10256   4.686   7.544   8.926 -0.2797 -0.2043 -0.1215
 6193W        W10257   7.513   8.593   0.564  0.2483 -0.0345  0.0674
 6194W        W10258   3.871   5.918  10.527 -0.1218 -0.0789 -0.2589
 6195W        W10259   7.050   6.478   0.566  0.2518  0.2672  0.1210
 6196W        W10260  10.554   5.443   1.567 -0.0710 -0.0645 -0.1294
 6197W        W10261   0.151   2.756   2.911  0.0371  0.0076  0.0009
 6198W        W10262   4.470  10.094   9.057  0.0649  0.0220 -0.1624
 6199W        W10263   3.839   1.048   9.942  0.1331  0.0681 -0.0275
 6200W        W10264   3.844   1.621  10.511 -0.0730 -0.4255 -0.1388
 6201W        W10265   8.037   0.869   9.810  0.0472  0.2317 -0.1703
 6202W        W10266   3.209   8.438   3.788  0.2025  0.2679  0.1153
 6203W        W10267   3.672   8.163  11.233  0.0146 -0.1515 -0.0179
 6204W        W10268   4.831   6.246   0.046 -0.0591 -0.0808 -0.1263
 6205W        W10269   4.371   2.616   8.304  0.3966  0.0388 -0.1011
 6206W        W10270   3.415   8.655   7.600  0.0513 -0.1412  0.0217
 6207W        W10271   7.587   6.509  11.483  0.4777 -0.3642 -0.1755
 6208W        W10272   2.833   7.734   8.589 -0.2592 -0.2199 -0.0519
 6209W        W10273   8.286   8.033   2.149  0.2985 -0.1903 -0.1634
 6210W        W10274   3.979   3.472   8.235  0.2016  0.5548 -0.0786
 6211W        W10275   0.832   0.329  10.862 -0.1359 -0.1243  0.0570
 6212W        W10276   8.492   7.437   3.268 -0.0187  0.1413  0.0819
 6213W        W10277   4.799   6.999   1.995 -0.1035  0.0938 -0.1323
 6214W        W10278   9.230   0.204   0.349 -0.0324  0.1869 -0.0752
 6215W        W10279   7.578   2.251   2.577 -0.3469  0.0770  0.3033
 6216W        W10280   2.725   4.639   9.100  0.0329  0.2827 -0.1242
 6217W        W10281   6.591   9.161   7.971 -0.2034 -0.1869  0.0603
 6218W        W10282   8.152   4.447   3.632  0.0741  0.1232  0.0084
 6219W        W10283   5.500   7.519  11.333  0.3750  0.1451  0.0415
 6220W        W10284   1.985   1.471   9.397  0.0934  0.1438 -0.2787
 6221W        W10285   7.740   6.522   2.550  0.2161  0.1318  0.0400
 6222W        W10286   5.080   4.181  10.522  0.2751  0.1340  0.2418
 6223W        W10287   6.202  10.353  11.376 -0.0325  0.0125  0.0615
 6224W        W10288   2.571   0.772   9.621  0.0126 -0.3519  0.2285
 6225W        W10289   4.081   7.980   9.512  0.2442 -0.0802  0.1555
 6226W        W10290   5.574   0.629   9.445 -0.1988 -0.2092 -0.1204
 6227W        W10291   7.033   9.486   9.370 -0.3086  0.0869 -0.2888
 6228W        W10292   9.792   2.564  10.333  0.2374 -0.0323  0.1250
 6229W        W10293   1.722   2.599   1.137  0.1298 -0.1172 -0.1363
 6230W        W10294   0.840   7.291   9.267  0.2331 -0.1290 -0.0540
 6231W        W10295   2.231   8.798   2.242 -0.0216 -0.3661  0.0855
 6232W        W10296   8.468   2.048   1.200  0.0794  0.2768 -0.2781
 6233W        W10297   1.219   0.225  10.478 -0.0657 -0.0752 -0.0221
 6234W        W10298   4.858   1.799  10.311  0.0557  0.0146 -0.0261
 6235W        W10299   0.747   4.930   0.621  0.2648  0.0066  0.5936
 6236W        W10300   7.004   3.776   9.644 -0.1067 -0.1215 -0.1899
 6237W        W10301   8.311  10.014   2.472 -0.5336 -0.0179 -0.4835
 6238W        W10302   5.206   7.967   9.627 -0.1291 -0.3276 -0.0028
 6239W        W10303   0.421   3.020   1.116  0.2011 -0.1317  0.2109
 6240W        W10304   8.693   5.206  11.521  0.1880 -0.3857 -0.0513
 6241W        W10305   5.878   3.798  11.032  0.3803  0.0538  0.1160
 6242W        W10306   5.747   3.762   1.383 -0.0755  0.0430  0.2146
 6243W        W10307   8.480   9.541   2.311  0.1403 -0.0609  0.1795
 6244W        W10308   5.894   3.706   8.994  0.0122 -0.3398  0.2237
 6245W        W10309   6.146   9.723   9.530 -0.1432 -0.2193  0.2369
 6246W        W10310   4.283  10.134  11.077  0.0138  0.1730  0.2990
 6247W        W10311   4.774   4.054  11.500 -0.1928  0.1159 -0.3691
 6248W        W10312   6.884   7.685   3.722 -0.0377  0.2765  0.1429
 6249W        W10313   4.539   9.016   3.489  0.3499  0.1809  0.0035
 6250W        W10314   0.346   5.307   2.076 -0.0254  0.1173 -0.1628
 6251W        W10315   2.752   4.542   1.957 -0.1488  0.1611 -0.0297
 6252W        W10316   3.674   3.360   1.912 -0.0010 -0.0635  0.0145
 6253W        W10317   3.541   1.302  10.311  0.1810  0.1842 -0.0545
 6254W        W10318   7.386   9.794   9.182 -0.3014 -0.0523 -0.0022
 6255W        W10319   2.111   8.750   1.724  0.2146 -0.0826  0.2353
 6256W        W10320   0.102   4.130   1.673  0.2527 -0.0336  0.2139
 6257W        W10321   1.824   0.815  10.804 -0.0518 -0.0518 -0.0254
 6258W        W10322   4.810   9.814  10.359 -0.2929  0.4505  0.2499
 6259W        W10323   7.901   0.752   1.477 -0.0238  0.1018  0.1965
 6260W        W10324   9.846   3.993   1.283  0.1174  0.3075 -0.0219
 6261W        W10325   7.716   8.161  11.434  0.2015  0.0004 -0.0818
 6262W        W10326   1.249   4.708   1.885  0.1048 -0.0833 -0.1873
 6263W        W10327   7.766   1.846   0.638 -0.1220 -0.2132  0.3263
 6264W        W10328   6.852   2.425   9.867 -0.0430  0.1820 -0.0051
 6265W        W10329  10.240   4.158   3.737 -0.1584  0.0629  0.0290
 6266W        W10330   3.451   4.218  10.253 -0.1768 -0.2041 -0.0278
 6267W        W10331   3.320   3.487   3.427 -0.0437 -0.0825  0.0478
 6268W        W10332   4.451   1.920   0.832 -0.2208 -0.0832  0.1876
 6269W        W10333   7.478   4.773   1.035  0.3412  0.0927  0.2476
 6270W        W10334  10.449   1.675   3.377  0.1167  0.3743 -0.0881
 6271W        W10335   2.245   9.426  10.098  0.2185 -0.0674  0.3048
 6272W        W10336   0.628   3.767   2.468  0.0694  0.0545 -0.2375
 6273W        W10337   8.921   9.128   1.660 -0.1295  0.0119  0.0069
 6274W        W10338   3.081  10.367   8.194 -0.0278 -0.0245  0.1184
 6275W        W10339   1.012   7.268  10.221  0.1384 -0.2296  0.2998
 6276W        W10340   7.401   2.144  11.343 -0.0277  0.1232  0.3124
 6277W        W10341   6.614   2.604   9.020 -0.0846 -0.0061 -0.0759
 6278W        W10342   9.467   0.794  11.103 -0.0256  0.2513 -0.0699
 6279W        W10343   6.761   8.625   8.657 -0.1639  0.0712  0.3232
 6280W        W10344   2.857   2.322   0.719  0.0829 -0.1554  0.0921
 6281W        W10345   8.636   1.836  10.424 -0.2130  0.2788  0.4432
 6282W        W10346   4.775   5.238   3.494  0.4100  0.0382 -0.1309
 6283W        W10347   6.739   3.397   2.012 -0.2621  0.0962  0.3424
 6284W        W10348   7.590   1.970  10.916 -0.0487 -0.0198  0.3482
 6285W        W10349   2.992   7.769   9.070  0.0247 -0.1109 -0.1706
 6286W        W10350   9.826  10.012   3.561 -0.0812 -0.1381  0.1049
 6287W        W10351   8.210   5.218  11.558 -0.0820 -0.0040 -0.1518
 6288W        W10352   8.721   6.714   9.015 -0.2719  0.0566  0.2180
 6289W        W10353   2.938   9.245   1.398 -0.0925  0.0809 -0.1339
 6290W        W10354   0.155  10.082   9.327 -0.0075 -0.0697 -0.1180
 6291W        W10355   4.598   6.910   3.423  0.2032  0.0765  0.1294
 6292W        W10356  10.536   5.658   4.746  0.0412  0.3853 -0.1920
 6293W        W10357   4.235   8.326  10.357 -0.2047  0.2135  0.0548
 6294W        W10358   0.196   2.677   2.422 -0.1542 -0.0814 -0.0274
 6295W        W10359   9.858   3.856   0.792 -0.0541  0.1266  0.4389
 6296W        W10360   3.963  10.318  10.309 -0.0875 -0.0746  0.0299
 6297W        W10361   0.267   6.263   1.826  0.3516 -0.0622 -0.0192
 6298W        W10362   3.949   9.043   9.380  0.0275 -0.2697  0.0331
 6299W        W10363   3.723   3.098   2.609  0.0121  0.0953 -0.1816
 6300W        W10364   9.837   7.722   9.362 -0.0761  0.1885  0.0011
 6301W        W10365  10.134   1.573   9.268  0.1702 -0.1497 -0.2336
 6302W        W10366   2.284   1.270   1.696 -0.0799 -0.1544 -0.2076
 6303W        W10367   0.554   7.206   1.474 -0.1198  0.1537  0.1260
 6304W        W10368   4.942   2.320   9.066 -0.2491  0.0154 -0.0004
 6305W        W10369   1.723   1.114   8.534 -0.0169  0.2069 -0.0747
 6306W        W10370   7.982   2.794   2.178 -0.2554 -0.0199 -0.0912
 6307W        W10371   8.081   3.055   9.246 -0.1199 -0.1606  0.0926
 6308W        W10372   4.383   9.223   2.520 -0.3323 -0.3152  0.1644
 6309W        W10373   5.630   1.139  10.224  0.0572  0.0256 -0.0897
 6310W        W10374   0.019   4.876   0.953  0.5135 -0.0694 -0.0037
 6311W        W10375   4.941   6.497   1.512  0.0249  0.0689 -0.2139
 6312W        W10376   6.231   7.492   3.002 -0.4002 -0.0312  0.0749
 6313W        W10377   2.850   1.506   1.367 -0.1301 -0.1073  0.2136
 6314W        W10378   7.581   8.081  10.921  0.2527 -0.1565  0.2547
 6315W        W10379   9.414   3.776   0.017 -0.0253 -0.1797 -0.1627
 6316W        W10380   2.135   5.208   0.222  0.0597 -0.3621  0.1228
 6317W        W10381   0.918  10.324   3.175 -0.0513 -0.0324 -0.3180
 6318W        W10382   5.565   6.099   4.030  0.2500 -0.1016 -0.0873
 6319W        W10383   6.776   9.864   1.910  0.0186 -0.2384 -0.0116
 6320W        W10384   2.377   6.445   8.107  0.1775  0.1468  0.0654
 6321W        W10385   6.561   2.002   8.308 -0.0199  0.0384 -0.1424
 6322W        W10386   3.096  10.165  10.212 -0.0851 -0.2766  0.1561
 6323W        W10387   1.480   3.213  11.021 -0.1993  0.1649  0.0356
 6324W        W10388   7.662   1.905  10.004  0.0414  0.1243 -0.2600
 6325W        W10389   1.043   6.171  10.553 -0.1909 -0.0460  0.3846
 6326W        W10390   5.962   9.419   3.299 -0.2575 -0.2574 -0.2068
 6327W        W10391   1.243   9.351   9.569 -0.1293 -0.1407 -0.0015
 6328W        W10392   3.555   7.131   2.098  0.2063 -0.0845  0.2361
 6329W        W10393   3.995   6.402   2.329  0.0693 -0.2105  0.1198
 6330W        W10394   4.235   0.161   2.124 -0.1399  0.0634 -0.1516
 6331W        W10395   2.063   5.536   7.915 -0.1937  0.1474  0.0446
 6332W        W10396   2.626   9.606   8.692  0.1789 -0.0144 -0.2603
 6333W        W10397   3.086   7.211   1.238 -0.1542  0.0604 -0.2087
 6334W        W10398   4.482   0.327   6.719  0.1575 -0.2188  0.0975
 6335W        W10399   2.728   3.768   2.760 -0.1086 -0.0157  0.0993
 6336W        W10400   2.350   2.116   9.125 -0.1749  0.5289 -0.0765
 6337W        W10401   3.781   4.982  11.580 -0.1625 -0.0471  0.2241
 6338W        W10402   8.946   7.380   9.191  0.2479  0.0506 -0.0782
 6339W        W10403   9.286   3.207   7.864 -0.2614  0.2981  0.1232
 6340W        W10404   5.878   6.250   8.649  0.4455  0.4718  0.0612
 6341W        W10405   0.154   5.924  11.061  0.4116 -0.0121  0.2466
 6342W        W10406   8.668  10.152  10.243 -0.2693  0.4568 -0.3247
 6343W        W10407   3.655   0.236   1.084  0.0709 -0.0572 -0.3965
 6344W        W10408   7.040   7.824   1.786 -0.0806  0.1502  0.2537
 6345W        W10409  10.381   1.532  10.283  0.1411  0.0698 -0.1151
 6346W        W10410   7.719   3.434  11.164  0.0373 -0.0050 -0.0101
 6347W        W10411   4.280   9.486   0.294 -0.0416 -0.0565 -0.0972
 6348W        W10412   2.001   2.603  11.040  0.2136  0.0176 -0.2614
 6349W        W10413   6.777   5.781  10.699 -0.0828 -0.0306 -0.0944
 6350W        W10414   4.188   8.314   2.206 -0.1512 -0.1969 -0.2031
 6351W        W10415   1.200   9.062   8.938  0.0323 -0.3105 -0.0865
 6352W        W10416   7.505   7.823   1.577  0.0289  0.1572  0.2114
 6353W        W10417   8.441   4.143  11.085  0.0282 -0.0602 -0.0263
 6354W        W10418   8.993   7.511  10.728 -0.1356 -0.2212 -0.0653
 6355W        W10419   3.456  10.359   2.640  0.0607 -0.0714 -0.2669
 6356W        W10420   1.878   2.007   3.440 -0.0895  0.0046  0.0128
 6357W        W10421   5.742   0.183   9.755  0.0660 -0.3549 -0.0275
 6358W        W10422   8.025   5.691   9.724  0.1410  0.1504  0.2957
 6359W        W10423  10.452   6.919   1.242  0.3172 -0.0087  0.0448
 6360W        W10424   8.858   9.762  11.087 -0.0925  0.1021  0.0647
 6361W        W10425   9.916   0.270   2.426  0.3427 -0.0557  0.0189
 6362W        W10426   2.595   3.037   3.747  0.0275 -0.0867 -0.0929
 6363W        W10427   2.263   1.073   9.242 -0.2123 -0.1024  0.2218
 6364W        W10428   9.313   8.177  10.139  0.3464  0.1800 -0.0767
 6365W        W10429   0.025  10.530   1.803  0.1727  0.0760 -0.2378
 6366W        W10430   8.662   7.806  10.915 -0.1383 -0.4698 -0.1445
 6367W        W10431   2.205   3.511   0.284 -0.1216  0.2873 -0.1114
 6368W        W10432   0.298   1.603  10.480 -0.0627  0.0290 -0.0662
 6369W        W10433   8.128   6.481  11.051 -0.2150 -0.1519  0.0338
 6370W        W10434   4.980   4.342   3.452 -0.2474 -0.2581 -0.1859
 6371W        W10435   6.168   4.015   1.180 -0.1863  0.1317 -0.2095
 6372W        W10436   2.051   7.427   0.218 -0.1209  0.1047  0.2282
 6373W        W10437   4.727   9.364   9.240 -0.1187 -0.1471 -0.2464
 6374W        W10438   8.039   7.866  10.725  0.1618 -0.2455  0.1847
 6375W        W10439   7.682   9.429   0.965  0.0601  0.3172  0.0607
 6376W        W10440   5.670   0.680  10.011 -0.1412 -0.0263 -0.0518
 6377W        W10441   6.591   1.335   9.315 -0.1662  0.0824 -0.0314
 6378W        W10442   5.563   1.623   0.336 -0.0365  0.3811  0.1515
 6379W        W10443   4.312   2.463  10.982  0.1608 -0.0221  0.2577
 6380W        W10444   0.573   2.372  11.544  0.0288  0.0528  0.1222
 6381W        W10445   1.861   8.565   2.684 -0.1708  0.2810  0.2238
 6382W        W10446   0.768   4.449   3.878  0.0824 -0.0310  0.0590
 6383W        W10447   4.659   5.533   3.073 -0.0274 -0.0706 -0.1876
 6384W        W10448   3.856   4.278   4.099  0.1144  0.0466 -0.1746
 6385W        W10449   9.731   2.705   3.034  0.0032  0.0096 -0.3087
 6386W        W10450   1.988   9.589   3.223  0.1002  0.1711  0.3307
 6387W        W10451   1.808   3.015   8.875  0.1619  0.3054  0.1203
 6388W        W10452   4.819   8.807   8.297 -0.1566  0.0768  0.1235
 6389W        W10453  10.546   2.843   1.222 -0.1186  0.1481 -0.1698
 6390W        W10454   2.316   1.180   7.992 -0.0993 -0.1022  0.2733
 6391W        W10455   3.215   5.381   2.465 -0.0247  0.0779 -0.1274
 6392W        W10456   9.331   6.030   1.297 -0.0337 -0.0694  0.0563
 6393W        W10457   7.443   1.268   8.510 -0.0169 -0.4300 -0.2151
 6394W        W10458   3.822   0.631  10.240 -0.0166 -0.2942 -0.0774
 6395W        W10459  10.458   2.015  10.291 -0.0861  0.0919 -0.0927
 6396W        W10460   1.063   2.019  11.036  0.1334  0.0575 -0.2122
 6397W        W10461   6.639   5.468   9.336 -0.3134  0.1257 -0.0583
 6398W        W10462   3.405   1.970   0.318  0.2519  0.2201  0.1632
 6399W        W10463   8.591   0.329   8.298  0.0330 -0.3220  0.0918
 6400W        W10464   7.939   9.710   1.307 -0.0522  0.1326 -0.2070
 6401W        W10465   3.146   2.043  10.046 -0.1765 -0.0885  0.2326
 6402W        W10466   4.669   2.699   0.203 -0.0635  0.0148 -0.1574
 6403W        W10467  10.065   9.469   8.912  0.3768  0.0023  0.0228
 6404W        W10468   1.282   3.583   0.396  0.0068 -0.0156  0.0541
 6405W        W10469   2.408   0.816   3.064 -0.0917 -0.0507 -0.0318
 6406W        W10470   4.369   3.596   1.055  0.2409 -0.0256  0.1122
 6407W        W10471   6.145   9.335   8.203  0.1268 -0.0380 -0.0021
 6408W        W10472   7.132   9.818   2.627 -0.1889 -0.1387  0.2225
 6409W        W10473   3.899   3.998   9.146  0.1360  0.1930  0.3321
 6410W        W10474   9.202  10.197   7.728 -0.1837 -0.0794  0.4017
 6411W        W10475   2.364   4.131   8.681 -0.2725 -0.0279  0.2431
 6412W        W10476   2.956   5.118   9.304 -0.0090  0.0101  0.1240
 6413W        W10477   9.913   0.325   4.831  0.1307  0.2347 -0.1770
 6414W        W10478   5.303   2.818   9.562  0.0734  0.1424  0.0940
 6415W        W10479   5.282   8.628   8.252 -0.0221  0.1653 -0.0536
 6416W        W10480   1.760   8.184   3.794 -0.1084 -0.0744 -0.2060
 6417W        W10481   8.759   4.554   0.996  0.1571  0.1852 -0.1835
 6418W        W10482   1.310   5.673   2.205  0.1922  0.1965  0.1916
 6419W        W10483   8.487   7.642   3.766  0.0609 -0.0092  0.2591
 6420W        W10484   4.128  10.437   9.176 -0.0507 -0.0105 -0.0792
 6421W        W10485   0.748   2.988   8.212 -0.2423 -0.1335 -0.0398
 6422W        W10486   9.398   3.382   9.763 -0.0414 -0.4090 -0.0385
 6423W        W10487   0.153   1.456   0.736 -0.2462  0.2532  0.2817
 6424W        W10488   5.666   7.970   0.423 -0.1609 -0.1444 -0.0247
 6425W        W10489   9.468   3.909   2.780  0.1196  0.2033 -0.3098
 6426W        W10490  10.597   8.463   3.642 -0.2993  0.2683 -0.1514
 6427W        W10491   1.841  10.240   3.274 -0.0903 -0.0278  0.1524
 6428W        W10492   9.415   4.399   2.832 -0.0595  0.0096  0.1266
 6429W        W10493   2.475   3.062  10.265  0.2330  0.0409  0.2645
 6430W        W10494   6.997   4.592   0.831  0.4554 -0.3233  0.0398
 6431W        W10495  10.239   0.463   9.222  0.0679  0.0786 -0.3553
 6432W        W10496   6.139   1.065   0.204  0.3922  0.2478 -0.2154
 6433W        W10497   4.054   8.806  10.512  0.1774  0.1872  0.1150
 6434W        W10498   2.978   7.554   1.536 -0.1061 -0.0197 -0.0873
 6435W        W10499   0.807   7.603   1.865  0.0183 -0.4094  0.1998
 6436W        W10500   6.782   3.941  11.467 -0.0527  0.2236 -0.3972
 6437W        W10501  10.169   2.589   0.951 -0.2204  0.0388  0.0487
 6438W        W10502   5.343   2.938  11.535  0.2347 -0.1051 -0.1472
 6439W        W10503   6.402  10.222   8.688  0.0544  0.4248 -0.1079
 6440W        W10504   2.530   1.504   2.227 -0.1849  0.2777 -0.1971
 6441W        W10505   1.187   5.204   2.460  0.0237 -0.1416  0.2971
 6442W        W10506   9.943  10.076   0.444 -0.2848  0.3699  0.0950
 6443W        W10507   2.295   2.366   2.802  0.1645 -0.0698 -0.0250
 6444W        W10508   3.543   6.094  10.059  0.1163 -0.0286 -0.1408
 6445W        W10509   6.153   7.375   2.510 -0.0735  0.1443  0.0888
 6446W        W10510  10.180   8.942   1.516 -0.0570 -0.2528 -0.1998
 6447W        W10511   1.007   8.719   1.780  0.0451  0.1132  0.0847
 6448W        W10512   1.369   6.632  10.741  0.1962 -0.1704  0.0360
 6449W        W10513   4.059   4.183  11.237 -0.0689 -0.2520 -0.2812
 6450W        W10514   4.294   9.153  11.031 -0.3093 -0.1232  0.1115
 6451W        W10515   2.340  10.500   7.775  0.1348  0.1262  0.0430
 6452W        W10516   1.428   2.306   9.665  0.0585 -0.3246 -0.1376
 6453W        W10517   7.268   5.777  10.834  0.0396 -0.2825  0.0015
 6454W        W10518   8.173   6.100  10.609 -0.1087  0.0241 -0.1083
 6455W        W10519   1.039   1.293   7.230 -0.2645  0.0440 -0.2011
 6456W        W10520   1.932   5.211   1.050  0.0226 -0.2059 -0.2930
 6457W        W10521   6.592   3.087   1.523 -0.1430  0.0247 -0.1972
 6458W        W10522   1.193   1.222   2.053  0.3473 -0.3105 -0.0714
 6459W        W10523   8.979   2.198   1.481 -0.4710  0.0615 -0.0025
 6460W        W10524   4.003   2.780   9.455 -0.2531 -0.0648  0.3588
 6461W        W10525   3.806   9.211   3.797 -0.3646  0.1539 -0.2221
 6462W        W10526   6.619   4.568   1.830 -0.3015  0.0134  0.3976
 6463W        W10527   1.940   3.092  10.871  0.0754 -0.1162  0.0956
 6464W        W10528   3.644   4.557  11.054  0.0913 -0.3517  0.2437
 6465W        W10529   2.512   6.494   1.132 -0.0176 -0.1009 -0.3715
 6466W        W10530   4.606   2.420   1.538  0.1116  0.1057  0.1300
 6467W        W10531   4.181   1.983   2.695 -0.0076  0.0116  0.0185
 6468W        W10532   4.421   0.208   9.229 -0.1594 -0.0361  0.2142
 6469W        W10533   6.744   6.834   8.012  0.1197  0.0205 -0.0329
 6470W        W10534   1.995  10.423   1.484 -0.0085 -0.0688  0.1121
 6471W        W10535   2.849   3.054  11.149  0.0445  0.0288 -0.0263
 6472W        W10536   1.881   0.375   2.414  0.1287 -0.1040 -0.0329
 6473W        W10537   0.112   6.929   8.961  0.0287 -0.1170 -0.0091
 6474W        W10538   5.232   9.256  11.136 -0.0396  0.1559  0.1957
 6475W        W10539  10.548   5.083   4.051 -0.1096  0.0565  0.1473
 6476W        W10540  10.013   6.742   9.686 -0.1721  0.2328 -0.0325
 6477W        W10541   1.758   3.844   2.536  0.2286 -0.0239  0.0535
 6478W        W10542   0.322   0.072  11.099 -0.0900 -0.1049 -0.3069
 6479W        W10543   6.955   7.438   2.172  0.1820  0.0467  0.1499
 6480W        W10544   9.884   2.583   0.489 -0.2050 -0.0169 -0.0420
 6481W        W10545   0.649   6.728   1.196 -0.1553 -0.0944  0.3527
 6482W        W10546   9.690   6.207  10.524  0.0007  0.0558 -0.2938
 6483W        W10547   4.551   9.566  11.285 -0.2336 -0.0266 -0.0212
 6484W        W10548   2.133   4.854   8.697 -0.3891  0.0176  0.4009
 6485W        W10549   3.654   5.228   4.167 -0.3521  0.2434  0.0893
 6486W        W10550   4.161   5.990  11.242  0.0243  0.2315  0.0615
 6487W        W10551   8.093   7.367   8.480  0.0971 -0.2141  0.1187
 6488W        W10552   4.614   7.539   3.254 -0.1308 -0.0031  0.2107
 6489W        W10553   7.044   0.848   1.801 -0.1906 -0.2898  0.0269
 6490W        W10554   3.426  10.108   7.503 -0.1815  0.1204 -0.2988
 6491W        W10555   5.447   7.216  10.847 -0.0284  0.0521  0.1699
 6492W        W10556   1.081   3.034   2.632  0.0531 -0.0232  0.1473
 6493W        W10557   7.728   6.944   8.357 -0.0817 -0.0295 -0.1600
 6494W        W10558   7.550   1.736   1.096 -0.1650 -0.2016 -0.0447
 6495W        W10559   9.675   6.350   8.941 -0.3465  0.1170 -0.0211
 6496W        W10560  10.466   3.287   2.167 -0.2715 -0.2419  0.4295
 6497W        W10561   5.744   8.978   9.725  0.4442  0.0279  0.1352
 6498W        W10562   8.249   2.741  11.176 -0.0250  0.1220 -0.0809
 6499W        W10563   8.763   2.169   0.258  0.0707  0.0403 -0.1349
 6500W        W10564   1.893   8.128   9.625  0.2579  0.2349  0.0486
 6501W        W10565   2.989   6.821   9.501 -0.0840 -0.0484 -0.0805
 6502W        W10566   0.749   0.682   0.836 -0.0401 -0.3060  0.3513
 6503W        W10567   5.417   3.979   0.234  0.2032 -0.0753 -0.2915
 6504W        W10568   8.015   1.112   0.576 -0.0176 -0.0700 -0.0161
 6505W        W10569   9.783   5.334  10.741  0.2034 -0.1506  0.0568
 6506W        W10570   5.098   6.365   9.758 -0.3115  0.3884  0.2087
 6507W        W10571   7.406   9.292   9.142 -0.0603 -0.0010  0.1086
 6508W        W10572  10.511   6.337   1.204 -0.2294  0.0936 -0.1180
 6509W        W10573   2.452   7.780   0.558 -0.3910  0.0548  0.2995
 6510W        W10574   9.939   4.433  11.141  0.1687 -0.0295 -0.0310
 6511W        W10575   6.298   9.915  10.137  0.0591 -0.2764  0.3525
 6512W        W10576   8.158   4.922   1.638 -0.0981 -0.0687  0.1576
 6513W        W10577   0.417   3.467   1.374  0.0197  0.0771 -0.1733
 6514W        W10578   0.846   2.538  11.050  0.1831 -0.0707  0.0550
 6515W        W10579   8.792   7.326   9.735  0.0321  0.3843  0.3831
 6516W        W10580   5.179   6.381  11.168 -0.0209  0.0217 -0.0428
 6517W        W10581   5.816   5.699   2.722 -0.2753  0.0124  0.2262
 6518W        W10582   6.876   8.265   0.752 -0.1005  0.1522  0.1209
 6519W        W10583   7.437  10.268   2.011 -0.0690  0.4895 -0.0076
 6520W        W10584   8.223  10.235   1.103  0.0744 -0.0725  0.0606
 6521W        W10585   0.554   6.835   1.887  0.2085  0.0007  0.0104
 6522W        W10586   5.323   0.653   3.261  0.0095 -0.1670  0.1718
 6523W        W10587   8.591   8.993   3.666  0.1260 -0.1253 -0.0851
 6524W        W10588   2.764   6.211   1.506  0.4071 -0.0648 -0.2889
 6525W        W10589   5.387   4.853   7.568 -0.0438  0.1866 -0.3461
 6526W        W10590   9.812   0.697   2.674  0.1472 -0.2032  0.3630
 6527W        W10591  10.217   0.032   4.168  0.0088 -0.0004  0.3147
 6528W        W10592   7.559   3.189   3.166  0.0996  0.1883  0.0185
 6529W        W10593   9.718   6.550   1.047  0.0503 -0.0516  0.0088
 6530W        W10594   9.212   9.431   2.636  0.1080  0.0958  0.1484
 6531W        W10595   1.538  10.509   9.923  0.1766 -0.2801  0.1471
 6532W        W10596  10.529   9.055   9.473 -0.1118  0.0225  0.2628
 6533W        W10597   6.360   4.888   2.403 -0.0267 -0.0711  0.1204
 6534W        W10598   4.882   9.449   8.410  0.1309  0.0510  0.0341
 6535W        W10599   1.545   9.332   2.376  0.0743  0.0735 -0.2106
 6536W        W10600   2.256   5.345   8.735  0.1126 -0.4008 -0.0223
 6537W        W10601   1.924   1.397   9.969 -0.2595 -0.1295 -0.3165
 6538W        W10602   6.168   4.142  10.778 -0.2848  0.1542  0.2411
 6539W        W10603   8.775   8.067   2.326  0.1429 -0.1792  0.1939
 6540W        W10604   2.960   4.250   7.813 -0.1626  0.1004  0.1162
 6541W        W10605   0.012   4.855   0.458  0.2702  0.0592 -0.1287
 6542W        W10606   0.531   0.974   0.404 -0.1105 -0.0423  0.0793
 6543W        W10607   8.884   5.964   1.031 -0.1403 -0.3492  0.0261
 6544W        W10608   6.527   1.314   9.846  0.3117  0.2625  0.1761
 6545W        W10609   4.282   3.474   3.109 -0.0659  0.2499  0.3390
 6546W        W10610   6.732   0.476   2.992 -0.0989  0.2872  0.1632
 6547W        W10611   9.571   0.330   4.481  0.0142  0.0805 -0.1415
 6548W        W10612   2.639   0.395   1.779  0.2318  0.0987 -0.0518
 6549W        W10613   2.194   5.491   9.202  0.0894 -0.3307 -0.2680
 6550W        W10614   7.625   7.870   2.736  0.0537  0.0560  0.0012
 6551W        W10615   3.052   7.430  10.877 -0.2162 -0.0035 -0.1371
 6552W        W10616   4.157   0.638   8.088 -0.0722 -0.2980 -0.2253
 6553W        W10617   3.473   6.340  10.642  0.3769 -0.2018  0.1226
 6554W        W10618   9.885   0.045  11.362 -0.1977  0.2735 -0.1246
 6555W        W10619   2.460   2.460   7.431  0.3348 -0.0050  0.1049
 6556W        W10620   9.505   1.719  11.403  0.2435  0.1599  0.0916
 6557W        W10621  10.468   3.009   9.102  0.2149 -0.0103  0.3651
 6558W        W10622   0.952   3.848   2.018 -0.2643  0.1965  0.2012
 6559W        W10623   3.388   5.050   3.284 -0.1821 -0.1357  0.1262
 6560W        W10624   0.147   9.637   8.203 -0.0978  0.1969  0.1031
 6561W        W10625   2.208   4.884  11.392 -0.3812  0.0990 -0.2476
 6562W        W10626   7.879   3.712  10.310 -0.1041 -0.2503  0.0872
 6563W        W10627  10.294   9.718   3.474  0.0217  0.1550  0.0005
 6564W        W10628   1.853   0.356  10.493 -0.0868  0.0299 -0.3480
 6565W        W10629   1.042   0.365   1.129  0.3065 -0.3626  0.1865
 6566W        W10630  10.231   2.543   1.784 -0.2447 -0.2484  0.0065
 6567W        W10631   1.818   2.121   3.975  0.0347  0.2509 -0.1032
 6568W        W10632   9.923   3.750   2.827 -0.1200 -0.2944  0.1051
 6569W        W10633   2.727  10.007   9.028 -0.0756  0.0621  0.2071
 6570W        W10634   9.995   2.867   8.878  0.2668  0.2866  0.1363
 6571W        W10635  10.483   9.544   9.247  0.0720 -0.2715 -0.0103
 6572W        W10636   9.336   4.030  11.177 -0.1528 -0.2229  0.2300
 6573W        W10637   4.302   3.186   2.657  0.2512  0.2335  0.1015
 6574W        W10638   1.175   5.202   1.536 -0.4475  0.0368  0.1710
 6575W        W10639   7.208   5.545   1.382  0.2947 -0.0897  0.1223
 6576W        W10640   3.851   2.169   0.192 -0.0820 -0.2598  0.3986
 6577W        W10641   5.267  10.107   2.044  0.2735 -0.0291 -0.0065
 6578W        W10642   9.245   8.355   2.262  0.2590  0.0414 -0.1207
 6579W        W10643   7.246   2.415   9.472 -0.0261 -0.2145 -0.1371
 6580W        W10644   3.049   6.368   4.414  0.0963 -0.0734 -0.0287
 6581W        W10645   0.036   2.501   0.919 -0.2662  0.1558 -0.0661
 6582W        W10646   5.890   6.272   1.112 -0.0747  0.1622  0.0331
 6583W        W10647   9.154   9.736   8.513  0.0882 -0.0916 -0.4885
 6584W        W10648   6.526   6.452   9.304  0.0268  0.1925  0.0789
 6585W        W10649   5.493  10.553  11.519  0.1763 -0.1664  0.2519
 6586W        W10650   7.456  10.185   2.529 -0.2139 -0.1289  0.4998
 6587W        W10651  10.494   6.199  10.034 -0.1139  0.1443  0.2251
 6588W        W10652   5.623   0.235  10.283  0.2174  0.1591 -0.0482
 6589W        W10653   6.790   7.597   3.086  0.2964  0.0510 -0.0475
 6590W        W10654   5.578   2.060   3.196 -0.0416  0.1210 -0.0247
 6591W        W10655   4.813   9.771   1.962 -0.3329 -0.0666 -0.1580
 6592W        W10656   2.463   4.054   1.079  0.1479 -0.3329 -0.0839
 6593W        W10657   3.030   1.528   0.162 -0.0567 -0.0096 -0.0477
 6594W        W10658   0.422  10.302   3.359 -0.1278  0.1598  0.0100
 6595W        W10659   0.488   3.138  11.038  0.1256  0.2501  0.3370
 6596W        W10660   8.174   4.646   9.187 -0.1631 -0.0823 -0.1216
 6597W        W10661   7.999   3.206   8.106 -0.0026  0.0725 -0.0201
 6598W        W10662   7.535   4.864  10.886  0.1963 -0.0447  0.2607
 6599W        W10663   2.426   9.458  11.429  0.0782 -0.1859 -0.0988
 6600W        W10664   9.346   7.238  11.524  0.1268  0.2497 -0.1597
 6601W        W10665   6.535   7.705  10.337 -0.2288  0.5823  0.1614
 6602W        W10666   3.533   3.614   0.533  0.1238  0.1384  0.3130
 6603W        W10667   2.613   2.686   1.586  0.0777  0.1535 -0.0493
 6604W        W10668   7.371   7.255  10.822  0.1327  0.1441  0.0607
 6605W        W10669   2.996   6.412  10.890  0.0583  0.2971  0.1118
 6606W        W10670   1.988   3.981   0.237  0.4345 -0.2766  0.2523
 6607W        W10671   3.638   4.097  10.895  0.1448 -0.0627  0.0169
 6608W        W10672   7.800   9.949   1.962 -0.3566  0.0504  0.0665
 6609W        W10673   4.666   1.897   9.202  0.1915  0.1547  0.2461
 6610W        W10674   1.210   7.914   1.608  0.2725  0.0284 -0.1308
 6611W        W10675   0.463   1.161   7.555  0.0773  0.1508  0.1413
 6612W        W10676   8.682   4.034   0.852 -0.1936  0.1178 -0.2393
 6613W        W10677  10.570   9.939   3.072 -0.1797  0.2859  0.2330
 6614W        W10678   1.277   1.531  10.042 -0.1476  0.1556 -0.1050
 6615W        W10679   1.529   2.368  10.172  0.0534 -0.1500 -0.0004
 6616W        W10680   4.850  10.276  10.450 -0.2998 -0.2760  0.0019
 6617W        W10681   8.824   4.191   8.904  0.1597 -0.1525 -0.0692
 6618W        W10682   4.484   3.871  11.133 -0.0384 -0.0954  0.0512
 6619W        W10683   3.695   5.536   9.242 -0.0795  0.0047 -0.2194
 6620W        W10684   0.575   4.124   1.929  0.0726  0.0178 -0.1273
 6621W        W10685   2.583   8.665   9.039  0.0839 -0.0221 -0.2055
 6622W        W10686   9.765   1.301  10.976  0.0998  0.0682  0.0592
 6623W        W10687   4.577   1.716   8.409 -0.0030 -0.2114  0.1175
 6624W        W10688   2.429   9.099   9.460  0.1321 -0.1230  0.3635
 6625W        W10689   1.879   8.137  10.185 -0.0798 -0.1685  0.2844
 6626W        W10690   9.215   8.177   0.266  0.0797  0.1363 -0.0919
 6627W        W10691   5.292   2.097   3.678  0.4511 -0.2811 -0.1783
 6628W        W10692  10.027   8.911  11.056 -0.1382 -0.1112 -0.0764
 6629W        W10693   2.691   4.413   0.705 -0.1300  0.0006 -0.0815
 6630W        W10694   8.758   1.201   1.426 -0.0402 -0.0172  0.1150
 6631W        W10695   9.036   0.209   2.345 -0.1486  0.0305 -0.2988
 6632W        W10696   6.961   8.411   9.886 -0.3124 -0.2369 -0.1882
 6633W        W10697   2.682   8.522   9.554  0.2415 -0.3465  0.2287
 6634W        W10698   2.726   3.824   1.558  0.0997 -0.0373  0.2048
 6635W        W10699   9.058   9.324  10.414 -0.0900 -0.1849  0.1081
 6636W        W10700   5.154  10.109   0.135  0.0612 -0.1892  0.1066
 6637W        W10701   1.498   2.335   3.629  0.0811 -0.0597 -0.4318
 6638W        W10702  10.101  10.421  10.435 -0.0784 -0.1394 -0.0298
 6639W        W10703   1.543   8.311   1.049  0.1573 -0.2177  0.1477
 6640W        W10704   2.065   0.759   1.950  0.1430 -0.0716  0.0799
 6641W        W10705   5.032   5.296   8.919  0.0875 -0.5689  0.1893
 6642W        W10706   4.470   0.692   8.980 -0.3857  0.1900  0.0800
 6643W        W10707   8.086   7.380   0.758  0.0465 -0.1101  0.1148
 6644W        W10708   8.384   7.813   0.934  0.5442  0.1829  0.0969
 6645W        W10709   4.645   1.399   0.975 -0.0082 -0.1007  0.0646
 6646W        W10710   7.358   0.545   2.246  0.3560  0.0674  0.3167
 6647W        W10711   3.975   0.235   7.360  0.0415 -0.2240 -0.1129
 6648W        W10712   6.209   3.459   9.848 -0.1144  0.2797 -0.1349
 6649W        W10713   9.574   4.426   1.377 -0.0605  0.3779 -0.0740
 6650W        W10714  10.618   1.571   9.565  0.1326  0.1283 -0.3089
 6651W        W10715   1.606   0.612   9.108 -0.0066 -0.2122 -0.4554
 6652W        W10716   4.406   1.212   8.177 -0.0099 -0.0286  0.0374
 6653W        W10717   5.205   6.125   0.716 -0.0749  0.0307  0.0308
 6654W        W10718   0.460   3.623  10.294  0.1620  0.1591 -0.4086
 6655W        W10719   5.568   8.990  10.203  0.0561 -0.0062  0.2013
 6656W        W10720   1.595   8.959  11.420  0.1740  0.0682 -0.2172
 6657W        W10721   5.839   3.021   2.229  0.0235 -0.3274 -0.4574
 6658W        W10722   9.297   6.980   0.430 -0.1386 -0.1797 -0.1775
 6659W        W10723   2.191   9.865   9.080  0.0657 -0.2609 -0.1384
 6660W        W10724   6.457   7.511   1.302  0.0051  0.4548 -0.0772
 6661W        W10725   5.116   3.069   7.861 -0.3704  0.1070  0.3603
 6662W        W10726   7.524   2.363   3.540  0.0406 -0.0227  0.2130
 6663W        W10727   5.717   4.033   1.920 -0.1611  0.2078 -0.1372
 6664W        W10728   6.419   5.180   1.969  0.0903 -0.1264 -0.0523
 6665W        W10729   7.260   6.116  11.411 -0.1475 -0.0484 -0.0326
 6666W        W10730   5.435   8.022   3.265 -0.1330  0.0334 -0.1345
 6667W        W10731   5.649   2.082   8.334  0.1422  0.1058  0.0696
 6668W        W10732   1.969   0.409   3.766 -0.2125  0.2117 -0.0326
 6669W        W10733   6.428   6.416   3.714 -0.0390  0.2938  0.1558
 6670W        W10734   4.472   5.591   3.558 -0.2078 -0.0270  0.1011
 6671W        W10735   2.812   5.633  10.212  0.2943 -0.0077  0.2257
 6672W        W10736   6.916   4.567   1.332 -0.0008  0.2598 -0.2964
 6673W        W10737  10.391   3.992  10.949 -0.0717 -0.2720 -0.3295
 6674W        W10738   2.344  10.105   3.259  0.1710 -0.2942 -0.1160
 6675W        W10739   0.723   8.255   0.484  0.1497  0.1420 -0.2048
 6676W        W10740   6.404   9.557  11.202 -0.0415  0.4244  0.2116
 6677W        W10741   8.384   3.735  10.142  0.0174  0.0500  0.0566
 6678W        W10742   6.090   2.576  11.421  0.0007  0.1065  0.2051
 6679W        W10743   7.847   7.415   9.406  0.1813  0.2526  0.1523
 6680W        W10744   7.388   3.158  11.508  0.0312 -0.1344  0.2691
 6681W        W10745   1.797   8.512   2.041  0.1987  0.1431  0.0581
 6682W        W10746   1.193   4.117   9.152  0.0091 -0.2271  0.2133
 6683W        W10747   6.191   8.535  11.459 -0.1615 -0.2496 -0.0758
 6684W        W10748   3.453   0.169   8.853  0.3247  0.0905 -0.1105
 6685W        W10749   6.303   0.103  10.584  0.5392  0.2388 -0.1008
 6686W        W10750   9.998   3.651   8.357  0.0270 -0.0182  0.0441
 6687W        W10751   4.612   0.891   1.129 -0.1166 -0.2356  0.0574
 6688W        W10752   7.565   3.342   1.162 -0.0825 -0.1524 -0.0301
 6689W        W10753   9.997   3.589  10.295 -0.0015  0.1625  0.2388
 6690W        W10754   5.156   1.308   0.535  0.0852  0.0529 -0.3935
 6691W        W10755  10.615   0.168   0.320  0.0883 -0.0735  0.1245
 6692W        W10756   9.916   5.588   9.791 -0.0243 -0.0704  0.1030
 6693W        W10757   3.083   3.027   8.655 -0.0327 -0.1105  0.0625
 6694W        W10758   4.613   3.510  11.469 -0.2364  0.2174 -0.1099
 6695W        W10759   0.287   6.668   3.823 -0.0921 -0.0213 -0.2736
 6696W        W10760   0.869   3.660   0.006  0.0037  0.1474 -0.0022
 6697W        W10761   7.876   8.958   0.246 -0.0696  0.2028  0.0480
 6698W        W10762   2.143   6.598   9.428  0.2946  0.3659 -0.2465
 6699W        W10763   3.983   7.808  10.508 -0.0140 -0.0460 -0.0409
 6700W        W10764   6.789   8.550  10.770  0.0635 -0.1355  0.2530
 6701W        W10765   8.390   8.501   3.496  0.0269 -0.1348  0.1001
 6702W        W10766   6.693   8.684   9.436  0.1774  0.0786 -0.0727
 6703W        W10767   7.194   4.259   9.507 -0.0560 -0.2716  0.0150
 6704W        W10768   0.729   9.375   9.415  0.0779 -0.2444 -0.4224
 6705W        W10769   2.076   2.991   2.228  0.2523  0.2251  0.0863
 6706W        W10770   0.778   6.826   2.666  0.0166  0.2839  0.1973
 6707W        W10771   5.342   0.280   9.073 -0.1295 -0.1782 -0.0144
 6708W        W10772  10.637   9.765   2.100 -0.2029 -0.1421 -0.0399
 6709W        W10773   3.975   9.463   2.592  0.0523  0.1168 -0.0048
 6710W        W10774   3.174   6.013   3.311 -0.1032 -0.2700  0.1523
 6711W        W10775   8.897   1.534  10.853  0.0635  0.0820 -0.3265
 6712W        W10776   3.861  10.424  10.878  0.0837  0.0609  0.1646
 6713W        W10777   9.442  10.110  11.440 -0.2236  0.2562  0.0484
 6714W        W10778   0.354   4.244   9.698  0.0356 -0.0005  0.1598
 6715W        W10779   9.921   4.458   8.968 -0.2288 -0.4725 -0.1687
 6716W        W10780   4.368   6.789   9.566 -0.2133 -0.0543 -0.0422
 6717W        W10781   9.199   1.372   0.117 -0.0591 -0.0140 -0.0807
 6718W        W10782   8.261  10.358  10.501 -0.2255 -0.0203  0.5208
 6719W        W10783   4.344   6.703   9.058 -0.3073  0.3692 -0.0920
 6720W        W10784   1.641   6.874  10.378 -0.1990  0.0240 -0.1680
 6721W        W10785   9.515   4.020   1.718  0.1320  0.0777  0.0515
 6722W        W10786   1.292   1.807   8.813  0.4348 -0.1319  0.0966
 6723W        W10787   6.268   9.222   2.953  0.2354 -0.4554 -0.0775
 6724W        W10788  10.001   1.745   0.086  0.0422 -0.2339 -0.0214
 6725W        W10789   0.483   6.005  10.603  0.0843  0.1597 -0.0403
 6726W        W10790   2.553   7.678   8.155  0.2755 -0.3506 -0.0164
 6727W        W10791   6.396   4.700   2.904  0.1988  0.0654 -0.2856
 6728W        W10792  10.373   4.400   9.909 -0.1766 -0.0472 -0.2080
 6729W        W10793   5.768   2.935   1.139  0.2164  0.1198  0.0142
 6730W        W10794   6.827   1.300   2.971  0.0370 -0.3713  0.1412
 6731W        W10795   5.268   1.503  10.062  0.1229  0.2877 -0.3344
 6732W        W10796   8.661  10.604   0.256  0.1496 -0.1635 -0.1897
 6733W        W10797   4.575  10.393   9.516  0.1449  0.2593  0.1500
 6734W        W10798   2.748   8.531   3.388  0.2588  0.4051  0.0558
 6735W        W10799   6.393  10.147   1.220  0.0266 -0.0602  0.1289
 6736W        W10800   8.992   5.583   1.281 -0.1007 -0.2631 -0.0227
 6737W        W10801   1.784   3.284   8.426  0.1739  0.2697 -0.0645
 6738W        W10802   3.153   2.305   8.109  0.0211 -0.0980 -0.2639
 6739W        W10803   0.745   3.996  10.487 -0.1297  0.2576 -0.1939
 6740W        W10804   5.892   6.872   1.238 -0.0041  0.2322 -0.0386
 6741W        W10805   1.579   7.865   8.325  0.1317 -0.1516 -0.2721
 6742W        W10806   9.016   8.751   1.005  0.0497 -0.2131  0.0420
 6743W        W10807   2.217   8.225  10.550  0.1488  0.0202  0.1772
 6744W        W10808   0.449   9.022   3.335  0.2202 -0.3220 -0.0870
 6745W        W10809   0.828   7.647   2.400 -0.1046  0.0060  0.2419
 6746W        W10810   8.673   7.222   1.611 -0.0884 -0.0986 -0.0128
 6747W        W10811   5.680   5.218  11.333  0.1894 -0.3128  0.0795
 6748W        W10812   7.330   5.291  10.026 -0.1798 -0.1044  0.2129
 6749W        W10813   5.353   6.448   0.039 -0.3897  0.3114 -0.0801
 6750W        W10814   0.727   9.201   0.310 -0.0152 -0.3801 -0.2222
 6751W        W10815   7.827   8.559  10.960 -0.5238  0.0974  0.2203
 6752W        W10816   6.043   1.611   0.364  0.0432  0.0042 -0.0379
 6753W        W10817   7.603   9.659  10.057 -0.2567 -0.1105 -0.1472
 6754W        W10818   6.113   1.202   8.415 -0.1142 -0.0518  0.0622
 6755W        W10819   1.713   9.799   3.634  0.1802 -0.0599 -0.0047
 6756W        W10820   4.332  10.042   1.930 -0.1056  0.0510 -0.1223
 6757W        W10821  10.593   2.204   9.187 -0.2968  0.0186 -0.2576
 6758W        W10822   2.059   8.598   4.094  0.1460 -0.0812 -0.3728
 6759W        W10823   9.880   4.687   9.984  0.0244 -0.2437  0.1160
 6760W        W10824   8.623   4.300   0.387 -0.2083  0.0632 -0.1201
 6761W        W10825   2.205   9.748   8.083  0.0301 -0.0715  0.0740
 6762W        W10826  10.277   9.159   2.090  0.1664  0.0731  0.1052
 6763W        W10827   4.909   9.286   2.521  0.3750 -0.0256 -0.1215
 6764W        W10828   5.121   0.430   1.533 -0.0300 -0.2418  0.2502
 6765W        W10829   1.907   2.175   1.998 -0.2118 -0.0348 -0.2075
 6766W        W10830   9.479   7.250   3.350  0.0490 -0.0705  0.2419
 6767W        W10831   6.241   6.486   2.848  0.0959 -0.1523  0.2405
 6768W        W10832   8.150   0.660   0.874 -0.0937 -0.2229  0.0978
 6769W        W10833   7.667   9.126  10.144 -0.0484 -0.0965 -0.1449
 6770W        W10834   6.027   4.851  10.623 -0.0552  0.1332  0.0474
 6771W        W10835   2.136   2.790  11.484 -0.1189 -0.2374 -0.0164
 6772W        W10836   7.788   9.931  10.466 -0.2878  0.0076 -0.1994
 6773W        W10837   4.975   8.891  10.139 -0.2368  0.3952  0.1471
 6774W        W10838   0.935   5.063   2.024  0.6885  0.0062 -0.0130
 6775W        W10839   7.025   6.132   3.003  0.0267  0.0391  0.0503
 6776W        W10840  10.062  10.626   2.066  0.0722 -0.2287 -0.0119
 6777W        W10841   4.871   1.659   9.701  0.0633  0.3111  0.3426
 6778W        W10842   5.349   6.992   8.161  0.1185  0.0197 -0.0377
 6779W        W10843   7.065   1.801   2.711 -0.0106  0.3195 -0.1028
 6780W        W10844   8.552   7.587   8.550 -0.0790 -0.2168  0.1317
 6781W        W10845   7.970   0.328   2.787 -0.1021  0.0651 -0.2528
 6782W        W10846   8.772  10.094   3.925 -0.1761 -0.0711  0.0860
 6783W        W10847   1.454  10.447  11.463  0.2841 -0.2307 -0.0384
 6784W        W10848   7.913   0.128  11.406  0.2084  0.0799 -0.1455
 6785W        W10849   3.748   3.670   8.658  0.1195  0.0367 -0.0070
 6786W        W10850   5.034   3.574   2.951  0.0324  0.1958  0.3762
 6787W        W10851   9.658   3.426  11.138  0.4151  0.0792 -0.0915
 6788W        W10852   2.060   3.468   9.408 -0.3013  0.0035 -0.0387
 6789W        W10853   5.926   6.949  10.688 -0.1365 -0.4051  0.1184
 6790W        W10854  10.123  10.517   8.077  0.0649  0.1753  0.2562
 6791W        W10855   7.599   7.126   2.448  0.1031  0.0675 -0.1770
 6792W        W10856   5.818   5.732   7.654 -0.1040  0.1614 -0.0349
 6793W        W10857   9.316   2.436   1.151  0.0326  0.1117 -0.0353
 6794W        W10858   1.612   3.706   9.583  0.0440 -0.0677 -0.2835
 6795W        W10859   7.074   1.855   7.698  0.1020  0.2709  0.0771
 6796W        W10860   0.254   3.539   0.663  0.0913  0.0375  0.1495
 6797W        W10861   4.705  10.089  11.373 -0.1295  0.1282  0.0974
 6798W        W10862   5.062   7.567   2.280 -0.0025 -0.0042 -0.3346
 6799W        W10863   7.610   9.094   8.655  0.0340  0.0825 -0.0711
 6800W        W10864   3.201   1.664   1.744  0.0329 -0.0079 -0.0104
 6801W        W10865   1.355   7.799  11.508  0.1048 -0.4421  0.1898
 6802W        W10866   7.681   2.487   9.823  0.0860  0.4387 -0.2349
 6803W        W10867   2.456   6.652  10.015 -0.2189 -0.1524 -0.2501
 6804W        W10868   0.382   3.071   2.192  0.1862  0.3123 -0.0041
 6805W        W10869   0.969   6.619   3.089  0.1319 -0.1070  0.2112
 6806W        W10870   3.654   1.559   2.389  0.1180  0.1547  0.0580
 6807W        W10871   0.849   9.328   1.246 -0.4676 -0.0178  0.2451
 6808W        W10872   2.184   9.142   3.520  0.3711  0.1267  0.2352
 6809W        W10873   7.206  10.616   2.292 -0.3001  0.0258  0.3151
 6810W        W10874   9.371   0.814   1.060 -0.3436  0.0195 -0.2573
 6811W        W10875   7.003   6.340   9.099 -0.0484  0.0327  0.0296
 6812W        W10876   2.785   0.055   2.489 -0.0241  0.0462  0.1117
 6813W        W10877   9.254   8.019  10.660 -0.0834 -0.2333 -0.1640
 6814W        W10878   3.044   2.824   9.162  0.3142 -0.2374 -0.1417
 6815W        W10879   7.290   3.056   2.752  0.0351 -0.0832  0.0063
 6816W        W10880   5.660   8.992  11.013 -0.0613 -0.0943  0.1415
 6817W        W10881   7.841   5.224   3.107  0.2404 -0.1451 -0.0980
 6818W        W10882   9.175   1.301   7.859  0.0485 -0.3804  0.0609
 6819W        W10883   0.014   5.028   3.542 -0.1779 -0.0263 -0.1967
 6820W        W10884   5.869   0.688   0.443 -0.3442  0.1895  0.2592
 6821W        W10885   4.961   4.555  11.325  0.0630 -0.2971  0.0003
 6822W        W10886   4.444   8.715   0.204 -0.1369  0.1807 -0.2155
 6823W        W10887   0.289   0.611   3.555  0.0290  0.0958 -0.1168
 6824W        W10888   9.598   3.195   3.284  0.0659  0.2206 -0.0918
 6825W        W10889   0.943   5.068   1.036 -0.0324  0.1487 -0.1039
 6826W        W10890   8.935   0.470   8.622 -0.2081  0.1128  0.0940
 6827W        W10891   1.602   0.821   3.574 -0.1862 -0.0442 -0.6029
 6828W        W10892   1.110   4.557   9.547 -0.1655 -0.1615  0.0779
 6829W        W10893   0.674   8.514  11.004 -0.1330  0.1379 -0.1717
 6830W        W10894   0.213   0.631   9.823 -0.0781 -0.0968  0.4937
 6831W        W10895   5.508   7.256   1.322 -0.1971  0.0965  0.0718
 6832W        W10896   2.727   5.925   0.910 -0.2862 -0.1338  0.0526
 6833W        W10897   0.478   7.043   3.044  0.0833  0.3064 -0.0957
 6834W        W10898   7.984   9.603   2.463  0.0170  0.1140 -0.2218
 6835W        W10899   2.739   4.175   2.374  0.0363  0.1181  0.3028
 6836W        W10900   8.672   2.445  10.205 -0.0136  0.2082  0.1082
 6837W        W10901   5.547   3.497   3.616  0.1649 -0.3672 -0.0589
 6838W        W10902   7.448   0.452   7.917  0.1183  0.1462  0.0520
 6839W        W10903  10.591   2.910  10.383  0.1436  0.3531  0.0098
 6840W        W10904   6.818   0.332   9.294  0.3343 -0.1492  0.0429
 6841W        W10905   7.451  10.268   3.962 -0.0386 -0.0323  0.0269
 6842W        W10906   2.343   1.350  10.272 -0.0627  0.0185  0.0069
 6843W        W10907   4.840   7.852   9.936  0.0745  0.1746  0.1323
 6844W        W10908   3.570   8.545   3.476 -0.2937  0.1833  0.2425
 6845W        W10909   7.034  10.143  11.217  0.0521 -0.2059 -0.2333
 6846W        W10910  10.384   8.200   0.627  0.0628 -0.1296 -0.0616
 6847W        W10911  10.104   6.033   0.660 -0.3626  0.0030 -0.1459
 6848W        W10912   0.224   3.911   2.739  0.1594 -0.1296 -0.2235
 6849W        W10913   6.909   4.759   2.674  0.0707 -0.2013 -0.2070
 6850W        W10914   8.796   6.556   1.296  0.1154 -0.2548 -0.2554
 6851W        W10915   3.725   5.402   2.327  0.1289  0.1474 -0.2209
 6852W        W10916   8.778  10.228   1.011 -0.2408 -0.2735 -0.0075
 6853W        W10917   6.396   2.466   1.465 -0.1713 -0.1085  0.0101
 6854W        W10918   8.965   9.155   8.551 -0.2269  0.2419 -0.2493
 6855W        W10919   8.146   4.780   8.706 -0.0635  0.0778 -0.0743
 6856W        W10920   6.797   5.983  10.260 -0.0603  0.0835  0.3122
 6857W        W10921   9.449   6.576  10.916  0.1028  0.1280 -0.0866
 6858W        W10922   0.424  10.236   8.850  0.0782 -0.1543  0.0088
 6859W        W10923   4.713   9.869   9.522  0.6683  0.3353 -0.0796
 6860W        W10924   0.902   0.429   8.002  0.0511 -0.0563  0.1940
 6861W        W10925   1.883   8.631   8.663  0.2857  0.0895  0.1474
 6862W        W10926   5.788   3.448  10.046  0.1030 -0.0754 -0.0134
 6863W        W10927   4.830   0.157  10.641  0.1660  0.0207 -0.2916
 6864W        W10928   9.080   3.041   2.842 -0.1048 -0.0389  0.0151
 6865W        W10929   7.470   2.258   0.839 -0.3233  0.0367 -0.2981
 6866W        W10930   8.569   3.498  11.492  0.0274  0.2469  0.2203
 6867W        W10931   0.542   5.816   4.080  0.0027 -0.1677  0.3230
 6868W        W10932   0.059   6.794   3.355  0.0637 -0.2454  0.0242
 6869W        W10933   9.204   7.378   8.247  0.2089 -0.1923 -0.0966
 6870W        W10934   5.679  10.618   3.036 -0.1388 -0.0540  0.3080
 6871W        W10935   3.525   7.418   0.565  0.2082  0.1224  0.0404
 6872W        W10936   9.744   4.082   9.335 -0.2072 -0.0502  0.0921
 6873W        W10937   8.297   4.082   1.208  0.0453  0.1255 -0.1705
 6874W        W10938  10.386   4.605   1.734 -0.1278  0.0240 -0.1459
 6875W        W10939   0.451   3.198   9.923  0.0611 -0.1166 -0.0391
 6876W        W10940   8.034   1.198  10.571  0.0647 -0.2076 -0.1988
 6877W        W10941   6.856   2.219   7.430 -0.1899 -0.2837 -0.1412
 6878W        W10942   1.314   6.250   9.576  0.0861 -0.0154 -0.2625
 6879W        W10943   7.509   3.296   7.954 -0.0625 -0.0140  0.0936
 6880W        W10944   3.045   9.261   3.655 -0.1402  0.1665 -0.0972
 6881W        W10945   5.518  10.238   4.122 -0.1453 -0.1044 -0.3639
 6882W        W10946   2.572   4.949   2.119  0.1004  0.0958  0.6249
 6883W        W10947   8.177   6.893  10.613  0.5295  0.1255 -0.0347
 6884W        W10948   0.089   2.210   2.179 -0.1080  0.3896 -0.1625
 6885W        W10949   6.850   6.417  10.560 -0.0759 -0.1938  0.2037
 6886W        W10950   1.544   8.903   2.148  0.2202 -0.0099 -0.0795
 6887W        W10951   2.821  10.205  11.309  0.1182  0.1226  0.3464
 6888W        W10952   4.813   4.650  10.708 -0.0552  0.0452 -0.0425
 6889W        W10953   7.903  10.319   2.337 -0.1338  0.2092  0.1279
 6890W        W10954   5.628   7.175   9.200  0.3146  0.1705  0.1000
 6891W        W10955   9.472   5.919   8.902 -0.1651 -0.1639 -0.2393
 6892W        W10956   0.999   1.042   1.190 -0.1086 -0.1293 -0.1684
 6893W        W10957   4.846  10.145   8.694 -0.4191 -0.2307 -0.1008
 6894W        W10958   8.378   9.371   1.326  0.1713  0.0708  0.1978
 6895W        W10959  10.299   0.169  10.231  0.0728  0.0686  0.0626
 6896W        W10960   3.857   7.132   0.169 -0.0617 -0.0999 -0.4354
 6897W        W10961   4.977   2.752   8.248  0.2073  0.2086  0.2660
 6898W        W10962   7.567   7.419   8.637 -0.0393  0.0512 -0.2156
 6899W        W10963   9.919   8.709   0.586  0.1827  0.1000  0.0842
 6900W        W10964   2.899   8.564   7.775 -0.0927  0.0536  0.1100
 6901W        W10965  10.509   1.271   3.124  0.2644  0.1285  0.1890
 6902W        W10966   8.087   0.576   0.243 -0.2345  0.2170 -0.1836
 6903W        W10967   4.236   9.988   9.553 -0.0462 -0.3091  0.3998
 6904W        W10968   9.321   7.031   8.623 -0.1475 -0.0347  0.0464
 6905W        W10969   8.027   3.741   8.828 -0.0717 -0.0703  0.2608
 6906W        W10970   4.090   3.523   1.493 -0.0547  0.0833  0.1785
 6907W        W10971   4.104   1.103   2.945  0.1339 -0.1371 -0.3313
 6908W        W10972   9.550   7.988   2.588 -0.0239 -0.2347 -0.1244
 6909W        W10973   4.320   0.242   7.697  0.1164 -0.0628  0.1013
 6910W        W10974   6.087   1.543   9.556  0.2182  0.0707 -0.1008
 6911W        W10975   0.363   9.171  11.470  0.1006 -0.1703  0.2678
 6912W        W10976   5.091   3.268   1.622  0.0912 -0.1437  0.2181
 6913W        W10977   3.241   2.644   0.731  0.0113  0.0948 -0.0344
 6914W        W10978   4.738   4.429   0.719  0.1355 -0.0493 -0.0182
 6915W        W10979   9.074   3.167  10.197  0.1928 -0.1644  0.0871
 6916W        W10980  10.180   4.649  10.767  0.1586 -0.0165 -0.4104
 6917W        W10981   2.104   6.929   0.284 -0.1430 -0.0944  0.0504
 6918W        W10982   5.705   7.452   1.743 -0.3186 -0.0812 -0.3933
 6919W        W10983   9.863   5.636   8.345 -0.2209 -0.3416 -0.1450
 6920W        W10984   3.183   1.369   3.048  0.4017  0.1823 -0.0326
 6921W        W10985   8.934   1.017   9.910 -0.1991 -0.3785 -0.3228
 6922W        W10986   3.109   4.301   8.270 -0.0847  0.0154 -0.2097
 6923W        W10987   5.780   3.971  11.493  0.0004  0.1407  0.6003
 6924W        W10988   7.075   9.574  10.721  0.2835  0.1089  0.0599
 6925W        W10989   2.736   1.429  11.376 -0.1348  0.0311 -0.0332
 6926W        W10990   4.557   9.623   8.760 -0.0030  0.2702 -0.3633
 6927W        W10991   0.685   1.471   3.505 -0.2262 -0.0043  0.1992
 6928W        W10992   9.331   7.310   3.824 -0.0217 -0.0395  0.3113
 6929W        W10993   2.706   9.310  11.028  0.1634  0.2498 -0.0850
 6930W        W10994   2.372   0.875   0.936 -0.0892 -0.3195 -0.1753
 6931W        W10995   4.532   3.966   0.700 -0.4218 -0.3384  0.1170
 6932W        W10996   9.258   6.651   9.070  0.1160 -0.2218  0.0372
 6933W        W10997  10.353  10.014   2.653 -0.1345  0.2767 -0.0797
 6934W        W10998   5.082   3.164   1.026  0.4722 -0.2626 -0.2778
 6935W        W10999   8.683   8.337   8.036  0.4551  0.3404  0.0811
 6936W        W11000   3.942   1.886   7.777  0.1732  0.1489  0.1357
 6937W        W11001   9.080   9.869   2.863  0.4675 -0.0441 -0.0633
 6938W        W11002   7.946   3.435   3.438 -0.2027  0.3603 -0.0852
 6939W        W11003   4.544   2.824   2.378 -0.0961 -0.0878  0.1173
 6940W        W11004   1.616   0.257   1.231  0.1263 -0.1161  0.6679
 6941W        W11005   7.232   6.655   9.645 -0.0377  0.3167  0.2569
 6942W        W11006   8.650   5.498  10.240 -0.1520 -0.1269 -0.0549
 6943W        W11007   8.949   3.140   3.327  0.0821 -0.0061  0.4133
 6944W        W11008   8.455   1.157   9.623 -0.2787 -0.0012 -0.0036
 6945W        W11009   1.801  10.294   0.170 -0.1908 -0.2459 -0.0340
 6946W        W11010   8.740   1.382   3.188  0.0774 -0.4038 -0.3370
 6947W        W11011   1.219   2.419  11.418 -0.1271  0.3684 -0.0337
 6948W        W11012   2.597   5.422  10.627  0.0618  0.1442  0.3002
 6949W        W11013   1.225   9.117   1.490 -0.4033  0.3632  0.1258
 6950W        W11014   8.061   1.057   2.417 -0.0500  0.0180  0.0489
 6951W        W11015   8.134   8.538   0.742  0.2556 -0.2033  0.0109
 6952W        W11016   6.348   4.826   8.358  0.1306  0.0746  0.1373
 6953W        W11017   6.283   8.226  10.651 -0.1814  0.1690  0.0123
 6954W        W11018   9.981   6.091   2.656 -0.0243  0.4785  0.0523
 6955W        W11019  10.405   6.666  10.157 -0.1304 -0.1129  0.0571
 6956W        W11020  10.294   8.411   1.322 -0.1169 -0.0618  0.2990
 6957W        W11021   2.233   2.702   1.235  0.3104 -0.2991  0.0949
 6958W        W11022   3.923  10.240   8.772  0.0777 -0.0725 -0.1869
 6959W        W11023   7.556  10.007   1.526 -0.2087  0.2244  0.1287
 6960W        W11024   1.491   2.530   0.291  0.0050 -0.1572  0.1773
 6961W        W11025   1.662   6.900   2.602 -0.1792 -0.1521  0.0403
 6962W        W11026   2.769   6.775   8.247  0.2269  0.2776  0.0762
 6963W        W11027   1.627   1.539   9.039 -0.0615  0.0047 -0.1631
 6964W        W11028   8.504   7.245   8.857 -0.2654  0.1487  0.0877
 6965W        W11029   8.610  10.504   8.295 -0.0256 -0.0931  0.2571
 6966W        W11030   5.920   2.617   2.506 -0.3497 -0.0283 -0.1725
 6967W        W11031   6.850   9.043   1.157 -0.2415 -0.1080  0.2413
 6968W        W11032   9.579   2.650   0.050 -0.1013 -0.0590 -0.1445
 6969W        W11033   9.505   5.401   2.406 -0.0466 -0.2423 -0.4044
 6970W        W11034   0.797   2.256  10.431  0.1291  0.1510  0.3351
 6971W        W11035   7.086   7.935   9.026 -0.0226  0.2299  0.2514
 6972W        W11036   5.387   3.749   9.307  0.1201 -0.2614 -0.0808
 6973W        W11037   4.740   3.372   7.664  0.0431  0.1849 -0.1217
 6974W        W11038   1.789   3.896   0.719  0.0083  0.3353 -0.1571
 6975W        W11039   1.002   2.650   0.691  0.0165 -0.1060 -0.3472
 6976W        W11040   3.766   2.679   8.291 -0.0795 -0.2606 -0.3807
 6977W        W11041   3.332   1.331   1.280 -0.1162 -0.2657 -0.2037
 6978W        W11042   7.311   7.816   0.255 -0.2368  0.2721 -0.1995
 6979W        W11043   1.315   4.085   9.642  0.0985 -0.0805  0.0562
 6980W        W11044   9.659   0.377  10.996 -0.2210  0.0514  0.0675
 6981W        W11045   3.296   3.678  10.173  0.0567 -0.2607 -0.2966
 6982W        W11046  10.417   4.045   2.581  0.0757 -0.0175  0.0823
 6983W        W11047   8.902   9.237   2.272 -0.1411 -0.2023  0.0439
 6984W        W11048   1.725   1.258   0.605  0.1768  0.0461 -0.2138
 6985W        W11049   6.003  10.612   1.868 -0.2284  0.3486  0.1009
 6986W        W11050   8.645   0.680   9.060 -0.2215 -0.1735  0.4324
 6987W        W11051  10.554  10.416  11.563 -0.1297  0.0895  0.0910
 6988W        W11052   3.919   9.015   2.897 -0.0193 -0.0761  0.0573
 6989W        W11053   5.820   2.123   2.283  0.1842 -0.1247  0.1281
 6990W        W11054   3.108   2.696   3.055  0.0291 -0.3468  0.4434
 6991W        W11055   9.875   0.479   8.537  0.1832  0.1422 -0.0598
 6992W        W11056   5.454   0.285   1.212  0.0022 -0.0155  0.0228
 6993W        W11057   0.249   8.674  10.796  0.3189 -0.3489 -0.1360
 6994W        W11058   4.684   7.818   1.393  0.0180 -0.1902  0.1269
 6995W        W11059   2.637   8.695   0.538  0.2733  0.2851  0.0500
 6996W        W11060   8.959   1.183   9.398  0.2752  0.1349  0.1128
 6997W        W11061   3.407   5.410   1.931 -0.2907  0.0324  0.0139
 6998W        W11062   7.830   5.061   8.974 -0.1321 -0.1207 -0.3486
 6999W        W11063  10.176   5.236   3.053  0.0442 -0.2601  0.1025
 7000W        W11064   3.051   9.191  11.554 -0.4344 -0.0994  0.1747
 7001W        W11065   7.224   8.959  11.027 -0.1842 -0.4990  0.2376
 7002W        W11066   6.180   1.093  11.078  0.1062  0.0867  0.0821
 7003W        W11067   3.972   3.049   1.638 -0.2710  0.1099 -0.0402
 7004W        W11068   2.073  10.267  10.044 -0.4698 -0.1205 -0.1658
 7005W        W11069   9.313   3.895   9.081  0.3337  0.2731 -0.0469
 7006W        W11070   4.656   3.510   8.694  0.0500 -0.0518 -0.2243
 7007W        W11071   1.123   2.887   2.122 -0.0213  0.0016  0.1372
 7008W        W11072   7.366   8.557  10.698  0.0746  0.3128  0.0297
 7009W        W11073   1.740   3.629   0.044  0.0140  0.0090 -0.0291
 7010W        W11074   0.125   4.942   2.621 -0.3517  0.0673 -0.2974
 7011W        W11075  10.244  10.395   1.544  0.2292  0.0260  0.0213
 7012W        W11076   4.083   2.604   2.565 -0.1370 -0.0041  0.0895
 7013W        W11077   6.464   9.832   2.608  0.0110 -0.2966  0.1564
 7014W        W11078   2.031   7.723   1.749  0.1995  0.2849  0.0141
 7015W        W11079   6.088   8.403   9.720 -0.0735  0.0131  0.0546
 7016W        W11080   5.983   5.271   0.154 -0.1674  0.0427  0.0468
 7017W        W11081   8.570   6.262   2.763  0.1049  0.3214  0.0034
 7018W        W11082   1.447   4.826   9.296  0.2380 -0.1630  0.0303
 7019W        W11083   9.563   9.598   9.151  0.1921  0.0307 -0.0131
 7020W        W11084   4.896   7.839   1.909  0.5189 -0.3569 -0.1279
 7021W        W11085   6.589   7.850   0.810  0.3108  0.2460 -0.0369
 7022W        W11086   0.367   5.259   9.534 -0.0059  0.0497  0.3657
 7023W        W11087   5.199  10.130  11.234 -0.1124 -0.0089 -0.0326
 7024W        W11088   3.403   7.426   0.074  0.0060  0.0139  0.0950
 7025W        W11089   1.849   2.597   0.654  0.0782  0.3599  0.0204
 7026W        W11090   1.569   2.572   2.196  0.1932 -0.0726 -0.0807
 7027W        W11091   5.509   7.431   3.824 -0.1281 -0.0776 -0.1074
 7028W        W11092   3.678   6.658   0.489 -0.1823  0.3067 -0.0974
 7029W        W11093   4.583   1.100   2.815  0.1780  0.1686 -0.3570
 7030W        W11094   6.185   2.187   1.787  0.0964  0.0875  0.0850
 7031W        W11095   9.917   5.126   2.547  0.0717  0.0349 -0.2291
 7032W        W11096   6.455   8.000   2.885 -0.0842  0.0637 -0.2037
 7033W        W11097   8.220   0.726   3.198 -0.1640  0.1590 -0.1099
 7034W        W11098   5.413   8.817   3.364  0.3411 -0.0902  0.0765
 7035W        W11099   6.825   1.562   1.097  0.5796 -0.3200 -0.0402
 7036W        W11100   3.267   3.481   2.103 -0.0751 -0.0257 -0.1118
 7037W        W11101   0.283   2.690   8.116 -0.2195 -0.3118  0.2631
 7038W        W11102   9.380   3.818   8.036  0.1076 -0.3229  0.3408
 7039W        W11103   2.867   9.662  11.390 -0.0797  0.0115  0.0756
 7040W        W11104   1.553   0.523   3.129 -0.2037  0.3641 -0.0233
 7041W        W11105   0.115   9.346   8.655  0.1796 -0.0908  0.2255
 7042W        W11106   2.734   8.146   1.680  0.0962  0.1920 -0.2680
 7043W        W11107   3.375   5.502  11.153 -0.0306 -0.0867 -0.5883
 7044W        W11108   8.822   3.448   2.900 -0.3118 -0.0365 -0.1342
 7045W        W11109   0.712   0.336  11.425  0.3503 -0.1827  0.3305
 7046W        W11110   5.126   1.988   8.290 -0.6434 -0.0325  0.1366
 7047W        W11111   9.297   9.532   3.560  0.4696  0.1158 -0.0958
 7048W        W11112   2.857   8.452  11.113 -0.2139  0.0457 -0.2010
 7049W        W11113   1.310   9.743   2.650 -0.0827  0.3709  0.2532
 7050W        W11114   8.914   9.288   3.068  0.0329  0.2814  0.0213
 7051W        W11115   6.071   3.735   7.728 -0.2502  0.2235  0.1936
 7052W        W11116   5.464   4.541   9.484 -0.2859  0.1554 -0.2664
 7053W        W11117   6.165   4.126   0.630  0.0245  0.1611  0.3353
 7054W        W11118   6.942   7.684   1.276 -0.1335 -0.1419 -0.0527
 7055W        W11119   8.182   2.596  10.077  0.2619  0.4161  0.2306
 7056W        W11120   2.668   0.358   8.468  0.1351 -0.0612 -0.0418
 7057W        W11121   6.503   4.109   2.122  0.2169 -0.4383  0.2084
 7058W        W11122   0.695   6.576   9.647 -0.0723  0.2021  0.0031
 7059W        W11123  10.350   1.998   1.858 -0.0102  0.1600 -0.1829
 7060W        W11124   8.312   7.870   2.641 -0.0615  0.1011 -0.0831
 7061W        W11125  10.255   3.514   8.926  0.0927 -0.1309 -0.1044
 7062W        W11126   4.800  10.513   9.059  0.1005  0.2430 -0.1555
 7063W        W11127   5.967   0.601  10.448  0.1126  0.0883 -0.1129
 7064W        W11128   9.064   4.315   9.960 -0.2253 -0.1597  0.1451
 7065W        W11129   6.036   6.576   0.733  0.1527 -0.0177  0.1471
 7066W        W11130   3.789   3.583   0.992  0.1356  0.1956  0.2136
 7067W        W11131   3.396   5.921   9.390  0.4108  0.0936 -0.2788
 7068W        W11132  10.466   2.222  11.537  0.0433 -0.0013 -0.2589
 7069W        W11133   4.056   0.726   8.649 -0.0799 -0.1399 -0.1958
 7070W        W11134   0.714  10.620   8.608 -0.0346 -0.1325 -0.1694
 7071W        W11135   5.462   4.591   0.290 -0.0753 -0.0433 -0.0429
 7072W        W11136   3.165   3.803  11.215  0.2185 -0.0474  0.0068
 7073W        W11137   6.649   0.179   8.835 -0.4156  0.4300  0.1884
 7074W        W11138   2.425   2.316   8.179  0.0073 -0.4364  0.2235
 7075W        W11139   0.213   1.068   9.459 -0.0849  0.0489  0.2099
 7076W        W11140   8.066   2.381   3.530  0.0086  0.2494 -0.0763
 7077W        W11141   7.364   4.297   1.369  0.0496 -0.0719  0.1838
 7078W        W11142   9.547   0.497   2.177  0.1193 -0.0330 -0.0080
 7079W        W11143   4.156   8.080  10.866 -0.0284  0.2143  0.1731
 7080W        W11144   2.825   2.689   8.126 -0.0298 -0.2421  0.3874
 7081W        W11145   5.631   6.236  11.077 -0.1623  0.1878 -0.0255
 7082W        W11146   2.125   9.530   8.623  0.2132  0.0478  0.2195
 7083W        W11147   5.453   1.573   9.543 -0.0413 -0.0422 -0.2529
 7084W        W11148   5.976   6.404  10.767  0.4455 -0.1040 -0.1836
 7085W        W11149   2.730   9.693   2.320 -0.0119  0.2083 -0.1176
 7086W        W11150   6.491   7.250  11.226 -0.0130 -0.2597  0.2840
 7087W        W11151   8.511   0.798   0.549  0.0113 -0.0847 -0.2116
 7088W        W11152   2.840   9.931   1.322  0.2666 -0.0266 -0.3350
 7089W        W11153   9.234   8.825   2.429  0.1505  0.4564  0.2047
 7090W        W11154   8.172   3.034   2.518  0.0276 -0.1995  0.0775
 7091W        W11155   6.102   9.898   9.056  0.0387  0.1806  0.0994
 7092W        W11156   3.021   4.605   2.480  0.2991  0.1751 -0.2031
 7093W        W11157   0.545   2.165   1.299 -0.0517 -0.1071  0.2049
 7094W        W11158   3.507   0.523   8.455  0.1322 -0.4700  0.2720
 7095W        W11159   0.254   2.461   8.799  0.1043 -0.2485  0.2015
 7096W        W11160   5.223   4.375   2.567  0.3441 -0.0346  0.3633
 7097W        W11161   9.840   9.520   3.438  0.2862  0.0854  0.2214
 7098W        W11162   0.007   0.295   9.442 -0.2257  0.3172 -0.0026
 7099W        W11163   9.350   7.548   0.405  0.2224 -0.0785  0.1837
 7100W        W11164   0.310   6.993   7.638 -0.2783  0.2163 -0.0322
 7101W        W11165   9.789   4.723  11.543 -0.0787  0.0408 -0.0026
 7102W        W11166   2.983   8.784   1.265  0.2531 -0.0253 -0.2572
 7103W        W11167   9.120   8.272   8.784  0.0966  0.2634  0.2644
 7104W        W11168   7.836   0.264  10.601  0.1084  0.1711 -0.1422
 7105W        W11169   3.719   8.424   1.522 -0.0271  0.2384 -0.1743
 7106W        W11170   8.997   3.242   0.169  0.2128  0.0080  0.2173
 7107W        W11171   4.396   8.771  10.016 -0.2522  0.2021  0.2189
 7108W        W11172   4.052   4.802   9.593  0.1434 -0.1940  0.2557
 7109W        W11173   8.399   8.439   2.482  0.2058  0.5907 -0.0041
 7110W        W11174   6.337   5.532   3.070  0.0133  0.2587 -0.2080
 7111W        W11175   0.019   3.627   3.989 -0.0518  0.0058 -0.0100
 7112W        W11176   7.228   3.445   2.004  0.2380 -0.1227  0.2548
 7113W        W11177   2.016  10.343   1.023 -0.2107 -0.1245 -0.0410
 7114W        W11178   8.243   8.945   1.148 -0.1073 -0.0752  0.0809
 7115W        W11179   1.674   4.195   8.262 -0.0480  0.2072  0.3475
 7116W        W11180   0.961  10.552   0.056  0.0783  0.1483 -0.0572
 7117W        W11181   0.039   0.806   1.410 -0.4114  0.2818 -0.0234
 7118W        W11182   1.329   8.359   1.864 -0.0768  0.2515 -0.0882
 7119W        W11183   9.864   8.709   9.404 -0.0369 -0.1471 -0.1986
 7120W        W11184   4.273   6.482  11.037 -0.1507 -0.0468  0.1384
 7121W        W11185   0.890   7.026  11.256  0.1643 -0.0915  0.2546
 7122W        W11186   4.306   8.832   8.729  0.0196 -0.2789  0.1439
 7123W        W11187   6.047   0.374   1.416 -0.0986 -0.1441  0.0880
 7124W        W11188   7.336   8.708   8.378 -0.0098  0.1924  0.0923
 7125W        W11189   5.970   3.029   3.632 -0.1218  0.1001 -0.0953
 7126W        W11190   3.378   1.024   8.511 -0.1193  0.0279 -0.1578
 7127W        W11191   9.166   6.409   1.038  0.1054  0.0768  0.0488
 7128W        W11192   0.143   3.980   0.960 -0.1661  0.0511 -0.3038
 7129W        W11193   5.568   9.465   1.222 -0.2211 -0.1218 -0.0751
 7130W        W11194   0.837   8.829   1.303 -0.1664  0.2012 -0.1341
 7131W        W11195   4.047   6.042   7.834  0.0890  0.0565  0.1993
 7132W        W11196  10.276   1.980   2.400  0.0077 -0.0403  0.1073
 7133W        W11197   9.533   8.474  10.509 -0.1187  0.0352  0.1793
 7134W        W11198   1.490   5.650   3.740  0.2355 -0.2230  0.1137
 7135W        W11199   4.924   9.834   2.446 -0.4159 -0.0629  0.2712
 7136W        W11200   8.501  10.272   1.523 -0.1823 -0.1980 -0.2495
 7137W        W11201   0.177   9.479   9.613 -0.1692  0.0194  0.5131
 7138W        W11202   4.407   5.831   7.598 -0.0529  0.1140  0.0482
 7139W        W11203   0.361   1.686   3.080  0.3839 -0.3154 -0.0053
 7140W        W11204   6.518   1.772   0.130  0.0461  0.0078 -0.2872
 7141W        W11205  10.578   0.175   1.338 -0.2914  0.0973  0.0174
 7142W        W11206   1.070   7.158   1.926  0.1886  0.2028 -0.4223
 7143W        W11207   7.391   8.080   0.607 -0.4429 -0.2089 -0.2596
 7144W        W11208   6.843   4.085   8.802 -0.0587  0.1981  0.0332
 7145W        W11209   7.857   0.613   9.337 -0.0847  0.1294  0.4490
 7146W        W11210   5.782   5.754   9.825 -0.0471  0.4017 -0.1598
 7147W        W11211   0.109   3.797   8.913  0.0541 -0.0174  0.2775
 7148W        W11212   0.482   9.804   8.614 -0.0935  0.3604  0.2008
 7149W        W11213   1.187   5.333   0.023  0.2497  0.1981  0.1659
 7150W        W11214   6.446   8.449  10.045 -0.0170 -0.1124 -0.0466
 7151W        W11215   4.582   6.701   0.178  0.0895 -0.0765  0.1459
 7152W        W11216  10.543   3.334   0.281  0.1343  0.2698 -0.1966
 7153W        W11217   5.623  10.342  10.417 -0.1185 -0.3926  0.2799
 7154W        W11218   0.183   6.326   3.429 -0.2427  0.1558  0.1686
 7155W        W11219   2.060   6.345   3.007  0.0508  0.1485  0.3288
 7156W        W11220   8.580   4.614   1.798 -0.0315  0.0930  0.0312
 7157W        W11221   5.042   1.680   1.142 -0.1176  0.4837 -0.0129
 7158W        W11222   5.128   1.166   8.718  0.1243  0.0169 -0.1516
 7159W        W11223   1.338   0.984   1.593  0.1694 -0.3943  0.1485
 7160W        W11224  10.057   5.295   1.610  0.2468  0.2449  0.1091
 7161W        W11225   9.782   9.376  11.331  0.0475 -0.1233 -0.1264
 7162W        W11226   3.083   8.915   2.628 -0.1919  0.0508 -0.2035
 7163W        W11227  10.008  10.063   8.153 -0.1985 -0.0300 -0.0782
 7164W        W11228   7.794   7.691  11.142  0.2335 -0.2872 -0.1591
 7165W        W11229   3.316   7.182   3.109 -0.0651  0.3017  0.1416
 7166W        W11230   6.413  10.259   2.169 -0.3738 -0.1718  0.1256
 7167W        W11231   7.881   9.805  11.322 -0.2139  0.2270 -0.4010
 7168W        W11232   9.730   0.195   0.289 -0.1288 -0.1349 -0.3745
 7169W        W11233   1.082   1.132  11.391 -0.0357  0.0013  0.1921
 7170W        W11234   1.367   2.027   0.128 -0.2115 -0.2495  0.0204
 7171W        W11235   1.130   5.250  10.218  0.1203  0.0399 -0.2635
 7172W        W11236   8.967   6.382   8.138 -0.0030  0.0649  0.0006
 7173W        W11237   4.172   6.322   9.383 -0.0261  0.2521 -0.1618
 7174W        W11238   3.130   9.602   8.461 -0.1821  0.0411  0.0112
 7175W        W11239   7.634   2.904  10.133  0.0019  0.1408  0.0588
 7176W        W11240  10.247   6.147   3.455  0.1074  0.0592 -0.0186
 7177W        W11241   5.928   2.730  10.380 -0.2663 -0.2122  0.1990
 7178W        W11242   3.970   4.393   0.080  0.1565 -0.2686  0.1590
 7179W        W11243   7.843   4.948   3.631  0.5713  0.0973 -0.3556
 7180W        W11244   2.267  10.143   9.518  0.0227  0.0828 -0.0800
 7181W        W11245   6.557   9.488   9.874 -0.0243  0.1333 -0.2719
 7182W        W11246   0.028   4.609  10.834 -0.1307  0.1622  0.3092
 7183W        W11247   4.336   0.596   0.912 -0.0071 -0.2046 -0.2267
 7184W        W11248   8.860   9.221   0.363  0.4473  0.1778 -0.0580
 7185W        W11249   7.179   3.274   8.833  0.2048 -0.0105  0.0995
 7186W        W11250  10.002   2.370   9.857 -0.1110  0.1870  0.0618
 7187W        W11251   2.310   0.186   8.917 -0.1668 -0.1784 -0.2730
 7188W        W11252   0.682   2.298   9.817 -0.0828 -0.2565 -0.0659
 7189W        W11253  10.373  10.535  11.142  0.1860 -0.1973  0.1298
 7190W        W11254   6.658   3.452   9.548  0.1869 -0.0985  0.1317
 7191W        W11255   5.557   4.223   4.251  0.0259 -0.0496 -0.2959
 7192W        W11256   8.830   3.817  11.226  0.0739  0.1997 -0.0458
 7193W        W11257   2.149   3.762   1.480  0.0425  0.0013 -0.1884
 7194W        W11258   5.359   3.715   1.698 -0.3312  0.0069  0.1719
 7195W        W11259   9.145   3.679   4.465 -0.1615 -0.3494  0.1977
 7196W        W11260   5.946   1.650   3.084 -0.2430  0.1535 -0.0478
 7197W        W11261   6.972   4.914  10.572  0.1083  0.1702 -0.0668
 7198W        W11262   7.700   4.377   8.120 -0.1601 -0.0344 -0.2836
 7199W        W11263   3.650   2.570  11.564  0.0730 -0.0998 -0.0903
 7200W        W11264   6.361   6.926   0.648  0.0878 -0.2857  0.3739
 7201W        W11265   7.750   1.688   9.322 -0.1679 -0.2067 -0.1557
 7202W        W11266   0.524   8.465   8.359 -0.0585 -0.0553  0.2319
 7203W        W11267   9.789   2.389   9.051  0.0200  0.0769 -0.0741
 7204W        W11268   4.701  10.440  10.984 -0.1283  0.4895 -0.0397
 7205W        W11269   4.708   1.419   7.896 -0.1587 -0.4609 -0.0855
 7206W        W11270   2.031   7.246   2.482  0.0179  0.2618 -0.0442
 7207W        W11271   1.221   9.257   0.546 -0.0760 -0.0673 -0.0900
 7208W        W11272   2.199   3.010   0.467  0.1497  0.1372 -0.3442
 7209W        W11273   5.878   4.672   9.246 -0.4531  0.1114 -0.3514
 7210W        W11274   1.307   9.257   3.081 -0.1216  0.0313  0.0816
 7211W        W11275   2.812   4.038   8.552  0.1685 -0.0566 -0.1145
 7212W        W11276   9.209   7.997   3.245 -0.1525 -0.1205 -0.0355
 7213W        W11277   7.920  10.346   0.603  0.3829  0.2376 -0.1783
 7214W        W11278   8.033   7.495   8.952  0.2033  0.0953  0.1833
 7215W        W11279   2.529   7.893   2.758 -0.0588 -0.0109  0.0116
 7216W        W11280   3.466   0.807  11.160 -0.1856  0.0322 -0.1740
 7217W        W11281   7.378   4.851   0.035  0.0446 -0.1328  0.0862
 7218W        W11282   6.339   4.333   2.569  0.0702  0.0581 -0.1253
 7219W        W11283   3.695   7.965   2.572  0.0550  0.1563  0.2122
 7220W        W11284   3.865   1.473   9.517 -0.1056  0.1175 -0.0434
 7221W        W11285   5.360   4.730   2.905 -0.0428  0.0727  0.0177
 7222W        W11286   4.456   1.515   9.444 -0.1604  0.1060  0.2543
 7223W        W11287   7.942   6.964   1.075 -0.2882  0.0726  0.0005
 7224W        W11288   7.016   3.917   2.753  0.0760 -0.2366 -0.1739
 7225W        W11289   8.312   4.496   0.738  0.0605  0.2684  0.0754
 7226W        W11290   6.911   7.508   0.069  0.0121 -0.0431 -0.0827
 7227W        W11291   3.959   8.653   1.040  0.2398  0.3565  0.0503
 7228W        W11292   4.456   2.455  10.514  0.0473 -0.1791 -0.2688
 7229W        W11293   3.782   0.579   1.805  0.1022  0.0344  0.1177
 7230W        W11294   6.541   3.867   9.866 -0.0468  0.2014 -0.0937
 7231W        W11295   1.165   7.737   2.743 -0.0175  0.1743  0.2914
 7232W        W11296   4.840   6.698  11.297  0.0335  0.2676  0.1591
 7233W        W11297   7.259   0.200  10.575 -0.1443  0.1047  0.0160
 7234W        W11298   1.702   7.299   1.260 -0.0674  0.3377  0.2242
 7235W        W11299   6.102   9.107  11.275  0.0221 -0.1485 -0.4802
 7236W        W11300   0.351   1.929  11.537 -0.1352 -0.0063 -0.5083
 7237W        W11301  10.087   9.092   9.843 -0.0401 -0.0917 -0.1516
 7238W        W11302   5.581   2.852   8.035 -0.1372 -0.0354 -0.1937
 7239W        W11303   7.612   2.013   1.520  0.0447  0.0791 -0.1552
 7240W        W11304   7.326   5.217  10.560 -0.0799 -0.4489  0.1289
 7241W        W11305   4.101   6.919  10.854 -0.0200 -0.0093 -0.3595
 7242W        W11306   3.751   8.325   0.127 -0.1392 -0.3745  0.1290
 7243W        W11307   5.711   6.318   0.467 -0.0051 -0.0143  0.1322
 7244W        W11308   7.573   7.635   0.680 -0.3052  0.3107  0.2923
 7245W        W11309   5.677   0.182   0.407 -0.0407 -0.2309  0.0732
 7246W        W11310   6.984  10.314   1.777  0.3541 -0.0908 -0.4131
 7247W        W11311   3.673   4.946   9.297  0.0673 -0.0996  0.1325
 7248W        W11312   6.527   1.756   3.263  0.0056  0.2083 -0.0655
 7249W        W11313   3.965   3.974   0.555 -0.2249  0.4227  0.0192
 7250W        W11314   2.074   1.176   2.875  0.0564 -0.1685 -0.5473
 7251W        W11315  10.624   8.434   1.690 -0.0009  0.0267  0.2181
 7252W        W11316   4.011   9.590   8.551  0.0106 -0.4367  0.0164
 7253W        W11317   6.150   2.005  11.454 -0.1938 -0.1913  0.4008
 7254W        W11318   5.246   1.200   2.069  0.1078  0.3202 -0.0119
 7255W        W11319   9.042   7.813   9.884  0.3825  0.1893 -0.0773
 7256W        W11320   6.568   3.688   0.334 -0.0401 -0.2425  0.1887
 7257W        W11321   1.565   4.335   1.499  0.1049  0.0824  0.0570
 7258W        W11322   4.943   1.310  11.132 -0.2183 -0.0370 -0.3537
 7259W        W11323   8.516   1.312   0.608  0.3457  0.3097 -0.1638
 7260W        W11324   0.089   2.994   3.762  0.2564  0.0216  0.1106
 7261W        W11325   7.615   0.339   9.670 -0.0924 -0.0341  0.1069
 7262W        W11326   8.606   8.219  10.051 -0.1943  0.0384 -0.1352
 7263W        W11327   7.430   1.677   1.850  0.2856 -0.1324 -0.0592
 7264W        W11328   1.514   1.435   9.583 -0.2050  0.2174  0.1274
 7265W        W11329   8.145   9.775   8.679  0.2406  0.1194 -0.0525
 7266W        W11330   4.519   9.129   2.967 -0.1310  0.1383  0.2429
 7267W        W11331   0.986   9.086   3.547 -0.3731 -0.1798  0.2037
 7268W        W11332   2.768   5.182   2.504  0.1449  0.0455 -0.3087
 7269W        W11333   2.620   0.555  11.394 -0.3068 -0.1696 -0.1395
 7270W        W11334   9.741   5.733  11.502  0.0048  0.0424 -0.2334
 7271W        W11335   9.478   8.269   1.678  0.0727 -0.0179 -0.2156
 7272W        W11336   2.507   0.714   8.162  0.2128  0.0476  0.2630
 7273W        W11337   4.046   5.736   0.695 -0.1958 -0.1291  0.1734
 7274W        W11338   5.057   6.845   0.161 -0.2609  0.0418  0.0234
 7275W        W11339   6.959   0.301   7.895 -0.2281  0.1647 -0.3531
 7276W        W11340   5.281   1.597  11.104 -0.1145 -0.0858 -0.1418
 7277W        W11341   2.090  10.508   2.300 -0.0354 -0.0549 -0.1653
 7278W        W11342   6.206   5.064   3.189 -0.2799  0.0181 -0.1022
 7279W        W11343   3.015   6.397   3.029 -0.1507  0.0843  0.4928
 7280W        W11344   6.616   7.799   9.225  0.1219 -0.0842 -0.1457
 7281W        W11345   2.541  10.458   9.840  0.1633  0.1152 -0.2336
 7282W        W11346   1.256   1.685   1.876 -0.1047  0.0505 -0.2750
 7283W        W11347   8.062   0.879   8.212  0.1016 -0.1130  0.1307
 7284W        W11348   4.191   5.246   3.719 -0.1684  0.0158 -0.0948
 7285W        W11349   7.072   6.567   0.052 -0.1024  0.1419 -0.2711
 7286W        W11350   6.524   4.351   8.470  0.1828  0.4138  0.0116
 7287W        W11351   5.025  10.138   8.059  0.3365 -0.1691  0.0465
 7288W        W11352   4.617   7.139   1.196 -0.4103 -0.1045 -0.3422
 7289W        W11353   1.381   3.069   0.516  0.0115 -0.3891  0.2150
 7290W        W11354   0.919  10.064  10.701 -0.0818 -0.0182  0.4612
 7291W        W11355   7.026   0.886   2.734  0.2926  0.1163  0.1395
 7292W        W11356   4.727   0.783   1.667  0.1968  0.0299 -0.0687
 7293W        W11357   5.553   0.755   1.803 -0.0688 -0.2329  0.1998
 7294W        W11358   9.207   2.120   2.912 -0.0525  0.1734  0.0310
 7295W        W11359   3.146   6.019   8.902  0.0701  0.0697 -0.2113
 7296W        W11360   4.966   1.905   0.632  0.1208 -0.0440 -0.0091
 7297W        W11361   6.533   5.886   2.056 -0.1911  0.1941  0.2181
 7298W        W11362   5.371   2.296   9.312  0.2181 -0.0794  0.1285
 7299W        W11363   8.707   1.639   0.277 -0.0481  0.1237  0.3527
 7300W        W11364   7.172   9.299   0.853 -0.0333  0.2762 -0.0786
 7301W        W11365   0.031   1.130  11.234  0.2892  0.1032 -0.4543
 7302W        W11366   0.247   1.123   9.954  0.1398 -0.1299  0.5254
 7303W        W11367   0.231   5.779   3.718  0.2765  0.1768  0.1852
 7304W        W11368   5.243   7.655   8.808 -0.0755 -0.3468 -0.1834
 7305W        W11369   5.116   1.165   1.093  0.0076 -0.0374  0.0345
 7306W        W11370  10.245   5.404   2.017  0.0540 -0.2445  0.2419
 7307W        W11371   5.457   2.990   1.851 -0.1189  0.1366  0.3425
 7308W        W11372   0.299   8.200   9.717 -0.2928  0.3545 -0.1297
 7309W        W11373   6.591   4.924   9.739 -0.3399 -0.2312 -0.0439
 7310W        W11374   8.911   3.819   3.968  0.1383 -0.0652  0.1707
 7311W        W11375   9.564   2.178   0.404  0.2247  0.0952  0.0360
 7312W        W11376   1.483   5.115   2.010 -0.2851  0.0076 -0.0847
 7313ION    NA+11377   2.668   0.543  10.849 -0.0461 -0.0033  0.0145
 7314ION    NA+11378   7.235   4.694   1.740 -0.1256 -0.1275 -0.2483
 7315ION    NA+11379   2.277   5.846   8.789  0.1167 -0.1279  0.2636
 7316ION    NA+11380   3.143   2.030   9.569 -0.3032 -0.1143  0.1498
 7317ION    NA+11381   5.111   7.028   7.705  0.1082 -0.4759 -0.2084
 7318ION    NA+11382   3.199   3.110   1.772  0.0460 -0.0542  0.2306
 7319ION    NA+11383   6.419   3.353   3.623 -0.0462  0.0101  0.0167
 7320ION    NA+11384   8.990   8.499   9.266  0.5065  0.1019 -0.0319
 7321ION    NA+11385   2.846   5.596  11.121  0.1288  0.0991  0.1550
 7322ION    NA+11386   6.913   7.572   9.756 -0.3293  0.0040 -0.0463
 7323ION    NA+11387   8.861  10.484   1.931 -0.0968 -0.0641  0.2085
 7324ION    NA+11388   9.504   3.251   0.011 -0.1530 -0.1666  0.1073
 7325ION    NA+11389   8.217   9.026   9.511  0.1622  0.2213 -0.0838
 7326ION    NA+11390   6.443   6.578   0.095  0.1248  0.1452  0.1167
 7327ION    NA+11391   5.216   8.831   8.723  0.1368  0.0280 -0.0028
 7328ION    NA+11392   7.431   0.345  11.556  0.0349 -0.0719  0.2177
 7329ION    NA+11393   8.179   1.320   7.244 -0.1087  0.1187  0.0066
 7330ION    NA+11394   7.974   5.497  10.768 -0.0920 -0.1693  0.0130
 7331ION    NA+11395   5.669   1.164   0.308 -0.1856 -0.3046 -0.3302
 7332ION    NA+11396   3.810   0.539   0.255  0.1460  0.1287  0.0789
 7333ION    NA+11397   6.709   0.363   4.219 -0.0250 -0.2222 -0.1984
 7334ION    NA+11398   7.863   2.503  10.842 -0.1370  0.1712  0.2629
 7335ION    NA+11399   6.974   0.287  10.109  0.0680 -0.0001  0.3508
 7336ION    NA+11400  10.431   4.460  11.233 -0.1667 -0.2623  0.1723
 7337ION    NA+11401   4.051   8.935   2.338  0.0828 -0.0736  0.2737
 7338ION    NA+11402   7.569   5.515   2.274 -0.0895 -0.0193 -0.4960
 7339ION    NA+11403   2.992   6.775   7.807  0.2098 -0.0734  0.2431
 7340ION    NA+11404   6.700   9.017   2.359  0.0473  0.3721  0.0241
 7341ION    NA+11405   2.362   5.873   1.370 -0.1369 -0.5661  0.2516
 7342ION    NA+11406   3.806   7.964   8.285  0.0850  0.0983  0.0701
 7343ION    NA+11407   4.053   9.932   1.518 -0.2444 -0.0966 -0.0295
 7344ION    NA+11408  10.493   2.701  11.367  0.0607 -0.1682  0.2419
 7345ION    NA+11409   4.285   3.161   9.314  0.4269 -0.1058  0.3750
 7346ION    NA+11410   2.429   8.569   1.389  0.0917 -0.1853  0.1238
 7347ION    NA+11411   3.144   1.161   0.774  0.2988  0.3282  0.1940
 7348ION    NA+11412   8.857   7.237   2.099 -0.2797  0.3829 -0.0399
 7349ION    NA+11413   6.097   4.554   2.081  0.4728  0.0132 -0.2415
 7350ION    NA+11414   8.390  10.580  10.028 -0.0754 -0.0779 -0.2311
 7351ION    NA+11415  10.579   0.718   1.902  0.0857  0.2283 -0.0226
 7352ION    NA+11416   0.560   8.647   4.241  0.1096 -0.1603 -0.2208
 7353ION    NA+11417   7.613   0.884   0.676 -0.1173  0.0558 -0.2367
 7354ION    NA+11418   9.872   0.831   1.172  0.1954  0.1204 -0.0055
 7355ION    NA+11419   5.681   2.648   1.560 -0.3777 -0.1999  0.2460
 7356ION    NA+11420   8.503   9.428   3.302  0.2526 -0.0086 -0.2538
 7357ION    NA+11421  10.585   5.242  10.262  0.0576  0.0603 -0.0483
 7358ION    NA+11422   1.771   6.509   3.410 -0.4795  0.2759  0.2404
 7359ION    NA+11423   8.513   9.169   1.960  0.1409 -0.0506 -0.1236
 7360ION    NA+11424   6.147   1.057   9.361 -0.3747 -0.1681 -0.0329
 7361ION    NA+11425   3.264   2.030   3.753 -0.1301 -0.1197  0.1572
 7362ION    NA+11426   0.316   8.517   0.217  0.1625 -0.1660 -0.1449
 7363ION    NA+11427   4.089   6.614   2.847 -0.0517 -0.1839 -0.1107
 7364ION    NA+11428   6.129   2.009   7.495  0.2629  0.0938 -0.0649
 7365ION    NA+11429   8.551   8.206   0.615  0.0885 -0.0234 -0.0925
 7366ION    NA+11430   5.745  10.331  11.008 -0.1388 -0.1861  0.3208
 7367ION    NA+11431   0.444   1.347   9.017 -0.0426  0.2588  0.2021
 7368ION    NA+11432   4.122   8.643   9.553  0.2624 -0.3242 -0.3811
 7369ION    NA+11433   1.010   9.271   2.677 -0.0203 -0.3647  0.3110
 7370ION    NA+11434   7.237   4.126   8.252 -0.1000 -0.0214  0.0651
 7371ION    NA+11435   3.329   4.689   7.933 -0.2890  0.1042  0.2380
 7372ION    NA+11436   3.615   5.234   2.826  0.1922 -0.2847 -0.2752
 7373ION    NA+11437  10.512   0.943   4.195  0.0338 -0.3041  0.3227
 7374ION    NA+11438   2.950   9.323  10.602 -0.0807  0.1344  0.0731
 7375ION    NA+11439   9.685   0.885   8.802  0.1572  0.1567 -0.2025
 7376ION    NA+11440   1.899   1.313   3.610 -0.1163  0.1114  0.0650
 7377ION    NA+11441   7.978   7.930   1.767  0.1059  0.0826 -0.2023
 7378ION    NA+11442  10.622   7.915   1.960  0.2603 -0.2026 -0.3386
 7379ION    NA+11443   6.107   6.153   1.951  0.0383  0.2403  0.2568
 7380ION    NA+11444   2.378   2.091   0.593  0.1590  0.0189  0.0528
 7381ION    NA+11445   3.810   5.917   9.665  0.1641 -0.1379 -0.0190
 7382ION    NA+11446   6.681   3.182   9.146  0.1835  0.0641  0.1609
 7383ION    NA+11447   9.540   6.375   2.053 -0.0104 -0.1129 -0.1004
 7384ION    NA+11448   9.332   0.166   3.122  0.0623  0.0125 -0.2886
 7385ION    NA+11449   8.415   4.778   0.281  0.0153  0.0207  0.0058
 7386ION    NA+11450   6.621   4.601   0.473  0.2306 -0.0864 -0.2772
 7387ION    NA+11451   4.319   4.648   3.002  0.1210  0.4321 -0.1802
 7388ION    NA+11452   3.914  10.377   7.284 -0.0667  0.1787 -0.0418
 7389ION    NA+11453   7.097   1.296   9.218 -0.1355  0.0140  0.1629
 7390ION    CL-11454   3.467   9.253  10.598  0.3831  0.0462  0.1452
 7391ION    CL-11455   4.763   4.791   3.127 -0.0556 -0.0351  0.0538
 7392ION    CL-11456   8.055   1.760   7.940 -0.0138 -0.1479 -0.0469
 7393ION    CL-11457   0.447   0.782   1.903  0.0353  0.2003  0.0958
 7394ION    CL-11458   1.457   4.322   8.711 -0.1916  0.1258  0.2233
 7395ION    CL-11459   6.841   6.392   9.810  0.0524  0.1804  0.0244
 7396ION    CL-11460   2.125   4.909   3.309 -0.0495  0.5341 -0.1583
 7397ION    CL-11461   5.537   8.142   8.484 -0.0605 -0.1182  0.2826
 7398ION    CL-11462  10.597   8.912   3.469 -0.2419  0.0750 -0.1583
 7399ION    CL-11463   3.853   5.461   3.246 -0.0028  0.2020  0.3744
 7400ION    CL-11464   1.749   7.001  10.936 -0.0698  0.1841  0.0917
 7401ION    CL-11465   9.146   5.575  10.109 -0.0551 -0.2547  0.1803
 7402ION    CL-11466   2.330   0.480  10.469 -0.0634  0.1173 -0.2285
 7403ION    CL-11467   6.598   0.840   9.482 -0.0218  0.0859 -0.1245
 7404ION    CL-11468   6.060   0.169  11.084 -0.2826  0.1901 -0.2653
 7405ION    CL-11469   9.301  10.200   1.289 -0.0833 -0.0562  0.1192
 7406ION    CL-11470   1.250   9.524   3.514 -0.0074 -0.1105 -0.0201
 7407ION    CL-11471   7.112   4.818  11.200 -0.0890  0.0258  0.1522
 7408ION    CL-11472  10.214   4.083  11.490  0.2888  0.0763 -0.1183
 7409ION    CL-11473   8.929  10.629   2.793 -0.0573 -0.1830  0.4006
 7410ION    CL-11474   5.695   9.872  10.706 -0.0946  0.2405  0.2605
 7411ION    CL-11475  10.396   2.337   1.319  0.1808 -0.4172 -0.4724
 7412ION    CL-11476   6.167   5.699   1.760  0.3284  0.0159  0.1399
 7413ION    CL-11477   8.582   4.106   1.776  0.0438  0.2164  0.2589
 7414ION    CL-11478   0.669   2.619   2.929  0.2162 -0.2825 -0.1540
 7415ION    CL-11479   8.782   8.663   0.519  0.3482 -0.0291  0.4116
 7416ION    CL-11480  10.393   0.798  10.045 -0.0549  0.2031 -0.5509
 7417ION    CL-11481   0.255   4.996  10.503 -0.1047  0.2154  0.0961
 7418ION    CL-11482   7.896   5.681   1.489 -0.1421  0.2977 -0.0308
 7419ION    CL-11483   2.730   3.565  11.131 -0.1961  0.1541 -0.2084
 7420ION    CL-11484   4.450   8.943   9.240  0.2018 -0.1766  0.0706
 7421ION    CL-11485   1.078   8.737  10.171  0.4201  0.1005  0.0647
 7422ION    CL-11486   8.208   3.630   8.276  0.3069  0.0288 -0.2249
 7423ION    CL-11487   8.480   5.618  10.682 -0.0966 -0.0212 -0.0435
 7424ION    CL-11488  10.595   2.136   3.204  0.1360  0.0879 -0.0341
 7425ION    CL-11489   6.748   7.289   9.358 -0.0704  0.4101  0.1954
 7426ION    CL-11490   8.011   1.943   2.682  0.0798  0.2162  0.3042
 7427ION    CL-11491   6.122   4.671   0.523  0.1496 -0.0384  0.2702
 7428ION    CL-11492   2.760   5.365   0.723 -0.0263 -0.2315 -0.1780
 7429ION    CL-11493  10.199   0.763   1.599 -0.2854  0.1521  0.5021
 7430ION    CL-11494   3.216   5.845   1.384 -0.2728  0.2001 -0.1815
 7431ION    CL-11495   7.896   5.040  10.008 -0.1967 -0.0725 -0.0628
 7432ION    CL-11496   8.618   7.587   2.372  0.1374 -0.1258 -0.1990
 7433ION    CL-11497   1.772   6.925   3.163  0.1221 -0.2088 -0.2713
 7434ION    CL-11498   1.352   8.939   2.692 -0.0442 -0.1232  0.0496
 7435ION    CL-11499   8.447  10.068   3.192  0.1956  0.0577  0.1243
 7436ION    CL-11500   5.745   4.765  11.091 -0.1283  0.0631 -0.1148
 7437ION    CL-11501   2.643   2.650   8.928 -0.4822 -0.4188 -0.1896
 7438ION    CL-11502   9.009   2.706   1.544  0.3714  0.0940  0.3431
 7439ION    CL-11503  10.494   7.632   8.276  0.0487 -0.0274  0.0617
 7440ION    CL-11504   0.941   3.602   4.212  0.0660  0.3817 -0.0071
 7441ION    CL-11505   9.246   5.211   9.333  0.0794  0.0761 -0.1471
 7442ION    CL-11506   4.404   9.573   1.618 -0.1088  0.0124 -0.2402
 7443ION    CL-11507   7.032   0.827  11.475 -0.0275  0.4210  0.0146
 7444ION    CL-11508   8.482   8.676   9.791  0.0928 -0.1079 -0.1054
 7445ION    CL-11509   4.266   9.977   3.230 -0.2400  0.2971 -0.1052
 7446ION    CL-11510   0.234   8.373   2.140  0.0913  0.1738 -0.1810
 7447ION    CL-11511   9.948   6.351   1.796  0.0628 -0.2525  0.0566
 7448ION    CL-11512   5.557   6.682   0.817  0.0794 -0.2577  0.0497
 7449ION    CL-11513  10.038   6.636   0.282  0.1579 -0.0057  0.2877
 7450ION    CL-11514   1.288   1.009   2.950  0.1974 -0.3564 -0.0558
 7451ION    CL-11515   6.501  10.610  10.083  0.1558  0.0436 -0.0941
 7452ION    CL-11516   6.501   3.804   3.211  0.1056  0.2005  0.1088
 7453ION    CL-11517   4.577   6.036   8.522 -0.0142  0.1386 -0.1976
 7454ION    CL-11518   7.602   1.366   0.739 -0.2985 -0.0530  0.3686
 7455ION    CL-11519   8.203   9.203   9.063 -0.1939 -0.4159  0.0834
 7456ION    CL-11520   8.702   2.698  10.962  0.1748 -0.0481 -0.1201
 7457ION    CL-11521  10.322   0.301   8.344  0.2724 -0.0005  0.0678
 7458ION    CL-11522   2.379   5.646  10.961  0.0799  0.2460 -0.0619
 7459ION    CL-11523   3.981   4.857   2.740 -0.3187 -0.0976  0.3909
 7460ION    CL-11524   7.841   0.805   2.795 -0.1416  0.1305  0.3633
 7461ION    CL-11525   4.342   7.922   8.346 -0.3921 -0.1510 -0.0283
 7462ION    CL-11526   3.481   8.985   2.299 -0.4155 -0.0501  0.1485
 7463ION    CL-11527   4.854   8.677   3.295  0.2373  0.1559 -0.2768
 7464ION    CL-11528   6.708   2.674   2.502  0.1178  0.2293 -0.1172
 7465ION    CL-11529   6.993   8.468   3.141 -0.0654 -0.0174  0.0662
 7466ION    CL-11530   0.560   8.185  11.546 -0.1706 -0.0258 -0.4079
  10.63671  10.63671  11.59321
