Protein in INSANE! Membrane UpperLeaflet>POPC=1.0 LowerLeaflet>POPC=1.0
12914
    1AU     AUC    1   5.680   8.338   6.816 -0.0627 -0.0284 -0.0387
    1AU     AUC    2   5.664   8.265   7.150 -0.0044  0.0115  0.0423
    1AU     AUC    3   5.735   8.572   6.999  0.1020 -0.1643  0.0295
    1AU     AUC    4   5.603   8.081   6.630  0.0696  0.0353 -0.0295
    1AU     AUC    5   5.780   8.372   6.492  0.0306  0.0394  0.0925
    1AU     AUC    6   5.915   8.175   6.665 -0.0391  0.0462 -0.1282
    1AU     AUC    7   5.958   8.286   6.985 -0.0078 -0.0298 -0.0069
    1AU     AUC    8   5.412   8.360   6.646  0.1153 -0.0170 -0.0236
    1AU     AUC    9   5.422   8.488   6.964  0.0262 -0.0063  0.0237
    1AU     AUC   10   5.611   8.633   6.702 -0.0730  0.0142 -0.0590
    1AU     AUC   11   5.936   8.494   6.710 -0.0137  0.0078  0.0294
    1AU     AUC   12   5.444   8.141   6.909 -0.0054 -0.0136  0.0101
    1AU     AUC   13   5.735   8.031   6.937  0.0397  0.0814 -0.0800
    1AU     AUC   14   5.649   8.245   7.518 -0.0070 -0.0401  0.0101
    1AU     AUC   15   5.737   8.577   7.375  0.0602  0.0350  0.0218
    1AU     AUC   16   5.833   8.861   7.187  0.1005 -0.0497  0.1603
    1AU     AUC   17   5.507   7.808   6.443 -0.0578  0.0123 -0.1415
    1AU     AUC   18   5.661   8.098   6.255  0.0446 -0.0703 -0.1062
    1AU     AUC   19   5.834   8.372   6.137  0.0884  0.0192  0.0560
    1AU     AUC   20   6.191   7.984   6.520 -0.0017 -0.0366  0.0838
    1AU     AUC   21   6.258   8.074   6.881  0.0562 -0.0928  0.0547
    1AU     AUC   22   6.251   8.244   7.153  0.0565 -0.1053 -0.0209
    1AU     AUC   23   5.155   8.383   6.456  0.0391 -0.0061  0.0163
    1AU     AUC   24   5.121   8.534   6.780  0.0007 -0.1161 -0.0802
    1AU     AUC   25   5.138   8.663   7.093 -0.0326 -0.0498  0.0289
    1AU     AUC   26   5.578   8.948   6.553 -0.0243 -0.0914  0.0104
    1AU     AUC   27   5.908   8.849   6.567  0.0590  0.0640 -0.0088
    1AU     AUC   28   6.221   8.661   6.627 -0.0618 -0.0676  0.0090
    1AU     AUC   29   5.176   7.964   7.040  0.0781 -0.0880 -0.0153
    1AU     AUC   30   5.490   7.808   7.080 -0.0717 -0.0766  0.0481
    1AU     AUC   31   5.828   7.735   7.084 -0.0435  0.0546  0.0548
    1AU     AUC   32   5.675   8.923   6.851  0.0265  0.0442  0.0544
    1AU     AUC   33   6.033   8.802   6.916  0.1274  0.0649 -0.0035
    1AU     AUC   34   5.404   8.092   7.306  0.0091 -0.0264 -0.1432
    1AU     AUC   35   5.766   7.983   7.332 -0.0539 -0.0479  0.0271
    1AU     AUC   36   5.723   8.677   6.324  0.0268  0.0414 -0.0872
    1AU     AUC   37   6.060   8.548   6.362 -0.1545  0.0262 -0.0506
    1AU     AUC   38   5.342   7.887   6.704 -0.0122  0.0819 -0.0130
    1AU     AUC   39   5.609   7.733   6.740 -0.0020  0.0680 -0.0041
    1AU     AUC   40   5.961   8.290   7.377  0.0124  0.0140  0.0084
    1AU     AUC   41   6.029   8.572   7.182 -0.0418 -0.0266 -0.1426
    1AU     AUC   42   5.861   7.895   6.461 -0.0078  0.0031  0.0539
    1AU     AUC   43   6.039   8.159   6.321 -0.0287 -0.1151  0.0373
    1AU     AUC   44   5.374   8.461   7.303 -0.0217 -0.1377 -0.0302
    1AU     AUC   45   5.476   8.777   7.141  0.0768 -0.0301 -0.0530
    1AU     AUC   46   5.316   8.098   6.394  0.0375  0.0240  0.0112
    1AU     AUC   47   5.499   8.392   6.279 -0.0079 -0.0378 -0.0521
    1AU     AUC   48   6.267   8.308   6.597  0.0173 -0.0158 -0.0450
    1AU     AUC   49   6.241   8.467   6.903  0.0847 -0.0122 -0.0327
    1AU     AUC   50   5.343   8.664   6.487  0.0208 -0.0150  0.0168
    1AU     AUC   51   5.307   8.815   6.805  0.1293  0.0451 -0.0216
    1AU     AUC   52   5.985   7.843   6.798 -0.0145 -0.0066  0.0197
    1AU     AUC   53   6.037   7.951   7.162  0.1337  0.0101  0.0989
    1AU     AUC   54   5.116   8.181   6.721  0.0103  0.0634  0.0559
    1AU     AUC   55   5.161   8.296   7.103 -0.0092  0.0096 -0.0571
    1AU    AUSL   56   5.895   9.184   6.995 -0.0007  0.0176  0.0575
    1AU    AUSL   57   5.464   9.205   6.796 -0.0593 -0.0383 -0.0109
    1AU     AUL   58   5.638   9.430   7.013 -0.0554  0.0856 -0.0217
    1AU       S   59   5.193   9.435   7.037 -0.3267  0.1499  0.0336
    1AU     LIG   60   5.337   9.690   6.755  0.1801  0.0058 -0.0707
    1AU     LIG   61   5.609   9.909   6.978 -0.3223  0.0132  0.2391
    1AU     LIG   62   5.641  10.235   7.104 -0.2897  0.2329 -0.2921
    1AU     LIG   63   5.573  10.579   7.425  0.0862  0.2120  0.0152
    1AU     LIG   64   5.258  10.950   7.483 -0.3477  0.1791  0.0553
    1AU       S   65   5.990   9.636   6.828 -0.1846 -0.0425 -0.1663
    1AU     LIG   66   6.287   9.807   6.888 -0.0525  0.2709 -0.2033
    1AU     LIG   67   6.573   9.976   7.059 -0.2187  0.0089 -0.2737
    1AU     LIG   68   6.884   9.823   7.389 -0.1292  0.4390  0.2515
    1AU     LIG   69   7.307  10.025   7.272 -0.0415  0.4425 -0.0574
    1AU     LIG   70   7.593  10.287   7.155 -0.3765 -0.3421 -0.1172
    1AU    AUSL   71   5.842   9.229   6.572 -0.0360 -0.0676 -0.0269
    1AU    AUSL   72   6.176   8.980   6.324  0.0289 -0.0174  0.0051
    1AU     AUL   73   6.170   9.360   6.462  0.0205 -0.0751 -0.0284
    1AU       S   74   5.734   9.484   6.537 -0.1407 -0.0360 -0.1377
    1AU     LIG   75   5.779   9.950   6.538  0.0738 -0.1146 -0.0076
    1AU     LIG   76   6.034  10.271   6.668  0.0672 -0.0005  0.1641
    1AU     LIG   77   6.144  10.649   6.573  0.0761 -0.4352  0.0371
    1AU     LIG   78   6.034  11.115   6.697 -0.0697 -0.1213 -0.2277
    1AU     LIG   79   6.216  11.388   6.912 -0.2569 -0.3519  0.0183
    1AU       S   80   5.977   9.218   6.070  0.2891 -0.2043  0.1705
    1AU     LIG   81   5.970   9.710   6.159 -0.0798 -0.0738  0.0676
    1AU     LIG   82   6.354   9.968   6.366 -0.0186 -0.2409  0.2179
    1AU     LIG   83   6.565  10.233   6.628  0.1428  0.0638  0.0666
    1AU     LIG   84   6.526  10.511   6.957  0.1866 -0.1091 -0.0965
    1AU     LIG   85   6.567  10.841   7.317  0.3522 -0.1069  0.3499
    1AU    AUSL   86   6.126   8.906   6.730 -0.0303 -0.1103  0.0060
    1AU    AUSL   87   6.219   8.986   7.190  0.0023  0.0376 -0.0945
    1AU     AUL   88   6.234   9.241   6.901  0.0642 -0.0888 -0.0189
    1AU       S   89   6.543   9.138   6.523  0.1767  0.0576 -0.3459
    1AU     LIG   90   6.870   8.939   6.534  0.3155 -0.3024  0.3755
    1AU     LIG   91   7.142   9.224   6.666  0.2987 -0.2811 -0.0530
    1AU     LIG   92   7.564   9.401   6.712  0.3789 -0.0700 -0.0614
    1AU     LIG   93   7.870   9.580   6.597 -0.0275  0.0946  0.3152
    1AU     LIG   94   8.024   9.467   6.184 -0.0008  0.0827 -0.0314
    1AU       S   95   6.525   9.166   7.251 -0.2554  0.1756  0.0473
    1AU     LIG   96   6.453   9.562   7.314  0.1435  0.1050  0.0019
    1AU     LIG   97   6.378   9.769   7.615  0.0081 -0.0894 -0.2930
    1AU     LIG   98   6.530  10.157   7.711  0.2321 -0.1088 -0.0910
    1AU     LIG   99   6.691  10.558   7.759  0.1995 -0.3972 -0.4409
    1AU     LIG  100   6.966  10.863   8.107 -0.2564 -0.2772 -0.0580
    1AU    AUSL  101   5.614   7.901   7.600  0.0362  0.0443  0.0390
    1AU    AUSL  102   6.020   7.743   7.449 -0.0421  0.0982  0.0560
    1AU     AUL  103   5.802   7.685   7.790  0.0063 -0.1016 -0.0459
    1AU       S  104   5.526   7.390   7.643  0.0690 -0.1116 -0.2598
    1AU     LIG  105   5.585   6.938   7.505 -0.0520 -0.2120  0.2070
    1AU     LIG  106   5.538   6.453   7.581 -0.0932 -0.0692  0.1740
    1AU     LIG  107   5.278   6.229   7.902 -0.2052 -0.2063  0.1834
    1AU     LIG  108   5.104   5.860   8.104 -0.1023  0.0946  0.1582
    1AU     LIG  109   4.797   5.554   8.115 -0.0942 -0.1265 -0.0400
    1AU       S  110   6.255   7.726   7.805  0.0191 -0.0636 -0.0795
    1AU     LIG  111   6.700   7.687   7.755 -0.0090 -0.0590  0.0671
    1AU     LIG  112   7.083   7.687   7.776 -0.1732 -0.2692  0.1469
    1AU     LIG  113   7.413   7.442   7.744 -0.2095  0.1812  0.1019
    1AU     LIG  114   7.726   7.178   7.537 -0.1848  0.1349 -0.0639
    1AU     LIG  115   8.025   7.395   7.214 -0.1411 -0.1217 -0.3099
    1AU    AUSL  116   5.244   7.731   7.446 -0.0606 -0.0710 -0.0299
    1AU    AUSL  117   5.318   8.184   7.654 -0.0784  0.0224 -0.0806
    1AU     AUL  118   5.340   7.821   7.805  0.0522 -0.0342 -0.0673
    1AU       S  119   5.075   8.176   7.924  0.3734  0.2467  0.3268
    1AU     LIG  120   5.108   8.438   8.285  0.2462 -0.0183 -0.1771
    1AU     LIG  121   5.226   8.791   8.328  0.0809 -0.1819  0.5889
    1AU     LIG  122   5.476   9.155   8.326 -0.2309  0.3254  0.0108
    1AU     LIG  123   5.444   9.435   8.281 -0.2590 -0.0371 -0.1528
    1AU     LIG  124   5.438   9.755   8.008 -0.1929 -0.3196 -0.1578
    1AU       S  125   5.356   7.353   7.704  0.1081  0.0813  0.0328
    1AU     LIG  126   4.971   7.146   7.555  0.1774 -0.3910 -0.1266
    1AU     LIG  127   5.014   6.752   7.405  0.3739  0.2258 -0.2265
    1AU     LIG  128   4.715   6.473   7.166  0.0364 -0.2416  0.1058
    1AU     LIG  129   4.831   6.091   6.967 -0.3978 -0.1867  0.0850
    1AU     LIG  130   4.741   5.873   6.647  0.2897  0.2028 -0.1291
    1AU    AUSL  131   5.638   7.663   7.253 -0.0023 -0.0460  0.1448
    1AU    AUSL  132   5.212   7.690   7.024  0.0150 -0.0054 -0.0059
    1AU     AUL  133   5.202   7.454   7.287 -0.1311 -0.0463 -0.0372
    1AU       S  134   5.078   7.191   6.955 -0.2851 -0.1919 -0.1653
    1AU     LIG  135   4.745   7.087   7.151 -0.0505 -0.2473 -0.2077
    1AU     LIG  136   4.391   6.887   7.053 -0.1533 -0.3967  0.1137
    1AU     LIG  137   3.995   6.729   6.942 -0.0446 -0.1316  0.3631
    1AU     LIG  138   3.551   6.526   6.776 -0.2107  0.0055  0.0045
    1AU     LIG  139   3.190   6.748   6.865  0.1090 -0.1324 -0.1285
    1AU       S  140   5.677   7.426   7.399 -0.2765 -0.2618 -0.2442
    1AU     LIG  141   5.898   7.145   7.181  0.3407  0.0134 -0.0854
    1AU     LIG  142   5.999   6.842   6.855  0.0906  0.0160 -0.1656
    1AU     LIG  143   5.902   6.391   6.716 -0.3925  0.1676 -0.0018
    1AU     LIG  144   6.288   6.073   6.811  0.1123  0.1763  0.0515
    1AU     LIG  145   6.542   5.841   6.739 -0.1719  0.0268  0.1625
    1AU    AUSL  146   5.996   8.705   6.052 -0.0386 -0.0542 -0.0139
    1AU    AUSL  147   6.352   8.597   6.352  0.0599 -0.0528 -0.0111
    1AU     AUL  148   6.336   8.817   6.089  0.0396 -0.0333 -0.0242
    1AU       S  149   6.091   9.184   5.877  0.0216 -0.1575 -0.2909
    1AU     LIG  150   5.817   9.494   5.741 -0.1623 -0.1614 -0.0047
    1AU     LIG  151   5.647   9.798   5.778 -0.0022 -0.2256  0.1765
    1AU     LIG  152   5.498  10.120   6.032 -0.0131  0.0312 -0.2311
    1AU     LIG  153   5.361  10.519   5.998 -0.0142 -0.0454 -0.3473
    1AU     LIG  154   5.147  10.756   6.379  0.0461 -0.2545 -0.5864
    1AU       S  155   6.634   8.429   5.979 -0.0434 -0.3543  0.3297
    1AU     LIG  156   6.836   8.765   6.047 -0.2275 -0.1275 -0.2139
    1AU     LIG  157   7.185   8.906   6.156 -0.2662 -0.1639  0.0320
    1AU     LIG  158   7.471   8.834   6.482  0.0607  0.0940 -0.2486
    1AU     LIG  159   7.882   9.054   6.436 -0.0166 -0.1056  0.3358
    1AU     LIG  160   8.305   9.164   6.622 -0.0504  0.2280  0.2318
    1AU    AUSL  161   5.744   8.873   6.331  0.0239  0.0434 -0.0035
    1AU    AUSL  162   5.576   8.645   5.944  0.0416 -0.0489  0.0087
    1AU     AUL  163   5.795   8.828   5.880  0.0274  0.0987 -0.0446
    1AU       S  164   5.376   8.881   5.698 -0.1699  0.1909  0.1123
    1AU     LIG  165   5.637   9.158   5.465  0.0466  0.4322 -0.2723
    1AU     LIG  166   5.980   9.198   5.328 -0.0204 -0.1503  0.4386
    1AU     LIG  167   6.242   9.033   5.152  0.0995  0.1417  0.1523
    1AU     LIG  168   6.136   8.635   4.986  0.0401  0.2777  0.1389
    1AU     LIG  169   5.759   8.449   4.979 -0.3641 -0.0342 -0.0817
    1AU       S  170   5.841   9.206   6.126  0.2574 -0.0077  0.1936
    1AU     LIG  171   5.497   9.518   6.142  0.3746  0.1823  0.4474
    1AU     LIG  172   5.209   9.757   6.297  0.1051 -0.0974  0.1075
    1AU     LIG  173   5.138  10.175   6.555  0.1168  0.4380 -0.3039
    1AU     LIG  174   5.285  10.518   6.808 -0.0235  0.0404 -0.1837
    1AU     LIG  175   5.738  10.623   6.873  0.1997 -0.1181 -0.3210
    1AU    AUSL  176   5.300   7.527   6.627  0.0385  0.0246  0.0295
    1AU    AUSL  177   5.013   7.929   6.745  0.0863  0.0479  0.0368
    1AU     AUL  178   4.960   7.623   6.828 -0.0453 -0.0551  0.0186
    1AU       S  179   5.059   7.217   6.663  0.2694 -0.0210  0.0731
    1AU     LIG  180   4.589   7.214   6.669  0.0431 -0.3535  0.0743
    1AU     LIG  181   4.183   7.044   6.521 -0.2912 -0.1653 -0.1325
    1AU     LIG  182   4.091   6.704   6.392 -0.2610 -0.5201  0.1209
    1AU     LIG  183   3.966   6.372   6.570 -0.0087  0.2628  0.2688
    1AU     LIG  184   4.253   6.138   6.412  0.0926 -0.2111 -0.1801
    1AU       S  185   4.740   7.679   6.441  0.1665  0.0015 -0.0093
    1AU     LIG  186   4.336   7.668   6.441  0.0564  0.4413  0.0023
    1AU     LIG  187   4.002   7.695   6.212  0.0289 -0.0494 -0.0121
    1AU     LIG  188   3.577   7.780   6.268 -0.3390  0.0101 -0.0743
    1AU     LIG  189   3.213   7.545   6.553 -0.4404  0.8163  0.0533
    1AU     LIG  190   2.868   7.146   6.654  0.0947 -0.2314  0.4685
    1AU    AUSL  191   5.528   7.364   6.958  0.0007  0.0212 -0.1009
    1AU    AUSL  192   5.676   7.464   6.409 -0.0370 -0.0145  0.0783
    1AU     AUL  193   5.549   7.249   6.623  0.0439  0.1011 -0.0774
    1AU       S  194   5.779   7.132   6.221 -0.0074  0.1368 -0.0433
    1AU     LIG  195   5.590   6.776   6.492 -0.0166 -0.0288  0.0286
    1AU     LIG  196   5.579   6.701   7.053 -0.1731  0.1423  0.0115
    1AU     LIG  197   5.984   6.683   7.326 -0.0943 -0.0389 -0.0043
    1AU     LIG  198   6.263   6.965   7.431  0.5063 -0.0255 -0.1791
    1AU     LIG  199   6.494   7.272   7.601 -0.2890  0.0032 -0.1353
    1AU       S  200   5.213   7.139   6.914 -0.4367  0.1388  0.0080
    1AU     LIG  201   5.065   6.667   6.894  0.0978  0.0279  0.1936
    1AU     LIG  202   5.174   6.337   6.597 -0.0839  0.0654 -0.2652
    1AU     LIG  203   5.307   5.848   6.817  0.1749 -0.5275  0.2285
    1AU     LIG  204   5.093   5.623   7.139 -0.2939  0.2984 -0.0954
    1AU     LIG  205   4.669   5.693   7.154  0.0500  0.0924  0.3272
    1AU    AUSL  206   6.246   8.476   7.562 -0.0016  0.0749 -0.0323
    1AU    AUSL  207   5.961   8.121   7.680 -0.0357 -0.0426 -0.0455
    1AU     AUL  208   6.278   8.402   7.869 -0.0471 -0.0277  0.0547
    1AU       S  209   6.138   7.976   7.872 -0.0996  0.2999  0.2870
    1AU     LIG  210   6.335   8.024   8.181 -0.1381 -0.1374  0.0849
    1AU     LIG  211   6.722   8.193   8.060  0.2884  0.3085 -0.3459
    1AU     LIG  212   7.096   8.370   7.927  0.2556 -0.0107 -0.2078
    1AU     LIG  213   7.488   8.433   7.761 -0.5113 -0.3955 -0.1000
    1AU     LIG  214   7.808   8.300   7.852 -0.2049 -0.1015 -0.0484
    1AU       S  215   6.371   8.861   7.818 -0.2651  0.2983 -0.0384
    1AU     LIG  216   6.716   8.623   7.730 -0.1188 -0.5231  0.2796
    1AU     LIG  217   7.059   8.607   7.414  0.0722 -0.2161 -0.1542
    1AU     LIG  218   7.483   8.526   7.215 -0.0787  0.2813  0.1135
    1AU     LIG  219   7.862   8.526   7.294 -0.1599 -0.1429  0.0974
    1AU     LIG  220   8.142   8.584   7.649  0.0957  0.2862 -0.0298
    1AU    AUSL  221   5.841   8.515   7.751 -0.0472  0.0404  0.0447
    1AU    AUSL  222   5.636   8.911   7.576 -0.0503 -0.0499  0.0364
    1AU     AUL  223   5.665   8.759   7.991 -0.0624 -0.0127  0.0629
    1AU       S  224   6.074   8.841   7.847 -0.6580 -0.5027 -0.0687
    1AU     LIG  225   6.056   9.025   8.287  0.1027 -0.2526 -0.1760
    1AU     LIG  226   5.737   8.759   8.460 -0.2017  0.3780 -0.2376
    1AU     LIG  227   5.456   8.455   8.601  0.0086  0.2730 -0.1590
    1AU     LIG  228   5.437   7.990   8.599 -0.4327  0.0867 -0.0042
    1AU     LIG  229   5.546   7.655   8.238  0.1223 -0.0234  0.2196
    1AU       S  230   5.335   8.996   7.788 -0.0816 -0.1139  0.0165
    1AU     LIG  231   5.726   9.259   7.879  0.0688  0.0217  0.0542
    1AU     LIG  232   6.259   9.353   7.878  0.0007 -0.0087  0.3124
    1AU     LIG  233   6.737   9.236   7.842 -0.1732 -0.0290 -0.0185
    1AU     LIG  234   7.109   9.035   7.756  0.2291  0.3199  0.0376
    1AU     LIG  235   7.477   8.869   7.531 -0.1147 -0.0427 -0.1111
    1AU    AUSL  236   5.961   8.749   7.397 -0.0140 -0.0006 -0.0078
    1AU    AUSL  237   6.280   8.549   7.143 -0.0619  0.0891 -0.0737
    1AU     AUL  238   6.386   8.711   7.393 -0.0165  0.0135  0.0344
    1AU       S  239   6.719   8.956   7.277 -0.3052  0.1554  0.5058
    1AU     LIG  240   7.055   9.372   7.289 -0.1496 -0.5744  0.2182
    1AU     LIG  241   7.054   9.755   6.930 -0.3236  0.0775 -0.0688
    1AU     LIG  242   6.998  10.213   6.963  0.1851  0.0280 -0.0378
    1AU     LIG  243   7.321  10.496   6.806 -0.1612 -0.0337  0.0247
    1AU     LIG  244   7.164  10.699   6.473 -0.1790  0.0342 -0.0767
    1AU       S  245   6.083   8.938   7.650 -0.2883 -0.0138  0.0218
    1AU     LIG  246   5.952   9.259   7.451 -0.3206  0.0155 -0.5642
    1AU     LIG  247   5.992   9.629   7.318  0.0066  0.1972  0.0883
    1AU     LIG  248   6.114  10.024   7.308  0.4998  0.1446  0.2345
    1AU     LIG  249   6.084  10.566   7.221  0.2263  0.1377 -0.1258
    1AU     LIG  250   6.091  11.020   7.170 -0.1316 -0.2967 -0.0894
    1AU    AUSL  251   6.162   7.882   6.231 -0.0939 -0.0586 -0.0450
    1AU    AUSL  252   6.169   8.308   6.085 -0.0963  0.0461 -0.0127
    1AU     AUL  253   6.334   7.930   5.939  0.0117  0.0661  0.0249
    1AU       S  254   6.348   8.398   5.877  0.2233  0.0247  0.1701
    1AU     LIG  255   6.523   8.334   5.492 -0.1249  0.0130 -0.2957
    1AU     LIG  256   6.652   8.263   5.082  0.0752  0.0328 -0.1906
    1AU     LIG  257   6.562   8.498   4.703 -0.1700 -0.2438 -0.1399
    1AU     LIG  258   6.158   8.528   4.444 -0.0219  0.4553 -0.1217
    1AU     LIG  259   5.908   8.580   4.110  0.1320 -0.2272  0.1276
    1AU       S  260   6.521   7.675   6.279 -0.1494 -0.0391 -0.2490
    1AU     LIG  261   6.775   7.753   5.996 -0.0904 -0.0280  0.0735
    1AU     LIG  262   7.021   7.488   5.748  0.0680 -0.3438  0.1159
    1AU     LIG  263   7.074   7.039   5.867  0.5209  0.2083  0.0327
    1AU     LIG  264   7.141   6.631   5.646 -0.0299  0.2214 -0.2779
    1AU     LIG  265   7.173   6.472   5.186  0.2721  0.2001  0.1077
    1AU    AUSL  266   5.737   7.838   6.270  0.0188 -0.0292  0.0384
    1AU    AUSL  267   6.095   7.565   6.492  0.0619  0.0290  0.0374
    1AU     AUL  268   5.988   7.539   6.178 -0.0690 -0.0238 -0.0366
    1AU       S  269   5.415   7.404   6.009  0.0350 -0.2158 -0.5185
    1AU     LIG  270   5.201   7.049   6.174 -0.0483  0.0135 -0.0611
    1AU     LIG  271   4.866   6.853   6.375 -0.3009  0.1728  0.1887
    1AU     LIG  272   4.608   6.703   6.679 -0.2930  0.3837  0.0854
    1AU     LIG  273   4.325   6.422   6.869  0.0757 -0.1855  0.1473
    1AU     LIG  274   4.280   6.048   6.961 -0.3086  0.0942  0.1703
    1AU       S  275   6.286   7.295   6.419 -0.0637  0.2025  0.1026
    1AU     LIG  276   6.500   7.003   6.209  0.2433  0.5480  0.0978
    1AU     LIG  277   6.841   6.637   6.119 -0.2646  0.3402  0.0610
    1AU     LIG  278   7.209   6.755   6.409 -0.2216 -0.0539  0.1059
    1AU     LIG  279   7.482   6.565   6.628  0.1022 -0.0812 -0.0256
    1AU     LIG  280   7.843   6.446   6.761 -0.2745 -0.1187 -0.3069
    1AU    AUSL  281   5.893   8.054   5.903 -0.0920 -0.0944  0.0347
    1AU    AUSL  282   5.413   7.879   5.999 -0.1089  0.0310  0.0158
    1AU     AUL  283   5.724   7.738   5.865  0.0951 -0.1183 -0.0367
    1AU       S  284   5.418   8.018   5.652  0.2568 -0.1108 -0.2941
    1AU     LIG  285   4.983   7.857   5.524  0.1902 -0.0721  0.2169
    1AU     LIG  286   4.961   7.489   5.799 -0.0826  0.3128  0.1928
    1AU     LIG  287   5.099   7.110   5.709  0.6359 -0.3747 -0.4011
    1AU     LIG  288   4.840   6.723   5.895 -0.0808 -0.0743 -0.0525
    1AU     LIG  289   4.386   6.477   5.974 -0.0746 -0.1550 -0.1160
    1AU       S  290   5.993   8.083   5.636 -0.0612  0.0213 -0.1746
    1AU     LIG  291   6.081   7.556   5.505 -0.1387 -0.0605 -0.4221
    1AU     LIG  292   6.093   7.079   5.531 -0.1582 -0.1136  0.0133
    1AU     LIG  293   6.167   6.835   5.882 -0.1431 -0.1744 -0.2366
    1AU     LIG  294   6.367   6.415   5.853  0.0489  0.2848 -0.1714
    1AU     LIG  295   6.402   5.959   5.884  0.2232 -0.1588  0.2414
    1AU    AUSL  296   5.222   8.823   7.371 -0.0790 -0.0599  0.0508
    1AU    AUSL  297   5.565   8.978   7.146  0.0061  0.0468  0.0693
    1AU     AUL  298   5.507   9.179   7.411  0.0552 -0.0596  0.0447
    1AU       S  299   5.104   8.942   7.513  0.2191  0.1065  0.0734
    1AU     LIG  300   4.784   9.088   7.390 -0.0416  0.1893  0.0796
    1AU     LIG  301   4.657   9.532   7.255  0.0830 -0.5817 -0.1431
    1AU     LIG  302   4.357   9.847   6.996 -0.0163  0.1370 -0.1843
    1AU     LIG  303   4.410  10.299   6.985 -0.0793 -0.0448 -0.0980
    1AU     LIG  304   4.256  10.703   6.978 -0.1164 -0.0301 -0.3270
    1AU       S  305   5.162   9.396   7.235 -0.1442 -0.0179  0.0076
    1AU     LIG  306   5.478   9.692   7.396  0.6147 -0.1963 -0.1783
    1AU     LIG  307   5.618  10.076   7.603  0.0428 -0.3654 -0.1617
    1AU     LIG  308   6.020  10.327   7.703  0.1947 -0.1034 -0.1578
    1AU     LIG  309   6.204  10.790   7.632  0.0265 -0.0957 -0.2666
    1AU     LIG  310   6.309  11.171   7.577 -0.0278  0.0799  0.1663
    1AU    AUSL  311   5.498   8.518   7.493 -0.0893  0.0145  0.0670
    1AU    AUSL  312   5.032   8.461   7.490  0.0153  0.0550 -0.0004
    1AU     AUL  313   5.288   8.528   7.747 -0.0580  0.0105  0.0898
    1AU       S  314   5.201   8.969   7.797 -0.0042  0.1768  0.0294
    1AU     LIG  315   5.164   9.417   7.769  0.0691  0.0051  0.3358
    1AU     LIG  316   5.001   9.785   7.538 -0.0395  0.2661  0.3081
    1AU     LIG  317   4.974   9.899   7.103  0.0804 -0.3696  0.2165
    1AU     LIG  318   4.871  10.235   6.937 -0.2490 -0.0465 -0.2598
    1AU     LIG  319   4.934  10.644   7.173  0.0396 -0.0724  0.1986
    1AU       S  320   4.832   8.258   7.831  0.2247  0.0362 -0.0437
    1AU     LIG  321   4.844   8.645   7.946 -0.0889 -0.1054 -0.0818
    1AU     LIG  322   4.893   9.055   8.125  0.0594 -0.3250  0.1579
    1AU     LIG  323   4.977   9.248   8.460  0.4076  0.2282  0.0212
    1AU     LIG  324   5.083   9.681   8.563  0.3069 -0.2625  0.1534
    1AU     LIG  325   5.177   9.995   8.470  0.0337  0.0864  0.0676
    1AU    AUSL  326   5.173   8.235   6.097 -0.0464 -0.0992  0.1445
    1AU    AUSL  327   5.256   7.868   6.381 -0.0175 -0.0050  0.0600
    1AU     AUL  328   5.120   7.925   5.981  0.0665 -0.0451  0.0259
    1AU       S  329   4.965   7.628   6.347 -0.0889  0.3220  0.2809
    1AU     LIG  330   4.763   7.272   6.160 -0.1336 -0.1119  0.1377
    1AU     LIG  331   4.456   7.047   6.073  0.2032  0.0376 -0.1192
    1AU     LIG  332   4.100   6.995   5.867 -0.4366  0.2396 -0.3492
    1AU     LIG  333   3.944   7.019   5.511  0.0452  0.1712  0.4221
    1AU     LIG  334   3.646   6.983   5.202  0.2026 -0.0344  0.2761
    1AU       S  335   5.316   8.212   5.614 -0.0393 -0.1882 -0.0222
    1AU     LIG  336   4.889   8.282   5.682 -0.1331 -0.1571  0.3740
    1AU     LIG  337   4.700   8.417   5.988 -0.0942  0.0907  0.1178
    1AU     LIG  338   4.489   8.685   6.077 -0.0328 -0.4844  0.0060
    1AU     LIG  339   3.992   8.617   6.304 -0.2429 -0.1842 -0.3284
    1AU     LIG  340   3.823   8.209   6.223 -0.3584  0.2437 -0.1286
    1AU    AUSL  341   5.597   8.273   6.098 -0.0220  0.0940  0.0296
    1AU    AUSL  342   5.314   8.599   6.253 -0.0133  0.0619  0.0017
    1AU     AUL  343   5.239   8.517   5.950 -0.0230  0.0598  0.0710
    1AU       S  344   5.220   8.906   5.749  0.0252 -0.0854  0.0568
    1AU     LIG  345   4.767   8.855   5.651  0.0872 -0.3149 -0.1700
    1AU     LIG  346   4.467   8.513   5.573  0.1089 -0.0399 -0.1350
    1AU     LIG  347   4.206   8.213   5.358  0.1286 -0.1738 -0.0984
    1AU     LIG  348   4.086   7.882   5.151  0.3352 -0.4337 -0.1661
    1AU     LIG  349   4.002   7.622   4.836 -0.1479  0.1330  0.0929
    1AU       S  350   5.504   8.201   5.695  0.0411 -0.1499 -0.2189
    1AU     LIG  351   5.700   8.525   5.473 -0.3369 -0.2084  0.3268
    1AU     LIG  352   6.095   8.688   5.468  0.0619  0.1300  0.1882
    1AU     LIG  353   6.474   8.812   5.568 -0.2669 -0.1828  0.3354
    1AU     LIG  354   6.629   9.178   5.832 -0.0952  0.3458  0.1726
    1AU     LIG  355   6.465   9.408   6.088 -0.0979  0.2642  0.1884
    1AU    AUSL  356   6.474   8.439   6.728  0.0719  0.0244  0.0532
    1AU    AUSL  357   6.452   8.162   6.368  0.0349 -0.0126 -0.0291
    1AU     AUL  358   6.669   8.546   6.438 -0.0366 -0.0377 -0.0033
    1AU       S  359   6.710   8.174   6.188  0.3690 -0.2785 -0.2318
    1AU     LIG  360   7.108   8.408   6.275  0.0099 -0.0592 -0.0921
    1AU     LIG  361   7.427   8.371   6.622 -0.2601 -0.0599 -0.3191
    1AU     LIG  362   7.850   8.594   6.777  0.0720  0.1463  0.1414
    1AU     LIG  363   8.245   8.367   6.922  0.0269  0.1615  0.1262
    1AU     LIG  364   8.538   8.447   7.327  0.1596 -0.0214  0.0387
    1AU       S  365   6.934   8.348   6.759 -0.5919  0.1431  0.0947
    1AU     LIG  366   7.134   8.720   6.872  0.1001  0.4324 -0.1347
    1AU     LIG  367   7.377   9.010   7.087 -0.0371 -0.0798 -0.3711
    1AU     LIG  368   7.615   9.327   7.314 -0.4008  0.2312 -0.2091
    1AU     LIG  369   7.830   9.684   7.451  0.0016  0.1479 -0.2754
    1AU     LIG  370   7.787  10.154   7.608 -0.0247 -0.1261 -0.2879
    1AU    AUSL  371   6.604   8.024   6.731 -0.0749 -0.0315 -0.0006
    1AU    AUSL  372   6.441   7.859   7.124 -0.0675 -0.0699 -0.0253
    1AU     AUL  373   6.793   7.856   7.096 -0.0054 -0.0226  0.0869
    1AU       S  374   6.840   8.101   6.685 -0.2055  0.1956 -0.1157
    1AU     LIG  375   6.975   7.669   6.684  0.0785 -0.0640 -0.1805
    1AU     LIG  376   6.961   7.213   6.918 -0.1325 -0.1317  0.0681
    1AU     LIG  377   7.069   6.738   6.890 -0.0032 -0.1342  0.0000
    1AU     LIG  378   7.112   6.454   7.164  0.0744  0.0449  0.1656
    1AU     LIG  379   7.403   6.260   7.425  0.0450 -0.2714  0.0612
    1AU       S  380   6.567   7.481   6.989 -0.4113  0.4104  0.0775
    1AU     LIG  381   6.640   6.968   7.189 -0.1927  0.1091 -0.0697
    1AU     LIG  382   6.425   6.580   7.073 -0.1862 -0.0360 -0.4480
    1AU     LIG  383   6.000   6.224   7.174 -0.1728  0.0047  0.1861
    1AU     LIG  384   5.785   6.075   7.498 -0.1068  0.1652 -0.5195
    1AU     LIG  385   5.591   5.842   7.868 -0.3986 -0.3775  0.2985
    1AU    AUSL  386   6.588   8.269   7.097 -0.0120  0.0762 -0.0983
    1AU    AUSL  387   6.509   8.821   6.886 -0.0191  0.0804  0.1081
    1AU     AUL  388   6.672   8.575   7.025 -0.0220 -0.0087  0.0045
    1AU       S  389   6.705   9.036   6.969  0.1449 -0.3836 -0.3983
    1AU     LIG  390   6.687   9.448   6.873 -0.0671 -0.1475 -0.2646
    1AU     LIG  391   6.674   9.650   6.465 -0.3978  0.0280 -0.0757
    1AU     LIG  392   7.130   9.750   6.460 -0.1647  0.3025  0.2637
    1AU     LIG  393   7.467  10.007   6.710  0.3333  0.0304 -0.1043
    1AU     LIG  394   7.711   9.768   7.002  0.0757 -0.2880  0.2124
    1AU       S  395   7.014   8.238   6.947  0.0324  0.3585 -0.4244
    1AU     LIG  396   7.357   7.920   6.898  0.0989 -0.0448  0.1143
    1AU     LIG  397   7.715   7.583   6.833 -0.1213  0.2734 -0.0939
    1AU     LIG  398   7.550   7.140   6.872  0.2369  0.2937 -0.2975
    1AU     LIG  399   7.563   6.730   7.106 -0.0284  0.2530 -0.1307
    1AU     LIG  400   7.822   6.505   7.356  0.4665  0.1444 -0.0516
    1AU    AUSL  401   5.234   8.917   6.567 -0.0085 -0.0360  0.0579
    1AU    AUSL  402   5.162   8.982   6.986  0.0566  0.1530 -0.0057
    1AU     AUL  403   5.168   9.228   6.639  0.0631  0.0602 -0.0801
    1AU       S  404   4.777   9.143   6.482  0.1549 -0.1501  0.1064
    1AU     LIG  405   4.456   9.407   6.478 -0.0632  0.1605  0.0979
    1AU     LIG  406   4.132   9.553   6.618 -0.0078  0.1416 -0.0872
    1AU     LIG  407   3.660   9.610   6.474  0.3498 -0.1447  0.0853
    1AU     LIG  408   3.485   9.763   6.804 -0.0702 -0.1599  0.4447
    1AU     LIG  409   3.580   9.629   7.311  0.0360  0.1149 -0.1151
    1AU       S  410   5.134   9.226   7.122  0.0408 -0.0477  0.1282
    1AU     LIG  411   4.824   9.496   6.806  0.3915  0.1998  0.0468
    1AU     LIG  412   4.689   9.868   6.641  0.1639  0.3231  0.4308
    1AU     LIG  413   4.608  10.240   6.429 -0.1485  0.0895 -0.0475
    1AU     LIG  414   4.670  10.685   6.642 -0.4628  0.0746 -0.2788
    1AU     LIG  415   4.644  11.244   6.655  0.2073  0.1771  0.0901
    1AU    AUSL  416   4.909   8.646   6.372 -0.1116 -0.0602 -0.0273
    1AU    AUSL  417   5.397   9.010   6.188 -0.0578 -0.0875  0.0851
    1AU     AUL  418   5.064   8.879   6.204 -0.0162  0.0655  0.0361
    1AU       S  419   4.584   8.967   6.440  0.0989  0.0992 -0.3267
    1AU     LIG  420   4.201   9.056   6.668  0.2910  0.0322  0.3015
    1AU     LIG  421   3.720   9.050   6.504  0.2983  0.1250  0.2329
    1AU     LIG  422   3.360   8.849   6.719  0.0178  0.0066 -0.2498
    1AU     LIG  423   3.026   8.639   6.721  0.2909 -0.1397 -0.1720
    1AU     LIG  424   2.757   8.331   6.566 -0.0102 -0.2196  0.3398
    1AU       S  425   5.389   9.122   5.919  0.0870  0.0982 -0.0071
    1AU     LIG  426   5.027   9.350   6.112 -0.0682 -0.2120 -0.1172
    1AU     LIG  427   4.735   9.649   6.152 -0.1020  0.0668  0.1323
    1AU     LIG  428   4.335   9.832   6.177  0.0095  0.1015 -0.3656
    1AU     LIG  429   4.098  10.017   6.545  0.0033  0.1034 -0.0735
    1AU     LIG  430   4.011  10.361   6.666  0.3966  0.0345 -0.2724
    1AU    AUSL  431   4.859   8.796   6.770 -0.0087  0.0495 -0.0779
    1AU    AUSL  432   4.909   8.371   6.705  0.0504  0.0868  0.0251
    1AU     AUL  433   4.653   8.524   6.521 -0.0557 -0.0396  0.0109
    1AU       S  434   4.501   8.535   6.966 -0.1764  0.6015 -0.0135
    1AU     LIG  435   4.061   8.589   6.795 -0.0659  0.1091  0.0499
    1AU     LIG  436   3.703   8.349   6.657  0.2073  0.3011  0.0762
    1AU     LIG  437   3.284   8.156   6.527 -0.5837  0.3826 -0.0342
    1AU     LIG  438   3.006   7.956   6.765 -0.8682  0.2201  0.1807
    1AU     LIG  439   2.551   8.044   6.919  0.2397  0.0545 -0.1012
    1AU       S  440   4.745   8.949   6.716  0.1724 -0.0510  0.0202
    1AU     LIG  441   4.543   9.101   7.002 -0.0580 -0.1442 -0.0577
    1AU     LIG  442   4.135   9.356   7.094  0.4060 -0.3291 -0.3505
    1AU     LIG  443   3.740   9.280   6.987  0.0613 -0.1345 -0.1717
    1AU     LIG  444   3.283   9.302   6.968 -0.1020 -0.1101 -0.1520
    1AU     LIG  445   2.877   9.094   6.691  0.0989 -0.1647 -0.2676
    1AU    AUSL  446   6.112   7.563   7.077 -0.0260  0.0014  0.0047
    1AU    AUSL  447   6.229   8.123   7.349  0.0291 -0.0445 -0.0005
    1AU     AUL  448   6.329   7.672   7.345 -0.0078  0.0504  0.0935
    1AU       S  449   6.393   7.341   7.004 -0.2850  0.4842 -0.3244
    1AU     LIG  450   6.542   7.039   6.723  0.0348 -0.3811 -0.2106
    1AU     LIG  451   6.685   6.643   6.594  0.1841  0.2852  0.3986
    1AU     LIG  452   6.882   6.312   6.629 -0.0883  0.1934 -0.1677
    1AU     LIG  453   7.247   5.982   6.881 -0.2843 -0.0798  0.2194
    1AU     LIG  454   7.685   6.081   7.054 -0.1824 -0.0044  0.0888
    1AU       S  455   6.402   8.040   7.654 -0.2192  0.4638 -0.0711
    1AU     LIG  456   6.780   8.141   7.591 -0.0213 -0.1153 -0.0490
    1AU     LIG  457   7.165   8.099   7.466 -0.0313  0.1179  0.3027
    1AU     LIG  458   7.688   8.079   7.420 -0.0897 -0.5037 -0.0290
    1AU     LIG  459   8.102   8.041   7.314 -0.0948  0.1796 -0.2191
    1AU     LIG  460   8.547   7.962   7.269  0.2260  0.1570  0.0208
    1AU    AUSL  461   6.218   7.850   6.754  0.0974  0.0021  0.0367
    1AU    AUSL  462   5.802   7.635   6.808 -0.0592  0.1002 -0.0152
    1AU     AUL  463   6.025   7.393   6.785 -0.0481  0.0109  0.0595
    1AU       S  464   6.502   7.558   6.746  0.3332 -0.0252 -0.0660
    1AU     LIG  465   6.831   7.306   6.395 -0.1022 -0.0111  0.2773
    1AU     LIG  466   7.267   7.295   6.482  0.0224 -0.3049 -0.1003
    1AU     LIG  467   7.590   7.117   6.368  0.1458 -0.2860  0.5606
    1AU     LIG  468   7.996   7.064   6.579 -0.3560  0.2542 -0.2815
    1AU     LIG  469   8.461   7.229   6.663  0.1014  0.1627 -0.1169
    1AU       S  470   6.031   7.073   6.436 -0.0263  0.0892 -0.0266
    1AU     LIG  471   6.207   6.671   6.356 -0.0940 -0.0077 -0.1540
    1AU     LIG  472   6.129   6.197   6.264 -0.3681 -0.2164  0.1299
    1AU     LIG  473   6.182   5.773   6.351  0.0195  0.0248  0.1638
    1AU     LIG  474   6.434   5.388   6.312  0.3355 -0.0009  0.1352
    1AU     LIG  475   6.446   4.965   6.377 -0.0870 -0.1577  0.6799
    1AU    AUSL  476   4.784   8.128   7.031  0.0791 -0.0961 -0.0009
    1AU    AUSL  477   4.880   8.114   6.374  0.1055  0.0446 -0.0753
    1AU     AUL  478   4.662   8.089   6.710 -0.1022 -0.0094  0.0235
    1AU       S  479   4.767   7.881   6.262  0.2086  0.1217  0.6057
    1AU     LIG  480   4.611   7.900   5.858  0.2485 -0.1825  0.0363
    1AU     LIG  481   4.552   7.849   5.336  0.2327 -0.1799 -0.1064
    1AU     LIG  482   4.870   7.766   5.052 -0.0630  0.1133  0.2002
    1AU     LIG  483   5.027   7.646   4.698 -0.0060  0.4468  0.0164
    1AU     LIG  484   5.425   7.766   4.521 -0.0582 -0.1772 -0.1152
    1AU       S  485   4.489   8.380   7.005 -0.3922  0.0908  0.1256
    1AU     LIG  486   4.211   8.057   6.819  0.2304  0.1351 -0.1633
    1AU     LIG  487   3.847   7.791   6.721 -0.1699 -0.1868 -0.1199
    1AU     LIG  488   3.437   7.677   6.981 -0.1179  0.0130  0.2298
    1AU     LIG  489   3.004   7.550   7.165 -0.2777  0.2304  0.0066
    1AU     LIG  490   2.895   7.163   7.249 -0.0592 -0.1108  0.1101
    1AU    AUSL  491   4.951   8.539   7.094  0.0686 -0.1046 -0.1050
    1AU    AUSL  492   5.128   8.092   7.264  0.0728  0.1001  0.0556
    1AU     AUL  493   4.774   8.254   7.360  0.0905  0.0448  0.0608
    1AU       S  494   4.607   8.631   7.158  0.1032  0.3025 -0.1425
    1AU     LIG  495   4.528   8.607   7.586 -0.1047  0.1420 -0.2571
    1AU     LIG  496   4.390   8.429   7.941 -0.2933 -0.3402  0.1559
    1AU     LIG  497   4.577   8.374   8.283  0.2567  0.0855  0.1634
    1AU     LIG  498   4.421   8.330   8.741 -0.2018  0.0931 -0.0750
    1AU     LIG  499   4.303   8.647   9.005  0.0693  0.3128 -0.1556
    1AU       S  500   4.933   7.957   7.671 -0.1558  0.2889  0.2378
    1AU     LIG  501   4.738   7.726   7.340  0.2288  0.1006 -0.2545
    1AU     LIG  502   4.500   7.708   7.017  0.2557 -0.0683  0.0315
    1AU     LIG  503   4.098   7.351   6.875  0.2746 -0.1008  0.1933
    1AU     LIG  504   3.725   7.359   6.629 -0.4107 -0.1135 -0.0490
    1AU     LIG  505   3.444   7.085   6.566  0.0487  0.0439 -0.1359
    2POPC   NC3  506   3.789   5.241   9.260  0.0752  0.2542 -0.0000
    2POPC   PO4  507   4.196   5.026   9.164 -0.0035 -0.0566 -0.3700
    2POPC   GL1  508   4.251   5.407   8.926  0.0520 -0.2441  0.0705
    2POPC   GL2  509   4.566   5.302   8.716  0.0230  0.1327 -0.0759
    2POPC   C1A  510   4.433   5.854   8.801 -0.2286  0.0670  0.1942
    2POPC   D2A  511   4.714   5.914   8.500 -0.0718  0.1790 -0.3753
    2POPC   C3A  512   5.134   5.821   8.569  0.1617  0.3056 -0.0332
    2POPC   C4A  513   5.519   5.976   8.374  0.3797 -0.1795  0.5623
    2POPC   C1B  514   4.404   5.526   8.370  0.0605 -0.0281 -0.1760
    2POPC   C2B  515   4.348   5.776   7.992  0.1095  0.1549  0.1555
    2POPC   C3B  516   4.701   5.980   7.841  0.0123  0.0642 -0.1934
    2POPC   C4B  517   4.851   6.253   7.548 -0.1008 -0.4423 -0.2066
    3POPC   NC3  518   1.724   9.607   8.572 -0.2085  0.2999 -0.3835
    3POPC   PO4  519   2.139   9.554   8.827  0.0958 -0.2286 -0.1072
    3POPC   GL1  520   2.280   9.404   8.382  0.2240 -0.0982  0.2310
    3POPC   GL2  521   2.121   9.382   8.164  0.2020  0.0348  0.1787
    3POPC   C1A  522   2.564   9.317   7.971  0.1426 -0.0295  0.2084
    3POPC   D2A  523   2.595   9.261   7.529  0.2721 -0.0725  0.1632
    3POPC   C3A  524   2.441   9.577   7.363  0.0560 -0.1035  0.0671
    3POPC   C4A  525   2.313   9.915   7.429  0.0031 -0.0713  0.1126
    3POPC   C1B  526   2.098   9.218   7.701  0.1865 -0.1254  0.2144
    3POPC   C2B  527   1.932   9.472   7.397 -0.0116  0.1666  0.0586
    3POPC   C3B  528   1.769   9.831   7.405  0.1538 -0.0829 -0.1921
    3POPC   C4B  529   1.513  10.128   7.290  0.3266 -0.1151 -0.1093
    4POPC   NC3  530   6.835   4.880   8.742 -0.0690 -0.3188 -0.1530
    4POPC   PO4  531   6.298   4.736   8.569  0.2363  0.2603  0.0799
    4POPC   GL1  532   6.084   4.702   8.134  0.0160 -0.1379 -0.2371
    4POPC   GL2  533   5.948   4.953   8.037 -0.2120  0.2036  0.0729
    4POPC   C1A  534   6.071   4.586   7.747 -0.0753  0.0631  0.0889
    4POPC   D2A  535   5.953   4.493   7.296 -0.3947  0.0163  0.2109
    4POPC   C3A  536   5.918   4.807   7.018  0.3726  0.2007  0.2133
    4POPC   C4A  537   6.061   4.913   6.686  0.1222  0.2934 -0.1928
    4POPC   C1B  538   6.351   5.012   7.712 -0.0681 -0.0034 -0.1487
    4POPC   C2B  539   6.424   5.293   7.340  0.1175 -0.2299  0.1051
    4POPC   C3B  540   6.572   5.473   7.131 -0.1711  0.0566  0.0751
    4POPC   C4B  541   6.943   5.538   6.946  0.3588 -0.3238 -0.0755
    5POPC   NC3  542  10.223   5.291   8.630  0.0752  0.2575  0.1564
    5POPC   PO4  543   9.712   5.259   8.606  0.0638  0.1306  0.1216
    5POPC   GL1  544   9.732   5.607   8.406 -0.3506  0.1164  0.0826
    5POPC   GL2  545  10.021   5.629   8.212  0.0229  0.2670 -0.3325
    5POPC   C1A  546   9.461   5.768   8.089  0.0128  0.0733 -0.0593
    5POPC   D2A  547   9.364   6.149   7.775 -0.0088 -0.2877  0.0200
    5POPC   C3A  548   9.597   6.149   7.403 -0.0356 -0.2050  0.1482
    5POPC   C4A  549   9.566   6.259   6.932  0.1815  0.3282  0.1814
    5POPC   C1B  550   9.736   5.527   7.791  0.0172  0.1131 -0.2334
    5POPC   C2B  551   9.691   5.604   7.369 -0.3298 -0.1859  0.1272
    5POPC   C3B  552   9.909   5.938   7.094  0.0093  0.0159  0.3839
    5POPC   C4B  553  10.227   6.136   6.754 -0.0800  0.0681 -0.2393
    6POPC   NC3  554   9.147   7.741   9.327 -0.1890  0.1265  0.0398
    6POPC   PO4  555   8.765   7.628   9.558 -0.0800 -0.2776  0.3104
    6POPC   GL1  556   8.653   7.570   9.151  0.0495  0.1324  0.0796
    6POPC   GL2  557   8.909   7.602   8.886  0.1218 -0.2197 -0.0559
    6POPC   C1A  558   8.500   7.892   8.810  0.0366  0.0987 -0.1866
    6POPC   D2A  559   8.431   7.865   8.350  0.0891  0.2109 -0.3126
    6POPC   C3A  560   8.130   7.873   7.985 -0.0335 -0.0448  0.1968
    6POPC   C4A  561   7.855   7.702   7.633 -0.2053 -0.1448  0.3600
    6POPC   C1B  562   9.130   7.430   8.550 -0.0903  0.0116 -0.3637
    6POPC   C2B  563   9.092   7.592   8.219 -0.2391 -0.0770 -0.0213
    6POPC   C3B  564   9.083   7.687   7.795  0.2983  0.2595  0.1915
    6POPC   C4B  565   9.100   7.590   7.375 -0.2046  0.1628 -0.0291
    7POPC   NC3  566   1.323   7.903   8.606  0.0551 -0.1091 -0.2525
    7POPC   PO4  567   1.712   7.621   8.595  0.2648 -0.0412 -0.1773
    7POPC   GL1  568   1.725   7.891   8.323  0.2294 -0.1377 -0.0311
    7POPC   GL2  569   1.633   7.743   8.013  0.2466 -0.2429 -0.2614
    7POPC   C1A  570   2.165   7.703   8.114 -0.0642 -0.2155  0.0650
    7POPC   D2A  571   2.322   7.342   8.137 -0.3809  0.1187  0.4671
    7POPC   C3A  572   2.366   7.351   7.689 -0.1548  0.0724 -0.2536
    7POPC   C4A  573   2.518   7.579   7.248 -0.1087 -0.1976 -0.1638
    7POPC   C1B  574   1.259   7.781   7.888 -0.1965  0.0618  0.0923
    7POPC   C2B  575   1.139   7.728   7.426  0.1531  0.3559 -0.0893
    7POPC   C3B  576   1.132   7.880   7.043 -0.0243 -0.0226 -0.0395
    7POPC   C4B  577   1.481   8.131   6.971  0.0775  0.2338  0.4026
    8POPC   NC3  578  10.009   9.422   9.064  0.2997 -0.6149  0.0899
    8POPC   PO4  579   9.769   9.796   8.931 -0.1948 -0.0108  0.1111
    8POPC   GL1  580   9.734   9.828   8.562 -0.1210 -0.1258  0.2438
    8POPC   GL2  581   9.954   9.978   8.444 -0.0770  0.1191 -0.0502
    8POPC   C1A  582   9.759   9.616   8.072  0.2217 -0.1136 -0.0105
    8POPC   D2A  583   9.927   9.300   7.736  0.3828  0.0521  0.3702
    8POPC   C3A  584   9.851   9.404   7.280  0.1161 -0.1972  0.0688
    8POPC   C4A  585   9.904   9.220   6.900  0.1293 -0.1141 -0.1610
    8POPC   C1B  586   9.918  10.471   8.313  0.1650 -0.0225  0.1094
    8POPC   C2B  587   9.583  10.613   8.020 -0.0706 -0.2201  0.2671
    8POPC   C3B  588   9.702  10.552   7.618  0.0426  0.0199 -0.1834
    8POPC   C4B  589   9.488  10.648   7.216 -0.0588 -0.1531 -0.1046
    9POPC   NC3  590   7.408   1.170   9.100  0.2704  0.2174  0.0671
    9POPC   PO4  591   7.711   0.993   8.946  0.1789  0.4958  0.0966
    9POPC   GL1  592   7.334   1.078   8.605 -0.2679  0.0028 -0.1184
    9POPC   GL2  593   7.513   1.157   8.391  0.0057 -0.3247  0.0708
    9POPC   C1A  594   6.996   1.300   8.274  0.0322 -0.1268  0.2519
    9POPC   D2A  595   6.817   1.227   7.917 -0.0083 -0.1224  0.0661
    9POPC   C3A  596   6.794   0.777   7.722  0.4130 -0.0153 -0.1724
    9POPC   C4A  597   7.068   0.495   7.597 -0.2535 -0.0451 -0.1385
    9POPC   C1B  598   7.688   1.149   8.041  0.0217 -0.2499 -0.0766
    9POPC   C2B  599   7.852   1.134   7.703 -0.1540 -0.1023 -0.1429
    9POPC   C3B  600   8.043   1.023   7.392  0.0796  0.3437 -0.2880
    9POPC   C4B  601   7.851   0.825   7.003  0.1407 -0.2058 -0.1626
   10POPC   NC3  602   1.906   5.154   8.767 -0.1594  0.1188 -0.1580
   10POPC   PO4  603   2.324   5.232   8.744 -0.0958 -0.1506  0.2172
   10POPC   GL1  604   2.233   5.091   8.362 -0.0297  0.0942 -0.0198
   10POPC   GL2  605   1.875   5.122   8.304  0.0341  0.0179 -0.1764
   10POPC   C1A  606   2.212   4.854   7.947  0.0284 -0.0352  0.0662
   10POPC   D2A  607   1.906   4.858   7.553  0.1593  0.2721 -0.0818
   10POPC   C3A  608   1.856   4.544   7.257  0.5303 -0.0710  0.0202
   10POPC   C4A  609   2.042   4.172   7.302  0.1067 -0.1693  0.2211
   10POPC   C1B  610   1.669   5.307   7.931  0.0988  0.1644  0.3689
   10POPC   C2B  611   1.726   5.346   7.476  0.1174 -0.0189 -0.0283
   10POPC   C3B  612   1.689   5.482   7.092 -0.0353  0.1580  0.1749
   10POPC   C4B  613   1.612   5.497   6.650 -0.3537 -0.0543  0.0555
   11POPC   NC3  614   5.368   7.448  10.142  0.2923  0.1748  0.1325
   11POPC   PO4  615   5.623   7.073   9.991 -0.0710  0.1286 -0.0273
   11POPC   GL1  616   5.592   7.301   9.644 -0.0442  0.3926  0.1010
   11POPC   GL2  617   5.710   7.025   9.433 -0.1093  0.0088  0.0641
   11POPC   C1A  618   5.618   7.696   9.430  0.0871  0.3194 -0.3380
   11POPC   D2A  619   5.645   7.946   9.129  0.2622 -0.0390  0.0465
   11POPC   C3A  620   5.889   7.929   8.855  0.0730 -0.0441  0.2386
   11POPC   C4A  621   5.988   7.868   8.428  0.1806  0.0080 -0.0856
   11POPC   C1B  622   5.745   7.124   9.023 -0.0961  0.0857 -0.0448
   11POPC   C2B  623   5.568   7.516   8.791 -0.1440  0.1616  0.1093
   11POPC   C3B  624   5.094   7.624   8.599 -0.1967 -0.0197 -0.0616
   11POPC   C4B  625   4.942   7.905   8.267  0.0038 -0.0194 -0.0454
   12POPC   NC3  626   8.608   6.448   9.601  0.1260  0.4556 -0.2759
   12POPC   PO4  627   8.231   6.323   9.349  0.2088 -0.1111  0.0129
   12POPC   GL1  628   8.266   6.536   8.979 -0.0933  0.0860  0.1381
   12POPC   GL2  629   8.550   6.581   8.877  0.0690 -0.0857 -0.0863
   12POPC   C1A  630   8.145   6.584   8.561  0.2756 -0.2297 -0.2023
   12POPC   D2A  631   7.984   6.261   8.215 -0.0205  0.1666 -0.0793
   12POPC   C3A  632   7.669   6.416   7.801 -0.1624 -0.2706 -0.1794
   12POPC   C4A  633   7.275   6.537   7.868 -0.1215 -0.4915  0.1930
   12POPC   C1B  634   8.805   6.631   8.518  0.1125  0.1286  0.1984
   12POPC   C2B  635   9.115   6.651   8.179  0.1233 -0.0933 -0.0976
   12POPC   C3B  636   9.262   6.890   7.870  0.1857 -0.1716  0.0165
   12POPC   C4B  637   9.053   7.166   7.749  0.1196 -0.3034 -0.0503
   13POPC   NC3  638   4.116   1.069   8.921  0.1921 -0.0162  0.2108
   13POPC   PO4  639   4.426   0.860   9.187 -0.0439 -0.2565  0.4387
   13POPC   GL1  640   4.681   0.987   8.769 -0.1803 -0.1411 -0.1017
   13POPC   GL2  641   4.500   1.196   8.620  0.3765 -0.1304  0.2981
   13POPC   C1A  642   4.852   0.871   8.357 -0.0073 -0.1024 -0.0875
   13POPC   D2A  643   4.899   0.464   8.060 -0.1012  0.0418 -0.3153
   13POPC   C3A  644   4.773   0.513   7.711  0.1890  0.0054  0.0629
   13POPC   C4A  645   4.910   0.645   7.261  0.1886  0.1764  0.1227
   13POPC   C1B  646   4.377   0.837   8.361  0.3057  0.0759 -0.2006
   13POPC   C2B  647   4.482   0.738   8.016 -0.0005 -0.0875 -0.2560
   13POPC   C3B  648   4.463   0.879   7.529  0.2670  0.1776 -0.0303
   13POPC   C4B  649   4.151   1.146   7.304 -0.0237 -0.0551 -0.0887
   14POPC   NC3  650   1.469   3.549   9.301 -0.1227  0.4676  0.0282
   14POPC   PO4  651   1.157   3.220   9.141  0.4557  0.0675 -0.4056
   14POPC   GL1  652   1.055   2.968   8.728 -0.2059  0.2109  0.2809
   14POPC   GL2  653   0.761   2.831   8.672  0.1785 -0.2535  0.1758
   14POPC   C1A  654   1.063   2.893   8.296  0.1395 -0.0684 -0.1631
   14POPC   D2A  655   0.928   2.732   7.880 -0.1010  0.3142 -0.3465
   14POPC   C3A  656   1.069   2.671   7.501 -0.3162  0.2068 -0.0134
   14POPC   C4A  657   1.332   2.572   7.156  0.0983  0.1317  0.1383
   14POPC   C1B  658   0.787   2.480   8.429  0.1638 -0.0660 -0.1418
   14POPC   C2B  659   1.045   2.245   8.183 -0.0990 -0.0041  0.0907
   14POPC   C3B  660   1.226   2.299   7.744 -0.2654  0.2375  0.1412
   14POPC   C4B  661   1.493   2.201   7.481  0.0501 -0.1476  0.0169
   15POPC   NC3  662   6.267   4.298   8.855 -0.2031  0.4812 -0.1604
   15POPC   PO4  663   5.926   4.212   8.515 -0.0853  0.1418 -0.2270
   15POPC   GL1  664   5.919   4.157   8.067  0.0934 -0.2843 -0.1547
   15POPC   GL2  665   5.720   4.306   7.858 -0.0754 -0.1044  0.5111
   15POPC   C1A  666   5.986   3.984   7.558 -0.2789  0.0272  0.1273
   15POPC   D2A  667   5.960   3.871   7.170 -0.0420 -0.0129  0.2060
   15POPC   C3A  668   6.279   3.625   7.013  0.1713  0.1676  0.3012
   15POPC   C4A  669   6.537   3.437   6.666  0.2058 -0.1866 -0.1605
   15POPC   C1B  670   5.585   4.593   7.675  0.1560 -0.0525  0.0940
   15POPC   C2B  671   5.743   4.945   7.523  0.4772  0.3534 -0.1358
   15POPC   C3B  672   5.924   5.233   7.236 -0.1584 -0.1609 -0.1493
   15POPC   C4B  673   6.178   5.454   6.829 -0.0492  0.2722 -0.1667
   16POPC   NC3  674   3.895   2.116   9.048  0.0300  0.1818 -0.1923
   16POPC   PO4  675   4.067   1.951   8.606  0.3942 -0.1264 -0.2562
   16POPC   GL1  676   4.142   1.755   8.238  0.0880  0.0321 -0.1880
   16POPC   GL2  677   3.994   2.045   8.062  0.1090  0.0210  0.2683
   16POPC   C1A  678   4.269   1.309   8.200  0.1006 -0.0724  0.0558
   16POPC   D2A  679   3.991   0.957   8.068 -0.0709 -0.0812 -0.1348
   16POPC   C3A  680   3.823   0.957   7.636 -0.0888  0.1503 -0.0171
   16POPC   C4A  681   3.716   0.895   7.284  0.0165  0.2315  0.2377
   16POPC   C1B  682   4.195   1.869   7.555  0.1829 -0.0402 -0.0654
   16POPC   C2B  683   4.307   1.771   7.144  0.0025 -0.1544 -0.2502
   16POPC   C3B  684   4.345   1.594   6.777  0.1460 -0.2097  0.2085
   16POPC   C4B  685   4.511   1.525   6.377 -0.0272 -0.2189 -0.1958
   17POPC   NC3  686   8.243   9.243   9.467  0.0524  0.1018 -0.0155
   17POPC   PO4  687   8.175   8.798   9.635  0.2660 -0.0454 -0.1728
   17POPC   GL1  688   8.253   8.675   9.233 -0.2965 -0.2287  0.0863
   17POPC   GL2  689   8.550   8.463   9.171  0.3393 -0.1767 -0.4299
   17POPC   C1A  690   8.171   8.318   8.947  0.1308  0.1377 -0.0123
   17POPC   D2A  691   8.133   8.284   8.556 -0.1519 -0.1536  0.3358
   17POPC   C3A  692   8.224   8.338   8.220 -0.0935  0.0089  0.3741
   17POPC   C4A  693   8.371   8.741   8.069  0.0635  0.0502 -0.0874
   17POPC   C1B  694   8.627   8.364   8.736 -0.0247  0.2101 -0.0830
   17POPC   C2B  695   8.715   8.488   8.294 -0.2594 -0.1326 -0.2627
   17POPC   C3B  696   8.833   8.516   7.789  0.2160 -0.2979  0.0306
   17POPC   C4B  697   8.957   8.116   7.565  0.2160  0.4163  0.0162
   18POPC   NC3  698   4.027   3.755   8.617 -0.2980  0.1082 -0.2106
   18POPC   PO4  699   3.962   3.301   8.641  0.2003 -0.2589 -0.0031
   18POPC   GL1  700   3.680   3.249   8.340  0.1479 -0.1617 -0.2055
   18POPC   GL2  701   3.622   3.625   8.350  0.0676  0.1690 -0.3330
   18POPC   C1A  702   3.542   3.246   7.959  0.2873 -0.0367 -0.1860
   18POPC   D2A  703   3.608   3.404   7.578  0.0476 -0.0439  0.1467
   18POPC   C3A  704   3.448   3.081   7.194 -0.2432  0.1761 -0.1211
   18POPC   C4A  705   3.219   2.815   6.985 -0.1298  0.1378  0.0216
   18POPC   C1B  706   3.905   3.619   7.944 -0.0075 -0.2310  0.1276
   18POPC   C2B  707   3.942   3.837   7.547  0.0740 -0.0732 -0.3006
   18POPC   C3B  708   4.053   4.207   7.408  0.0111  0.1312 -0.1450
   18POPC   C4B  709   4.270   4.285   7.063  0.3413 -0.0220  0.0400
   19POPC   NC3  710   4.473   8.896   9.658  0.0403 -0.2141  0.0931
   19POPC   PO4  711   4.663   8.530   9.766  0.1214  0.0191 -0.2195
   19POPC   GL1  712   4.922   8.924   9.808 -0.4015  0.0870  0.1378
   19POPC   GL2  713   5.293   8.799   9.813  0.4014  0.1364 -0.1093
   19POPC   C1A  714   5.083   9.276   9.479  0.2616  0.4038 -0.1671
   19POPC   D2A  715   4.908   9.595   9.274 -0.0643 -0.1332 -0.3859
   19POPC   C3A  716   5.175   9.798   9.119  0.1227 -0.2007 -0.0513
   19POPC   C4A  717   5.403   9.989   8.910 -0.0436  0.3720  0.0662
   19POPC   C1B  718   5.542   9.100   9.552  0.0086  0.1869 -0.2787
   19POPC   C2B  719   5.447   9.388   9.204  0.0146 -0.1419  0.1457
   19POPC   C3B  720   5.607   9.566   8.803 -0.0153 -0.0956 -0.0553
   19POPC   C4B  721   5.696   9.877   8.480 -0.0523 -0.0471 -0.2296
   20POPC   NC3  722   5.838   5.610   9.319  0.0726 -0.1642  0.0741
   20POPC   PO4  723   6.028   5.374   8.848 -0.1373  0.0170  0.0187
   20POPC   GL1  724   5.956   5.517   8.480  0.0275 -0.0872 -0.1450
   20POPC   GL2  725   5.749   5.364   8.204  0.1298 -0.4712 -0.0153
   20POPC   C1A  726   6.006   5.927   8.129  0.0636 -0.0149 -0.1936
   20POPC   D2A  727   5.822   6.222   7.978 -0.1697  0.0167 -0.1139
   20POPC   C3A  728   5.910   6.629   7.877 -0.1252  0.0861  0.0122
   20POPC   C4A  729   6.074   6.935   8.069 -0.2523  0.1831 -0.2243
   20POPC   C1B  730   5.721   5.336   7.771 -0.4113  0.0564 -0.2056
   20POPC   C2B  731   5.588   5.518   7.438  0.4522 -0.1052  0.0404
   20POPC   C3B  732   5.717   5.789   7.099  0.0832  0.2372  0.1802
   20POPC   C4B  733   5.838   5.757   6.659 -0.3108 -0.0709 -0.1905
   21POPC   NC3  734   2.254   6.491   8.726 -0.0797 -0.3326 -0.3849
   21POPC   PO4  735   2.343   6.153   8.979  0.1375  0.1545  0.0425
   21POPC   GL1  736   2.074   6.094   8.523  0.0771 -0.0114  0.2363
   21POPC   GL2  737   1.748   6.107   8.630  0.3270  0.3090  0.2013
   21POPC   C1A  738   2.052   6.352   8.145  0.1121  0.1553 -0.1083
   21POPC   D2A  739   2.149   6.383   7.705  0.0417 -0.0066  0.2628
   21POPC   C3A  740   1.952   6.585   7.480 -0.2685 -0.1833  0.0672
   21POPC   C4A  741   1.759   6.477   7.041  0.1028 -0.0541  0.1497
   21POPC   C1B  742   1.552   6.163   8.283  0.0854 -0.3848 -0.2729
   21POPC   C2B  743   1.618   6.299   7.809  0.0776 -0.0090 -0.0890
   21POPC   C3B  744   1.433   6.403   7.493  0.1497  0.0854 -0.0224
   21POPC   C4B  745   1.389   6.831   7.306  0.0008  0.0532 -0.0214
   22POPC   NC3  746   0.801   2.764   9.131  0.0239 -0.2551  0.2563
   22POPC   PO4  747   0.485   2.429   9.009  0.0879 -0.2651  0.0343
   22POPC   GL1  748   0.294   2.462   8.529 -0.0680  0.1179 -0.0041
   22POPC   GL2  749   0.041   2.334   8.365 -0.1411  0.3764  0.0035
   22POPC   C1A  750   0.409   2.679   8.046 -0.1355  0.0530  0.1011
   22POPC   D2A  751   0.513   3.068   7.870  0.1416  0.1311 -0.0391
   22POPC   C3A  752   0.649   3.451   8.180  0.2127  0.0511  0.1933
   22POPC   C4A  753   0.838   3.721   8.035  0.0224 -0.0377  0.1146
   22POPC   C1B  754   0.383   2.110   8.192  0.1143  0.0709 -0.0795
   22POPC   C2B  755   0.710   2.334   7.849 -0.1304  0.1069  0.0397
   22POPC   C3B  756   0.725   2.141   7.496 -0.0183 -0.0877 -0.1014
   22POPC   C4B  757   0.489   2.146   7.126  0.0683  0.4618  0.3838
   23POPC   NC3  758   3.052   0.049   9.168 -0.0774  0.1642 -0.0780
   23POPC   PO4  759   2.814  -0.372   8.893  0.0231 -0.1498 -0.2994
   23POPC   GL1  760   2.969  -0.342   8.521  0.1769  0.0539  0.0578
   23POPC   GL2  761   3.214  -0.439   8.560  0.0555  0.1065 -0.1721
   23POPC   C1A  762   2.951  -0.166   8.130 -0.1994  0.1601 -0.1232
   23POPC   D2A  763   2.886  -0.270   7.726 -0.2332  0.1885 -0.1896
   23POPC   C3A  764   3.050  -0.042   7.414  0.2811 -0.0484  0.1728
   23POPC   C4A  765   3.134   0.170   7.027  0.4390 -0.3986 -0.1049
   23POPC   C1B  766   3.451  -0.286   8.151 -0.0606  0.0092  0.1077
   23POPC   C2B  767   3.415  -0.068   7.707  0.2115  0.1249  0.2794
   23POPC   C3B  768   3.588   0.073   7.343  0.0560  0.0234 -0.2894
   23POPC   C4B  769   3.578  -0.115   6.909 -0.2522 -0.2160  0.0144
   24POPC   NC3  770  10.190  10.053   8.939 -0.0380  0.4281  0.3123
   24POPC   PO4  771  10.543  10.150   9.260  0.1156  0.2937  0.3851
   24POPC   GL1  772  10.673  10.128   8.816  0.2144  0.0505  0.0987
   24POPC   GL2  773  10.949   9.845   8.830  0.2608 -0.1583  0.0845
   24POPC   C1A  774  10.514  10.076   8.408 -0.0756 -0.0414  0.2810
   24POPC   D2A  775  10.258  10.073   7.982 -0.3267 -0.0741  0.0748
   24POPC   C3A  776   9.806  10.102   8.009 -0.0626  0.0700  0.3827
   24POPC   C4A  777   9.555   9.779   7.644 -0.0524  0.0672  0.2700
   24POPC   C1B  778  10.909   9.794   8.356  0.1466 -0.0067 -0.3114
   24POPC   C2B  779  10.876   9.720   7.849  0.0792 -0.2514 -0.0811
   24POPC   C3B  780  11.181   9.872   7.457  0.1812 -0.0046 -0.1065
   24POPC   C4B  781  11.219   9.801   7.043  0.0405 -0.0804 -0.0904
   25POPC   NC3  782   8.482  10.136   9.050 -0.2797 -0.1105  0.2331
   25POPC   PO4  783   8.856   9.903   8.885  0.1434 -0.0525  0.2885
   25POPC   GL1  784   8.601  10.078   8.597 -0.0651 -0.1917  0.1905
   25POPC   GL2  785   8.455  10.325   8.456  0.0545 -0.0331 -0.2156
   25POPC   C1A  786   8.461   9.923   8.176  0.1067 -0.0269 -0.3138
   25POPC   D2A  787   8.232   9.932   7.850 -0.0106 -0.2829 -0.1799
   25POPC   C3A  788   8.256   9.894   7.471  0.3188 -0.0172 -0.2470
   25POPC   C4A  789   8.208  10.046   6.987  0.1320 -0.3460  0.0597
   25POPC   C1B  790   8.314  10.381   8.036 -0.0045 -0.1086  0.0599
   25POPC   C2B  791   8.194  10.409   7.634 -0.0532 -0.3421 -0.0597
   25POPC   C3B  792   8.095  10.545   7.212  0.1961  0.0180 -0.0946
   25POPC   C4B  793   7.895  10.699   6.954  0.0804 -0.2731 -0.0431
   26POPC   NC3  794   7.881   4.303   8.683 -0.1218  0.0006 -0.1433
   26POPC   PO4  795   7.615   4.696   8.498  0.2607  0.0585 -0.0878
   26POPC   GL1  796   7.932   4.719   8.286 -0.1188  0.1683 -0.1150
   26POPC   GL2  797   7.954   4.416   8.183 -0.3066 -0.0234  0.3147
   26POPC   C1A  798   7.900   4.876   7.865  0.0073 -0.1084 -0.0873
   26POPC   D2A  799   7.917   5.035   7.355  0.3076  0.1468 -0.2178
   26POPC   C3A  800   8.085   5.432   7.185 -0.2590 -0.1797  0.0593
   26POPC   C4A  801   7.912   5.653   6.813 -0.1030  0.0447  0.3253
   26POPC   C1B  802   7.564   4.432   7.907  0.1452  0.1840 -0.1944
   26POPC   C2B  803   7.327   4.260   7.607  0.0863 -0.0386  0.1801
   26POPC   C3B  804   7.284   3.816   7.396 -0.0747 -0.0621  0.0015
   26POPC   C4B  805   7.479   3.670   7.070 -0.2431 -0.1268  0.1045
   27POPC   NC3  806   0.516   4.896   8.834  0.1476  0.0818 -0.0689
   27POPC   PO4  807   0.168   5.142   8.730  0.2971 -0.0917  0.1328
   27POPC   GL1  808   0.015   4.960   8.389 -0.1019  0.0413  0.0746
   27POPC   GL2  809  -0.005   5.318   8.233 -0.0145  0.1289  0.0291
   27POPC   C1A  810  -0.101   4.804   7.969  0.5139 -0.0511  0.0323
   27POPC   D2A  811  -0.291   4.683   7.607  0.0567  0.2422  0.3044
   27POPC   C3A  812   0.047   4.735   7.292  0.0341  0.0018  0.2279
   27POPC   C4A  813   0.430   4.599   7.131 -0.1166 -0.0097  0.1850
   27POPC   C1B  814  -0.216   5.381   7.882 -0.0596 -0.0488  0.1530
   27POPC   C2B  815  -0.258   5.219   7.463  0.0359 -0.0832 -0.0674
   27POPC   C3B  816  -0.106   5.211   7.087 -0.2663 -0.1884  0.2234
   27POPC   C4B  817   0.214   5.455   6.864  0.3151  0.0957 -0.2069
   28POPC   NC3  818   2.853   2.546   8.731 -0.0231  0.1563  0.4837
   28POPC   PO4  819   2.521   2.485   8.940  0.0275  0.0240  0.2799
   28POPC   GL1  820   2.361   2.305   8.443  0.0827  0.1256 -0.3338
   28POPC   GL2  821   2.422   2.044   8.309 -0.1640  0.2175 -0.1611
   28POPC   C1A  822   2.374   2.501   8.005  0.2164  0.5539  0.1674
   28POPC   D2A  823   2.376   2.950   7.874 -0.0011 -0.0934  0.1699
   28POPC   C3A  824   2.702   3.246   7.785  0.0403  0.1808 -0.2892
   28POPC   C4A  825   3.022   3.473   8.049  0.3408  0.2819  0.2136
   28POPC   C1B  826   2.272   1.933   7.871 -0.0680 -0.3602 -0.1030
   28POPC   C2B  827   2.162   1.859   7.482  0.1642 -0.1463  0.0595
   28POPC   C3B  828   2.374   1.840   7.178  0.0812 -0.1891 -0.0718
   28POPC   C4B  829   2.794   1.843   6.998  0.1904  0.1309  0.0564
   29POPC   NC3  830   8.299   7.855   9.774 -0.1303 -0.1784  0.0634
   29POPC   PO4  831   7.874   7.627   9.746 -0.0707  0.1090 -0.3757
   29POPC   GL1  832   7.785   7.811   9.395  0.0770  0.1541 -0.2784
   29POPC   GL2  833   7.460   7.979   9.408  0.1489  0.0627  0.0704
   29POPC   C1A  834   7.874   7.949   9.052  0.2131 -0.0049 -0.0013
   29POPC   D2A  835   8.006   7.735   8.661 -0.2055 -0.0146  0.0273
   29POPC   C3A  836   7.875   7.296   8.629  0.1121 -0.1872  0.1585
   29POPC   C4A  837   7.851   6.902   8.768  0.4429 -0.0450 -0.2377
   29POPC   C1B  838   7.384   8.199   9.004  0.3035 -0.0807  0.0215
   29POPC   C2B  839   7.543   8.147   8.687 -0.1481 -0.3744 -0.1035
   29POPC   C3B  840   7.575   8.098   8.256  0.0104  0.1086 -0.0127
   29POPC   C4B  841   7.467   7.913   7.893 -0.1055  0.0277 -0.0371
   30POPC   NC3  842   3.775   4.369   8.721  0.1913 -0.0034 -0.2130
   30POPC   PO4  843   3.410   4.048   8.728  0.1153 -0.2039 -0.1172
   30POPC   GL1  844   3.532   4.152   8.304 -0.2956  0.1244 -0.3553
   30POPC   GL2  845   3.462   4.397   8.255 -0.3342 -0.2053 -0.1210
   30POPC   C1A  846   3.512   3.911   7.948  0.2051 -0.1942  0.0479
   30POPC   D2A  847   3.200   3.762   7.627 -0.0844 -0.0941  0.1471
   30POPC   C3A  848   3.138   3.339   7.583 -0.4808  0.0798 -0.2599
   30POPC   C4A  849   2.980   2.952   7.442  0.0706  0.1420 -0.0569
   30POPC   C1B  850   3.373   4.433   7.796 -0.1311  0.0893  0.0916
   30POPC   C2B  851   3.370   4.268   7.363 -0.1056 -0.0382  0.1236
   30POPC   C3B  852   3.365   3.731   7.195 -0.1068  0.1169  0.1034
   30POPC   C4B  853   3.051   3.304   7.049  0.1573  0.1042  0.4465
   31POPC   NC3  854   4.856   9.861   9.920  0.1431 -0.0315 -0.0690
   31POPC   PO4  855   4.623  10.257   9.967 -0.1158 -0.1708  0.0321
   31POPC   GL1  856   4.390   9.996   9.769 -0.0684 -0.2810  0.3392
   31POPC   GL2  857   4.261  10.076   9.487  0.1921 -0.0265 -0.0338
   31POPC   C1A  858   4.336   9.599   9.446 -0.0968  0.2520  0.2408
   31POPC   D2A  859   4.554   9.193   9.182 -0.2328 -0.3987  0.2034
   31POPC   C3A  860   4.505   9.061   8.830  0.0267  0.0011  0.1070
   31POPC   C4A  861   4.455   9.261   8.465 -0.1383 -0.0614  0.1098
   31POPC   C1B  862   4.566  10.017   9.226  0.0464 -0.0489  0.0195
   31POPC   C2B  863   4.695  10.074   8.819 -0.1203  0.1319  0.3324
   31POPC   C3B  864   4.662  10.307   8.573  0.1497  0.1431 -0.3233
   31POPC   C4B  865   4.706  10.221   8.227  0.1845  0.0032 -0.1814
   32POPC   NC3  866   1.059   8.763   9.009  0.1555  0.0889 -0.0586
   32POPC   PO4  867   1.316   8.549   9.122  0.0810 -0.0711 -0.2312
   32POPC   GL1  868   1.459   8.743   8.672  0.3794  0.3256 -0.3016
   32POPC   GL2  869   1.334   8.951   8.465 -0.1527 -0.2569 -0.1934
   32POPC   C1A  870   1.387   8.647   8.104  0.0663  0.1066 -0.0116
   32POPC   D2A  871   1.658   8.583   7.613  0.1306  0.2914  0.1144
   32POPC   C3A  872   1.856   8.196   7.410 -0.1593  0.0648  0.1380
   32POPC   C4A  873   1.988   7.957   7.089  0.0246  0.1219  0.3051
   32POPC   C1B  874   1.593   9.174   8.105  0.1157 -0.1907 -0.2635
   32POPC   C2B  875   1.648   9.072   7.687 -0.0865  0.1704 -0.1653
   32POPC   C3B  876   1.771   8.944   7.242 -0.1825 -0.2092  0.0788
   32POPC   C4B  877   1.654   8.641   7.115  0.1550  0.0185  0.0204
   33POPC   NC3  878   4.761   6.681   9.827 -0.2527 -0.0456 -0.1561
   33POPC   PO4  879   4.559   6.354   9.447  0.1592  0.1461  0.1986
   33POPC   GL1  880   4.362   6.396   9.071 -0.3562  0.1671  0.2452
   33POPC   GL2  881   4.249   6.643   9.020  0.1350  0.0788  0.2575
   33POPC   C1A  882   4.521   6.372   8.712  0.3666  0.1722 -0.0165
   33POPC   D2A  883   4.403   6.647   8.491 -0.1036 -0.1789  0.0533
   33POPC   C3A  884   4.593   6.748   8.163 -0.3560 -0.0151  0.1299
   33POPC   C4A  885   4.844   6.652   7.858 -0.1254  0.2192 -0.0893
   33POPC   C1B  886   4.036   6.894   8.720  0.0474  0.2180  0.0420
   33POPC   C2B  887   4.112   7.033   8.269 -0.0353  0.0681  0.1403
   33POPC   C3B  888   4.389   7.154   7.986 -0.1065 -0.0216 -0.0224
   33POPC   C4B  889   4.523   7.323   7.671  0.0835 -0.0845  0.2728
   34POPC   NC3  890   0.838   9.612   8.848 -0.0175 -0.1139 -0.2824
   34POPC   PO4  891   0.792   9.251   9.009 -0.1339 -0.1298 -0.3863
   34POPC   GL1  892   0.845   9.117   8.591 -0.0693 -0.1991  0.2028
   34POPC   GL2  893   0.886   8.817   8.553  0.1076  0.1056 -0.1171
   34POPC   C1A  894   0.559   9.162   8.236  0.5143  0.0585 -0.2857
   34POPC   D2A  895   0.238   9.254   8.072 -0.1006 -0.1556  0.0119
   34POPC   C3A  896  -0.082   9.081   8.203 -0.0365 -0.0591  0.1527
   34POPC   C4A  897  -0.440   8.672   8.375 -0.0360  0.1218 -0.2615
   34POPC   C1B  898   0.901   8.724   8.065 -0.1324 -0.2955  0.1587
   34POPC   C2B  899   1.129   8.770   7.666  0.0546 -0.0590  0.3317
   34POPC   C3B  900   1.269   8.912   7.265  0.1113 -0.2270 -0.0396
   34POPC   C4B  901   1.357   8.977   6.889  0.0115 -0.1937  0.2751
   35POPC   NC3  902   6.563   7.840   9.910 -0.3269 -0.1532 -0.2095
   35POPC   PO4  903   6.309   7.597  10.129  0.0960  0.0610 -0.1571
   35POPC   GL1  904   6.268   7.487   9.742  0.1489 -0.1570  0.3160
   35POPC   GL2  905   6.072   7.671   9.443  0.1183 -0.0939  0.0669
   35POPC   C1A  906   6.429   7.350   9.333 -0.0163 -0.2226  0.0997
   35POPC   D2A  907   6.636   7.251   8.947 -0.2053  0.1119  0.0552
   35POPC   C3A  908   6.432   7.262   8.511 -0.1599  0.0559  0.1315
   35POPC   C4A  909   6.551   7.216   8.142  0.4677 -0.1044 -0.0850
   35POPC   C1B  910   6.162   7.536   8.944  0.2677  0.2080 -0.1571
   35POPC   C2B  911   5.971   7.320   8.577 -0.1166  0.1099  0.2311
   35POPC   C3B  912   6.092   7.421   8.204 -0.1895 -0.3294  0.1701
   35POPC   C4B  913   6.028   7.295   7.738  0.5211  0.0724 -0.1205
   36POPC   NC3  914   2.234   0.797   9.095  0.1181  0.1529 -0.1065
   36POPC   PO4  915   1.884   0.936   8.826 -0.3975  0.0290  0.1800
   36POPC   GL1  916   1.881   0.748   8.436  0.0366 -0.1749  0.1558
   36POPC   GL2  917   2.088   0.499   8.260 -0.1648 -0.2213 -0.3678
   36POPC   C1A  918   1.644   0.906   8.053  0.1399 -0.1721 -0.1954
   36POPC   D2A  919   1.536   1.283   7.802  0.2410 -0.0863 -0.0036
   36POPC   C3A  920   1.406   1.248   7.378  0.2490 -0.0371 -0.3326
   36POPC   C4A  921   1.250   1.046   6.938  0.0225  0.0945 -0.1189
   36POPC   C1B  922   1.937   0.496   7.799  0.0279 -0.1106  0.5032
   36POPC   C2B  923   2.022   0.422   7.383  0.2038  0.3051 -0.2736
   36POPC   C3B  924   1.779   0.176   7.045 -0.1525  0.0405  0.0017
   36POPC   C4B  925   1.656  -0.141   6.759  0.0397 -0.0852 -0.0831
   37POPC   NC3  926   9.697   4.252   8.591  0.2406  0.1574  0.0669
   37POPC   PO4  927   9.698   3.834   8.673  0.1326 -0.0140  0.1271
   37POPC   GL1  928   9.744   3.841   8.199  0.0918  0.0139 -0.3801
   37POPC   GL2  929   9.468   3.884   8.079  0.0473 -0.0887 -0.0294
   37POPC   C1A  930   9.903   3.783   7.813 -0.1603 -0.1035 -0.0037
   37POPC   D2A  931   9.740   3.549   7.539 -0.3277  0.0638  0.0444
   37POPC   C3A  932   9.741   3.200   7.405 -0.0213  0.0153 -0.3332
   37POPC   C4A  933   9.728   2.815   7.203  0.2077 -0.0041  0.0423
   37POPC   C1B  934   9.550   4.108   7.594 -0.1029  0.2700  0.1340
   37POPC   C2B  935   9.623   4.033   7.167 -0.1409  0.3376 -0.0154
   37POPC   C3B  936   9.821   4.232   6.812  0.1118  0.1639  0.2363
   37POPC   C4B  937  10.158   4.218   6.684  0.0897 -0.0393 -0.0435
   38POPC   NC3  938   2.400   4.782   9.083  0.0363 -0.1342  0.0435
   38POPC   PO4  939   2.489   4.376   8.903 -0.1012 -0.0386 -0.0241
   38POPC   GL1  940   2.620   4.628   8.537 -0.4848 -0.0210  0.1091
   38POPC   GL2  941   2.577   4.681   8.214 -0.0374 -0.3472 -0.1712
   38POPC   C1A  942   3.000   4.880   8.243  0.0713 -0.0722 -0.4373
   38POPC   D2A  943   3.225   5.003   7.777  0.3567 -0.0266  0.3474
   38POPC   C3A  944   3.064   5.203   7.451  0.0356  0.1634  0.0494
   38POPC   C4A  945   2.946   5.527   7.158 -0.0904 -0.2525  0.1784
   38POPC   C1B  946   2.821   4.586   7.821 -0.2200 -0.1421  0.2204
   38POPC   C2B  947   2.961   4.731   7.408 -0.1032  0.0709 -0.1505
   38POPC   C3B  948   2.769   4.544   7.001  0.1819 -0.3552  0.1019
   38POPC   C4B  949   2.590   4.535   6.615  0.0698 -0.1358 -0.1523
   39POPC   NC3  950   6.146   3.823   8.687  0.1317 -0.0665  0.0019
   39POPC   PO4  951   6.484   3.720   8.570  0.0789 -0.1055  0.2834
   39POPC   GL1  952   6.383   3.954   8.145  0.0376  0.0108  0.2601
   39POPC   GL2  953   6.272   3.716   7.962  0.0967  0.2211 -0.0984
   39POPC   C1A  954   6.487   4.408   7.977  0.0204  0.2809 -0.0063
   39POPC   D2A  955   6.553   4.607   7.556  0.0433 -0.1089 -0.0071
   39POPC   C3A  956   6.333   4.823   7.275 -0.2400  0.1106  0.3325
   39POPC   C4A  957   6.504   4.974   6.913  0.1008 -0.0172  0.0742
   39POPC   C1B  958   6.454   3.814   7.494  0.1109  0.2221  0.4139
   39POPC   C2B  959   6.379   4.148   7.262 -0.1217 -0.3236  0.1560
   39POPC   C3B  960   6.562   4.448   7.049 -0.2553 -0.3178  0.0523
   39POPC   C4B  961   6.388   4.538   6.678  0.4641 -0.3017  0.2013
   40POPC   NC3  962   5.014   5.178   8.737 -0.3010 -0.2136  0.1137
   40POPC   PO4  963   4.865   4.838   8.771  0.1569  0.1008  0.2274
   40POPC   GL1  964   4.679   4.839   8.446 -0.1094  0.1745  0.2592
   40POPC   GL2  965   4.804   5.107   8.278 -0.0472 -0.1444  0.0020
   40POPC   C1A  966   4.315   4.956   8.219 -0.1176 -0.0174 -0.0916
   40POPC   D2A  967   4.315   5.198   7.906  0.2825 -0.4181 -0.0890
   40POPC   C3A  968   4.544   5.529   7.610 -0.0011 -0.3207  0.1290
   40POPC   C4A  969   4.364   5.944   7.452 -0.1949 -0.0427 -0.2022
   40POPC   C1B  970   4.858   5.135   7.826  0.0198 -0.0569 -0.0984
   40POPC   C2B  971   5.248   5.072   7.540  0.3340 -0.0711 -0.4490
   40POPC   C3B  972   5.412   5.001   7.148 -0.0169 -0.0890  0.1167
   40POPC   C4B  973   5.608   5.332   6.827  0.3663  0.2248  0.1910
   41POPC   NC3  974   1.262   7.381   8.882 -0.0750  0.3144  0.3333
   41POPC   PO4  975   0.960   6.986   8.847 -0.0431  0.0754  0.0205
   41POPC   GL1  976   1.035   6.992   8.432 -0.3331 -0.0397 -0.0977
   41POPC   GL2  977   0.817   6.887   8.190  0.1904  0.0474 -0.1277
   41POPC   C1A  978   1.499   7.014   8.229  0.2030 -0.0876  0.1538
   41POPC   D2A  979   1.828   7.273   8.167 -0.1245  0.2041  0.0291
   41POPC   C3A  980   1.896   7.382   7.852 -0.2073  0.2459 -0.0289
   41POPC   C4A  981   2.022   7.756   7.612 -0.0947 -0.4232 -0.0082
   41POPC   C1B  982   0.623   6.736   7.869 -0.2124  0.2115  0.0340
   41POPC   C2B  983   0.356   6.849   7.444  0.1909 -0.0491 -0.5318
   41POPC   C3B  984   0.144   7.026   7.083 -0.1131 -0.0840  0.2715
   41POPC   C4B  985  -0.258   7.109   6.848  0.0823 -0.0357 -0.0717
   42POPC   NC3  986   4.567   2.658   8.410  0.0610 -0.2016 -0.1742
   42POPC   PO4  987   4.334   2.990   8.563  0.1605 -0.1635  0.0588
   42POPC   GL1  988   4.182   2.908   8.173  0.1023 -0.2912  0.1616
   42POPC   GL2  989   4.235   2.565   8.057  0.0874 -0.1208 -0.1354
   42POPC   C1A  990   4.137   3.097   7.933 -0.1390  0.0504  0.2862
   42POPC   D2A  991   4.071   3.272   7.527  0.1208  0.3318  0.0721
   42POPC   C3A  992   4.290   3.576   7.288  0.0323 -0.1159 -0.1963
   42POPC   C4A  993   4.505   3.879   7.388  0.1168 -0.0503  0.1712
   42POPC   C1B  994   4.190   2.737   7.637  0.0413 -0.1131 -0.0965
   42POPC   C2B  995   3.885   2.841   7.339  0.1197 -0.2714 -0.1402
   42POPC   C3B  996   3.802   2.746   6.979  0.0726 -0.1659 -0.0311
   42POPC   C4B  997   3.831   2.754   6.561 -0.1495 -0.4118 -0.2344
   43POPC   NC3  998   1.304   4.039   8.604 -0.0357 -0.1138 -0.0722
   43POPC   PO4  999   1.584   4.465   8.774  0.3848 -0.1387 -0.0102
   43POPC   GL1 1000   1.610   4.472   8.339  0.0811 -0.0298  0.2757
   43POPC   GL2 1001   1.917   4.495   8.148 -0.1715  0.0870 -0.0831
   43POPC   C1A 1002   1.562   4.800   8.043 -0.4541 -0.0347 -0.0453
   43POPC   D2A 1003   1.313   4.899   7.631 -0.0661 -0.3042 -0.0254
   43POPC   C3A 1004   1.475   4.999   7.216  0.3165  0.1028  0.1056
   43POPC   C4A 1005   1.717   4.898   6.949  0.0070 -0.2586  0.1693
   43POPC   C1B 1006   1.747   4.423   7.722 -0.1718  0.1682 -0.0538
   43POPC   C2B 1007   1.383   4.458   7.431  0.0888 -0.1204  0.0356
   43POPC   C3B 1008   1.387   4.493   6.953  0.0951 -0.0351 -0.2346
   43POPC   C4B 1009   1.371   4.402   6.611 -0.2349 -0.0561  0.0772
   44POPC   NC3 1010   8.433   3.564   8.513  0.0408 -0.0033  0.1394
   44POPC   PO4 1011   8.490   3.223   8.700 -0.1482 -0.0483 -0.3364
   44POPC   GL1 1012   8.629   3.165   8.234  0.0996 -0.0934 -0.0487
   44POPC   GL2 1013   8.862   3.406   8.160  0.1392 -0.0704 -0.3485
   44POPC   C1A 1014   8.437   3.298   7.841 -0.0365 -0.1466  0.0223
   44POPC   D2A 1015   8.216   3.555   7.577  0.1830  0.0145 -0.2389
   44POPC   C3A 1016   8.200   4.033   7.495 -0.3259  0.0379  0.0389
   44POPC   C4A 1017   8.148   4.443   7.614 -0.1121  0.0811 -0.0200
   44POPC   C1B 1018   8.867   3.281   7.749 -0.0201 -0.0029 -0.2717
   44POPC   C2B 1019   8.542   3.202   7.343 -0.2233 -0.1771  0.1029
   44POPC   C3B 1020   8.357   2.759   7.462  0.0709 -0.2246 -0.0661
   44POPC   C4B 1021   8.107   2.463   7.069 -0.0708 -0.1344 -0.2051
   45POPC   NC3 1022   1.834   6.495   8.969 -0.0967  0.4623  0.0908
   45POPC   PO4 1023   2.009   6.884   8.864 -0.2742  0.0738  0.0661
   45POPC   GL1 1024   2.074   6.847   8.388 -0.3170  0.3875  0.0029
   45POPC   GL2 1025   2.496   6.827   8.448 -0.0534  0.1732 -0.1643
   45POPC   C1A 1026   2.064   6.819   7.951 -0.2467 -0.0660 -0.1175
   45POPC   D2A 1027   1.727   6.892   7.788  0.1336  0.2356 -0.0983
   45POPC   C3A 1028   1.981   7.056   7.494  0.1594 -0.0606  0.3403
   45POPC   C4A 1029   2.049   7.343   7.164 -0.3377  0.0283 -0.0529
   45POPC   C1B 1030   2.491   6.587   8.015 -0.0062  0.0799  0.3388
   45POPC   C2B 1031   2.551   6.768   7.606  0.3072 -0.2074  0.2201
   45POPC   C3B 1032   2.431   6.928   7.232  0.1473  0.2276  0.1721
   45POPC   C4B 1033   2.446   7.221   6.870  0.0153 -0.0833  0.0728
   46POPC   NC3 1034   9.482   1.974   8.836 -0.0460  0.0895  0.1130
   46POPC   PO4 1035   9.251   2.049   8.581  0.0149 -0.1911 -0.1626
   46POPC   GL1 1036   9.111   2.233   8.176  0.2489  0.3528 -0.2141
   46POPC   GL2 1037   9.400   2.186   8.067 -0.3060 -0.0817 -0.3382
   46POPC   C1A 1038   8.784   2.333   7.843  0.2225 -0.1351  0.0682
   46POPC   D2A 1039   8.549   2.319   7.561  0.0082 -0.1385 -0.3204
   46POPC   C3A 1040   8.478   1.887   7.334  0.0426 -0.0312  0.1691
   46POPC   C4A 1041   8.200   1.490   7.453  0.0623  0.0845 -0.0787
   46POPC   C1B 1042   9.371   2.267   7.707 -0.3445 -0.1784  0.0949
   46POPC   C2B 1043   9.498   2.290   7.262  0.1862 -0.2195  0.0400
   46POPC   C3B 1044   9.324   2.084   6.891  0.0700  0.0200 -0.0280
   46POPC   C4B 1045   8.873   1.890   6.898 -0.1356 -0.1013  0.0892
   47POPC   NC3 1046   8.827   2.287   8.594 -0.2175 -0.0746  0.2020
   47POPC   PO4 1047   8.400   2.382   8.645  0.0901  0.1749  0.0159
   47POPC   GL1 1048   8.407   2.121   8.418  0.1465  0.1626  0.3294
   47POPC   GL2 1049   8.615   2.056   8.193  0.0497 -0.3083  0.1855
   47POPC   C1A 1050   8.117   1.988   8.098  0.2372  0.1474  0.1310
   47POPC   D2A 1051   8.221   1.969   7.768  0.0615 -0.2286 -0.0051
   47POPC   C3A 1052   7.989   2.063   7.413  0.4679  0.1273  0.0251
   47POPC   C4A 1053   8.041   1.820   7.127  0.4853  0.2278 -0.0492
   47POPC   C1B 1054   8.547   1.635   7.948  0.3068 -0.1409  0.1217
   47POPC   C2B 1055   8.373   1.231   8.011 -0.0997  0.2351  0.0423
   47POPC   C3B 1056   8.314   0.886   7.769 -0.0943 -0.1941 -0.0871
   47POPC   C4B 1057   8.572   0.622   7.433  0.0064  0.3874  0.1791
   48POPC   NC3 1058   8.998   5.346   8.977  0.2137  0.1677 -0.4675
   48POPC   PO4 1059   9.281   4.993   8.766 -0.2813 -0.3601  0.3758
   48POPC   GL1 1060   9.246   4.969   8.289  0.0401 -0.1298  0.2603
   48POPC   GL2 1061   9.237   5.268   8.145 -0.0321  0.1828 -0.2462
   48POPC   C1A 1062   9.503   4.853   7.960  0.0577  0.1630  0.0258
   48POPC   D2A 1063   9.851   5.028   7.686  0.0053 -0.2371  0.1500
   48POPC   C3A 1064   9.854   5.117   7.219 -0.1954 -0.1030 -0.2238
   48POPC   C4A 1065  10.038   5.048   6.788 -0.1263  0.1084  0.1567
   48POPC   C1B 1066   8.901   5.238   7.818  0.2498  0.1939 -0.3160
   48POPC   C2B 1067   8.786   5.563   7.402  0.3589  0.0934 -0.2620
   48POPC   C3B 1068   8.398   5.816   7.169  0.4442 -0.0138  0.1135
   48POPC   C4B 1069   8.266   6.077   6.860 -0.2000  0.4230  0.1510
   49POPC   NC3 1070   6.501   2.846   8.759 -0.2162 -0.2800 -0.1200
   49POPC   PO4 1071   6.976   2.873   8.790  0.1665 -0.5058  0.2340
   49POPC   GL1 1072   6.993   2.894   8.343  0.3007  0.0852  0.0052
   49POPC   GL2 1073   6.712   3.063   8.172 -0.1342  0.0630  0.1506
   49POPC   C1A 1074   7.002   2.700   8.042  0.0116  0.1617 -0.0254
   49POPC   D2A 1075   6.797   2.564   7.711 -0.2252  0.0190 -0.0548
   49POPC   C3A 1076   6.848   2.830   7.378  0.5395 -0.0111  0.1141
   49POPC   C4A 1077   6.729   2.669   6.967 -0.3602  0.0278  0.0758
   49POPC   C1B 1078   7.115   3.294   7.928  0.2671  0.2865 -0.2763
   49POPC   C2B 1079   7.278   3.641   7.841 -0.0382 -0.4205  0.0569
   49POPC   C3B 1080   7.537   3.891   7.861 -0.0492  0.0688 -0.1355
   49POPC   C4B 1081   7.908   4.032   7.874  0.0235  0.0332  0.3754
   50POPC   NC3 1082   9.274   2.434   8.923 -0.0723  0.1318 -0.0129
   50POPC   PO4 1083   9.210   2.568   8.514 -0.1326  0.1092  0.0235
   50POPC   GL1 1084   9.368   2.722   8.160  0.2059 -0.3575  0.1408
   50POPC   GL2 1085   9.138   3.002   8.104  0.2647  0.1846  0.1709
   50POPC   C1A 1086   9.666   2.592   7.898 -0.2405 -0.0695 -0.0983
   50POPC   D2A 1087   9.923   2.326   7.555  0.2222 -0.3520 -0.1230
   50POPC   C3A 1088  10.101   2.514   7.272 -0.1251  0.2868 -0.1418
   50POPC   C4A 1089   9.896   2.421   6.892  0.2713 -0.0390 -0.0466
   50POPC   C1B 1090   9.256   2.789   7.683  0.0527  0.0877  0.0407
   50POPC   C2B 1091   9.279   3.090   7.280  0.0118  0.0985 -0.0251
   50POPC   C3B 1092   8.890   3.111   6.960 -0.0917 -0.3748 -0.0087
   50POPC   C4B 1093   8.882   3.578   6.687  0.2470  0.2003 -0.3845
   51POPC   NC3 1094   2.071   8.294   8.753  0.2788 -0.0327 -0.0479
   51POPC   PO4 1095   2.026   8.747   8.552  0.2870  0.3872  0.0855
   51POPC   GL1 1096   2.407   8.821   8.378 -0.1019  0.0671 -0.1332
   51POPC   GL2 1097   2.674   8.883   8.324  0.1499 -0.2256 -0.2241
   51POPC   C1A 1098   2.377   8.698   7.875 -0.3494  0.2429  0.3819
   51POPC   D2A 1099   2.157   8.721   7.563 -0.1211  0.1360 -0.0313
   51POPC   C3A 1100   2.273   9.046   7.148  0.2096 -0.0189  0.1733
   51POPC   C4A 1101   2.382   9.000   6.763  0.1229 -0.0880  0.1291
   51POPC   C1B 1102   2.890   8.906   7.917  0.2078 -0.0125 -0.1951
   51POPC   C2B 1103   3.100   9.133   7.548 -0.1775 -0.0072  0.2918
   51POPC   C3B 1104   3.492   9.110   7.371  0.0595 -0.0061 -0.4736
   51POPC   C4B 1105   3.697   8.700   7.338  0.2542 -0.3635 -0.0271
   52POPC   NC3 1106   0.013   2.859   8.499  0.2376  0.1409 -0.0590
   52POPC   PO4 1107  -0.411   3.093   8.453  0.3392  0.3415  0.2788
   52POPC   GL1 1108  -0.363   3.213   8.091 -0.1871 -0.3794 -0.1490
   52POPC   GL2 1109   0.012   3.085   8.040  0.2395  0.1499 -0.2274
   52POPC   C1A 1110  -0.384   3.364   7.727 -0.1608 -0.0152 -0.0842
   52POPC   D2A 1111  -0.273   3.677   7.379  0.2021  0.1662 -0.4442
   52POPC   C3A 1112   0.149   3.901   7.462  0.0026  0.1393  0.3546
   52POPC   C4A 1113   0.211   4.229   7.514 -0.1625  0.4296  0.3071
   52POPC   C1B 1114   0.081   3.155   7.643  0.0127 -0.2222  0.3288
   52POPC   C2B 1115   0.195   3.354   7.220 -0.2444 -0.1191  0.1778
   52POPC   C3B 1116   0.552   3.346   6.894  0.0091  0.0799 -0.0850
   52POPC   C4B 1117   0.994   3.590   6.857 -0.2024  0.1838 -0.1613
   53POPC   NC3 1118   7.515   9.286  10.376 -0.1171  0.0259  0.4069
   53POPC   PO4 1119   7.155   9.451  10.181  0.3215  0.1549  0.3393
   53POPC   GL1 1120   7.140   9.437   9.663  0.2184 -0.1385  0.2193
   53POPC   GL2 1121   7.465   9.524   9.502 -0.2914 -0.1232 -0.1269
   53POPC   C1A 1122   7.055   9.731   9.240  0.0513 -0.1786  0.0070
   53POPC   D2A 1123   7.072   9.488   8.826  0.1769 -0.1169  0.1235
   53POPC   C3A 1124   7.451   9.699   8.729  0.1577  0.1454 -0.1568
   53POPC   C4A 1125   7.667   9.583   8.462  0.0958 -0.1127  0.2414
   53POPC   C1B 1126   7.390   9.307   9.175 -0.1023 -0.0806  0.3819
   53POPC   C2B 1127   7.573   9.158   8.710 -0.2091 -0.0601 -0.0830
   53POPC   C3B 1128   7.721   9.018   8.315 -0.2491 -0.1274 -0.4056
   53POPC   C4B 1129   7.871   8.795   7.978  0.0589 -0.1570 -0.1989
   54POPC   NC3 1130   6.281   5.763   9.065  0.2886  0.0982  0.1692
   54POPC   PO4 1131   6.345   6.320   8.993 -0.2757  0.0438  0.0963
   54POPC   GL1 1132   6.516   6.705   8.841  0.0917  0.2495 -0.0767
   54POPC   GL2 1133   6.246   7.045   8.903  0.2694 -0.1566 -0.1239
   54POPC   C1A 1134   6.523   6.700   8.315  0.1961 -0.1927  0.2102
   54POPC   D2A 1135   6.534   6.820   7.853 -0.1053 -0.0782  0.2775
   54POPC   C3A 1136   6.877   6.663   7.579  0.2205  0.1757 -0.2303
   54POPC   C4A 1137   7.370   6.866   7.528 -0.1487 -0.1149 -0.3014
   54POPC   C1B 1138   6.139   6.845   8.528 -0.0270 -0.2425  0.2395
   54POPC   C2B 1139   6.137   6.439   8.299  0.3410 -0.3570 -0.0851
   54POPC   C3B 1140   6.288   6.335   7.917  0.0469 -0.1938 -0.1476
   54POPC   C4B 1141   6.446   6.184   7.537 -0.0425  0.0270 -0.1180
   55POPC   NC3 1142   2.360   2.828   8.531  0.2332 -0.0415 -0.0880
   55POPC   PO4 1143   2.774   3.047   8.602  0.1622  0.2527  0.1099
   55POPC   GL1 1144   2.772   2.880   8.223  0.1194  0.0629 -0.1014
   55POPC   GL2 1145   2.846   2.551   8.196 -0.0709  0.3306  0.0684
   55POPC   C1A 1146   3.110   2.961   7.934 -0.0730 -0.0399  0.1401
   55POPC   D2A 1147   3.395   2.872   7.659 -0.0225  0.1473 -0.0892
   55POPC   C3A 1148   3.491   2.571   7.394 -0.0350 -0.3263 -0.0996
   55POPC   C4A 1149   3.430   2.245   7.074  0.3550  0.2011 -0.0972
   55POPC   C1B 1150   2.812   2.611   7.722  0.3408  0.1684  0.0486
   55POPC   C2B 1151   2.388   2.567   7.467 -0.0944 -0.1571 -0.3517
   55POPC   C3B 1152   2.004   2.788   7.618 -0.0269  0.0215 -0.1019
   55POPC   C4B 1153   1.621   2.734   7.603  0.1373 -0.2240 -0.4461
   56POPC   NC3 1154   0.564   6.715   8.642  0.1120  0.0967 -0.0350
   56POPC   PO4 1155   0.221   6.506   8.801  0.0506 -0.1464 -0.1703
   56POPC   GL1 1156   0.216   6.290   8.480 -0.1284  0.2258 -0.1265
   56POPC   GL2 1157  -0.058   6.408   8.426  0.3360 -0.2706  0.0270
   56POPC   C1A 1158   0.326   6.346   7.976 -0.0354  0.1670  0.0725
   56POPC   D2A 1159   0.342   6.308   7.458 -0.1601  0.1195 -0.0638
   56POPC   C3A 1160   0.032   6.572   7.209 -0.0296 -0.1712 -0.2395
   56POPC   C4A 1161  -0.043   6.630   6.791  0.1276 -0.0631 -0.2335
   56POPC   C1B 1162   0.098   6.744   8.217 -0.0814 -0.2028  0.0092
   56POPC   C2B 1163   0.251   7.116   7.954  0.2053  0.0569 -0.0600
   56POPC   C3B 1164   0.310   7.574   7.934  0.0467  0.1890  0.0673
   56POPC   C4B 1165   0.301   8.044   7.944 -0.0207  0.2543 -0.2922
   57POPC   NC3 1166   2.788   5.062   8.817 -0.1543 -0.1551  0.2480
   57POPC   PO4 1167   2.830   5.469   8.746  0.1977  0.4098 -0.0154
   57POPC   GL1 1168   2.767   5.275   8.371  0.1102  0.4684 -0.2265
   57POPC   GL2 1169   2.615   5.530   8.037  0.0831  0.2413  0.1544
   57POPC   C1A 1170   2.725   5.085   7.877 -0.0083  0.2260 -0.0644
   57POPC   D2A 1171   2.465   4.866   7.552 -0.0896 -0.1132 -0.2756
   57POPC   C3A 1172   2.606   4.984   7.170 -0.3038 -0.3719  0.1169
   57POPC   C4A 1173   2.820   4.994   6.767 -0.0370 -0.4241 -0.3077
   57POPC   C1B 1174   3.076   5.429   7.976  0.0098  0.1917 -0.2609
   57POPC   C2B 1175   3.411   5.464   7.733  0.0570  0.1223  0.0500
   57POPC   C3B 1176   3.624   5.340   7.331  0.0602 -0.1162 -0.2749
   57POPC   C4B 1177   3.828   5.182   6.984  0.1902  0.2099  0.2418
   58POPC   NC3 1178   1.551   1.701   9.269  0.1950  0.0579 -0.1534
   58POPC   PO4 1179   1.964   1.800   9.020  0.0624  0.1142 -0.1068
   58POPC   GL1 1180   1.912   2.098   8.613 -0.0961  0.3580  0.1939
   58POPC   GL2 1181   1.650   2.338   8.465  0.0873 -0.1031  0.0943
   58POPC   C1A 1182   1.942   2.096   8.170 -0.1980  0.0917 -0.0764
   58POPC   D2A 1183   1.572   2.121   8.018 -0.1798 -0.0800  0.1912
   58POPC   C3A 1184   1.699   1.740   7.680  0.0057 -0.4098  0.0612
   58POPC   C4A 1185   1.689   1.660   7.286  0.2742 -0.0067  0.0010
   58POPC   C1B 1186   1.395   2.611   8.126 -0.0982 -0.2236 -0.1229
   58POPC   C2B 1187   1.362   3.049   7.959  0.1849  0.1546 -0.0552
   58POPC   C3B 1188   0.982   3.214   7.732  0.0499 -0.0634  0.0033
   58POPC   C4B 1189   0.676   3.200   7.395  0.0071 -0.1966  0.2917
   59POPC   NC3 1190   7.775   6.211   9.056 -0.2493 -0.3539  0.1416
   59POPC   PO4 1191   7.350   6.501   9.059  0.3562  0.0398 -0.0813
   59POPC   GL1 1192   7.421   6.552   8.720  0.0281 -0.0010 -0.1714
   59POPC   GL2 1193   7.119   6.661   8.522  0.0032 -0.2614  0.2169
   59POPC   C1A 1194   7.677   6.639   8.286  0.0766 -0.0452  0.2792
   59POPC   D2A 1195   7.958   6.913   8.248  0.2987 -0.1202  0.2284
   59POPC   C3A 1196   8.027   6.900   7.936 -0.1979 -0.0089  0.1915
   59POPC   C4A 1197   8.536   6.984   7.873  0.0284  0.3422 -0.3005
   59POPC   C1B 1198   6.961   6.906   8.107  0.0369 -0.1013  0.3943
   59POPC   C2B 1199   6.992   7.140   7.824  0.0233 -0.0907 -0.1083
   59POPC   C3B 1200   6.953   7.277   7.414 -0.3151  0.1083 -0.1294
   59POPC   C4B 1201   7.300   7.477   7.161 -0.3312  0.3393 -0.1136
   60POPC   NC3 1202   8.755   1.312   8.533 -0.2850  0.1403  0.1067
   60POPC   PO4 1203   8.751   1.823   8.624  0.1321 -0.1420  0.2289
   60POPC   GL1 1204   8.982   1.752   8.217 -0.0378  0.0070 -0.2706
   60POPC   GL2 1205   9.197   1.444   8.164  0.2328  0.2509 -0.4156
   60POPC   C1A 1206   9.017   1.918   7.718 -0.1551 -0.3537 -0.1277
   60POPC   D2A 1207   8.988   2.062   7.347 -0.2279 -0.1223 -0.1904
   60POPC   C3A 1208   8.689   2.326   7.072  0.2779 -0.1151 -0.0175
   60POPC   C4A 1209   8.539   2.729   6.993 -0.0315  0.0978 -0.1819
   60POPC   C1B 1210   8.937   1.370   7.785  0.0902 -0.0688 -0.0712
   60POPC   C2B 1211   8.638   1.198   7.475 -0.1465 -0.4196 -0.2795
   60POPC   C3B 1212   8.536   1.110   7.005 -0.2010 -0.1155  0.0273
   60POPC   C4B 1213   8.691   0.995   6.669  0.1954  0.2476 -0.1038
   61POPC   NC3 1214   3.567   0.307   9.316  0.1279  0.0906 -0.0310
   61POPC   PO4 1215   3.197   0.603   9.124 -0.3173 -0.1349 -0.0026
   61POPC   GL1 1216   3.120   0.829   8.655 -0.1606  0.3587 -0.3340
   61POPC   GL2 1217   3.027   1.148   8.551 -0.1028 -0.4543 -0.0493
   61POPC   C1A 1218   2.896   0.545   8.302 -0.0967  0.0583  0.1186
   61POPC   D2A 1219   2.615   0.563   7.991  0.0796 -0.3548  0.1524
   61POPC   C3A 1220   2.482   0.743   7.620  0.2167  0.0513  0.0365
   61POPC   C4A 1221   2.509   1.168   7.466 -0.2012  0.1172 -0.5255
   61POPC   C1B 1222   3.118   0.982   8.189 -0.1071 -0.1434  0.2926
   61POPC   C2B 1223   3.161   0.619   7.898  0.0848 -0.0384 -0.3991
   61POPC   C3B 1224   2.963   0.533   7.475 -0.3073 -0.2236 -0.2024
   61POPC   C4B 1225   2.596   0.397   7.263  0.0111 -0.1659 -0.1578
   62POPC   NC3 1226  10.306   5.768   9.317 -0.1072  0.0998  0.0011
   62POPC   PO4 1227  10.520   5.675   8.886 -0.2720 -0.0418  0.1278
   62POPC   GL1 1228  10.769   5.702   8.570  0.3382 -0.1465  0.3230
   62POPC   GL2 1229  10.955   5.494   8.443  0.1269  0.0282  0.1261
   62POPC   C1A 1230  10.629   5.914   8.172  0.1257  0.1655 -0.1101
   62POPC   D2A 1231  10.269   6.259   7.961 -0.1615  0.2117  0.1142
   62POPC   C3A 1232  10.460   6.666   7.787 -0.4155 -0.0942  0.2724
   62POPC   C4A 1233  10.187   7.009   7.446 -0.1657 -0.1239  0.0365
   62POPC   C1B 1234  11.275   5.426   8.149  0.0073 -0.3928 -0.1731
   62POPC   C2B 1235  11.292   5.266   7.778  0.0621  0.0088 -0.2586
   62POPC   C3B 1236  11.261   5.199   7.322  0.1286  0.0184 -0.2952
   62POPC   C4B 1237  11.046   5.091   6.914 -0.0595  0.0416  0.0317
   63POPC   NC3 1238   5.069   3.453   8.909  0.1718 -0.1718 -0.3032
   63POPC   PO4 1239   5.316   3.381   8.536  0.0877  0.0598  0.0999
   63POPC   GL1 1240   5.397   3.346   8.155  0.1821 -0.1475 -0.0242
   63POPC   GL2 1241   5.334   3.675   7.981  0.1239  0.1115 -0.0137
   63POPC   C1A 1242   5.406   3.272   7.705 -0.1817 -0.1131 -0.0626
   63POPC   D2A 1243   5.269   3.420   7.258  0.0504 -0.0954 -0.4895
   63POPC   C3A 1244   5.575   3.562   7.030 -0.0499 -0.2467  0.1700
   63POPC   C4A 1245   5.859   3.642   6.734 -0.0474 -0.3949 -0.0355
   63POPC   C1B 1246   5.530   3.743   7.559  0.3380  0.2322 -0.1055
   63POPC   C2B 1247   5.482   4.128   7.334 -0.1702 -0.0301  0.1829
   63POPC   C3B 1248   5.460   4.515   7.168 -0.0418 -0.2382 -0.0936
   63POPC   C4B 1249   5.162   4.694   6.885  0.1562  0.2221 -0.3326
   64POPC   NC3 1250   2.715   1.508   8.668 -0.2707 -0.2379 -0.1161
   64POPC   PO4 1251   2.878   1.927   8.743  0.1965  0.2182 -0.1473
   64POPC   GL1 1252   2.910   2.037   8.294 -0.0175 -0.0705 -0.2902
   64POPC   GL2 1253   3.165   2.140   8.329  0.1395  0.0323 -0.1106
   64POPC   C1A 1254   2.844   2.132   7.874 -0.1726 -0.0663 -0.0815
   64POPC   D2A 1255   2.687   2.153   7.534  0.2809  0.0892  0.1283
   64POPC   C3A 1256   2.954   2.391   7.281 -0.2350 -0.0703  0.1795
   64POPC   C4A 1257   2.976   2.335   6.877 -0.1255 -0.1348 -0.1605
   64POPC   C1B 1258   3.288   1.851   7.994  0.0964 -0.1977  0.1841
   64POPC   C2B 1259   3.161   1.496   7.827  0.1872  0.0258  0.0939
   64POPC   C3B 1260   2.976   1.292   7.448  0.0150 -0.1595  0.2794
   64POPC   C4B 1261   3.053   0.982   7.194  0.1744  0.1191 -0.0024
   65POPC   NC3 1262   5.634   6.481   9.555  0.0195  0.0805  0.2637
   65POPC   PO4 1263   5.293   6.796   9.689 -0.0079 -0.0584 -0.0354
   65POPC   GL1 1264   5.212   7.079   9.353 -0.0140 -0.0320  0.0328
   65POPC   GL2 1265   5.144   7.446   9.442  0.1617  0.0941 -0.1726
   65POPC   C1A 1266   5.175   7.100   8.920 -0.0207  0.3000  0.0620
   65POPC   D2A 1267   5.443   6.869   8.647  0.0588  0.0273  0.0103
   65POPC   C3A 1268   5.532   7.141   8.362  0.2057  0.3116 -0.0205
   65POPC   C4A 1269   5.667   7.179   8.113 -0.0111  0.3526  0.1979
   65POPC   C1B 1270   5.053   7.685   9.073  0.2397  0.2781 -0.3622
   65POPC   C2B 1271   5.060   8.044   8.908 -0.3844 -0.1003 -0.0125
   65POPC   C3B 1272   4.966   8.482   8.772 -0.1779  0.3137  0.2816
   65POPC   C4B 1273   4.756   8.742   8.520  0.1149 -0.1422 -0.2573
   66POPC   NC3 1274   1.484   2.597   8.873 -0.0169  0.2818  0.2255
   66POPC   PO4 1275   1.154   2.312   9.023 -0.2127  0.1010 -0.1267
   66POPC   GL1 1276   1.099   2.158   8.662 -0.1283  0.0944  0.0540
   66POPC   GL2 1277   0.777   2.006   8.676  0.1212  0.0030 -0.2303
   66POPC   C1A 1278   1.363   1.942   8.430  0.1027  0.0054 -0.1125
   66POPC   D2A 1279   1.527   1.658   8.169 -0.0657 -0.0989 -0.1757
   66POPC   C3A 1280   1.981   1.579   8.175  0.3545  0.2586  0.0116
   66POPC   C4A 1281   2.141   1.451   7.797  0.1392  0.0862 -0.1920
   66POPC   C1B 1282   0.887   1.755   8.298 -0.3598 -0.2562 -0.0324
   66POPC   C2B 1283   1.029   1.841   7.899 -0.0094 -0.3235  0.1510
   66POPC   C3B 1284   1.176   1.803   7.425  0.0435  0.0195  0.0626
   66POPC   C4B 1285   0.881   1.812   7.148  0.0104 -0.2205  0.0867
   67POPC   NC3 1286   6.290   8.504  10.407  0.1864 -0.1135 -0.3654
   67POPC   PO4 1287   6.154   8.541  10.052 -0.1128  0.2047 -0.2338
   67POPC   GL1 1288   5.897   8.578   9.656  0.1805 -0.1409  0.0755
   67POPC   GL2 1289   5.805   8.174   9.643 -0.1086 -0.3494 -0.0933
   67POPC   C1A 1290   5.801   8.648   9.082 -0.0227  0.0339  0.1977
   67POPC   D2A 1291   6.021   8.384   8.699  0.0523 -0.1359 -0.0200
   67POPC   C3A 1292   5.921   8.336   8.231  0.0534  0.0887  0.1918
   67POPC   C4A 1293   5.544   8.194   8.023  0.0426 -0.0758 -0.2874
   67POPC   C1B 1294   6.022   8.236   9.309 -0.2040  0.0038  0.2687
   67POPC   C2B 1295   6.349   8.144   8.939  0.0728 -0.0928  0.1088
   67POPC   C3B 1296   6.603   8.272   8.578 -0.1385  0.0901  0.0247
   67POPC   C4B 1297   6.322   8.603   8.379  0.0956  0.1424 -0.2482
   68POPC   NC3 1298   0.709   0.250   9.090  0.2694 -0.1137  0.0497
   68POPC   PO4 1299   0.671  -0.118   8.860  0.0048  0.2243 -0.1729
   68POPC   GL1 1300   0.494  -0.181   8.441  0.1596  0.1402 -0.0136
   68POPC   GL2 1301   0.574   0.065   8.174 -0.0615  0.0344 -0.4835
   68POPC   C1A 1302   0.252  -0.331   8.021 -0.2202  0.0023  0.1638
   68POPC   D2A 1303   0.162  -0.348   7.557 -0.0158  0.0192  0.2022
   68POPC   C3A 1304   0.048  -0.708   7.417 -0.2553 -0.0294  0.2488
   68POPC   C4A 1305   0.167  -0.885   7.043  0.3713 -0.0235 -0.1759
   68POPC   C1B 1306   0.414   0.544   8.107  0.3125 -0.1492 -0.0104
   68POPC   C2B 1307   0.490   0.861   7.937 -0.2736 -0.0846 -0.0275
   68POPC   C3B 1308   0.736   0.866   7.645  0.0887 -0.1537 -0.0979
   68POPC   C4B 1309   1.067   0.746   7.362 -0.0419  0.5325  0.1807
   69POPC   NC3 1310   3.389   9.605   9.234 -0.2985 -0.1447 -0.0891
   69POPC   PO4 1311   3.496   9.197   9.311  0.0241 -0.3691  0.0958
   69POPC   GL1 1312   3.735   9.442   8.822 -0.0566 -0.3954 -0.1952
   69POPC   GL2 1313   3.476   9.505   8.602 -0.0732 -0.1454 -0.0012
   69POPC   C1A 1314   3.943   9.388   8.359  0.1199 -0.1626  0.1912
   69POPC   D2A 1315   4.207   9.413   7.998  0.1316  0.0712  0.2059
   69POPC   C3A 1316   4.387   9.806   7.919  0.0380 -0.0831  0.0694
   69POPC   C4A 1317   4.724  10.168   7.772 -0.1279  0.1582 -0.1015
   69POPC   C1B 1318   3.563   9.099   8.364  0.1163 -0.1868  0.0710
   69POPC   C2B 1319   3.871   9.067   8.006 -0.1251 -0.0353 -0.0118
   69POPC   C3B 1320   4.001   9.073   7.614 -0.1904  0.2032 -0.0373
   69POPC   C4B 1321   4.155   8.887   7.179  0.0307  0.1933 -0.5110
   70POPC   NC3 1322   1.675   8.161   9.379  0.1727  0.0096  0.2491
   70POPC   PO4 1323   1.565   8.241   8.846  0.2352 -0.1026  0.1733
   70POPC   GL1 1324   1.714   8.407   8.374  0.0100 -0.0897 -0.0354
   70POPC   GL2 1325   2.083   8.325   8.243  0.1260  0.0311 -0.0114
   70POPC   C1A 1326   1.653   8.247   7.960 -0.1886  0.1697  0.1279
   70POPC   D2A 1327   1.381   8.159   7.622 -0.0879  0.0465  0.1959
   70POPC   C3A 1328   1.248   8.387   7.336 -0.1394  0.4746 -0.2873
   70POPC   C4A 1329   1.068   8.551   6.997  0.2508  0.0240 -0.1573
   70POPC   C1B 1330   2.211   8.230   7.824  0.1600 -0.0796  0.2998
   70POPC   C2B 1331   2.370   8.301   7.385  0.0302 -0.3344  0.1481
   70POPC   C3B 1332   2.647   8.549   7.054  0.0671  0.0182  0.1288
   70POPC   C4B 1333   2.983   8.863   7.146 -0.5197  0.1264 -0.1628
   71POPC   NC3 1334   6.547   6.061   9.389  0.3215  0.1369  0.2077
   71POPC   PO4 1335   6.057   6.109   9.356 -0.3968  0.3539  0.1113
   71POPC   GL1 1336   5.775   6.196   8.953  0.1029 -0.4636 -0.1275
   71POPC   GL2 1337   5.913   6.489   8.759  0.1309 -0.2611  0.0615
   71POPC   C1A 1338   5.348   6.328   8.817  0.0636 -0.0138  0.0102
   71POPC   D2A 1339   5.074   6.503   8.502  0.0325 -0.3222  0.1320
   71POPC   C3A 1340   4.806   6.327   8.229 -0.1643  0.1586  0.0178
   71POPC   C4A 1341   4.380   6.322   7.951 -0.1616  0.1498 -0.0375
   71POPC   C1B 1342   5.585   6.483   8.337 -0.2361 -0.1484  0.0212
   71POPC   C2B 1343   5.271   6.731   8.094  0.0728 -0.2545  0.0446
   71POPC   C3B 1344   5.096   7.161   8.064 -0.2562 -0.0770  0.1817
   71POPC   C4B 1345   4.919   7.530   7.907  0.2462  0.0994  0.1840
   72POPC   NC3 1346   4.410   7.750  10.027  0.0296 -0.0348  0.2626
   72POPC   PO4 1347   4.839   7.660   9.900  0.0740 -0.3893 -0.2540
   72POPC   GL1 1348   4.846   7.959   9.665 -0.0241  0.0789  0.4394
   72POPC   GL2 1349   4.540   8.021   9.649 -0.3030 -0.3176  0.1665
   72POPC   C1A 1350   5.143   8.075   9.402 -0.1999  0.1088 -0.2716
   72POPC   D2A 1351   5.411   8.364   9.190 -0.0197 -0.0675  0.4013
   72POPC   C3A 1352   5.360   8.790   9.198  0.0989 -0.3073 -0.2663
   72POPC   C4A 1353   4.898   8.844   9.194  0.0473  0.0334  0.3400
   72POPC   C1B 1354   4.617   7.908   9.181 -0.1288 -0.1434  0.1658
   72POPC   C2B 1355   4.644   7.696   8.733 -0.2653 -0.1018 -0.3483
   72POPC   C3B 1356   4.686   7.348   8.401 -0.1907 -0.1062 -0.2136
   72POPC   C4B 1357   4.907   6.987   8.450  0.2114  0.0152 -0.1328
   73POPC   NC3 1358   2.132   7.356   8.708  0.1267  0.1133 -0.0356
   73POPC   PO4 1359   2.526   7.733   8.948 -0.1256  0.0469  0.3103
   73POPC   GL1 1360   2.650   7.494   8.587  0.1050 -0.0305 -0.2350
   73POPC   GL2 1361   2.925   7.272   8.488 -0.1140 -0.0407 -0.0881
   73POPC   C1A 1362   2.759   7.533   8.095 -0.1335  0.0780 -0.2101
   73POPC   D2A 1363   2.867   7.413   7.700 -0.1860 -0.3178  0.2423
   73POPC   C3A 1364   3.304   7.401   7.614  0.3065  0.3232  0.3382
   73POPC   C4A 1365   3.683   7.355   7.431  0.1316  0.1082 -0.0547
   73POPC   C1B 1366   2.768   7.024   8.061 -0.1960 -0.2542 -0.1509
   73POPC   C2B 1367   2.982   6.921   7.687 -0.0155  0.2232 -0.0515
   73POPC   C3B 1368   3.300   6.885   7.427 -0.2939  0.0829 -0.0460
   73POPC   C4B 1369   3.605   6.975   7.036  0.2684 -0.3294  0.0480
   74POPC   NC3 1370   2.882   1.064   9.059 -0.0315  0.4842 -0.1576
   74POPC   PO4 1371   2.601   1.044   8.803  0.0513 -0.1026  0.1246
   74POPC   GL1 1372   2.364   0.979   8.378 -0.1289 -0.0836 -0.4009
   74POPC   GL2 1373   2.404   1.351   8.265 -0.3019  0.0740 -0.2380
   74POPC   C1A 1374   2.154   0.918   8.006  0.0551 -0.1525 -0.3864
   74POPC   D2A 1375   1.971   0.980   7.659  0.0142 -0.3270  0.1412
   74POPC   C3A 1376   1.707   0.860   7.526  0.0063  0.0701  0.2735
   74POPC   C4A 1377   1.550   0.679   7.109  0.0514 -0.0819 -0.0205
   74POPC   C1B 1378   2.692   1.293   7.946  0.0624  0.3076 -0.2433
   74POPC   C2B 1379   2.905   0.962   7.754 -0.3084 -0.1191 -0.2869
   74POPC   C3B 1380   3.345   1.002   7.760 -0.0499  0.1769 -0.1240
   74POPC   C4B 1381   3.584   1.215   8.018 -0.0230  0.2048 -0.3303
   75POPC   NC3 1382   2.191   3.845   8.957 -0.1062  0.1634  0.3015
   75POPC   PO4 1383   2.666   3.875   9.044  0.0205 -0.2768  0.0992
   75POPC   GL1 1384   2.615   3.831   8.643  0.1697  0.1839 -0.1888
   75POPC   GL2 1385   2.480   4.113   8.487  0.0636 -0.1665  0.0427
   75POPC   C1A 1386   2.522   3.730   8.173 -0.1801  0.0290 -0.1588
   75POPC   D2A 1387   2.190   3.541   7.871 -0.0785  0.3445 -0.2831
   75POPC   C3A 1388   2.149   3.287   7.486 -0.1817  0.2001  0.0987
   75POPC   C4A 1389   2.556   3.174   7.325 -0.1861 -0.2648  0.0560
   75POPC   C1B 1390   2.411   4.232   8.114 -0.0134 -0.1785  0.2176
   75POPC   C2B 1391   2.269   4.456   7.644 -0.0031  0.2266  0.0519
   75POPC   C3B 1392   2.363   4.522   7.250 -0.2133 -0.1202 -0.0513
   75POPC   C4B 1393   2.158   4.503   6.853  0.0676  0.0354 -0.0843
   76POPC   NC3 1394   3.658   9.034  10.029 -0.0818  0.0688 -0.1897
   76POPC   PO4 1395   3.913   8.923   9.685 -0.1084 -0.0159  0.0999
   76POPC   GL1 1396   4.022   9.077   9.226  0.0134 -0.2099  0.0261
   76POPC   GL2 1397   3.855   8.903   8.917  0.2697 -0.6279  0.1604
   76POPC   C1A 1398   4.219   9.418   8.948 -0.0266  0.3420  0.0905
   76POPC   D2A 1399   4.651   9.540   8.836  0.3300 -0.2207 -0.0533
   76POPC   C3A 1400   5.019   9.268   8.950  0.3101 -0.0369 -0.2072
   76POPC   C4A 1401   5.172   8.959   8.836 -0.0395 -0.2179 -0.0934
   76POPC   C1B 1402   4.094   8.954   8.595 -0.0922 -0.4162 -0.2674
   76POPC   C2B 1403   4.295   8.819   8.214 -0.0403 -0.0521 -0.2105
   76POPC   C3B 1404   4.489   8.990   7.892  0.0926  0.1163  0.1586
   76POPC   C4B 1405   4.680   9.450   7.759  0.0178  0.1021 -0.0753
   77POPC   NC3 1406   3.970   0.732   9.306  0.1036  0.0037  0.0193
   77POPC   PO4 1407   3.720   0.771   8.921  0.3724  0.0429  0.2167
   77POPC   GL1 1408   3.829   0.576   8.508  0.1677  0.3642 -0.0206
   77POPC   GL2 1409   3.533   0.633   8.427  0.0549  0.0879 -0.1784
   77POPC   C1A 1410   4.124   0.468   8.130  0.0505 -0.1410 -0.2466
   77POPC   D2A 1411   4.283   0.409   7.648  0.2207 -0.2174  0.1128
   77POPC   C3A 1412   4.001   0.461   7.342  0.4746 -0.0408 -0.0375
   77POPC   C4A 1413   3.840   0.450   6.980  0.1033 -0.0571  0.0564
   77POPC   C1B 1414   3.619   0.576   8.012  0.0340 -0.0274  0.2576
   77POPC   C2B 1415   3.512   0.510   7.590  0.1849  0.1593  0.2135
   77POPC   C3B 1416   3.389   0.531   7.169  0.0648  0.1517 -0.1033
   77POPC   C4B 1417   3.299   0.406   6.641  0.0643 -0.0577 -0.1014
   78POPC   NC3 1418   9.305   9.434   9.074  0.0257 -0.1072 -0.0792
   78POPC   PO4 1419   8.925   9.334   9.234 -0.2661 -0.0120 -0.0299
   78POPC   GL1 1420   9.014   9.222   8.767 -0.0702 -0.2215  0.1298
   78POPC   GL2 1421   8.790   9.420   8.740 -0.2733  0.1249 -0.1141
   78POPC   C1A 1422   9.218   9.278   8.436  0.0235  0.3360 -0.0968
   78POPC   D2A 1423   9.440   9.185   7.967  0.0977 -0.1033  0.2170
   78POPC   C3A 1424   9.145   8.938   7.715  0.1999  0.0077 -0.0885
   78POPC   C4A 1425   8.922   8.772   7.310  0.0678 -0.0003  0.0459
   78POPC   C1B 1426   8.723   9.498   8.388  0.0830  0.0087  0.0165
   78POPC   C2B 1427   8.649   9.181   7.994  0.0505 -0.1301 -0.0046
   78POPC   C3B 1428   8.417   9.033   7.657 -0.0867 -0.0261  0.1102
   78POPC   C4B 1429   8.407   8.925   7.188 -0.1480  0.0844  0.2303
   79POPC   NC3 1430   2.825   6.489   9.423  0.3899  0.0206 -0.0402
   79POPC   PO4 1431   2.718   6.482   8.954 -0.0192  0.1162  0.0041
   79POPC   GL1 1432   2.708   6.183   8.618 -0.2515 -0.2231 -0.1816
   79POPC   GL2 1433   2.498   6.267   8.371  0.2478  0.0684  0.0465
   79POPC   C1A 1434   2.839   5.981   8.215  0.0150  0.1386 -0.2815
   79POPC   D2A 1435   2.879   5.992   7.807  0.0702  0.0125  0.1191
   79POPC   C3A 1436   2.693   6.296   7.574 -0.1159  0.0447 -0.1399
   79POPC   C4A 1437   2.890   6.604   7.305  0.0811  0.3032  0.0011
   79POPC   C1B 1438   2.412   6.047   8.019 -0.0312  0.1833 -0.2201
   79POPC   C2B 1439   2.232   5.843   7.724  0.1141 -0.1265  0.1440
   79POPC   C3B 1440   2.132   5.630   7.351  0.2841  0.1460 -0.0033
   79POPC   C4B 1441   2.114   5.180   7.162 -0.1498 -0.1416 -0.1630
   80POPC   NC3 1442   2.959   7.134   9.057 -0.2041  0.1284  0.0174
   80POPC   PO4 1443   3.307   7.300   9.345 -0.4729 -0.0621  0.0883
   80POPC   GL1 1444   3.471   7.095   8.995  0.0648  0.2394 -0.0582
   80POPC   GL2 1445   3.604   6.823   9.002 -0.2404  0.1676  0.0205
   80POPC   C1A 1446   3.761   7.279   8.618  0.0608  0.1522 -0.2440
   80POPC   D2A 1447   3.756   7.423   8.226  0.0951  0.2247 -0.0656
   80POPC   C3A 1448   4.012   7.438   7.849 -0.2440 -0.0491  0.2644
   80POPC   C4A 1449   4.144   7.664   7.382 -0.1425 -0.0085 -0.2980
   80POPC   C1B 1450   3.653   6.633   8.585  0.0946  0.3367  0.0413
   80POPC   C2B 1451   3.483   6.628   8.157 -0.3077 -0.1385  0.1716
   80POPC   C3B 1452   3.630   6.474   7.824 -0.4040 -0.2090  0.2704
   80POPC   C4B 1453   3.689   6.574   7.342  0.1192  0.1504 -0.1296
   81POPC   NC3 1454   5.769   0.534   9.745 -0.3021  0.0626  0.1117
   81POPC   PO4 1455   6.174   0.537   9.561  0.0417 -0.2001  0.1090
   81POPC   GL1 1456   6.086   0.485   9.064 -0.0479  0.0791  0.0897
   81POPC   GL2 1457   6.005   0.801   8.889  0.2405  0.0184  0.1403
   81POPC   C1A 1458   6.063   0.187   8.702 -0.2632  0.1193  0.0090
   81POPC   D2A 1459   6.057   0.137   8.231  0.0531  0.1535 -0.0008
   81POPC   C3A 1460   5.699   0.119   7.928 -0.0217  0.1683 -0.0262
   81POPC   C4A 1461   5.295   0.146   7.836 -0.0229 -0.0847  0.1954
   81POPC   C1B 1462   6.245   0.942   8.620 -0.0884  0.2350  0.1386
   81POPC   C2B 1463   6.099   0.646   8.292 -0.0586  0.0767  0.0043
   81POPC   C3B 1464   5.954   0.583   7.969 -0.0003  0.0130  0.1792
   81POPC   C4B 1465   5.751   0.525   7.600 -0.1410  0.2972  0.1155
   82POPC   NC3 1466   6.889   9.034   9.945 -0.2792 -0.2115 -0.0208
   82POPC   PO4 1467   7.350   9.032   9.916  0.0221 -0.1721  0.4950
   82POPC   GL1 1468   7.113   8.936   9.503  0.0474 -0.1903  0.1730
   82POPC   GL2 1469   7.425   8.828   9.313  0.0266 -0.0096  0.0339
   82POPC   C1A 1470   6.867   9.295   9.280  0.0232 -0.0262 -0.2088
   82POPC   D2A 1471   6.579   9.073   9.030 -0.0521 -0.0857 -0.2114
   82POPC   C3A 1472   6.691   8.871   8.598  0.0832 -0.1782 -0.4161
   82POPC   C4A 1473   6.726   8.805   8.193  0.0226 -0.0087 -0.0513
   82POPC   C1B 1474   7.415   8.700   8.913 -0.1047  0.2941  0.1099
   82POPC   C2B 1475   7.116   8.546   8.710 -0.0367  0.1581  0.0472
   82POPC   C3B 1476   7.127   8.307   8.429  0.1300 -0.0956  0.0446
   82POPC   C4B 1477   7.116   7.920   8.234 -0.1038 -0.0357  0.1930
   83POPC   NC3 1478   6.171   9.295  10.385 -0.0546 -0.0391 -0.0412
   83POPC   PO4 1479   6.362   8.984  10.147 -0.0098  0.0390 -0.0686
   83POPC   GL1 1480   6.326   8.847   9.750 -0.1020  0.0076  0.0697
   83POPC   GL2 1481   6.590   8.966   9.548 -0.4883  0.2861  0.0161
   83POPC   C1A 1482   6.073   8.927   9.360  0.1848 -0.2412 -0.3261
   83POPC   D2A 1483   5.963   9.360   9.142 -0.0035 -0.2397  0.2707
   83POPC   C3A 1484   5.949   9.684   9.354 -0.7103 -0.1042 -0.0366
   83POPC   C4A 1485   5.506   9.828   9.509  0.1845 -0.1552 -0.0698
   83POPC   C1B 1486   6.413   8.627   9.309 -0.2224  0.1063 -0.2694
   83POPC   C2B 1487   6.393   8.647   8.892  0.1885  0.1213 -0.1714
   83POPC   C3B 1488   6.156   9.020   8.762  0.0428  0.0939  0.3194
   83POPC   C4B 1489   5.691   9.045   8.831 -0.3115 -0.2002  0.0116
   84POPC   NC3 1490   4.843   0.413   9.472  0.0411 -0.2597  0.1028
   84POPC   PO4 1491   4.377   0.369   9.193 -0.0956  0.0092 -0.0298
   84POPC   GL1 1492   4.738   0.234   8.972 -0.0489 -0.1206 -0.0780
   84POPC   GL2 1493   4.689   0.419   8.741 -0.1327 -0.1153 -0.0182
   84POPC   C1A 1494   5.060  -0.001   8.924 -0.0749 -0.0466  0.0367
   84POPC   D2A 1495   5.461   0.055   8.904  0.2041  0.2851 -0.0555
   84POPC   C3A 1496   5.611  -0.134   8.597  0.0017 -0.1390 -0.3817
   84POPC   C4A 1497   5.718  -0.326   8.140  0.3816  0.0499  0.0830
   84POPC   C1B 1498   4.546   0.220   8.355  0.1638  0.2965  0.0445
   84POPC   C2B 1499   4.562   0.122   7.946 -0.0940  0.3195  0.1451
   84POPC   C3B 1500   4.544   0.001   7.446  0.0341  0.1228 -0.3531
   84POPC   C4B 1501   4.092  -0.108   7.340 -0.1032  0.0209  0.0768
   85POPC   NC3 1502   8.261   0.625   8.732 -0.0444  0.0988  0.0025
   85POPC   PO4 1503   8.620   0.413   8.531  0.0828  0.0866  0.2102
   85POPC   GL1 1504   8.434   0.443   8.201 -0.3133 -0.1324  0.1393
   85POPC   GL2 1505   8.115   0.356   8.240  0.1834  0.2071 -0.1244
   85POPC   C1A 1506   8.350   0.341   7.748  0.0555 -0.0236 -0.1780
   85POPC   D2A 1507   8.056   0.518   7.434  0.0190 -0.0736  0.2946
   85POPC   C3A 1508   8.305   0.650   6.984 -0.0475  0.1349  0.2379
   85POPC   C4A 1509   8.243   0.725   6.575  0.1148 -0.0362 -0.0056
   85POPC   C1B 1510   7.861   0.143   8.045  0.1371 -0.0729  0.0401
   85POPC   C2B 1511   7.697   0.110   7.553 -0.1079  0.0947 -0.2757
   85POPC   C3B 1512   7.276  -0.010   7.452  0.0550 -0.0884 -0.0341
   85POPC   C4B 1513   6.941  -0.057   7.343 -0.1105 -0.2008  0.1722
   86POPC   NC3 1514   4.369   1.436   9.201 -0.3457  0.1383 -0.0923
   86POPC   PO4 1515   4.471   1.679   8.865 -0.2977 -0.2021 -0.1940
   86POPC   GL1 1516   4.560   1.703   8.490 -0.2239 -0.1864  0.2879
   86POPC   GL2 1517   4.889   1.718   8.438 -0.0147 -0.1372  0.1197
   86POPC   C1A 1518   4.615   1.665   8.002  0.3351 -0.2138 -0.0693
   86POPC   D2A 1519   4.319   1.394   7.708 -0.1178  0.2382  0.1465
   86POPC   C3A 1520   3.846   1.474   7.600 -0.0399  0.0426  0.0531
   86POPC   C4A 1521   3.416   1.521   7.427 -0.1383  0.3611  0.0914
   86POPC   C1B 1522   4.886   1.341   8.196 -0.2750  0.1918  0.0924
   86POPC   C2B 1523   4.824   1.192   7.872  0.2444  0.2080 -0.1186
   86POPC   C3B 1524   4.921   1.069   7.480 -0.1132 -0.0037  0.2948
   86POPC   C4B 1525   4.749   1.063   7.081  0.3188  0.0574  0.0656
   87POPC   NC3 1526   4.653   4.331   8.702 -0.1735 -0.1523 -0.1055
   87POPC   PO4 1527   4.293   4.129   8.834  0.2370 -0.1626 -0.0383
   87POPC   GL1 1528   4.253   4.204   8.399  0.1397 -0.2956  0.1359
   87POPC   GL2 1529   4.419   4.413   8.285 -0.1355 -0.0329  0.0251
   87POPC   C1A 1530   3.972   4.130   8.032  0.1132  0.0053  0.2053
   87POPC   D2A 1531   3.848   4.525   7.906  0.1509 -0.0365 -0.0104
   87POPC   C3A 1532   4.066   4.704   7.629 -0.0143 -0.1211  0.2235
   87POPC   C4A 1533   4.030   5.054   7.441  0.1338  0.0059 -0.0350
   87POPC   C1B 1534   4.575   4.695   7.919 -0.0025  0.1807  0.1281
   87POPC   C2B 1535   4.492   4.901   7.541 -0.2381  0.1563 -0.1644
   87POPC   C3B 1536   4.392   4.816   7.147 -0.0549  0.0703 -0.0395
   87POPC   C4B 1537   4.175   4.822   6.785 -0.0020 -0.1032  0.2854
   88POPC   NC3 1538   9.752   6.817   9.414  0.2169 -0.0694  0.0611
   88POPC   PO4 1539   9.325   6.802   9.246  0.2828 -0.1282 -0.3687
   88POPC   GL1 1540   9.094   7.008   8.883 -0.0185  0.0109  0.0706
   88POPC   GL2 1541   9.235   6.937   8.526 -0.4166  0.2496 -0.0925
   88POPC   C1A 1542   8.800   7.127   8.823  0.3677 -0.1976  0.1169
   88POPC   D2A 1543   8.616   7.475   8.518  0.0437  0.2892 -0.0035
   88POPC   C3A 1544   8.210   7.371   8.255 -0.2324  0.1111  0.4031
   88POPC   C4A 1545   8.150   7.348   7.806  0.1301 -0.1365 -0.3131
   88POPC   C1B 1546   8.896   7.096   8.271  0.2819 -0.2780 -0.1401
   88POPC   C2B 1547   8.698   7.427   7.995  0.1283 -0.0939 -0.1187
   88POPC   C3B 1548   8.664   7.345   7.533 -0.1049 -0.2416 -0.3718
   88POPC   C4B 1549   8.532   7.216   7.189 -0.0820 -0.1088  0.2628
   89POPC   NC3 1550   7.236   2.490   8.897 -0.0527  0.1229 -0.2233
   89POPC   PO4 1551   7.721   2.370   8.797 -0.1243  0.3350  0.0598
   89POPC   GL1 1552   7.818   2.260   8.363  0.1217 -0.3693 -0.1377
   89POPC   GL2 1553   7.779   2.552   8.194  0.1170  0.2157 -0.1458
   89POPC   C1A 1554   7.568   2.134   8.050 -0.3083  0.1112  0.0265
   89POPC   D2A 1555   7.261   2.331   7.847 -0.3767 -0.1392  0.1820
   89POPC   C3A 1556   7.285   2.511   7.503 -0.0573 -0.0618  0.3019
   89POPC   C4A 1557   7.441   2.349   7.044 -0.1560 -0.4377  0.1082
   89POPC   C1B 1558   7.947   2.383   7.870 -0.0591 -0.1722  0.2939
   89POPC   C2B 1559   7.813   2.564   7.464  0.1364  0.0010  0.1007
   89POPC   C3B 1560   7.576   2.825   7.230  0.0755  0.0949 -0.0679
   89POPC   C4B 1561   7.254   2.798   6.984 -0.0969 -0.1203  0.1222
   90POPC   NC3 1562   8.177   1.488   9.001  0.0735  0.3943 -0.1732
   90POPC   PO4 1563   8.194   1.137   8.688  0.1619  0.0096 -0.0562
   90POPC   GL1 1564   7.878   0.862   8.529  0.0292 -0.0366  0.0803
   90POPC   GL2 1565   8.102   0.919   8.213 -0.1302  0.2088  0.1158
   90POPC   C1A 1566   7.623   0.617   8.351 -0.0938 -0.0297 -0.3706
   90POPC   D2A 1567   7.463   0.422   7.965 -0.3237 -0.1371  0.1356
   90POPC   C3A 1568   7.345   0.046   7.990  0.1344  0.0893  0.1544
   90POPC   C4A 1569   7.041  -0.300   7.772 -0.0845 -0.1904  0.1107
   90POPC   C1B 1570   7.884   0.657   7.921  0.2544  0.0285 -0.2100
   90POPC   C2B 1571   7.541   0.741   7.575 -0.0556  0.1851  0.0823
   90POPC   C3B 1572   7.422   0.475   7.246 -0.0353 -0.1423  0.1434
   90POPC   C4B 1573   7.003   0.357   6.999 -0.0992 -0.0170 -0.4338
   91POPC   NC3 1574   7.704   6.708   9.319 -0.0601  0.0244  0.0472
   91POPC   PO4 1575   7.587   6.813   9.766 -0.0314  0.3073  0.2958
   91POPC   GL1 1576   7.631   7.189   9.545 -0.2136 -0.0431 -0.2677
   91POPC   GL2 1577   7.451   7.417   9.558 -0.2491 -0.1113  0.0171
   91POPC   C1A 1578   7.777   7.383   9.162 -0.1017  0.2454  0.1307
   91POPC   D2A 1579   8.229   7.423   8.929  0.0375 -0.0913 -0.0771
   91POPC   C3A 1580   8.305   7.094   8.753  0.1256  0.0866 -0.2460
   91POPC   C4A 1581   8.425   6.934   8.352 -0.1870 -0.2432 -0.0783
   91POPC   C1B 1582   7.300   7.170   9.199 -0.0197 -0.0649  0.1811
   91POPC   C2B 1583   7.378   7.231   8.717 -0.3794  0.1235 -0.2382
   91POPC   C3B 1584   7.463   7.089   8.365 -0.5372 -0.0507 -0.0232
   91POPC   C4B 1585   7.514   6.981   7.994 -0.4765 -0.0849 -0.2297
   92POPC   NC3 1586   5.555   2.449   8.709  0.0620 -0.0234  0.2274
   92POPC   PO4 1587   5.298   2.058   8.494 -0.2356  0.1039 -0.0331
   92POPC   GL1 1588   5.220   1.938   8.033  0.1446 -0.4118 -0.0123
   92POPC   GL2 1589   4.979   2.001   7.981  0.1882  0.0986 -0.4064
   92POPC   C1A 1590   5.446   1.865   7.647 -0.0734  0.1088 -0.0733
   92POPC   D2A 1591   5.465   1.859   7.189 -0.2100 -0.2985 -0.2417
   92POPC   C3A 1592   5.456   2.247   7.060  0.0685  0.3671 -0.1161
   92POPC   C4A 1593   5.516   2.629   7.277 -0.0598 -0.0339  0.0275
   92POPC   C1B 1594   4.575   2.184   7.782 -0.3106  0.0634 -0.0252
   92POPC   C2B 1595   4.455   2.258   7.360 -0.2156 -0.2222  0.1738
   92POPC   C3B 1596   4.667   2.129   6.985 -0.1286  0.0550 -0.0195
   92POPC   C4B 1597   4.535   2.047   6.558  0.1179 -0.2705  0.3646
   93POPC   NC3 1598   5.423   4.098   8.334 -0.1492  0.2587  0.1964
   93POPC   PO4 1599   5.074   4.361   8.492 -0.1567  0.1051  0.1533
   93POPC   GL1 1600   4.840   4.177   8.163  0.1350  0.1156 -0.2589
   93POPC   GL2 1601   4.887   3.834   8.079  0.1307 -0.0671  0.1413
   93POPC   C1A 1602   4.946   4.131   7.700 -0.1021 -0.0356 -0.0336
   93POPC   D2A 1603   5.026   3.931   7.374 -0.3250 -0.0847 -0.3532
   93POPC   C3A 1604   4.904   4.222   7.166 -0.2098 -0.0194 -0.2235
   93POPC   C4A 1605   4.676   4.510   6.913 -0.1436 -0.1297 -0.0767
   93POPC   C1B 1606   4.980   3.597   7.685 -0.1879 -0.1796  0.1273
   93POPC   C2B 1607   4.779   3.462   7.260  0.0482  0.0181 -0.3240
   93POPC   C3B 1608   4.635   3.730   6.924  0.0237 -0.0174  0.3057
   93POPC   C4B 1609   4.645   4.024   6.791 -0.2825 -0.1235  0.1670
   94POPC   NC3 1610   8.426   2.794   8.862 -0.1937 -0.0237 -0.0434
   94POPC   PO4 1611   8.820   2.695   8.876 -0.1912 -0.0321  0.0683
   94POPC   GL1 1612   8.672   2.738   8.445 -0.1284 -0.0724 -0.2274
   94POPC   GL2 1613   8.800   2.647   8.208  0.0725 -0.0067  0.3150
   94POPC   C1A 1614   8.360   2.610   8.027 -0.3059  0.1544  0.1288
   94POPC   D2A 1615   7.938   2.952   7.907 -0.0093  0.1174 -0.2095
   94POPC   C3A 1616   7.938   3.068   7.446 -0.3461 -0.0519 -0.0157
   94POPC   C4A 1617   8.151   2.953   6.971  0.0941 -0.0881  0.0197
   94POPC   C1B 1618   8.756   2.814   7.766  0.0199  0.0012  0.0515
   94POPC   C2B 1619   8.831   2.748   7.409  0.0567  0.0895 -0.0545
   94POPC   C3B 1620   9.185   2.637   7.085 -0.0829  0.0545  0.1951
   94POPC   C4B 1621   8.948   2.594   6.715 -0.0579 -0.1811 -0.1874
   95POPC   NC3 1622   3.325   7.875   9.244  0.1123 -0.2262  0.2638
   95POPC   PO4 1623   2.942   7.892   9.190 -0.1173 -0.1746 -0.1060
   95POPC   GL1 1624   3.079   7.616   8.887  0.1121 -0.1244 -0.2407
   95POPC   GL2 1625   3.442   7.555   8.838 -0.2174  0.2031 -0.0518
   95POPC   C1A 1626   3.283   7.680   8.417  0.0499 -0.1543 -0.1415
   95POPC   D2A 1627   3.211   7.794   7.948 -0.4837 -0.1051  0.1290
   95POPC   C3A 1628   3.614   7.768   7.759 -0.1994 -0.0519 -0.0571
   95POPC   C4A 1629   3.999   7.966   7.906  0.1495 -0.1820 -0.1589
   95POPC   C1B 1630   3.851   7.534   9.032 -0.2575  0.1935 -0.2034
   95POPC   C2B 1631   4.247   7.363   8.893  0.4184  0.1025  0.0459
   95POPC   C3B 1632   4.533   7.037   8.829 -0.0130 -0.1063 -0.0380
   95POPC   C4B 1633   4.850   6.716   8.934  0.1236 -0.1779 -0.1937
   96POPC   NC3 1634   1.609   0.027   9.097 -0.3337 -0.0274  0.1327
   96POPC   PO4 1635   1.342  -0.163   8.893  0.1627 -0.0019  0.0946
   96POPC   GL1 1636   1.331  -0.358   8.480 -0.1751 -0.0504 -0.0315
   96POPC   GL2 1637   1.238  -0.225   8.304  0.1953 -0.0038 -0.1534
   96POPC   C1A 1638   1.315  -0.672   8.035 -0.0523 -0.2033  0.1599
   96POPC   D2A 1639   1.097  -0.520   7.528  0.1630 -0.0520 -0.3687
   96POPC   C3A 1640   1.212  -0.769   7.215 -0.0778  0.0544  0.0564
   96POPC   C4A 1641   1.493  -1.144   7.167 -0.0119  0.1675 -0.1297
   96POPC   C1B 1642   0.786  -0.382   8.008 -0.1447 -0.0986  0.2363
   96POPC   C2B 1643   0.564   0.046   7.734  0.0611  0.0956 -0.3083
   96POPC   C3B 1644   0.423   0.343   7.576  0.0599  0.2156  0.0396
   96POPC   C4B 1645   0.270   0.782   7.398 -0.0280  0.0187 -0.2683
   97POPC   NC3 1646   3.561   3.063   8.841 -0.0935  0.2754 -0.0057
   97POPC   PO4 1647   3.248   2.787   8.592 -0.0635 -0.0707 -0.0642
   97POPC   GL1 1648   3.435   2.591   8.219  0.2679  0.0072 -0.1907
   97POPC   GL2 1649   3.685   2.752   7.989  0.1929 -0.1493  0.1668
   97POPC   C1A 1650   3.268   2.394   7.880  0.1393  0.0430  0.3605
   97POPC   D2A 1651   3.353   2.091   7.510  0.0965 -0.1993 -0.1939
   97POPC   C3A 1652   2.994   1.832   7.461  0.1195 -0.0405  0.0622
   97POPC   C4A 1653   2.582   1.643   7.567 -0.1955 -0.3257 -0.0810
   97POPC   C1B 1654   3.812   2.440   7.747 -0.2105 -0.0519  0.1400
   97POPC   C2B 1655   3.937   2.348   7.335 -0.0972 -0.0660 -0.0175
   97POPC   C3B 1656   4.092   2.186   6.922  0.0835 -0.1163  0.0985
   97POPC   C4B 1657   4.153   2.381   6.577  0.3577  0.1910 -0.1673
   98POPC   NC3 1658   4.079  10.370   9.840  0.2760  0.1890  0.1494
   98POPC   PO4 1659   3.814  10.333   9.445  0.1247  0.0360 -0.1893
   98POPC   GL1 1660   4.102  10.291   9.072 -0.0584 -0.0080 -0.0480
   98POPC   GL2 1661   4.409  10.432   9.000  0.0192  0.3101  0.3416
   98POPC   C1A 1662   4.201   9.907   8.850  0.0660  0.2494  0.1460
   98POPC   D2A 1663   4.244   9.753   8.483  0.2010  0.0030  0.0150
   98POPC   C3A 1664   4.651   9.738   8.325 -0.1558  0.3084  0.3001
   98POPC   C4A 1665   4.947   9.773   8.072 -0.5037 -0.0871 -0.2254
   98POPC   C1B 1666   4.181  10.497   8.595  0.1225 -0.2677 -0.2731
   98POPC   C2B 1667   4.147  10.227   8.278 -0.0852 -0.2685  0.0462
   98POPC   C3B 1668   4.069  10.292   7.849 -0.0064 -0.0011 -0.1487
   98POPC   C4B 1669   3.909  10.600   7.785 -0.2241  0.1004  0.1512
   99POPC   NC3 1670   8.346   4.381   8.497  0.3459  0.3520 -0.0979
   99POPC   PO4 1671   8.649   3.992   8.684  0.2902  0.1326 -0.0248
   99POPC   GL1 1672   8.838   4.230   8.285  0.2460  0.1387 -0.0116
   99POPC   GL2 1673   9.020   3.955   8.229  0.4206  0.0329 -0.3413
   99POPC   C1A 1674   8.893   4.680   7.995 -0.1129  0.0700  0.1582
   99POPC   D2A 1675   9.069   4.701   7.578 -0.1724 -0.0116  0.0630
   99POPC   C3A 1676   8.947   4.976   7.329 -0.4186  0.2035  0.3476
   99POPC   C4A 1677   9.156   5.380   7.151  0.3099  0.1287  0.0353
   99POPC   C1B 1678   9.087   4.171   7.840 -0.2414  0.5172  0.2649
   99POPC   C2B 1679   9.089   4.211   7.361  0.0827  0.1544  0.0983
   99POPC   C3B 1680   8.765   4.338   6.989  0.1902 -0.2801 -0.0338
   99POPC   C4B 1681   8.735   4.584   6.643  0.0375 -0.2346  0.0801
  100POPC   NC3 1682   1.455   9.067   9.124 -0.1775 -0.1301 -0.0889
  100POPC   PO4 1683   1.278   9.305   8.813  0.0783  0.3257 -0.0132
  100POPC   GL1 1684   1.181   9.461   8.391  0.3109 -0.1334 -0.0721
  100POPC   GL2 1685   0.848   9.560   8.320  0.0031 -0.2235 -0.1518
  100POPC   C1A 1686   1.020   9.170   7.992 -0.2015 -0.2121 -0.2173
  100POPC   D2A 1687   0.679   9.048   7.775  0.3560 -0.3834  0.2597
  100POPC   C3A 1688   0.645   8.642   7.599 -0.2058  0.1623 -0.0380
  100POPC   C4A 1689   0.327   8.254   7.526 -0.0314 -0.2381 -0.0690
  100POPC   C1B 1690   0.901   9.634   7.868  0.5416 -0.2197  0.1777
  100POPC   C2B 1691   0.910   9.396   7.399  0.0936 -0.0558 -0.4572
  100POPC   C3B 1692   1.045   9.328   6.987 -0.4116  0.0052  0.2997
  100POPC   C4B 1693   0.900   9.121   6.682  0.0591  0.2107 -0.0560
  101POPC   NC3 1694   6.682   0.406   9.443  0.1380  0.0317  0.2394
  101POPC   PO4 1695   7.030   0.686   9.551 -0.0826 -0.0835  0.0923
  101POPC   GL1 1696   6.927   0.712   9.043  0.1783 -0.3123  0.0565
  101POPC   GL2 1697   7.079   0.489   8.796  0.2137  0.0079 -0.1965
  101POPC   C1A 1698   6.757   0.860   8.658  0.2951 -0.0118  0.4178
  101POPC   D2A 1699   6.641   0.872   8.254 -0.0582 -0.1871  0.3091
  101POPC   C3A 1700   6.379   1.018   7.938 -0.0588 -0.0754 -0.0351
  101POPC   C4A 1701   6.294   1.114   7.492 -0.0994 -0.0178 -0.2122
  101POPC   C1B 1702   7.103   0.687   8.408 -0.0244 -0.3678  0.0978
  101POPC   C2B 1703   7.224   0.880   8.046 -0.1602 -0.1247  0.1484
  101POPC   C3B 1704   7.250   1.079   7.697 -0.4161  0.1819  0.0541
  101POPC   C4B 1705   7.287   0.926   7.247  0.5570  0.1124 -0.1086
  102POPC   NC3 1706   0.886   6.331   9.027 -0.0429  0.1733 -0.1216
  102POPC   PO4 1707   1.259   6.428   8.833 -0.2893 -0.0561 -0.2805
  102POPC   GL1 1708   1.152   6.459   8.425 -0.0255  0.1408 -0.0014
  102POPC   GL2 1709   0.787   6.353   8.334 -0.1298  0.1115 -0.1114
  102POPC   C1A 1710   1.304   6.616   7.945 -0.2227 -0.0497 -0.0971
  102POPC   D2A 1711   1.153   7.046   7.836  0.1110 -0.1096 -0.0813
  102POPC   C3A 1712   1.399   7.323   7.813 -0.1589 -0.0945 -0.0397
  102POPC   C4A 1713   1.602   7.505   7.410 -0.2327 -0.0835 -0.2127
  102POPC   C1B 1714   1.011   6.254   7.996 -0.2534  0.2273 -0.2517
  102POPC   C2B 1715   1.141   6.000   7.745 -0.2068  0.1406 -0.1302
  102POPC   C3B 1716   1.369   5.890   7.327  0.3225  0.1311 -0.1274
  102POPC   C4B 1717   1.631   5.981   6.940 -0.2477 -0.0112 -0.1005
  103POPC   NC3 1718   8.630   6.110   9.170 -0.4098 -0.1808  0.1575
  103POPC   PO4 1719   8.954   6.335   9.182  0.3002 -0.2872  0.0867
  103POPC   GL1 1720   8.828   6.180   8.721  0.1246  0.0421 -0.0002
  103POPC   GL2 1721   8.567   6.189   8.462  0.0562 -0.0311 -0.1833
  103POPC   C1A 1722   9.068   6.197   8.277  0.0186 -0.2038  0.2680
  103POPC   D2A 1723   8.834   6.230   7.939 -0.1302 -0.0259  0.0962
  103POPC   C3A 1724   8.937   6.502   7.718  0.0117  0.1541  0.1045
  103POPC   C4A 1725   8.749   6.716   7.406  0.0248 -0.0518 -0.1433
  103POPC   C1B 1726   8.439   6.513   8.115  0.2306  0.2792  0.2379
  103POPC   C2B 1727   8.299   6.467   7.777  0.0266  0.1103  0.3705
  103POPC   C3B 1728   8.318   6.859   7.462 -0.1024 -0.0548  0.0416
  103POPC   C4B 1729   8.046   6.914   7.136 -0.2466  0.0733  0.0150
  104POPC   NC3 1730   2.865   9.760   9.528  0.3765  0.2848  0.1903
  104POPC   PO4 1731   3.133  10.047   9.283  0.0030  0.0212  0.0347
  104POPC   GL1 1732   3.483  10.177   9.073 -0.1066 -0.0776 -0.0021
  104POPC   GL2 1733   3.563   9.897   8.904 -0.0115 -0.0684 -0.4807
  104POPC   C1A 1734   3.635  10.367   8.625  0.1079 -0.0629 -0.0379
  104POPC   D2A 1735   3.680  10.646   8.265  0.0415 -0.3083  0.1005
  104POPC   C3A 1736   3.281  10.717   8.249  0.0966 -0.0509 -0.1052
  104POPC   C4A 1737   3.023  10.693   7.823  0.1200 -0.5204  0.0486
  104POPC   C1B 1738   3.740   9.939   8.509 -0.0511  0.1894 -0.0459
  104POPC   C2B 1739   3.833   9.872   8.085 -0.2551 -0.2913 -0.1148
  104POPC   C3B 1740   3.788  10.015   7.542  0.3249 -0.0152 -0.1130
  104POPC   C4B 1741   3.847   9.985   7.119 -0.0526 -0.0959  0.3108
  105POPC   NC3 1742   4.865   2.215   8.447 -0.2487  0.0277 -0.3959
  105POPC   PO4 1743   5.108   2.627   8.545 -0.0924 -0.1328  0.1153
  105POPC   GL1 1744   5.266   2.424   8.195  0.3363 -0.0887  0.1795
  105POPC   GL2 1745   4.938   2.504   8.041 -0.1149 -0.3737  0.0431
  105POPC   C1A 1746   5.591   2.285   7.909 -0.0141  0.1169  0.0349
  105POPC   D2A 1747   5.806   2.182   7.525  0.0858  0.2356  0.1731
  105POPC   C3A 1748   5.993   2.359   7.160  0.0095  0.0575  0.4292
  105POPC   C4A 1749   6.320   2.694   7.325  0.0613 -0.2234 -0.1322
  105POPC   C1B 1750   4.679   2.683   7.685  0.3463 -0.0949  0.4151
  105POPC   C2B 1751   4.516   3.029   7.357  0.1384  0.3699 -0.0095
  105POPC   C3B 1752   4.117   3.173   7.014 -0.1246 -0.1951 -0.2972
  105POPC   C4B 1753   3.783   3.440   7.069  0.0905  0.0573 -0.0844
  106POPC   NC3 1754   0.329   9.343   9.191 -0.0814 -0.0012 -0.1528
  106POPC   PO4 1755   0.028   9.618   9.039  0.3028  0.0129 -0.0557
  106POPC   GL1 1756  -0.141   9.618   8.651 -0.0185  0.0890 -0.0705
  106POPC   GL2 1757  -0.388   9.433   8.554  0.2104  0.0541  0.2708
  106POPC   C1A 1758  -0.101   9.632   8.207  0.1163 -0.5157  0.4002
  106POPC   D2A 1759  -0.165   9.462   7.825 -0.2202 -0.0116  0.0410
  106POPC   C3A 1760  -0.435   9.732   7.550  0.0473 -0.1545  0.1431
  106POPC   C4A 1761  -0.563  10.069   7.331 -0.2732  0.1832  0.0307
  106POPC   C1B 1762  -0.543   9.163   8.193  0.1951  0.3195 -0.0460
  106POPC   C2B 1763  -0.376   8.799   7.883  0.1403 -0.0033  0.2333
  106POPC   C3B 1764  -0.266   8.307   7.787 -0.0812  0.1197 -0.1111
  106POPC   C4B 1765  -0.041   7.900   7.613  0.0063  0.1836  0.2328
  107POPC   NC3 1766   9.748   3.402   8.386 -0.1386 -0.0994  0.0855
  107POPC   PO4 1767   9.330   3.419   8.404  0.1505  0.2876 -0.1363
  107POPC   GL1 1768   9.417   3.388   7.999 -0.0670 -0.1216  0.0446
  107POPC   GL2 1769   9.684   3.063   7.974  0.3900  0.3670  0.2464
  107POPC   C1A 1770   9.281   3.620   7.759  0.1687 -0.4784  0.1001
  107POPC   D2A 1771   9.146   3.633   7.317  0.2247  0.1234 -0.0428
  107POPC   C3A 1772   9.484   3.512   7.040  0.3482 -0.3360  0.3406
  107POPC   C4A 1773   9.719   3.225   6.935  0.0316 -0.0519  0.1976
  107POPC   C1B 1774  10.029   2.889   7.627 -0.1381 -0.0661  0.1849
  107POPC   C2B 1775  10.264   3.089   7.247  0.2691  0.1505 -0.4391
  107POPC   C3B 1776  10.202   3.346   6.901  0.1510 -0.4986  0.1312
  107POPC   C4B 1777  10.413   3.717   6.673  0.1045  0.1934 -0.2025
  108POPC   NC3 1778   9.745   4.897   8.996  0.1732  0.3649  0.2014
  108POPC   PO4 1779   9.932   4.519   8.895  0.0941  0.1417 -0.1871
  108POPC   GL1 1780  10.165   4.570   8.466 -0.0977 -0.2135 -0.2337
  108POPC   GL2 1781   9.996   4.375   8.210  0.3388 -0.1654  0.4154
  108POPC   C1A 1782  10.485   4.370   8.207 -0.4661  0.2875 -0.0262
  108POPC   D2A 1783  10.688   4.074   8.077 -0.1761 -0.2296 -0.0914
  108POPC   C3A 1784  10.960   3.998   8.239 -0.1948 -0.1093 -0.2452
  108POPC   C4A 1785  11.346   4.284   8.162  0.0663 -0.1181 -0.1470
  108POPC   C1B 1786   9.804   4.515   7.816  0.2120  0.1465  0.0527
  108POPC   C2B 1787   9.635   4.645   7.466 -0.4556  0.2629  0.0049
  108POPC   C3B 1788   9.604   4.536   7.127  0.2996 -0.1403 -0.2963
  108POPC   C4B 1789   9.239   4.474   6.922  0.1648  0.0693 -0.1216
  109POPC   NC3 1790   7.154   7.048   9.921 -0.1255  0.1802  0.1184
  109POPC   PO4 1791   7.044   7.477   9.930  0.1129 -0.0326  0.2325
  109POPC   GL1 1792   7.015   7.758   9.554  0.1515 -0.0634 -0.1249
  109POPC   GL2 1793   6.704   7.762   9.478 -0.1544 -0.2674  0.0238
  109POPC   C1A 1794   7.134   7.664   9.114  0.0976  0.0063 -0.2667
  109POPC   D2A 1795   7.500   7.665   8.887 -0.0869  0.0903 -0.4212
  109POPC   C3A 1796   7.453   7.653   8.481 -0.4004  0.2118  0.0568
  109POPC   C4A 1797   7.760   7.601   8.138 -0.2989 -0.0082 -0.0953
  109POPC   C1B 1798   6.620   7.790   9.094 -0.3236 -0.1121  0.3390
  109POPC   C2B 1799   6.447   7.795   8.623 -0.1424 -0.2193 -0.0236
  109POPC   C3B 1800   6.698   7.685   8.270 -0.2373 -0.2809  0.1921
  109POPC   C4B 1801   7.094   7.452   8.200 -0.1198 -0.2477  0.0801
  110POPC   NC3 1802   0.304   7.255   9.578 -0.2817  0.1746  0.0640
  110POPC   PO4 1803  -0.061   7.243   9.206 -0.1443  0.0381 -0.2010
  110POPC   GL1 1804   0.015   7.032   8.684 -0.1713 -0.0960 -0.1600
  110POPC   GL2 1805   0.321   7.094   8.495  0.0570 -0.0245  0.3119
  110POPC   C1A 1806  -0.207   7.163   8.240  0.0178 -0.2126 -0.0777
  110POPC   D2A 1807  -0.486   7.298   7.997  0.0497 -0.1027  0.3146
  110POPC   C3A 1808  -0.208   7.424   7.653 -0.0275 -0.1660 -0.3076
  110POPC   C4A 1809   0.068   7.440   7.340 -0.1473 -0.1639  0.0101
  110POPC   C1B 1810   0.140   7.439   8.356 -0.0204 -0.1712  0.0946
  110POPC   C2B 1811  -0.241   7.635   8.296  0.3415 -0.0831 -0.2374
  110POPC   C3B 1812  -0.185   7.963   8.181  0.1521 -0.0679  0.2628
  110POPC   C4B 1813  -0.021   8.415   8.238  0.4375  0.1735  0.2525
  111POPC   NC3 1814   3.683   6.527   9.440 -0.0458  0.0714  0.0972
  111POPC   PO4 1815   3.581   6.120   9.378 -0.0079  0.1976  0.0262
  111POPC   GL1 1816   3.618   6.226   9.004  0.0693 -0.0561 -0.2165
  111POPC   GL2 1817   3.931   6.286   8.881 -0.1732 -0.2414 -0.0923
  111POPC   C1A 1818   3.568   6.092   8.585 -0.1951  0.1326 -0.2582
  111POPC   D2A 1819   3.345   6.149   8.225 -0.0053  0.0338 -0.1751
  111POPC   C3A 1820   3.351   5.989   7.833 -0.2990  0.2330 -0.3129
  111POPC   C4A 1821   3.347   5.782   7.394  0.0083 -0.1901 -0.3078
  111POPC   C1B 1822   4.119   6.154   8.387  0.2438 -0.2865 -0.0761
  111POPC   C2B 1823   4.028   6.511   8.264  0.0472 -0.2627  0.0623
  111POPC   C3B 1824   4.134   6.754   7.861  0.3543 -0.3923 -0.0338
  111POPC   C4B 1825   4.508   6.786   7.510 -0.3471 -0.0937 -0.5379
  112POPC   NC3 1826   5.962   9.998  10.065 -0.0667 -0.0849 -0.1025
  112POPC   PO4 1827   5.966  10.510   9.880  0.3052  0.1392 -0.0662
  112POPC   GL1 1828   5.970  10.350   9.511  0.0519  0.0803  0.0670
  112POPC   GL2 1829   6.170  10.562   9.349  0.0084  0.1112  0.0877
  112POPC   C1A 1830   5.807  10.133   9.225  0.0139 -0.0737  0.2112
  112POPC   D2A 1831   6.012   9.905   8.866  0.2130 -0.0443 -0.0998
  112POPC   C3A 1832   6.105  10.224   8.486  0.1340  0.1235 -0.0650
  112POPC   C4A 1833   6.161  10.037   8.107  0.2274 -0.0687 -0.0043
  112POPC   C1B 1834   6.388  10.296   8.975  0.0819 -0.0313 -0.0239
  112POPC   C2B 1835   6.544  10.002   8.503  0.0984 -0.1794 -0.0708
  112POPC   C3B 1836   6.480   9.649   8.262 -0.3434  0.0805 -0.4284
  112POPC   C4B 1837   6.459   9.307   8.415 -0.1911  0.2206 -0.1907
  113POPC   NC3 1838   6.958   3.341   8.541 -0.0136  0.3378  0.0179
  113POPC   PO4 1839   7.241   3.631   8.546 -0.2660  0.0692 -0.1257
  113POPC   GL1 1840   7.085   3.873   8.280  0.0113 -0.4069 -0.0039
  113POPC   GL2 1841   6.816   3.663   8.139 -0.0041  0.2791 -0.1125
  113POPC   C1A 1842   6.906   4.182   8.055 -0.2864 -0.1211  0.0321
  113POPC   D2A 1843   6.983   4.587   7.751 -0.2196 -0.0461 -0.3112
  113POPC   C3A 1844   6.969   4.733   7.336  0.3121 -0.0920 -0.2070
  113POPC   C4A 1845   6.989   5.052   6.997 -0.2629  0.0391 -0.2911
  113POPC   C1B 1846   6.826   3.788   7.752  0.0940 -0.0205 -0.1231
  113POPC   C2B 1847   6.851   4.134   7.477  0.0990 -0.0297  0.1628
  113POPC   C3B 1848   7.073   4.338   7.076  0.1644  0.2080  0.3160
  113POPC   C4B 1849   7.385   4.105   6.837 -0.0897 -0.0977  0.0943
  114POPC   NC3 1850   0.125   3.482   9.213  0.3219  0.1780 -0.3078
  114POPC   PO4 1851   0.291   3.414   8.727 -0.0583 -0.0301 -0.0872
  114POPC   GL1 1852   0.112   3.399   8.414  0.0948 -0.2026 -0.0496
  114POPC   GL2 1853  -0.208   3.574   8.429  0.0554  0.0891  0.1811
  114POPC   C1A 1854   0.084   3.544   7.925  0.2963 -0.1996  0.0355
  114POPC   D2A 1855   0.454   3.563   7.696 -0.0570 -0.2475  0.3068
  114POPC   C3A 1856   0.570   3.696   7.313 -0.0346 -0.0453  0.0193
  114POPC   C4A 1857   0.454   3.828   6.836 -0.0577 -0.2300 -0.1169
  114POPC   C1B 1858  -0.307   3.901   8.157  0.2217 -0.0312  0.1547
  114POPC   C2B 1859  -0.235   4.124   7.759  0.2246 -0.3395 -0.1155
  114POPC   C3B 1860  -0.312   4.297   7.288 -0.1583  0.0993 -0.2201
  114POPC   C4B 1861  -0.406   4.633   7.002  0.0547 -0.4578  0.1182
  115POPC   NC3 1862   1.072   0.163   8.574  0.1681 -0.1439 -0.2547
  115POPC   PO4 1863   0.905   0.595   8.767 -0.0449  0.0448 -0.0715
  115POPC   GL1 1864   0.923   0.578   8.380 -0.0003 -0.0915 -0.1562
  115POPC   GL2 1865   1.137   0.811   8.168  0.1873  0.1055  0.0203
  115POPC   C1A 1866   0.875   0.430   7.969  0.1139  0.0049 -0.2109
  115POPC   D2A 1867   1.053   0.089   7.755  0.0213  0.0423 -0.2209
  115POPC   C3A 1868   1.363  -0.188   7.806  0.1520  0.1631 -0.0211
  115POPC   C4A 1869   1.684  -0.424   7.831  0.0187 -0.0090 -0.0011
  115POPC   C1B 1870   1.350   0.517   7.747 -0.0708  0.1482  0.4464
  115POPC   C2B 1871   1.494   0.273   7.479 -0.1422  0.2632 -0.1520
  115POPC   C3B 1872   1.297   0.126   7.128  0.0324  0.1400  0.1057
  115POPC   C4B 1873   1.188  -0.012   6.711 -0.2687 -0.2816 -0.0981
  116POPC   NC3 1874   0.548   0.926   8.751 -0.0753  0.1120  0.1648
  116POPC   PO4 1875   0.138   0.728   8.773 -0.2720  0.0354 -0.0446
  116POPC   GL1 1876   0.103   0.890   8.362  0.0504  0.0954 -0.0088
  116POPC   GL2 1877  -0.008   1.138   8.282  0.2893 -0.0886  0.3051
  116POPC   C1A 1878  -0.017   0.705   7.919  0.0796 -0.1718 -0.1961
  116POPC   D2A 1879  -0.222   0.630   7.591 -0.3309  0.2619 -0.2803
  116POPC   C3A 1880  -0.504   0.851   7.316  0.1172 -0.1883 -0.1551
  116POPC   C4A 1881  -0.721   1.103   7.040 -0.1828  0.2533 -0.6357
  116POPC   C1B 1882  -0.007   1.211   7.913 -0.1287  0.0621 -0.0772
  116POPC   C2B 1883  -0.046   1.605   7.601  0.1493  0.0866  0.0699
  116POPC   C3B 1884   0.065   1.918   7.322  0.0024 -0.3046 -0.1072
  116POPC   C4B 1885   0.030   2.323   7.114  0.0526  0.2994  0.0655
  117POPC   NC3 1886   2.357   5.680   8.599 -0.1642  0.0157 -0.3279
  117POPC   PO4 1887   1.934   5.598   8.593 -0.1323 -0.2420 -0.0953
  117POPC   GL1 1888   2.075   5.552   8.148  0.0043 -0.4368  0.0579
  117POPC   GL2 1889   1.912   5.862   8.115 -0.0317  0.0119 -0.1352
  117POPC   C1A 1890   2.243   5.347   7.779  0.1232 -0.3428  0.2079
  117POPC   D2A 1891   2.588   5.398   7.522  0.1542  0.1770 -0.1869
  117POPC   C3A 1892   2.580   5.845   7.378 -0.2310  0.1752 -0.1535
  117POPC   C4A 1893   2.864   6.034   7.185  0.0264 -0.2547  0.0415
  117POPC   C1B 1894   1.647   5.795   7.768  0.1404 -0.0245  0.0434
  117POPC   C2B 1895   1.785   6.039   7.431  0.1954  0.0648 -0.0043
  117POPC   C3B 1896   2.093   6.116   7.224  0.2424 -0.2022 -0.0003
  117POPC   C4B 1897   2.411   6.336   7.200 -0.0214 -0.1570  0.1281
  118POPC   NC3 1898   6.587   2.039   8.745 -0.0043 -0.1685 -0.0890
  118POPC   PO4 1899   6.679   2.404   8.782 -0.2747  0.1988  0.2099
  118POPC   GL1 1900   6.851   2.344   8.437 -0.0560  0.2684 -0.0909
  118POPC   GL2 1901   7.089   2.073   8.428 -0.0448  0.2932  0.0975
  118POPC   C1A 1902   6.754   2.223   8.091 -0.2948  0.1397  0.0642
  118POPC   D2A 1903   6.881   2.094   7.667 -0.0048  0.0118 -0.1110
  118POPC   C3A 1904   7.381   1.969   7.507  0.1945 -0.1493 -0.1457
  118POPC   C4A 1905   7.419   1.828   7.016 -0.0671 -0.0849  0.0575
  118POPC   C1B 1906   6.765   1.754   8.053 -0.1186 -0.4361 -0.3343
  118POPC   C2B 1907   6.593   1.632   7.617  0.1081 -0.0278 -0.1781
  118POPC   C3B 1908   6.215   1.609   7.397 -0.1745  0.0658 -0.1979
  118POPC   C4B 1909   6.110   1.375   7.072  0.2239  0.2420 -0.1713
  119POPC   NC3 1910   7.638  10.045   9.624 -0.0198 -0.2877 -0.1637
  119POPC   PO4 1911   8.031  10.057   9.317 -0.1105  0.1304 -0.1753
  119POPC   GL1 1912   8.023   9.757   8.998 -0.1435  0.2342 -0.1027
  119POPC   GL2 1913   8.227   9.785   8.740  0.4943 -0.0986  0.0589
  119POPC   C1A 1914   8.067   9.333   8.742  0.0588  0.0540 -0.0370
  119POPC   D2A 1915   8.229   9.115   8.396  0.0709 -0.1566  0.4021
  119POPC   C3A 1916   8.697   8.995   8.471  0.1938  0.2194  0.0721
  119POPC   C4A 1917   9.005   8.874   8.189  0.0400 -0.0923 -0.2974
  119POPC   C1B 1918   8.129   9.607   8.307 -0.1064  0.0925 -0.3384
  119POPC   C2B 1919   8.147   9.315   7.916  0.1386 -0.0177  0.0592
  119POPC   C3B 1920   7.950   9.028   7.503  0.2014  0.0983 -0.0265
  119POPC   C4B 1921   7.907   8.995   7.053 -0.1644 -0.0029  0.0332
  120POPC   NC3 1922  10.059   7.418   8.903 -0.0901  0.3265 -0.2702
  120POPC   PO4 1923   9.990   7.014   8.979 -0.0964 -0.2250 -0.1816
  120POPC   GL1 1924   9.902   7.008   8.567 -0.2442  0.1179 -0.1496
  120POPC   GL2 1925  10.041   6.758   8.391 -0.1240  0.1240  0.0177
  120POPC   C1A 1926   9.645   6.973   8.251 -0.1064 -0.0245 -0.0556
  120POPC   D2A 1927   9.496   7.355   7.970 -0.1783 -0.0055 -0.4048
  120POPC   C3A 1928   9.565   7.773   7.696 -0.1578 -0.2374 -0.3542
  120POPC   C4A 1929   9.412   8.012   7.433 -0.0231  0.1741 -0.1212
  120POPC   C1B 1930  10.068   6.814   8.010  0.2519 -0.1290 -0.1931
  120POPC   C2B 1931   9.742   6.981   7.702 -0.2008  0.1966 -0.1219
  120POPC   C3B 1932   9.473   7.175   7.408 -0.0652  0.2202  0.3239
  120POPC   C4B 1933   9.045   7.102   7.230  0.2070  0.1476 -0.1848
  121POPC   NC3 1934   9.713   8.377   9.819  0.2255 -0.2242 -0.0379
  121POPC   PO4 1935   9.750   8.678   9.458  0.0570  0.1041  0.1193
  121POPC   GL1 1936   9.397   8.476   9.212 -0.0183 -0.1218 -0.2347
  121POPC   GL2 1937   9.103   8.227   9.111  0.1201  0.0400 -0.3280
  121POPC   C1A 1938   9.533   8.266   8.772 -0.0637  0.4757  0.1845
  121POPC   D2A 1939   9.545   7.930   8.426 -0.1495 -0.2420  0.2833
  121POPC   C3A 1940   9.830   7.790   8.103 -0.0256  0.0720 -0.0417
  121POPC   C4A 1941  10.048   7.842   7.814 -0.2848 -0.2086  0.0926
  121POPC   C1B 1942   9.065   8.160   8.661  0.1948  0.0390 -0.2001
  121POPC   C2B 1943   8.892   7.964   8.393  0.4525 -0.2090  0.0288
  121POPC   C3B 1944   8.768   8.022   8.026 -0.1261  0.0304 -0.1535
  121POPC   C4B 1945   8.425   8.198   7.754  0.0117 -0.1261 -0.1587
  122POPC   NC3 1946   0.337   5.713   9.368  0.2794  0.0012  0.0242
  122POPC   PO4 1947   0.407   6.043   9.042 -0.1323 -0.0593 -0.0103
  122POPC   GL1 1948   0.649   5.989   8.627  0.1361 -0.3396  0.1543
  122POPC   GL2 1949   0.833   5.783   8.689 -0.0216 -0.1978 -0.1968
  122POPC   C1A 1950   0.588   5.906   8.179  0.0011 -0.2347 -0.2331
  122POPC   D2A 1951   0.608   5.966   7.798  0.1232  0.0430  0.1944
  122POPC   C3A 1952   0.827   6.377   7.568  0.0920 -0.1988 -0.2373
  122POPC   C4A 1953   0.850   6.781   7.460 -0.4040 -0.1039  0.0249
  122POPC   C1B 1954   1.145   5.850   8.454 -0.2163 -0.0932  0.3744
  122POPC   C2B 1955   1.254   5.638   8.072  0.0417  0.1130 -0.0411
  122POPC   C3B 1956   1.176   5.426   7.579 -0.1814  0.1238 -0.1179
  122POPC   C4B 1957   1.192   5.401   7.125  0.1578 -0.1939  0.0206
  123POPC   NC3 1958   3.018   4.194   8.933 -0.0221 -0.1293  0.2682
  123POPC   PO4 1959   2.904   4.651   9.122 -0.0118  0.2234  0.2217
  123POPC   GL1 1960   3.118   4.635   8.673  0.1359  0.0573 -0.0103
  123POPC   GL2 1961   3.416   4.732   8.627  0.0397  0.3468  0.0978
  123POPC   C1A 1962   2.962   4.361   8.326  0.0301  0.1746  0.3760
  123POPC   D2A 1963   2.867   4.083   7.875  0.2472 -0.0283 -0.1098
  123POPC   C3A 1964   2.820   4.224   7.363 -0.0092  0.0490 -0.3585
  123POPC   C4A 1965   2.522   4.136   6.964 -0.1100 -0.1896 -0.0532
  123POPC   C1B 1966   3.650   4.922   8.362 -0.4373 -0.4364  0.0813
  123POPC   C2B 1967   3.606   4.882   7.985  0.4087  0.2110  0.4147
  123POPC   C3B 1968   3.577   4.811   7.459  0.2274 -0.0523  0.2201
  123POPC   C4B 1969   3.766   4.559   7.186 -0.0116 -0.0303 -0.1186
  124POPC   NC3 1970   2.489   9.180   8.767 -0.1587  0.1927  0.0150
  124POPC   PO4 1971   2.769   9.255   8.879 -0.0095  0.3305  0.3650
  124POPC   GL1 1972   2.908   9.345   8.471 -0.0866  0.0287  0.1371
  124POPC   GL2 1973   3.090   9.099   8.423  0.5272 -0.1627  0.0230
  124POPC   C1A 1974   2.925   9.630   8.303  0.1010 -0.0394  0.1996
  124POPC   D2A 1975   3.249   9.764   8.153  0.1756  0.1534 -0.0768
  124POPC   C3A 1976   3.349   9.857   7.689 -0.1534  0.0818 -0.2061
  124POPC   C4A 1977   3.325  10.110   7.311 -0.1035  0.2087  0.1731
  124POPC   C1B 1978   3.219   9.276   8.058 -0.0801  0.0097  0.0250
  124POPC   C2B 1979   3.660   9.507   7.846  0.0820 -0.2240  0.1331
  124POPC   C3B 1980   4.076   9.606   7.537 -0.2180 -0.2783  0.1404
  124POPC   C4B 1981   4.333   9.971   7.474  0.1116  0.1127  0.0675
  125POPC   NC3 1982   7.716   8.665   9.827  0.0695  0.0430  0.1498
  125POPC   PO4 1983   7.352   8.419   9.578 -0.1463 -0.0968  0.1569
  125POPC   GL1 1984   7.043   8.294   9.361  0.1403 -0.1245  0.2246
  125POPC   GL2 1985   6.728   8.226   9.366  0.0540 -0.2952  0.0093
  125POPC   C1A 1986   6.901   8.168   8.953 -0.1455  0.0024 -0.2072
  125POPC   D2A 1987   6.981   7.914   8.731 -0.1484 -0.0334  0.3743
  125POPC   C3A 1988   6.938   7.568   8.687  0.1011  0.0725 -0.0289
  125POPC   C4A 1989   6.930   7.141   8.534 -0.1703 -0.2456 -0.0510
  125POPC   C1B 1990   6.874   8.698   9.141 -0.0590 -0.0718 -0.0519
  125POPC   C2B 1991   7.068   9.005   8.911 -0.0323 -0.0075  0.0807
  125POPC   C3B 1992   7.119   9.171   8.459  0.2226  0.2982 -0.3587
  125POPC   C4B 1993   7.305   9.431   8.103  0.1123 -0.2063  0.1917
  126POPC   NC3 1994   5.823   3.399   8.458 -0.0023 -0.0530  0.0201
  126POPC   PO4 1995   5.860   3.735   8.335  0.1292 -0.0874 -0.2218
  126POPC   GL1 1996   5.797   3.628   7.932 -0.1436  0.0342  0.2592
  126POPC   GL2 1997   5.897   3.272   7.984 -0.1367  0.1754  0.0752
  126POPC   C1A 1998   6.066   3.499   7.471 -0.2504 -0.3063 -0.3016
  126POPC   D2A 1999   6.294   3.183   7.226  0.0119  0.1100  0.0165
  126POPC   C3A 2000   6.722   3.180   7.030 -0.0789 -0.2229  0.4021
  126POPC   C4A 2001   6.939   3.112   6.649 -0.2865  0.1752 -0.0202
  126POPC   C1B 2002   6.299   3.155   7.838 -0.0236  0.0428 -0.0460
  126POPC   C2B 2003   6.663   3.253   7.632 -0.0923  0.0772 -0.1059
  126POPC   C3B 2004   6.867   3.552   7.309 -0.0619  0.1150  0.2704
  126POPC   C4B 2005   6.736   3.858   7.053  0.3723 -0.0217  0.0001
  127POPC   NC3 2006   9.113   0.603   8.454  0.2904 -0.0208  0.4101
  127POPC   PO4 2007   9.209   1.015   8.450  0.1163 -0.3475  0.1077
  127POPC   GL1 2008   9.355   0.914   7.992 -0.3863 -0.1703  0.1463
  127POPC   GL2 2009   9.294   0.604   7.943 -0.0198 -0.1223  0.1661
  127POPC   C1A 2010   9.443   0.938   7.566 -0.1450  0.2207  0.1580
  127POPC   D2A 2011   9.302   1.208   7.202 -0.2093  0.1158 -0.0464
  127POPC   C3A 2012   9.257   0.990   6.848 -0.3345  0.2054 -0.0574
  127POPC   C4A 2013   9.442   0.889   6.520 -0.4734 -0.1483 -0.0687
  127POPC   C1B 2014   9.266   0.264   7.641 -0.1102 -0.3016  0.1774
  127POPC   C2B 2015   8.947   0.261   7.296 -0.0788 -0.0177 -0.1360
  127POPC   C3B 2016   8.561   0.194   7.044 -0.1340  0.0292  0.2902
  127POPC   C4B 2017   8.575   0.367   6.611  0.0918  0.0025 -0.1020
  128POPC   NC3 2018  10.265   0.307   8.924 -0.0733 -0.2140 -0.0281
  128POPC   PO4 2019   9.756   0.396   8.721 -0.2554 -0.2535 -0.1665
  128POPC   GL1 2020  10.076   0.372   8.439  0.0157 -0.1559 -0.0326
  128POPC   GL2 2021   9.919   0.436   8.075  0.0126  0.1594 -0.1286
  128POPC   C1A 2022  10.528   0.296   8.301  0.1478 -0.0686 -0.0649
  128POPC   D2A 2023  10.506   0.065   7.885 -0.1730 -0.0021  0.0782
  128POPC   C3A 2024  10.173  -0.059   7.714 -0.1086  0.0233  0.1092
  128POPC   C4A 2025  10.043   0.097   7.240  0.1057  0.1036  0.1329
  128POPC   C1B 2026   9.719   0.523   7.638 -0.2463  0.1642  0.2413
  128POPC   C2B 2027   9.553   0.623   7.179 -0.1341 -0.0857 -0.0389
  128POPC   C3B 2028   9.349   0.475   6.808 -0.3392  0.2051 -0.2875
  128POPC   C4B 2029   9.485   0.029   6.527  0.2678  0.0331  0.1374
  129POPC   NC3 2030   2.936   8.701   8.755  0.1952 -0.0177  0.0623
  129POPC   PO4 2031   2.512   8.467   8.647 -0.0533 -0.1429 -0.0720
  129POPC   GL1 2032   2.609   8.359   8.223  0.1639 -0.3397  0.1208
  129POPC   GL2 2033   2.558   8.015   8.158  0.1154  0.0610 -0.2722
  129POPC   C1A 2034   2.729   8.278   7.807  0.0417 -0.1149  0.1878
  129POPC   D2A 2035   2.769   8.510   7.547  0.3883  0.1978 -0.0648
  129POPC   C3A 2036   3.172   8.523   7.454  0.0301 -0.1531 -0.1461
  129POPC   C4A 2037   3.342   8.450   7.053  0.2933 -0.1128 -0.2627
  129POPC   C1B 2038   2.562   7.826   7.744  0.1877  0.0651  0.2964
  129POPC   C2B 2039   2.856   7.906   7.431 -0.0014  0.1035  0.0929
  129POPC   C3B 2040   3.286   7.987   7.414  0.0199  0.0051  0.2360
  129POPC   C4B 2041   3.719   8.171   7.322 -0.0992  0.1816 -0.0965
  130POPC   NC3 2042   5.816   1.564   8.857  0.3318  0.4429  0.1838
  130POPC   PO4 2043   5.750   1.931   8.672 -0.0851 -0.4219  0.2574
  130POPC   GL1 2044   5.600   1.615   8.382 -0.1869 -0.0578 -0.0300
  130POPC   GL2 2045   5.670   1.215   8.500 -0.1525  0.2828 -0.1417
  130POPC   C1A 2046   5.388   1.459   8.025  0.0793  0.2899  0.1537
  130POPC   D2A 2047   5.399   1.327   7.683  0.1001 -0.3700 -0.2118
  130POPC   C3A 2048   5.212   1.394   7.259 -0.3267  0.1249 -0.0063
  130POPC   C4A 2049   5.205   1.051   6.964 -0.0111  0.0257 -0.2493
  130POPC   C1B 2050   5.797   1.110   8.136  0.0004  0.1221  0.1045
  130POPC   C2B 2051   5.857   1.019   7.736  0.1309  0.1516 -0.1341
  130POPC   C3B 2052   5.522   0.949   7.332 -0.2884 -0.1715  0.2627
  130POPC   C4B 2053   5.594   0.603   6.977 -0.2645  0.0297  0.1214
  131POPC   NC3 2054   0.317   1.944   8.840  0.1534  0.2617 -0.0788
  131POPC   PO4 2055  -0.100   2.165   8.821  0.2010 -0.1349 -0.0421
  131POPC   GL1 2056  -0.069   1.837   8.465  0.0294 -0.0246  0.0586
  131POPC   GL2 2057  -0.287   1.940   8.360 -0.4651  0.0302 -0.0146
  131POPC   C1A 2058   0.104   1.619   8.127 -0.1717 -0.1067 -0.1582
  131POPC   D2A 2059   0.423   1.841   7.721 -0.0508  0.1954 -0.0291
  131POPC   C3A 2060   0.439   1.610   7.241  0.0098 -0.0602 -0.0567
  131POPC   C4A 2061   0.546   1.707   6.802  0.2519 -0.2670 -0.0022
  131POPC   C1B 2062  -0.058   2.085   7.953 -0.0711 -0.1423 -0.1078
  131POPC   C2B 2063   0.241   2.339   7.659  0.3003  0.1884 -0.2587
  131POPC   C3B 2064   0.550   2.702   7.531  0.0590  0.2134 -0.0761
  131POPC   C4B 2065   0.798   2.474   7.086 -0.0342 -0.3404 -0.4664
  132POPC   NC3 2066   3.678   8.419   9.787 -0.0478 -0.2939  0.2719
  132POPC   PO4 2067   3.913   8.067   9.752  0.0564  0.1218 -0.1500
  132POPC   GL1 2068   3.871   8.101   9.338  0.1598 -0.1104  0.1352
  132POPC   GL2 2069   4.193   8.118   9.197  0.0993 -0.1276  0.0180
  132POPC   C1A 2070   3.896   8.293   8.890  0.0441  0.0929 -0.1508
  132POPC   D2A 2071   4.040   8.234   8.393  0.1041 -0.0366  0.0615
  132POPC   C3A 2072   4.321   7.928   8.327  0.1511  0.0118  0.2735
  132POPC   C4A 2073   4.472   7.771   7.818 -0.3040  0.0156  0.0126
  132POPC   C1B 2074   4.128   7.872   8.784 -0.2954  0.1871 -0.0793
  132POPC   C2B 2075   3.776   7.823   8.514  0.2564  0.1595 -0.0586
  132POPC   C3B 2076   3.603   8.059   8.156  0.2624  0.0819 -0.0796
  132POPC   C4B 2077   3.536   8.267   7.803  0.0836  0.1594  0.2041
  133POPC   NC3 2078   8.851   4.810   9.076 -0.0481  0.1992  0.1725
  133POPC   PO4 2079   8.590   4.956   8.850 -0.0213  0.0001  0.1626
  133POPC   GL1 2080   8.355   5.043   8.466  0.1434 -0.3249 -0.0089
  133POPC   GL2 2081   8.500   4.759   8.284 -0.2413  0.3997 -0.1670
  133POPC   C1A 2082   8.173   5.219   8.210  0.0785  0.0523 -0.1756
  133POPC   D2A 2083   7.915   5.351   7.892 -0.2098  0.0346 -0.0349
  133POPC   C3A 2084   7.485   5.416   7.834 -0.2721  0.2609  0.0635
  133POPC   C4A 2085   7.084   5.562   7.883 -0.0161 -0.0658 -0.0100
  133POPC   C1B 2086   8.437   4.924   7.777  0.1664 -0.3242 -0.1526
  133POPC   C2B 2087   8.459   5.212   7.422  0.1978 -0.2818 -0.0939
  133POPC   C3B 2088   8.588   5.286   7.029 -0.0392 -0.0043 -0.2097
  133POPC   C4B 2089   8.389   5.449   6.757 -0.3550  0.2256 -0.0388
  134POPC   NC3 2090   7.758   3.650   8.559  0.1151 -0.0106 -0.0293
  134POPC   PO4 2091   8.084   3.921   8.552 -0.3045  0.1361  0.2363
  134POPC   GL1 2092   8.444   3.954   8.198 -0.1232 -0.3332  0.0210
  134POPC   GL2 2093   8.406   4.257   8.025  0.3506  0.3119  0.0075
  134POPC   C1A 2094   8.626   3.784   7.713  0.2400 -0.1749  0.1113
  134POPC   D2A 2095   8.670   3.868   7.312  0.0696 -0.0211  0.1255
  134POPC   C3A 2096   8.370   3.695   7.137  0.0411  0.0191  0.5177
  134POPC   C4A 2097   7.989   3.684   6.976 -0.1820  0.1379 -0.0651
  134POPC   C1B 2098   8.648   4.393   7.679  0.2322 -0.0367  0.0117
  134POPC   C2B 2099   8.593   4.633   7.350 -0.2338 -0.0826 -0.0800
  134POPC   C3B 2100   8.308   4.718   7.037  0.1337 -0.2440  0.1171
  134POPC   C4B 2101   7.898   5.083   6.834  0.1858 -0.0803  0.0801
  135POPC   NC3 2102   3.207   6.879   9.598  0.0189 -0.1862  0.0813
  135POPC   PO4 2103   3.193   6.665   9.207 -0.5075  0.1010 -0.0748
  135POPC   GL1 2104   3.147   6.754   8.788  0.0760  0.1835 -0.0124
  135POPC   GL2 2105   3.167   6.490   8.618 -0.0432 -0.0380  0.0616
  135POPC   C1A 2106   3.316   6.966   8.509 -0.1034  0.0334 -0.2632
  135POPC   D2A 2107   3.296   7.155   8.096  0.0782 -0.3306  0.2555
  135POPC   C3A 2108   3.702   7.021   7.834  0.1608  0.2126  0.1106
  135POPC   C4A 2109   3.991   6.922   7.420 -0.0413  0.0531  0.0556
  135POPC   C1B 2110   2.961   6.503   8.237  0.0360 -0.3322  0.0764
  135POPC   C2B 2111   3.068   6.479   7.855  0.1712 -0.1004  0.1240
  135POPC   C3B 2112   3.250   6.339   7.464 -0.1357 -0.0646  0.0789
  135POPC   C4B 2113   3.369   6.126   7.073 -0.1240  0.1812 -0.0339
  136POPC   NC3 2114   5.603   2.906   8.522 -0.1457 -0.0986  0.0166
  136POPC   PO4 2115   6.043   2.959   8.452 -0.2913 -0.2506 -0.0272
  136POPC   GL1 2116   5.991   2.786   7.987 -0.2406 -0.0590 -0.1384
  136POPC   GL2 2117   5.572   2.840   8.024  0.0193 -0.3910 -0.0012
  136POPC   C1A 2118   5.835   2.765   7.579  0.0679 -0.0400  0.3239
  136POPC   D2A 2119   5.750   3.022   7.269  0.2913  0.2826 -0.1674
  136POPC   C3A 2120   5.881   3.167   6.970  0.0647  0.1168 -0.0295
  136POPC   C4A 2121   6.106   3.222   6.706 -0.2206  0.1552 -0.1440
  136POPC   C1B 2122   5.309   2.680   7.757  0.2608 -0.0128  0.0938
  136POPC   C2B 2123   5.144   2.313   7.562  0.2675  0.1484  0.0882
  136POPC   C3B 2124   5.007   1.993   7.341 -0.0095 -0.0227  0.0998
  136POPC   C4B 2125   4.941   1.637   7.657 -0.1374 -0.2347 -0.1984
  137POPC   NC3 2126   3.021   8.119   9.639  0.2197 -0.0586  0.0107
  137POPC   PO4 2127   3.281   8.343   9.494  0.1676 -0.0260  0.2003
  137POPC   GL1 2128   3.364   8.298   9.008  0.3577 -0.1490  0.2954
  137POPC   GL2 2129   3.399   8.599   8.894 -0.0159 -0.1910  0.0608
  137POPC   C1A 2130   3.367   8.148   8.622 -0.0979  0.0855  0.0175
  137POPC   D2A 2131   3.108   8.246   8.258  0.1970  0.0554 -0.0362
  137POPC   C3A 2132   3.295   8.675   8.069 -0.2257 -0.5256  0.2057
  137POPC   C4A 2133   3.474   8.828   7.820  0.0758 -0.2544  0.0802
  137POPC   C1B 2134   3.617   8.542   8.479 -0.0169 -0.2368  0.3219
  137POPC   C2B 2135   3.888   8.525   8.067 -0.1728 -0.1310  0.0921
  137POPC   C3B 2136   4.022   8.454   7.623  0.1777  0.0276 -0.3394
  137POPC   C4B 2137   4.279   8.110   7.438 -0.0173  0.4044 -0.3278
  138POPC   NC3 2138   7.991   2.795   8.564 -0.0275  0.1031 -0.0705
  138POPC   PO4 2139   7.940   3.203   8.571 -0.0492  0.0739 -0.0008
  138POPC   GL1 2140   7.543   3.257   8.384  0.0410 -0.2362 -0.2320
  138POPC   GL2 2141   7.590   3.405   8.141 -0.2977 -0.1074  0.0359
  138POPC   C1A 2142   7.477   2.950   8.135  0.3767  0.0864 -0.3644
  138POPC   D2A 2143   7.497   2.753   7.858 -0.1930 -0.0475 -0.2440
  138POPC   C3A 2144   7.381   3.017   7.602 -0.0461  0.1330 -0.1056
  138POPC   C4A 2145   7.260   3.257   7.289  0.3314  0.0007  0.3758
  138POPC   C1B 2146   7.680   3.440   7.655 -0.1042  0.0175 -0.1287
  138POPC   C2B 2147   7.795   3.740   7.443  0.0786 -0.0078 -0.3038
  138POPC   C3B 2148   7.749   4.110   7.256 -0.2456  0.2164 -0.1977
  138POPC   C4B 2149   7.799   4.565   7.303 -0.1388  0.0038 -0.0393
  139POPC   NC3 2150  10.481   2.629   9.048  0.1190 -0.0255 -0.2309
  139POPC   PO4 2151  10.108   2.753   8.843  0.1282 -0.1411  0.1127
  139POPC   GL1 2152  10.112   2.501   8.466 -0.1410  0.0887 -0.0289
  139POPC   GL2 2153  10.093   2.707   8.160 -0.0571  0.1286  0.4687
  139POPC   C1A 2154   9.902   2.208   8.125  0.1458 -0.0234 -0.0459
  139POPC   D2A 2155   9.761   1.911   7.839 -0.2692 -0.2768  0.0717
  139POPC   C3A 2156   9.737   1.836   7.390 -0.0692 -0.1432  0.1611
  139POPC   C4A 2157   9.703   1.727   7.026  0.1482  0.3578 -0.3175
  139POPC   C1B 2158  10.311   2.552   7.802 -0.2527 -0.0938 -0.2539
  139POPC   C2B 2159  10.533   2.705   7.466 -0.0940 -0.1218 -0.3702
  139POPC   C3B 2160  10.648   2.788   7.021  0.0757 -0.3588 -0.0382
  139POPC   C4B 2161  10.528   2.713   6.649 -0.1582  0.1335  0.3384
  140POPC   NC3 2162   8.990   0.277   8.880  0.1839  0.1382 -0.0524
  140POPC   PO4 2163   8.719  -0.015   8.886 -0.1110  0.0108  0.0479
  140POPC   GL1 2164   8.886   0.002   8.402 -0.1339 -0.0405  0.2980
  140POPC   GL2 2165   8.937   0.173   8.092  0.2320  0.1694  0.2941
  140POPC   C1A 2166   8.725  -0.238   7.870 -0.1402  0.2337 -0.1712
  140POPC   D2A 2167   8.735  -0.625   7.637 -0.0230  0.0900  0.2684
  140POPC   C3A 2168   8.533  -0.968   7.692 -0.1816 -0.0178  0.0599
  140POPC   C4A 2169   8.268  -1.096   7.412 -0.1326  0.2429 -0.2014
  140POPC   C1B 2170   8.843   0.510   7.821  0.0338  0.4871  0.0005
  140POPC   C2B 2171   8.955   0.843   7.631 -0.2310 -0.1325 -0.0262
  140POPC   C3B 2172   8.971   0.823   7.201 -0.1198  0.2785  0.0950
  140POPC   C4B 2173   8.850   0.622   6.959 -0.4521  0.2841  0.0399
  141POPC   NC3 2174   0.706   1.130   9.552 -0.1256  0.0326  0.1796
  141POPC   PO4 2175   0.659   1.484   9.140  0.0732  0.0840 -0.2772
  141POPC   GL1 2176   0.715   1.496   8.667  0.1929 -0.0318 -0.2129
  141POPC   GL2 2177   0.924   1.250   8.606  0.2810 -0.1524 -0.0311
  141POPC   C1A 2178   0.480   1.348   8.326 -0.1805  0.0866 -0.0535
  141POPC   D2A 2179   0.535   1.367   7.929  0.0030  0.3427  0.0581
  141POPC   C3A 2180   0.358   1.241   7.559  0.3480  0.1454  0.1562
  141POPC   C4A 2181  -0.027   1.126   7.396  0.2089 -0.1911 -0.0701
  141POPC   C1B 2182   0.988   1.293   8.170 -0.0043  0.1913 -0.1568
  141POPC   C2B 2183   0.951   1.406   7.682  0.0796 -0.0749 -0.0317
  141POPC   C3B 2184   0.816   1.300   7.266 -0.0189  0.0012 -0.1012
  141POPC   C4B 2185   0.623   0.848   7.079  0.0128  0.4225  0.2438
  142POPC   NC3 2186   7.436   0.562   9.747 -0.2061  0.3687 -0.1640
  142POPC   PO4 2187   7.726   0.231   9.717 -0.0737 -0.2771  0.1324
  142POPC   GL1 2188   7.661   0.061   9.361  0.1228  0.0105  0.1907
  142POPC   GL2 2189   7.744  -0.099   9.115  0.2456  0.1605 -0.2791
  142POPC   C1A 2190   7.282   0.032   8.999  0.0874  0.0075 -0.1822
  142POPC   D2A 2191   6.857  -0.051   8.837 -0.1035 -0.0725 -0.2077
  142POPC   C3A 2192   6.731   0.205   8.513 -0.1185 -0.0295 -0.0390
  142POPC   C4A 2193   6.455   0.466   8.021  0.1801  0.2951 -0.1577
  142POPC   C1B 2194   7.589  -0.310   8.806 -0.0136  0.0620  0.0993
  142POPC   C2B 2195   7.426  -0.327   8.341  0.4540 -0.0552  0.3214
  142POPC   C3B 2196   7.400  -0.563   7.916 -0.1646  0.4939 -0.1070
  142POPC   C4B 2197   7.341  -0.852   7.568  0.0079  0.1913  0.0824
  143POPC   NC3 2198  10.224   6.610   8.837  0.0089 -0.2173 -0.2302
  143POPC   PO4 2199   9.899   6.201   8.892 -0.2060  0.3059 -0.1259
  143POPC   GL1 2200   9.847   6.220   8.479  0.1960  0.0821  0.0423
  143POPC   GL2 2201   9.590   6.440   8.399  0.0768  0.1071 -0.2096
  143POPC   C1A 2202   9.859   6.087   8.151  0.2862 -0.0095  0.3740
  143POPC   D2A 2203   9.847   5.989   7.763  0.2221 -0.1269 -0.0523
  143POPC   C3A 2204  10.142   5.758   7.572 -0.1767 -0.1999 -0.0042
  143POPC   C4A 2205  10.395   5.732   7.247 -0.1512  0.1325 -0.2115
  143POPC   C1B 2206   9.635   6.512   7.954  0.1029 -0.2908 -0.0781
  143POPC   C2B 2207   9.486   6.612   7.444 -0.1019 -0.2830  0.0236
  143POPC   C3B 2208   9.133   6.496   7.205 -0.1941  0.4502  0.0774
  143POPC   C4B 2209   8.778   6.256   6.921  0.1289 -0.0250  0.0553
  144POPC   NC3 2210   6.618   9.878  10.093 -0.4681 -0.1105 -0.2538
  144POPC   PO4 2211   6.295  10.008   9.723  0.0456  0.2241 -0.2531
  144POPC   GL1 2212   6.367  10.020   9.349 -0.2614 -0.1386  0.2590
  144POPC   GL2 2213   6.509   9.740   9.255  0.4669  0.0928  0.0578
  144POPC   C1A 2214   6.759   9.964   8.959  0.1651 -0.4109  0.4512
  144POPC   D2A 2215   7.038  10.060   8.641  0.4623 -0.1427  0.1484
  144POPC   C3A 2216   6.977   9.805   8.311 -0.1113  0.1403 -0.3366
  144POPC   C4A 2217   6.893   9.744   7.877  0.2658  0.0473 -0.0298
  144POPC   C1B 2218   6.429   9.563   8.891  0.3707  0.0902  0.0783
  144POPC   C2B 2219   6.016   9.474   8.566 -0.3392 -0.1039 -0.0735
  144POPC   C3B 2220   5.936   9.509   8.214 -0.0653  0.0057  0.2071
  144POPC   C4B 2221   5.918   9.701   7.775 -0.0559  0.4997  0.1202
  145POPC   NC3 2222   6.694   1.632   9.606  0.1091  0.1122 -0.4097
  145POPC   PO4 2223   6.629   1.665   9.108 -0.1460 -0.1897  0.0493
  145POPC   GL1 2224   6.409   1.531   8.810 -0.2215  0.1276 -0.0216
  145POPC   GL2 2225   6.161   1.702   8.543 -0.0135 -0.2502 -0.1081
  145POPC   C1A 2226   6.474   1.364   8.326  0.0356 -0.1722 -0.1251
  145POPC   D2A 2227   6.261   1.527   7.943 -0.0839  0.0384 -0.3103
  145POPC   C3A 2228   5.862   1.551   7.739  0.0204 -0.4890 -0.0829
  145POPC   C4A 2229   5.724   1.443   7.361  0.1886  0.1963 -0.0926
  145POPC   C1B 2230   6.232   1.970   8.165 -0.1452  0.1621  0.1861
  145POPC   C2B 2231   6.315   2.040   7.695 -0.1267  0.1255 -0.2135
  145POPC   C3B 2232   6.550   2.213   7.319  0.0452  0.2680  0.1813
  145POPC   C4B 2233   6.937   2.335   7.214 -0.4639  0.0337  0.0657
  146POPC   NC3 2234   9.964   1.945   8.753 -0.2526 -0.0971  0.0058
  146POPC   PO4 2235  10.234   1.486   8.808 -0.0316  0.4203  0.1942
  146POPC   GL1 2236  10.033   1.335   8.385  0.1579 -0.0061 -0.0475
  146POPC   GL2 2237   9.736   1.254   8.317  0.2126 -0.1291  0.1376
  146POPC   C1A 2238  10.104   1.497   7.995 -0.2835 -0.0583 -0.0223
  146POPC   D2A 2239  10.028   1.396   7.516  0.0768 -0.0966 -0.0066
  146POPC   C3A 2240  10.185   1.584   7.137 -0.1278  0.2598 -0.1643
  146POPC   C4A 2241  10.575   1.697   6.928  0.0332  0.2037  0.3246
  146POPC   C1B 2242   9.624   1.279   7.858  0.2221 -0.2572 -0.0567
  146POPC   C2B 2243   9.346   1.558   7.642  0.0874  0.0499 -0.0470
  146POPC   C3B 2244   9.035   1.587   7.359 -0.1913 -0.3549 -0.1844
  146POPC   C4B 2245   8.883   1.437   6.867  0.0943  0.0516  0.1513
  147POPC   NC3 2246   7.467   2.189   9.174  0.1606 -0.2498 -0.2048
  147POPC   PO4 2247   7.508   1.940   8.734  0.0579  0.0477  0.2013
  147POPC   GL1 2248   7.496   1.723   8.330  0.4194 -0.0296  0.0256
  147POPC   GL2 2249   7.813   1.589   8.234 -0.0128  0.0857 -0.1646
  147POPC   C1A 2250   7.319   1.660   7.939 -0.0549  0.0616 -0.1313
  147POPC   D2A 2251   7.151   1.509   7.478 -0.0231 -0.0113  0.2960
  147POPC   C3A 2252   6.823   1.253   7.371  0.4166  0.2033 -0.0261
  147POPC   C4A 2253   6.752   0.876   7.140  0.1145 -0.0024 -0.2084
  147POPC   C1B 2254   7.831   1.661   7.836 -0.0271  0.4765 -0.2499
  147POPC   C2B 2255   7.637   1.503   7.511  0.0443 -0.2334  0.0267
  147POPC   C3B 2256   7.594   1.264   7.121 -0.1377 -0.2313  0.0109
  147POPC   C4B 2257   7.614   1.466   6.784  0.3322  0.2451  0.2534
  148POPC   NC3 2258   2.626   0.118   9.466  0.1141  0.4985  0.0443
  148POPC   PO4 2259   2.444   0.023   9.052 -0.0485 -0.0459 -0.0651
  148POPC   GL1 2260   2.534  -0.092   8.637  0.0141 -0.2381  0.4459
  148POPC   GL2 2261   2.292  -0.356   8.454 -0.0334  0.0114 -0.1638
  148POPC   C1A 2262   2.473   0.177   8.199 -0.0627  0.2102 -0.0282
  148POPC   D2A 2263   2.342   0.256   7.708 -0.2308 -0.2409  0.0647
  148POPC   C3A 2264   2.488  -0.130   7.494 -0.0784  0.0429 -0.0296
  148POPC   C4A 2265   2.775  -0.448   7.236  0.3761 -0.0879  0.2055
  148POPC   C1B 2266   2.570  -0.594   8.138  0.4139 -0.3135 -0.0431
  148POPC   C2B 2267   2.881  -0.762   7.750 -0.2104  0.0914  0.1089
  148POPC   C3B 2268   3.033  -0.900   7.371  0.0635  0.0372 -0.2459
  148POPC   C4B 2269   2.797  -1.135   7.092 -0.3430 -0.1964  0.3071
  149POPC   NC3 2270   9.137  10.267   8.757  0.2301  0.2846  0.1779
  149POPC   PO4 2271   9.478  10.233   8.692  0.0648  0.2236 -0.3111
  149POPC   GL1 2272   9.309  10.150   8.270  0.1497  0.0036 -0.3846
  149POPC   GL2 2273   8.982  10.047   8.302 -0.2765 -0.1529  0.0518
  149POPC   C1A 2274   9.263  10.210   7.840 -0.3107  0.1046  0.0679
  149POPC   D2A 2275   9.072  10.312   7.464 -0.1605 -0.1383 -0.2676
  149POPC   C3A 2276   9.043   9.915   7.173  0.0209 -0.0504 -0.1759
  149POPC   C4A 2277   9.036   9.634   6.743  0.1384 -0.2648  0.3237
  149POPC   C1B 2278   9.206   9.700   8.042 -0.1268  0.0654  0.2305
  149POPC   C2B 2279   9.077   9.479   7.670  0.3032  0.0855  0.1099
  149POPC   C3B 2280   8.824   9.373   7.221  0.0343  0.2296  0.1498
  149POPC   C4B 2281   8.767   9.190   6.833 -0.0214 -0.0898 -0.1425
  150POPC   NC3 2282   7.871   5.301   8.724 -0.6340 -0.0975  0.0254
  150POPC   PO4 2283   7.747   5.728   8.955 -0.1089 -0.2927  0.1447
  150POPC   GL1 2284   7.884   5.929   8.592 -0.1972  0.2718  0.0860
  150POPC   GL2 2285   8.173   5.890   8.474 -0.1151 -0.4618 -0.0989
  150POPC   C1A 2286   7.703   5.781   8.174 -0.1742  0.2480  0.1236
  150POPC   D2A 2287   7.724   5.917   7.712  0.2517  0.2155  0.0113
  150POPC   C3A 2288   7.447   5.734   7.438 -0.1825 -0.5027  0.3734
  150POPC   C4A 2289   7.465   5.360   7.023 -0.2158 -0.1227 -0.0727
  150POPC   C1B 2290   8.383   6.044   8.023 -0.0131 -0.0023  0.2107
  150POPC   C2B 2291   8.524   6.023   7.590 -0.0770 -0.1938 -0.1510
  150POPC   C3B 2292   8.964   6.042   7.416  0.2418 -0.3787  0.0548
  150POPC   C4B 2293   9.234   5.865   7.167 -0.2355  0.2370  0.2079
  151POPC   NC3 2294  10.373   4.300   9.023 -0.5113  0.1007  0.0007
  151POPC   PO4 2295  10.700   4.508   8.789 -0.1135  0.0035 -0.1806
  151POPC   GL1 2296  10.914   4.612   8.395 -0.6020 -0.1162 -0.0406
  151POPC   GL2 2297  11.167   4.865   8.341  0.3976 -0.2372 -0.0049
  151POPC   C1A 2298  10.909   4.540   7.899  0.2463  0.2677 -0.0566
  151POPC   D2A 2299  10.987   4.835   7.561  0.0544 -0.0254  0.0930
  151POPC   C3A 2300  10.761   5.171   7.529 -0.0002  0.1722  0.0358
  151POPC   C4A 2301  10.852   5.520   7.345  0.1040 -0.0847 -0.1181
  151POPC   C1B 2302  10.898   5.077   7.980  0.1161 -0.0484 -0.0428
  151POPC   C2B 2303  10.833   5.558   7.881 -0.0137  0.3504 -0.1608
  151POPC   C3B 2304  10.615   5.903   7.636  0.0249 -0.1766 -0.0617
  151POPC   C4B 2305  10.318   6.158   7.339 -0.1498  0.3383 -0.0962
  152POPC   NC3 2306   6.784   5.835   8.866  0.2788 -0.0216  0.5183
  152POPC   PO4 2307   6.941   5.470   8.678 -0.2054  0.3160 -0.0663
  152POPC   GL1 2308   6.987   5.373   8.281 -0.0099 -0.1276 -0.0218
  152POPC   GL2 2309   7.175   4.937   8.097 -0.1994 -0.0095  0.1828
  152POPC   C1A 2310   6.677   5.244   7.981 -0.1221  0.2463  0.0110
  152POPC   D2A 2311   6.212   5.435   7.911 -0.3523  0.0392 -0.1455
  152POPC   C3A 2312   6.078   5.662   7.566  0.1161 -0.1726 -0.0970
  152POPC   C4A 2313   6.263   5.813   7.259  0.1862  0.2981 -0.1672
  152POPC   C1B 2314   7.421   4.805   7.689  0.1713 -0.0110  0.0879
  152POPC   C2B 2315   7.393   4.918   7.303  0.2487 -0.1549 -0.1230
  152POPC   C3B 2316   7.407   4.769   6.922 -0.1697  0.1195  0.2038
  152POPC   C4B 2317   7.351   4.994   6.524  0.0901  0.1108  0.0309
  153POPC   NC3 2318   1.129   4.324   9.018 -0.0224  0.1110 -0.1974
  153POPC   PO4 2319   0.970   4.663   8.766 -0.0859 -0.1427 -0.1132
  153POPC   GL1 2320   1.154   4.660   8.358  0.1818  0.0482  0.1624
  153POPC   GL2 2321   1.401   4.932   8.460  0.0445  0.0181 -0.2372
  153POPC   C1A 2322   1.212   4.400   7.953  0.1244  0.2785 -0.1532
  153POPC   D2A 2323   1.097   4.066   7.652  0.1427  0.0051  0.0240
  153POPC   C3A 2324   1.203   4.015   7.164 -0.2346  0.0833  0.0564
  153POPC   C4A 2325   1.043   4.071   6.765  0.0665  0.1643 -0.3264
  153POPC   C1B 2326   1.130   5.085   8.099 -0.0838 -0.0222  0.0499
  153POPC   C2B 2327   0.894   4.771   7.788  0.6919  0.1522 -0.0874
  153POPC   C3B 2328   0.731   4.441   7.561  0.1826  0.1742 -0.1155
  153POPC   C4B 2329   0.558   4.060   7.759 -0.1555  0.0458  0.1585
  154POPC   NC3 2330   5.738   1.307   9.515  0.0942  0.0175  0.1028
  154POPC   PO4 2331   5.456   1.126   9.265 -0.2432 -0.0175 -0.4422
  154POPC   GL1 2332   5.431   0.849   8.963  0.2685  0.4890 -0.2304
  154POPC   GL2 2333   5.207   0.888   8.640  0.1710 -0.1788 -0.3240
  154POPC   C1A 2334   5.627   0.527   8.747 -0.1490 -0.1752  0.0021
  154POPC   D2A 2335   5.639   0.366   8.427  0.0221  0.1920  0.0476
  154POPC   C3A 2336   5.416   0.591   8.089  0.0048 -0.2873 -0.2421
  154POPC   C4A 2337   5.228   0.900   7.857  0.2328 -0.2178 -0.3179
  154POPC   C1B 2338   5.189   0.384   8.567  0.2635 -0.1161 -0.0127
  154POPC   C2B 2339   5.165  -0.013   8.403  0.0432 -0.0878  0.1232
  154POPC   C3B 2340   5.193  -0.309   7.949 -0.0143  0.2278  0.0942
  154POPC   C4B 2341   5.140  -0.219   7.473 -0.0899 -0.0362 -0.0498
  155POPC   NC3 2342   2.040   2.329   9.047 -0.0316 -0.1038 -0.3215
  155POPC   PO4 2343   1.933   2.623   8.744  0.4298  0.3603  0.3492
  155POPC   GL1 2344   1.862   2.826   8.274 -0.0067  0.0344 -0.0562
  155POPC   GL2 2345   1.881   2.585   8.051  0.0041  0.1445 -0.0420
  155POPC   C1A 2346   1.844   3.177   7.947 -0.3490 -0.1981 -0.0872
  155POPC   D2A 2347   1.686   3.280   7.574  0.0010 -0.2820  0.0817
  155POPC   C3A 2348   1.363   3.070   7.368  0.1989  0.2424  0.2005
  155POPC   C4A 2349   1.126   2.997   7.067 -0.1901 -0.0775  0.1923
  155POPC   C1B 2350   1.938   2.319   7.739  0.1401 -0.3066  0.0360
  155POPC   C2B 2351   1.933   2.392   7.244  0.0783  0.4071  0.2624
  155POPC   C3B 2352   1.911   1.992   7.043 -0.0381 -0.0304  0.0595
  155POPC   C4B 2353   2.053   1.571   6.801 -0.1213  0.0388  0.2578
  156POPC   NC3 2354   0.651   7.829   8.963 -0.1373 -0.0922 -0.0457
  156POPC   PO4 2355   0.647   8.342   8.923 -0.2684  0.1790 -0.2911
  156POPC   GL1 2356   0.471   8.394   8.483 -0.1914  0.2962  0.1075
  156POPC   GL2 2357   0.733   8.316   8.264 -0.2593 -0.0909 -0.1657
  156POPC   C1A 2358   0.433   8.701   8.122 -0.2868 -0.0786 -0.1753
  156POPC   D2A 2359   0.157   8.663   7.834  0.1019 -0.0031  0.0809
  156POPC   C3A 2360   0.004   8.992   7.645 -0.0950 -0.1040 -0.2735
  156POPC   C4A 2361   0.287   9.291   7.459  0.1506  0.0211  0.1525
  156POPC   C1B 2362   0.856   8.224   7.873 -0.1598 -0.0595  0.2662
  156POPC   C2B 2363   0.798   8.194   7.412 -0.3903 -0.1924 -0.4425
  156POPC   C3B 2364   0.588   8.424   7.102  0.1528  0.2448  0.2128
  156POPC   C4B 2365   0.292   8.807   7.280 -0.2665  0.0528  0.0175
  157POPC   NC3 2366   3.240   4.641   9.509  0.1103  0.3155 -0.3374
  157POPC   PO4 2367   3.339   4.917   9.171  0.1393  0.2366 -0.1673
  157POPC   GL1 2368   3.319   5.215   8.771 -0.1035 -0.3354 -0.0630
  157POPC   GL2 2369   3.626   5.338   8.810 -0.0026  0.0303  0.2487
  157POPC   C1A 2370   3.418   5.348   8.359  0.0016  0.1183 -0.0675
  157POPC   D2A 2371   3.856   5.294   8.054  0.9278 -0.1055 -0.0883
  157POPC   C3A 2372   3.964   5.575   7.690 -0.0825 -0.2596 -0.1147
  157POPC   C4A 2373   3.970   5.645   7.161 -0.1156 -0.1721 -0.0090
  157POPC   C1B 2374   3.926   5.683   8.459  0.1147  0.0770 -0.1063
  157POPC   C2B 2375   3.843   5.973   7.998 -0.3811  0.1000 -0.1066
  157POPC   C3B 2376   3.937   6.135   7.547  0.0484  0.2836  0.1274
  157POPC   C4B 2377   4.197   6.422   7.385  0.2296 -0.3114  0.2665
  158POPC   NC3 2378   5.658   4.564   8.341 -0.0866 -0.0525 -0.0999
  158POPC   PO4 2379   5.345   4.796   8.636 -0.0277 -0.0858 -0.1110
  158POPC   GL1 2380   5.182   4.795   8.241 -0.3197  0.0753  0.0287
  158POPC   GL2 2381   5.461   4.967   8.094  0.1043 -0.1566  0.1113
  158POPC   C1A 2382   5.061   4.605   7.830 -0.1768 -0.2021  0.2873
  158POPC   D2A 2383   5.022   4.632   7.437 -0.0097 -0.2034 -0.1166
  158POPC   C3A 2384   4.899   4.917   7.224  0.0697 -0.0494  0.1300
  158POPC   C4A 2385   4.790   5.263   7.305 -0.0649  0.1595 -0.1710
  158POPC   C1B 2386   5.272   5.336   8.010 -0.3369 -0.0196  0.3950
  158POPC   C2B 2387   5.082   5.550   7.671  0.0947 -0.1640  0.1896
  158POPC   C3B 2388   5.284   5.943   7.496  0.2005  0.5165 -0.2683
  158POPC   C4B 2389   5.387   6.228   7.168  0.0685 -0.1039  0.2535
  159POPC   NC3 2390   1.289   7.257   9.379 -0.0687 -0.1334 -0.0119
  159POPC   PO4 2391   0.881   7.446   9.166  0.2722 -0.0200  0.1372
  159POPC   GL1 2392   0.826   7.498   8.659 -0.2267 -0.3458  0.0006
  159POPC   GL2 2393   0.853   7.810   8.426  0.2215  0.0193  0.2975
  159POPC   C1A 2394   0.666   7.371   8.171 -0.0688  0.1877  0.0782
  159POPC   D2A 2395   0.674   7.195   7.708  0.2332  0.0594 -0.1397
  159POPC   C3A 2396   1.028   7.217   7.376 -0.0089 -0.1138 -0.1760
  159POPC   C4A 2397   1.340   7.304   7.016  0.2065 -0.2973  0.0687
  159POPC   C1B 2398   0.786   7.778   7.956 -0.2069  0.1479  0.3999
  159POPC   C2B 2399   0.604   7.706   7.521 -0.2158  0.2873  0.0175
  159POPC   C3B 2400   0.431   7.881   7.107  0.2768  0.1379  0.0070
  159POPC   C4B 2401   0.345   7.784   6.834 -0.1015 -0.0106  0.2165
  160POPC   NC3 2402   6.569   6.687   9.300  0.2359 -0.1301 -0.2048
  160POPC   PO4 2403   6.868   6.283   9.048  0.0376  0.1151  0.3402
  160POPC   GL1 2404   6.762   6.351   8.598  0.3037 -0.5305  0.0433
  160POPC   GL2 2405   6.544   6.144   8.469 -0.0691 -0.2370  0.0305
  160POPC   C1A 2406   6.907   6.415   8.203  0.1304 -0.0167  0.1667
  160POPC   D2A 2407   6.891   6.114   7.921  0.2438 -0.1003 -0.2837
  160POPC   C3A 2408   7.041   6.010   7.532  0.1366 -0.1679 -0.0520
  160POPC   C4A 2409   6.752   6.041   7.142  0.2500  0.0406  0.1037
  160POPC   C1B 2410   6.589   5.808   8.131  0.2451 -0.0047  0.0890
  160POPC   C2B 2411   6.598   5.682   7.677 -0.1429 -0.0431 -0.0423
  160POPC   C3B 2412   6.907   5.505   7.445  0.1066  0.0782 -0.0625
  160POPC   C4B 2413   7.018   5.121   7.592 -0.3490  0.1005  0.3180
  161POPC   NC3 2414   4.491   3.438   8.796  0.1250  0.0249  0.0642
  161POPC   PO4 2415   4.842   3.450   8.472 -0.1330  0.2285 -0.4972
  161POPC   GL1 2416   4.780   3.301   8.029  0.0406 -0.2705 -0.0787
  161POPC   GL2 2417   4.628   3.044   8.037 -0.0166  0.3212  0.3160
  161POPC   C1A 2418   4.978   3.031   7.732 -0.0036 -0.3667 -0.2908
  161POPC   D2A 2419   5.120   2.920   7.401 -0.0505  0.1123 -0.1259
  161POPC   C3A 2420   5.326   3.034   6.969  0.3204  0.2932  0.0364
  161POPC   C4A 2421   5.481   3.174   6.599  0.0024 -0.1275  0.0463
  161POPC   C1B 2422   4.458   3.436   7.744  0.1838 -0.1228  0.0145
  161POPC   C2B 2423   4.372   3.823   7.921  0.0094 -0.1078  0.0757
  161POPC   C3B 2424   4.412   4.203   7.805  0.1100 -0.1738  0.0962
  161POPC   C4B 2425   4.547   4.378   7.497 -0.2384  0.1133  0.0153
  162POPC   NC3 2426   9.307   9.075   9.417 -0.0955  0.0584 -0.1051
  162POPC   PO4 2427   9.704   9.164   9.356 -0.0917 -0.0589  0.0360
  162POPC   GL1 2428   9.932   8.904   9.004  0.1363 -0.1585 -0.1674
  162POPC   GL2 2429   9.903   9.001   8.715 -0.3103  0.0764  0.1585
  162POPC   C1A 2430   9.920   8.554   8.828  0.1685  0.0027 -0.3446
  162POPC   D2A 2431  10.014   8.173   8.483  0.0979  0.1925 -0.0438
  162POPC   C3A 2432   9.753   8.270   8.115  0.0267 -0.1910  0.0955
  162POPC   C4A 2433   9.784   8.339   7.683 -0.0441 -0.2126  0.1229
  162POPC   C1B 2434   9.602   8.865   8.437  0.0770  0.0237 -0.0899
  162POPC   C2B 2435   9.578   8.699   8.034 -0.1187 -0.1286  0.2106
  162POPC   C3B 2436   9.663   8.902   7.645 -0.1008  0.0751 -0.1924
  162POPC   C4B 2437  10.037   8.901   7.357  0.1941  0.0015 -0.0826
  163POPC   NC3 2438   8.821   8.636   9.850  0.0744 -0.4323 -0.0589
  163POPC   PO4 2439   8.956   8.565   9.451  0.2680  0.3181 -0.2450
  163POPC   GL1 2440   8.966   8.710   9.035  0.2972  0.1821  0.1767
  163POPC   GL2 2441   8.620   8.881   8.991 -0.2607 -0.2953 -0.2297
  163POPC   C1A 2442   9.136   8.631   8.669 -0.1360 -0.0101  0.0037
  163POPC   D2A 2443   9.279   8.391   8.315  0.2223  0.1977  0.0724
  163POPC   C3A 2444   9.318   8.294   7.879 -0.2172  0.1136  0.0315
  163POPC   C4A 2445   9.331   8.494   7.453 -0.3635 -0.1352 -0.1246
  163POPC   C1B 2446   8.319   8.811   8.779  0.1617 -0.0141 -0.0726
  163POPC   C2B 2447   7.867   8.697   8.673  0.2807 -0.1230 -0.1628
  163POPC   C3B 2448   7.557   8.558   8.381 -0.5270  0.1515 -0.1116
  163POPC   C4B 2449   7.293   8.772   8.149 -0.0100 -0.0310 -0.2495
  164POPC   NC3 2450   8.205   0.010   9.350  0.0360 -0.1353 -0.0246
  164POPC   PO4 2451   8.478   0.377   9.091 -0.0311  0.0207 -0.0140
  164POPC   GL1 2452   8.127   0.094   8.780 -0.0196  0.1098 -0.0319
  164POPC   GL2 2453   8.087  -0.202   8.836 -0.3186 -0.1411 -0.0927
  164POPC   C1A 2454   7.704   0.109   8.547  0.1658  0.1325 -0.0206
  164POPC   D2A 2455   7.246   0.131   8.511 -0.0699  0.3458  0.5813
  164POPC   C3A 2456   6.905  -0.148   8.256 -0.1282  0.1434 -0.1041
  164POPC   C4A 2457   6.489  -0.094   8.188  0.0773 -0.0800 -0.0374
  164POPC   C1B 2458   8.010  -0.393   8.466 -0.2522  0.1330  0.1278
  164POPC   C2B 2459   7.875  -0.430   8.118 -0.0191 -0.2831  0.1468
  164POPC   C3B 2460   7.792  -0.858   7.957 -0.2892 -0.1491  0.1865
  164POPC   C4B 2461   7.652  -1.296   7.865  0.0055  0.1833 -0.0487
  165POPC   NC3 2462   1.422   0.555   8.524  0.2989  0.0238  0.0394
  165POPC   PO4 2463   1.608   0.051   8.528  0.1079 -0.1321  0.4825
  165POPC   GL1 2464   2.007  -0.049   8.254 -0.2545 -0.1152  0.2087
  165POPC   GL2 2465   1.827   0.076   7.970  0.1184  0.1811  0.4717
  165POPC   C1A 2466   2.162  -0.341   7.938 -0.0595  0.1521  0.2361
  165POPC   D2A 2467   2.146  -0.795   7.803  0.2977  0.0877 -0.1365
  165POPC   C3A 2468   1.746  -0.946   7.886 -0.0328 -0.1325  0.2888
  165POPC   C4A 2469   1.343  -1.003   7.648  0.0725 -0.0934 -0.1333
  165POPC   C1B 2470   1.987  -0.184   7.532  0.0752 -0.0601  0.0096
  165POPC   C2B 2471   2.233  -0.258   7.084 -0.0714 -0.0550 -0.1395
  165POPC   C3B 2472   2.575  -0.010   6.906 -0.1270 -0.0082  0.0451
  165POPC   C4B 2473   2.748   0.480   6.778 -0.0192 -0.0744  0.0146
  166POPC   NC3 2474   8.813   5.185   8.498 -0.2512  0.2013  0.0116
  166POPC   PO4 2475   8.785   5.678   8.684  0.3366 -0.0171 -0.0161
  166POPC   GL1 2476   8.807   5.665   8.292 -0.2875 -0.0480 -0.1168
  166POPC   GL2 2477   8.497   5.610   8.217  0.2968 -0.0336 -0.0681
  166POPC   C1A 2478   8.994   5.793   7.913 -0.2571 -0.0241  0.0002
  166POPC   D2A 2479   9.224   5.582   7.624 -0.1175  0.0095  0.0388
  166POPC   C3A 2480   9.407   5.173   7.458 -0.1241  0.1639 -0.2391
  166POPC   C4A 2481   9.413   4.960   7.016 -0.1194 -0.2024 -0.1825
  166POPC   C1B 2482   8.466   5.528   7.857  0.2414 -0.0557  0.0541
  166POPC   C2B 2483   8.148   5.684   7.610  0.1601  0.4546 -0.3205
  166POPC   C3B 2484   8.074   6.108   7.407  0.1700 -0.0707  0.2821
  166POPC   C4B 2485   8.337   6.453   7.236 -0.1711 -0.0491 -0.2900
  167POPC   NC3 2486   0.820   3.440   8.848  0.0199 -0.0933 -0.0205
  167POPC   PO4 2487   1.257   3.549   8.654  0.1471 -0.2871 -0.2757
  167POPC   GL1 2488   1.271   3.672   8.253 -0.1491 -0.0294 -0.0427
  167POPC   GL2 2489   1.545   3.462   8.209  0.3931  0.2937  0.0043
  167POPC   C1A 2490   1.304   3.577   7.802  0.0019  0.2854  0.1245
  167POPC   D2A 2491   1.115   3.533   7.342 -0.0725 -0.1917 -0.1453
  167POPC   C3A 2492   1.510   3.388   6.981  0.1832 -0.0308 -0.0830
  167POPC   C4A 2493   1.939   3.353   7.045 -0.1408  0.2205 -0.3555
  167POPC   C1B 2494   1.665   3.912   8.065 -0.0041  0.1997  0.2938
  167POPC   C2B 2495   2.051   4.023   7.841  0.2524  0.1722 -0.0551
  167POPC   C3B 2496   2.411   3.906   7.611 -0.0318 -0.3567  0.0650
  167POPC   C4B 2497   2.776   3.651   7.412  0.1045 -0.0840  0.2015
  168POPC   NC3 2498   7.343  10.337   4.206  0.2034 -0.0609  0.0909
  168POPC   PO4 2499   6.944  10.319   3.892 -0.0524  0.0622  0.0094
  168POPC   GL1 2500   6.933  10.025   4.262  0.2205  0.0971 -0.1694
  168POPC   GL2 2501   7.163   9.964   4.514 -0.0282  0.1008  0.1503
  168POPC   C1A 2502   6.662   9.874   4.523 -0.1572  0.0433 -0.0397
  168POPC   D2A 2503   6.262   9.972   4.345  0.3078 -0.3890  0.2481
  168POPC   C3A 2504   5.837   9.739   4.356  0.1334 -0.1744  0.0595
  168POPC   C4A 2505   5.534   9.394   4.573  0.0365 -0.2547  0.0176
  168POPC   C1B 2506   7.029   9.884   4.907  0.0519  0.1530  0.0805
  168POPC   C2B 2507   6.724   9.888   5.188 -0.1929 -0.4021 -0.0029
  168POPC   C3B 2508   6.422  10.046   5.461  0.0035 -0.1617 -0.0927
  168POPC   C4B 2509   6.119   9.966   5.709  0.1181  0.2302  0.2636
  169POPC   NC3 2510   0.535   5.790   4.850  0.2724 -0.2028  0.1788
  169POPC   PO4 2511   0.806   5.602   5.133 -0.3995  0.0375 -0.0807
  169POPC   GL1 2512   0.799   5.695   5.704 -0.3724  0.0248 -0.3989
  169POPC   GL2 2513   0.912   6.012   5.674 -0.1769 -0.0815  0.0886
  169POPC   C1A 2514   0.849   5.599   6.212 -0.2914  0.2472 -0.1492
  169POPC   D2A 2515   0.536   5.667   6.557  0.0132 -0.0833 -0.0911
  169POPC   C3A 2516   0.663   5.605   6.970  0.1510  0.3231  0.0541
  169POPC   C4A 2517   0.827   6.026   7.191  0.2830 -0.0973 -0.2056
  169POPC   C1B 2518   0.912   6.050   6.024 -0.0349 -0.3787 -0.1353
  169POPC   C2B 2519   0.741   6.104   6.450 -0.0637 -0.1784 -0.0491
  169POPC   C3B 2520   0.719   6.453   6.671  0.0528 -0.0508 -0.3237
  169POPC   C4B 2521   0.508   6.591   7.035  0.2536  0.2334 -0.0388
  170POPC   NC3 2522   1.859   2.035   5.133  0.0475  0.1450 -0.0277
  170POPC   PO4 2523   1.423   2.176   5.246 -0.0927 -0.2621  0.0188
  170POPC   GL1 2524   1.535   2.258   5.675 -0.2210 -0.0707  0.0938
  170POPC   GL2 2525   1.802   2.058   5.663 -0.0956 -0.1690  0.3112
  170POPC   C1A 2526   1.699   2.268   6.117  0.3008  0.1912  0.1609
  170POPC   D2A 2527   1.902   2.560   6.248 -0.2929  0.0900  0.1110
  170POPC   C3A 2528   2.048   2.865   6.681 -0.0103 -0.0085  0.2830
  170POPC   C4A 2529   2.060   2.829   7.126  0.1986 -0.3897  0.3103
  170POPC   C1B 2530   1.982   1.888   6.001  0.3921 -0.2531 -0.3528
  170POPC   C2B 2531   2.052   2.040   6.432  0.0636  0.1666  0.2105
  170POPC   C3B 2532   2.073   2.348   6.740  0.1154 -0.1402  0.1576
  170POPC   C4B 2533   2.488   2.302   7.004  0.0724 -0.2246  0.0503
  171POPC   NC3 2534   6.292   7.722   2.926  0.5668 -0.0469  0.1218
  171POPC   PO4 2535   6.541   8.124   3.023 -0.1582  0.1824 -0.0989
  171POPC   GL1 2536   6.441   8.333   3.416 -0.1010 -0.1635  0.3113
  171POPC   GL2 2537   6.162   8.221   3.556  0.2586 -0.1114  0.0761
  171POPC   C1A 2538   6.363   8.713   3.587  0.2644  0.5294 -0.2514
  171POPC   D2A 2539   6.124   8.943   3.853  0.3017 -0.0604 -0.1299
  171POPC   C3A 2540   6.337   9.072   4.288  0.0494  0.2735  0.2848
  171POPC   C4A 2541   6.372   9.006   4.636 -0.0981  0.2063  0.0050
  171POPC   C1B 2542   5.786   8.217   3.774 -0.0805 -0.2690 -0.1488
  171POPC   C2B 2543   5.634   7.879   4.059  0.0461 -0.0816  0.0179
  171POPC   C3B 2544   5.773   7.469   4.280 -0.0545  0.0046 -0.2085
  171POPC   C4B 2545   5.970   7.023   4.311  0.0904 -0.4285 -0.2390
  172POPC   NC3 2546   6.768   2.212   5.239  0.1491 -0.3570  0.1252
  172POPC   PO4 2547   7.074   2.495   5.048 -0.0922  0.0266 -0.1916
  172POPC   GL1 2548   7.256   2.270   5.328  0.0737 -0.0850 -0.1279
  172POPC   GL2 2549   7.105   2.256   5.584  0.3120  0.3298 -0.0945
  172POPC   C1A 2550   7.620   1.928   5.493  0.1278 -0.0992 -0.4546
  172POPC   D2A 2551   7.900   1.693   5.761 -0.2874  0.1474  0.1469
  172POPC   C3A 2552   8.298   1.905   5.806 -0.1905  0.0256  0.0114
  172POPC   C4A 2553   8.659   2.061   5.987  0.1665  0.2545 -0.1184
  172POPC   C1B 2554   6.925   1.940   5.789 -0.0614 -0.1125  0.0389
  172POPC   C2B 2555   6.954   1.504   6.030 -0.0347  0.1018  0.0854
  172POPC   C3B 2556   6.874   1.258   6.504 -0.0022 -0.0589 -0.0666
  172POPC   C4B 2557   6.574   1.256   6.894  0.1373  0.0261  0.1275
  173POPC   NC3 2558   4.303   2.362   4.679 -0.1275 -0.0793  0.0144
  173POPC   PO4 2559   3.964   2.427   4.977  0.1198 -0.1988  0.2043
  173POPC   GL1 2560   3.982   2.555   5.364  0.0857  0.1544 -0.2427
  173POPC   GL2 2561   3.712   2.653   5.510  0.3081  0.3917  0.0040
  173POPC   C1A 2562   4.255   2.395   5.736  0.0818 -0.1757  0.2971
  173POPC   D2A 2563   4.399   2.288   6.118  0.1021  0.1402 -0.0692
  173POPC   C3A 2564   4.761   2.436   6.195 -0.0632  0.1173  0.1535
  173POPC   C4A 2565   5.203   2.292   6.125 -0.0880 -0.0327 -0.0159
  173POPC   C1B 2566   4.035   2.885   5.709  0.0284 -0.1671 -0.1241
  173POPC   C2B 2567   4.189   2.730   6.135  0.1200  0.0377  0.0783
  173POPC   C3B 2568   4.288   2.862   6.577  0.0704 -0.0455  0.3487
  173POPC   C4B 2569   4.293   2.726   7.022 -0.0536  0.2143 -0.0234
  174POPC   NC3 2570   2.948   3.658   4.858 -0.3957 -0.0691 -0.0181
  174POPC   PO4 2571   2.664   3.724   5.175  0.2284 -0.1824 -0.3707
  174POPC   GL1 2572   2.823   3.765   5.591  0.2884  0.1179  0.0084
  174POPC   GL2 2573   2.732   3.553   5.649 -0.0950  0.4472 -0.1449
  174POPC   C1A 2574   2.971   3.958   6.074 -0.3080 -0.0108 -0.1241
  174POPC   D2A 2575   2.799   4.035   6.512  0.0386 -0.0280 -0.1710
  174POPC   C3A 2576   3.048   4.004   6.895 -0.0064  0.2764 -0.1329
  174POPC   C4A 2577   3.467   4.163   6.888 -0.1807  0.2268 -0.0032
  174POPC   C1B 2578   2.634   3.525   6.145 -0.1309 -0.0574  0.0137
  174POPC   C2B 2579   2.714   3.436   6.491 -0.0485  0.1218 -0.1394
  174POPC   C3B 2580   2.639   3.670   6.910 -0.2729  0.0141  0.0165
  174POPC   C4B 2581   2.321   3.670   7.166 -0.1517 -0.1741  0.1004
  175POPC   NC3 2582   4.990   6.671   3.776 -0.2517 -0.1919 -0.0477
  175POPC   PO4 2583   5.162   7.098   3.643  0.2679  0.1139 -0.2354
  175POPC   GL1 2584   5.023   7.135   4.057 -0.4802 -0.1793  0.1539
  175POPC   GL2 2585   5.134   6.745   4.272  0.0545 -0.1583  0.3379
  175POPC   C1A 2586   4.941   7.155   4.522 -0.0400 -0.4772  0.0193
  175POPC   D2A 2587   4.751   7.010   4.923  0.3012  0.0661 -0.2101
  175POPC   C3A 2588   4.604   6.565   4.934 -0.0691 -0.1951  0.0610
  175POPC   C4A 2589   4.472   6.201   5.065 -0.0700 -0.1068  0.0877
  175POPC   C1B 2590   5.481   7.089   4.379  0.0215  0.3113  0.0200
  175POPC   C2B 2591   5.576   7.339   4.747  0.0025  0.2178  0.2168
  175POPC   C3B 2592   5.320   7.605   5.078  0.0099 -0.0443  0.2849
  175POPC   C4B 2593   5.338   7.557   5.525  0.1065  0.0132  0.0743
  176POPC   NC3 2594   1.965   8.311   4.754  0.1625 -0.1289 -0.1244
  176POPC   PO4 2595   1.637   8.149   5.024  0.0989  0.1173 -0.3056
  176POPC   GL1 2596   1.896   8.187   5.393  0.0748 -0.0486  0.0387
  176POPC   GL2 2597   1.878   8.398   5.735 -0.2451 -0.0818 -0.1426
  176POPC   C1A 2598   2.305   8.252   5.611  0.1082  0.1776 -0.0085
  176POPC   D2A 2599   2.493   8.297   6.039  0.1784 -0.2321 -0.0732
  176POPC   C3A 2600   2.998   8.469   6.143 -0.2963 -0.2485 -0.0277
  176POPC   C4A 2601   3.473   8.567   6.270  0.0418 -0.1117  0.0749
  176POPC   C1B 2602   1.935   8.297   6.208  0.1176  0.2707  0.2017
  176POPC   C2B 2603   1.682   8.453   6.575  0.2455 -0.3160 -0.2014
  176POPC   C3B 2604   1.310   8.666   6.476 -0.3352 -0.1079 -0.1497
  176POPC   C4B 2605   0.846   8.562   6.503 -0.2699  0.0216 -0.5245
  177POPC   NC3 2606   0.962   0.385   5.250  0.0455 -0.2523  0.2807
  177POPC   PO4 2607   1.400   0.318   5.068  0.1525  0.0817  0.2421
  177POPC   GL1 2608   1.488   0.285   5.474 -0.0977 -0.0194 -0.0497
  177POPC   GL2 2609   1.302   0.568   5.582  0.4099  0.1116  0.0609
  177POPC   C1A 2610   1.486   0.139   5.820  0.0253  0.1416 -0.1245
  177POPC   D2A 2611   1.485   0.077   6.276 -0.1288 -0.0217 -0.1883
  177POPC   C3A 2612   1.343  -0.352   6.329 -0.1143 -0.1189  0.3529
  177POPC   C4A 2613   0.944  -0.425   6.239 -0.2464 -0.0892  0.0900
  177POPC   C1B 2614   1.006   0.791   5.895  0.4322  0.2308 -0.1703
  177POPC   C2B 2615   0.783   1.065   6.204  0.0350  0.3505 -0.1390
  177POPC   C3B 2616   0.831   0.831   6.587 -0.0693  0.2831 -0.1137
  177POPC   C4B 2617   0.909   0.513   6.863 -0.1530  0.0262 -0.0363
  178POPC   NC3 2618   1.885   1.808   4.495  0.1016 -0.3289  0.0673
  178POPC   PO4 2619   2.045   1.587   4.912 -0.0506 -0.1272 -0.1785
  178POPC   GL1 2620   1.927   1.557   5.430  0.2481  0.0417  0.0410
  178POPC   GL2 2621   2.290   1.442   5.470  0.2659 -0.1744 -0.2344
  178POPC   C1A 2622   1.671   1.614   5.833 -0.0470 -0.2246  0.2020
  178POPC   D2A 2623   1.518   1.758   6.234 -0.3755 -0.2665 -0.1752
  178POPC   C3A 2624   1.658   1.900   6.627  0.2196 -0.0703  0.0907
  178POPC   C4A 2625   1.277   2.048   6.995 -0.1614 -0.1018 -0.2649
  178POPC   C1B 2626   2.162   1.426   5.916 -0.0636 -0.0556  0.0287
  178POPC   C2B 2627   1.915   1.477   6.278 -0.0461  0.3898  0.0343
  178POPC   C3B 2628   1.660   1.376   6.603 -0.4321  0.3589 -0.0426
  178POPC   C4B 2629   1.747   1.166   7.008 -0.1273  0.1963 -0.2906
  179POPC   NC3 2630   3.616   0.575   4.717  0.1890  0.0782  0.0730
  179POPC   PO4 2631   4.051   0.789   4.749  0.1239  0.1677 -0.1220
  179POPC   GL1 2632   3.917   0.686   5.176  0.4873  0.0600  0.0201
  179POPC   GL2 2633   3.671   0.537   5.229 -0.1062 -0.1679  0.0082
  179POPC   C1A 2634   4.078   0.751   5.582  0.2696  0.0944  0.4367
  179POPC   D2A 2635   4.352   0.794   5.959  0.0699 -0.0745  0.0610
  179POPC   C3A 2636   4.185   0.691   6.418  0.3806  0.0466  0.1424
  179POPC   C4A 2637   3.810   0.476   6.507 -0.1016 -0.2494 -0.2889
  179POPC   C1B 2638   3.662   0.512   5.678  0.1408  0.0420  0.2991
  179POPC   C2B 2639   3.783   0.760   6.055 -0.0084  0.0724  0.1625
  179POPC   C3B 2640   3.740   0.977   6.410 -0.1936 -0.1312  0.2593
  179POPC   C4B 2641   3.933   1.014   6.775  0.0101 -0.0720  0.1946
  180POPC   NC3 2642   4.071   1.172   5.065 -0.1489 -0.4200  0.0541
  180POPC   PO4 2643   4.402   1.461   5.090 -0.3729  0.3057  0.0759
  180POPC   GL1 2644   4.604   1.403   5.488 -0.0677 -0.2677  0.3409
  180POPC   GL2 2645   4.453   1.040   5.410  0.0270  0.0632  0.0332
  180POPC   C1A 2646   4.752   1.290   5.970 -0.3115 -0.1802 -0.0281
  180POPC   D2A 2647   4.859   1.187   6.427  0.0695 -0.1652  0.1548
  180POPC   C3A 2648   5.305   1.262   6.549 -0.4162 -0.2741  0.0778
  180POPC   C4A 2649   5.513   1.499   6.858  0.3142 -0.0629  0.0902
  180POPC   C1B 2650   4.742   0.817   5.657  0.1552 -0.1475  0.1380
  180POPC   C2B 2651   4.897   0.686   6.046 -0.1106  0.0115  0.0675
  180POPC   C3B 2652   5.144   0.750   6.516  0.1764 -0.1345 -0.1187
  180POPC   C4B 2653   5.188   0.503   6.795 -0.2567 -0.3188  0.1942
  181POPC   NC3 2654   6.553  10.333   3.524  0.0051 -0.0461  0.0844
  181POPC   PO4 2655   6.261   9.989   3.481 -0.0281  0.3943  0.0818
  181POPC   GL1 2656   6.196   9.644   3.703 -0.4696 -0.1066 -0.2339
  181POPC   GL2 2657   5.881   9.412   3.666 -0.2482 -0.0597 -0.2119
  181POPC   C1A 2658   6.286   9.497   4.095  0.0693  0.1008  0.2542
  181POPC   D2A 2659   6.259   9.507   4.574  0.0992 -0.0217 -0.0922
  181POPC   C3A 2660   5.919   9.498   4.856 -0.0570  0.0698 -0.3744
  181POPC   C4A 2661   5.478   9.431   5.057 -0.2607  0.0940 -0.2214
  181POPC   C1B 2662   5.781   9.280   4.071  0.1338 -0.2489 -0.1680
  181POPC   C2B 2663   5.910   9.068   4.526  0.0293 -0.1416  0.3158
  181POPC   C3B 2664   5.749   8.914   4.860  0.4046 -0.1415 -0.0479
  181POPC   C4B 2665   5.483   8.816   5.136 -0.0461 -0.0529 -0.0722
  182POPC   NC3 2666   9.680   5.218   4.507 -0.0344  0.1654  0.0172
  182POPC   PO4 2667   9.504   5.373   4.851  0.0681 -0.0230 -0.1185
  182POPC   GL1 2668   9.345   5.586   5.276 -0.1947 -0.1472 -0.0890
  182POPC   GL2 2669   9.545   5.864   5.336 -0.0325 -0.2336  0.2885
  182POPC   C1A 2670   9.161   5.640   5.646  0.0197 -0.0623 -0.0080
  182POPC   D2A 2671   9.095   5.703   6.047  0.3179 -0.0644  0.0723
  182POPC   C3A 2672   9.407   5.574   6.355  0.3476 -0.0496 -0.1429
  182POPC   C4A 2673   9.492   5.596   6.842  0.1247  0.2415 -0.1306
  182POPC   C1B 2674   9.531   5.945   5.765 -0.2962 -0.0055  0.1793
  182POPC   C2B 2675   9.796   5.902   6.083  0.2649  0.0432 -0.2842
  182POPC   C3B 2676   9.893   5.730   6.478  0.1668 -0.3039 -0.1407
  182POPC   C4B 2677  10.022   5.514   6.894 -0.1962  0.1814 -0.2284
  183POPC   NC3 2678   2.670   4.130   4.920 -0.0554 -0.3031 -0.0479
  183POPC   PO4 2679   2.606   4.162   5.447 -0.0028 -0.0198  0.0029
  183POPC   GL1 2680   2.556   4.170   5.819 -0.0522 -0.1153 -0.0808
  183POPC   GL2 2681   2.422   3.925   5.865  0.0235 -0.0636 -0.2523
  183POPC   C1A 2682   2.589   4.415   6.169 -0.3688 -0.3706 -0.3625
  183POPC   D2A 2683   2.241   4.713   6.342  0.1614 -0.1351 -0.0481
  183POPC   C3A 2684   2.166   4.985   6.007 -0.0172 -0.1958  0.1170
  183POPC   C4A 2685   1.807   5.242   5.793  0.3467 -0.0888 -0.0252
  183POPC   C1B 2686   2.389   3.961   6.290 -0.2077 -0.0955 -0.0101
  183POPC   C2B 2687   2.216   3.834   6.703  0.3336  0.0766 -0.2181
  183POPC   C3B 2688   1.794   3.629   6.663 -0.1718  0.0691  0.2240
  183POPC   C4B 2689   1.429   3.834   6.530 -0.0682 -0.1056  0.1959
  184POPC   NC3 2690   0.894   1.458   4.665  0.0335  0.0203  0.0203
  184POPC   PO4 2691   0.762   1.135   4.969 -0.3899  0.0765 -0.0917
  184POPC   GL1 2692   0.878   1.396   5.367 -0.0484 -0.0762  0.1522
  184POPC   GL2 2693   0.593   1.334   5.439  0.0395  0.2645 -0.0639
  184POPC   C1A 2694   0.757   1.792   5.564  0.0294 -0.0038  0.0789
  184POPC   D2A 2695   0.460   1.908   5.995  0.4027 -0.0856  0.2768
  184POPC   C3A 2696   0.615   2.128   6.369  0.2006 -0.0873  0.3846
  184POPC   C4A 2697   0.860   2.088   6.742  0.2077  0.4148  0.0998
  184POPC   C1B 2698   0.627   1.431   5.845 -0.1489 -0.2032  0.1780
  184POPC   C2B 2699   0.829   1.616   6.200 -0.0052  0.0615 -0.1844
  184POPC   C3B 2700   1.139   1.723   6.611  0.0275  0.0339  0.0479
  184POPC   C4B 2701   1.294   1.517   6.938  0.3098 -0.0812  0.4902
  185POPC   NC3 2702   9.385   7.562   4.986  0.2524 -0.3463  0.3660
  185POPC   PO4 2703   9.193   7.862   5.215 -0.2509 -0.1354  0.3282
  185POPC   GL1 2704   9.161   7.586   5.617  0.0823 -0.2724 -0.2922
  185POPC   GL2 2705   8.959   7.328   5.573  0.1860 -0.1981  0.0070
  185POPC   C1A 2706   9.262   7.494   6.089 -0.0047  0.1723 -0.1381
  185POPC   D2A 2707   9.413   7.677   6.449 -0.2620  0.0412  0.1615
  185POPC   C3A 2708   9.385   8.174   6.497 -0.0245  0.3502  0.1222
  185POPC   C4A 2709   9.443   8.289   6.948 -0.3078 -0.0726 -0.0209
  185POPC   C1B 2710   8.915   7.090   5.917 -0.2087 -0.1557 -0.1813
  185POPC   C2B 2711   9.176   7.010   6.304 -0.0077  0.2860  0.1163
  185POPC   C3B 2712   9.037   7.213   6.718  0.2178 -0.1740 -0.0276
  185POPC   C4B 2713   9.312   7.419   6.975 -0.2308 -0.0499  0.1732
  186POPC   NC3 2714   1.422   8.810   4.753  0.1932 -0.3040  0.1254
  186POPC   PO4 2715   1.899   9.009   4.775  0.1549 -0.1046  0.2406
  186POPC   GL1 2716   2.086   9.035   5.119  0.2091 -0.1805  0.0869
  186POPC   GL2 2717   2.173   8.732   5.351 -0.2976 -0.3216  0.2771
  186POPC   C1A 2718   2.585   9.014   5.301 -0.0718 -0.1121  0.1021
  186POPC   D2A 2719   2.864   9.263   5.566 -0.3808  0.0699  0.0262
  186POPC   C3A 2720   3.353   9.132   5.656  0.2048 -0.0609 -0.0759
  186POPC   C4A 2721   3.625   8.984   5.960  0.0352 -0.1269  0.0491
  186POPC   C1B 2722   2.071   8.865   5.771  0.3369 -0.0865  0.0237
  186POPC   C2B 2723   2.150   8.733   6.183  0.1293 -0.3536 -0.0066
  186POPC   C3B 2724   2.245   8.510   6.659 -0.2066  0.0638  0.0753
  186POPC   C4B 2725   2.105   8.535   7.007  0.3182 -0.3572  0.2314
  187POPC   NC3 2726   8.700   9.414   4.750 -0.1983  0.1817 -0.0908
  187POPC   PO4 2727   8.223   9.553   4.670 -0.0940 -0.4265  0.2061
  187POPC   GL1 2728   8.229   9.477   5.065  0.1025 -0.1327 -0.0177
  187POPC   GL2 2729   8.265   9.789   5.195  0.0369 -0.0508 -0.1561
  187POPC   C1A 2730   8.443   9.295   5.432 -0.1486 -0.1192 -0.2352
  187POPC   D2A 2731   8.663   9.481   5.500  0.2104 -0.1594  0.2111
  187POPC   C3A 2732   8.640   9.926   5.517 -0.1937  0.2068 -0.2923
  187POPC   C4A 2733   8.227  10.246   5.443  0.0391 -0.0520  0.1657
  187POPC   C1B 2734   8.094   9.773   5.539 -0.1988 -0.1035 -0.3624
  187POPC   C2B 2735   7.961   9.339   5.608  0.4335  0.0501  0.0842
  187POPC   C3B 2736   7.886   9.071   5.842  0.2132  0.4437 -0.1796
  187POPC   C4B 2737   7.674   8.728   6.029  0.2232 -0.1590 -0.2572
  188POPC   NC3 2738   9.607   7.806   5.429  0.0729  0.0372  0.2288
  188POPC   PO4 2739   9.563   8.243   5.297  0.0441 -0.0969 -0.0684
  188POPC   GL1 2740   9.330   8.083   5.724 -0.0452 -0.5049 -0.0298
  188POPC   GL2 2741   9.047   8.340   5.851  0.0412 -0.0730  0.0190
  188POPC   C1A 2742   9.168   7.986   6.135  0.1262 -0.0363 -0.0734
  188POPC   D2A 2743   8.861   8.157   6.367 -0.2288 -0.0123 -0.3123
  188POPC   C3A 2744   8.645   8.013   6.679  0.1218 -0.0064 -0.2670
  188POPC   C4A 2745   8.716   7.605   6.917 -0.1142 -0.0679  0.0212
  188POPC   C1B 2746   9.207   8.515   6.162 -0.0542  0.1905  0.1328
  188POPC   C2B 2747   9.117   8.730   6.548 -0.1917  0.1548 -0.2257
  188POPC   C3B 2748   9.191   9.038   6.987  0.1500  0.1989  0.4933
  188POPC   C4B 2749   9.319   9.259   7.283 -0.0665  0.1722 -0.0138
  189POPC   NC3 2750   9.042   1.776   4.976 -0.1130 -0.3217 -0.1464
  189POPC   PO4 2751   9.057   2.228   4.856 -0.0380 -0.3387  0.3533
  189POPC   GL1 2752   8.804   2.180   5.226 -0.0541 -0.1703  0.2799
  189POPC   GL2 2753   8.882   2.437   5.413  0.0109 -0.1997 -0.3214
  189POPC   C1A 2754   8.700   1.875   5.544  0.0910 -0.1793 -0.1218
  189POPC   D2A 2755   8.739   1.542   5.873  0.1981 -0.3862  0.0418
  189POPC   C3A 2756   9.024   1.305   6.037 -0.1225  0.1468 -0.0495
  189POPC   C4A 2757   9.056   1.262   6.453 -0.0451  0.0747 -0.0398
  189POPC   C1B 2758   9.039   2.703   5.708 -0.1309 -0.1490 -0.0150
  189POPC   C2B 2759   9.113   3.089   5.877 -0.1840 -0.0387  0.1585
  189POPC   C3B 2760   9.116   3.565   6.049 -0.1464  0.1525 -0.1972
  189POPC   C4B 2761   9.328   3.672   6.476 -0.2825  0.1923 -0.3581
  190POPC   NC3 2762  10.332   7.403   5.615  0.2077 -0.3510 -0.2771
  190POPC   PO4 2763  10.552   7.036   5.507  0.0254  0.1268 -0.1667
  190POPC   GL1 2764  10.671   7.147   5.878  0.0183 -0.0779  0.1100
  190POPC   GL2 2765  10.585   7.340   6.054  0.0532  0.1707  0.1311
  190POPC   C1A 2766  11.042   7.094   6.163 -0.2233  0.3132 -0.2656
  190POPC   D2A 2767  11.428   7.310   6.451 -0.0732  0.0143  0.0909
  190POPC   C3A 2768  11.347   7.444   6.855 -0.1547  0.3484  0.2806
  190POPC   C4A 2769  11.122   7.274   7.154  0.2864  0.2406  0.0523
  190POPC   C1B 2770  10.431   6.934   6.317 -0.1242 -0.1993 -0.0286
  190POPC   C2B 2771  10.678   6.536   6.347  0.0265 -0.3004 -0.2165
  190POPC   C3B 2772  10.756   6.302   6.647 -0.0284 -0.0197  0.1079
  190POPC   C4B 2773  10.786   5.957   6.979 -0.1340 -0.0292  0.1252
  191POPC   NC3 2774   2.947   5.911   4.575  0.0182  0.0151  0.4219
  191POPC   PO4 2775   2.683   6.236   4.802  0.0357 -0.0339 -0.0991
  191POPC   GL1 2776   2.630   6.146   5.138  0.2058 -0.0746 -0.1072
  191POPC   GL2 2777   2.383   5.973   5.155 -0.0483  0.0795  0.0536
  191POPC   C1A 2778   2.705   6.100   5.555  0.2161 -0.2067 -0.2482
  191POPC   D2A 2779   2.436   5.910   5.918  0.1421 -0.0243 -0.1788
  191POPC   C3A 2780   2.522   5.600   6.010 -0.2863 -0.4666  0.1567
  191POPC   C4A 2781   2.697   5.279   5.889  0.0582  0.0675  0.0637
  191POPC   C1B 2782   2.213   6.067   5.518 -0.3249 -0.2810 -0.2724
  191POPC   C2B 2783   2.126   6.399   5.731  0.2483  0.0161  0.3724
  191POPC   C3B 2784   2.160   6.681   6.112 -0.4048 -0.1009  0.0151
  191POPC   C4B 2785   2.429   6.971   6.403 -0.1314  0.1204  0.0194
  192POPC   NC3 2786   6.552   7.539   3.733  0.1732  0.2676  0.1761
  192POPC   PO4 2787   6.271   7.735   3.459  0.3263  0.1207  0.2272
  192POPC   GL1 2788   6.095   7.738   3.787  0.1557 -0.2991 -0.0010
  192POPC   GL2 2789   6.220   7.581   4.129  0.1232 -0.1166 -0.3453
  192POPC   C1A 2790   6.121   8.026   4.093 -0.1455 -0.1293 -0.0364
  192POPC   D2A 2791   5.801   8.178   4.419  0.1230  0.0303 -0.0156
  192POPC   C3A 2792   5.712   8.005   4.831 -0.3213 -0.0974  0.1068
  192POPC   C4A 2793   5.699   7.819   5.257 -0.2943 -0.5023 -0.2611
  192POPC   C1B 2794   6.114   7.688   4.528  0.0651 -0.4404  0.2297
  192POPC   C2B 2795   6.000   7.517   4.989 -0.4545 -0.3655 -0.0623
  192POPC   C3B 2796   5.686   7.301   5.271 -0.5614  0.0460 -0.1676
  192POPC   C4B 2797   5.597   7.123   5.590  0.0941 -0.1696 -0.2038
  193POPC   NC3 2798   9.212   9.936   4.824  0.1034 -0.0853 -0.1172
  193POPC   PO4 2799   9.125   9.477   4.957  0.0567 -0.2280  0.0068
  193POPC   GL1 2800   9.189   9.734   5.338 -0.2807  0.2380  0.1503
  193POPC   GL2 2801   9.128  10.098   5.376 -0.2387 -0.0117 -0.1260
  193POPC   C1A 2802   9.053   9.719   5.762  0.1599 -0.1284 -0.0231
  193POPC   D2A 2803   8.716   9.762   6.012 -0.2826 -0.0960  0.0444
  193POPC   C3A 2804   8.544   9.750   6.486  0.0769  0.1531  0.2543
  193POPC   C4A 2805   8.466   9.601   6.967 -0.1968 -0.0939  0.0984
  193POPC   C1B 2806   9.362  10.141   5.717 -0.1040 -0.1546 -0.0524
  193POPC   C2B 2807   9.377  10.035   6.131  0.0571  0.1894  0.2325
  193POPC   C3B 2808   9.412  10.046   6.582 -0.0985  0.1217  0.0926
  193POPC   C4B 2809   9.511   9.782   7.032 -0.0048  0.1270 -0.1134
  194POPC   NC3 2810   0.219  10.480   5.532  0.1353  0.0802  0.0162
  194POPC   PO4 2811   0.046  10.890   5.480 -0.0887  0.0777  0.0622
  194POPC   GL1 2812   0.165  10.881   5.851  0.0746  0.0949 -0.1050
  194POPC   GL2 2813   0.330  10.602   5.983  0.1301 -0.1357 -0.0304
  194POPC   C1A 2814   0.111  10.945   6.299 -0.4418  0.2233 -0.1718
  194POPC   D2A 2815   0.184  11.028   6.848 -0.0206 -0.2685 -0.0716
  194POPC   C3A 2816   0.520  10.820   7.077 -0.0891  0.1468  0.0862
  194POPC   C4A 2817   0.843  10.826   7.337  0.5567 -0.0177  0.2897
  194POPC   C1B 2818   0.490  10.277   6.303 -0.2356 -0.2725  0.0012
  194POPC   C2B 2819   0.459  10.002   6.676  0.0738  0.3056 -0.0478
  194POPC   C3B 2820   0.338  10.195   7.051 -0.0346  0.0626  0.2290
  194POPC   C4B 2821   0.535  10.403   7.263  0.0473  0.1377 -0.3595
  195POPC   NC3 2822   7.745   8.020   4.081 -0.2232  0.0045  0.3874
  195POPC   PO4 2823   7.685   7.719   4.460  0.2177 -0.3886  0.0111
  195POPC   GL1 2824   7.557   7.356   4.688  0.1036  0.0606  0.0674
  195POPC   GL2 2825   7.808   7.204   4.952  0.0095 -0.0964 -0.2340
  195POPC   C1A 2826   7.347   7.484   5.074 -0.0042  0.0293 -0.0953
  195POPC   D2A 2827   7.324   7.196   5.397  0.0486 -0.1024 -0.1645
  195POPC   C3A 2828   6.955   6.940   5.204 -0.0189  0.0182 -0.0216
  195POPC   C4A 2829   6.801   6.798   4.853  0.5599  0.2312 -0.2263
  195POPC   C1B 2830   7.753   7.380   5.357 -0.1637 -0.3617  0.1118
  195POPC   C2B 2831   7.867   7.642   5.734  0.0421 -0.2757 -0.3853
  195POPC   C3B 2832   7.843   7.692   6.214 -0.0888 -0.1104  0.0914
  195POPC   C4B 2833   7.593   7.933   6.457  0.3126  0.1041  0.0834
  196POPC   NC3 2834   8.849   0.907   4.761 -0.0791  0.0032  0.3839
  196POPC   PO4 2835   9.012   1.252   4.911 -0.0766 -0.1456  0.0579
  196POPC   GL1 2836   8.748   1.048   5.281 -0.1145  0.1012  0.1139
  196POPC   GL2 2837   8.385   0.996   5.299  0.0691  0.0457 -0.1904
  196POPC   C1A 2838   8.592   1.082   5.701  0.1726  0.0409 -0.0890
  196POPC   D2A 2839   8.588   1.049   6.157 -0.0411 -0.0590  0.4155
  196POPC   C3A 2840   8.333   1.314   6.532 -0.0725 -0.0657  0.1342
  196POPC   C4A 2841   8.427   1.612   6.880  0.0122  0.1645  0.1320
  196POPC   C1B 2842   8.051   1.034   5.618 -0.0851 -0.2362 -0.1580
  196POPC   C2B 2843   7.739   0.951   6.059 -0.0275  0.1345 -0.2281
  196POPC   C3B 2844   7.887   1.042   6.513  0.1070 -0.0681  0.0911
  196POPC   C4B 2845   8.068   1.301   6.988 -0.2806  0.1129  0.2056
  197POPC   NC3 2846   0.934   9.341   4.949 -0.0813 -0.0974  0.2113
  197POPC   PO4 2847   0.941   8.945   5.100 -0.1959  0.0575 -0.2390
  197POPC   GL1 2848   1.249   8.765   5.428  0.0386  0.1129  0.1763
  197POPC   GL2 2849   1.382   8.434   5.517  0.0573  0.0945 -0.2039
  197POPC   C1A 2850   1.573   8.852   5.756 -0.2172 -0.2421  0.0189
  197POPC   D2A 2851   1.664   8.829   6.152  0.0103  0.0209  0.2131
  197POPC   C3A 2852   1.733   8.982   6.507 -0.4115  0.1640  0.4603
  197POPC   C4A 2853   1.905   8.873   6.736 -0.2072  0.0803  0.0634
  197POPC   C1B 2854   1.412   8.350   5.916 -0.0160  0.0022 -0.0925
  197POPC   C2B 2855   1.460   8.079   6.229 -0.2191 -0.1049 -0.2233
  197POPC   C3B 2856   1.170   8.129   6.598 -0.1550 -0.1350 -0.1204
  197POPC   C4B 2857   0.773   8.043   6.727  0.1407 -0.1117 -0.1618
  198POPC   NC3 2858   3.586   2.830   4.735  0.2295  0.0746  0.1660
  198POPC   PO4 2859   3.307   3.292   4.777  0.2488 -0.2853  0.2311
  198POPC   GL1 2860   3.433   3.103   5.196 -0.2690  0.2499  0.2916
  198POPC   GL2 2861   3.564   3.267   5.488  0.1466 -0.0618 -0.1919
  198POPC   C1A 2862   3.257   2.789   5.512  0.0860 -0.1321 -0.0267
  198POPC   D2A 2863   3.062   2.636   5.883  0.0833  0.3041  0.1345
  198POPC   C3A 2864   3.307   2.300   5.868  0.0522 -0.1606 -0.0521
  198POPC   C4A 2865   3.435   1.967   6.095  0.1028  0.0092 -0.1721
  198POPC   C1B 2866   3.478   3.210   5.868 -0.2444  0.1632 -0.2988
  198POPC   C2B 2867   3.898   3.217   6.178  0.2042 -0.0092  0.0260
  198POPC   C3B 2868   4.080   3.379   6.572  0.0241  0.2926 -0.1434
  198POPC   C4B 2869   4.453   3.342   6.727 -0.1653 -0.1233  0.4759
  199POPC   NC3 2870   7.508   8.074   3.181  0.1272 -0.0632  0.2430
  199POPC   PO4 2871   7.404   7.910   3.588  0.2020  0.0230  0.4749
  199POPC   GL1 2872   7.142   8.098   3.998 -0.3905 -0.0622  0.1501
  199POPC   GL2 2873   7.252   8.040   4.319 -0.2148 -0.2538  0.0248
  199POPC   C1A 2874   6.884   8.300   4.351  0.0559  0.4452 -0.1709
  199POPC   D2A 2875   6.510   8.051   4.450  0.0296  0.0630  0.2150
  199POPC   C3A 2876   6.248   8.099   4.770 -0.0584  0.0007 -0.2655
  199POPC   C4A 2877   6.128   8.187   5.205 -0.0910 -0.0686  0.1639
  199POPC   C1B 2878   7.084   7.787   4.545  0.0745 -0.1550  0.1185
  199POPC   C2B 2879   7.007   7.834   4.995 -0.0064 -0.2535  0.1537
  199POPC   C3B 2880   7.022   8.029   5.437  0.0676  0.0075  0.0011
  199POPC   C4B 2881   7.062   8.139   5.858  0.2308 -0.1582  0.2270
  200POPC   NC3 2882   7.098   5.053   4.614  0.0837  0.0187  0.1557
  200POPC   PO4 2883   6.713   5.037   4.567 -0.2028 -0.1362  0.1439
  200POPC   GL1 2884   6.797   5.030   5.000 -0.0555  0.1020  0.4145
  200POPC   GL2 2885   7.138   4.935   5.112 -0.1161  0.1586 -0.0221
  200POPC   C1A 2886   6.823   5.187   5.443  0.0273 -0.0916  0.2039
  200POPC   D2A 2887   7.092   5.220   5.860  0.0072 -0.2335 -0.0805
  200POPC   C3A 2888   7.230   5.329   6.170  0.0483  0.2049  0.3571
  200POPC   C4A 2889   7.427   5.565   6.581  0.0820  0.0987  0.1310
  200POPC   C1B 2890   7.052   4.638   5.591  0.0849  0.1662  0.0910
  200POPC   C2B 2891   6.981   4.645   5.942  0.4023  0.0853 -0.0284
  200POPC   C3B 2892   6.984   4.859   6.187  0.3346  0.2067 -0.1355
  200POPC   C4B 2893   6.874   5.171   6.534 -0.0136 -0.0408 -0.2589
  201POPC   NC3 2894   8.087   3.970   4.582 -0.0341  0.0546 -0.2212
  201POPC   PO4 2895   8.227   3.829   4.943  0.2250 -0.0838 -0.2070
  201POPC   GL1 2896   8.446   3.773   5.375  0.1497  0.1047 -0.3817
  201POPC   GL2 2897   8.625   3.988   5.629 -0.0727  0.3304 -0.2000
  201POPC   C1A 2898   8.328   3.555   5.625  0.1027 -0.3227  0.0738
  201POPC   D2A 2899   8.132   3.321   5.971 -0.3463  0.0383 -0.0838
  201POPC   C3A 2900   8.257   3.002   6.227 -0.0887 -0.1191 -0.1539
  201POPC   C4A 2901   8.557   2.830   6.469  0.1860 -0.0018 -0.1298
  201POPC   C1B 2902   8.720   3.822   5.937  0.1342 -0.1017 -0.1408
  201POPC   C2B 2903   8.637   3.802   6.337 -0.0880  0.2347 -0.0566
  201POPC   C3B 2904   8.481   3.934   6.701  0.3235 -0.0963 -0.0489
  201POPC   C4B 2905   8.246   4.236   7.001  0.1569 -0.0370 -0.0541
  202POPC   NC3 2906   8.015   5.971   4.251  0.0166 -0.1960 -0.0390
  202POPC   PO4 2907   7.893   5.563   4.511  0.1702  0.0380 -0.1025
  202POPC   GL1 2908   7.585   5.662   4.873  0.1474  0.0179 -0.1353
  202POPC   GL2 2909   7.662   5.352   4.954  0.0598 -0.1591  0.0575
  202POPC   C1A 2910   7.377   5.888   5.230  0.0051  0.3926 -0.0706
  202POPC   D2A 2911   7.297   6.147   5.498 -0.0063 -0.0290  0.1067
  202POPC   C3A 2912   7.420   6.281   5.850 -0.1846 -0.2008  0.4298
  202POPC   C4A 2913   7.210   6.248   6.256 -0.3160  0.0061  0.2113
  202POPC   C1B 2914   7.397   5.389   5.404 -0.0263 -0.0465 -0.1191
  202POPC   C2B 2915   7.089   5.648   5.638 -0.1716  0.2528 -0.0739
  202POPC   C3B 2916   6.889   5.670   6.067 -0.1085  0.0022 -0.1503
  202POPC   C4B 2917   7.001   5.817   6.477  0.1479 -0.0300 -0.1625
  203POPC   NC3 2918   2.205   7.125   4.359  0.4407 -0.1283 -0.1720
  203POPC   PO4 2919   2.154   7.046   4.856  0.0945  0.0354  0.4036
  203POPC   GL1 2920   2.462   7.097   5.125 -0.4445  0.1062 -0.1930
  203POPC   GL2 2921   2.753   7.285   5.055 -0.0072  0.3438 -0.1557
  203POPC   C1A 2922   2.348   7.173   5.546 -0.0486 -0.3734  0.0355
  203POPC   D2A 2923   2.311   7.418   5.903  0.0530  0.0026 -0.0782
  203POPC   C3A 2924   2.203   7.469   6.291 -0.0004  0.1825  0.3220
  203POPC   C4A 2925   2.211   7.635   6.750 -0.0313  0.0332 -0.1459
  203POPC   C1B 2926   3.096   7.454   5.241  0.2868  0.1429 -0.2768
  203POPC   C2B 2927   3.332   7.285   5.608 -0.3549 -0.1061  0.1895
  203POPC   C3B 2928   3.618   7.148   6.022 -0.0894  0.0881  0.1595
  203POPC   C4B 2929   3.582   6.702   6.276  0.2243  0.0524 -0.1120
  204POPC   NC3 2930   1.090   4.370   4.732 -0.2206 -0.1328  0.0849
  204POPC   PO4 2931   0.951   4.691   4.995  0.0618  0.1835 -0.1781
  204POPC   GL1 2932   0.803   4.394   5.320 -0.1112  0.0625 -0.0864
  204POPC   GL2 2933   0.494   4.163   5.294 -0.2727  0.1576 -0.1137
  204POPC   C1A 2934   0.921   4.407   5.878  0.2159 -0.1139 -0.0315
  204POPC   D2A 2935   0.599   4.403   6.232 -0.0433 -0.2366  0.1671
  204POPC   C3A 2936   0.605   4.275   6.693 -0.1297 -0.4286 -0.0129
  204POPC   C4A 2937   0.727   4.223   7.157  0.3306  0.2776  0.1546
  204POPC   C1B 2938   0.299   3.779   5.384 -0.0537  0.1420  0.1163
  204POPC   C2B 2939   0.065   3.446   5.566 -0.0240 -0.2203 -0.0773
  204POPC   C3B 2940  -0.143   3.216   5.908 -0.2231  0.4511  0.1456
  204POPC   C4B 2941  -0.255   3.278   6.263  0.2565  0.1024 -0.1187
  205POPC   NC3 2942   2.661   7.098   4.607  0.1662  0.0394  0.1355
  205POPC   PO4 2943   2.457   6.733   4.566 -0.0203  0.0411 -0.2320
  205POPC   GL1 2944   2.606   6.642   5.034  0.2063  0.2484 -0.0130
  205POPC   GL2 2945   2.993   6.504   5.153  0.0396  0.0018  0.2125
  205POPC   C1A 2946   2.509   6.700   5.562 -0.1379  0.0064  0.1232
  205POPC   D2A 2947   2.744   6.962   5.958  0.1438  0.0662 -0.0702
  205POPC   C3A 2948   3.076   7.163   6.020 -0.0792 -0.0443 -0.0542
  205POPC   C4A 2949   3.198   7.530   6.043  0.1567  0.0393  0.2340
  205POPC   C1B 2950   2.976   6.492   5.593 -0.1157  0.1256  0.1217
  205POPC   C2B 2951   2.641   6.392   5.970 -0.0841 -0.1160  0.1885
  205POPC   C3B 2952   2.559   6.476   6.422 -0.0448  0.1124  0.0869
  205POPC   C4B 2953   2.683   6.687   6.836 -0.0625  0.1988  0.0730
  206POPC   NC3 2954   5.959   6.676   3.739 -0.1698 -0.3378 -0.2699
  206POPC   PO4 2955   5.884   6.257   3.942 -0.1492 -0.0290 -0.1876
  206POPC   GL1 2956   5.982   6.501   4.275 -0.0013 -0.1080 -0.1849
  206POPC   GL2 2957   5.813   6.500   4.579  0.2879 -0.1935 -0.6035
  206POPC   C1A 2958   6.330   6.614   4.404 -0.1118 -0.4378 -0.1761
  206POPC   D2A 2959   6.765   6.483   4.502  0.2712 -0.2109  0.1459
  206POPC   C3A 2960   6.793   6.317   4.887  0.0136 -0.1112  0.0353
  206POPC   C4A 2961   6.700   6.487   5.242  0.1285 -0.1049  0.2892
  206POPC   C1B 2962   5.981   6.398   4.923  0.2323 -0.2277 -0.0894
  206POPC   C2B 2963   6.350   6.163   5.133 -0.0269  0.3366 -0.0441
  206POPC   C3B 2964   6.338   5.834   5.367  0.1182 -0.0814 -0.0231
  206POPC   C4B 2965   6.061   5.581   5.495  0.3166 -0.1705 -0.0108
  207POPC   NC3 2966   2.952   0.027   4.431  0.0581  0.2465 -0.0816
  207POPC   PO4 2967   3.227   0.329   4.546  0.0397  0.2485  0.0349
  207POPC   GL1 2968   3.310   0.213   4.961 -0.0489  0.1293 -0.1966
  207POPC   GL2 2969   3.519  -0.170   4.921  0.1288 -0.4098 -0.1469
  207POPC   C1A 2970   3.355   0.132   5.426 -0.0944 -0.1829 -0.2042
  207POPC   D2A 2971   3.177  -0.089   5.787  0.1152 -0.1614  0.1906
  207POPC   C3A 2972   3.169  -0.017   6.281  0.0351  0.0576 -0.1512
  207POPC   C4A 2973   3.173  -0.238   6.646  0.1115  0.1715  0.2816
  207POPC   C1B 2974   3.880  -0.294   5.227 -0.1495  0.3149  0.1097
  207POPC   C2B 2975   4.293  -0.471   5.378 -0.0072 -0.0754  0.4022
  207POPC   C3B 2976   4.658  -0.551   5.389 -0.0268 -0.3194 -0.0663
  207POPC   C4B 2977   5.045  -0.315   5.132 -0.1552 -0.1892  0.7003
  208POPC   NC3 2978   5.813   3.689   4.953 -0.0209 -0.2934  0.0465
  208POPC   PO4 2979   6.240   3.838   4.879  0.0439  0.1173  0.1815
  208POPC   GL1 2980   6.123   3.820   5.316 -0.1646 -0.0410 -0.1092
  208POPC   GL2 2981   5.824   3.688   5.433 -0.1086 -0.2470 -0.0543
  208POPC   C1A 2982   6.125   3.911   5.739 -0.1640  0.2590  0.1244
  208POPC   D2A 2983   6.047   3.876   6.102 -0.3388 -0.0314  0.2436
  208POPC   C3A 2984   6.320   3.858   6.547  0.3446  0.1483  0.3496
  208POPC   C4A 2985   6.411   4.078   6.730 -0.2327  0.0690 -0.4107
  208POPC   C1B 2986   5.757   3.506   5.872  0.1245 -0.0823  0.0634
  208POPC   C2B 2987   5.627   3.550   6.282  0.3800  0.0198  0.0278
  208POPC   C3B 2988   5.303   3.682   6.536 -0.0473  0.0730  0.1197
  208POPC   C4B 2989   5.087   3.806   6.864 -0.2871  0.3981 -0.1094
  209POPC   NC3 2990   8.210   0.332   4.562  0.0260 -0.1372  0.0176
  209POPC   PO4 2991   7.979   0.000   4.872 -0.1333  0.0873  0.3961
  209POPC   GL1 2992   7.806   0.105   5.242 -0.2555  0.0932  0.4539
  209POPC   GL2 2993   8.049   0.210   5.514  0.1550  0.1632  0.1085
  209POPC   C1A 2994   7.592   0.140   5.512  0.3564  0.1612 -0.1157
  209POPC   D2A 2995   7.092   0.069   5.648 -0.1300  0.0416  0.0103
  209POPC   C3A 2996   7.070  -0.070   6.039 -0.3145  0.3861  0.0919
  209POPC   C4A 2997   7.032  -0.293   6.354  0.1568  0.5114 -0.2392
  209POPC   C1B 2998   7.779   0.549   5.703 -0.2692  0.0655 -0.0457
  209POPC   C2B 2999   7.580   0.965   5.559 -0.1081  0.3299 -0.3822
  209POPC   C3B 3000   7.570   1.289   5.818 -0.0384  0.0181  0.3083
  209POPC   C4B 3001   7.429   1.442   6.240 -0.0118  0.0654  0.2768
  210POPC   NC3 3002   4.027   5.915   4.492  0.1460 -0.2567 -0.0225
  210POPC   PO4 3003   4.266   5.677   4.790  0.3405 -0.2779 -0.1502
  210POPC   GL1 3004   4.187   5.703   5.244 -0.2966  0.0106  0.2354
  210POPC   GL2 3005   4.103   5.344   5.349  0.4226 -0.2218 -0.4842
  210POPC   C1A 3006   4.030   5.922   5.447 -0.2088 -0.0463 -0.1328
  210POPC   D2A 3007   3.631   6.135   5.345  0.2273 -0.0386 -0.2024
  210POPC   C3A 3008   3.625   6.537   5.396 -0.4521 -0.0931  0.1516
  210POPC   C4A 3009   3.468   6.777   5.720 -0.0257 -0.0798 -0.3479
  210POPC   C1B 3010   4.380   5.129   5.604  0.0696  0.3134 -0.0482
  210POPC   C2B 3011   4.618   5.245   6.024  0.2691 -0.0874  0.4207
  210POPC   C3B 3012   4.401   5.174   6.415  0.5155  0.1657 -0.0431
  210POPC   C4B 3013   3.914   5.314   6.529 -0.0992 -0.0798 -0.0362
  211POPC   NC3 3014   3.710   7.029   3.890  0.4234 -0.3533 -0.0027
  211POPC   PO4 3015   4.041   6.862   4.192 -0.0257 -0.1090  0.1501
  211POPC   GL1 3016   4.285   7.076   4.512  0.3234  0.2866 -0.1457
  211POPC   GL2 3017   4.546   7.102   4.261  0.0091  0.0495  0.3238
  211POPC   C1A 3018   4.527   7.390   4.729 -0.1025  0.1359  0.0835
  211POPC   D2A 3019   4.547   7.410   5.137 -0.3615 -0.2612  0.1536
  211POPC   C3A 3020   4.911   7.337   5.306 -0.2548 -0.0608  0.3902
  211POPC   C4A 3021   5.201   7.143   5.170 -0.0223 -0.0536 -0.1152
  211POPC   C1B 3022   4.647   7.493   4.218  0.1975  0.2002 -0.0564
  211POPC   C2B 3023   4.881   7.883   4.265  0.1652 -0.2129  0.1338
  211POPC   C3B 3024   5.137   8.139   4.073 -0.0664 -0.1497 -0.0497
  211POPC   C4B 3025   5.318   8.555   3.863  0.0376  0.0473 -0.1158
  212POPC   NC3 3026   4.856   2.791   5.268  0.0577 -0.0453 -0.1729
  212POPC   PO4 3027   5.376   2.846   5.183  0.0810 -0.1103  0.1265
  212POPC   GL1 3028   5.673   2.726   5.491 -0.2701  0.1225 -0.4023
  212POPC   GL2 3029   5.895   2.889   5.285  0.1171 -0.3049  0.0030
  212POPC   C1A 3030   5.641   2.528   5.952 -0.1978  0.0796 -0.0396
  212POPC   D2A 3031   5.686   2.370   6.394 -0.2232 -0.2278  0.0141
  212POPC   C3A 3032   5.840   2.191   6.714  0.1126 -0.1483  0.1684
  212POPC   C4A 3033   5.947   1.888   6.998 -0.0740  0.0744 -0.3302
  212POPC   C1B 3034   5.951   2.960   5.785 -0.1697  0.0494  0.2203
  212POPC   C2B 3035   5.781   2.938   6.250  0.1985  0.1052 -0.1553
  212POPC   C3B 3036   5.919   2.713   6.674  0.2142 -0.1562 -0.0453
  212POPC   C4B 3037   6.293   2.512   6.806 -0.0500 -0.1952  0.1334
  213POPC   NC3 3038   2.431   8.814   3.915 -0.1471 -0.0818 -0.1591
  213POPC   PO4 3039   2.753   8.868   4.206  0.1796 -0.2574  0.2652
  213POPC   GL1 3040   3.094   8.727   4.463 -0.2685  0.1746  0.0768
  213POPC   GL2 3041   3.307   8.529   4.291  0.1280  0.0239 -0.2760
  213POPC   C1A 3042   3.455   8.803   4.733  0.4559  0.0021 -0.1592
  213POPC   D2A 3043   3.595   8.878   5.075  0.1746 -0.2735 -0.1325
  213POPC   C3A 3044   3.571   8.722   5.502  0.0785  0.3796  0.0954
  213POPC   C4A 3045   3.878   8.484   5.731 -0.1422  0.4991 -0.1565
  213POPC   C1B 3046   3.348   8.329   4.651 -0.1276  0.1765 -0.1113
  213POPC   C2B 3047   3.185   8.190   5.029  0.0394 -0.2064  0.1595
  213POPC   C3B 3048   3.221   8.376   5.489 -0.0658 -0.0072  0.0579
  213POPC   C4B 3049   3.358   8.196   5.939 -0.2889  0.2291  0.1626
  214POPC   NC3 3050   9.979   7.406   5.037 -0.1086 -0.0611  0.1179
  214POPC   PO4 3051  10.136   7.762   5.274  0.1267 -0.0810 -0.0149
  214POPC   GL1 3052   9.994   8.070   5.668 -0.0332  0.0269 -0.1970
  214POPC   GL2 3053   9.817   8.335   5.710  0.0970  0.2687 -0.1603
  214POPC   C1A 3054  10.152   8.403   6.017  0.4109 -0.0931 -0.1181
  214POPC   D2A 3055  10.305   8.454   6.458  0.0918 -0.0305 -0.0960
  214POPC   C3A 3056  10.047   8.705   6.739 -0.0351  0.0245  0.1674
  214POPC   C4A 3057   9.636   8.776   7.022 -0.0821 -0.2040 -0.4007
  214POPC   C1B 3058   9.655   8.469   6.047  0.1582 -0.2427 -0.0663
  214POPC   C2B 3059   9.628   8.675   6.403 -0.0479 -0.0761  0.0856
  214POPC   C3B 3060   9.557   9.013   6.587 -0.2214 -0.2564  0.0502
  214POPC   C4B 3061   9.441   9.370   6.757  0.2111  0.0945  0.0706
  215POPC   NC3 3062   0.232   8.836   5.004  0.1597  0.0333  0.1552
  215POPC   PO4 3063  -0.147   8.768   4.975  0.2682  0.4508  0.2653
  215POPC   GL1 3064  -0.130   8.892   5.449 -0.0413 -0.0542  0.1036
  215POPC   GL2 3065   0.006   8.633   5.668  0.0209  0.0169  0.0711
  215POPC   C1A 3066  -0.472   8.902   5.833  0.0770  0.3222 -0.1456
  215POPC   D2A 3067  -0.805   9.004   6.007 -0.1070 -0.2348  0.2734
  215POPC   C3A 3068  -1.245   9.006   5.954 -0.0364 -0.0956  0.0621
  215POPC   C4A 3069  -1.551   9.209   5.761 -0.0051 -0.2020 -0.2353
  215POPC   C1B 3070  -0.011   8.744   6.096 -0.1196 -0.0609  0.1711
  215POPC   C2B 3071   0.041   8.863   6.485 -0.2057  0.1188 -0.1001
  215POPC   C3B 3072  -0.068   8.959   6.933 -0.0094  0.2939  0.0535
  215POPC   C4B 3073  -0.188   9.376   7.253 -0.1688 -0.0586 -0.1282
  216POPC   NC3 3074   1.575   3.412   4.704  0.1321  0.2092 -0.1435
  216POPC   PO4 3075   1.315   3.143   4.950  0.0613 -0.0282 -0.1907
  216POPC   GL1 3076   1.031   3.055   5.349  0.2164  0.0961 -0.1470
  216POPC   GL2 3077   0.866   3.043   5.159  0.1222  0.1823  0.0084
  216POPC   C1A 3078   0.834   3.058   5.838  0.0704  0.0594 -0.1452
  216POPC   D2A 3079   0.727   3.210   6.330  0.0014 -0.0037 -0.1303
  216POPC   C3A 3080   0.686   2.910   6.693  0.0121  0.1087 -0.0091
  216POPC   C4A 3081   0.546   2.516   6.720  0.0123  0.2045  0.2135
  216POPC   C1B 3082   0.476   2.910   5.491 -0.0388  0.0690 -0.2451
  216POPC   C2B 3083   0.375   2.876   5.890  0.3176  0.0542  0.1470
  216POPC   C3B 3084   0.259   3.066   6.249  0.1572 -0.0595 -0.0133
  216POPC   C4B 3085   0.112   3.206   6.682 -0.0315 -0.1433  0.0527
  217POPC   NC3 3086   7.876   1.786   4.090  0.1019 -0.0160 -0.1502
  217POPC   PO4 3087   7.723   1.466   4.418 -0.1216 -0.0203  0.3234
  217POPC   GL1 3088   7.575   1.416   4.843  0.3620 -0.0414 -0.1271
  217POPC   GL2 3089   7.235   1.344   4.927  0.0229  0.0110  0.0403
  217POPC   C1A 3090   7.658   1.466   5.315  0.1623 -0.2458  0.1682
  217POPC   D2A 3091   7.260   1.602   5.539 -0.3596  0.0452  0.2058
  217POPC   C3A 3092   7.404   1.887   5.971  0.0113  0.3531  0.1718
  217POPC   C4A 3093   7.455   1.969   6.323  0.2671  0.1105 -0.1635
  217POPC   C1B 3094   7.177   1.048   5.292 -0.0117  0.0551  0.2866
  217POPC   C2B 3095   7.063   1.047   5.718  0.0261 -0.1930 -0.1301
  217POPC   C3B 3096   7.238   0.984   6.246 -0.1068 -0.0111  0.0485
  217POPC   C4B 3097   7.391   1.077   6.657 -0.1391  0.0936 -0.0880
  218POPC   NC3 3098   2.626   0.927   4.870 -0.2622  0.2249 -0.2261
  218POPC   PO4 3099   2.701   1.088   5.283 -0.1108 -0.2520 -0.0283
  218POPC   GL1 3100   2.754   0.943   5.686 -0.2263 -0.4497  0.1188
  218POPC   GL2 3101   2.993   1.052   5.854 -0.1278 -0.0336 -0.1076
  218POPC   C1A 3102   3.088   0.574   5.890 -0.0818  0.1184  0.1868
  218POPC   D2A 3103   3.423   0.371   6.051 -0.0394 -0.1539 -0.2199
  218POPC   C3A 3104   3.354   0.741   6.311 -0.1046 -0.0395 -0.0885
  218POPC   C4A 3105   3.261   0.919   6.730  0.1139 -0.1508  0.1198
  218POPC   C1B 3106   2.909   0.970   6.284 -0.2745  0.0031  0.0999
  218POPC   C2B 3107   2.751   0.983   6.633 -0.0595 -0.0514  0.0714
  218POPC   C3B 3108   2.582   0.874   7.038 -0.3646 -0.0361 -0.1649
  218POPC   C4B 3109   2.129   0.854   7.209  0.1335 -0.0736  0.1240
  219POPC   NC3 3110   1.301   4.550   5.297  0.0512 -0.1977 -0.1619
  219POPC   PO4 3111   1.343   4.988   5.182 -0.0234 -0.3631  0.0194
  219POPC   GL1 3112   1.540   4.843   5.646 -0.1246  0.5980  0.0434
  219POPC   GL2 3113   1.230   4.831   5.697 -0.1550 -0.1111  0.0018
  219POPC   C1A 3114   1.731   4.712   6.010 -0.0245 -0.1051  0.0919
  219POPC   D2A 3115   1.637   4.808   6.439  0.2026  0.1388 -0.5118
  219POPC   C3A 3116   1.350   5.068   6.564  0.0683 -0.0363 -0.0408
  219POPC   C4A 3117   1.031   5.353   6.638  0.1733 -0.1095 -0.2678
  219POPC   C1B 3118   1.200   4.706   6.183 -0.2535  0.1508 -0.2689
  219POPC   C2B 3119   0.939   4.679   6.505 -0.0327 -0.0895 -0.1157
  219POPC   C3B 3120   0.983   4.889   6.917  0.2048 -0.1425  0.2111
  219POPC   C4B 3121   0.992   4.761   7.280 -0.2089  0.1696 -0.0309
  220POPC   NC3 3122   4.346   8.399   3.737 -0.0743 -0.0822 -0.2136
  220POPC   PO4 3123   4.188   7.994   3.574 -0.2338  0.1631 -0.1353
  220POPC   GL1 3124   4.176   7.938   3.988  0.1201 -0.0363  0.3076
  220POPC   GL2 3125   3.804   7.882   4.202  0.0803  0.2399 -0.0607
  220POPC   C1A 3126   4.324   7.803   4.428 -0.2604 -0.0815 -0.0529
  220POPC   D2A 3127   4.466   7.890   4.728 -0.1573 -0.0900  0.0620
  220POPC   C3A 3128   4.903   8.219   4.698 -0.1102 -0.0662  0.3461
  220POPC   C4A 3129   5.289   8.188   4.678  0.0045 -0.3105 -0.2635
  220POPC   C1B 3130   3.823   7.911   4.487  0.2011 -0.0670 -0.2186
  220POPC   C2B 3131   3.598   7.913   4.861  0.0268  0.6280  0.1057
  220POPC   C3B 3132   3.466   7.817   5.200  0.4179 -0.1608  0.1970
  220POPC   C4B 3133   3.184   7.777   5.662 -0.0047 -0.1235  0.2804
  221POPC   NC3 3134   7.405   6.874   4.321  0.4291 -0.0271 -0.2892
  221POPC   PO4 3135   7.250   6.459   4.413 -0.1286 -0.0599  0.0555
  221POPC   GL1 3136   7.327   6.677   4.792 -0.0903  0.0728  0.0011
  221POPC   GL2 3137   7.285   6.966   4.800  0.0013 -0.0433  0.0604
  221POPC   C1A 3138   7.600   6.858   5.166  0.0261  0.3917  0.2191
  221POPC   D2A 3139   7.756   6.859   5.556  0.2125  0.0814  0.0555
  221POPC   C3A 3140   7.525   6.853   5.918  0.2383 -0.4054 -0.0840
  221POPC   C4A 3141   7.822   6.653   6.228  0.0448 -0.2455  0.3007
  221POPC   C1B 3142   6.959   7.280   4.810 -0.2092  0.2155 -0.1414
  221POPC   C2B 3143   6.852   7.411   5.257 -0.1576  0.2889 -0.1279
  221POPC   C3B 3144   6.668   7.194   5.548  0.1030  0.2130  0.1801
  221POPC   C4B 3145   6.629   6.824   5.709  0.0444  0.0071 -0.0668
  222POPC   NC3 3146  10.467   0.619   4.866  0.0101 -0.1837 -0.1163
  222POPC   PO4 3147  10.365   0.819   5.241  0.0997 -0.0845 -0.1199
  222POPC   GL1 3148  10.307   0.810   5.634 -0.0553  0.0881 -0.2684
  222POPC   GL2 3149  10.123   0.588   5.702  0.1469  0.1820  0.1411
  222POPC   C1A 3150  10.492   1.011   5.907  0.1301 -0.0923 -0.2051
  222POPC   D2A 3151  10.833   1.027   6.134  0.0610 -0.0691 -0.0671
  222POPC   C3A 3152  10.905   1.052   6.643  0.3574 -0.0661 -0.0046
  222POPC   C4A 3153  10.820   1.220   7.059 -0.0057 -0.2069  0.1500
  222POPC   C1B 3154  10.162   0.481   6.066  0.1081 -0.0786 -0.1817
  222POPC   C2B 3155  10.328   0.869   6.432 -0.1437 -0.0882 -0.0287
  222POPC   C3B 3156  10.436   1.256   6.450 -0.4098 -0.0159 -0.4654
  222POPC   C4B 3157  10.831   1.463   6.387 -0.2130  0.1049  0.2017
  223POPC   NC3 3158   6.644   0.041   4.234  0.0367  0.5590 -0.1464
  223POPC   PO4 3159   7.101   0.248   4.245  0.1433 -0.0393 -0.0452
  223POPC   GL1 3160   6.955  -0.035   4.573 -0.1160  0.0908  0.0219
  223POPC   GL2 3161   7.182  -0.060   4.679  0.3519  0.1305 -0.1341
  223POPC   C1A 3162   6.754  -0.204   4.902  0.4758 -0.0563 -0.2432
  223POPC   D2A 3163   6.307  -0.113   5.147  0.0735  0.0844  0.1199
  223POPC   C3A 3164   6.013  -0.328   5.281 -0.1007 -0.1007 -0.0022
  223POPC   C4A 3165   5.633  -0.350   5.395 -0.0112 -0.2891  0.0312
  223POPC   C1B 3166   7.244  -0.169   5.109  0.1275  0.1304 -0.1091
  223POPC   C2B 3167   7.278  -0.436   5.362 -0.0394  0.4601  0.0578
  223POPC   C3B 3168   6.914  -0.470   5.631  0.2786  0.2160 -0.0485
  223POPC   C4B 3169   6.764  -0.538   6.006  0.2484 -0.2341  0.1081
  224POPC   NC3 3170   9.477   4.722   4.251  0.1162  0.1436 -0.2685
  224POPC   PO4 3171   9.671   4.774   4.722 -0.0195  0.4467  0.3471
  224POPC   GL1 3172   9.664   4.907   5.128 -0.1002 -0.1200  0.0488
  224POPC   GL2 3173   9.332   5.052   5.201  0.2045  0.3837 -0.0333
  224POPC   C1A 3174   9.779   4.692   5.507 -0.1671 -0.0921  0.0216
  224POPC   D2A 3175   9.836   4.765   5.902  0.0527 -0.0850  0.0769
  224POPC   C3A 3176   9.641   5.021   6.148  0.0109  0.1958 -0.0159
  224POPC   C4A 3177   9.727   5.213   6.524 -0.0346 -0.3308  0.0346
  224POPC   C1B 3178   9.023   5.138   5.537  0.2609 -0.0454 -0.0370
  224POPC   C2B 3179   8.827   4.997   5.815 -0.4341  0.3087  0.1248
  224POPC   C3B 3180   8.495   4.869   6.131 -0.0669 -0.2110 -0.2834
  224POPC   C4B 3181   8.259   4.991   6.501 -0.0179 -0.1469 -0.2880
  225POPC   NC3 3182   4.152   1.971   5.029  0.1475 -0.1720 -0.1401
  225POPC   PO4 3183   4.664   1.949   4.985  0.2592 -0.1578 -0.1381
  225POPC   GL1 3184   4.610   1.910   5.389  0.1491  0.0473  0.1051
  225POPC   GL2 3185   4.262   1.806   5.498  0.1440  0.0610  0.0668
  225POPC   C1A 3186   4.643   1.866   5.835 -0.0621 -0.0424  0.1241
  225POPC   D2A 3187   4.849   1.933   6.193 -0.3805  0.0303 -0.0854
  225POPC   C3A 3188   4.965   1.689   6.436  0.2598 -0.0851 -0.3591
  225POPC   C4A 3189   4.888   1.573   6.883  0.2066 -0.1553 -0.1995
  225POPC   C1B 3190   4.159   1.874   5.997  0.2270  0.0642 -0.3554
  225POPC   C2B 3191   4.104   1.879   6.336 -0.2402 -0.2084 -0.0685
  225POPC   C3B 3192   3.805   1.923   6.608  0.1533 -0.0539  0.0835
  225POPC   C4B 3193   3.626   2.276   6.618  0.0663  0.2375  0.0460
  226POPC   NC3 3194   5.751   4.037   4.204 -0.4077 -0.1164  0.1415
  226POPC   PO4 3195   5.813   4.087   4.634  0.2916 -0.2700  0.3424
  226POPC   GL1 3196   5.927   4.250   5.049  0.0383 -0.1716  0.0793
  226POPC   GL2 3197   6.282   4.231   5.150  0.0129 -0.0697  0.1657
  226POPC   C1A 3198   5.751   4.220   5.520 -0.0542 -0.0415 -0.4124
  226POPC   D2A 3199   5.549   4.580   5.876  0.1671 -0.1345  0.0544
  226POPC   C3A 3200   5.636   4.497   6.276 -0.2408  0.0310 -0.1206
  226POPC   C4A 3201   5.939   4.431   6.577 -0.2121 -0.1789 -0.1254
  226POPC   C1B 3202   6.164   4.425   5.531 -0.0907 -0.0153  0.1945
  226POPC   C2B 3203   6.428   4.773   5.831 -0.1519  0.2127 -0.0934
  226POPC   C3B 3204   6.635   5.151   5.942  0.0561  0.3045  0.0906
  226POPC   C4B 3205   6.495   5.488   5.720 -0.3187  0.0804 -0.1298
  227POPC   NC3 3206   4.498  10.417   3.946  0.1300  0.2626 -0.3927
  227POPC   PO4 3207   4.948  10.368   3.886  0.3102  0.4058  0.0627
  227POPC   GL1 3208   4.884  10.519   4.312  0.0471  0.2632  0.0937
  227POPC   GL2 3209   4.625  10.561   4.448 -0.1536  0.2375 -0.0407
  227POPC   C1A 3210   5.102  10.373   4.648  0.2595  0.1827  0.2485
  227POPC   D2A 3211   5.490  10.322   4.965  0.1039  0.0171 -0.0946
  227POPC   C3A 3212   5.600   9.904   4.967  0.0760  0.6124  0.1966
  227POPC   C4A 3213   5.859   9.742   5.310  0.0585 -0.1133 -0.1038
  227POPC   C1B 3214   4.698  10.646   4.871 -0.3079 -0.1314 -0.1054
  227POPC   C2B 3215   4.674  10.443   5.230  0.0538  0.0030 -0.0283
  227POPC   C3B 3216   4.427  10.462   5.688  0.0765 -0.0886  0.1858
  227POPC   C4B 3217   4.364  10.327   6.045 -0.3011  0.2077  0.0272
  228POPC   NC3 3218   7.060   3.927   4.236 -0.3345 -0.0535 -0.3408
  228POPC   PO4 3219   7.192   4.025   4.639  0.1190  0.1384  0.1144
  228POPC   GL1 3220   7.236   3.918   5.042  0.3995  0.0720  0.1159
  228POPC   GL2 3221   6.928   3.880   5.136 -0.1552 -0.1007  0.0682
  228POPC   C1A 3222   7.320   3.727   5.457  0.2564 -0.0100 -0.2554
  228POPC   D2A 3223   7.408   3.294   5.687 -0.0979 -0.0992  0.2458
  228POPC   C3A 3224   7.702   3.167   6.115 -0.0367 -0.0823  0.5088
  228POPC   C4A 3225   7.889   3.168   6.492  0.0068 -0.1365 -0.1769
  228POPC   C1B 3226   6.679   3.936   5.534 -0.3048  0.2315  0.1697
  228POPC   C2B 3227   6.477   4.151   5.938 -0.0702 -0.4844  0.1926
  228POPC   C3B 3228   6.198   4.395   6.145 -0.1173 -0.0918  0.3046
  228POPC   C4B 3229   6.024   4.763   6.224 -0.2295  0.1166 -0.1319
  229POPC   NC3 3230   4.543   4.399   4.944 -0.1220  0.1334 -0.2457
  229POPC   PO4 3231   4.078   4.233   5.118  0.0492 -0.0716  0.0665
  229POPC   GL1 3232   4.242   4.477   5.412 -0.3028  0.1607  0.2228
  229POPC   GL2 3233   4.603   4.531   5.443 -0.0811 -0.0576 -0.1599
  229POPC   C1A 3234   4.053   4.780   5.676 -0.0984 -0.1936  0.2152
  229POPC   D2A 3235   4.107   4.928   6.074 -0.0397 -0.2566 -0.0504
  229POPC   C3A 3236   3.883   4.749   6.272 -0.0667 -0.2743  0.0935
  229POPC   C4A 3237   3.642   4.828   6.662  0.1367  0.3251  0.1947
  229POPC   C1B 3238   4.509   4.678   5.895 -0.1284 -0.0461 -0.0432
  229POPC   C2B 3239   4.656   4.713   6.341 -0.0512 -0.1704 -0.2057
  229POPC   C3B 3240   4.728   5.013   6.791  0.3699 -0.0490  0.3091
  229POPC   C4B 3241   4.381   5.269   6.976 -0.1518 -0.3457 -0.0681
  230POPC   NC3 3242   9.575   2.125   4.885  0.0425  0.0626 -0.2497
  230POPC   PO4 3243   9.542   1.696   4.815  0.1200 -0.3591  0.1508
  230POPC   GL1 3244   9.372   1.527   5.199  0.0287  0.0864  0.3046
  230POPC   GL2 3245   9.023   1.487   5.377 -0.0068 -0.2097 -0.2366
  230POPC   C1A 3246   9.383   1.173   5.443 -0.0591  0.0252 -0.1928
  230POPC   D2A 3247   9.130   0.836   5.682  0.2997  0.0028 -0.2190
  230POPC   C3A 3248   9.054   0.839   6.085 -0.1275  0.0573 -0.0344
  230POPC   C4A 3249   8.982   0.623   6.467 -0.2852  0.2176 -0.0324
  230POPC   C1B 3250   9.190   1.679   5.704  0.3660 -0.2961  0.0489
  230POPC   C2B 3251   9.320   1.750   6.097  0.0218 -0.1338  0.0707
  230POPC   C3B 3252   9.237   1.691   6.538  0.0838  0.3905  0.2889
  230POPC   C4B 3253   9.497   1.374   6.749  0.2101  0.2548 -0.1072
  231POPC   NC3 3254   0.304   6.648   5.286 -0.0100  0.1286  0.3050
  231POPC   PO4 3255   0.147   6.299   5.499 -0.0238 -0.1244 -0.0791
  231POPC   GL1 3256   0.014   5.984   5.800 -0.1376 -0.1344  0.1633
  231POPC   GL2 3257   0.229   5.838   5.961 -0.1841 -0.0595  0.2094
  231POPC   C1A 3258  -0.217   5.614   6.088 -0.0886  0.1070  0.0280
  231POPC   D2A 3259  -0.478   5.360   6.157  0.1527 -0.1383  0.0328
  231POPC   C3A 3260  -0.368   4.958   6.257 -0.2909  0.0110 -0.0650
  231POPC   C4A 3261  -0.280   4.609   6.409 -0.1427 -0.0581 -0.0031
  231POPC   C1B 3262   0.411   6.222   6.070  0.1297 -0.2780 -0.1413
  231POPC   C2B 3263   0.667   6.527   6.154 -0.3936  0.3269 -0.1158
  231POPC   C3B 3264   0.908   6.830   6.384  0.0078 -0.1064 -0.1742
  231POPC   C4B 3265   0.917   6.886   6.867 -0.0149  0.0392  0.0695
  232POPC   NC3 3266   5.969   2.348   5.116 -0.0906  0.0480 -0.3239
  232POPC   PO4 3267   6.101   2.053   5.330  0.2449  0.4351 -0.1921
  232POPC   GL1 3268   6.022   1.698   5.579 -0.2965  0.2037  0.2013
  232POPC   GL2 3269   5.606   1.636   5.604 -0.2346  0.1435  0.1118
  232POPC   C1A 3270   5.969   1.440   5.987  0.4995 -0.0490 -0.0807
  232POPC   D2A 3271   5.718   1.282   6.237  0.1752 -0.0823  0.0636
  232POPC   C3A 3272   5.347   1.477   6.109 -0.0604  0.0645  0.0610
  232POPC   C4A 3273   5.098   1.466   5.620  0.0819 -0.2040 -0.0063
  232POPC   C1B 3274   5.631   1.946   5.983  0.2295  0.2367 -0.3145
  232POPC   C2B 3275   5.602   1.827   6.402  0.0227 -0.2314  0.1469
  232POPC   C3B 3276   5.327   1.985   6.647  0.0787  0.3067  0.1755
  232POPC   C4B 3277   5.031   2.228   6.607  0.0127 -0.0998 -0.2570
  233POPC   NC3 3278   7.645   3.384   4.989 -0.0444  0.2439  0.1589
  233POPC   PO4 3279   7.658   3.764   4.754 -0.0688  0.2194 -0.2342
  233POPC   GL1 3280   7.722   3.896   5.167  0.0807  0.2125  0.1086
  233POPC   GL2 3281   7.972   3.821   5.325 -0.0304  0.1917 -0.1621
  233POPC   C1A 3282   7.671   4.076   5.616 -0.1733 -0.2561  0.1234
  233POPC   D2A 3283   7.685   4.150   5.951  0.3526  0.0167 -0.1812
  233POPC   C3A 3284   7.970   4.269   6.236 -0.0666  0.0717  0.0900
  233POPC   C4A 3285   8.310   4.397   6.534  0.0769 -0.1469  0.0910
  233POPC   C1B 3286   7.838   3.580   5.624  0.0066  0.2982 -0.1200
  233POPC   C2B 3287   7.702   3.706   6.078 -0.1974 -0.0600  0.0866
  233POPC   C3B 3288   7.471   3.594   6.532 -0.1348  0.1879 -0.1325
  233POPC   C4B 3289   7.120   3.576   6.769 -0.0011 -0.1203 -0.1162
  234POPC   NC3 3290   9.366   0.018   5.070  0.3188  0.3078  0.1310
  234POPC   PO4 3291   8.912   0.001   5.150 -0.2313  0.0394 -0.0971
  234POPC   GL1 3292   8.697   0.072   5.604  0.2832  0.1319 -0.0062
  234POPC   GL2 3293   8.966  -0.010   5.654 -0.2531  0.1817  0.1792
  234POPC   C1A 3294   8.421  -0.180   5.902  0.2251 -0.0442 -0.2018
  234POPC   D2A 3295   8.211  -0.493   5.926 -0.1996 -0.3134 -0.3404
  234POPC   C3A 3296   8.034  -0.583   6.284  0.0986 -0.0248  0.0694
  234POPC   C4A 3297   7.949  -0.307   6.511 -0.0851 -0.0771 -0.2356
  234POPC   C1B 3298   8.891  -0.309   5.930 -0.1628  0.1685  0.0557
  234POPC   C2B 3299   8.936  -0.437   6.375 -0.2363  0.0915  0.1303
  234POPC   C3B 3300   8.760  -0.293   6.827 -0.0143  0.2497  0.1517
  234POPC   C4B 3301   8.619  -0.262   7.353  0.2593  0.2091 -0.0195
  235POPC   NC3 3302   7.383   0.551   4.520  0.1875 -0.1889  0.1062
  235POPC   PO4 3303   7.788   0.522   4.735  0.0239 -0.0942  0.1423
  235POPC   GL1 3304   7.366   0.287   4.945 -0.0094  0.0680 -0.1308
  235POPC   GL2 3305   7.112   0.662   4.924  0.0513 -0.0574  0.2365
  235POPC   C1A 3306   6.914   0.208   5.132  0.1787  0.2902 -0.0666
  235POPC   D2A 3307   6.708  -0.068   5.436 -0.3111 -0.1357 -0.1685
  235POPC   C3A 3308   6.610  -0.100   5.852  0.2447 -0.1452 -0.0199
  235POPC   C4A 3309   6.400  -0.080   6.203 -0.0803  0.0618  0.0610
  235POPC   C1B 3310   7.263   0.471   5.380 -0.2241 -0.1272  0.3474
  235POPC   C2B 3311   7.285   0.573   5.813 -0.0980 -0.1750  0.2341
  235POPC   C3B 3312   7.438   0.420   6.183  0.1235  0.2125  0.0424
  235POPC   C4B 3313   7.608   0.512   6.650  0.2567  0.1015  0.0074
  236POPC   NC3 3314   1.195   7.419   5.068  0.0667 -0.0069  0.1183
  236POPC   PO4 3315   1.605   7.597   5.069 -0.0676 -0.2622  0.1588
  236POPC   GL1 3316   1.355   7.856   5.367 -0.1227 -0.0694  0.0144
  236POPC   GL2 3317   1.021   7.947   5.371  0.1346  0.0872 -0.0063
  236POPC   C1A 3318   1.634   7.902   5.778 -0.0164 -0.1900 -0.2843
  236POPC   D2A 3319   1.776   7.522   5.951 -0.1912 -0.0903  0.2468
  236POPC   C3A 3320   1.784   7.704   6.342  0.0491 -0.1952 -0.0841
  236POPC   C4A 3321   1.863   8.008   6.576 -0.3256  0.1892  0.0104
  236POPC   C1B 3322   1.093   7.896   5.830  0.0765  0.3015 -0.0333
  236POPC   C2B 3323   1.074   7.734   6.247 -0.0976 -0.2460  0.0342
  236POPC   C3B 3324   1.301   7.679   6.629 -0.1249 -0.2323 -0.1166
  236POPC   C4B 3325   1.723   7.545   6.823 -0.2088 -0.1041  0.1995
  237POPC   NC3 3326   1.695   1.170   4.960 -0.1521  0.0196 -0.2795
  237POPC   PO4 3327   1.283   1.332   5.062 -0.2854 -0.2928 -0.0128
  237POPC   GL1 3328   1.481   1.225   5.416 -0.1471  0.2235  0.1788
  237POPC   GL2 3329   1.239   1.068   5.603  0.1337  0.1352 -0.0109
  237POPC   C1A 3330   1.673   1.095   5.851  0.0318 -0.0259 -0.2823
  237POPC   D2A 3331   1.397   0.997   6.139 -0.1302  0.0092 -0.1781
  237POPC   C3A 3332   1.196   1.184   6.472  0.1813 -0.1955  0.2733
  237POPC   C4A 3333   0.858   1.289   6.751 -0.1587 -0.1564 -0.0376
  237POPC   C1B 3334   1.199   1.460   5.855 -0.2448  0.3672 -0.0221
  237POPC   C2B 3335   1.216   1.860   5.852  0.0711  0.3283 -0.0534
  237POPC   C3B 3336   0.978   2.167   5.961  0.2986  0.4437 -0.0985
  237POPC   C4B 3337   1.138   2.204   6.345  0.0386  0.3129 -0.0107
  238POPC   NC3 3338   8.072   5.103   4.692 -0.1232 -0.0995 -0.0492
  238POPC   PO4 3339   7.771   4.863   5.024  0.1406 -0.0749 -0.3773
  238POPC   GL1 3340   8.060   5.083   5.285 -0.0138 -0.0284 -0.0674
  238POPC   GL2 3341   7.914   5.015   5.531 -0.3146 -0.0164  0.1057
  238POPC   C1A 3342   7.930   5.581   5.340  0.0487 -0.2529 -0.1216
  238POPC   D2A 3343   8.213   5.761   5.654  0.2260 -0.0878 -0.0627
  238POPC   C3A 3344   8.191   5.858   6.054 -0.0962 -0.1528  0.2096
  238POPC   C4A 3345   8.241   5.862   6.428 -0.0914 -0.1363 -0.3203
  238POPC   C1B 3346   7.493   4.887   5.701  0.0580 -0.3961  0.0270
  238POPC   C2B 3347   7.470   4.578   6.019 -0.1181 -0.2011  0.1849
  238POPC   C3B 3348   7.269   4.516   6.514  0.3048  0.3045 -0.1101
  238POPC   C4B 3349   6.905   4.643   6.735  0.3435 -0.3411  0.0555
  239POPC   NC3 3350   5.166   5.665   3.993 -0.1237 -0.2952  0.0418
  239POPC   PO4 3351   4.866   5.761   4.322 -0.0800 -0.0338  0.2194
  239POPC   GL1 3352   4.915   5.658   4.795  0.0573 -0.2428  0.0099
  239POPC   GL2 3353   4.650   5.517   5.005  0.0446  0.3850  0.1126
  239POPC   C1A 3354   4.994   5.761   5.217 -0.0471 -0.1952  0.1114
  239POPC   D2A 3355   5.282   6.011   5.458 -0.1018  0.1895  0.3035
  239POPC   C3A 3356   5.171   6.058   5.858  0.0813 -0.0184  0.2087
  239POPC   C4A 3357   5.058   5.888   6.278 -0.0493 -0.0447  0.0193
  239POPC   C1B 3358   4.631   5.489   5.392 -0.1836 -0.1831  0.0631
  239POPC   C2B 3359   4.775   5.648   5.739  0.0960  0.0135  0.0959
  239POPC   C3B 3360   4.658   6.026   6.006 -0.1016 -0.0227 -0.0494
  239POPC   C4B 3361   4.695   6.296   6.336 -0.2338  0.2583  0.1582
  240POPC   NC3 3362   0.489   8.085   5.231  0.0421 -0.1112  0.0783
  240POPC   PO4 3363   0.089   7.899   5.310 -0.2254 -0.1923 -0.0221
  240POPC   GL1 3364  -0.028   8.130   5.641 -0.0491  0.2848  0.1243
  240POPC   GL2 3365   0.051   7.815   5.839 -0.2045  0.1671 -0.0380
  240POPC   C1A 3366   0.141   8.253   6.090  0.3263 -0.0443  0.0145
  240POPC   D2A 3367   0.376   8.236   6.486 -0.0196 -0.3080  0.1278
  240POPC   C3A 3368   0.106   8.490   6.857  0.2079  0.0311  0.0313
  240POPC   C4A 3369  -0.094   8.499   7.319  0.0501  0.0258 -0.2990
  240POPC   C1B 3370  -0.265   7.758   6.139  0.3427 -0.1557 -0.2627
  240POPC   C2B 3371  -0.564   7.742   6.449  0.2279 -0.1568 -0.4511
  240POPC   C3B 3372  -0.439   7.730   6.901  0.0035 -0.3052 -0.3413
  240POPC   C4B 3373  -0.585   8.057   7.324  0.0624 -0.0533 -0.0748
  241POPC   NC3 3374   8.967   5.299   4.915  0.0976  0.2065  0.0973
  241POPC   PO4 3375   8.561   5.174   5.079 -0.4118 -0.2132 -0.2280
  241POPC   GL1 3376   8.472   5.148   5.499  0.1744 -0.2999 -0.2897
  241POPC   GL2 3377   8.352   4.781   5.578 -0.1492  0.0045 -0.2263
  241POPC   C1A 3378   8.241   5.190   5.885 -0.1941 -0.1174  0.0600
  241POPC   D2A 3379   8.125   5.402   6.294 -0.0590  0.1735  0.0834
  241POPC   C3A 3380   7.801   5.665   6.268  0.1005  0.1552 -0.1832
  241POPC   C4A 3381   7.368   5.790   6.121  0.0818  0.0561  0.3095
  241POPC   C1B 3382   8.390   4.428   5.967  0.1467 -0.3118  0.0922
  241POPC   C2B 3383   8.711   4.274   6.156  0.1902 -0.2180  0.0775
  241POPC   C3B 3384   8.912   4.157   6.466 -0.2892  0.1445 -0.2031
  241POPC   C4B 3385   9.167   3.972   6.922 -0.2182  0.2096  0.1258
  242POPC   NC3 3386   0.295   1.065   5.148  0.4790 -0.1731 -0.0228
  242POPC   PO4 3387   0.403   0.637   5.109  0.1449  0.0057  0.2094
  242POPC   GL1 3388   0.546   0.373   5.582  0.0194  0.1766  0.2160
  242POPC   GL2 3389   0.817   0.148   5.653  0.2984  0.0168 -0.6678
  242POPC   C1A 3390   0.549   0.558   6.066 -0.0742 -0.1725  0.0009
  242POPC   D2A 3391   0.565   0.367   6.486  0.2426 -0.0493  0.2067
  242POPC   C3A 3392   0.710   0.008   6.737  0.2354 -0.0079  0.3968
  242POPC   C4A 3393   0.949  -0.273   7.066 -0.0053  0.0605  0.1268
  242POPC   C1B 3394   0.963   0.174   6.040  0.3979  0.3565 -0.1105
  242POPC   C2B 3395   1.045   0.456   6.304  0.3228 -0.0958 -0.3782
  242POPC   C3B 3396   1.315   0.628   6.626  0.1709  0.0777  0.4066
  242POPC   C4B 3397   1.652   0.883   6.625  0.1100  0.1209  0.1095
  243POPC   NC3 3398   3.553  10.169   3.837 -0.0323 -0.3232 -0.0254
  243POPC   PO4 3399   3.596   9.847   4.089 -0.1530 -0.0295  0.1064
  243POPC   GL1 3400   3.501   9.617   4.431  0.0865 -0.3076 -0.0760
  243POPC   GL2 3401   3.723   9.444   4.566 -0.0429 -0.1120  0.0246
  243POPC   C1A 3402   3.305   9.240   4.771  0.0578 -0.2887 -0.0764
  243POPC   D2A 3403   3.178   9.258   5.121 -0.2067  0.3423  0.2845
  243POPC   C3A 3404   3.360   9.550   5.444 -0.1319 -0.4120  0.0852
  243POPC   C4A 3405   3.744   9.889   5.617  0.2942 -0.1064 -0.4809
  243POPC   C1B 3406   3.857   9.282   4.938  0.2699  0.0130  0.2610
  243POPC   C2B 3407   3.817   9.232   5.391  0.1970  0.1872 -0.0395
  243POPC   C3B 3408   3.890   9.389   5.741  0.1810  0.0472  0.1223
  243POPC   C4B 3409   3.940   9.345   6.150 -0.0449  0.0405  0.0409
  244POPC   NC3 3410   9.859   3.945   4.793  0.4228 -0.1351  0.0443
  244POPC   PO4 3411   9.605   3.634   4.743 -0.3018  0.0768  0.0982
  244POPC   GL1 3412   9.524   3.444   5.166 -0.0765  0.0304  0.1341
  244POPC   GL2 3413   9.753   3.118   5.070 -0.0259 -0.3287 -0.0735
  244POPC   C1A 3414   9.460   3.573   5.616  0.2067  0.1219  0.1603
  244POPC   D2A 3415   9.585   3.865   5.933 -0.0960  0.0629 -0.0587
  244POPC   C3A 3416   9.523   4.325   5.715  0.0496  0.0374 -0.2069
  244POPC   C4A 3417   9.344   4.776   5.691  0.0721  0.0242  0.0084
  244POPC   C1B 3418   9.544   3.082   5.565 -0.2668  0.1725  0.0236
  244POPC   C2B 3419   9.612   3.298   6.070 -0.0473  0.1397 -0.2177
  244POPC   C3B 3420   9.829   3.433   6.521 -0.0284  0.1628  0.2327
  244POPC   C4B 3421   9.914   3.745   6.906 -0.2554  0.0265  0.2046
  245POPC   NC3 3422   9.084   5.905   4.991  0.0403 -0.0659 -0.0276
  245POPC   PO4 3423   8.702   5.660   4.764 -0.0294  0.1025 -0.5599
  245POPC   GL1 3424   8.585   5.884   5.129 -0.1363  0.1579 -0.0764
  245POPC   GL2 3425   8.539   5.676   5.317 -0.2155  0.1544  0.0035
  245POPC   C1A 3426   8.717   6.125   5.574 -0.0655 -0.1314  0.0612
  245POPC   D2A 3427   8.684   5.943   6.028 -0.1241  0.1207  0.0828
  245POPC   C3A 3428   8.723   6.018   6.454  0.2595  0.0040  0.0150
  245POPC   C4A 3429   9.150   5.980   6.576  0.1324  0.2214  0.0306
  245POPC   C1B 3430   8.667   5.585   5.663 -0.1897  0.3102 -0.0209
  245POPC   C2B 3431   8.650   5.419   6.117  0.0487 -0.4259  0.3760
  245POPC   C3B 3432   8.799   5.554   6.446  0.1916  0.0941 -0.0308
  245POPC   C4B 3433   8.838   5.708   6.875 -0.0220  0.0445  0.2461
  246POPC   NC3 3434   8.698   8.427   4.168  0.0423  0.1088  0.0090
  246POPC   PO4 3435   8.604   8.612   4.572 -0.0967 -0.0951  0.1692
  246POPC   GL1 3436   8.265   8.404   4.859 -0.0959 -0.2627 -0.0365
  246POPC   GL2 3437   8.378   8.502   5.119 -0.1145  0.1655 -0.0312
  246POPC   C1A 3438   7.777   8.241   4.766 -0.2096 -0.4385 -0.1135
  246POPC   D2A 3439   7.238   8.227   4.780 -0.1043  0.0716 -0.1152
  246POPC   C3A 3440   6.990   8.545   4.960  0.0319  0.0582  0.1499
  246POPC   C4A 3441   6.617   8.719   5.114 -0.0642  0.3531 -0.0747
  246POPC   C1B 3442   7.994   8.226   5.257  0.0293 -0.0055 -0.0980
  246POPC   C2B 3443   7.667   8.223   5.675  0.0557 -0.0551 -0.1275
  246POPC   C3B 3444   7.560   8.088   6.018 -0.1925  0.0770  0.1607
  246POPC   C4B 3445   7.222   7.755   6.192  0.0853 -0.1099  0.2174
  247POPC   NC3 3446   7.003   5.940   4.412 -0.1133 -0.3286  0.2674
  247POPC   PO4 3447   6.701   5.593   4.273  0.1581  0.2067 -0.0264
  247POPC   GL1 3448   6.710   5.540   4.731 -0.4356 -0.2733  0.0711
  247POPC   GL2 3449   7.047   5.549   4.789 -0.1872  0.2112  0.0273
  247POPC   C1A 3450   6.527   5.424   5.183 -0.1789  0.0516  0.1658
  247POPC   D2A 3451   6.279   5.086   5.457 -0.0550 -0.2978 -0.1746
  247POPC   C3A 3452   6.507   4.734   5.322  0.0782  0.0177 -0.5167
  247POPC   C4A 3453   6.757   4.434   5.285 -0.2079  0.0694 -0.0160
  247POPC   C1B 3454   6.931   5.855   5.025  0.2865 -0.3194  0.1410
  247POPC   C2B 3455   6.778   6.057   5.449  0.0265  0.2340 -0.0914
  247POPC   C3B 3456   6.892   6.150   5.854  0.0189 -0.3137  0.0047
  247POPC   C4B 3457   6.632   6.111   6.294  0.0108  0.3554  0.1939
  248POPC   NC3 3458   1.059   5.290   5.435  0.0302  0.2282  0.4495
  248POPC   PO4 3459   0.564   5.330   5.488 -0.2338  0.3340 -0.1602
  248POPC   GL1 3460   0.548   5.116   5.856 -0.1909 -0.0229 -0.3197
  248POPC   GL2 3461   0.863   5.082   5.958 -0.0085 -0.0464  0.1238
  248POPC   C1A 3462   0.397   4.834   6.119  0.1000  0.2329 -0.1601
  248POPC   D2A 3463   0.446   4.711   6.588  0.0775  0.0672 -0.0644
  248POPC   C3A 3464   0.078   4.441   6.791  0.1482 -0.1325 -0.1658
  248POPC   C4A 3465   0.033   4.044   7.011  0.0126 -0.2998  0.0962
  248POPC   C1B 3466   1.272   5.186   6.001 -0.3329 -0.0381  0.2850
  248POPC   C2B 3467   1.601   5.302   6.222 -0.2920  0.1773 -0.3391
  248POPC   C3B 3468   1.971   5.204   6.424 -0.1138  0.2003 -0.1042
  248POPC   C4B 3469   2.328   4.964   6.734 -0.2203  0.2467  0.0297
  249POPC   NC3 3470   1.287   3.288   4.338  0.1072  0.1343 -0.3945
  249POPC   PO4 3471   1.036   3.526   4.674  0.0481  0.0929  0.4265
  249POPC   GL1 3472   0.985   3.534   5.077 -0.3933  0.4048  0.4593
  249POPC   GL2 3473   0.740   3.720   5.208 -0.0743  0.0517 -0.0988
  249POPC   C1A 3474   1.073   3.633   5.518  0.1720 -0.1021  0.1152
  249POPC   D2A 3475   0.769   3.784   5.826 -0.0058 -0.0085  0.2098
  249POPC   C3A 3476   0.481   4.051   5.765  0.1778 -0.2087  0.2369
  249POPC   C4A 3477   0.338   4.557   5.699 -0.1066 -0.1124 -0.1297
  249POPC   C1B 3478   0.659   3.401   5.514  0.1299 -0.1466  0.0774
  249POPC   C2B 3479   0.437   3.446   5.926  0.0948 -0.0897  0.1648
  249POPC   C3B 3480   0.023   3.699   6.002 -0.0098 -0.0147 -0.2753
  249POPC   C4B 3481  -0.293   3.817   6.264 -0.2288  0.0617 -0.1123
  250POPC   NC3 3482   4.300   3.476   4.792 -0.1504  0.2352 -0.0538
  250POPC   PO4 3483   4.593   3.361   5.021 -0.2681 -0.1234  0.2149
  250POPC   GL1 3484   4.798   3.275   5.455 -0.3322  0.1944 -0.0287
  250POPC   GL2 3485   5.040   3.023   5.614  0.0399  0.1534  0.0241
  250POPC   C1A 3486   4.808   3.391   5.916 -0.0763  0.1016 -0.0123
  250POPC   D2A 3487   4.826   3.625   6.420  0.0632  0.1990 -0.2943
  250POPC   C3A 3488   4.960   3.370   6.780  0.0606  0.0179  0.0954
  250POPC   C4A 3489   4.728   2.993   6.902  0.1270 -0.1576  0.2085
  250POPC   C1B 3490   5.133   2.765   6.001  0.5948 -0.1013 -0.2707
  250POPC   C2B 3491   5.279   2.694   6.479  0.0940  0.1327 -0.2040
  250POPC   C3B 3492   5.084   2.602   6.950 -0.0347 -0.1738  0.1128
  250POPC   C4B 3493   4.825   2.580   7.179 -0.1239  0.3215  0.0355
  251POPC   NC3 3494   2.431   1.990   4.795 -0.0463 -0.3285 -0.2144
  251POPC   PO4 3495   2.779   2.135   4.881 -0.0250  0.1129 -0.3042
  251POPC   GL1 3496   2.640   1.944   5.340  0.0892  0.3871 -0.1823
  251POPC   GL2 3497   2.338   1.949   5.326  0.0403 -0.1934  0.0210
  251POPC   C1A 3498   2.388   1.815   5.786  0.1993  0.0770  0.0821
  251POPC   D2A 3499   2.490   1.767   6.208  0.0869  0.0514  0.0912
  251POPC   C3A 3500   2.525   2.130   6.546 -0.1867  0.0528  0.1411
  251POPC   C4A 3501   2.499   2.625   6.610 -0.2282 -0.0508  0.0730
  251POPC   C1B 3502   2.238   2.269   5.542 -0.1994 -0.0864 -0.0966
  251POPC   C2B 3503   2.008   2.579   5.763  0.4226 -0.0301  0.0659
  251POPC   C3B 3504   1.617   2.746   5.798  0.1559 -0.1536 -0.1458
  251POPC   C4B 3505   1.300   3.136   5.878  0.3336 -0.2595  0.1544
  252POPC   NC3 3506   5.644  10.506   3.823 -0.2583 -0.1148 -0.0733
  252POPC   PO4 3507   5.732  10.749   4.114 -0.1858 -0.2113 -0.0501
  252POPC   GL1 3508   5.936  10.511   4.367  0.0491  0.2519 -0.0520
  252POPC   GL2 3509   5.783  10.237   4.278  0.1608 -0.3630  0.2935
  252POPC   C1A 3510   5.942  10.211   4.792 -0.0209  0.0824  0.0958
  252POPC   D2A 3511   6.233   9.931   4.863 -0.3175  0.0107 -0.1631
  252POPC   C3A 3512   6.307   9.564   5.114  0.2038  0.0099 -0.1535
  252POPC   C4A 3513   6.354   9.524   5.555 -0.3742 -0.2220 -0.0860
  252POPC   C1B 3514   5.388   9.900   4.457 -0.4166  0.1516  0.1134
  252POPC   C2B 3515   5.129   9.751   4.864  0.0911  0.1864  0.0622
  252POPC   C3B 3516   5.227   9.786   5.360 -0.0595  0.0006  0.0695
  252POPC   C4B 3517   5.152   9.797   5.793 -0.0366 -0.2638  0.2159
  253POPC   NC3 3518   4.214   0.743   4.291  0.1384  0.2171 -0.1578
  253POPC   PO4 3519   4.074   0.343   4.464 -0.2234 -0.2544 -0.1039
  253POPC   GL1 3520   4.092   0.283   4.829 -0.1525  0.0423 -0.2852
  253POPC   GL2 3521   3.895   0.168   5.038 -0.5029 -0.5605 -0.0011
  253POPC   C1A 3522   4.368   0.482   5.163 -0.1872  0.1744  0.1609
  253POPC   D2A 3523   4.394   0.377   5.582 -0.3524 -0.0304 -0.3427
  253POPC   C3A 3524   4.099   0.301   5.937  0.1148  0.3857  0.1021
  253POPC   C4A 3525   3.831   0.023   6.209 -0.1310  0.1794 -0.3558
  253POPC   C1B 3526   3.987   0.226   5.412 -0.1369 -0.1463  0.2443
  253POPC   C2B 3527   3.930  -0.149   5.718  0.4050 -0.0944 -0.0493
  253POPC   C3B 3528   3.839  -0.439   6.071 -0.0214 -0.1839  0.3945
  253POPC   C4B 3529   3.599  -0.413   6.489  0.2020 -0.0105  0.0349
  254POPC   NC3 3530   8.414   4.685   4.977 -0.3069 -0.0174 -0.0477
  254POPC   PO4 3531   8.058   4.388   4.871 -0.3209  0.0488  0.0041
  254POPC   GL1 3532   7.849   4.388   5.267  0.3239 -0.0025 -0.2348
  254POPC   GL2 3533   7.509   4.568   5.361 -0.2192  0.1193 -0.4710
  254POPC   C1A 3534   7.905   4.502   5.700  0.1375 -0.0393 -0.1801
  254POPC   D2A 3535   7.988   4.797   6.020 -0.2182 -0.1217 -0.0701
  254POPC   C3A 3536   7.784   4.750   6.424  0.0801  0.0255  0.2166
  254POPC   C4A 3537   7.837   4.484   6.773 -0.3086  0.1596  0.0384
  254POPC   C1B 3538   7.234   4.220   5.434  0.1990  0.2550 -0.1277
  254POPC   C2B 3539   7.089   4.068   5.745  0.0962  0.0936  0.1403
  254POPC   C3B 3540   6.929   4.195   6.168  0.2083 -0.1499 -0.2139
  254POPC   C4B 3541   6.629   4.445   6.296  0.0603 -0.0498 -0.0818
  255POPC   NC3 3542  10.051   0.451   5.182 -0.1176  0.2191 -0.3171
  255POPC   PO4 3543   9.727   0.246   5.361 -0.1802  0.4157 -0.0613
  255POPC   GL1 3544   9.698   0.282   5.765 -0.2047 -0.2742 -0.4348
  255POPC   GL2 3545   9.401   0.114   5.912  0.1047  0.3076  0.1427
  255POPC   C1A 3546   9.829   0.051   6.071 -0.0400 -0.1916 -0.1942
  255POPC   D2A 3547   9.985   0.102   6.540  0.1180 -0.1416 -0.1581
  255POPC   C3A 3548  10.303   0.135   6.818 -0.2509  0.3025 -0.0068
  255POPC   C4A 3549  10.733   0.041   6.763 -0.6001 -0.0507 -0.0499
  255POPC   C1B 3550   9.321   0.407   6.137 -0.0625 -0.1223 -0.0314
  255POPC   C2B 3551   9.696   0.487   6.437  0.0533  0.2080 -0.1108
  255POPC   C3B 3552   9.897   0.436   6.905 -0.2553 -0.2550  0.0723
  255POPC   C4B 3553  10.316   0.585   7.094 -0.0894 -0.0053 -0.1292
  256POPC   NC3 3554   9.068   8.350   5.356  0.1515  0.0401  0.1337
  256POPC   PO4 3555   9.183   8.821   5.283 -0.3587 -0.2618 -0.0266
  256POPC   GL1 3556   8.808   8.766   5.565  0.1284 -0.0199  0.2286
  256POPC   GL2 3557   8.668   8.525   5.553 -0.1854  0.2559 -0.1499
  256POPC   C1A 3558   8.785   8.782   6.007  0.0567  0.1184  0.0704
  256POPC   D2A 3559   8.673   8.842   6.430 -0.0822  0.0518  0.0045
  256POPC   C3A 3560   8.705   8.599   6.817 -0.2214 -0.0109 -0.0816
  256POPC   C4A 3561   8.973   8.245   7.074 -0.0446 -0.0335 -0.3172
  256POPC   C1B 3562   8.524   8.316   6.067 -0.2429  0.3198  0.2063
  256POPC   C2B 3563   8.365   7.941   6.182 -0.1929 -0.1053  0.2993
  256POPC   C3B 3564   8.348   7.690   6.460 -0.1655 -0.0233  0.2237
  256POPC   C4B 3565   8.173   7.793   6.901  0.1076 -0.1149  0.0163
  257POPC   NC3 3566   2.809   4.597   5.254 -0.2461  0.1816 -0.2806
  257POPC   PO4 3567   3.117   4.175   5.077  0.1800  0.2507  0.0963
  257POPC   GL1 3568   3.083   4.185   5.521 -0.3674  0.1989 -0.1074
  257POPC   GL2 3569   3.065   4.535   5.665 -0.0920  0.1595 -0.3956
  257POPC   C1A 3570   3.384   4.133   5.873  0.0082  0.1457  0.0222
  257POPC   D2A 3571   3.752   4.013   6.009 -0.0660  0.0219  0.1008
  257POPC   C3A 3572   3.898   3.951   6.399 -0.2009  0.2425 -0.0840
  257POPC   C4A 3573   3.674   3.641   6.640 -0.0421  0.0917  0.1954
  257POPC   C1B 3574   3.060   4.523   6.118 -0.0960  0.0263  0.1764
  257POPC   C2B 3575   3.125   4.455   6.600  0.3957  0.1077 -0.2601
  257POPC   C3B 3576   3.247   4.651   6.909  0.1616  0.2231 -0.0109
  257POPC   C4B 3577   3.317   5.011   7.068 -0.1441 -0.0379 -0.1332
  258POPC   NC3 3578   1.417   5.912   5.003  0.0969  0.0246 -0.0807
  258POPC   PO4 3579   1.276   5.743   5.328  0.0214 -0.0710 -0.1517
  258POPC   GL1 3580   1.438   5.861   5.729  0.2220  0.0536 -0.2396
  258POPC   GL2 3581   1.510   5.624   5.852 -0.1606  0.1308 -0.0559
  258POPC   C1A 3582   1.874   5.998   5.904  0.0076 -0.2240  0.2421
  258POPC   D2A 3583   2.211   6.205   6.185  0.2193 -0.0620 -0.0015
  258POPC   C3A 3584   2.226   6.222   6.709  0.0708  0.3285  0.1500
  258POPC   C4A 3585   2.582   5.993   6.801 -0.0313 -0.0684  0.1478
  258POPC   C1B 3586   1.582   5.805   6.249 -0.0095 -0.0355  0.0889
  258POPC   C2B 3587   1.843   5.948   6.473  0.0750 -0.0215 -0.0009
  258POPC   C3B 3588   2.059   5.687   6.866 -0.0593  0.1793 -0.0334
  258POPC   C4B 3589   2.452   5.507   6.906 -0.2186 -0.1423 -0.0364
  259POPC   NC3 3590   6.877   6.714   4.005  0.1282 -0.0859  0.1257
  259POPC   PO4 3591   6.752   7.056   3.729  0.2704 -0.0222  0.0390
  259POPC   GL1 3592   6.609   7.288   4.183 -0.0341 -0.1103 -0.3392
  259POPC   GL2 3593   6.722   7.622   4.210  0.0132  0.1909  0.3251
  259POPC   C1A 3594   6.462   7.097   4.619 -0.0334  0.0822 -0.1209
  259POPC   D2A 3595   6.389   7.197   5.071 -0.3098  0.2989  0.0087
  259POPC   C3A 3596   6.290   6.720   5.168 -0.0682 -0.2060  0.0522
  259POPC   C4A 3597   5.947   6.638   5.421  0.0142 -0.2901 -0.1457
  259POPC   C1B 3598   6.582   7.613   4.706 -0.0556  0.2699 -0.2541
  259POPC   C2B 3599   6.478   7.725   5.076  0.0091  0.0735 -0.1594
  259POPC   C3B 3600   6.551   7.735   5.536  0.0528 -0.1081  0.1236
  259POPC   C4B 3601   6.319   7.424   5.889 -0.1479  0.0201  0.0882
  260POPC   NC3 3602   2.065   4.090   5.533  0.2962 -0.3284 -0.0774
  260POPC   PO4 3603   2.183   4.004   5.210  0.1281  0.2306  0.2139
  260POPC   GL1 3604   2.238   3.657   5.465 -0.0640  0.0097 -0.0691
  260POPC   GL2 3605   2.026   3.419   5.362  0.1264  0.3971 -0.0964
  260POPC   C1A 3606   2.275   3.299   5.783  0.1135  0.0129  0.1644
  260POPC   D2A 3607   2.285   3.040   6.218 -0.4303  0.4719 -0.0095
  260POPC   C3A 3608   2.568   2.747   6.101 -0.0643  0.1096 -0.1957
  260POPC   C4A 3609   2.364   2.322   6.029 -0.0406 -0.0392  0.3039
  260POPC   C1B 3610   1.784   3.175   5.668 -0.0800  0.2024  0.1872
  260POPC   C2B 3611   1.742   3.100   6.104 -0.0072  0.0143 -0.2925
  260POPC   C3B 3612   1.660   3.178   6.525  0.2509  0.2231 -0.0571
  260POPC   C4B 3613   1.626   2.921   6.924 -0.1270 -0.2685 -0.0190
  261POPC   NC3 3614   4.825   4.021   4.493 -0.0939  0.2770  0.3754
  261POPC   PO4 3615   4.620   3.914   4.832 -0.0920 -0.0104 -0.1713
  261POPC   GL1 3616   4.526   3.840   5.283  0.0778  0.0893  0.0229
  261POPC   GL2 3617   4.243   3.825   5.553  0.1767 -0.2101  0.0635
  261POPC   C1A 3618   4.649   4.139   5.739  0.0094 -0.1029 -0.2586
  261POPC   D2A 3619   4.965   4.439   5.833  0.1001  0.0849  0.0656
  261POPC   C3A 3620   5.087   4.507   6.316  0.0826 -0.0216  0.0069
  261POPC   C4A 3621   5.210   4.228   6.582 -0.6345  0.1004  0.1692
  261POPC   C1B 3622   4.223   3.825   6.006 -0.1158 -0.0149  0.1117
  261POPC   C2B 3623   4.347   3.797   6.441 -0.1676 -0.0238 -0.0573
  261POPC   C3B 3624   4.135   3.778   6.848 -0.2235  0.0621 -0.1230
  261POPC   C4B 3625   3.842   3.901   7.064  0.1393 -0.1410  0.0514
  262POPC   NC3 3626   3.436   5.212   5.033 -0.1833 -0.0928 -0.0316
  262POPC   PO4 3627   3.220   5.519   4.756  0.0329  0.1202 -0.0716
  262POPC   GL1 3628   3.342   5.709   5.141  0.1727  0.1195  0.0134
  262POPC   GL2 3629   3.623   5.585   5.333 -0.2866  0.1686  0.2430
  262POPC   C1A 3630   3.159   5.928   5.383  0.0229 -0.1368 -0.2372
  262POPC   D2A 3631   3.386   6.164   5.815  0.0527 -0.0414 -0.0485
  262POPC   C3A 3632   3.112   6.496   6.067  0.0058  0.1473 -0.1108
  262POPC   C4A 3633   3.029   6.693   6.359 -0.0322 -0.3756 -0.2339
  262POPC   C1B 3634   3.706   5.772   5.858 -0.0320 -0.1291 -0.0224
  262POPC   C2B 3635   3.911   5.780   6.303 -0.0612  0.2097 -0.1853
  262POPC   C3B 3636   3.836   5.913   6.694 -0.0924 -0.0198 -0.2973
  262POPC   C4B 3637   3.837   6.219   7.074 -0.2288  0.0975 -0.0571
  263POPC   NC3 3638   1.406   0.685   4.622  0.2022 -0.2600 -0.1903
  263POPC   PO4 3639   1.768   0.691   4.985  0.0193  0.0656  0.0774
  263POPC   GL1 3640   1.947   0.713   5.332  0.2644  0.2826 -0.0383
  263POPC   GL2 3641   2.010   1.033   5.493  0.0872  0.0541  0.1963
  263POPC   C1A 3642   1.824   0.579   5.769 -0.1702 -0.0894  0.0548
  263POPC   D2A 3643   1.531   0.522   6.140  0.0771  0.2035  0.1183
  263POPC   C3A 3644   1.761   0.354   6.513  0.1944  0.0864 -0.0115
  263POPC   C4A 3645   2.098   0.139   6.656 -0.3453 -0.2343 -0.4319
  263POPC   C1B 3646   2.273   0.932   5.834  0.2042 -0.0081  0.0433
  263POPC   C2B 3647   2.460   0.789   6.264  0.1199 -0.0840  0.0306
  263POPC   C3B 3648   2.269   0.759   6.586  0.6342  0.0862  0.2620
  263POPC   C4B 3649   2.140   0.523   6.903 -0.1033  0.1970 -0.2197
  264POPC   NC3 3650   0.437   4.831   5.114  0.0074 -0.0759  0.1244
  264POPC   PO4 3651   0.340   4.498   4.915  0.3988 -0.0593 -0.1696
  264POPC   GL1 3652   0.017   4.628   5.070 -0.1456 -0.1493 -0.0182
  264POPC   GL2 3653  -0.383   4.640   5.042 -0.0614  0.1065 -0.0927
  264POPC   C1A 3654  -0.185   4.659   5.513  0.0958  0.3079 -0.1159
  264POPC   D2A 3655  -0.085   4.634   5.908 -0.0368 -0.3968 -0.0397
  264POPC   C3A 3656   0.108   4.289   6.045  0.2079  0.1028 -0.0401
  264POPC   C4A 3657   0.138   4.063   6.407  0.0613 -0.2923  0.2623
  264POPC   C1B 3658  -0.439   4.283   5.341 -0.2996  0.0133  0.0965
  264POPC   C2B 3659  -0.469   4.185   5.880  0.0179  0.2146 -0.2752
  264POPC   C3B 3660  -0.732   4.371   6.241 -0.1398  0.0476  0.3633
  264POPC   C4B 3661  -0.830   4.703   6.609 -0.1425 -0.0007 -0.1076
  265POPC   NC3 3662   5.847   5.986   4.342 -0.1151 -0.2474 -0.3302
  265POPC   PO4 3663   5.740   5.587   4.351 -0.0871 -0.0910 -0.0394
  265POPC   GL1 3664   5.739   5.534   4.714  0.1050 -0.0322 -0.0461
  265POPC   GL2 3665   5.416   5.600   5.051 -0.2083  0.0132  0.1264
  265POPC   C1A 3666   6.016   5.758   5.016  0.0036 -0.0653  0.0945
  265POPC   D2A 3667   5.899   6.094   5.460 -0.0031 -0.1713  0.1593
  265POPC   C3A 3668   5.624   6.281   5.766  0.0571  0.0837 -0.2026
  265POPC   C4A 3669   5.784   6.616   6.045  0.0958  0.0471  0.0738
  265POPC   C1B 3670   5.582   6.011   5.012 -0.1354 -0.0207 -0.3401
  265POPC   C2B 3671   5.530   6.411   5.218 -0.0955 -0.3131  0.1616
  265POPC   C3B 3672   5.634   6.844   5.053 -0.2954  0.3556 -0.0648
  265POPC   C4B 3673   5.986   7.033   4.821  0.1260 -0.2647 -0.0576
  266POPC   NC3 3674   9.307   3.964   4.944 -0.1971 -0.2901  0.2330
  266POPC   PO4 3675   9.146   3.501   4.914  0.0861  0.0427 -0.1975
  266POPC   GL1 3676   9.072   3.660   5.300 -0.0736 -0.0909  0.0636
  266POPC   GL2 3677   9.132   3.939   5.439 -0.3542  0.0191 -0.1704
  266POPC   C1A 3678   8.829   3.408   5.564  0.0971  0.2463 -0.1541
  266POPC   D2A 3679   8.665   3.322   5.993  0.0165 -0.2919  0.0313
  266POPC   C3A 3680   8.938   3.145   6.367 -0.1934 -0.0341 -0.0426
  266POPC   C4A 3681   9.338   3.186   6.463  0.1006  0.1645 -0.2329
  266POPC   C1B 3682   9.137   4.017   5.820 -0.3190 -0.1587  0.1660
  266POPC   C2B 3683   9.227   4.174   6.114 -0.1048 -0.2162 -0.0722
  266POPC   C3B 3684   9.427   4.180   6.509  0.1062 -0.2196 -0.2478
  266POPC   C4B 3685   9.751   3.911   6.411  0.0245  0.0470  0.2548
  267POPC   NC3 3686   5.599   1.804   4.567  0.0557 -0.2648  0.0811
  267POPC   PO4 3687   5.510   1.425   4.883  0.1240  0.3125  0.2540
  267POPC   GL1 3688   5.261   0.985   4.994  0.0260  0.3730 -0.0727
  267POPC   GL2 3689   5.124   1.116   5.261  0.3906  0.1058  0.0489
  267POPC   C1A 3690   5.363   0.625   5.314 -0.2620  0.2095  0.1285
  267POPC   D2A 3691   5.253   0.444   5.706 -0.1952  0.0965 -0.0566
  267POPC   C3A 3692   5.473   0.553   6.070 -0.5127  0.0910 -0.1312
  267POPC   C4A 3693   5.570   0.432   6.524 -0.6006 -0.0711  0.5611
  267POPC   C1B 3694   5.251   0.961   5.657  0.0255  0.0456  0.0238
  267POPC   C2B 3695   5.290   1.010   6.151 -0.0919 -0.0794 -0.1243
  267POPC   C3B 3696   5.639   0.897   6.467  0.0460 -0.3546 -0.1669
  267POPC   C4B 3697   5.739   1.058   6.853  0.1203  0.1557  0.0023
  268POPC   NC3 3698   5.327   4.803   4.473 -0.0547 -0.0843  0.1574
  268POPC   PO4 3699   5.577   4.553   4.791  0.1865  0.2858 -0.2231
  268POPC   GL1 3700   5.551   4.599   5.154 -0.3007  0.0213  0.1705
  268POPC   GL2 3701   5.317   4.451   5.395  0.0339 -0.0424  0.1179
  268POPC   C1A 3702   5.470   4.914   5.424 -0.3064 -0.1239 -0.2194
  268POPC   D2A 3703   5.447   5.094   5.822 -0.1245 -0.1058  0.0166
  268POPC   C3A 3704   5.526   4.990   6.141 -0.2135 -0.1967  0.0502
  268POPC   C4A 3705   5.546   4.877   6.593  0.3745 -0.1767 -0.0595
  268POPC   C1B 3706   5.250   4.094   5.622  0.0495 -0.0406  0.0098
  268POPC   C2B 3707   5.534   4.020   5.981 -0.1350  0.1157 -0.2277
  268POPC   C3B 3708   5.691   4.023   6.457 -0.0728  0.1005  0.0433
  268POPC   C4B 3709   5.637   4.083   6.852  0.0243 -0.2388  0.3753
  269POPC   NC3 3710   0.332   9.722   5.320 -0.0591 -0.1106  0.1125
  269POPC   PO4 3711   0.519  10.118   5.439  0.0647 -0.2163 -0.2693
  269POPC   GL1 3712   0.237  10.047   5.774  0.0467 -0.1016 -0.2307
  269POPC   GL2 3713  -0.074  10.158   5.836  0.4741 -0.1480 -0.0139
  269POPC   C1A 3714   0.045   9.791   6.216  0.0198 -0.0979 -0.1925
  269POPC   D2A 3715  -0.205   9.721   6.453  0.0133 -0.2282  0.0394
  269POPC   C3A 3716  -0.238   9.377   6.578  0.1323 -0.2752 -0.1493
  269POPC   C4A 3717  -0.481   9.092   6.422  0.1790 -0.0982  0.0800
  269POPC   C1B 3718  -0.050  10.303   6.194 -0.1567 -0.1472 -0.1130
  269POPC   C2B 3719  -0.107  10.173   6.634 -0.1611  0.2853 -0.0606
  269POPC   C3B 3720  -0.114  10.176   7.079  0.4128  0.2342  0.1226
  269POPC   C4B 3721   0.057  10.573   7.274 -0.0058 -0.1131 -0.1640
  270POPC   NC3 3722   5.266   0.864   4.111  0.5435  0.0685  0.1292
  270POPC   PO4 3723   4.914   0.781   4.431 -0.1038 -0.3101  0.1853
  270POPC   GL1 3724   5.027   0.612   4.802  0.0028  0.2728 -0.3284
  270POPC   GL2 3725   4.853   0.645   5.069  0.0904  0.0337  0.0875
  270POPC   C1A 3726   5.190   0.235   5.036  0.0389  0.0492  0.0147
  270POPC   D2A 3727   5.398   0.093   5.357 -0.0957  0.0510  0.1240
  270POPC   C3A 3728   5.183  -0.192   5.606  0.0583  0.2408  0.2778
  270POPC   C4A 3729   4.858  -0.273   5.947 -0.0059  0.5626  0.2086
  270POPC   C1B 3730   4.876   0.422   5.379  0.1920  0.1550 -0.1747
  270POPC   C2B 3731   4.865   0.136   5.663  0.3812 -0.2390 -0.0314
  270POPC   C3B 3732   4.722   0.178   6.128  0.3941  0.0628  0.3044
  270POPC   C4B 3733   4.268   0.156   6.380  0.1533 -0.0152  0.3687
  271POPC   NC3 3734   2.253   9.361   4.725 -0.1539 -0.2205 -0.4227
  271POPC   PO4 3735   2.667   9.637   4.840 -0.1089 -0.0301 -0.1807
  271POPC   GL1 3736   2.679   9.699   5.304 -0.0070  0.1618 -0.1108
  271POPC   GL2 3737   2.451   9.951   5.314 -0.0695  0.0794 -0.1819
  271POPC   C1A 3738   2.893   9.821   5.622  0.0267 -0.0759  0.1701
  271POPC   D2A 3739   2.855   9.987   5.987 -0.3421 -0.2163  0.2776
  271POPC   C3A 3740   2.746  10.365   6.091  0.2795 -0.1743 -0.0874
  271POPC   C4A 3741   2.469  10.527   6.386 -0.1674 -0.2705 -0.2398
  271POPC   C1B 3742   2.655  10.263   5.544 -0.0143  0.2050  0.1005
  271POPC   C2B 3743   2.761  10.684   5.697  0.1196 -0.1385  0.0894
  271POPC   C3B 3744   2.527  10.983   5.907 -0.0171 -0.1859 -0.1625
  271POPC   C4B 3745   2.796  10.916   6.255 -0.0886 -0.0100 -0.1653
  272POPC   NC3 3746   8.255   6.900   4.696  0.1071  0.1921  0.0314
  272POPC   PO4 3747   8.487   6.677   4.852 -0.2991  0.1259  0.0286
  272POPC   GL1 3748   8.345   6.499   5.101 -0.0205 -0.0500 -0.0258
  272POPC   GL2 3749   7.985   6.624   5.086 -0.0615 -0.0839  0.4636
  272POPC   C1A 3750   8.260   6.419   5.486 -0.2436  0.4875  0.0718
  272POPC   D2A 3751   8.055   6.285   5.908  0.2728 -0.3367 -0.1763
  272POPC   C3A 3752   7.719   6.122   6.204 -0.0810 -0.0719 -0.0398
  272POPC   C4A 3753   7.618   6.051   6.581  0.1736 -0.1289  0.1689
  272POPC   C1B 3754   7.708   6.396   5.391  0.3501  0.0165 -0.0138
  272POPC   C2B 3755   7.771   5.951   5.692  0.3870  0.0492  0.0396
  272POPC   C3B 3756   7.669   5.495   5.797  0.1012 -0.1767  0.0527
  272POPC   C4B 3757   7.710   5.174   6.077 -0.1085 -0.1244  0.3757
  273POPC   NC3 3758   8.748   3.900   4.914  0.1373 -0.0561 -0.2211
  273POPC   PO4 3759   8.886   4.267   4.956 -0.0647  0.1323 -0.1223
  273POPC   GL1 3760   8.671   4.423   5.361 -0.1292  0.0381  0.1670
  273POPC   GL2 3761   8.372   4.251   5.252 -0.1123  0.1278  0.1259
  273POPC   C1A 3762   8.866   4.465   5.742  0.0944 -0.1018 -0.0180
  273POPC   D2A 3763   9.007   4.664   6.210  0.0113  0.4168 -0.1775
  273POPC   C3A 3764   9.254   4.799   6.496  0.2926  0.1500  0.0341
  273POPC   C4A 3765   9.000   5.118   6.781 -0.0457  0.1593 -0.1560
  273POPC   C1B 3766   8.197   4.074   5.691  0.3082 -0.3728 -0.1980
  273POPC   C2B 3767   8.190   3.798   6.076 -0.0700  0.2684  0.1101
  273POPC   C3B 3768   8.226   3.482   6.499 -0.0835 -0.3590 -0.0923
  273POPC   C4B 3769   8.443   3.290   6.722  0.1018  0.1173 -0.2671
  274POPC   NC3 3770   5.636   1.275   5.332  0.1224 -0.4368  0.2845
  274POPC   PO4 3771   5.967   1.487   5.105 -0.2395  0.0529 -0.2138
  274POPC   GL1 3772   6.271   1.273   5.421 -0.0346 -0.0114  0.0831
  274POPC   GL2 3773   6.067   1.162   5.551  0.1747 -0.0469  0.0674
  274POPC   C1A 3774   6.598   1.040   5.708 -0.2402 -0.3911 -0.1379
  274POPC   D2A 3775   6.619   1.098   6.132 -0.1769  0.1746 -0.0419
  274POPC   C3A 3776   6.506   0.836   6.466 -0.0749 -0.0722  0.1432
  274POPC   C4A 3777   6.514   0.523   6.828 -0.1021  0.2962  0.1872
  274POPC   C1B 3778   6.146   0.993   6.048 -0.2234 -0.3550  0.2131
  274POPC   C2B 3779   5.958   0.621   6.207 -0.1662 -0.0668 -0.0185
  274POPC   C3B 3780   5.850   0.229   6.153  0.0022  0.2437  0.1014
  274POPC   C4B 3781   5.635  -0.076   6.425  0.1709  0.2826 -0.0306
  275POPC   NC3 3782  10.189   8.430   5.329  0.2798 -0.0119 -0.0114
  275POPC   PO4 3783  10.649   8.425   5.261 -0.1155 -0.3375 -0.0811
  275POPC   GL1 3784  10.918   8.314   5.661 -0.2227 -0.1628 -0.0405
  275POPC   GL2 3785  11.130   7.981   5.709  0.1833 -0.0111 -0.3627
  275POPC   C1A 3786  10.993   8.601   5.929  0.0583  0.3364  0.4768
  275POPC   D2A 3787  11.004   8.904   6.234 -0.0496 -0.1587  0.1941
  275POPC   C3A 3788  11.039   8.832   6.745  0.0542 -0.2359 -0.3584
  275POPC   C4A 3789  11.265   8.917   7.161  0.1239  0.1499  0.1444
  275POPC   C1B 3790  11.378   8.216   6.058 -0.1727 -0.2978 -0.1251
  275POPC   C2B 3791  11.469   8.715   6.000  0.0488 -0.1431 -0.0676
  275POPC   C3B 3792  11.690   9.099   6.310 -0.2275 -0.3256 -0.0871
  275POPC   C4B 3793  11.866   9.435   6.626  0.2590  0.1556  0.1378
  276POPC   NC3 3794   3.705   2.027   5.194 -0.1654 -0.0768 -0.1035
  276POPC   PO4 3795   3.736   1.525   5.237 -0.1431 -0.0294  0.1000
  276POPC   GL1 3796   3.692   1.685   5.607  0.1280 -0.1610  0.3933
  276POPC   GL2 3797   3.766   1.935   5.733 -0.1728  0.0423  0.0116
  276POPC   C1A 3798   3.775   1.569   6.055 -0.0969 -0.0066 -0.5194
  276POPC   D2A 3799   3.907   1.449   6.467  0.1220 -0.1709 -0.1113
  276POPC   C3A 3800   3.936   1.511   6.979  0.4421 -0.3457  0.1370
  276POPC   C4A 3801   3.802   1.899   7.227 -0.3611  0.1499 -0.2048
  276POPC   C1B 3802   3.839   2.287   5.987  0.2179 -0.2145 -0.1914
  276POPC   C2B 3803   3.720   2.536   6.058 -0.0507  0.1735  0.0805
  276POPC   C3B 3804   3.384   2.578   6.289 -0.1360 -0.0407  0.0650
  276POPC   C4B 3805   2.942   2.500   6.365  0.1772  0.0061  0.3294
  277POPC   NC3 3806  10.087   5.913   5.201  0.0304  0.0764  0.0210
  277POPC   PO4 3807  10.108   6.154   5.523  0.1603  0.0752  0.0406
  277POPC   GL1 3808  10.197   6.329   5.960 -0.2293 -0.0246 -0.0648
  277POPC   GL2 3809  10.051   6.572   6.071  0.0961  0.1324 -0.2446
  277POPC   C1A 3810  10.245   6.071   6.258 -0.2885  0.0807 -0.0630
  277POPC   D2A 3811  10.521   5.814   6.542 -0.2257  0.3737 -0.0650
  277POPC   C3A 3812  10.409   5.363   6.505  0.1855 -0.0036  0.0740
  277POPC   C4A 3813  10.566   4.948   6.601 -0.0155 -0.3941  0.3060
  277POPC   C1B 3814   9.968   6.713   6.426  0.1114 -0.0970 -0.1022
  277POPC   C2B 3815   9.887   6.745   6.764  0.1707  0.0146 -0.0421
  277POPC   C3B 3816   9.990   6.478   7.090 -0.0045 -0.0007  0.2006
  277POPC   C4B 3817   9.963   6.455   7.617  0.3776 -0.1426 -0.1019
  278POPC   NC3 3818   8.821   8.603   4.999  0.0195  0.0842 -0.1848
  278POPC   PO4 3819   8.764   8.158   4.992  0.0574 -0.2389  0.1750
  278POPC   GL1 3820   8.497   8.047   5.389 -0.2205  0.0198  0.1847
  278POPC   GL2 3821   8.694   7.976   5.696  0.0633  0.1696  0.3013
  278POPC   C1A 3822   8.196   8.041   5.729 -0.0375  0.0570  0.1984
  278POPC   D2A 3823   7.968   8.282   6.134  0.3169 -0.0243 -0.2414
  278POPC   C3A 3824   8.021   8.118   6.472 -0.0009 -0.0252  0.1724
  278POPC   C4A 3825   7.793   8.125   6.926  0.0827  0.3072  0.1239
  278POPC   C1B 3826   8.745   7.628   5.990 -0.0541 -0.3152  0.2112
  278POPC   C2B 3827   8.902   7.632   6.446 -0.0274 -0.0438  0.0298
  278POPC   C3B 3828   9.164   7.859   6.835  0.0975 -0.2457  0.2606
  278POPC   C4B 3829   9.631   7.799   7.047 -0.2711  0.3126  0.2381
  279POPC   NC3 3830   0.915   6.140   5.160  0.1769 -0.3511  0.0281
  279POPC   PO4 3831   0.814   6.669   5.200  0.1972  0.0283 -0.0053
  279POPC   GL1 3832   1.133   6.517   5.479 -0.0516 -0.0737  0.3116
  279POPC   GL2 3833   1.337   6.303   5.366 -0.2755  0.0813  0.0685
  279POPC   C1A 3834   1.106   6.527   5.883  0.1088 -0.1921 -0.0356
  279POPC   D2A 3835   1.247   6.371   6.209  0.2806 -0.4058  0.1427
  279POPC   C3A 3836   1.268   6.203   6.605  0.0046  0.1693 -0.1054
  279POPC   C4A 3837   1.167   5.857   6.816  0.2668  0.0860  0.4104
  279POPC   C1B 3838   1.565   6.387   5.745 -0.1829 -0.0712 -0.2027
  279POPC   C2B 3839   1.731   6.416   6.177 -0.1934  0.3331  0.0997
  279POPC   C3B 3840   1.864   6.641   6.489 -0.0142 -0.1535  0.0771
  279POPC   C4B 3841   2.165   6.680   6.854 -0.6417 -0.1475 -0.1075
  280POPC   NC3 3842   8.943   3.080   4.778  0.4557 -0.0013 -0.0610
  280POPC   PO4 3843   9.231   2.697   4.997  0.2675  0.0798  0.3042
  280POPC   GL1 3844   9.392   2.404   5.349  0.0289 -0.0277  0.1195
  280POPC   GL2 3845   9.260   2.100   5.377 -0.1851  0.2452  0.0605
  280POPC   C1A 3846   9.634   2.493   5.696 -0.3111  0.0179  0.0572
  280POPC   D2A 3847   9.534   2.805   6.016 -0.0809 -0.0468  0.0209
  280POPC   C3A 3848   9.805   2.937   6.327 -0.0225  0.0496  0.0137
  280POPC   C4A 3849  10.078   2.901   6.668  0.4045  0.1000  0.1513
  280POPC   C1B 3850   9.091   2.172   5.811  0.2710 -0.0207 -0.2231
  280POPC   C2B 3851   9.045   2.158   6.339  0.3509  0.2192 -0.2805
  280POPC   C3B 3852   8.652   2.220   6.544 -0.2978 -0.0465 -0.2357
  280POPC   C4B 3853   8.244   2.079   6.768 -0.0976 -0.1011  0.1610
  281POPC   NC3 3854  10.470   2.484   4.684 -0.0862 -0.0150 -0.0579
  281POPC   PO4 3855  10.199   2.676   4.910 -0.1224 -0.1157  0.3815
  281POPC   GL1 3856  10.177   2.476   5.273  0.1240 -0.2765  0.0530
  281POPC   GL2 3857  10.003   2.720   5.391 -0.3289  0.0140 -0.0702
  281POPC   C1A 3858  10.198   2.340   5.688  0.0356  0.2552  0.2954
  281POPC   D2A 3859  10.185   1.919   5.816  0.0742 -0.3460  0.2471
  281POPC   C3A 3860   9.936   1.869   6.201  0.4685  0.1114  0.1346
  281POPC   C4A 3861   9.651   1.970   6.529 -0.4315  0.1853 -0.2665
  281POPC   C1B 3862  10.005   2.799   5.854 -0.0516 -0.1426  0.1082
  281POPC   C2B 3863   9.955   2.478   6.133  0.0586  0.0020 -0.1990
  281POPC   C3B 3864  10.250   2.310   6.484 -0.1484 -0.2442 -0.0033
  281POPC   C4B 3865  10.159   2.012   6.885  0.2338 -0.1592  0.0538
  282POPC   NC3 3866   9.973   6.875   4.887  0.2196  0.1756  0.4438
  282POPC   PO4 3867   9.526   7.044   4.904  0.1667 -0.0722 -0.0756
  282POPC   GL1 3868   9.511   7.278   5.342  0.0369  0.0486  0.0542
  282POPC   GL2 3869   9.817   7.330   5.494 -0.2839 -0.1867 -0.1160
  282POPC   C1A 3870   9.354   7.157   5.738 -0.2173 -0.0249  0.1533
  282POPC   D2A 3871   9.299   6.747   5.907 -0.1435  0.1091 -0.2854
  282POPC   C3A 3872   9.505   6.474   6.199 -0.4293  0.0512 -0.1909
  282POPC   C4A 3873   9.790   6.202   6.485 -0.0477  0.1047  0.1078
  282POPC   C1B 3874   9.765   7.560   5.943  0.1474 -0.0367  0.0048
  282POPC   C2B 3875   9.701   7.970   6.089 -0.0791  0.0502 -0.0989
  282POPC   C3B 3876   9.881   8.234   6.470 -0.0837  0.0815  0.0180
  282POPC   C4B 3877  10.100   8.196   6.840  0.2866  0.0707 -0.0745
  283POPC   NC3 3878   3.630   6.584   4.147 -0.1102  0.1540  0.1989
  283POPC   PO4 3879   3.526   6.878   4.388 -0.1236  0.0928 -0.4388
  283POPC   GL1 3880   3.806   6.924   4.611  0.1810  0.1816 -0.1581
  283POPC   GL2 3881   4.109   6.629   4.657  0.0342 -0.0800 -0.1734
  283POPC   C1A 3882   4.116   7.119   4.964 -0.0517 -0.2953  0.0355
  283POPC   D2A 3883   4.366   6.958   5.259  0.0032  0.3974 -0.0433
  283POPC   C3A 3884   4.545   7.245   5.630  0.0195  0.0019  0.1277
  283POPC   C4A 3885   4.373   7.462   5.927 -0.0030 -0.3041 -0.1256
  283POPC   C1B 3886   4.020   6.536   5.031  0.1231  0.1826  0.4352
  283POPC   C2B 3887   4.153   6.447   5.419  0.0290 -0.1382 -0.0938
  283POPC   C3B 3888   3.929   6.522   5.754  0.0135  0.3143 -0.0456
  283POPC   C4B 3889   3.770   6.311   6.105 -0.0762  0.0255  0.4363
  284POPC   NC3 3890   8.819   2.003   4.478 -0.2073 -0.0034 -0.0784
  284POPC   PO4 3891   8.583   2.086   4.810 -0.0344  0.1958  0.0123
  284POPC   GL1 3892   8.329   1.889   5.143  0.0778 -0.2022  0.0281
  284POPC   GL2 3893   8.317   2.160   5.301  0.0078  0.2771  0.0569
  284POPC   C1A 3894   8.378   1.488   5.455 -0.1698 -0.2616  0.1971
  284POPC   D2A 3895   8.240   1.393   5.979 -0.1711 -0.0305  0.2427
  284POPC   C3A 3896   7.940   1.484   6.219  0.3814 -0.1208 -0.4863
  284POPC   C4A 3897   7.992   1.656   6.607 -0.1955 -0.2569  0.0622
  284POPC   C1B 3898   8.436   2.411   5.652  0.0553 -0.1535 -0.0283
  284POPC   C2B 3899   8.245   2.353   6.132 -0.2448 -0.1473 -0.1517
  284POPC   C3B 3900   8.159   2.478   6.486  0.0503  0.0977  0.4299
  284POPC   C4B 3901   7.766   2.701   6.802  0.1927  0.2658 -0.1278
  285POPC   NC3 3902   7.004   0.991   4.291  0.4189 -0.1372  0.0742
  285POPC   PO4 3903   6.888   1.044   4.637  0.3970  0.1745 -0.0326
  285POPC   GL1 3904   6.638   0.815   4.932  0.0309 -0.1673 -0.1347
  285POPC   GL2 3905   6.251   0.734   4.955 -0.0186 -0.1383  0.1138
  285POPC   C1A 3906   6.792   0.696   5.408 -0.2550 -0.0136  0.0315
  285POPC   D2A 3907   6.753   0.502   5.701 -0.2233  0.1995  0.0477
  285POPC   C3A 3908   6.874   0.647   6.074 -0.2287 -0.1357  0.0831
  285POPC   C4A 3909   7.047   0.669   6.502  0.1569  0.3440  0.1316
  285POPC   C1B 3910   6.280   0.792   5.319  0.0646  0.0931 -0.2696
  285POPC   C2B 3911   6.212   0.659   5.735  0.1601  0.1412  0.0229
  285POPC   C3B 3912   6.431   0.440   6.161  0.0132 -0.0648  0.1941
  285POPC   C4B 3913   6.674   0.200   6.491 -0.0656 -0.1227  0.1285
  286POPC   NC3 3914   4.273   9.555   2.720 -0.0890 -0.1779 -0.1074
  286POPC   PO4 3915   4.325   9.279   3.113 -0.3454  0.3943 -0.1173
  286POPC   GL1 3916   4.573   9.401   3.588 -0.1759  0.2501  0.1005
  286POPC   GL2 3917   4.572   9.114   3.776  0.2110  0.0166 -0.2286
  286POPC   C1A 3918   4.816   9.524   3.933 -0.2949 -0.3864 -0.1959
  286POPC   D2A 3919   4.913   9.961   4.206 -0.0888 -0.2569 -0.0462
  286POPC   C3A 3920   4.656  10.113   4.596  0.1044 -0.0450 -0.0188
  286POPC   C4A 3921   4.310  10.370   4.898  0.1967 -0.0406 -0.1963
  286POPC   C1B 3922   4.403   9.311   4.051  0.0367 -0.1241  0.1713
  286POPC   C2B 3923   4.253   9.329   4.473 -0.0430 -0.5126 -0.0190
  286POPC   C3B 3924   4.394   9.242   4.884 -0.5611  0.0507 -0.0678
  286POPC   C4B 3925   4.610   8.932   5.189  0.0490 -0.0606 -0.2068
  287POPC   NC3 3926   5.608   9.823   3.286  0.0568  0.0227 -0.1707
  287POPC   PO4 3927   5.535   9.314   3.346  0.3369 -0.0178 -0.1114
  287POPC   GL1 3928   5.382   9.125   3.693 -0.0755 -0.1178 -0.0382
  287POPC   GL2 3929   5.101   9.149   3.708 -0.0898 -0.3237 -0.3845
  287POPC   C1A 3930   5.373   8.982   4.153  0.0155  0.0196 -0.1615
  287POPC   D2A 3931   5.272   8.966   4.677  0.1326  0.0658 -0.1055
  287POPC   C3A 3932   5.052   8.683   4.901  0.1873  0.0818  0.2648
  287POPC   C4A 3933   5.054   8.600   5.326 -0.1873  0.3006  0.2887
  287POPC   C1B 3934   4.884   9.050   4.137 -0.1311  0.0473 -0.0282
  287POPC   C2B 3935   4.813   9.110   4.551  0.1113 -0.2057 -0.2403
  287POPC   C3B 3936   4.954   9.227   4.932 -0.1087  0.0244  0.0497
  287POPC   C4B 3937   5.151   9.123   5.318  0.2669  0.0946  0.0300
  288POPC   NC3 3938   9.891   1.138   4.512 -0.0577 -0.1961  0.0845
  288POPC   PO4 3939   9.994   0.807   4.822  0.2391  0.2966  0.3438
  288POPC   GL1 3940   9.864   0.919   5.331  0.3943  0.0852 -0.2590
  288POPC   GL2 3941   9.619   0.723   5.486  0.1734 -0.3278  0.0888
  288POPC   C1A 3942   9.966   1.113   5.727 -0.1701 -0.1285  0.0424
  288POPC   D2A 3943  10.121   1.348   6.090  0.1030  0.3102  0.2523
  288POPC   C3A 3944  10.549   1.570   6.005  0.1008  0.1069 -0.3347
  288POPC   C4A 3945  10.713   1.692   5.621  0.0537  0.1556 -0.0542
  288POPC   C1B 3946   9.584   0.850   5.937  0.0212 -0.0133  0.1677
  288POPC   C2B 3947   9.786   0.985   6.259 -0.1741 -0.0072 -0.0954
  288POPC   C3B 3948   9.912   0.919   6.614  0.0835  0.4418 -0.1246
  288POPC   C4B 3949  10.289   1.042   6.904  0.1655  0.4221  0.2152
  289POPC   NC3 3950   1.120   2.476   5.010  0.0346 -0.0862  0.3222
  289POPC   PO4 3951   0.638   2.276   4.980 -0.2355 -0.0929  0.2437
  289POPC   GL1 3952   0.731   2.461   5.315  0.0317  0.0457  0.0185
  289POPC   GL2 3953   0.934   2.238   5.451 -0.0910  0.0006 -0.1959
  289POPC   C1A 3954   0.443   2.421   5.721  0.0839 -0.1092  0.1150
  289POPC   D2A 3955   0.137   2.170   5.721 -0.0338  0.2148  0.1754
  289POPC   C3A 3956   0.022   2.131   6.081 -0.0774 -0.2852 -0.0577
  289POPC   C4A 3957   0.170   2.099   6.629  0.3730 -0.1895  0.0621
  289POPC   C1B 3958   1.057   2.582   5.656 -0.1320  0.2073 -0.0400
  289POPC   C2B 3959   1.244   2.680   6.104  0.2907  0.0414 -0.0817
  289POPC   C3B 3960   1.500   2.642   6.442 -0.3243 -0.4002  0.0964
  289POPC   C4B 3961   1.575   2.370   6.714 -0.0272 -0.1219 -0.2712
  290POPC   NC3 3962   3.521   9.043   3.588 -0.0169 -0.4256 -0.1496
  290POPC   PO4 3963   3.564   8.901   4.012  0.1621  0.0570 -0.2084
  290POPC   GL1 3964   3.901   8.995   4.311  0.0151  0.3385  0.4210
  290POPC   GL2 3965   4.052   8.937   3.965 -0.2278  0.0849 -0.2645
  290POPC   C1A 3966   4.082   8.869   4.706 -0.1425  0.2706 -0.1589
  290POPC   D2A 3967   4.153   8.673   5.179 -0.2921 -0.0873  0.1503
  290POPC   C3A 3968   4.219   8.963   5.645  0.1658 -0.0148  0.3976
  290POPC   C4A 3969   4.588   9.162   5.973  0.1524 -0.2551  0.1319
  290POPC   C1B 3970   4.399   8.892   4.322 -0.0005 -0.1257 -0.0193
  290POPC   C2B 3971   4.686   8.578   4.279 -0.2109  0.0326  0.2055
  290POPC   C3B 3972   5.138   8.581   4.392 -0.1619  0.0546  0.4974
  290POPC   C4B 3973   5.550   8.642   4.486 -0.1543  0.0405 -0.2642
  291POPC   NC3 3974   1.896   0.149   5.026  0.0206  0.1070  0.3039
  291POPC   PO4 3975   2.088  -0.227   4.976  0.3457 -0.1312 -0.1282
  291POPC   GL1 3976   2.101  -0.216   5.414 -0.0312  0.0384  0.1315
  291POPC   GL2 3977   1.800  -0.158   5.493  0.0747  0.1137 -0.3187
  291POPC   C1A 3978   2.226  -0.110   5.855  0.1129  0.0173 -0.0524
  291POPC   D2A 3979   1.935   0.085   6.102 -0.3125 -0.1404 -0.2935
  291POPC   C3A 3980   2.111   0.423   6.153 -0.1947  0.1161  0.2578
  291POPC   C4A 3981   1.902   0.846   6.242  0.1714 -0.0969  0.1144
  291POPC   C1B 3982   1.638  -0.355   5.940  0.0456 -0.2696  0.2380
  291POPC   C2B 3983   1.820  -0.353   6.257  0.2470  0.1792 -0.0715
  291POPC   C3B 3984   2.173  -0.358   6.589 -0.2169  0.2533  0.1157
  291POPC   C4B 3985   2.184  -0.740   6.939 -0.1123  0.2904  0.1301
  292POPC   NC3 3986   2.331   4.548   5.224 -0.2210  0.0278  0.1072
  292POPC   PO4 3987   2.479   4.896   5.032 -0.0449  0.2640  0.2947
  292POPC   GL1 3988   2.692   5.047   5.468 -0.0890 -0.0648  0.3270
  292POPC   GL2 3989   2.994   5.281   5.471 -0.0196  0.1137 -0.1983
  292POPC   C1A 3990   2.666   4.804   5.877 -0.1374  0.3040 -0.0154
  292POPC   D2A 3991   2.751   4.912   6.269  0.2589 -0.1653 -0.0496
  292POPC   C3A 3992   2.957   5.337   6.324  0.1904  0.2973  0.2588
  292POPC   C4A 3993   2.974   5.701   6.644  0.0763  0.0591 -0.0915
  292POPC   C1B 3994   3.308   5.426   5.718 -0.2378 -0.0530  0.0748
  292POPC   C2B 3995   3.452   5.421   6.170 -0.1996  0.0019  0.1423
  292POPC   C3B 3996   3.404   5.748   6.410  0.0588  0.0131  0.0900
  292POPC   C4B 3997   3.453   6.141   6.407 -0.0064  0.4123  0.3281
  293POPC   NC3 3998   7.535   8.794   3.699 -0.1766  0.1743  0.2213
  293POPC   PO4 3999   7.746   8.802   4.077 -0.3915  0.2550  0.1392
  293POPC   GL1 4000   7.650   8.965   4.455 -0.2342  0.3677 -0.0649
  293POPC   GL2 4001   7.758   9.148   4.688  0.2625  0.3788  0.0104
  293POPC   C1A 4002   7.455   8.709   4.759 -0.1647  0.2542  0.0006
  293POPC   D2A 4003   7.441   8.516   5.148  0.0188 -0.1981 -0.0071
  293POPC   C3A 4004   7.442   8.061   5.164  0.2028 -0.1366 -0.4728
  293POPC   C4A 4005   7.392   7.759   5.598 -0.2100  0.3692  0.0606
  293POPC   C1B 4006   7.807   9.170   5.099  0.3707 -0.2157  0.0275
  293POPC   C2B 4007   7.545   9.128   5.426  0.1122  0.0370 -0.0338
  293POPC   C3B 4008   7.418   9.299   5.795  0.1568 -0.2692 -0.1941
  293POPC   C4B 4009   7.454   9.372   6.201  0.1414  0.0219 -0.1907
  294POPC   NC3 4010   1.785   6.665   4.770  0.2269  0.3680 -0.1292
  294POPC   PO4 4011   1.746   6.334   5.043 -0.1754 -0.2298 -0.2263
  294POPC   GL1 4012   1.629   6.654   5.257 -0.3315  0.1370 -0.1807
  294POPC   GL2 4013   1.973   6.793   5.348 -0.3264 -0.1996  0.1850
  294POPC   C1A 4014   1.518   6.969   5.439 -0.2371 -0.2766 -0.1292
  294POPC   D2A 4015   1.455   7.347   5.639 -0.3659  0.0848 -0.2865
  294POPC   C3A 4016   1.352   7.385   6.060 -0.1396  0.1880 -0.1238
  294POPC   C4A 4017   1.401   7.258   6.495 -0.1020 -0.1161  0.1033
  294POPC   C1B 4018   1.972   6.979   5.781  0.0842 -0.2065 -0.1042
  294POPC   C2B 4019   1.868   7.135   6.186 -0.0810 -0.4069  0.1036
  294POPC   C3B 4020   1.974   7.132   6.671  0.0810  0.1176 -0.1067
  294POPC   C4B 4021   1.759   6.989   7.013 -0.3923  0.0590  0.0065
  295POPC   NC3 4022   2.285   5.181   4.758  0.1886 -0.1608  0.2018
  295POPC   PO4 4023   1.884   5.332   4.867 -0.0281 -0.1129  0.0587
  295POPC   GL1 4024   2.105   5.529   5.226 -0.2349  0.0613 -0.0060
  295POPC   GL2 4025   2.423   5.404   5.217  0.0601 -0.0897 -0.1006
  295POPC   C1A 4026   2.150   5.575   5.652 -0.1226 -0.1166  0.1151
  295POPC   D2A 4027   2.049   5.596   6.114  0.0486  0.0262  0.2442
  295POPC   C3A 4028   2.331   5.721   6.433  0.1799  0.0990  0.1074
  295POPC   C4A 4029   2.510   5.318   6.426  0.0276  0.2315  0.0783
  295POPC   C1B 4030   2.588   5.618   5.495  0.0638 -0.0331 -0.2558
  295POPC   C2B 4031   2.942   5.779   5.838  0.0835  0.1499 -0.0146
  295POPC   C3B 4032   2.857   6.080   6.275 -0.2725 -0.0833  0.1317
  295POPC   C4B 4033   2.978   6.255   6.712 -0.3148 -0.0104 -0.1266
  296POPC   NC3 4034   0.353   9.662   4.403 -0.0827  0.1601  0.1661
  296POPC   PO4 4035   0.504   9.529   4.734 -0.0797 -0.1450  0.1062
  296POPC   GL1 4036   0.485   9.297   5.211  0.0296  0.1926  0.4277
  296POPC   GL2 4037   0.167   9.249   5.345  0.1543  0.3467  0.0748
  296POPC   C1A 4038   0.599   9.226   5.608 -0.1574 -0.1929  0.1980
  296POPC   D2A 4039   0.622   9.291   5.992  0.0258 -0.1113  0.1999
  296POPC   C3A 4040   1.015   9.570   6.097 -0.4684  0.0009  0.0064
  296POPC   C4A 4041   1.347   9.741   6.084  0.0074  0.0091  0.2298
  296POPC   C1B 4042   0.043   9.121   5.787 -0.2971 -0.5192 -0.0471
  296POPC   C2B 4043   0.088   9.217   6.172  0.0480  0.1315  0.0636
  296POPC   C3B 4044   0.269   9.449   6.542 -0.0423 -0.2165 -0.1868
  296POPC   C4B 4045   0.498   9.266   6.954  0.2998  0.0450  0.1211
  297POPC   NC3 4046  10.115   1.292   5.131  0.2458 -0.0873 -0.4654
  297POPC   PO4 4047  10.063   1.699   5.079 -0.0653  0.5815 -0.0142
  297POPC   GL1 4048   9.984   1.698   5.416  0.2261  0.3433  0.2885
  297POPC   GL2 4049   9.725   1.514   5.483 -0.0402 -0.0291  0.0048
  297POPC   C1A 4050   9.663   1.988   5.747  0.2055 -0.2884  0.2979
  297POPC   D2A 4051   9.571   2.233   6.144 -0.1040 -0.2322  0.0119
  297POPC   C3A 4052   9.541   2.470   6.406  0.0288 -0.2166  0.0237
  297POPC   C4A 4053   9.508   2.793   6.752  0.2132  0.0915 -0.1308
  297POPC   C1B 4054   9.552   1.358   5.876  0.1255  0.0362 -0.0892
  297POPC   C2B 4055   9.666   1.421   6.254  0.2072  0.0184  0.3547
  297POPC   C3B 4056   9.982   1.551   6.631  0.0101  0.0353 -0.1329
  297POPC   C4B 4057  10.342   1.752   6.451  0.1325  0.0636 -0.4115
  298POPC   NC3 4058   4.608   5.318   4.557 -0.0624  0.1959  0.1493
  298POPC   PO4 4059   4.873   5.055   4.702 -0.1342  0.2009 -0.1036
  298POPC   GL1 4060   5.009   5.157   5.138 -0.0516  0.3226 -0.1392
  298POPC   GL2 4061   4.994   4.884   5.390 -0.1182  0.2195  0.0111
  298POPC   C1A 4062   5.159   5.420   5.487  0.1377  0.2462  0.1513
  298POPC   D2A 4063   5.156   5.421   6.036 -0.0637 -0.1254  0.3196
  298POPC   C3A 4064   5.450   5.574   6.343 -0.2188  0.1464 -0.1442
  298POPC   C4A 4065   5.631   6.039   6.295  0.2082  0.2419 -0.0960
  298POPC   C1B 4066   4.925   4.992   5.705  0.2207  0.3426  0.0471
  298POPC   C2B 4067   4.978   4.924   6.030 -0.1944  0.1559  0.2337
  298POPC   C3B 4068   5.087   5.047   6.373 -0.3732 -0.1309  0.2894
  298POPC   C4B 4069   4.886   5.423   6.482 -0.1477 -0.2828 -0.0919
  299POPC   NC3 4070  10.267   6.617   5.555 -0.2720 -0.2256  0.1193
  299POPC   PO4 4071  10.004   6.922   5.389  0.1796 -0.0574  0.1406
  299POPC   GL1 4072   9.774   6.884   5.760 -0.1103  0.0584 -0.2893
  299POPC   GL2 4073  10.105   7.025   5.886  0.1622  0.2368  0.1275
  299POPC   C1A 4074   9.665   6.987   6.173  0.2050 -0.1873  0.0421
  299POPC   D2A 4075   9.574   7.220   6.564  0.0728  0.1428 -0.2229
  299POPC   C3A 4076   9.787   7.295   6.960 -0.1080  0.0785 -0.3968
  299POPC   C4A 4077   9.883   7.453   7.411 -0.3291  0.3802  0.0960
  299POPC   C1B 4078  10.078   7.276   6.309  0.4005 -0.0027 -0.2954
  299POPC   C2B 4079  10.387   7.415   6.502 -0.3890  0.2266  0.0658
  299POPC   C3B 4080  10.811   7.374   6.592 -0.0677  0.0987  0.2633
  299POPC   C4B 4081  11.012   6.995   6.657 -0.1699  0.0216  0.0270
  300POPC   NC3 4082   6.773   1.570   4.824 -0.0850 -0.0359 -0.0375
  300POPC   PO4 4083   6.949   1.737   5.121  0.1041 -0.0176  0.0993
  300POPC   GL1 4084   6.689   1.658   5.485  0.1120  0.0793  0.3056
  300POPC   GL2 4085   6.499   1.966   5.566 -0.0305 -0.1542 -0.0698
  300POPC   C1A 4086   6.408   1.508   5.795  0.0505 -0.1612 -0.2392
  300POPC   D2A 4087   6.397   1.560   6.216 -0.0979 -0.0852 -0.1291
  300POPC   C3A 4088   6.505   1.662   6.450 -0.3437 -0.3613 -0.1937
  300POPC   C4A 4089   6.396   1.733   6.877  0.0014 -0.0469 -0.0272
  300POPC   C1B 4090   6.220   2.136   5.986  0.1253 -0.2589  0.0799
  300POPC   C2B 4091   6.127   1.952   6.415  0.0171 -0.1663 -0.2671
  300POPC   C3B 4092   6.044   1.531   6.585  0.0453 -0.0476 -0.0682
  300POPC   C4B 4093   6.117   1.220   6.540 -0.1419  0.0620  0.2672
  301POPC   NC3 4094   7.166   9.858   3.797 -0.1231 -0.1580 -0.0361
  301POPC   PO4 4095   7.495   9.799   4.157 -0.0806  0.1628  0.2656
  301POPC   GL1 4096   7.226   9.495   4.242 -0.0106  0.3729 -0.0070
  301POPC   GL2 4097   7.315   9.505   4.509 -0.0188  0.0500  0.2027
  301POPC   C1A 4098   7.153   8.993   4.273  0.1570 -0.0600 -0.2298
  301POPC   D2A 4099   7.204   8.587   4.070 -0.0693 -0.0964  0.1441
  301POPC   C3A 4100   6.814   8.449   3.832  0.1696  0.0694 -0.0999
  301POPC   C4A 4101   6.389   8.494   4.045  0.1662 -0.0786 -0.0282
  301POPC   C1B 4102   7.228   9.384   4.903 -0.2720 -0.0433  0.0169
  301POPC   C2B 4103   7.130   9.546   5.350 -0.0648  0.0252  0.0058
  301POPC   C3B 4104   7.006   9.564   5.816 -0.0531  0.2717  0.1099
  301POPC   C4B 4105   6.926   9.323   6.203 -0.0134 -0.2175 -0.2051
  302POPC   NC3 4106   1.215  10.441   5.343 -0.2025 -0.0328 -0.0640
  302POPC   PO4 4107   1.366  10.063   5.348 -0.2502 -0.0709  0.3589
  302POPC   GL1 4108   1.569   9.767   5.592  0.0454 -0.2374 -0.1532
  302POPC   GL2 4109   1.639   9.414   5.447 -0.1591  0.1206 -0.0665
  302POPC   C1A 4110   1.961   9.743   6.005  0.2595 -0.0116 -0.0355
  302POPC   D2A 4111   2.377  10.040   6.154 -0.0427  0.2043  0.1615
  302POPC   C3A 4112   2.701  10.064   6.461  0.2033  0.0265 -0.2212
  302POPC   C4A 4113   2.943   9.789   6.836 -0.3437  0.0256 -0.1587
  302POPC   C1B 4114   1.415   9.342   5.826  0.0571 -0.3552  0.1213
  302POPC   C2B 4115   1.696   9.362   6.211  0.0212 -0.1803 -0.3708
  302POPC   C3B 4116   1.912   9.575   6.525 -0.2250  0.0545 -0.2768
  302POPC   C4B 4117   1.879   9.374   6.864 -0.0587  0.1383 -0.1986
  303POPC   NC3 4118   1.933   4.821   4.988  0.1539  0.1354 -0.1479
  303POPC   PO4 4119   1.850   4.507   5.339 -0.0221 -0.0809 -0.1394
  303POPC   GL1 4120   1.635   4.257   5.707 -0.1213  0.0365  0.1555
  303POPC   GL2 4121   1.812   4.244   5.988 -0.2087  0.2624  0.0791
  303POPC   C1A 4122   1.261   4.004   5.826  0.0753  0.0499  0.0821
  303POPC   D2A 4123   1.025   3.947   6.220  0.2229  0.0182 -0.0230
  303POPC   C3A 4124   0.598   3.879   6.290  0.0841  0.3898 -0.0417
  303POPC   C4A 4125   0.305   3.555   6.448 -0.1927 -0.0614  0.0694
  303POPC   C1B 4126   1.893   3.985   6.285  0.0052  0.0167  0.3517
  303POPC   C2B 4127   1.811   4.133   6.790 -0.2832  0.1540  0.1200
  303POPC   C3B 4128   1.713   3.874   7.104  0.1341  0.1204  0.1129
  303POPC   C4B 4129   1.631   3.871   7.463  0.3535  0.2870  0.0310
  304POPC   NC3 4130   6.794   2.964   5.069  0.4796  0.0507  0.1383
  304POPC   PO4 4131   6.415   2.602   5.189 -0.0087 -0.0265 -0.0695
  304POPC   GL1 4132   6.390   2.462   5.524  0.3314 -0.0512 -0.2293
  304POPC   GL2 4133   6.086   2.527   5.625  0.0824  0.3511 -0.1068
  304POPC   C1A 4134   6.718   2.434   5.915  0.2578  0.2421  0.2386
  304POPC   D2A 4135   6.812   2.778   6.186 -0.3062  0.0310 -0.2843
  304POPC   C3A 4136   7.046   2.599   6.469  0.2029 -0.1240  0.2625
  304POPC   C4A 4137   7.096   2.204   6.755  0.0126  0.1371 -0.1048
  304POPC   C1B 4138   6.276   2.668   6.009  0.1144  0.2130 -0.2191
  304POPC   C2B 4139   6.427   2.337   6.376 -0.4622  0.2418 -0.0244
  304POPC   C3B 4140   6.619   2.146   6.779  0.2152  0.2621  0.0783
  304POPC   C4B 4141   6.815   1.798   7.179 -0.0414 -0.1137 -0.1395
  305POPC   NC3 4142   3.800   4.292   4.598  0.1202  0.0158  0.0333
  305POPC   PO4 4143   3.644   4.600   4.916  0.2443  0.2582 -0.1720
  305POPC   GL1 4144   3.579   4.479   5.331  0.2278 -0.0390 -0.1716
  305POPC   GL2 4145   3.823   4.213   5.569 -0.0488 -0.1939 -0.0380
  305POPC   C1A 4146   3.542   4.593   5.879 -0.0951  0.0591  0.1332
  305POPC   D2A 4147   3.559   4.366   6.246 -0.1316 -0.2155  0.0638
  305POPC   C3A 4148   3.379   4.035   6.437 -0.2052  0.1325  0.1452
  305POPC   C4A 4149   3.148   3.585   6.631  0.1413  0.1949 -0.1181
  305POPC   C1B 4150   4.129   4.273   5.833 -0.0833 -0.1209  0.1671
  305POPC   C2B 4151   4.287   4.312   6.132 -0.1169 -0.1000  0.1701
  305POPC   C3B 4152   4.297   4.381   6.499  0.0089 -0.3766  0.0165
  305POPC   C4B 4153   3.877   4.341   6.765 -0.0077 -0.0002 -0.1878
  306POPC   NC3 4154   8.084   9.150   4.306  0.0064 -0.0378 -0.1976
  306POPC   PO4 4155   8.386   9.072   4.615  0.2486 -0.2393 -0.0016
  306POPC   GL1 4156   8.242   8.920   4.918 -0.0320 -0.1493 -0.2745
  306POPC   GL2 4157   8.274   9.001   5.133 -0.2917 -0.3665 -0.1961
  306POPC   C1A 4158   7.862   8.715   5.090 -0.0481  0.0416  0.2575
  306POPC   D2A 4159   7.722   8.661   5.537 -0.0998 -0.0862  0.3691
  306POPC   C3A 4160   7.375   8.694   5.656  0.2559  0.0224  0.0876
  306POPC   C4A 4161   6.902   8.598   5.530 -0.0622  0.1937  0.0900
  306POPC   C1B 4162   8.175   8.893   5.432  0.0225  0.4106 -0.0594
  306POPC   C2B 4163   8.287   8.754   5.731 -0.2921  0.1575 -0.1185
  306POPC   C3B 4164   8.238   8.743   6.089 -0.3456  0.1465 -0.0034
  306POPC   C4B 4165   8.229   8.572   6.496 -0.2530  0.0134 -0.0871
  307POPC   NC3 4166   2.895   8.447   3.972  0.2921  0.1054 -0.0326
  307POPC   PO4 4167   2.470   8.473   4.311  0.0767  0.0648  0.3961
  307POPC   GL1 4168   2.764   8.473   4.662 -0.2069  0.0883 -0.1422
  307POPC   GL2 4169   2.727   8.348   4.967 -0.2763 -0.1146  0.1885
  307POPC   C1A 4170   2.950   8.791   4.905  0.2925 -0.0641 -0.0870
  307POPC   D2A 4171   3.105   8.802   5.349  0.1488 -0.1107  0.2720
  307POPC   C3A 4172   3.041   8.742   5.739 -0.3504 -0.1126 -0.1919
  307POPC   C4A 4173   3.132   8.975   6.144  0.2333 -0.0007  0.0736
  307POPC   C1B 4174   2.695   8.498   5.310 -0.2451  0.1774  0.0482
  307POPC   C2B 4175   2.545   8.693   5.700 -0.0481  0.0784  0.0066
  307POPC   C3B 4176   2.619   9.003   5.948  0.1761 -0.0537  0.2731
  307POPC   C4B 4177   2.617   8.787   6.310 -0.1961 -0.0170 -0.2247
  308POPC   NC3 4178   2.871   6.865   4.229  0.1137 -0.1238  0.0097
  308POPC   PO4 4179   3.095   7.291   4.332  0.0971 -0.0107 -0.0334
  308POPC   GL1 4180   3.167   7.176   4.745 -0.0066 -0.1152  0.3798
  308POPC   GL2 4181   3.561   7.318   4.894  0.0079 -0.0434 -0.2607
  308POPC   C1A 4182   3.124   6.978   5.127 -0.2044 -0.2299  0.2315
  308POPC   D2A 4183   2.884   7.011   5.512 -0.3125  0.3526 -0.2043
  308POPC   C3A 4184   2.789   7.367   5.618 -0.0178  0.0584  0.4136
  308POPC   C4A 4185   2.578   7.761   5.750  0.1562 -0.4882  0.0928
  308POPC   C1B 4186   3.794   7.448   5.283  0.2064 -0.0388  0.0618
  308POPC   C2B 4187   4.131   7.680   5.588 -0.1033  0.1082 -0.0676
  308POPC   C3B 4188   4.138   8.070   5.815 -0.0438 -0.3401 -0.0267
  308POPC   C4B 4189   4.313   8.148   6.285  0.1252 -0.0757 -0.3621
  309POPC   NC3 4190   7.854   2.196   4.959 -0.2002  0.1865 -0.2005
  309POPC   PO4 4191   8.118   2.510   5.004 -0.0368 -0.2099 -0.0524
  309POPC   GL1 4192   8.160   2.798   5.325 -0.1854 -0.0983 -0.0183
  309POPC   GL2 4193   7.866   2.962   5.363  0.2108  0.4202  0.0754
  309POPC   C1A 4194   8.384   3.048   5.627  0.1909 -0.1447  0.3182
  309POPC   D2A 4195   8.625   2.886   5.822  0.0745 -0.1883  0.1674
  309POPC   C3A 4196   8.752   2.513   6.073 -0.0472 -0.2177 -0.1561
  309POPC   C4A 4197   9.156   2.709   6.272  0.0443 -0.3174  0.1236
  309POPC   C1B 4198   7.927   2.818   5.861 -0.1475  0.1257  0.1881
  309POPC   C2B 4199   7.769   2.659   6.278  0.0778 -0.1250  0.0867
  309POPC   C3B 4200   7.480   2.434   6.449 -0.1457  0.0126 -0.0486
  309POPC   C4B 4201   7.741   2.135   6.679 -0.1387 -0.0146 -0.0592
  310POPC   NC3 4202   1.912   7.435   4.664 -0.1720  0.0499 -0.1972
  310POPC   PO4 4203   2.345   7.450   4.733  0.0998 -0.0853  0.2634
  310POPC   GL1 4204   2.535   7.777   5.063  0.0356  0.2445  0.0385
  310POPC   GL2 4205   2.431   7.569   5.290 -0.1373  0.0834  0.1505
  310POPC   C1A 4206   2.766   8.020   5.383 -0.1193  0.0262  0.0302
  310POPC   D2A 4207   2.909   8.140   5.809  0.0714  0.1401  0.0803
  310POPC   C3A 4208   2.891   7.860   6.211  0.2494  0.2590 -0.3109
  310POPC   C4A 4209   2.742   7.477   6.154  0.1710  0.2268 -0.0304
  310POPC   C1B 4210   2.081   7.760   5.590  0.1343 -0.2627 -0.1205
  310POPC   C2B 4211   2.138   7.878   6.018 -0.4220  0.0771 -0.2815
  310POPC   C3B 4212   2.407   7.940   6.394 -0.2436  0.1670  0.0993
  310POPC   C4B 4213   2.688   7.633   6.681 -0.0246  0.1650 -0.1380
  311POPC   NC3 4214   7.787   9.714   4.538  0.1056 -0.0321 -0.1250
  311POPC   PO4 4215   7.684  10.129   4.520  0.0999  0.0563  0.1265
  311POPC   GL1 4216   7.643  10.104   4.922  0.1297 -0.0263 -0.2914
  311POPC   GL2 4217   7.762   9.723   5.032 -0.2677  0.0602 -0.2146
  311POPC   C1A 4218   7.732  10.133   5.427  0.0404  0.0717  0.0475
  311POPC   D2A 4219   7.734  10.311   5.850 -0.3751 -0.0483  0.4396
  311POPC   C3A 4220   8.073  10.649   5.992  0.2377 -0.4279 -0.2512
  311POPC   C4A 4221   8.420  10.801   6.110  0.3459 -0.1181 -0.1326
  311POPC   C1B 4222   7.582   9.649   5.410  0.0872 -0.3442 -0.0330
  311POPC   C2B 4223   7.689   9.729   5.825  0.2620  0.1825 -0.1006
  311POPC   C3B 4224   7.500   9.956   6.196  0.0195  0.1414  0.1334
  311POPC   C4B 4225   7.536  10.409   6.360  0.0260 -0.1063  0.0543
  312POPC   NC3 4226  10.044   5.092   4.847 -0.0203  0.1355  0.0109
  312POPC   PO4 4227  10.339   5.494   5.082  0.0555  0.1000 -0.1280
  312POPC   GL1 4228   9.944   5.380   5.184 -0.0986 -0.0418 -0.1541
  312POPC   GL2 4229  10.103   5.118   5.401 -0.1174 -0.1472 -0.1816
  312POPC   C1A 4230   9.685   5.352   5.575  0.0737  0.0467  0.1122
  312POPC   D2A 4231   9.539   5.477   5.944  0.1747  0.1734  0.0299
  312POPC   C3A 4232   9.217   5.192   6.020 -0.0545 -0.0684  0.1785
  312POPC   C4A 4233   8.899   5.095   6.317 -0.0393 -0.2266 -0.1563
  312POPC   C1B 4234  10.195   5.064   5.758 -0.1239  0.5224  0.3878
  312POPC   C2B 4235  10.524   5.125   5.985  0.0633 -0.2097  0.0563
  312POPC   C3B 4236  10.832   5.356   6.237  0.2974 -0.1178 -0.1069
  312POPC   C4B 4237  11.176   5.142   6.435 -0.3589 -0.1942 -0.2511
  313POPC   NC3 4238   8.513   7.625   4.391 -0.0240 -0.1738  0.0274
  313POPC   PO4 4239   8.542   7.318   4.789 -0.1163  0.1666  0.0191
  313POPC   GL1 4240   8.299   7.337   5.171  0.1626 -0.2718 -0.0406
  313POPC   GL2 4241   8.167   7.086   5.305  0.2341 -0.0635 -0.2895
  313POPC   C1A 4242   8.365   7.547   5.576 -0.2780  0.1467 -0.0319
  313POPC   D2A 4243   8.261   7.485   5.963  0.0842  0.1790  0.4205
  313POPC   C3A 4244   7.853   7.228   5.955 -0.1970 -0.2145  0.2197
  313POPC   C4A 4245   7.430   7.391   5.935  0.0693 -0.0500 -0.0426
  313POPC   C1B 4246   8.271   6.897   5.732 -0.1179  0.0889 -0.0610
  313POPC   C2B 4247   8.362   6.807   6.136  0.0047 -0.1942 -0.2792
  313POPC   C3B 4248   8.690   6.818   6.415  0.0541  0.0566  0.2975
  313POPC   C4B 4249   8.803   6.760   6.872 -0.0525  0.0475  0.0311
  314POPC   NC3 4250   5.850   1.012   4.002  0.0891 -0.4525 -0.1582
  314POPC   PO4 4251   6.001   1.011   4.362  0.0367  0.0536  0.0774
  314POPC   GL1 4252   5.954   0.611   4.502 -0.1308  0.0815  0.0001
  314POPC   GL2 4253   6.100   0.313   4.684 -0.1823 -0.3981 -0.2530
  314POPC   C1A 4254   5.765   0.575   4.973  0.1780 -0.4924 -0.0488
  314POPC   D2A 4255   5.856   0.292   5.269 -0.4121 -0.1012 -0.0403
  314POPC   C3A 4256   5.805   0.450   5.610 -0.0568  0.0427 -0.1138
  314POPC   C4A 4257   5.743   0.826   5.772 -0.1162  0.0903 -0.1498
  314POPC   C1B 4258   6.414   0.278   4.837 -0.1268 -0.2262  0.3475
  314POPC   C2B 4259   6.455   0.333   5.288  0.2114 -0.0351  0.1411
  314POPC   C3B 4260   6.215   0.110   5.659 -0.1172 -0.1481  0.0617
  314POPC   C4B 4261   5.827  -0.082   5.745  0.0968 -0.1860  0.0378
  315POPC   NC3 4262   6.291   2.960   4.883  0.0715 -0.1544 -0.0117
  315POPC   PO4 4263   5.882   3.174   4.909 -0.0561 -0.0612  0.3734
  315POPC   GL1 4264   6.134   3.302   5.261  0.0515  0.0425 -0.1584
  315POPC   GL2 4265   6.341   3.066   5.398  0.0790 -0.0379  0.4439
  315POPC   C1A 4266   6.460   3.446   5.623 -0.0724 -0.4601 -0.2710
  315POPC   D2A 4267   6.440   3.517   6.082  0.6233  0.0368  0.0507
  315POPC   C3A 4268   6.292   3.167   6.238 -0.2175  0.2943 -0.0920
  315POPC   C4A 4269   6.471   2.908   6.535  0.3489 -0.0673 -0.0684
  315POPC   C1B 4270   6.553   3.032   5.808 -0.4298  0.2598  0.1620
  315POPC   C2B 4271   6.812   3.271   6.151 -0.1002 -0.1992 -0.0335
  315POPC   C3B 4272   6.826   3.771   6.432  0.1823 -0.0506 -0.2016
  315POPC   C4B 4273   6.865   4.161   6.638 -0.0162 -0.4042 -0.0111
  316POPC   NC3 4274   2.929   1.684   5.137  0.0844  0.0917 -0.0192
  316POPC   PO4 4275   3.283   1.859   5.393  0.3541  0.3056 -0.2657
  316POPC   GL1 4276   3.079   1.799   5.698 -0.4492 -0.3465 -0.0912
  316POPC   GL2 4277   2.733   1.510   5.634 -0.2724  0.0291 -0.0552
  316POPC   C1A 4278   3.067   1.494   6.074 -0.0409 -0.0048 -0.0181
  316POPC   D2A 4279   2.890   1.480   6.449  0.1689 -0.1751 -0.2449
  316POPC   C3A 4280   3.050   1.376   6.856  0.1182 -0.1575  0.1664
  316POPC   C4A 4281   3.476   1.275   6.982 -0.2742  0.0247 -0.3711
  316POPC   C1B 4282   2.586   1.277   6.085 -0.2671 -0.0127 -0.1022
  316POPC   C2B 4283   2.355   1.279   6.483 -0.1844 -0.2216 -0.1682
  316POPC   C3B 4284   2.424   1.315   6.915  0.0109 -0.0214 -0.1711
  316POPC   C4B 4285   2.124   1.391   7.275  0.1326  0.1011  0.0363
  317POPC   NC3 4286   1.814   9.903   5.172  0.0572 -0.1990 -0.2229
  317POPC   PO4 4287   1.879   9.575   4.970  0.2221  0.0828 -0.0359
  317POPC   GL1 4288   2.202   9.501   5.305 -0.2380  0.0655 -0.2189
  317POPC   GL2 4289   2.040   9.751   5.534  0.3178  0.3897 -0.1657
  317POPC   C1A 4290   2.322   9.305   5.589 -0.1944 -0.0546  0.1152
  317POPC   D2A 4291   2.161   9.289   5.957  0.2018 -0.1343  0.2722
  317POPC   C3A 4292   2.335   9.189   6.319 -0.0601  0.0870  0.2533
  317POPC   C4A 4293   2.503   9.470   6.665  0.0622 -0.0858  0.1508
  317POPC   C1B 4294   2.381   9.797   5.756 -0.1774 -0.4060 -0.3791
  317POPC   C2B 4295   2.638   9.510   6.047 -0.0887  0.1660 -0.0434
  317POPC   C3B 4296   3.091   9.462   6.015 -0.0196  0.1970  0.2750
  317POPC   C4B 4297   3.490   9.510   5.952 -0.0779  0.0035  0.1226
  318POPC   NC3 4298   3.698   8.065   3.675 -0.1413  0.1064 -0.1760
  318POPC   PO4 4299   3.827   8.505   3.816 -0.5028  0.1662  0.0274
  318POPC   GL1 4300   3.944   8.382   4.216  0.0103 -0.1642  0.0530
  318POPC   GL2 4301   3.787   8.424   4.417 -0.0497  0.1427  0.0048
  318POPC   C1A 4302   4.266   8.339   4.522  0.4016 -0.2304 -0.0689
  318POPC   D2A 4303   4.512   8.505   4.870 -0.2922 -0.5239 -0.0980
  318POPC   C3A 4304   4.701   8.245   5.115  0.0341 -0.0558  0.1289
  318POPC   C4A 4305   5.254   8.125   5.137 -0.0498 -0.0544  0.0391
  318POPC   C1B 4306   3.896   8.383   4.844 -0.1345 -0.0326 -0.0684
  318POPC   C2B 4307   3.715   8.242   5.265 -0.0611  0.1124 -0.0365
  318POPC   C3B 4308   3.659   7.980   5.590  0.0839  0.1647  0.1649
  318POPC   C4B 4309   3.712   7.553   5.754  0.0323 -0.0681  0.0288
  319POPC   NC3 4310   5.557   2.996   4.447 -0.1655 -0.2729 -0.1179
  319POPC   PO4 4311   5.410   3.305   4.728 -0.3784  0.1541  0.0919
  319POPC   GL1 4312   5.417   3.411   5.156 -0.3804  0.0375 -0.0909
  319POPC   GL2 4313   5.604   3.234   5.478  0.2354 -0.1223 -0.1715
  319POPC   C1A 4314   5.219   3.599   5.494 -0.1638 -0.2867  0.0872
  319POPC   D2A 4315   5.223   3.611   5.973 -0.2742  0.5471 -0.0784
  319POPC   C3A 4316   5.062   4.007   6.089 -0.3857 -0.0719 -0.0532
  319POPC   C4A 4317   4.730   4.137   6.340  0.0599  0.2054  0.1640
  319POPC   C1B 4318   5.441   3.152   5.950 -0.0364  0.0121  0.0533
  319POPC   C2B 4319   5.133   3.180   6.269  0.1771  0.0552  0.1781
  319POPC   C3B 4320   4.753   2.952   6.373  0.0942  0.0138  0.0620
  319POPC   C4B 4321   4.606   2.559   6.665 -0.1135  0.4394 -0.2477
  320POPC   NC3 4322   3.610   1.123   4.791  0.0143 -0.3164  0.3533
  320POPC   PO4 4323   3.548   1.058   5.189  0.2403  0.0757 -0.0221
  320POPC   GL1 4324   3.666   1.127   5.625 -0.1502 -0.0632  0.2309
  320POPC   GL2 4325   4.019   1.298   5.559 -0.1162  0.0679  0.0948
  320POPC   C1A 4326   3.456   1.233   6.005  0.1608 -0.1335  0.1264
  320POPC   D2A 4327   3.396   1.321   6.396  0.0531  0.3282 -0.2867
  320POPC   C3A 4328   3.459   1.632   6.527 -0.0119 -0.2078  0.1071
  320POPC   C4A 4329   3.373   1.796   6.963 -0.0269 -0.1716  0.0163
  320POPC   C1B 4330   4.205   1.395   5.859 -0.1893  0.3661 -0.2624
  320POPC   C2B 4331   4.224   1.148   6.265 -0.2500 -0.4235  0.1160
  320POPC   C3B 4332   4.411   1.135   6.724 -0.1895  0.0443  0.0028
  320POPC   C4B 4333   4.295   0.757   7.032  0.0684 -0.1759 -0.1881
  321POPC   NC3 4334  10.103   9.970   5.225  0.1277  0.2246 -0.3874
  321POPC   PO4 4335  10.339   9.598   5.276  0.0712 -0.3363 -0.2864
  321POPC   GL1 4336  10.448   9.639   5.702  0.0514  0.0657  0.2235
  321POPC   GL2 4337  10.730   9.577   5.775  0.0061 -0.2176 -0.0618
  321POPC   C1A 4338  10.144   9.429   6.029  0.0407 -0.0162  0.1234
  321POPC   D2A 4339   9.772   9.581   6.260  0.1436  0.1486 -0.1063
  321POPC   C3A 4340   9.802   9.618   6.629  0.0277 -0.0778 -0.2273
  321POPC   C4A 4341  10.118   9.730   6.957 -0.1112 -0.0960 -0.1016
  321POPC   C1B 4342  11.030   9.714   6.177 -0.1625 -0.0478 -0.0654
  321POPC   C2B 4343  11.290   9.661   6.553  0.1796  0.3489 -0.0975
  321POPC   C3B 4344  11.613   9.886   6.731  0.0207 -0.0224 -0.0779
  321POPC   C4B 4345  12.109   9.847   6.815 -0.0714  0.1991 -0.2646
  322POPC   NC3 4346   7.259   3.541   4.627  0.4222  0.1579 -0.0415
  322POPC   PO4 4347   7.107   3.346   5.034 -0.1110 -0.2327  0.0081
  322POPC   GL1 4348   6.910   3.426   5.386 -0.1509 -0.2460 -0.2639
  322POPC   GL2 4349   6.917   3.195   5.513 -0.0764 -0.2273 -0.0346
  322POPC   C1A 4350   6.940   3.604   5.766 -0.0461 -0.3966 -0.1088
  322POPC   D2A 4351   7.235   3.686   6.100 -0.1538 -0.1915  0.2977
  322POPC   C3A 4352   7.403   4.027   6.346  0.0956  0.0706 -0.0888
  322POPC   C4A 4353   7.834   3.983   6.599 -0.4797 -0.0353  0.4513
  322POPC   C1B 4354   7.131   2.895   5.820 -0.2886 -0.2048 -0.0563
  322POPC   C2B 4355   7.274   2.991   6.192 -0.1082 -0.1415  0.0151
  322POPC   C3B 4356   7.432   3.090   6.606  0.2511  0.0427 -0.2185
  322POPC   C4B 4357   7.761   3.243   7.021  0.0991  0.0139 -0.1289
  323POPC   NC3 4358   3.224   3.782   4.281 -0.0035  0.0542  0.1189
  323POPC   PO4 4359   3.490   3.728   4.680  0.3778 -0.1122 -0.2201
  323POPC   GL1 4360   3.401   3.664   5.123  0.2346  0.1033  0.2440
  323POPC   GL2 4361   3.152   3.550   5.298 -0.2878  0.1264  0.0294
  323POPC   C1A 4362   3.678   3.765   5.461  0.1831  0.1856  0.0341
  323POPC   D2A 4363   3.785   3.573   5.791 -0.0593  0.0504  0.0559
  323POPC   C3A 4364   4.198   3.333   5.802 -0.2575 -0.0707  0.2498
  323POPC   C4A 4365   4.410   3.347   6.176 -0.2852 -0.1280  0.2636
  323POPC   C1B 4366   3.276   3.688   5.706 -0.0245 -0.3784 -0.0289
  323POPC   C2B 4367   3.396   3.594   6.176  0.0044  0.0424  0.1020
  323POPC   C3B 4368   3.403   3.231   6.405  0.3036 -0.0006 -0.0936
  323POPC   C4B 4369   3.472   3.112   6.744 -0.0602 -0.0814  0.0523
  324POPC   NC3 4370   0.036   3.428   4.489  0.0219 -0.2048  0.0583
  324POPC   PO4 4371   0.043   3.091   4.836 -0.0509 -0.0010  0.0725
  324POPC   GL1 4372  -0.185   3.130   5.168  0.3445  0.1453 -0.2199
  324POPC   GL2 4373   0.020   2.907   5.330  0.0635 -0.4214 -0.0500
  324POPC   C1A 4374  -0.454   3.191   5.545 -0.1408  0.2010  0.1899
  324POPC   D2A 4375  -0.508   3.656   5.730 -0.0978  0.1273  0.0219
  324POPC   C3A 4376  -0.195   3.893   5.543  0.0311  0.1406 -0.2128
  324POPC   C4A 4377   0.006   4.168   5.578  0.1484 -0.0620 -0.3187
  324POPC   C1B 4378  -0.047   2.731   5.697  0.1925 -0.0171  0.2529
  324POPC   C2B 4379  -0.059   2.704   6.108 -0.3018 -0.0254  0.0760
  324POPC   C3B 4380   0.292   2.516   6.228 -0.0265 -0.0925 -0.3429
  324POPC   C4B 4381   0.758   2.641   6.246  0.1158  0.0834 -0.0458
  325POPC   NC3 4382   9.569   9.181   5.028  0.1419  0.0841  0.2928
  325POPC   PO4 4383   9.660   9.597   5.158  0.0842 -0.1256  0.1531
  325POPC   GL1 4384   9.680   9.646   5.558 -0.2568 -0.1227  0.0011
  325POPC   GL2 4385   9.974   9.497   5.584 -0.1291 -0.1934 -0.0314
  325POPC   C1A 4386   9.504   9.498   5.888  0.0403 -0.1605  0.1221
  325POPC   D2A 4387   9.294   9.548   6.260 -0.0123  0.1321  0.1114
  325POPC   C3A 4388   8.886   9.288   6.269  0.0907 -0.1094  0.2898
  325POPC   C4A 4389   8.433   9.237   6.114  0.3101 -0.1151  0.1527
  325POPC   C1B 4390   9.998   9.864   5.900  0.1054 -0.2235  0.0224
  325POPC   C2B 4391   9.904  10.081   6.337 -0.1732  0.0958  0.2709
  325POPC   C3B 4392   9.964  10.160   6.828  0.4506  0.1184  0.1046
  325POPC   C4B 4393   9.617  10.237   6.991  0.0138 -0.0892 -0.1400
  326POPC   NC3 4394   3.641   0.103   4.554 -0.0260  0.0931  0.0909
  326POPC   PO4 4395   3.842   0.032   4.173  0.2828  0.0207 -0.2523
  326POPC   GL1 4396   4.038  -0.308   4.395 -0.1506  0.4530  0.0940
  326POPC   GL2 4397   3.919  -0.345   4.694 -0.0379  0.1273 -0.0576
  326POPC   C1A 4398   4.278  -0.666   4.349  0.2052 -0.5177 -0.2580
  326POPC   D2A 4399   4.669  -0.957   4.447 -0.2592 -0.3613 -0.0697
  326POPC   C3A 4400   5.063  -1.005   4.369 -0.1039  0.0232 -0.2828
  326POPC   C4A 4401   5.327  -0.984   4.123 -0.0613  0.2593 -0.1770
  326POPC   C1B 4402   4.237  -0.624   4.882 -0.1151  0.0523 -0.2644
  326POPC   C2B 4403   4.621  -0.835   4.958 -0.0312  0.4298 -0.1033
  326POPC   C3B 4404   4.721  -1.080   5.281  0.1261  0.1364 -0.2249
  326POPC   C4B 4405   4.892  -1.166   5.667 -0.1297  0.1664  0.1959
  327POPC   NC3 4406   1.848   3.712   5.034 -0.1630  0.0031 -0.0216
  327POPC   PO4 4407   1.657   3.902   5.260  0.0826 -0.1899 -0.1443
  327POPC   GL1 4408   1.703   3.709   5.710  0.0083 -0.1709  0.0058
  327POPC   GL2 4409   1.969   3.676   5.931  0.3722 -0.2050  0.0588
  327POPC   C1A 4410   1.420   3.562   6.104 -0.0040  0.4186 -0.3246
  327POPC   D2A 4411   1.202   3.416   6.402  0.1623 -0.0547 -0.1471
  327POPC   C3A 4412   1.153   3.010   6.507  0.0726 -0.2561 -0.4215
  327POPC   C4A 4413   1.084   2.604   6.659  0.2755  0.2525 -0.1056
  327POPC   C1B 4414   2.097   3.506   6.253  0.0135  0.4145 -0.0047
  327POPC   C2B 4415   2.251   3.304   6.624  0.1443 -0.1794  0.3273
  327POPC   C3B 4416   2.576   3.070   6.856  0.0592  0.1913 -0.2548
  327POPC   C4B 4417   2.697   2.745   7.112  0.2144  0.1533  0.1515
  328POPC   NC3 4418   5.091   6.210   4.146  0.1249 -0.1341 -0.2882
  328POPC   PO4 4419   5.467   6.391   4.248 -0.0407  0.0696 -0.0987
  328POPC   GL1 4420   5.247   6.371   4.639 -0.1834  0.3079 -0.0938
  328POPC   GL2 4421   4.913   6.320   4.635  0.0459  0.0001  0.0929
  328POPC   C1A 4422   5.161   6.696   4.901  0.2924  0.0603  0.1145
  328POPC   D2A 4423   4.917   6.759   5.311  0.0941 -0.0286 -0.1562
  328POPC   C3A 4424   5.177   6.605   5.580 -0.0422 -0.0673 -0.0380
  328POPC   C4A 4425   5.291   6.489   6.129 -0.2237  0.0228  0.3355
  328POPC   C1B 4426   5.022   6.262   5.106  0.0432 -0.0279  0.1156
  328POPC   C2B 4427   4.866   6.282   5.446 -0.0836  0.1609  0.0915
  328POPC   C3B 4428   4.532   6.019   5.541 -0.3033 -0.1437  0.2047
  328POPC   C4B 4429   4.214   5.983   5.902  0.0351 -0.1530  0.2607
  329POPC   NC3 4430   6.762   9.129   3.197 -0.2653  0.0123  0.2697
  329POPC   PO4 4431   6.448   9.433   3.317 -0.4044 -0.3311  0.1280
  329POPC   GL1 4432   6.612   9.334   3.719 -0.2590 -0.0082 -0.0454
  329POPC   GL2 4433   6.758   9.469   4.027  0.0204  0.2793  0.3166
  329POPC   C1A 4434   6.696   8.937   3.868 -0.1976  0.0741  0.0332
  329POPC   D2A 4435   6.736   8.745   4.241  0.3288 -0.0681  0.3570
  329POPC   C3A 4436   6.919   8.957   4.722 -0.2627 -0.4194 -0.0086
  329POPC   C4A 4437   7.178   8.967   5.162 -0.1619 -0.3679  0.1994
  329POPC   C1B 4438   6.763   9.308   4.399 -0.1288 -0.0451  0.1541
  329POPC   C2B 4439   6.653   9.381   4.833  0.0041  0.2664 -0.1101
  329POPC   C3B 4440   6.724   9.235   5.323  0.1049 -0.1131  0.2117
  329POPC   C4B 4441   7.004   9.085   5.603 -0.0524 -0.0212 -0.0609
  330POPC   NC3 4442   2.567   3.370   4.665  0.3187  0.1248  0.1793
  330POPC   PO4 4443   2.339   3.380   4.991 -0.1346 -0.1166 -0.0942
  330POPC   GL1 4444   2.470   3.249   5.334 -0.0980 -0.1343  0.0930
  330POPC   GL2 4445   2.266   2.896   5.452  0.1946 -0.0462 -0.3404
  330POPC   C1A 4446   2.834   3.071   5.549  0.0002  0.1126  0.3019
  330POPC   D2A 4447   2.983   3.229   5.893  0.1588 -0.0565  0.0914
  330POPC   C3A 4448   2.976   2.991   6.266  0.0012 -0.2048  0.1344
  330POPC   C4A 4449   2.984   3.053   6.646  0.0868  0.0009  0.0413
  330POPC   C1B 4450   2.643   2.636   5.593  0.1541  0.0192  0.0050
  330POPC   C2B 4451   2.771   2.181   5.840 -0.1455 -0.0734 -0.1890
  330POPC   C3B 4452   2.897   1.994   6.108  0.4259  0.2320 -0.2654
  330POPC   C4B 4453   3.019   1.980   6.558 -0.0642 -0.0651  0.2829
  331POPC   NC3 4454   3.106   4.630   4.837  0.1053 -0.1967  0.0801
  331POPC   PO4 4455   3.263   4.794   5.182 -0.0447 -0.3299 -0.1776
  331POPC   GL1 4456   3.361   4.985   5.541  0.0532  0.1692 -0.0030
  331POPC   GL2 4457   3.594   5.056   5.507 -0.0647 -0.0823  0.1173
  331POPC   C1A 4458   3.241   4.954   5.902  0.1129  0.1327  0.0406
  331POPC   D2A 4459   3.340   4.920   6.284 -0.2379  0.1485 -0.0111
  331POPC   C3A 4460   3.354   5.223   6.596  0.4249  0.0256  0.2705
  331POPC   C4A 4461   3.373   5.476   6.936 -0.0963  0.2829  0.0586
  331POPC   C1B 4462   3.775   5.191   5.829  0.2126 -0.0787  0.2638
  331POPC   C2B 4463   4.161   5.465   5.863 -0.0377 -0.1043 -0.2654
  331POPC   C3B 4464   4.457   5.661   6.246 -0.0931 -0.3265 -0.1672
  331POPC   C4B 4465   4.317   5.657   6.624 -0.1444 -0.3381  0.0642
  332POPC   NC3 4466   0.386   7.354   4.704  0.2983 -0.0303  0.0122
  332POPC   PO4 4467   0.671   7.635   5.075  0.3039 -0.1448  0.1473
  332POPC   GL1 4468   0.907   7.444   5.468 -0.0315  0.0924  0.0193
  332POPC   GL2 4469   1.007   7.078   5.416 -0.0097  0.2787 -0.0685
  332POPC   C1A 4470   0.775   7.436   5.879  0.0202  0.0330 -0.1093
  332POPC   D2A 4471   0.588   7.752   6.245 -0.0084  0.0678 -0.2712
  332POPC   C3A 4472   0.170   7.759   6.348 -0.2727 -0.0524  0.2240
  332POPC   C4A 4473  -0.045   7.950   6.602  0.2546  0.0375  0.1159
  332POPC   C1B 4474   1.005   7.021   5.872 -0.1604  0.3595  0.0707
  332POPC   C2B 4475   1.393   6.833   6.256 -0.1624  0.0665 -0.0219
  332POPC   C3B 4476   1.390   6.689   6.678  0.0064 -0.1018 -0.0091
  332POPC   C4B 4477   1.170   6.392   7.054 -0.0042  0.2019 -0.0566
  333POPC   NC3 4478   7.391   2.440   4.702 -0.0852 -0.0055 -0.0521
  333POPC   PO4 4479   7.596   2.614   5.101 -0.0638 -0.0361 -0.0621
  333POPC   GL1 4480   7.795   2.468   5.454  0.1041  0.1036 -0.3061
  333POPC   GL2 4481   7.455   2.624   5.627 -0.0901 -0.2765 -0.0735
  333POPC   C1A 4482   7.825   2.238   5.905 -0.1945  0.3355 -0.0769
  333POPC   D2A 4483   7.905   1.988   6.245  0.1701 -0.0274  0.2954
  333POPC   C3A 4484   8.347   1.834   6.265 -0.0762 -0.3676 -0.0786
  333POPC   C4A 4485   8.756   1.684   6.360  0.5968 -0.2266 -0.0441
  333POPC   C1B 4486   7.261   2.336   6.013  0.0982 -0.0317  0.0231
  333POPC   C2B 4487   6.991   1.998   6.289  0.0434  0.0751  0.0038
  333POPC   C3B 4488   7.015   1.657   6.620 -0.4010 -0.2698 -0.4300
  333POPC   C4B 4489   7.071   1.333   6.983 -0.2414  0.1378  0.0895
  334POPC   NC3 4490   9.123   6.720   5.043 -0.1589 -0.3136 -0.0966
  334POPC   PO4 4491   9.343   6.356   5.079 -0.1727  0.3742 -0.1904
  334POPC   GL1 4492   9.232   6.381   5.547  0.1271 -0.2290  0.2498
  334POPC   GL2 4493   8.992   6.653   5.530 -0.2119  0.0349  0.0791
  334POPC   C1A 4494   9.082   6.267   5.947 -0.0979  0.0742  0.0055
  334POPC   D2A 4495   9.055   6.461   6.354 -0.0430  0.1513  0.1711
  334POPC   C3A 4496   9.340   6.545   6.638  0.0900 -0.1512  0.0734
  334POPC   C4A 4497   9.455   6.888   6.962  0.0614 -0.1686 -0.2020
  334POPC   C1B 4498   8.658   6.530   5.838  0.1850 -0.1096  0.1968
  334POPC   C2B 4499   8.494   6.354   6.154  0.0467  0.0310  0.1472
  334POPC   C3B 4500   8.323   6.422   6.452  0.0134  0.1362 -0.0311
  334POPC   C4B 4501   8.328   6.709   6.811  0.3426 -0.0038  0.3137
  335POPC   NC3 4502   2.585  10.182   4.909  0.0443  0.0681  0.0072
  335POPC   PO4 4503   2.884  10.498   4.911  0.0250  0.1305  0.1786
  335POPC   GL1 4504   3.032  10.333   5.251  0.0872 -0.1392 -0.2576
  335POPC   GL2 4505   3.056   9.998   5.127  0.1448 -0.0262 -0.0736
  335POPC   C1A 4506   3.318  10.046   5.515  0.0000 -0.3096  0.0057
  335POPC   D2A 4507   3.350   9.975   6.009 -0.1401 -0.0044 -0.0326
  335POPC   C3A 4508   3.165   9.786   6.342  0.1270  0.2114  0.2820
  335POPC   C4A 4509   3.240   9.364   6.444  0.0220  0.2308  0.2664
  335POPC   C1B 4510   3.383   9.767   4.954  0.0042 -0.1277  0.0982
  335POPC   C2B 4511   3.803   9.698   5.194 -0.0221  0.0760 -0.2306
  335POPC   C3B 4512   4.201   9.558   5.287 -0.1174 -0.2274 -0.0676
  335POPC   C4B 4513   4.432   9.610   5.674 -0.2126 -0.1582 -0.0677
  336POPC   NC3 4514   6.332   5.292   4.318  0.0779  0.0129  0.2177
  336POPC   PO4 4515   6.315   4.777   4.388  0.1672  0.3303 -0.3288
  336POPC   GL1 4516   6.028   4.805   4.848  0.1637 -0.3610  0.0405
  336POPC   GL2 4517   6.183   5.084   4.848  0.1763  0.2790  0.2356
  336POPC   C1A 4518   5.998   4.772   5.257  0.0722 -0.0992  0.0772
  336POPC   D2A 4519   5.921   4.823   5.714 -0.1985  0.0984  0.0142
  336POPC   C3A 4520   5.949   5.207   5.833 -0.0664  0.2188  0.0365
  336POPC   C4A 4521   5.877   5.322   6.282 -0.1703 -0.1257  0.1813
  336POPC   C1B 4522   5.838   5.216   5.124 -0.2216 -0.0635  0.1991
  336POPC   C2B 4523   5.633   5.407   5.464  0.2180  0.0724  0.0895
  336POPC   C3B 4524   5.578   5.725   5.760 -0.3178  0.1273  0.1055
  336POPC   C4B 4525   5.906   5.889   5.940  0.0333  0.0162  0.2247
  337POPC   NC3 4526   8.419   0.316   5.202 -0.3889  0.1188 -0.0651
  337POPC   PO4 4527   8.716   0.584   5.165 -0.3422 -0.3343 -0.0419
  337POPC   GL1 4528   8.727   0.615   5.570 -0.0227  0.0516 -0.1209
  337POPC   GL2 4529   8.388   0.561   5.667  0.0699 -0.1330 -0.3031
  337POPC   C1A 4530   8.868   0.422   5.945  0.3711 -0.0327 -0.0786
  337POPC   D2A 4531   8.866   0.155   6.216  0.0778 -0.0181 -0.3347
  337POPC   C3A 4532   8.988   0.114   6.576  0.1289 -0.2036 -0.0696
  337POPC   C4A 4533   9.137   0.002   6.903  0.2172  0.1275 -0.3246
  337POPC   C1B 4534   8.190   0.738   5.979 -0.2462  0.0184  0.1517
  337POPC   C2B 4535   7.917   0.523   6.257 -0.0801 -0.1786  0.0049
  337POPC   C3B 4536   8.088   0.193   6.520  0.1876  0.0740  0.4389
  337POPC   C4B 4537   8.358  -0.093   6.555 -0.0225 -0.0305  0.1626
  338W        W 4538   7.316   4.316  12.547 -0.3892  0.2485 -0.4007
  339W        W 4539   0.462   3.936   1.959 -0.0154 -0.0116  0.1910
  340W        W 4540   2.517   6.956   8.891  0.0046  0.4249  0.0787
  341W        W 4541   9.196   5.036  10.206 -0.1554 -0.0791 -0.1514
  342W        W 4542   9.355   9.490  10.957  0.2879  0.2908 -0.0396
  343W        W 4543   6.197   9.922  11.493 -0.2664  0.0185 -0.0983
  344W        W 4544   7.266   6.294  10.397 -0.0442  0.1289  0.1163
  345W        W 4545   3.802   8.294  11.345 -0.1799 -0.0780  0.1126
  346W        W 4546   6.188   4.350   4.080 -0.0156  0.0214  0.0297
  347W        W 4547   4.317   8.954  11.273  0.1423  0.0194  0.0069
  348W        W 4548   5.376   2.278  11.244  0.0187 -0.0527 -0.1822
  349W        W 4549   0.870   9.827   2.149 -0.4636  0.0733 -0.1576
  350W        W 4550   8.849   6.682   1.169  0.2099 -0.1148 -0.1167
  351W        W 4551   7.416   4.537   9.418 -0.0249  0.1653 -0.1001
  352W        W 4552   7.191   5.048   0.859  0.1740  0.0331  0.0383
  353W        W 4553   0.842   8.513   5.490  0.0800  0.1287  0.1643
  354W        W 4554   0.622   6.187   9.540 -0.0408  0.2117 -0.0256
  355W        W 4555   2.346   5.608  13.285 -0.0856  0.2024 -0.1003
  356W        W 4556   8.124   8.349   1.294  0.1036 -0.1323 -0.1418
  357W        W 4557   5.080   1.326  12.173  0.0669  0.0120 -0.0009
  358W        W 4558   2.704   3.568  11.607 -0.0417  0.1017  0.1464
  359W        W 4559   3.421   6.704   4.861  0.0646  0.1506  0.0459
  360W        W 4560   1.118  10.241  12.241  0.1699  0.1057 -0.0260
  361W        W 4561   5.196   7.466   0.480 -0.0659 -0.2774  0.1748
  362W        W 4562  10.089   6.118   4.755  0.1830  0.0374  0.0851
  363W        W 4563   7.402   2.386   0.358 -0.0550  0.1247 -0.0379
  364W        W 4564   1.994   2.777   2.650  0.0515  0.2141 -0.0273
  365W        W 4565   7.985   2.273   3.085  0.3052  0.1598 -0.2575
  366W        W 4566   3.391   9.247   2.908 -0.0299 -0.2641 -0.0984
  367W        W 4567   3.408   7.185   3.520  0.3349 -0.3503 -0.4301
  368W        W 4568   8.704   7.272  12.142 -0.0868 -0.1516  0.0141
  369W        W 4569   7.164   2.495   2.544 -0.1008  0.2056  0.0382
  370W        W 4570   1.076   0.344   4.340  0.3382 -0.4643  0.0142
  371W        W 4571   7.499   5.901   9.386 -0.1207 -0.0845  0.2906
  372W        W 4572   5.682   2.011  12.626 -0.2408  0.1699 -0.2571
  373W        W 4573   7.196   9.442   2.780 -0.4638 -0.0356 -0.1071
  374W        W 4574   1.639   8.622  13.024  0.2039 -0.0096  0.1802
  375W        W 4575   9.000   0.776   0.334  0.1034  0.2867 -0.0068
  376W        W 4576   7.356   4.017   3.357 -0.3570 -0.1541  0.0338
  377W        W 4577   7.365   2.292  10.950 -0.5985  0.3001 -0.3148
  378W        W 4578   9.220   6.456   8.749 -0.2516  0.2928 -0.2914
  379W        W 4579   9.918   8.578   0.201 -0.3083 -0.1215  0.2664
  380W        W 4580   9.802   4.279  11.410 -0.0022 -0.0801  0.0964
  381W        W 4581   8.138   6.646   9.724  0.0951  0.1451 -0.3685
  382W        W 4582   5.146   4.903   3.519  0.0101  0.1690 -0.1915
  383W        W 4583   1.181  10.323  10.387 -0.0145  0.2642 -0.0401
  384W        W 4584   8.620   9.870   4.613 -0.1393 -0.3593 -0.2049
  385W        W 4585   0.650   5.652  12.373  0.2691  0.1905  0.2071
  386W        W 4586   7.333   0.491   1.222  0.0606  0.1465 -0.2228
  387W        W 4587  10.110   8.088   1.500 -0.3016  0.0412  0.0760
  388W        W 4588   6.450   4.393  10.494  0.1872  0.0955  0.2794
  389W        W 4589   0.950   2.018  10.922  0.1447  0.0152  0.3561
  390W        W 4590   3.581   8.686  10.740  0.2446  0.1757 -0.1350
  391W        W 4591   3.414   9.540  12.166  0.1293  0.2918  0.2008
  392W        W 4592   3.287   2.077  12.562  0.0502  0.1424 -0.1939
  393W        W 4593   6.816   4.790   0.443  0.0956 -0.0387 -0.1252
  394W        W 4594   2.330   3.870   4.112  0.0716 -0.0242  0.0440
  395W        W 4595   3.579   5.076   4.196 -0.2520  0.0332 -0.2070
  396W        W 4596   8.521   4.454  10.057 -0.2072  0.0215 -0.1201
  397W        W 4597   7.075   8.932  10.370 -0.0948  0.0203 -0.0210
  398W        W 4598  10.338   6.820   1.150  0.0680 -0.1365  0.0536
  399W        W 4599   3.849   0.023   1.529  0.1860 -0.0858 -0.3208
  400W        W 4600   6.047   9.350  12.523  0.1531 -0.1084 -0.1133
  401W        W 4601   5.213   0.417   9.147 -0.1292  0.1242  0.2600
  402W        W 4602   4.736   7.506   0.408  0.1831  0.1153 -0.0229
  403W        W 4603  10.227   9.060   3.507  0.1444  0.3288 -0.0527
  404W        W 4604   3.335   7.676  12.831  0.0335  0.0844 -0.1802
  405W        W 4605   0.917   1.975   3.543  0.0112  0.0464  0.0064
  406W        W 4606   8.888   1.271  13.005 -0.0637 -0.1583 -0.3097
  407W        W 4607  10.305   0.023   3.055 -0.0830 -0.2646 -0.1197
  408W        W 4608   1.189   1.644   8.825  0.1123 -0.2243  0.2082
  409W        W 4609   1.040  10.278   3.511  0.2071 -0.1641  0.0319
  410W        W 4610   8.773   7.087  12.772 -0.2317 -0.1076 -0.2219
  411W        W 4611   3.414   1.747  12.109 -0.1881 -0.1359 -0.2103
  412W        W 4612   7.275   8.409  11.952 -0.1924  0.2959 -0.1793
  413W        W 4613   2.336   4.556  12.375  0.0152  0.3157 -0.0556
  414W        W 4614   3.774  10.238  11.815  0.0530  0.0902 -0.0863
  415W        W 4615   6.121   5.280   0.805 -0.3260  0.1595  0.2140
  416W        W 4616   6.907   1.579  10.734 -0.1036 -0.0889 -0.3341
  417W        W 4617   9.449   9.683   4.114 -0.0890  0.1344 -0.0224
  418W        W 4618   6.221   2.239   9.606  0.0622 -0.0731  0.1513
  419W        W 4619   9.598   2.563   3.111  0.3538 -0.1001 -0.0942
  420W        W 4620   0.549   4.103   1.351 -0.2137 -0.1942  0.1806
  421W        W 4621   9.329   5.180  12.732  0.0465 -0.0069 -0.1183
  422W        W 4622   0.448   2.005  10.821 -0.1592 -0.0143  0.1860
  423W        W 4623   4.245   5.398  10.014 -0.1146 -0.0801 -0.0075
  424W        W 4624   8.197   8.004   3.712 -0.0104 -0.2732  0.1268
  425W        W 4625   7.723   1.701  12.452 -0.1035 -0.3993  0.0084
  426W        W 4626   8.752   1.293   9.556  0.1831 -0.2904  0.1297
  427W        W 4627   8.207   2.574   3.376  0.2121  0.2703 -0.0653
  428W        W 4628   6.530   1.071  11.925 -0.0865 -0.2076  0.2011
  429W        W 4629   4.175   8.548   0.164  0.2000 -0.0408  0.0341
  430W        W 4630  10.323   7.520   2.535 -0.1130 -0.1545 -0.1659
  431W        W 4631   1.296   8.957  13.326 -0.1205 -0.1039  0.2479
  432W        W 4632   5.109   8.905  11.828 -0.0154 -0.1264 -0.2454
  433W        W 4633   8.861   5.630  10.800  0.0784 -0.0570  0.3501
  434W        W 4634   2.925   5.588   3.854  0.5090  0.0206 -0.0708
  435W        W 4635   3.674   0.885  11.054  0.0025 -0.3434 -0.2021
  436W        W 4636   5.873   4.619   8.810 -0.1205  0.0371  0.1411
  437W        W 4637   8.714   6.257   1.386  0.3520  0.1897  0.0586
  438W        W 4638   5.160   8.676   3.406  0.1440 -0.2307 -0.2023
  439W        W 4639   7.124   3.298   2.963  0.0969 -0.1248  0.1407
  440W        W 4640   9.769   7.915   4.864 -0.2285 -0.2117  0.1738
  441W        W 4641   9.171   0.699  12.702  0.1090 -0.2023  0.0222
  442W        W 4642   3.008   8.665  10.360 -0.0337  0.0637  0.1933
  443W        W 4643   2.845   0.044   1.310  0.1853 -0.1350 -0.1960
  444W        W 4644   1.316  10.372   0.428 -0.0777 -0.1511 -0.0479
  445W        W 4645   5.119   6.353   2.585  0.0277  0.1358 -0.0413
  446W        W 4646   1.834   5.823   2.434  0.2425 -0.1362  0.0627
  447W        W 4647   1.446   6.885   1.734 -0.1007  0.2025 -0.0449
  448W        W 4648   8.691   6.304   3.855  0.2267 -0.0091  0.3578
  449W        W 4649   4.333   9.103   1.407 -0.2224  0.1117  0.0501
  450W        W 4650   2.317   9.212   9.233 -0.2680 -0.1974  0.1152
  451W        W 4651   9.205   3.804  12.462  0.2352 -0.2847  0.1335
  452W        W 4652   9.994   4.068   9.275  0.1935 -0.0484  0.1730
  453W        W 4653   8.966   2.859   3.184 -0.2985 -0.0209 -0.3113
  454W        W 4654   6.678   9.401   1.850  0.1064  0.1753  0.0335
  455W        W 4655  10.044   9.442   9.757  0.2835  0.1536 -0.1461
  456W        W 4656   4.408   0.660   2.575  0.1077 -0.1996  0.0452
  457W        W 4657   8.537   9.914   3.280 -0.1098 -0.1554  0.2570
  458W        W 4658   5.307   0.322  13.221 -0.3015  0.1662  0.1980
  459W        W 4659   9.269   7.529   1.541  0.2262 -0.0777  0.0262
  460W        W 4660  10.000   0.155  11.057  0.0433  0.2607 -0.1608
  461W        W 4661   9.814   2.163   5.310  0.0072  0.1038 -0.0508
  462W        W 4662   3.139   5.093   1.295  0.1648  0.2187 -0.1173
  463W        W 4663   4.316   4.464   3.296 -0.0821 -0.0953  0.2144
  464W        W 4664  10.337   6.685  12.210 -0.1540 -0.0696  0.4685
  465W        W 4665   4.850   6.233  12.132 -0.0972  0.0838 -0.1665
  466W        W 4666   1.861   0.793   1.014  0.0122  0.0184 -0.2604
  467W        W 4667   1.216   3.410  10.721 -0.0096  0.0771 -0.1459
  468W        W 4668   6.981   7.458  12.641 -0.2248 -0.0006 -0.4725
  469W        W 4669   9.222   1.289   3.989  0.0904 -0.1412  0.0532
  470W        W 4670   4.431   0.050   9.575  0.0434 -0.1194  0.1759
  471W        W 4671   0.166   8.671  10.985  0.0133 -0.0785  0.0974
  472W        W 4672   4.079   1.998  11.455 -0.0119  0.0996  0.2418
  473W        W 4673   3.886   9.800   0.152 -0.1306 -0.0938  0.1775
  474W        W 4674   8.194   0.784   4.370 -0.4352 -0.0500 -0.2726
  475W        W 4675   7.121   6.123  12.912  0.0137  0.0076 -0.1161
  476W        W 4676   9.147   3.040   1.438  0.0820  0.2420  0.0325
  477W        W 4677   6.968   0.141   1.891  0.0012 -0.0366 -0.4471
  478W        W 4678   0.998   3.798  12.153  0.2017  0.1527 -0.0371
  479W        W 4679   2.642   3.014   2.500 -0.0098 -0.0267  0.0186
  480W        W 4680   7.326   1.937   1.605  0.0463 -0.0030  0.4072
  481W        W 4681   1.723   9.533   9.136  0.1414 -0.0050  0.1589
  482W        W 4682   6.313   3.362   8.275  0.0477  0.0504 -0.3871
  483W        W 4683   5.613   6.793  11.374 -0.1918  0.4789  0.1489
  484W        W 4684   8.600   8.094   4.521  0.0836 -0.0985 -0.0648
  485W        W 4685   6.655   5.184   0.898  0.1653  0.3849  0.0108
  486W        W 4686   6.472   4.417  12.067 -0.0565 -0.1595  0.1585
  487W        W 4687   9.624   0.687   2.627  0.1287 -0.0450  0.0598
  488W        W 4688   7.592   0.271   2.875  0.1472 -0.1524 -0.1390
  489W        W 4689   3.383   6.227  12.711 -0.2813  0.3609  0.0332
  490W        W 4690   9.546   9.210  11.737 -0.0193 -0.0159  0.4715
  491W        W 4691   0.994   9.989   9.596 -0.2217  0.0758  0.2998
  492W        W 4692   2.532   8.342   9.786  0.0262  0.1453  0.0128
  493W        W 4693   7.012   9.487  12.684 -0.1248 -0.2094 -0.1008
  494W        W 4694   0.002   9.756   3.947  0.0608 -0.3854  0.2359
  495W        W 4695   7.494   0.505   0.355 -0.0258  0.0128 -0.2668
  496W        W 4696   1.534   9.468   3.705 -0.3865 -0.2726  0.1696
  497W        W 4697   6.287   0.378   3.230  0.0233  0.0470  0.0916
  498W        W 4698   2.498  10.081   4.420  0.0459 -0.1391  0.0687
  499W        W 4699   3.098   8.933   3.851  0.1380 -0.0615 -0.1422
  500W        W 4700   5.430   6.267   1.975  0.2138  0.0810 -0.0292
  501W        W 4701   2.637   2.081   4.335 -0.0585  0.0507 -0.0595
  502W        W 4702  10.110   1.555  10.417 -0.1622 -0.0099  0.1052
  503W        W 4703   5.204   1.554   9.409 -0.0305 -0.3201 -0.0533
  504W        W 4704   1.934   8.243   1.777 -0.5833  0.1222 -0.0214
  505W        W 4705   1.914   7.223   2.414 -0.1004 -0.2137  0.3220
  506W        W 4706   0.888   6.677   2.519 -0.2475 -0.1198  0.0994
  507W        W 4707  10.311   7.094   9.738  0.2161 -0.1210 -0.2042
  508W        W 4708   8.185   7.658   1.741  0.0310 -0.4110 -0.1230
  509W        W 4709   6.735   5.002   2.236  0.1866  0.0761 -0.0032
  510W        W 4710   2.983   4.776  11.136 -0.0811 -0.0699  0.1574
  511W        W 4711   1.904   3.442   1.223  0.0280 -0.0422  0.3022
  512W        W 4712   1.368   0.871  10.147  0.0532  0.0176  0.1376
  513W        W 4713   2.477   9.186   0.232  0.0147  0.0979 -0.0926
  514W        W 4714   8.570   4.201   1.003  0.0025 -0.0149 -0.2654
  515W        W 4715   5.443   6.125  10.849 -0.0014  0.1001 -0.1427
  516W        W 4716   2.156   3.804   0.945  0.1557  0.0223  0.0085
  517W        W 4717   9.397   5.393   1.064 -0.0172  0.1761  0.2642
  518W        W 4718   4.317   2.073   4.061 -0.1667  0.0477  0.2821
  519W        W 4719   0.755   2.764   9.630  0.0981 -0.0411  0.2388
  520W        W 4720   1.196   4.067   2.536 -0.0935 -0.2387 -0.2221
  521W        W 4721   0.038   5.773   9.861 -0.2805 -0.0304  0.0198
  522W        W 4722   2.896   0.598   2.952  0.0733  0.2295  0.3322
  523W        W 4723   3.940   6.840   2.863 -0.0061 -0.0916  0.1862
  524W        W 4724   3.626   0.273  11.665 -0.0741  0.2685  0.2876
  525W        W 4725   9.109   6.139   3.561  0.0622 -0.2626  0.0186
  526W        W 4726   2.521   4.011   9.852  0.3865  0.0125 -0.0547
  527W        W 4727   0.830   0.123   1.584 -0.0315  0.3775  0.0278
  528W        W 4728   7.440   6.178   8.429 -0.0350  0.1630  0.0059
  529W        W 4729   0.830   5.873   9.227  0.3069  0.0564 -0.1598
  530W        W 4730   5.629   9.541  12.948  0.1244  0.6037 -0.2054
  531W        W 4731   4.637   1.830  11.386 -0.0224 -0.2949  0.1134
  532W        W 4732   1.596   3.200   0.476 -0.1481 -0.2253 -0.2330
  533W        W 4733   6.074   8.046  10.028  0.0556  0.1301 -0.1716
  534W        W 4734   8.526   4.649   4.009  0.0779 -0.1594 -0.1345
  535W        W 4735   7.543   0.648   2.533 -0.2044  0.0499  0.4137
  536W        W 4736   2.829   2.111   2.780  0.0544 -0.1608  0.0017
  537W        W 4737   1.022   2.281  10.353 -0.4926 -0.1417  0.1786
  538W        W 4738   7.000   4.608   1.397  0.1422 -0.0166  0.0089
  539W        W 4739   8.110   3.267  10.041 -0.1070  0.4263  0.1460
  540W        W 4740   8.303   2.801  12.411  0.0913  0.3102 -0.0477
  541W        W 4741   1.268   8.498  11.393  0.0718  0.4092 -0.4065
  542W        W 4742   4.627  10.452   0.415  0.3143 -0.0442 -0.1723
  543W        W 4743   2.741   6.788  11.239 -0.1713 -0.1225  0.2654
  544W        W 4744   2.698   9.389  11.876 -0.2503 -0.0051 -0.2254
  545W        W 4745   7.359   4.526   2.225  0.3231  0.2126  0.0243
  546W        W 4746   9.967   3.629   2.098  0.1744 -0.2976 -0.0851
  547W        W 4747   3.963   2.477   3.272 -0.1218  0.1378 -0.2135
  548W        W 4748   2.646   5.584   2.354  0.2255  0.1914  0.1826
  549W        W 4749   8.224  10.480   2.517  0.1725 -0.2313  0.0860
  550W        W 4750   9.022   7.251   5.038 -0.1816 -0.1761  0.0051
  551W        W 4751   8.673   1.964   2.315  0.1636 -0.0824  0.2216
  552W        W 4752   6.611  10.353   2.067 -0.0924 -0.2764  0.3471
  553W        W 4753   9.517   0.153  11.152  0.1831  0.1827 -0.0228
  554W        W 4754   3.848   3.980   9.052 -0.1149  0.0483  0.2407
  555W        W 4755   7.401   0.546   9.201 -0.0791 -0.1952  0.0597
  556W        W 4756   1.821   4.269   0.882 -0.1390 -0.0188 -0.0593
  557W        W 4757   3.201   3.001  13.024 -0.1924 -0.0557  0.1324
  558W        W 4758   3.673   5.974   1.241 -0.0252  0.1244  0.0130
  559W        W 4759   2.681   6.652  12.679  0.1615  0.1689 -0.1468
  560W        W 4760   6.937   4.540   9.596 -0.1804 -0.2452  0.0145
  561W        W 4761   1.057   4.611  12.629 -0.0929 -0.0218 -0.1962
  562W        W 4762   2.245   1.201  10.857 -0.1356  0.2847  0.0216
  563W        W 4763   2.039   6.711   0.542 -0.1727 -0.1788 -0.0918
  564W        W 4764   6.047   2.895   3.338 -0.0877 -0.3067  0.0848
  565W        W 4765   0.468   8.234   0.235 -0.0488 -0.0653 -0.0154
  566W        W 4766   3.252   5.765  10.853  0.2006  0.1633 -0.3730
  567W        W 4767   5.129   3.307  12.241  0.1442 -0.0375 -0.1610
  568W        W 4768   4.802   6.491   2.956 -0.0342  0.3474 -0.0467
  569W        W 4769   3.439   0.262   8.792 -0.2800 -0.0327 -0.3430
  570W        W 4770   5.661   2.256   4.652 -0.2155  0.0859 -0.0405
  571W        W 4771   2.492   5.539  11.903 -0.0228  0.1920 -0.0508
  572W        W 4772   9.096   7.893  12.933  0.1695  0.0921  0.3214
  573W        W 4773   1.315   9.576   0.799 -0.0104  0.1441  0.4435
  574W        W 4774   3.747   8.815   0.152 -0.0124 -0.3811 -0.2274
  575W        W 4775   8.054   0.177   2.945 -0.0027 -0.0882  0.1307
  576W        W 4776   6.184   6.546  10.590  0.1000  0.1082 -0.1279
  577W        W 4777   9.120   5.285   1.526  0.0478 -0.3939 -0.1840
  578W        W 4778   0.419   4.785   9.657 -0.2854  0.0670  0.1786
  579W        W 4779  10.386   0.985   0.740 -0.2803  0.4059 -0.3228
  580W        W 4780   2.371   1.947   3.072  0.2041 -0.2946 -0.1266
  581W        W 4781   3.711  10.006   3.408  0.0090 -0.6165  0.4153
  582W        W 4782   0.075   0.285   9.623  0.1722 -0.0153 -0.0008
  583W        W 4783   3.143   0.848   0.670 -0.2681  0.0248 -0.2215
  584W        W 4784   8.216   0.866   1.234  0.0715  0.2773 -0.2425
  585W        W 4785   6.005   7.501  11.613 -0.2951  0.1510 -0.0252
  586W        W 4786   1.249   1.115   4.627 -0.0945  0.0296  0.1017
  587W        W 4787   5.373   7.820  13.014  0.2009  0.1957 -0.1754
  588W        W 4788   2.084   4.734   3.435 -0.1371 -0.2858 -0.3968
  589W        W 4789   4.318   5.720   4.184 -0.1831  0.0949  0.0921
  590W        W 4790   9.913   9.828  12.263 -0.0262 -0.0008  0.1059
  591W        W 4791   1.736   6.768  13.108  0.2746  0.1901 -0.2260
  592W        W 4792   9.715   5.487  10.685 -0.1242  0.1151  0.1051
  593W        W 4793   1.619   4.950   3.650 -0.1390  0.0847 -0.1753
  594W        W 4794   0.230  10.039  10.154 -0.1079 -0.1267 -0.0627
  595W        W 4795   6.484   7.974  12.193  0.1196 -0.2509 -0.0364
  596W        W 4796   1.434   3.948   1.680  0.0373 -0.1753  0.2178
  597W        W 4797   3.448   4.443   9.108 -0.1377  0.0515 -0.1757
  598W        W 4798  10.037  10.311   3.979 -0.0508  0.0066  0.3588
  599W        W 4799   8.512   9.253   1.458 -0.0912 -0.0190 -0.1184
  600W        W 4800   3.419   9.862  10.832  0.0461  0.1786 -0.1342
  601W        W 4801   1.234   3.840  10.387  0.1939 -0.2587  0.2285
  602W        W 4802   6.722   0.145  10.332 -0.0964  0.0073  0.1284
  603W        W 4803   9.869   4.277  12.013 -0.0875  0.1399 -0.2929
  604W        W 4804   2.631   4.411  10.229 -0.1054 -0.1016 -0.0337
  605W        W 4805   1.034   5.581   4.512 -0.4387 -0.0446 -0.1018
  606W        W 4806  10.197   9.981   0.701  0.0139 -0.2611  0.0322
  607W        W 4807   2.130   1.618  10.582  0.0280  0.0546 -0.0650
  608W        W 4808   3.622   0.851   3.372 -0.1521 -0.1897  0.0034
  609W        W 4809   9.024   9.001   2.298 -0.3271  0.0411  0.0440
  610W        W 4810   4.735   4.134  10.686  0.3062 -0.0775 -0.2545
  611W        W 4811   2.176   1.494  12.995 -0.0549  0.1123  0.0389
  612W        W 4812   3.116   2.369   2.376 -0.0531 -0.0234  0.0927
  613W        W 4813  10.425   2.618   9.548 -0.2654 -0.0731 -0.1270
  614W        W 4814   8.938   8.703   3.336 -0.0545 -0.2061 -0.0157
  615W        W 4815   3.733   5.485   4.632 -0.2902 -0.0639 -0.0499
  616W        W 4816   7.260   6.164   4.798 -0.0622 -0.1348 -0.0270
  617W        W 4817   2.449   2.407   5.114  0.1591 -0.0118  0.3512
  618W        W 4818   8.458   9.056  10.000  0.3001  0.0194 -0.1231
  619W        W 4819   7.477   9.681  11.538 -0.0417  0.2212  0.0248
  620W        W 4820   3.278   1.035   0.178  0.1123 -0.2205 -0.1615
  621W        W 4821   2.623   0.559  11.524 -0.1757 -0.1923  0.4238
  622W        W 4822   6.315   4.032   9.522  0.0765  0.1472 -0.3522
  623W        W 4823   8.449   3.842   2.448  0.0047  0.2050 -0.0384
  624W        W 4824   3.494   5.543  12.936 -0.1800  0.1522 -0.2559
  625W        W 4825   3.048   0.010  10.817  0.3926  0.1438 -0.0032
  626W        W 4826   0.250   6.856  11.276 -0.2894  0.0021  0.1023
  627W        W 4827   1.529   2.709   1.748 -0.1575 -0.0848  0.1039
  628W        W 4828   4.486   2.409   5.151 -0.2447 -0.1691 -0.1567
  629W        W 4829   0.893   3.797   2.216  0.1819 -0.2205  0.1253
  630W        W 4830   6.106   9.106  11.986 -0.0276 -0.2212  0.4355
  631W        W 4831   6.356   6.150  11.460  0.1444 -0.0033 -0.0258
  632W        W 4832   6.218   8.209  10.823  0.0034  0.0723  0.2425
  633W        W 4833   6.519   5.537  12.494 -0.1211  0.1272  0.1011
  634W        W 4834   7.134   6.432   2.459 -0.0079 -0.4745 -0.1867
  635W        W 4835   7.316   6.034   3.943 -0.0675 -0.0263 -0.1200
  636W        W 4836   1.646   4.782   1.000  0.0809  0.1294 -0.0531
  637W        W 4837   1.526   0.405   1.812  0.1698  0.1312 -0.0702
  638W        W 4838   0.182   4.102  10.253 -0.1901 -0.0763  0.0532
  639W        W 4839   2.232   2.527   9.502 -0.0675 -0.2482 -0.0898
  640W        W 4840   1.760   2.759  11.374 -0.1775  0.1353  0.0657
  641W        W 4841   1.103   7.426  12.419 -0.2023 -0.1682  0.1751
  642W        W 4842   0.528   8.818   9.025 -0.0024  0.2617  0.1006
  643W        W 4843   4.819   4.925   3.182  0.3080 -0.0340  0.3073
  644W        W 4844   6.557   5.559  12.958  0.3486 -0.1414  0.0317
  645W        W 4845   7.111   6.237   3.421 -0.0341  0.0526 -0.2113
  646W        W 4846   1.056   6.774   9.297  0.1121  0.1519 -0.2189
  647W        W 4847   1.656   1.103   9.449 -0.2439 -0.1440 -0.0835
  648W        W 4848  10.501   6.526  12.701 -0.3550 -0.0114  0.0322
  649W        W 4849   3.683   2.219   8.466  0.0465 -0.1457 -0.0048
  650W        W 4850  10.200   3.436  13.291 -0.2731 -0.1014 -0.3478
  651W        W 4851   6.352   4.756  12.411 -0.4032  0.1018  0.1156
  652W        W 4852   9.198   8.009  12.260  0.1728  0.0919  0.1039
  653W        W 4853   7.659   3.607  10.798  0.1336 -0.1449  0.1535
  654W        W 4854   0.928   6.616   3.010  0.3420 -0.1948 -0.2272
  655W        W 4855  10.385   2.042   4.398 -0.0643  0.1827 -0.2952
  656W        W 4856   7.206   6.750   9.440  0.1232  0.1504 -0.1907
  657W        W 4857   2.118   1.663  10.017  0.0900  0.0695 -0.0068
  658W        W 4858   9.577   7.820   0.276  0.3374 -0.1296 -0.0145
  659W        W 4859   6.022   1.958   3.278  0.1457 -0.1146  0.1158
  660W        W 4860   6.731   1.430  12.741  0.2389  0.1538 -0.2583
  661W        W 4861   4.282   5.895  10.761  0.0585 -0.3541 -0.0924
  662W        W 4862   0.564   6.880   0.226 -0.1175  0.2486 -0.0677
  663W        W 4863   2.148   3.627   8.431 -0.2461 -0.1123 -0.0587
  664W        W 4864   8.932   3.097   1.902  0.0660 -0.0497 -0.0273
  665W        W 4865   1.296   4.363  12.038 -0.2828  0.3516 -0.1123
  666W        W 4866   6.455   2.016  11.915  0.1806 -0.0934  0.1896
  667W        W 4867   8.639   2.342   1.993 -0.0483 -0.2176 -0.0683
  668W        W 4868   6.405   1.620  10.878  0.2760  0.5642  0.4736
  669W        W 4869   6.979   3.131   1.290  0.1463 -0.0908 -0.1762
  670W        W 4870   6.970   0.054  10.781 -0.0923 -0.0680  0.0757
  671W        W 4871   2.007   6.559   3.120 -0.2955  0.0686 -0.1228
  672W        W 4872   9.643   8.571  13.134 -0.1862 -0.3658 -0.1531
  673W        W 4873   6.584   7.879  11.698 -0.1855 -0.0717 -0.1233
  674W        W 4874   3.654   3.166   9.314 -0.2113  0.1907  0.0315
  675W        W 4875   5.006   1.610   0.381  0.1978  0.1803  0.2457
  676W        W 4876   4.919   9.929  12.631  0.2925  0.0832 -0.3778
  677W        W 4877  10.293   1.234  10.008  0.1629 -0.0089  0.2716
  678W        W 4878   9.357   1.205   0.368  0.1703 -0.0627  0.0955
  679W        W 4879   0.481  10.186  12.551 -0.3191  0.0610  0.2488
  680W        W 4880   2.524   5.727   3.611  0.3509 -0.0943 -0.1755
  681W        W 4881   6.619   0.360  12.650  0.0125  0.4557 -0.2521
  682W        W 4882  10.001   6.092  11.554 -0.1220 -0.3808 -0.1199
  683W        W 4883   6.575   0.226   2.755 -0.0042 -0.1931 -0.0947
  684W        W 4884   4.339   2.075  10.989  0.0452  0.1787 -0.0014
  685W        W 4885   1.541  10.436   1.987 -0.0161 -0.0728 -0.0257
  686W        W 4886   2.807   3.098   3.980 -0.0634 -0.2504  0.4517
  687W        W 4887   7.506   4.905   1.342 -0.0918  0.0057 -0.1036
  688W        W 4888   7.031   5.545   0.854 -0.1264 -0.0695 -0.1367
  689W        W 4889  10.247   1.284   1.213  0.1098 -0.0363 -0.2585
  690W        W 4890   0.844   7.477  10.739  0.1330 -0.4516  0.2629
  691W        W 4891   5.344   1.966   0.600  0.3853  0.0062  0.3836
  692W        W 4892   8.192   2.594   2.211 -0.1938  0.0392  0.1741
  693W        W 4893   2.624   8.780  10.671  0.1568  0.1434  0.1012
  694W        W 4894   6.398   2.566   8.352  0.1055 -0.0197  0.0651
  695W        W 4895   4.848   0.413  10.724 -0.0778 -0.0452  0.0681
  696W        W 4896   8.691   0.327  10.219 -0.1156 -0.0062 -0.1412
  697W        W 4897   7.655   1.390   1.491  0.0360 -0.0129 -0.0915
  698W        W 4898   4.178   3.345   5.356 -0.0651 -0.1142 -0.0860
  699W        W 4899   2.569   6.410   3.411 -0.0438  0.1673 -0.3289
  700W        W 4900   2.595   9.022  10.104  0.4227  0.1528 -0.2203
  701W        W 4901   6.968   6.300   9.546  0.0548 -0.1391  0.2271
  702W        W 4902   6.936   4.271  12.848  0.2458  0.0173 -0.1220
  703W        W 4903   9.557  10.353  12.261  0.4765  0.0788  0.0123
  704W        W 4904   4.964   3.622   9.627 -0.0032  0.2511  0.2631
  705W        W 4905   8.384   3.851  11.244  0.0707  0.0760 -0.0962
  706W        W 4906   3.062   7.602  11.420  0.0559  0.0655  0.0346
  707W        W 4907   7.742   3.820  12.085  0.1153 -0.2019  0.0968
  708W        W 4908   8.101   6.054   0.102  0.2826 -0.0845  0.1794
  709W        W 4909   0.215   8.174  12.353 -0.1084 -0.1400 -0.1046
  710W        W 4910   5.233   2.154   4.369  0.1691 -0.0487 -0.0908
  711W        W 4911   5.750   4.029  13.363  0.2061 -0.1443  0.0665
  712W        W 4912   0.592   0.173  13.027  0.3014  0.0302  0.0691
  713W        W 4913   4.928   1.569  11.740 -0.5404 -0.0159  0.2860
  714W        W 4914   9.812   1.142   2.675  0.0665 -0.1554  0.0668
  715W        W 4915   3.682   4.824  11.707  0.0941 -0.1538  0.1619
  716W        W 4916   8.825   2.698   1.590 -0.1667  0.1490  0.1106
  717W        W 4917   8.613   8.157   1.381  0.1219  0.0270  0.0697
  718W        W 4918   4.499   4.771   4.541  0.0808  0.0332  0.1941
  719W        W 4919  10.280   6.171   3.723  0.1482  0.1656  0.0373
  720W        W 4920   8.328   9.745   3.770 -0.0570  0.1630  0.0926
  721W        W 4921   3.004   4.238   9.385 -0.3011 -0.1147  0.0169
  722W        W 4922   6.347   3.380   4.612 -0.1262 -0.1560 -0.0930
  723W        W 4923   6.192   4.264  13.252  0.0101 -0.0922 -0.0526
  724W        W 4924   4.383   9.023   0.099  0.0886 -0.1411 -0.1259
  725W        W 4925   9.015   8.498   1.230 -0.0405 -0.0005 -0.2175
  726W        W 4926   7.685   4.161  10.723  0.0134 -0.2928 -0.2940
  727W        W 4927   7.348   0.721   3.064 -0.3579  0.0963  0.0198
  728W        W 4928   0.438   8.186  10.912 -0.0114 -0.2087 -0.2607
  729W        W 4929   4.808   2.881  12.235  0.0123  0.1728 -0.1992
  730W        W 4930   9.900   1.912   4.362 -0.0205  0.2180  0.0038
  731W        W 4931   9.499   4.278  12.397 -0.0078 -0.0049  0.1466
  732W        W 4932  10.388   9.982  10.514  0.0169  0.0497 -0.0691
  733W        W 4933  10.350   0.061   4.253  0.0411 -0.0762 -0.2842
  734W        W 4934   9.742  10.222  11.261 -0.2683 -0.2072 -0.0103
  735W        W 4935   5.316   5.544   1.329 -0.4121 -0.0339 -0.0637
  736W        W 4936   2.733   4.573   2.374 -0.1196 -0.3149  0.1806
  737W        W 4937   8.084   6.852   4.215 -0.1086  0.2584 -0.0961
  738W        W 4938   1.096   7.894  10.767  0.1946 -0.0850 -0.0108
  739W        W 4939   1.264   1.349   9.841 -0.1152 -0.0799 -0.1588
  740W        W 4940   8.900   0.982   9.906  0.1090  0.0204 -0.2692
  741W        W 4941   3.876   9.735   9.311  0.1269  0.1514 -0.3337
  742W        W 4942  10.040   6.285   3.122  0.0472  0.1527 -0.3602
  743W        W 4943   0.391   9.569  11.569  0.2049  0.0494  0.0035
  744W        W 4944   7.721   2.679   1.620  0.2796 -0.2391  0.0239
  745W        W 4945   8.890   4.652   8.583 -0.1660 -0.0224  0.0244
  746W        W 4946   7.144   5.609  11.564  0.1944 -0.4825 -0.2971
  747W        W 4947   4.474   9.265  10.498  0.0269 -0.4337 -0.1293
  748W        W 4948   3.817   4.592   3.441 -0.2729 -0.0121  0.1128
  749W        W 4949   3.353   0.571   0.998  0.0159  0.1415  0.0027
  750W        W 4950   9.642   5.913   3.537  0.1237  0.0550  0.0415
  751W        W 4951   1.184   1.993   1.886 -0.2116 -0.0575 -0.0979
  752W        W 4952   4.856   4.891  10.152  0.3185 -0.1313  0.3531
  753W        W 4953   4.761   5.779  10.793 -0.0828 -0.1132  0.0104
  754W        W 4954  10.466   9.087  10.697  0.0344 -0.0571 -0.1564
  755W        W 4955   7.265   6.392   1.971 -0.0378 -0.0820  0.2227
  756W        W 4956   7.196   2.982   0.311 -0.1813 -0.0360 -0.1011
  757W        W 4957   9.712   1.116  11.909 -0.0086  0.2098 -0.0142
  758W        W 4958   1.929   0.272   0.825 -0.1418  0.2232  0.1874
  759W        W 4959  10.002   7.325   4.176  0.2957 -0.3051  0.0107
  760W        W 4960   9.245   2.119  13.288 -0.0518 -0.1822 -0.0864
  761W        W 4961   8.038   3.007  10.540  0.2847  0.2184  0.2187
  762W        W 4962  10.031   4.445   1.216 -0.0433  0.0241  0.1314
  763W        W 4963   4.006   9.586  13.011 -0.2132  0.3817 -0.0166
  764W        W 4964   3.655  10.255  10.067  0.0424 -0.3446  0.3409
  765W        W 4965   1.816   5.649   3.460  0.5506  0.2649  0.4140
  766W        W 4966   1.836   9.872  13.268  0.0398  0.0869  0.0950
  767W        W 4967   8.413   1.329   3.233 -0.0094  0.0119  0.1328
  768W        W 4968   9.052   4.404   1.811  0.3204  0.2261 -0.2367
  769W        W 4969   0.019   1.355   1.658  0.0675 -0.2171 -0.0620
  770W        W 4970   3.012   4.002   0.723 -0.0872 -0.1918  0.0750
  771W        W 4971   6.827   1.966   2.306 -0.2776  0.0994  0.0053
  772W        W 4972   6.213   5.152  11.333 -0.1372  0.0010  0.0230
  773W        W 4973   5.721   7.024   2.839 -0.0079  0.0550  0.1269
  774W        W 4974   7.655   9.935  13.041 -0.1265 -0.1353  0.0247
  775W        W 4975   3.621   5.284  12.526 -0.0279  0.2268  0.0410
  776W        W 4976   9.902   7.429   1.298  0.1355  0.3947 -0.0547
  777W        W 4977   9.448   0.991   9.769  0.1615  0.1594  0.0335
  778W        W 4978   1.670  10.329   2.904  0.2154  0.2596  0.3287
  779W        W 4979   1.472   6.516  12.528 -0.2975  0.0831  0.0487
  780W        W 4980   7.024   2.410   9.305 -0.1012  0.0785  0.0182
  781W        W 4981  10.409   1.258  11.319  0.1166  0.0088 -0.1579
  782W        W 4982   9.914   7.896  11.466  0.0402 -0.1794  0.1100
  783W        W 4983   1.422   2.415   4.333  0.1745  0.0478 -0.0816
  784W        W 4984   8.850   1.726  10.831 -0.0444  0.2116  0.1396
  785W        W 4985   6.509   0.782   1.369  0.0026 -0.3136  0.1293
  786W        W 4986   6.899   3.776   0.192 -0.0356  0.1250 -0.2352
  787W        W 4987   8.961   1.184  11.294  0.1974  0.0459  0.1280
  788W        W 4988   1.496   0.965   4.032  0.0292  0.1605 -0.0813
  789W        W 4989   6.101   4.013   2.462  0.2132 -0.0125  0.0237
  790W        W 4990   2.684   0.262   0.066 -0.0325  0.2028  0.0082
  791W        W 4991  10.129   4.961   2.865 -0.0281  0.0370 -0.2626
  792W        W 4992   3.678   1.286   2.692 -0.1857  0.2589 -0.1343
  793W        W 4993   1.269   5.190   0.909  0.2478 -0.3948  0.2022
  794W        W 4994   9.516   8.698   0.562 -0.1474 -0.0117  0.1221
  795W        W 4995   9.517   4.503   1.257 -0.2553 -0.0219 -0.0405
  796W        W 4996   1.861   0.881   4.518  0.1469  0.1840  0.0936
  797W        W 4997   5.266   9.297   1.448 -0.2687 -0.1886 -0.1637
  798W        W 4998   4.677   0.504  12.448 -0.0222  0.1971  0.1918
  799W        W 4999   4.564   8.864   1.748 -0.3034  0.0119 -0.0854
  800W        W 5000   1.546   8.403   2.885  0.1058 -0.2516 -0.2441
  801W        W 5001   5.258   4.709  11.343  0.1259  0.1214 -0.2003
  802W        W 5002   0.602   5.983  13.334  0.0482 -0.0999 -0.0049
  803W        W 5003   6.446   2.579  10.515  0.2972 -0.2565 -0.0225
  804W        W 5004   2.350   2.096   9.323  0.0802  0.2059 -0.1385
  805W        W 5005   2.602   7.758   2.374  0.0459  0.1079 -0.1889
  806W        W 5006   3.553   8.808   0.589  0.1981  0.1840  0.1579
  807W        W 5007   9.066   1.290   1.616  0.0126  0.0219 -0.2369
  808W        W 5008   0.136   8.829   1.631 -0.4376 -0.2024  0.0438
  809W        W 5009   5.407   7.824   0.158  0.3993 -0.1356 -0.3736
  810W        W 5010   0.758   6.618   9.685  0.0506 -0.0798  0.1451
  811W        W 5011   6.151   3.747  13.328  0.0382  0.2497  0.0782
  812W        W 5012   3.264   5.962  13.089  0.2307 -0.0410  0.1736
  813W        W 5013   3.239   8.559   0.196  0.0054  0.1445 -0.0175
  814W        W 5014   9.411   1.567   3.581 -0.2676  0.1934  0.2525
  815W        W 5015   4.114  10.275   0.294  0.1780  0.2031 -0.1213
  816W        W 5016   0.665   4.559   9.209  0.0865  0.1952  0.0478
  817W        W 5017   4.696   2.767  10.088 -0.2120  0.0557  0.0982
  818W        W 5018   5.394   3.778   1.853 -0.1177 -0.2620 -0.0964
  819W        W 5019   4.602   2.925   3.381 -0.2641 -0.1055  0.0535
  820W        W 5020   7.201   5.974   9.879 -0.1121  0.2030 -0.2567
  821W        W 5021   5.897   3.664   0.371  0.4985 -0.1825  0.0986
  822W        W 5022   7.610   4.547   3.783 -0.0683 -0.1216  0.0756
  823W        W 5023   3.309   2.212   0.002  0.3742  0.1530 -0.0473
  824W        W 5024   3.981   2.903   5.082  0.0238  0.0877  0.4548
  825W        W 5025   9.933   5.774   1.818 -0.0970  0.0624 -0.1114
  826W        W 5026  10.146   2.260  10.485 -0.0782  0.0964 -0.0759
  827W        W 5027   8.835   4.509   4.421  0.0421 -0.0683  0.1445
  828W        W 5028   3.579   3.812  10.308  0.1772 -0.1488 -0.2344
  829W        W 5029   8.125   1.978   0.722 -0.1104 -0.1062  0.1037
  830W        W 5030   8.256   2.041  10.593 -0.0410 -0.0954 -0.0285
  831W        W 5031   1.500   7.794   9.077  0.1082 -0.1346 -0.1646
  832W        W 5032   0.439   7.219   8.997  0.2373  0.0897  0.0958
  833W        W 5033   9.420   4.969  13.236  0.1233 -0.0513 -0.2176
  834W        W 5034   7.770   0.718  11.651  0.2923  0.0355  0.0770
  835W        W 5035   8.362   6.480  11.021 -0.0475 -0.4064 -0.0290
  836W        W 5036   5.468   3.893  11.251 -0.0774 -0.1744  0.2673
  837W        W 5037   5.317   3.161   1.828 -0.2681  0.1032 -0.0983
  838W        W 5038   2.732   7.900   0.594 -0.5302 -0.1398 -0.0238
  839W        W 5039   2.001   9.540  10.584  0.0965 -0.2036 -0.0490
  840W        W 5040   9.794   0.546   4.359  0.0075  0.1674 -0.2385
  841W        W 5041   7.043   5.159   1.295 -0.0902  0.0915 -0.2673
  842W        W 5042   2.195   8.670   9.888  0.1664  0.0027  0.1173
  843W        W 5043   9.208   2.636  10.934  0.0436  0.1457  0.2254
  844W        W 5044   4.266   0.603   8.731  0.1170 -0.2409 -0.1068
  845W        W 5045   3.976   7.220   9.816  0.3233 -0.0987  0.0494
  846W        W 5046   8.034   1.924   8.720  0.0904 -0.2879 -0.0795
  847W        W 5047   0.833   3.064   4.307  0.2414  0.0397 -0.1267
  848W        W 5048   7.552  10.389  12.877  0.0282 -0.0709  0.0408
  849W        W 5049   0.336   5.921  11.120  0.1886 -0.1290  0.3575
  850W        W 5050   1.155   5.713  10.590 -0.2164  0.0198  0.0937
  851W        W 5051   8.138   7.797   3.118  0.0106 -0.1245  0.3671
  852W        W 5052   1.807   0.595  10.327  0.1086 -0.0218  0.0367
  853W        W 5053   7.451   6.002   2.426  0.0782  0.0868 -0.0798
  854W        W 5054   7.671   6.228  13.201  0.3529  0.3238 -0.1328
  855W        W 5055   7.774   2.258  13.339 -0.1824  0.1127  0.1760
  856W        W 5056   7.270   3.233  10.267 -0.1022  0.1275 -0.1615
  857W        W 5057  10.429   4.937  13.063  0.0283  0.4149  0.0777
  858W        W 5058   4.466   4.944   4.073  0.1039  0.6247  0.3718
  859W        W 5059   0.143   8.805   9.344 -0.0665 -0.0313 -0.1819
  860W        W 5060   9.496   8.184  12.746 -0.3830 -0.2986  0.0285
  861W        W 5061   4.546   2.468   0.629  0.0612  0.0602 -0.0276
  862W        W 5062   5.231   4.568   9.495  0.0606  0.1035 -0.0756
  863W        W 5063   3.926   3.418  11.111  0.0560  0.0761  0.1416
  864W        W 5064   5.386   7.126  10.551  0.1493  0.2652  0.0133
  865W        W 5065   2.058   6.414  10.321  0.3330  0.2115 -0.0280
  866W        W 5066   9.469   0.802  10.814  0.4860  0.1269  0.1868
  867W        W 5067   0.284   9.773  13.269  0.0599 -0.0322  0.1241
  868W        W 5068   0.805  10.089   2.580  0.0977 -0.0607 -0.0068
  869W        W 5069   2.161   6.724   1.088 -0.0729 -0.2570 -0.2917
  870W        W 5070   1.295   8.426  12.614 -0.0582  0.1695  0.0617
  871W        W 5071   9.677   0.241   2.250  0.0019  0.2756  0.5132
  872W        W 5072   8.907   8.706   3.842 -0.1162 -0.0951  0.0197
  873W        W 5073   1.761   8.801  11.442  0.0018  0.0252  0.4520
  874W        W 5074   8.148   4.705  11.357  0.2683  0.1553 -0.0528
  875W        W 5075   1.222   2.857   4.558  0.4487 -0.0941 -0.0222
  876W        W 5076   2.929   2.891  11.001  0.2882  0.0653 -0.3044
  877W        W 5077  10.401   4.486  12.161  0.0097 -0.0069  0.0335
  878W        W 5078   9.692   2.992  10.713 -0.0984  0.0033  0.1644
  879W        W 5079   2.976  10.243   0.886 -0.1449  0.0791 -0.1231
  880W        W 5080   8.648   3.171   1.411  0.2919  0.1380  0.2315
  881W        W 5081   3.689   1.584   0.663  0.0065  0.0059 -0.0587
  882W        W 5082   9.090   5.866   9.031  0.0421  0.1236 -0.1737
  883W        W 5083   9.180   3.329  12.534  0.1449 -0.1430 -0.1915
  884W        W 5084   7.690   6.436   0.315  0.1088  0.0920  0.1219
  885W        W 5085   4.047   1.673   9.551 -0.0213  0.3968  0.0017
  886W        W 5086   7.697  10.190   2.429  0.2010 -0.0355  0.4085
  887W        W 5087   9.180   6.494   3.888 -0.1636  0.0519 -0.1174
  888W        W 5088   7.584   7.292  10.086 -0.0014 -0.2458 -0.3042
  889W        W 5089   5.501   2.306   3.410 -0.0105 -0.0959 -0.1842
  890W        W 5090   0.574   8.776   2.973  0.1290 -0.1759  0.2168
  891W        W 5091   2.238   6.983   9.694 -0.4121  0.1568 -0.0230
  892W        W 5092   0.483   6.567   9.204 -0.0224 -0.1311 -0.0374
  893W        W 5093   4.170   2.493  10.735 -0.1293 -0.1487  0.1950
  894W        W 5094   1.279   6.518  12.960  0.1923  0.1476 -0.3035
  895W        W 5095   3.263   7.750   4.446  0.0949 -0.3349 -0.4297
  896W        W 5096   2.279   0.528   4.932 -0.1694  0.4562  0.1327
  897W        W 5097   4.247   1.124   3.523  0.0816 -0.1325 -0.0015
  898W        W 5098   5.935   5.830   0.789 -0.3526 -0.1976 -0.0750
  899W        W 5099   5.822   7.563   9.944 -0.0225  0.1249 -0.1622
  900W        W 5100   1.643   5.257   1.281  0.2475  0.2632 -0.1761
  901W        W 5101   8.394   5.964  11.827  0.3067  0.2492  0.0415
  902W        W 5102   4.585   4.334   2.064 -0.2485 -0.2125  0.0975
  903W        W 5103   8.174   7.875   1.246 -0.0821  0.2712  0.1028
  904W        W 5104   9.385   3.697   0.885  0.1947 -0.1385  0.1530
  905W        W 5105   4.187   5.100  11.821 -0.0649 -0.1429  0.0879
  906W        W 5106   9.377   8.590   4.024  0.2210 -0.0748  0.2000
  907W        W 5107   5.779   7.926  11.526  0.0719  0.1920  0.0543
  908W        W 5108   2.059   4.804   3.962 -0.1806  0.0732 -0.0311
  909W        W 5109   5.475   4.910   3.112  0.3553 -0.2562 -0.0579
  910W        W 5110   1.793   3.021   3.973 -0.0567  0.2542 -0.0973
  911W        W 5111   9.164  10.371  10.734 -0.1615  0.1041  0.1070
  912W        W 5112   0.171   5.424   3.410 -0.2074 -0.0929  0.2837
  913W        W 5113   4.009   4.221  13.304 -0.0669  0.2292 -0.0341
  914W        W 5114  10.394   5.795   3.025 -0.2508  0.2280  0.3660
  915W        W 5115   1.977   4.764   0.198  0.0826 -0.2480  0.0724
  916W        W 5116   3.194   8.128   0.532 -0.0953 -0.1499  0.0962
  917W        W 5117   8.844   5.699   3.832 -0.0966  0.2172  0.2152
  918W        W 5118   4.654   0.610  13.157 -0.0176 -0.0393  0.1144
  919W        W 5119   0.151   5.234   0.013  0.2273  0.2161 -0.1259
  920W        W 5120   2.830   4.071  10.575 -0.0277 -0.0310 -0.0959
  921W        W 5121   1.388   4.451   0.736 -0.0277  0.2486  0.2225
  922W        W 5122   2.054   7.153  10.881 -0.2008 -0.0397  0.0433
  923W        W 5123   5.303   6.714  10.930  0.2061  0.2845  0.1765
  924W        W 5124   1.674   1.793  12.927 -0.0486 -0.1949 -0.1917
  925W        W 5125   0.888   8.271  11.730 -0.1569 -0.1706 -0.0923
  926W        W 5126   0.053   4.577  10.019 -0.2393 -0.2785  0.1866
  927W        W 5127   8.117   2.462   9.085  0.0205 -0.1539 -0.0856
  928W        W 5128   0.755   5.017   2.000  0.3142  0.4640 -0.1623
  929W        W 5129  10.216   6.344   1.228  0.1422 -0.0371 -0.0628
  930W        W 5130   6.157   0.316   0.716  0.0775 -0.0948 -0.1767
  931W        W 5131   0.782   1.719   4.173  0.0360  0.0123  0.6482
  932W        W 5132  10.447   6.548   1.864  0.0199  0.0196  0.2560
  933W        W 5133   1.807   4.827  11.920  0.0449 -0.2013  0.6156
  934W        W 5134   8.637   6.825  12.334 -0.2244 -0.0335 -0.2465
  935W        W 5135   6.070   6.752  12.118  0.2928  0.0198  0.1824
  936W        W 5136   6.437   9.881   1.026  0.1053  0.0403 -0.1422
  937W        W 5137   6.905   6.981  12.609  0.2297 -0.0274 -0.1350
  938W        W 5138   0.320   1.101  11.638  0.1349  0.1658 -0.2193
  939W        W 5139   7.122   0.406  12.553  0.2309  0.1208  0.0649
  940W        W 5140   0.946   5.364  13.172 -0.1612  0.2993  0.0560
  941W        W 5141   0.457   4.973  10.734 -0.1186  0.1392 -0.2159
  942W        W 5142   6.789   2.870   9.258 -0.2289  0.0773 -0.2811
  943W        W 5143   3.943   3.684   2.999 -0.2104  0.1721 -0.0324
  944W        W 5144   5.547   5.062   1.489  0.0274 -0.0527  0.4416
  945W        W 5145   5.987   3.333   2.963  0.2452  0.2766 -0.0989
  946W        W 5146   1.866   6.238   2.082  0.0520  0.1309  0.1784
  947W        W 5147   8.994   5.915  11.236 -0.2612  0.0846  0.1872
  948W        W 5148   9.954   4.395   3.156  0.3420  0.1642 -0.1351
  949W        W 5149   4.651   8.175  12.363  0.0400 -0.1234 -0.3997
  950W        W 5150   9.141   0.969  11.739 -0.0857 -0.2016  0.1259
  951W        W 5151   1.975   6.159  12.292 -0.1480  0.1134 -0.0583
  952W        W 5152   6.391   1.842   4.495 -0.0189 -0.0391  0.0369
  953W        W 5153   8.757   8.090   9.981  0.2847  0.0865  0.2420
  954W        W 5154   7.671   5.127   8.282  0.1224 -0.2624  0.0753
  955W        W 5155   5.548   4.682  10.365  0.0306  0.0283  0.1233
  956W        W 5156   2.836   3.713   9.575 -0.1534 -0.3909  0.0136
  957W        W 5157   7.555   4.321  12.943  0.1375  0.0579 -0.3902
  958W        W 5158   2.866   2.454  10.094  0.0523 -0.1438  0.0313
  959W        W 5159   3.189   1.353   0.634 -0.1665  0.0200 -0.2614
  960W        W 5160   8.898   0.443   3.737  0.1290  0.0488 -0.2795
  961W        W 5161   0.139   5.900   3.501  0.1177 -0.4991  0.0417
  962W        W 5162   6.845   7.408  10.882 -0.2379 -0.2617  0.2775
  963W        W 5163   6.195   8.037   1.649 -0.1468  0.1425 -0.4588
  964W        W 5164   7.922   0.247  12.923  0.0653  0.2714 -0.0719
  965W        W 5165   9.915   4.978  13.208  0.1796  0.2114  0.1134
  966W        W 5166   1.298   4.588   9.411 -0.1647  0.0758  0.1689
  967W        W 5167   8.628   0.133   2.835  0.0535  0.0556 -0.3724
  968W        W 5168   9.217   7.948   2.084  0.0209  0.4584 -0.0144
  969W        W 5169   3.828   8.272   2.797 -0.2103 -0.1222  0.2340
  970W        W 5170   1.800   8.632   9.047 -0.1052 -0.1421  0.0113
  971W        W 5171   2.579   7.941   9.495  0.1233  0.1524 -0.1448
  972W        W 5172   8.097   1.085   0.810 -0.3120 -0.1929  0.0150
  973W        W 5173   0.828   1.727   2.068  0.1665 -0.0469 -0.2616
  974W        W 5174   4.369   0.296  10.818 -0.0768 -0.0220 -0.1365
  975W        W 5175   3.072   2.963   3.550 -0.3379 -0.1318 -0.1580
  976W        W 5176   3.271   2.032  10.752 -0.0423  0.0603  0.2198
  977W        W 5177   1.727   9.016   2.868  0.0976 -0.0891  0.2390
  978W        W 5178   1.121   1.293   4.173  0.0878 -0.0171  0.0931
  979W        W 5179   1.475   5.986   2.727  0.1220  0.2117  0.1564
  980W        W 5180   0.317   1.846   9.771 -0.0026 -0.3286 -0.0578
  981W        W 5181   0.062   7.835   2.822  0.0796  0.0023 -0.1145
  982W        W 5182   3.981   4.186   0.769 -0.1617 -0.1298  0.0423
  983W        W 5183   5.037   0.831  10.494 -0.0916  0.3464  0.0665
  984W        W 5184   2.324   5.971   2.470  0.2018 -0.1696  0.0038
  985W        W 5185   0.156   0.841   4.085  0.0890  0.1968 -0.0863
  986W        W 5186   6.569   7.468  11.422 -0.0900  0.1182  0.0539
  987W        W 5187   0.329   4.993  10.257 -0.1482 -0.3264 -0.2346
  988W        W 5188   3.797   6.363   2.502  0.1442  0.1068 -0.0554
  989W        W 5189  10.219   6.610  11.411 -0.2082  0.1599  0.1424
  990W        W 5190   1.203   1.366  11.078 -0.0507  0.0881 -0.5059
  991W        W 5191   3.442   5.044  11.286  0.1285 -0.2862 -0.1566
  992W        W 5192   7.712   5.209   0.648 -0.0480 -0.0310  0.0967
  993W        W 5193   1.207  10.071   2.935  0.2462 -0.0485 -0.2150
  994W        W 5194   3.903   5.418   3.001  0.1441 -0.3347  0.0101
  995W        W 5195   0.726   9.980   4.449 -0.3490 -0.2181  0.0040
  996W        W 5196   7.502   3.530   3.576  0.2035  0.2549  0.3986
  997W        W 5197   2.096   0.353   9.326  0.1894  0.2339  0.2536
  998W        W 5198   4.748   0.719   0.623  0.0433 -0.0499  0.1654
  999W        W 5199   6.948   4.135   3.743  0.0561  0.3045  0.2010
 1000W        W 5200   9.136   7.539  12.083 -0.2915  0.1585 -0.0577
 1001W        W 5201   7.386   8.083   1.885 -0.5006 -0.1595 -0.0375
 1002W        W 5202   9.169   7.716   9.839  0.3964  0.3166 -0.0961
 1003W        W 5203   1.965   7.357  13.167 -0.1612 -0.0066 -0.1992
 1004W        W 5204   9.712   2.239  13.114 -0.1581  0.0582  0.1581
 1005W        W 5205   7.606   2.013  11.989  0.0961  0.2087 -0.0357
 1006W        W 5206   5.280   3.015  10.288  0.0079  0.0553 -0.0295
 1007W        W 5207   0.862   4.634  11.863 -0.2690  0.3064 -0.3432
 1008W        W 5208   3.360   5.722   1.828  0.0480 -0.0001  0.2866
 1009W        W 5209   9.839   7.436   4.589  0.0641  0.0616  0.0507
 1010W        W 5210   2.694   1.245   9.860 -0.0642  0.0678  0.1373
 1011W        W 5211   6.566   5.439   3.663  0.2634  0.2540  0.1194
 1012W        W 5212   0.767   6.428   0.243 -0.2939 -0.1336 -0.2164
 1013W        W 5213   4.097   9.477   0.872  0.1196 -0.1866  0.0801
 1014W        W 5214   2.495   4.535   4.133  0.3279 -0.0962 -0.1629
 1015W        W 5215   0.756   2.202   3.939 -0.1439 -0.2647  0.0408
 1016W        W 5216   6.521   4.275  12.620 -0.1383  0.0630 -0.3524
 1017W        W 5217   9.830   1.905   0.762  0.2868  0.0289 -0.0211
 1018W        W 5218   4.884   3.129  12.666 -0.2240  0.0629 -0.0754
 1019W        W 5219   5.016   8.606  10.894 -0.0358 -0.1955 -0.2128
 1020W        W 5220   8.414  10.479  11.059  0.2535 -0.0843  0.0669
 1021W        W 5221   5.160   1.945   4.859 -0.2985  0.2311 -0.0588
 1022W        W 5222   5.278   2.806  12.380  0.1526  0.0831  0.0802
 1023W        W 5223   0.523   0.057  10.611 -0.1511 -0.2071  0.1577
 1024W        W 5224   1.945   3.113   0.888  0.0823 -0.2244 -0.4873
 1025W        W 5225   7.073   7.122   3.245 -0.1080  0.0235  0.5180
 1026W        W 5226   9.582   9.055   2.725  0.1509  0.1294  0.2064
 1027W        W 5227   4.650   9.854  11.692 -0.0136  0.0255 -0.0203
 1028W        W 5228   9.357   6.170   0.152  0.0640  0.3747 -0.2935
 1029W        W 5229   1.912   7.862  12.204 -0.0488  0.5668  0.0216
 1030W        W 5230   3.639   4.681  10.391  0.3272 -0.1867  0.2676
 1031W        W 5231   0.015  10.270   3.815 -0.1545 -0.1058 -0.0472
 1032W        W 5232   5.763   1.556   1.472  0.0066  0.0049  0.1455
 1033W        W 5233   6.716   9.537   2.819 -0.2161  0.3614  0.0419
 1034W        W 5234   7.166   8.849   2.992  0.0448  0.1068  0.1016
 1035W        W 5235   4.076   4.984   1.070  0.1600  0.2998 -0.1255
 1036W        W 5236   2.009   4.315   0.391  0.1335  0.0675  0.1484
 1037W        W 5237   5.002   5.296  13.218 -0.0069 -0.0456  0.1426
 1038W        W 5238   9.224   0.194  12.690 -0.0740  0.0288 -0.2061
 1039W        W 5239   6.076   9.998  12.544  0.0582 -0.0910  0.1331
 1040W        W 5240   3.141   9.187   4.311  0.3600 -0.2542  0.0523
 1041W        W 5241   4.324   5.087   2.873 -0.3933  0.0956  0.0309
 1042W        W 5242   6.645   7.895  12.683 -0.2304 -0.2145 -0.1201
 1043W        W 5243   7.101   4.571  11.813  0.1952  0.0699 -0.1215
 1044W        W 5244   3.455   7.758   2.107  0.0786 -0.0968 -0.1928
 1045W        W 5245   3.211   4.733   3.784 -0.0599  0.0939  0.1993
 1046W        W 5246   7.132   6.084   0.904  0.2139  0.3335  0.2980
 1047W        W 5247   8.113   8.314   0.346  0.0412  0.0442 -0.1564
 1048W        W 5248   3.846   8.986   1.409  0.0203  0.1157 -0.1708
 1049W        W 5249   2.144   5.675   9.049 -0.2230  0.0943  0.0064
 1050W        W 5250   3.305   3.376   3.909  0.1951  0.0487 -0.0140
 1051W        W 5251   8.576   5.009   4.531 -0.1999  0.1597  0.1283
 1052W        W 5252   1.340   4.804  10.477  0.1162 -0.1463  0.0401
 1053W        W 5253   9.285   0.988   2.341  0.1211 -0.2419  0.1309
 1054W        W 5254   6.437   5.914  11.929  0.3283  0.1103 -0.0725
 1055W        W 5255   8.554   4.494   1.473  0.0189 -0.1664 -0.2179
 1056W        W 5256   5.860   9.057  13.017  0.0320 -0.2070 -0.0777
 1057W        W 5257   6.536   9.240  13.206 -0.3351 -0.1246  0.1181
 1058W        W 5258   8.948   6.462   0.058  0.0747  0.1650 -0.3962
 1059W        W 5259   6.445   5.647   8.540 -0.1654 -0.0137 -0.0391
 1060W        W 5260   9.285   0.880  13.156 -0.3059  0.1027  0.2118
 1061W        W 5261   5.549   2.509   4.221 -0.2643 -0.1008  0.0486
 1062W        W 5262   8.226   5.529   4.919 -0.2792 -0.1697  0.2553
 1063W        W 5263   5.578   1.334   4.392  0.0115  0.0933 -0.0870
 1064W        W 5264  10.184   8.467   9.665 -0.0690  0.1586 -0.4326
 1065W        W 5265   2.785   4.409  13.277 -0.0283  0.0587 -0.0833
 1066W        W 5266   9.461   5.932   2.560 -0.0574 -0.3053  0.0630
 1067W        W 5267   6.617   8.605  13.098  0.1461  0.1220 -0.0604
 1068W        W 5268   0.236   5.264   9.789  0.2980 -0.1988  0.3880
 1069W        W 5269   4.216   6.743  12.760 -0.2470 -0.0287 -0.0005
 1070W        W 5270   8.157   9.816  10.024 -0.1166 -0.2654  0.0423
 1071W        W 5271   7.631   5.128  12.170 -0.0685  0.1456 -0.1318
 1072W        W 5272   6.511   4.488  10.987  0.1037 -0.3704 -0.1827
 1073W        W 5273   8.142   7.421  13.357  0.1646  0.1354 -0.1032
 1074W        W 5274   4.970   7.416  10.734 -0.1044  0.2866  0.0782
 1075W        W 5275   8.858   0.766   8.893  0.0221 -0.0316  0.1287
 1076W        W 5276   1.093   0.654  11.751 -0.1214  0.0642  0.1453
 1077W        W 5277   2.954   1.798   3.654  0.2396  0.3355 -0.0096
 1078W        W 5278   5.264   3.928   0.082  0.1169 -0.0707 -0.4234
 1079W        W 5279   8.685   3.477   4.594 -0.1972  0.2055 -0.1647
 1080W        W 5280   1.327   9.972  11.876 -0.0127  0.1062  0.2628
 1081W        W 5281  10.380   9.081   8.846 -0.1958 -0.2112 -0.2437
 1082W        W 5282   5.594   0.248  11.769 -0.2054  0.1540  0.1941
 1083W        W 5283   7.324   4.925  11.480  0.2332 -0.0873 -0.3487
 1084W        W 5284  10.040   6.541   0.700  0.1621 -0.2607  0.2450
 1085W        W 5285   3.505  10.331   2.943 -0.0170  0.1872 -0.0120
 1086W        W 5286   1.226   7.519  11.180 -0.2161  0.1379 -0.0504
 1087W        W 5287   3.800   5.745  12.500 -0.1873  0.2568 -0.2233
 1088W        W 5288   0.896   8.065  13.374  0.0141  0.0927  0.2321
 1089W        W 5289   6.568   2.272   0.715  0.0049 -0.2809  0.1625
 1090W        W 5290   2.068  10.347   9.349  0.0395  0.2096 -0.0657
 1091W        W 5291   4.701   9.196   2.649 -0.1215  0.1091  0.2713
 1092W        W 5292   8.902   0.974   1.226  0.1959  0.1854  0.1824
 1093W        W 5293   6.010   4.337   0.904  0.3275  0.2113 -0.4259
 1094W        W 5294   5.941  10.157  10.580  0.2443 -0.0453  0.0677
 1095W        W 5295   0.517   3.380   1.196 -0.0756  0.0062 -0.1412
 1096W        W 5296   0.313   5.762   1.699  0.1147  0.1446  0.2382
 1097W        W 5297   9.523   4.963   1.452 -0.0582 -0.0287 -0.3709
 1098W        W 5298  10.198   8.325   0.498  0.0872 -0.2710 -0.1136
 1099W        W 5299   9.702   4.724  11.657 -0.0675 -0.2165  0.1461
 1100W        W 5300  10.192   3.424   9.923 -0.3464  0.1363 -0.0043
 1101W        W 5301   1.810   7.412  10.509 -0.0159 -0.1262  0.1343
 1102W        W 5302   4.629   2.862   5.825 -0.0380  0.0994 -0.2667
 1103W        W 5303   3.506   7.167   2.913  0.1011  0.0535 -0.1615
 1104W        W 5304   1.485   9.182   9.605  0.2250  0.2307  0.0923
 1105W        W 5305   2.194   9.794   1.649 -0.0108 -0.1241 -0.1083
 1106W        W 5306   4.840   2.913  13.131  0.1722  0.3842 -0.0790
 1107W        W 5307  10.010   0.783   3.971 -0.0909 -0.0948  0.2186
 1108W        W 5308   6.300   2.785   0.682  0.0607  0.3052 -0.0202
 1109W        W 5309  10.106   6.855  12.640  0.2162  0.3337  0.1585
 1110W        W 5310   9.804   8.746   3.717 -0.3893  0.1285  0.2619
 1111W        W 5311   3.647   0.329   3.846  0.1373  0.0672  0.1019
 1112W        W 5312   3.574   5.032   2.844  0.2744  0.1231 -0.1308
 1113W        W 5313   2.116   5.018   1.995  0.1127  0.0502  0.0426
 1114W        W 5314   4.926   8.619   1.990  0.0384 -0.0136 -0.0062
 1115W        W 5315   8.721   9.782   1.892 -0.3001 -0.0024  0.2981
 1116W        W 5316   3.411   4.615   1.792  0.0514  0.1725 -0.1591
 1117W        W 5317   5.490   4.718  12.289  0.1128  0.0120  0.2141
 1118W        W 5318   8.526   7.873  10.870 -0.0957 -0.1103  0.0338
 1119W        W 5319   2.956   4.277   2.757  0.0006 -0.0394 -0.1074
 1120W        W 5320   9.264   2.811  11.401  0.0251 -0.0482  0.3262
 1121W        W 5321   5.569   4.072   2.278  0.1009  0.4353 -0.1006
 1122W        W 5322   9.468   9.309   0.974 -0.1758 -0.1169 -0.1430
 1123W        W 5323   8.562   2.535   9.746 -0.0863  0.2800 -0.0357
 1124W        W 5324   8.526   8.594  10.226  0.1965 -0.0016 -0.0865
 1125W        W 5325   7.501   8.596  11.087 -0.3542 -0.4189 -0.2181
 1126W        W 5326   8.572   0.209   0.834 -0.0773 -0.2968  0.0063
 1127W        W 5327   2.095   7.607   0.881 -0.2831 -0.0822  0.0423
 1128W        W 5328   1.693   6.689   0.942 -0.1475  0.1705 -0.2146
 1129W        W 5329   7.071   1.079  12.862 -0.0462  0.1682 -0.2949
 1130W        W 5330   7.703   2.551   3.426 -0.1660 -0.0715  0.0567
 1131W        W 5331   1.487   5.401   2.433 -0.1728 -0.0178  0.0212
 1132W        W 5332   7.356   7.613  12.269  0.0647 -0.1482 -0.1028
 1133W        W 5333   6.616   9.165   1.142  0.1325 -0.1534 -0.1138
 1134W        W 5334   1.326   6.093  10.893  0.1180 -0.3071 -0.1042
 1135W        W 5335   8.513   5.962  13.248  0.0055 -0.3549  0.0717
 1136W        W 5336   8.704   4.737   0.991 -0.3134 -0.1349  0.2780
 1137W        W 5337   0.114   3.431   2.660 -0.1624  0.0321  0.1001
 1138W        W 5338   3.873   3.360   1.393 -0.1130  0.0593  0.2002
 1139W        W 5339   1.474   2.320   9.418  0.3746  0.1609 -0.2347
 1140W        W 5340   7.721   7.590  11.921 -0.1487  0.1301 -0.2263
 1141W        W 5341   0.180   5.042   1.020  0.1768  0.0124 -0.0079
 1142W        W 5342   3.080   4.603   3.171 -0.0320  0.2436  0.0993
 1143W        W 5343   8.865   6.870  10.803 -0.2232 -0.1007  0.0931
 1144W        W 5344   4.060   9.743   2.206 -0.0523 -0.1242 -0.0389
 1145W        W 5345   3.011   1.995  12.054  0.3516 -0.3997 -0.1020
 1146W        W 5346   7.204   3.329   9.308  0.0114 -0.1732 -0.2084
 1147W        W 5347   0.678   3.589  12.511 -0.0270 -0.2048 -0.0062
 1148W        W 5348   3.468   5.308   2.463 -0.1119 -0.2199  0.1556
 1149W        W 5349   1.493   9.504  10.548 -0.1524  0.0205 -0.1356
 1150W        W 5350   9.804   9.302   4.326 -0.0454 -0.2507  0.2677
 1151W        W 5351   3.408  10.011  12.104 -0.0822 -0.0326  0.0011
 1152W        W 5352   5.685   5.436  11.697  0.0700 -0.1341  0.1356
 1153W        W 5353   7.020   3.630  11.461 -0.0040 -0.1330  0.3063
 1154W        W 5354   1.869   2.034   9.534 -0.0144 -0.1361  0.0313
 1155W        W 5355   6.424   3.389  13.125 -0.1432 -0.0968  0.1582
 1156W        W 5356   6.981  10.241   1.585  0.0632  0.0446 -0.1006
 1157W        W 5357   3.796   2.825  11.466  0.2431 -0.0931  0.3805
 1158W        W 5358   5.396   2.417   1.260  0.1101 -0.0847  0.1633
 1159W        W 5359   6.249   9.672   2.074  0.0709 -0.1286  0.1165
 1160W        W 5360   5.754   6.564  10.904 -0.2896 -0.1120 -0.2121
 1161W        W 5361   8.222   8.655   2.166 -0.3212  0.2110 -0.0761
 1162W        W 5362   9.985   7.318   9.404  0.6522 -0.2045 -0.1586
 1163W        W 5363   1.794   9.268  11.521  0.1371 -0.2669 -0.1410
 1164W        W 5364   8.178   6.418   4.528  0.0339 -0.2722 -0.1700
 1165W        W 5365   5.427   1.233   2.693  0.0217 -0.1874 -0.2064
 1166W        W 5366   5.247   0.315   3.903  0.0004  0.2799 -0.1495
 1167W        W 5367   5.857   1.487  11.013 -0.1862  0.0772  0.0602
 1168W        W 5368   6.118   0.701   1.042  0.3769 -0.1321 -0.3602
 1169W        W 5369   0.437   6.409   2.656  0.0572 -0.2593 -0.1653
 1170W        W 5370   0.756   1.552  11.045  0.1274  0.0402  0.2706
 1171W        W 5371   2.176   2.065  10.788  0.0566 -0.3901 -0.2336
 1172W        W 5372   7.405   1.380   0.071 -0.0754 -0.0556  0.0946
 1173W        W 5373   3.005   8.816  12.058  0.1737 -0.0034  0.0656
 1174W        W 5374   6.895   4.783  10.156 -0.2885 -0.0649 -0.1548
 1175W        W 5375   0.170   4.645   3.729  0.0584 -0.1166  0.4182
 1176W        W 5376   1.285   8.288  10.156  0.1167 -0.0026  0.0239
 1177W        W 5377   8.656   3.087   0.047  0.0361  0.1056 -0.0071
 1178W        W 5378   4.317   8.110  10.806 -0.2830  0.2565 -0.1051
 1179W        W 5379   6.518   2.300  12.616  0.1520 -0.0688  0.1621
 1180W        W 5380   8.723   7.334  10.856  0.0160  0.0996  0.3352
 1181W        W 5381   2.977   2.619  12.620  0.0951  0.3721 -0.0619
 1182W        W 5382   5.192   6.137   9.753 -0.2609 -0.0589 -0.2115
 1183W        W 5383   0.114   0.191   5.002 -0.0747 -0.4338  0.3015
 1184W        W 5384   5.284   3.513   3.716 -0.1235  0.6168 -0.1336
 1185W        W 5385   3.363  10.440   9.618 -0.0018 -0.1024  0.0478
 1186W        W 5386  10.084   2.559  13.111  0.1644  0.0382  0.0210
 1187W        W 5387   1.518   5.470  11.916  0.3377  0.1995 -0.2403
 1188W        W 5388   4.551   8.896  10.154  0.0896 -0.1485  0.2769
 1189W        W 5389  10.318   9.135   0.621  0.1562  0.0041  0.0887
 1190W        W 5390   1.801   6.372   1.284 -0.2361  0.0057  0.1693
 1191W        W 5391   8.903   8.027  11.460  0.2876  0.0765  0.0969
 1192W        W 5392   0.894   1.118  10.801 -0.3252 -0.0631  0.1467
 1193W        W 5393   0.970   1.836   9.217 -0.1953  0.1069 -0.0314
 1194W        W 5394   0.231   5.534  10.293 -0.0423 -0.1834 -0.2163
 1195W        W 5395   4.775   0.456   2.328 -0.2341  0.1508  0.1962
 1196W        W 5396   9.985   6.426   2.020  0.0248  0.0781  0.0835
 1197W        W 5397   9.450   5.710   1.499  0.1321 -0.1415 -0.0737
 1198W        W 5398   6.390   4.760   3.641  0.1285 -0.1204  0.2868
 1199W        W 5399   2.739   7.465   9.368  0.0820  0.2204 -0.1145
 1200W        W 5400   9.901   9.777  11.119 -0.1732  0.2395 -0.1824
 1201W        W 5401   2.830   3.872   0.242  0.0237  0.1097  0.2350
 1202W        W 5402   1.247   9.681  12.985 -0.0434 -0.1781  0.3042
 1203W        W 5403   4.349   6.161   3.057  0.1449 -0.1419  0.4595
 1204W        W 5404   9.063   7.579   1.095  0.0590  0.0590 -0.0866
 1205W        W 5405   2.004   5.715   9.580 -0.0205 -0.1069 -0.2166
 1206W        W 5406  10.074   8.690   3.245  0.0085 -0.2195  0.0853
 1207W        W 5407   4.484   4.935  12.518  0.1634 -0.2656  0.3119
 1208W        W 5408   9.997   2.881   2.816 -0.0885 -0.0190 -0.0154
 1209W        W 5409   0.697   4.098  10.480  0.4169  0.4319 -0.1042
 1210W        W 5410   6.961   3.138   3.985  0.0748 -0.1279  0.1618
 1211W        W 5411   8.667   1.126  10.444 -0.0115 -0.0852  0.1789
 1212W        W 5412   9.533   5.328   1.830 -0.0705 -0.3590  0.1419
 1213W        W 5413   4.438   5.423   2.424 -0.1345 -0.2063 -0.0984
 1214W        W 5414   6.674   0.301  11.243  0.0027 -0.0935 -0.3942
 1215W        W 5415   2.258   4.715   2.416  0.0787  0.3014  0.1537
 1216W        W 5416   1.610   4.693   3.190 -0.1994 -0.1130 -0.1337
 1217W        W 5417   2.799   7.646   4.589 -0.2126  0.2370  0.0200
 1218W        W 5418   0.093   3.378  12.988 -0.0290 -0.3053  0.0461
 1219W        W 5419   9.159   1.810   2.528  0.0922  0.1001 -0.4859
 1220W        W 5420   3.158   3.470  13.169 -0.0740 -0.1564 -0.0452
 1221W        W 5421   9.990   9.947  11.590  0.1718 -0.2408  0.0238
 1222W        W 5422  10.183   7.221  13.038 -0.0243 -0.0341 -0.1255
 1223W        W 5423   8.257   4.973  12.881  0.0739 -0.1257 -0.1406
 1224W        W 5424   0.309   5.020  11.241 -0.0572  0.0093  0.1923
 1225W        W 5425   5.305   9.113   2.796  0.1480 -0.1191 -0.0746
 1226W        W 5426   2.057   2.024  12.065 -0.1127  0.0241  0.1014
 1227W        W 5427   4.426   2.411  10.301 -0.0552  0.1832  0.3303
 1228W        W 5428   7.804   7.300   1.971  0.0217  0.3344  0.0845
 1229W        W 5429   2.323   2.546  10.015  0.0583 -0.1502  0.0695
 1230W        W 5430   0.501   0.719   2.198  0.0443  0.0237 -0.2899
 1231W        W 5431   1.284   4.662  10.988 -0.2233  0.0671 -0.1446
 1232W        W 5432   8.175   4.261   4.177 -0.2353  0.3845 -0.2222
 1233W        W 5433   5.984   1.254  12.018  0.2012 -0.2349 -0.1930
 1234W        W 5434   9.374   2.047  10.995 -0.0790  0.3301 -0.0875
 1235W        W 5435   9.026  10.273   0.176 -0.1890  0.0592  0.2384
 1236W        W 5436   8.200   4.873   0.023 -0.1452 -0.0630 -0.0129
 1237W        W 5437   3.085   1.578   9.901  0.0927  0.0656 -0.1918
 1238W        W 5438   0.022   3.547   1.108  0.4038  0.0760 -0.2396
 1239W        W 5439  10.364   2.939   1.900 -0.2499  0.2039  0.1093
 1240W        W 5440   0.558  10.070   9.776  0.0209 -0.2693  0.0373
 1241W        W 5441   4.449   8.927   0.562 -0.1374  0.2410  0.2449
 1242W        W 5442   3.837   8.579  12.071 -0.0436  0.3182 -0.1234
 1243W        W 5443   4.041   2.468  10.014 -0.1966 -0.0734 -0.1830
 1244W        W 5444   6.134   9.134  10.876 -0.1472  0.2109  0.0609
 1245W        W 5445   4.993   4.224   1.305 -0.0725  0.1362  0.2917
 1246W        W 5446   4.072   5.171   8.513  0.1041  0.1578  0.0845
 1247W        W 5447   3.842   8.829  11.513  0.1129  0.2006 -0.0573
 1248W        W 5448   3.088  10.115   4.145 -0.0012 -0.0404 -0.0485
 1249W        W 5449   3.312   9.397   3.956 -0.1323 -0.0561  0.3353
 1250W        W 5450   6.017   2.661   1.600 -0.0946  0.2096 -0.0808
 1251W        W 5451   2.715   3.375   9.240  0.1764 -0.1782 -0.0932
 1252W        W 5452   4.766   8.701   0.247 -0.1963  0.0042 -0.0794
 1253W        W 5453   3.720   1.671   1.905 -0.4778 -0.1595 -0.1559
 1254W        W 5454   6.049   0.770  12.022  0.3324 -0.4017  0.2701
 1255W        W 5455   1.692   7.118   8.616 -0.0073  0.3365  0.3087
 1256W        W 5456  10.358   3.692  10.904 -0.2727 -0.1304 -0.2307
 1257W        W 5457   4.096  10.065  12.815  0.0924  0.2553  0.2711
 1258W        W 5458   3.326   8.936   1.231 -0.1080  0.3913  0.0711
 1259W        W 5459   9.522   7.607  12.422 -0.0243  0.1110  0.2172
 1260W        W 5460   0.798   5.466   1.663 -0.0566 -0.0995 -0.4329
 1261W        W 5461   1.234   7.888   4.784 -0.1876 -0.0053  0.1135
 1262W        W 5462   0.321   7.614  10.860  0.0628 -0.0297  0.2374
 1263W        W 5463   6.921   2.515   0.491 -0.2652  0.1582 -0.0645
 1264W        W 5464   4.396   8.177   1.136  0.4235 -0.0276  0.0986
 1265W        W 5465   8.819   6.326   5.148  0.0924  0.1058 -0.0130
 1266W        W 5466   9.790   9.874   3.131 -0.3554  0.0941 -0.2253
 1267W        W 5467   9.763   9.968   0.233 -0.1843  0.0758 -0.0829
 1268W        W 5468   2.983   6.016   3.578  0.1978  0.3139 -0.2210
 1269W        W 5469   0.328   3.495   0.638  0.0925 -0.0409  0.1183
 1270W        W 5470   3.046   8.359   3.248 -0.2056  0.0327  0.0049
 1271W        W 5471  10.367   9.519   4.386 -0.0200  0.2507 -0.0009
 1272W        W 5472   5.664   2.241  13.160  0.3067  0.3523  0.0270
 1273W        W 5473   7.619   5.147   4.456 -0.1575 -0.0619  0.2561
 1274W        W 5474   8.206   5.407   1.357 -0.0984  0.1556 -0.0224
 1275W        W 5475   5.561   9.694   2.781  0.1360  0.0499 -0.4040
 1276W        W 5476   3.345   6.135   1.574 -0.0828  0.2639  0.0654
 1277W        W 5477   9.680   4.345   4.972 -0.1424  0.0943 -0.1721
 1278W        W 5478   7.139   2.030  10.642 -0.0194  0.1602  0.0820
 1279W        W 5479   9.086   9.982   4.303 -0.2067  0.1356 -0.1442
 1280W        W 5480   0.941   3.311   2.213 -0.4332 -0.1461 -0.2541
 1281W        W 5481   7.901   9.013   3.265  0.1292 -0.2217  0.2800
 1282W        W 5482   0.163   2.564  10.307  0.1584  0.1241  0.0141
 1283W        W 5483   0.285   8.990   0.779 -0.0898  0.0028  0.0755
 1284W        W 5484   6.119   0.531  10.064 -0.0778 -0.1029  0.0425
 1285W        W 5485   0.955   5.019   9.271 -0.0109  0.2065 -0.1520
 1286W        W 5486   1.093   4.900   3.784 -0.1197 -0.0844  0.4791
 1287W        W 5487   1.857   6.373   2.645 -0.0042  0.1533  0.0159
 1288W        W 5488   8.344   2.795  10.895 -0.1682  0.0489  0.2410
 1289W        W 5489   7.970   1.983   9.278  0.5176 -0.0560  0.0308
 1290W        W 5490   8.783   4.962   9.908  0.0974  0.1978  0.1292
 1291W        W 5491   9.785   5.839   3.026 -0.0488  0.0984  0.0487
 1292W        W 5492  10.331   5.579   1.438  0.3012  0.1085 -0.1466
 1293W        W 5493   2.366   6.257   2.949 -0.1825  0.0039  0.0188
 1294W        W 5494   9.475   7.364   9.527  0.0814 -0.1478 -0.0732
 1295W        W 5495   9.792   8.983  12.154  0.0280 -0.0009  0.0162
 1296W        W 5496   9.066   8.153   0.337 -0.1653  0.2892  0.2008
 1297W        W 5497   5.949   9.410  11.597  0.0307 -0.0048 -0.2833
 1298W        W 5498   0.465   5.533  11.900 -0.1744  0.0301 -0.0862
 1299W        W 5499   8.618   9.452   3.288 -0.0525  0.0668  0.0476
 1300W        W 5500   5.576   8.895  12.064 -0.0684 -0.1644 -0.5200
 1301W        W 5501   9.104   9.587   9.663  0.0092  0.0508  0.1377
 1302W        W 5502   4.735   2.664   8.962 -0.2298  0.0680 -0.0443
 1303W        W 5503   8.197   4.150   3.085  0.0204  0.0654 -0.1593
 1304W        W 5504   0.944   9.219  11.797  0.2052 -0.0291  0.2081
 1305W        W 5505   1.417   7.043  10.175  0.1214 -0.2089 -0.0077
 1306W        W 5506   0.088   6.193  13.296 -0.2692  0.2361 -0.0377
 1307W        W 5507   0.512   7.359   4.202 -0.0739 -0.2545  0.1348
 1308W        W 5508   0.486   0.375   0.790  0.2407  0.0121 -0.0014
 1309W        W 5509   4.263   7.988  11.396 -0.2583  0.1369 -0.0311
 1310W        W 5510   5.320  10.405  12.087  0.4433 -0.3582 -0.2192
 1311W        W 5511   1.694   4.317   9.644 -0.0469  0.1689  0.0215
 1312W        W 5512   6.411   6.646   0.562 -0.2311  0.0666 -0.1443
 1313W        W 5513   8.010   9.205  13.264  0.1771 -0.3454  0.3063
 1314W        W 5514   7.837   0.860  12.596 -0.0457  0.3049  0.0808
 1315W        W 5515   4.098   4.619  12.066 -0.1017 -0.0069  0.0865
 1316W        W 5516   5.465   5.629   9.717 -0.3643 -0.0526  0.0648
 1317W        W 5517   6.206   6.637   1.854 -0.0971  0.1292  0.1165
 1318W        W 5518   8.657   2.255   4.047  0.0293 -0.2206 -0.1460
 1319W        W 5519   9.928   9.326  12.582  0.0513 -0.2085  0.1088
 1320W        W 5520   7.706   1.663  11.247  0.2862  0.3694  0.0555
 1321W        W 5521   7.869   7.873  10.217  0.1501 -0.0843 -0.2132
 1322W        W 5522   7.149   1.629  12.452 -0.0431  0.5566  0.1802
 1323W        W 5523   1.892   5.735  12.622 -0.0187 -0.1872  0.1359
 1324W        W 5524   2.204   0.730   3.463 -0.0842 -0.2525 -0.0637
 1325W        W 5525  10.034   9.520   0.929  0.0369 -0.0254  0.1118
 1326W        W 5526   1.712   3.460   3.551 -0.1309 -0.2015  0.1350
 1327W        W 5527   2.372   9.935  10.496  0.1748  0.2758  0.0299
 1328W        W 5528   1.309   1.628   3.334  0.0792  0.0004 -0.0950
 1329W        W 5529  10.321   3.756   1.817 -0.1816 -0.1245 -0.0323
 1330W        W 5530   8.321   5.508   8.676 -0.0536  0.0680 -0.0229
 1331W        W 5531   0.687   9.836  11.165 -0.0059  0.2140  0.2235
 1332W        W 5532   6.627   5.040   4.037 -0.2628 -0.1360 -0.2726
 1333W        W 5533   6.427   9.619  12.312  0.1789 -0.0556  0.0165
 1334W        W 5534   0.386  10.004   2.210  0.0841  0.0549  0.0395
 1335W        W 5535   2.957   6.459  13.048  0.4082  0.1979 -0.1022
 1336W        W 5536   8.396   7.829   4.911 -0.0452  0.1700 -0.2911
 1337W        W 5537   5.657   4.104   0.443 -0.0564  0.0271  0.0356
 1338W        W 5538   2.019   6.968  10.137 -0.0795  0.1178 -0.0809
 1339W        W 5539   8.913   9.699  13.304 -0.1455  0.2231  0.1082
 1340W        W 5540   9.998   8.118   1.961 -0.1447  0.0066 -0.0416
 1341W        W 5541   7.202   6.945   2.567 -0.5225 -0.2188  0.2430
 1342W        W 5542   2.756   4.438   1.886 -0.1977  0.1047  0.0454
 1343W        W 5543   1.063   6.971   1.417 -0.2761  0.0716 -0.1295
 1344W        W 5544   4.631   8.125   2.298  0.1542  0.2699 -0.0460
 1345W        W 5545   7.297   0.269  12.015 -0.1264 -0.2047 -0.0481
 1346W        W 5546   2.617   3.476  10.450  0.3979  0.2540  0.3903
 1347W        W 5547   4.904   9.999   0.728 -0.1853  0.0652  0.1485
 1348W        W 5548   3.096   5.933   9.474 -0.0561 -0.0705 -0.0405
 1349W        W 5549   7.239  10.077  11.371 -0.2235 -0.0898 -0.3016
 1350W        W 5550   1.475   5.058  12.338 -0.0534 -0.0376 -0.2480
 1351W        W 5551   7.711   4.687  12.607  0.0830  0.0761 -0.0266
 1352W        W 5552   8.416   3.101   1.826 -0.2275  0.4976  0.0263
 1353W        W 5553   2.036   7.727   2.436 -0.1474 -0.1689 -0.3118
 1354W        W 5554   6.884  10.341   2.462 -0.0658 -0.0191  0.1419
 1355W        W 5555   1.586   5.138  11.464 -0.1089  0.2749  0.2071
 1356W        W 5556   8.809   5.550   0.215  0.1441 -0.2397  0.0471
 1357W        W 5557   3.862   6.380   9.948  0.1091  0.3146  0.2720
 1358W        W 5558   9.015   7.075   1.461 -0.1376  0.0898 -0.0732
 1359W        W 5559   6.446   6.742   0.024 -0.2347 -0.0035 -0.1404
 1360W        W 5560  10.141   5.680   3.470  0.0529 -0.2884 -0.0515
 1361W        W 5561   2.139   5.546   4.417  0.0711 -0.0567  0.2823
 1362W        W 5562   2.900   6.755   0.713 -0.1125  0.0131  0.0269
 1363W        W 5563   4.036   9.335   3.549 -0.0800 -0.2101  0.0602
 1364W        W 5564   2.637   3.541   1.801  0.1532 -0.0451 -0.0456
 1365W        W 5565   9.612   2.191   2.813 -0.1685 -0.1083 -0.0956
 1366W        W 5566   7.736   0.109  10.239  0.0081 -0.0948  0.1917
 1367W        W 5567  10.508   1.644  11.743 -0.1747  0.2127 -0.2778
 1368W        W 5568   6.785   1.697  13.225  0.0778  0.0475  0.3173
 1369W        W 5569   7.868   2.026  12.827  0.1592 -0.2847 -0.1333
 1370W        W 5570   6.042   8.617  11.977  0.1351 -0.0233  0.1400
 1371W        W 5571  10.224   0.787  11.395  0.1753 -0.1328 -0.2353
 1372W        W 5572   4.848   6.491   0.447 -0.3636 -0.2518 -0.0545
 1373W        W 5573   4.215   0.615  11.930  0.2988  0.0517  0.0352
 1374W        W 5574   2.919   1.247  10.331 -0.1168 -0.2665  0.1042
 1375W        W 5575   4.288   4.792   1.532 -0.2122  0.0324  0.2748
 1376W        W 5576   3.808   5.500   4.046  0.0565  0.3327 -0.0354
 1377W        W 5577   9.113   6.248   1.941  0.0972 -0.1322  0.0268
 1378W        W 5578   2.628   7.923   1.307 -0.0087 -0.0101  0.1685
 1379W        W 5579   0.497   1.937   9.317  0.2243  0.2907 -0.1921
 1380W        W 5580   7.234   3.892   1.377  0.1305 -0.0146  0.2741
 1381W        W 5581   2.868   2.007   0.076 -0.1365  0.2183 -0.0912
 1382W        W 5582   1.270   7.606  10.377  0.1684  0.0770 -0.0575
 1383W        W 5583   1.407   1.283   2.407  0.2218  0.0621  0.0776
 1384W        W 5584   8.446   5.461  12.935  0.1280 -0.2414 -0.1675
 1385W        W 5585   0.855   3.622  11.654 -0.4415  0.2847 -0.2065
 1386W        W 5586   9.204   2.832  12.636 -0.0025 -0.3838 -0.1904
 1387W        W 5587   3.521   3.212  11.554 -0.0573  0.0276 -0.2450
 1388W        W 5588   8.018   0.208   0.877 -0.0643 -0.2235 -0.1915
 1389W        W 5589   0.045   7.427   5.108  0.4131 -0.2743 -0.1471
 1390W        W 5590   0.279   1.368   3.816  0.0161 -0.0279  0.1143
 1391W        W 5591   8.355   1.503   0.646  0.2679 -0.1782  0.1083
 1392W        W 5592   5.180   1.095   3.652 -0.1764 -0.1514 -0.0789
 1393W        W 5593   4.819   4.892  11.436 -0.0957 -0.2607 -0.3573
 1394W        W 5594   3.403   7.544  11.027 -0.1697  0.0474 -0.1068
 1395W        W 5595   7.542   1.667   9.105  0.1694 -0.2414 -0.3614
 1396W        W 5596   4.258   9.729   3.252  0.1042  0.1675  0.2091
 1397W        W 5597   9.374   3.412   8.935 -0.1983 -0.1539 -0.1993
 1398W        W 5598   0.838   9.088   9.906 -0.0872 -0.0010 -0.0147
 1399W        W 5599   1.536   4.249   4.432  0.0580  0.1359 -0.3041
 1400W        W 5600   9.615   0.545  12.984 -0.1082  0.0869 -0.1023
 1401W        W 5601   6.702   6.190   9.948 -0.1199 -0.1474 -0.0693
 1402W        W 5602   9.893   2.320   9.110 -0.4209 -0.1738 -0.3680
 1403W        W 5603   8.609   3.692   1.154 -0.0227 -0.0118 -0.1155
 1404W        W 5604   1.443   2.974  11.672 -0.2691  0.0167  0.4361
 1405W        W 5605   8.139   2.135  10.087  0.0211  0.0898 -0.0098
 1406W        W 5606   4.386   9.164  12.916  0.0787  0.2506  0.0649
 1407W        W 5607   0.168  10.384   2.002  0.1016  0.0702  0.1731
 1408W        W 5608   4.631   2.503   2.798  0.0719  0.3358 -0.1898
 1409W        W 5609   2.501   2.167  11.813 -0.2063  0.0496 -0.0269
 1410W        W 5610   1.458  10.277  12.849  0.1251 -0.0701 -0.0526
 1411W        W 5611   0.022   4.209   2.608 -0.2137 -0.2773 -0.0924
 1412W        W 5612   7.245   4.477   3.468 -0.2024  0.1145 -0.1375
 1413W        W 5613   7.075   5.655  12.677 -0.3736  0.2449  0.1807
 1414W        W 5614   3.955   9.014  12.611 -0.0065 -0.0805 -0.0442
 1415W        W 5615   6.451   2.109  13.066 -0.1916 -0.3225 -0.1919
 1416W        W 5616  10.040   3.610   0.842  0.0424  0.2917 -0.0386
 1417W        W 5617   4.839   5.502  11.264  0.0692 -0.0728  0.1729
 1418W        W 5618   9.798  10.415   4.861 -0.1899  0.0505 -0.1534
 1419W        W 5619  10.115   2.181   9.538 -0.1942 -0.0159  0.0422
 1420W        W 5620   3.859   9.777  12.019 -0.0424  0.0270  0.0162
 1421W        W 5621   7.481   4.863   3.300  0.2288 -0.0217  0.0086
 1422W        W 5622   8.147   9.982   2.432  0.0593 -0.0730  0.0370
 1423W        W 5623   2.880   2.704   2.066 -0.4565  0.2661  0.2397
 1424W        W 5624   9.593   6.590   4.688 -0.2269 -0.3624 -0.3461
 1425W        W 5625   0.649   6.413  10.550  0.0306  0.1919 -0.1551
 1426W        W 5626   8.019   3.890  11.579  0.2053 -0.0953 -0.0096
 1427W        W 5627   5.346   9.517   0.034  0.0032  0.1555 -0.0925
 1428W        W 5628   2.047   1.166   0.692  0.1165  0.3379 -0.0439
 1429W        W 5629   6.350   4.613   1.241  0.2134  0.0040  0.0931
 1430W        W 5630   2.381   6.016   9.493  0.0906 -0.1489 -0.3075
 1431W        W 5631   3.768   7.017  12.592 -0.0281  0.0717 -0.0628
 1432W        W 5632  10.493   0.797   3.599  0.1425 -0.3097 -0.0238
 1433W        W 5633   9.037  10.368  12.972 -0.1580  0.0251 -0.0319
 1434W        W 5634  10.315   4.823   3.403  0.2317  0.0164 -0.1738
 1435W        W 5635   5.078   6.487   9.380  0.0850  0.1966 -0.0108
 1436W        W 5636   8.202   2.076   2.298 -0.0608 -0.3245  0.0631
 1437W        W 5637   3.852   8.252   1.404 -0.0521  0.1829 -0.0732
 1438W        W 5638   1.383   7.376   1.519 -0.3564 -0.0649 -0.1510
 1439W        W 5639   8.547   9.951  11.875  0.2811  0.3353  0.3420
 1440W        W 5640   5.319   5.906   4.531  0.1164  0.3510 -0.1657
 1441W        W 5641   7.769   1.453   8.737 -0.0999 -0.1416  0.3851
 1442W        W 5642   0.549   4.311   3.066 -0.1853 -0.3643 -0.1467
 1443W        W 5643   5.375   8.052   0.617  0.0460  0.0246 -0.0044
 1444W        W 5644   8.003   4.108   2.370 -0.1244  0.2659  0.0893
 1445W        W 5645   3.480   4.371   0.032 -0.0725 -0.1564  0.1743
 1446W        W 5646   0.550   7.034  10.043 -0.3926  0.3078  0.1226
 1447W        W 5647   2.568   0.153  12.556 -0.1138  0.0662  0.0851
 1448W        W 5648   0.285   0.116   2.921 -0.0456  0.0439  0.0456
 1449W        W 5649   9.113   8.353  11.869 -0.2816  0.2138 -0.0200
 1450W        W 5650   8.572   3.030  10.243 -0.0058 -0.2070 -0.1605
 1451W        W 5651   2.728   5.772  10.122  0.1842  0.0326 -0.1770
 1452W        W 5652   0.927   0.635   4.771 -0.0519  0.0571  0.0858
 1453W        W 5653   5.759   9.319  11.141  0.0353  0.0165 -0.1024
 1454W        W 5654   9.191   0.217   4.439  0.2683 -0.3679  0.0850
 1455W        W 5655   7.254   4.724  12.848  0.0302  0.2507  0.2005
 1456W        W 5656   4.994   5.048   1.363 -0.0538  0.1342 -0.1428
 1457W        W 5657   3.108   6.791  11.786 -0.0487  0.0904  0.0276
 1458W        W 5658   1.782   4.152  13.330  0.2682 -0.2475 -0.0303
 1459W        W 5659   7.864   0.075   3.712 -0.2668  0.2167 -0.0783
 1460W        W 5660   9.583   2.837   0.436 -0.1523 -0.2966 -0.0932
 1461W        W 5661   7.635  10.063  12.541 -0.0683  0.3304 -0.0026
 1462W        W 5662   2.255   9.883   0.129 -0.1177  0.0138 -0.0817
 1463W        W 5663  10.421   3.899  13.116  0.2761 -0.1208 -0.2767
 1464W        W 5664   8.807   0.517  13.131 -0.0932 -0.0045  0.1293
 1465W        W 5665   8.492   0.690  10.570  0.2680 -0.1296  0.0313
 1466W        W 5666   0.090   8.654  11.448  0.2658  0.1111  0.0936
 1467W        W 5667   9.043   6.551   0.581 -0.2073 -0.1758 -0.1141
 1468W        W 5668   1.779  10.064   8.414  0.0983  0.0992  0.0024
 1469W        W 5669   5.093   4.555  10.439  0.3619  0.2481 -0.1353
 1470W        W 5670   1.575   9.898   4.661 -0.1010  0.0593  0.1918
 1471W        W 5671   1.538   2.675   0.231 -0.5016 -0.1180 -0.1888
 1472W        W 5672   6.291   1.221  12.410 -0.2452 -0.4235 -0.0666
 1473W        W 5673   3.634   4.936  12.176 -0.2850 -0.1893 -0.1771
 1474W        W 5674   5.893   3.922   1.956  0.5388  0.3026 -0.0440
 1475W        W 5675   0.238   8.080   8.998  0.2039 -0.0525  0.0151
 1476W        W 5676   2.311   2.708   0.778 -0.3064  0.0470 -0.1907
 1477W        W 5677   1.994   2.814   0.385  0.0226  0.0472 -0.1164
 1478W        W 5678   7.770   6.266  12.679  0.0085 -0.1523 -0.0849
 1479W        W 5679   9.464   5.906   9.843  0.2930 -0.0057 -0.0346
 1480W        W 5680   3.923   4.916   0.561 -0.2222  0.2690 -0.1547
 1481W        W 5681   4.322   1.454   2.227 -0.1359 -0.0412  0.0149
 1482W        W 5682   4.472   9.618  10.172 -0.0903  0.0211  0.2075
 1483W        W 5683   7.822   5.925  11.615  0.1747 -0.3185 -0.0072
 1484W        W 5684   3.067  10.282   3.668  0.1195 -0.1925 -0.2547
 1485W        W 5685   3.925   8.753   2.968 -0.0516 -0.1300 -0.1056
 1486W        W 5686  10.096   3.191  12.517 -0.0706  0.0619 -0.0104
 1487W        W 5687   0.831   6.972  10.627 -0.1454  0.0770  0.0090
 1488W        W 5688   7.850   6.270  11.058 -0.3387 -0.2323 -0.0332
 1489W        W 5689   2.699  10.169  11.178 -0.0948 -0.2563 -0.4062
 1490W        W 5690   1.615   0.556  13.324  0.1484 -0.3201  0.1515
 1491W        W 5691   0.029   6.383   4.103  0.3674  0.0937 -0.0186
 1492W        W 5692   2.157   1.125   2.417 -0.0636  0.0419  0.2562
 1493W        W 5693   1.286   6.472   0.094  0.0107 -0.1163 -0.0228
 1494W        W 5694   4.952   8.740  10.358 -0.2121  0.1488 -0.0002
 1495W        W 5695   2.960   4.261   9.852  0.1070 -0.0764  0.0289
 1496W        W 5696   2.882   1.692   4.148 -0.2645  0.1752  0.1982
 1497W        W 5697   2.205   6.932  11.349  0.1022 -0.1515  0.1232
 1498W        W 5698   7.503   1.283  12.523 -0.1967 -0.2562  0.0491
 1499W        W 5699   1.381   6.994  12.558 -0.1694 -0.3147 -0.1452
 1500W        W 5700   0.040   3.458   3.172 -0.1318  0.2313 -0.0571
 1501W        W 5701   0.843   8.305   3.070  0.0550  0.1561  0.1794
 1502W        W 5702   5.642   3.324   8.969 -0.0759 -0.0250  0.2119
 1503W        W 5703   2.239   5.733  12.287  0.3719  0.3384 -0.0368
 1504W        W 5704   9.659   3.920   5.287  0.1146  0.2306  0.3119
 1505W        W 5705   0.595   8.592  10.713  0.0934 -0.1297 -0.1860
 1506W        W 5706   3.159   0.775   4.972  0.0914 -0.0214  0.1409
 1507W        W 5707   3.115   0.766  11.766  0.0697 -0.0565  0.1703
 1508W        W 5708   8.732   8.997   9.533  0.3537  0.2114  0.1396
 1509W        W 5709   2.511   1.870  12.882 -0.1293 -0.3441 -0.4644
 1510W        W 5710   4.291   7.500  12.090  0.0608  0.0506 -0.3152
 1511W        W 5711   6.417   9.622   0.604  0.0555 -0.3445  0.4324
 1512W        W 5712   8.077   3.007   4.348  0.1310 -0.0879 -0.0561
 1513W        W 5713   3.271   6.938   2.177 -0.1343 -0.1425  0.1889
 1514W        W 5714   6.269   3.819   4.289  0.0607 -0.2270 -0.0941
 1515W        W 5715   4.887   0.288  12.878  0.1437 -0.1562 -0.0535
 1516W        W 5716   3.738   8.021  12.827  0.0125  0.0356 -0.1070
 1517W        W 5717   4.280   8.476   2.596  0.0855  0.2064  0.1741
 1518W        W 5718   8.883   5.228   1.097  0.0588 -0.0440  0.0304
 1519W        W 5719  10.220   1.929   2.917 -0.1392 -0.1564 -0.1922
 1520W        W 5720   4.549   6.944   2.529 -0.0414 -0.1678 -0.3460
 1521W        W 5721   6.129   1.438   4.139 -0.0561  0.4662  0.1856
 1522W        W 5722   9.865   4.765  11.172  0.2627 -0.2597 -0.0451
 1523W        W 5723   8.309   2.603   4.553  0.0106  0.3577  0.3170
 1524W        W 5724   6.161   1.676   9.469 -0.3124 -0.2889  0.1475
 1525W        W 5725   3.806   9.459   2.604  0.0818  0.1157 -0.2008
 1526W        W 5726   9.632   2.138  10.266  0.2218  0.1107 -0.0559
 1527W        W 5727   2.264   5.220   2.435 -0.2188 -0.1542  0.2793
 1528W        W 5728   7.099   7.281   0.131  0.1895  0.0188 -0.0163
 1529W        W 5729   2.255   2.425   2.821  0.1948  0.2605 -0.0421
 1530W        W 5730   1.646   9.866   3.149 -0.0578 -0.2915  0.0171
 1531W        W 5731   2.576  10.186   0.493 -0.2714  0.0898 -0.4443
 1532W        W 5732   8.835   8.583   0.624 -0.1755  0.0689 -0.0813
 1533W        W 5733   7.216   9.657   1.574  0.3506 -0.0757 -0.0078
 1534W        W 5734   4.164   1.605   3.826  0.3962  0.0158  0.3379
 1535W        W 5735   6.754   4.531   3.396 -0.2801  0.2016 -0.0476
 1536W        W 5736   3.533   9.495  11.231 -0.1741 -0.1690 -0.2801
 1537W        W 5737   4.198  10.457   1.194 -0.2743 -0.2144 -0.1504
 1538W        W 5738   6.693   6.582  11.301  0.1848  0.3207 -0.0045
 1539W        W 5739   5.798   4.909   9.914  0.2462  0.2078 -0.0182
 1540W        W 5740   1.715   7.040   4.468  0.4110  0.0604  0.1300
 1541W        W 5741   1.259   8.656   4.038 -0.1999  0.1348 -0.0526
 1542W        W 5742   5.648   1.014  11.660 -0.2433  0.2965  0.0050
 1543W        W 5743   6.261   4.121  11.302  0.0350 -0.1708 -0.1867
 1544W        W 5744   9.225   2.761   3.633  0.2556  0.1126  0.1827
 1545W        W 5745   3.867   5.928  11.335  0.1164  0.1056  0.2308
 1546W        W 5746   8.272   0.588  12.954 -0.3039  0.0606 -0.1524
 1547W        W 5747   7.295   9.632  13.132  0.1595  0.1234 -0.1939
 1548W        W 5748   8.664   5.163  11.940  0.1725  0.0058  0.0846
 1549W        W 5749   0.742   9.396   4.330  0.3863 -0.1542  0.1593
 1550W        W 5750   9.362   2.633  13.104 -0.3300  0.0251  0.1338
 1551W        W 5751   5.221   7.437   2.020 -0.0859 -0.1795 -0.0513
 1552W        W 5752   9.914   3.290   0.261  0.0355 -0.1658  0.3468
 1553W        W 5753   8.212   9.005  12.316  0.0971  0.0565 -0.0635
 1554W        W 5754   0.614   3.252   4.714  0.0970  0.1352  0.1439
 1555W        W 5755   5.978   2.446   3.260 -0.0209 -0.0886 -0.2297
 1556W        W 5756   4.124   4.063   1.748 -0.2290 -0.1076 -0.0524
 1557W        W 5757   4.611   6.182   4.051  0.1797  0.0970  0.0548
 1558W        W 5758   1.070  10.476   9.352  0.1111  0.1173  0.0244
 1559W        W 5759   3.038   4.441   1.432  0.1941  0.5423 -0.2916
 1560W        W 5760   8.838   2.495   4.438 -0.0399  0.1987  0.0304
 1561W        W 5761   8.906   6.051   9.572 -0.2138 -0.0379 -0.0921
 1562W        W 5762   0.826   1.624   3.142  0.1280 -0.1338  0.1244
 1563W        W 5763   0.995   0.918   0.031 -0.3361  0.0841 -0.0772
 1564W        W 5764   9.861   5.002   9.966  0.1692 -0.2271 -0.1428
 1565W        W 5765   1.478   6.348   1.777  0.1504  0.1389  0.1692
 1566W        W 5766   0.791   3.889   2.816  0.0087  0.0413  0.1619
 1567W        W 5767   6.001   9.334   0.571  0.0244  0.4916 -0.2767
 1568W        W 5768   4.447   6.309   9.961 -0.1479  0.0719 -0.1396
 1569W        W 5769   2.973   5.344   1.993  0.0006  0.0544 -0.0022
 1570W        W 5770   2.502   2.883   4.974  0.0334  0.1022  0.1629
 1571W        W 5771   9.374   2.395   9.854 -0.0294 -0.0384  0.0139
 1572W        W 5772   2.379   1.251  12.371 -0.1054  0.0382  0.3711
 1573W        W 5773   7.588   8.897   2.768 -0.3293 -0.1713  0.2329
 1574W        W 5774   6.415   3.044   0.153  0.1272 -0.0384 -0.2696
 1575W        W 5775   7.271   3.890   1.922 -0.1853 -0.1377  0.2363
 1576W        W 5776   7.202  10.164   0.691 -0.0064  0.0214 -0.0266
 1577W        W 5777   9.954   9.798   1.873 -0.1723 -0.1197  0.0002
 1578W        W 5778   9.076   0.876   9.440  0.3839 -0.1331  0.0488
 1579W        W 5779   1.256   4.945  11.864  0.1825  0.0857  0.0186
 1580W        W 5780   0.809   8.508   9.386  0.2271  0.0079  0.0314
 1581W        W 5781   0.442   8.102   1.132 -0.1033 -0.2179  0.0027
 1582W        W 5782   9.603   8.020   2.378  0.0274  0.2534  0.0354
 1583W        W 5783   5.561   5.528  12.975  0.2513  0.3012 -0.0490
 1584W        W 5784   5.327   2.974  11.832 -0.0652  0.0405 -0.1516
 1585W        W 5785  10.330   6.257  10.597  0.1905  0.0739 -0.3235
 1586W        W 5786   8.491   5.658   0.961  0.0816 -0.1507 -0.1198
 1587W        W 5787   7.416   1.669   3.150 -0.3951 -0.1435 -0.1129
 1588W        W 5788   2.971   7.378   2.205 -0.1170  0.0536  0.1014
 1589W        W 5789   8.746   1.219  11.974 -0.1638 -0.0363 -0.4433
 1590W        W 5790   8.239  10.309  11.602  0.1278 -0.4230  0.1218
 1591W        W 5791   0.236   2.553   2.231  0.2423 -0.3667  0.0234
 1592W        W 5792   2.833  10.308   1.803  0.1812  0.2174 -0.2474
 1593W        W 5793   4.101   3.729  13.197  0.1861 -0.0383  0.0049
 1594W        W 5794   5.143  10.477  10.829 -0.0564 -0.0959 -0.2487
 1595W        W 5795   6.109   0.831   3.138  0.3466  0.0011 -0.0627
 1596W        W 5796   0.986   5.734   4.034  0.0369 -0.1721  0.3182
 1597W        W 5797   4.604   1.094  10.237 -0.2763 -0.2142 -0.0041
 1598W        W 5798   2.034   8.837  12.823 -0.1696 -0.1068  0.2075
 1599W        W 5799   9.319   6.768   4.353 -0.0258  0.1333 -0.0077
 1600W        W 5800   3.629   6.835   9.898 -0.0208  0.1646  0.1639
 1601W        W 5801   2.414   0.904   3.068 -0.0977 -0.1042 -0.1446
 1602W        W 5802   5.912   8.798   0.471  0.1245 -0.2238  0.1787
 1603W        W 5803   1.712   8.742   2.436  0.0003 -0.0545 -0.0758
 1604W        W 5804   2.844   7.382  13.091 -0.4162  0.0201 -0.3014
 1605W        W 5805   8.195   1.596   3.628 -0.0945 -0.0110  0.0764
 1606W        W 5806   4.335   8.426  11.736  0.1903  0.0987  0.0264
 1607W        W 5807   0.286   0.010  11.486  0.0373 -0.0672 -0.2384
 1608W        W 5808   4.045   6.883  11.305 -0.3066 -0.1041  0.0400
 1609W        W 5809   5.349   3.866   9.749 -0.1024  0.0106 -0.1787
 1610W        W 5810   7.392   6.049  11.355  0.3740 -0.2085  0.2278
 1611W        W 5811   4.047   3.333   4.325  0.0243  0.0478  0.0393
 1612W        W 5812  10.468   0.404   3.842 -0.1313 -0.2047  0.0449
 1613W        W 5813   9.557   5.481   9.007  0.2574  0.2349 -0.0429
 1614W        W 5814   2.400   2.862   2.976 -0.1841 -0.1074 -0.0579
 1615W        W 5815   2.192   6.930  13.168  0.0565 -0.1311  0.0192
 1616W        W 5816   1.958   9.391   4.337 -0.2384  0.5818 -0.3179
 1617W        W 5817   2.848   5.183  11.967  0.0864 -0.1757  0.4130
 1618W        W 5818   5.121   1.267   4.639 -0.0753 -0.0920 -0.0960
 1619W        W 5819   0.539   0.482   1.319  0.1221 -0.0005 -0.4468
 1620W        W 5820   1.808   0.235  11.558 -0.0691  0.3479  0.4284
 1621W        W 5821   4.538   6.421  12.452  0.0962  0.0941 -0.1198
 1622W        W 5822   1.299   1.402  11.834 -0.1313 -0.0767 -0.0618
 1623W        W 5823   7.950   1.757   4.791 -0.0870  0.4214 -0.0333
 1624W        W 5824   6.037   8.026   0.283 -0.1543  0.1752 -0.1988
 1625W        W 5825   4.577   3.874   8.493 -0.0337  0.0475  0.2395
 1626W        W 5826   3.872   0.402   3.406 -0.0800 -0.4357 -0.1332
 1627W        W 5827   1.157   9.145   4.015  0.2252 -0.1924 -0.2691
 1628W        W 5828   7.383   2.893   2.721 -0.2185  0.0825  0.1437
 1629W        W 5829   8.268   6.315  10.081  0.2079 -0.0092 -0.1594
 1630W        W 5830   5.949   6.794   3.214  0.0870 -0.1934 -0.3255
 1631W        W 5831   2.853   7.501  10.937  0.3114  0.0066  0.4826
 1632W        W 5832   6.599   8.185   0.284  0.2473  0.5041 -0.3659
 1633W        W 5833  10.381   4.431   9.526  0.1750 -0.0368  0.0298
 1634W        W 5834   9.864  10.283   9.698 -0.0743  0.5461 -0.1793
 1635W        W 5835   0.965   2.555   2.847  0.3149  0.2657 -0.0914
 1636W        W 5836   5.463   2.900  11.165 -0.2796 -0.0288 -0.1876
 1637W        W 5837   1.973   4.685  11.404  0.0894  0.1066  0.0254
 1638W        W 5838   5.653   5.316   0.028  0.3556  0.0388  0.1568
 1639W        W 5839   6.884   4.102  11.731 -0.2068  0.1969  0.3404
 1640W        W 5840   8.066  10.112  12.001 -0.1068 -0.1420  0.0970
 1641W        W 5841   0.948   6.680   3.522 -0.4589  0.2699  0.3504
 1642W        W 5842   0.874   2.428  11.150 -0.1154 -0.1582  0.0500
 1643W        W 5843   4.841   5.670  12.119 -0.2347  0.0283 -0.2645
 1644W        W 5844   2.331   2.006   1.523  0.1362  0.1788 -0.1845
 1645W        W 5845   9.351   9.688   1.897  0.0842  0.2787 -0.0709
 1646W        W 5846   3.940   5.963  12.013  0.1041  0.0868 -0.1166
 1647W        W 5847   9.375   0.759   4.622 -0.1002  0.2039  0.2445
 1648W        W 5848  10.255   8.737   2.550 -0.0731  0.1763 -0.0181
 1649W        W 5849   0.631   8.186   3.897  0.0098 -0.0191  0.4293
 1650W        W 5850   1.093   9.766  10.393  0.0049 -0.1233  0.1998
 1651W        W 5851   2.885   4.332   3.548 -0.1172 -0.2497  0.1018
 1652W        W 5852   0.914   8.219   2.104 -0.4680  0.1609  0.2306
 1653W        W 5853   1.927   7.104  12.681 -0.0710 -0.1460  0.2245
 1654W        W 5854   6.162   9.391   1.078 -0.1161  0.1284  0.2004
 1655W        W 5855   1.840   0.661  10.935  0.0436 -0.2139  0.1303
 1656W        W 5856   7.445   6.908   0.414 -0.0990  0.1831  0.4450
 1657W        W 5857   4.033   5.881  10.135  0.2118  0.2824  0.2979
 1658W        W 5858   8.002   0.547   0.475 -0.1827  0.0864  0.0802
 1659W        W 5859   3.151   8.907  13.170  0.1735 -0.0706 -0.1627
 1660W        W 5860   8.489   1.198   4.495  0.2762  0.0764 -0.4069
 1661W        W 5861   2.674   1.788   9.669  0.0048  0.0186  0.2467
 1662W        W 5862   1.169   3.709  12.721  0.0883 -0.2776 -0.2108
 1663W        W 5863   9.189   4.377   0.121 -0.0241  0.2676  0.2291
 1664W        W 5864   8.083   3.136   0.995  0.0749 -0.2158 -0.3162
 1665W        W 5865   3.777  10.255  13.138  0.1748  0.3778 -0.3566
 1666W        W 5866   5.842   8.887  11.553  0.2093  0.4026 -0.1244
 1667W        W 5867   9.282   9.203   3.979 -0.1750  0.1334  0.1243
 1668W        W 5868   5.197  10.093  11.195 -0.1398 -0.0119  0.0026
 1669W        W 5869   6.954   4.303   2.013 -0.2992 -0.2966 -0.1147
 1670W        W 5870   4.747   0.840   3.946  0.3668 -0.2006  0.2566
 1671W        W 5871   9.360   7.712   2.761  0.0373 -0.1452  0.3470
 1672W        W 5872   5.848   6.890   2.378  0.0327  0.0317 -0.1767
 1673W        W 5873   3.901   0.421  10.770  0.1657  0.2966  0.1327
 1674W        W 5874   6.704   3.788   1.250 -0.0398 -0.0745  0.0573
 1675W        W 5875   7.770   0.554  12.204  0.1092  0.0454 -0.0232
 1676W        W 5876   7.819   2.671   1.121  0.0958  0.1322  0.0521
 1677W        W 5877   1.698   6.064  13.361  0.0711  0.2286 -0.2073
 1678W        W 5878   1.847   8.782   8.024 -0.2431 -0.0057 -0.1655
 1679W        W 5879   1.092   8.127   2.673 -0.0624 -0.1696 -0.0617
 1680W        W 5880   1.309   9.027  11.326 -0.0240  0.0350 -0.0176
 1681W        W 5881   4.956   0.813  12.192  0.1291  0.2731  0.0485
 1682W        W 5882   3.654   9.672   0.921  0.2835 -0.1103  0.1450
 1683W        W 5883   3.134   3.871   8.326 -0.3184 -0.1450  0.3370
 1684W        W 5884   5.315   2.916   2.232  0.5073 -0.3816  0.2316
 1685W        W 5885   2.678   2.541   4.075 -0.1124 -0.4076  0.1507
 1686W        W 5886   2.355   0.194   0.546 -0.5898 -0.3145 -0.0441
 1687W        W 5887   1.075   7.835   0.393 -0.1510 -0.1496  0.0709
 1688W        W 5888   8.089   4.517   3.729 -0.0368  0.1464  0.0646
 1689W        W 5889  10.426   9.886  11.976 -0.2024  0.3828 -0.0254
 1690W        W 5890   3.097   4.510  10.372 -0.0337  0.3540 -0.0056
 1691W        W 5891   4.383   2.223   8.320 -0.2653  0.0393 -0.1402
 1692W        W 5892   9.771   9.553  10.692  0.1881 -0.1972  0.0550
 1693W        W 5893   6.778   8.431   2.661 -0.0626 -0.0878 -0.4309
 1694W        W 5894   7.727  10.165  11.633 -0.0417  0.0592 -0.1259
 1695W        W 5895   8.622   7.791   0.919  0.5562 -0.0421 -0.1059
 1696W        W 5896   3.893   5.752   9.159 -0.0649  0.0260  0.2245
 1697W        W 5897   5.434   9.639   1.831 -0.1184 -0.0391  0.0218
 1698W        W 5898  10.501   8.024   7.142 -0.1286 -0.3263  0.0251
 1699W        W 5899   8.382   1.710  10.970  0.1854 -0.2133 -0.1412
 1700W        W 5900   8.601   9.175   2.419  0.0348  0.0776 -0.0422
 1701W        W 5901   6.531   7.091   3.144  0.1277  0.0139  0.2713
 1702W        W 5902   5.941   8.528   1.815  0.1653 -0.0895  0.0339
 1703W        W 5903   6.216   3.508  11.875 -0.0879 -0.0467 -0.1532
 1704W        W 5904  10.283   2.100  10.990 -0.2600  0.0921  0.1320
 1705W        W 5905   3.904   4.759   0.099 -0.1617  0.0485 -0.2079
 1706W        W 5906   7.011   2.361   3.053 -0.3028  0.1803 -0.2743
 1707W        W 5907   4.901   7.981  10.786  0.0091 -0.0410  0.2316
 1708W        W 5908   6.784   4.724   0.959  0.1675 -0.2141 -0.0912
 1709W        W 5909   5.298   5.464   0.344  0.2125  0.0199 -0.2510
 1710W        W 5910   4.196   6.883  10.645  0.1164  0.0670 -0.1639
 1711W        W 5911   3.401   2.525   0.477  0.1069  0.1073 -0.4052
 1712W        W 5912   3.206   5.691   8.565 -0.1125 -0.0876 -0.0736
 1713W        W 5913   0.600   0.385   9.590 -0.3925  0.3727 -0.1025
 1714W        W 5914   3.483   0.779   9.558  0.0356  0.2444  0.7295
 1715W        W 5915   8.998   1.512  10.436 -0.0938  0.0313 -0.0289
 1716W        W 5916   1.647   5.253   3.182  0.0353 -0.0048 -0.0182
 1717W        W 5917   0.962   5.897   9.684 -0.1381 -0.2127  0.0861
 1718W        W 5918   0.086   5.943   1.260  0.2687  0.2964  0.0854
 1719W        W 5919   7.705   0.966   1.867  0.1046  0.2043  0.0498
 1720W        W 5920   3.230   8.501  12.347 -0.0465  0.0540 -0.0234
 1721W        W 5921   7.291   7.509   1.173 -0.0121 -0.0398 -0.2921
 1722W        W 5922   8.901   1.649  12.239  0.0652 -0.0838  0.2911
 1723W        W 5923  10.306   7.979  12.519  0.0442 -0.0492 -0.0912
 1724W        W 5924   5.080   9.215   3.217 -0.1629 -0.1539  0.1436
 1725W        W 5925   5.989   1.483   4.630  0.1031  0.2189 -0.3095
 1726W        W 5926   9.654   1.265   0.816 -0.0398 -0.1076 -0.0364
 1727W        W 5927   7.666   1.899   0.337 -0.3102  0.0111  0.2877
 1728W        W 5928  10.479   0.779   1.199  0.3237 -0.1357 -0.0799
 1729W        W 5929   5.360   6.514  10.510 -0.0043  0.0174  0.0384
 1730W        W 5930   0.527   9.654   2.593  0.2997 -0.1025  0.3041
 1731W        W 5931   1.389   7.913  12.391 -0.1040  0.0069  0.1340
 1732W        W 5932   1.569   4.972  13.327 -0.4407  0.0324  0.1416
 1733W        W 5933   5.162   3.581   3.162  0.0864  0.1038  0.0628
 1734W        W 5934   2.193   3.876  11.756 -0.1809  0.0888  0.0519
 1735W        W 5935   9.144   1.662  11.218  0.0098  0.2766  0.2424
 1736W        W 5936   3.443   8.180   1.813  0.2654  0.4158  0.1984
 1737W        W 5937   6.498   3.138  10.936  0.2204 -0.0749  0.0394
 1738W        W 5938   4.837   7.177  11.334  0.2436 -0.0910 -0.0514
 1739W        W 5939   1.265   2.785   9.320 -0.2653  0.0356 -0.0530
 1740W        W 5940   0.559   2.434  11.546  0.2018  0.2931 -0.4311
 1741W        W 5941   3.431   2.580   3.361 -0.4236 -0.3764 -0.1801
 1742W        W 5942   0.974   5.092  12.273 -0.0166  0.2261 -0.1131
 1743W        W 5943   1.026   9.480  10.956 -0.2741 -0.1587  0.1650
 1744W        W 5944   9.104   2.996  11.964 -0.1766 -0.0554  0.0750
 1745W        W 5945   1.628   3.980  10.076  0.2256 -0.0925  0.1818
 1746W        W 5946   3.629   3.784  13.372  0.0568  0.2397  0.0655
 1747W        W 5947   9.300   3.353  11.537 -0.0748  0.0628  0.0530
 1748W        W 5948   3.777   9.471  10.760 -0.2216  0.4394  0.1125
 1749W        W 5949   1.039   2.705   0.217  0.1798  0.0094 -0.1808
 1750W        W 5950   5.578   1.730   1.992 -0.3690 -0.0901  0.0449
 1751W        W 5951   3.867   2.354  13.120  0.0757 -0.2359 -0.0748
 1752W        W 5952   4.337   8.516   2.062  0.0983  0.2659  0.1360
 1753W        W 5953   1.478   5.751  12.880  0.2555 -0.1827 -0.1143
 1754W        W 5954   1.628   3.583   0.149 -0.2648 -0.1432  0.0436
 1755W        W 5955   3.243   8.365  10.011  0.0330 -0.1290 -0.2854
 1756W        W 5956   6.602   6.746  10.739 -0.0011  0.1435  0.1267
 1757W        W 5957   8.454   7.244   2.885 -0.0918  0.0545  0.3204
 1758W        W 5958   3.811   2.645   1.059 -0.2025 -0.0331 -0.2935
 1759W        W 5959   0.402   1.083   0.128 -0.0584  0.1135  0.1199
 1760W        W 5960   7.739   2.910   0.687  0.0602 -0.2741 -0.1969
 1761W        W 5961   1.013   3.646  13.293 -0.3181 -0.1335  0.0928
 1762W        W 5962   3.270   2.145  11.254  0.2268  0.1313 -0.3260
 1763W        W 5963   4.168   3.595   0.635 -0.0831  0.3606  0.0492
 1764W        W 5964   9.009   2.737   2.307 -0.2467 -0.1800  0.0297
 1765W        W 5965   4.545   6.248   3.549 -0.1288 -0.0732 -0.3461
 1766W        W 5966   8.707  10.214  11.373 -0.3526  0.1101 -0.1744
 1767W        W 5967   2.572   6.065   2.078  0.0335  0.3541  0.0836
 1768W        W 5968   6.929   8.129  12.238  0.0280  0.0583 -0.1196
 1769W        W 5969   1.398   0.541   0.371 -0.0287 -0.2720 -0.2292
 1770W        W 5970   7.039   4.264  10.199  0.3985  0.1860 -0.1451
 1771W        W 5971   7.339   9.335   0.679 -0.1277  0.3185 -0.2085
 1772W        W 5972   7.344   2.557  13.276 -0.0876  0.1839 -0.1587
 1773W        W 5973   7.244   5.678  11.017  0.1290  0.2316 -0.2428
 1774W        W 5974   3.800   1.754   3.396  0.0316 -0.0380  0.1202
 1775W        W 5975   9.321   3.562  10.575  0.1295 -0.1754 -0.1114
 1776W        W 5976   7.052   3.381  12.491  0.0420  0.2754 -0.2654
 1777W        W 5977   5.739   2.900  12.104 -0.4120 -0.0988  0.0202
 1778W        W 5978   8.715   8.852  13.110  0.0059 -0.4387  0.0715
 1779W        W 5979   5.096   1.064  13.058  0.1321  0.1157  0.2549
 1780W        W 5980   2.874   9.150   2.492  0.2569  0.4384  0.3774
 1781W        W 5981   7.498   2.990   3.739 -0.0617 -0.0217 -0.2302
 1782W        W 5982   6.863   5.828  10.670 -0.3097  0.1681 -0.2036
 1783W        W 5983   7.703   7.586  10.663 -0.0774  0.0990 -0.0039
 1784W        W 5984   1.836   6.932   3.970 -0.0962 -0.1702 -0.0759
 1785W        W 5985   9.956   5.616   0.550  0.2142 -0.1710 -0.1346
 1786W        W 5986   2.413   2.868  11.956 -0.1825  0.0943  0.1308
 1787W        W 5987   2.164   5.003   5.456 -0.0668 -0.0202  0.1979
 1788W        W 5988   4.272   3.829   9.265  0.0846 -0.1334 -0.2125
 1789W        W 5989  10.452   8.282   0.068 -0.3308 -0.3308 -0.1316
 1790W        W 5990   6.092   3.112   2.347  0.0098  0.0141  0.1155
 1791W        W 5991   6.876   1.490   4.231 -0.0926  0.0712 -0.2148
 1792W        W 5992   7.824   2.127  11.011 -0.0564 -0.2520 -0.1900
 1793W        W 5993   1.798   1.969   4.019 -0.2369  0.2018  0.1991
 1794W        W 5994   5.190   6.975   1.204  0.1498  0.0868  0.3054
 1795W        W 5995   7.422   1.077  10.070  0.0041 -0.1540  0.1941
 1796W        W 5996   8.837   9.023   4.302  0.1683  0.0304 -0.0176
 1797W        W 5997   7.408   5.182   2.831 -0.0684 -0.2648 -0.1483
 1798W        W 5998   1.080   8.977   1.340 -0.1558  0.0749 -0.0633
 1799W        W 5999   3.274   3.959   2.606 -0.0804 -0.2795  0.0654
 1800W        W 6000   3.267   6.616   0.320 -0.0907 -0.1184 -0.2833
 1801W        W 6001   6.231   5.705   1.615 -0.0130 -0.2694  0.0005
 1802W        W 6002   8.691   0.029   1.318 -0.0550  0.1081 -0.0892
 1803W        W 6003   9.124   7.664  10.712 -0.0247 -0.4548  0.1438
 1804W        W 6004   2.154   8.419   9.349  0.0890 -0.1350 -0.3091
 1805W        W 6005   3.574   4.563  11.236  0.0523 -0.0342  0.5348
 1806W        W 6006   3.384   8.258   1.280 -0.2190 -0.2408 -0.0095
 1807W        W 6007   0.599   7.231   0.592 -0.2767 -0.0147  0.0782
 1808W        W 6008   3.738   2.894   9.776  0.4915 -0.2727 -0.0691
 1809W        W 6009   8.910   1.399   3.143 -0.2555  0.2654 -0.1470
 1810W        W 6010   1.337   6.432   1.257  0.0793  0.1129 -0.1245
 1811W        W 6011   9.220   8.666   1.717 -0.2757  0.0603  0.2752
 1812W        W 6012   8.721   7.306   0.078  0.1448  0.1296 -0.1069
 1813W        W 6013   1.126   6.519  11.145  0.3504  0.1162  0.0288
 1814W        W 6014   4.382   7.671  11.017 -0.2283  0.3145 -0.0930
 1815W        W 6015   6.276   3.073   1.123  0.0689 -0.0036  0.1359
 1816W        W 6016   8.503   9.311  13.242 -0.3153 -0.1591  0.6285
 1817W        W 6017   3.586   4.729   9.889 -0.0408  0.0924  0.2962
 1818W        W 6018   7.498   6.782   3.453  0.1382 -0.3242 -0.2248
 1819W        W 6019   8.836   3.674   3.634  0.1664  0.2705 -0.5006
 1820W        W 6020   3.904   8.665   2.325 -0.0885 -0.0844 -0.0363
 1821W        W 6021   7.338   0.127   1.548  0.0743 -0.2347  0.0568
 1822W        W 6022   1.590   4.942   0.504  0.1497 -0.1294 -0.2753
 1823W        W 6023   8.914   6.352   9.990  0.0687  0.0642 -0.0249
 1824W        W 6024   5.821   6.294  11.330  0.1946 -0.2376 -0.0634
 1825W        W 6025   4.018   2.425   4.285  0.5854  0.0552 -0.1438
 1826W        W 6026   5.585   3.413  13.116  0.0754 -0.2798 -0.2956
 1827W        W 6027   4.346   4.063  10.194 -0.0790 -0.0818 -0.0537
 1828W        W 6028   2.068   3.382   4.557  0.0771 -0.0060 -0.0990
 1829W        W 6029   0.834  10.335   0.681  0.4024 -0.2658  0.2303
 1830W        W 6030   9.758   5.156   0.823  0.1924  0.0414  0.0746
 1831W        W 6031   7.842   9.407   2.006 -0.1440  0.1591 -0.1019
 1832W        W 6032   0.675   5.110   0.774 -0.3103 -0.2816  0.0976
 1833W        W 6033   9.784   5.106   3.966 -0.0589 -0.1785 -0.0677
 1834W        W 6034   8.648   6.529   4.383  0.0906 -0.0654 -0.0471
 1835W        W 6035   1.996   7.111   1.799  0.0991  0.0077 -0.3307
 1836W        W 6036   5.507   2.787   0.535  0.0253 -0.0775 -0.0402
 1837W        W 6037   7.589   6.323   0.782  0.1958 -0.1268  0.1303
 1838W        W 6038   9.357  10.072   9.652 -0.3077 -0.0735 -0.1732
 1839W        W 6039   2.506  10.076  12.898  0.0692  0.0635  0.0288
 1840W        W 6040   2.605   5.117  11.329 -0.4552 -0.0699  0.0639
 1841W        W 6041   3.729   9.894  10.450  0.0960  0.0595  0.1950
 1842W        W 6042   1.240   4.443   2.954  0.3646  0.2941 -0.0674
 1843W        W 6043   2.483   0.541  12.958  0.1662  0.1424 -0.0743
 1844W        W 6044   2.497   2.718   3.583  0.2159 -0.1756 -0.2188
 1845W        W 6045   8.232   5.297  10.217 -0.0657  0.0635  0.0528
 1846W        W 6046   7.254   2.438   1.763 -0.2258 -0.2417  0.2087
 1847W        W 6047   0.466   6.373   4.391  0.1363 -0.0233  0.0179
 1848W        W 6048   0.154   1.126   2.528 -0.1730 -0.1096  0.3815
 1849W        W 6049   6.956   5.266  12.383 -0.0652 -0.1172 -0.1673
 1850W        W 6050  10.021   5.086   8.237  0.0614  0.0579 -0.0474
 1851W        W 6051   3.955   8.404   3.307  0.2190  0.0133 -0.0929
 1852W        W 6052   6.136   6.286   3.471  0.2020  0.1128  0.0068
 1853W        W 6053   6.940   4.096   8.768 -0.1204 -0.0171 -0.1211
 1854W        W 6054   9.283   1.355  12.064  0.0030  0.1273  0.4707
 1855W        W 6055   3.856   1.301   3.177 -0.1090  0.1701  0.1712
 1856W        W 6056   2.747   0.455   4.704  0.0297 -0.0772  0.3461
 1857W        W 6057   1.368   2.816  12.265 -0.1819  0.0841  0.0132
 1858W        W 6058   0.429   6.675   3.302 -0.0785  0.0962  0.2357
 1859W        W 6059   7.284   4.532  10.549  0.1033 -0.2233 -0.0413
 1860W        W 6060  10.294   2.406   0.275  0.0279 -0.0170  0.0462
 1861W        W 6061   3.005  10.333  12.017  0.0891  0.2509  0.0272
 1862W        W 6062   6.307   9.228   2.869  0.1375  0.0778  0.2179
 1863W        W 6063   3.175   4.908  10.672  0.4163  0.2091 -0.1741
 1864W        W 6064   9.077   4.162   9.596  0.0194  0.2171 -0.1904
 1865W        W 6065   7.662   6.413  11.532 -0.2507 -0.0027 -0.0947
 1866W        W 6066   1.598   4.692  12.689 -0.0968  0.1622 -0.2262
 1867W        W 6067   3.713   8.622   1.078  0.1039  0.2355  0.0340
 1868W        W 6068   1.359   7.173   1.012  0.1536  0.3389 -0.1164
 1869W        W 6069  10.100   4.135   2.206 -0.1564  0.0526 -0.0525
 1870W        W 6070   3.053   4.396  11.950  0.3701  0.0007 -0.0130
 1871W        W 6071   4.033   9.519   1.334  0.1666 -0.2124 -0.1534
 1872W        W 6072   4.665   1.145  11.935  0.0584 -0.1637 -0.0978
 1873W        W 6073   6.061   5.606   0.326  0.2502 -0.3047  0.0954
 1874W        W 6074   4.449  10.035  12.470 -0.1647  0.0392 -0.0991
 1875W        W 6075   3.390   0.441  12.429 -0.0010 -0.1603  0.0178
 1876W        W 6076   9.776   9.745  10.007  0.3345  0.0280 -0.2352
 1877W        W 6077   3.161   0.871   4.478 -0.0795  0.0671  0.2035
 1878W        W 6078   1.829   1.551   3.146 -0.5088  0.1776 -0.5814
 1879W        W 6079   1.113   0.215   0.091 -0.2032 -0.1675  0.0844
 1880W        W 6080   3.323   3.509   0.306 -0.0734 -0.1352 -0.0661
 1881W        W 6081   5.798   2.069   3.790 -0.0416 -0.4157  0.0816
 1882W        W 6082   6.025   9.146   1.920 -0.1490  0.2109 -0.0166
 1883W        W 6083   3.989   5.690   9.642 -0.1385 -0.1234  0.0467
 1884W        W 6084   1.220   8.707   9.916  0.1892 -0.1030  0.0154
 1885W        W 6085   7.508   0.418   3.662  0.2878 -0.0530  0.1792
 1886W        W 6086   8.396   6.972  11.015 -0.2718 -0.1602 -0.0534
 1887W        W 6087   9.932   7.484  11.175  0.0441  0.1082 -0.2240
 1888W        W 6088   7.495   8.586   3.226 -0.2298  0.0059  0.1807
 1889W        W 6089   0.637   7.771   2.032  0.1264  0.0942 -0.1346
 1890W        W 6090   7.171   9.892  12.357  0.0222 -0.0548 -0.0211
 1891W        W 6091   3.080   9.395   2.100  0.0849 -0.4501  0.3001
 1892W        W 6092   1.462   2.282   1.495  0.1041  0.0846  0.3360
 1893W        W 6093   1.835   7.815   0.516  0.0634  0.1199 -0.1306
 1894W        W 6094   3.157   2.233   9.669 -0.1806  0.2110  0.0008
 1895W        W 6095   8.632   9.452  11.152  0.0176  0.0160  0.1301
 1896W        W 6096   8.091   1.321   5.071 -0.1564  0.1944 -0.1570
 1897W        W 6097   3.012   8.424   2.023 -0.1286 -0.2784  0.1356
 1898W        W 6098   3.990   0.301   9.550  0.2496  0.1227 -0.1958
 1899W        W 6099   9.291   3.532   2.936 -0.0872 -0.3550 -0.1728
 1900W        W 6100   5.342   3.394   4.206  0.0298  0.1544 -0.0845
 1901W        W 6101   2.183   2.893   9.103  0.1567  0.0185  0.1601
 1902W        W 6102  10.342  10.288   4.795  0.2792  0.1188  0.2259
 1903W        W 6103   3.450   4.290   3.571  0.1716 -0.1360 -0.0097
 1904W        W 6104   2.326   7.639  10.878  0.1474  0.3862 -0.2149
 1905W        W 6105  10.497   9.842   2.460 -0.1699 -0.2178  0.1798
 1906W        W 6106   4.500   9.634  12.825 -0.3727  0.2104  0.1403
 1907W        W 6107   2.419   4.648  11.187 -0.0888 -0.0579  0.3581
 1908W        W 6108   3.373   1.285  11.290 -0.0229  0.1475 -0.0981
 1909W        W 6109   3.704   8.510  12.618  0.1580  0.2539  0.1648
 1910W        W 6110   0.382   4.657   2.691  0.1995 -0.1994 -0.3781
 1911W        W 6111   3.064   0.376   9.551 -0.1224  0.1890 -0.0507
 1912W        W 6112   4.877   3.738   2.564 -0.0407 -0.3198 -0.2411
 1913W        W 6113   8.268  10.240   0.112 -0.1366  0.0503  0.1743
 1914W        W 6114   9.666   9.391   8.663  0.0758  0.1134 -0.2127
 1915W        W 6115   1.646   3.034  12.698 -0.2600  0.0034 -0.0332
 1916W        W 6116   6.606   4.010   9.104  0.0008 -0.2936 -0.0206
 1917W        W 6117   3.664   2.687   2.385  0.1314 -0.0542  0.0732
 1918W        W 6118   2.264   5.504   9.937 -0.0787 -0.0326  0.1218
 1919W        W 6119   0.493   8.701   3.789  0.0455  0.2374  0.0597
 1920W        W 6120   3.951   1.053  10.627 -0.0851  0.2317 -0.1724
 1921W        W 6121   1.972   3.901   3.286  0.0826 -0.0049  0.0868
 1922W        W 6122   1.224   0.893   9.658  0.0741  0.3218  0.0971
 1923W        W 6123   5.034   7.581  13.337  0.3466  0.2213  0.0781
 1924W        W 6124   2.269   6.188  10.843 -0.2612  0.1219  0.3398
 1925W        W 6125   7.619   7.250   3.507  0.0664 -0.2601  0.0815
 1926W        W 6126  10.471   3.591   4.995  0.4712 -0.1039 -0.2842
 1927W        W 6127   3.299   7.351   1.794  0.0016 -0.1344  0.3913
 1928W        W 6128   7.532   0.153   0.738 -0.0157 -0.1125  0.2625
 1929W        W 6129   0.707   5.731   3.476  0.1652  0.1015  0.3030
 1930W        W 6130   5.716   6.440   2.811  0.1049  0.1761 -0.0871
 1931W        W 6131   8.852   1.462   0.864  0.1004  0.0388 -0.1680
 1932W        W 6132   9.695   5.815  10.280 -0.1076  0.0434 -0.1304
 1933W        W 6133   1.048   5.979   1.603  0.1743 -0.0335  0.1086
 1934W        W 6134   5.971   3.739  12.337  0.2070  0.2159  0.0545
 1935W        W 6135   7.507   4.095   2.458  0.1615  0.1666 -0.0617
 1936W        W 6136   1.094   2.525   2.023  0.1433  0.1796 -0.2931
 1937W        W 6137   0.203   1.062  12.693  0.0599  0.0253 -0.2430
 1938W        W 6138   8.392   2.092   9.581 -0.0182  0.1254 -0.0444
 1939W        W 6139   4.577   1.936  11.874  0.2497 -0.0138 -0.2731
 1940W        W 6140   4.429   3.054   9.069 -0.0166  0.1536  0.0980
 1941W        W 6141   5.574   5.860   3.865 -0.0887 -0.0427 -0.1156
 1942W        W 6142   1.285   1.978   4.059 -0.0494  0.0705  0.1593
 1943W        W 6143   1.250   7.105   3.546  0.2085 -0.0599 -0.1522
 1944W        W 6144   3.400   1.535  10.836 -0.3080  0.1607  0.1318
 1945W        W 6145   3.587   4.249   9.637  0.0288 -0.1327  0.0104
 1946W        W 6146   0.025   3.161  11.714  0.2377  0.3121 -0.0882
 1947W        W 6147   4.199   2.098   2.938 -0.1966 -0.1893 -0.2058
 1948W        W 6148   1.826   2.996   1.402  0.1779 -0.2513 -0.1930
 1949W        W 6149   3.565   3.578   8.931  0.3866 -0.0626 -0.2127
 1950W        W 6150   8.688   6.193  11.532  0.2637 -0.1724 -0.0334
 1951W        W 6151   9.495   6.335   2.940  0.0258 -0.1692  0.0786
 1952W        W 6152   1.264   3.192   3.244  0.0518  0.0845  0.0054
 1953W        W 6153   1.875   5.354  12.209 -0.0899 -0.3109 -0.0105
 1954W        W 6154   6.241   9.653   2.624  0.0182  0.1783 -0.1883
 1955W        W 6155   7.210   4.571   0.622 -0.3492  0.1403  0.0849
 1956W        W 6156   6.468   1.106   3.041 -0.5092 -0.1074  0.1523
 1957W        W 6157   1.695   6.355   0.390  0.2607 -0.1932  0.0396
 1958W        W 6158   3.244   0.530  10.015 -0.1433 -0.0463 -0.1676
 1959W        W 6159   0.381   0.973   1.396  0.2527 -0.0943  0.1992
 1960W        W 6160   6.071   0.181  12.089  0.0421  0.2787 -0.0531
 1961W        W 6161   0.264   6.095  10.358 -0.0099  0.0263 -0.0617
 1962W        W 6162   3.478   7.806   2.720 -0.1613  0.1118  0.0066
 1963W        W 6163   6.411   2.258  10.137  0.2224  0.1045 -0.3535
 1964W        W 6164   0.746   0.098  11.626  0.1670 -0.1369 -0.0012
 1965W        W 6165   7.770   6.740   3.850 -0.0064  0.0358  0.3052
 1966W        W 6166   9.401   1.408  11.546 -0.0046 -0.1280 -0.1892
 1967W        W 6167  10.504   4.369   0.501 -0.3012  0.2349  0.0163
 1968W        W 6168   8.203   9.225   0.333 -0.3788  0.1327  0.2069
 1969W        W 6169   7.897   5.774   3.467 -0.0173  0.3074 -0.2859
 1970W        W 6170   3.562   2.573  11.817 -0.1005 -0.0668  0.0094
 1971W        W 6171   4.028   6.460  13.321  0.0512  0.0534 -0.0734
 1972W        W 6172   8.404   5.118   3.006 -0.0173  0.0773  0.4021
 1973W        W 6173   5.827  10.387  12.556 -0.0275 -0.1856  0.0280
 1974W        W 6174   8.782   2.871   9.343 -0.0025 -0.1267 -0.4077
 1975W        W 6175   3.830   0.809   3.839 -0.1773 -0.1198 -0.1307
 1976W        W 6176   1.807   4.999   2.476  0.1242 -0.5450  0.1576
 1977W        W 6177   2.641   4.944   2.064  0.4972 -0.1873 -0.1263
 1978W        W 6178   5.073  10.215   0.142 -0.1842  0.0728 -0.1279
 1979W        W 6179  10.304   1.364   2.877 -0.1626 -0.1127  0.4720
 1980W        W 6180   3.919   0.863  12.379 -0.0546  0.2142  0.0612
 1981W        W 6181   5.931  10.121   2.874 -0.0648 -0.0394 -0.0302
 1982W        W 6182   2.250   4.539   1.940 -0.2083  0.1449  0.1132
 1983W        W 6183   0.376   0.837   0.917  0.1022  0.0008  0.0262
 1984W        W 6184   7.460   1.653  10.693 -0.1602  0.0207  0.1089
 1985W        W 6185   8.907   2.743  13.221 -0.1702 -0.3981 -0.2800
 1986W        W 6186   4.718   4.237   0.868  0.0354  0.0395  0.3437
 1987W        W 6187   5.548   6.921   0.104 -0.0483 -0.1652 -0.2295
 1988W        W 6188   6.383   4.211   3.523  0.2306  0.0862 -0.1253
 1989W        W 6189   9.749   7.503   8.474 -0.0718  0.1600  0.1254
 1990W        W 6190   7.449   5.622   8.579 -0.1167 -0.0908 -0.1178
 1991W        W 6191   2.600   8.416   3.463 -0.3689 -0.1039  0.1643
 1992W        W 6192   9.192   2.962  10.465 -0.0063  0.2828 -0.0858
 1993W        W 6193   9.729   2.415  10.746 -0.1056  0.2589 -0.0706
 1994W        W 6194   2.728   6.905   2.277  0.1316 -0.1842  0.0920
 1995W        W 6195   5.206   4.946   0.462 -0.0931  0.0389  0.0168
 1996W        W 6196   5.870   9.013   9.934 -0.1060  0.4669 -0.0376
 1997W        W 6197   4.152   7.979  10.390 -0.3104 -0.0766 -0.0290
 1998W        W 6198   4.729   3.875   3.989  0.2499  0.1486  0.0287
 1999W        W 6199   0.699  10.170  10.241  0.2599  0.0406 -0.2333
 2000W        W 6200   3.573   5.626   0.939 -0.0883 -0.0735  0.0994
 2001W        W 6201   8.423   0.669   3.930 -0.0693  0.0616  0.1832
 2002W        W 6202   1.106   7.897  11.488  0.0725 -0.0612  0.0700
 2003W        W 6203   7.316   6.009   8.864 -0.4064  0.3579 -0.2438
 2004W        W 6204   3.178   8.590   0.816  0.0815 -0.3986  0.2363
 2005W        W 6205   2.269   1.645  11.812  0.0302 -0.1196 -0.0060
 2006W        W 6206   8.274   9.706   0.534  0.3125  0.0159 -0.3887
 2007W        W 6207   1.290   9.045   0.915  0.0640 -0.2895  0.1346
 2008W        W 6208   5.553   2.541  12.757  0.0361  0.3475  0.1298
 2009W        W 6209   6.057   2.338  12.802  0.2769  0.1911 -0.2090
 2010W        W 6210   8.256   4.804  10.372 -0.4393 -0.0767  0.1018
 2011W        W 6211   7.720   3.689   2.301 -0.1256  0.1225  0.1454
 2012W        W 6212   4.943   4.582   2.497  0.4847 -0.1742 -0.1042
 2013W        W 6213   9.573   7.564  10.530 -0.0139  0.2135  0.1124
 2014W        W 6214   5.527   7.666  10.683 -0.0298  0.1594  0.1033
 2015W        W 6215   3.640   6.866   2.493 -0.0742  0.4752  0.5538
 2016W        W 6216   7.547   1.608   9.634  0.1053  0.1750 -0.0409
 2017W        W 6217   9.188   2.570   2.803 -0.1567 -0.2161  0.0538
 2018W        W 6218   3.808   2.227   1.724  0.0388  0.1065 -0.1222
 2019W        W 6219   0.169   2.289   1.829  0.0458 -0.0853  0.2404
 2020W        W 6220   2.368   1.868   3.963 -0.1161 -0.2233  0.0068
 2021W        W 6221   2.630   3.324   2.962 -0.0040 -0.1142  0.0195
 2022W        W 6222   2.705   2.377   9.616 -0.2582  0.0012 -0.0721
 2023W        W 6223   2.435   5.836   3.160 -0.0584 -0.0611 -0.0098
 2024W        W 6224   9.636   1.366   3.173 -0.2072  0.2905 -0.2088
 2025W        W 6225   5.245   5.597   0.828 -0.0744 -0.2270 -0.3721
 2026W        W 6226   6.031   1.557   0.992 -0.0295  0.2165  0.0890
 2027W        W 6227   5.534   1.058  10.746  0.1040 -0.3379 -0.1538
 2028W        W 6228   7.070   3.223   3.426 -0.0357  0.2035 -0.1277
 2029W        W 6229   7.227   8.934  11.875 -0.0922 -0.2069 -0.2961
 2030W        W 6230  10.011   3.883   9.762 -0.1197  0.0879  0.0915
 2031W        W 6231   3.960   8.542   0.633 -0.0050 -0.0203 -0.1364
 2032W        W 6232   8.953   5.636  12.470  0.0503  0.0978 -0.0261
 2033W        W 6233   1.074   1.633  10.560  0.0825  0.3287  0.2119
 2034W        W 6234   0.072   6.820   0.622 -0.2097  0.0519 -0.0325
 2035W        W 6235   2.748   5.936  13.071  0.0976  0.0261  0.3185
 2036W        W 6236   4.940   4.507  10.972 -0.0665 -0.1157  0.3490
 2037W        W 6237   2.450   4.355   0.868 -0.2304  0.0000 -0.0655
 2038W        W 6238   8.091   6.746  11.469 -0.0132 -0.4702  0.1390
 2039W        W 6239   8.858   8.345   2.942  0.0197  0.0635  0.0824
 2040W        W 6240   2.267   7.483   9.617  0.2421  0.0086 -0.4361
 2041W        W 6241   0.636   7.324   3.158  0.2500  0.2355  0.0727
 2042W        W 6242   7.796   4.683   4.255  0.1460 -0.0675  0.2146
 2043W        W 6243   0.500   5.479   8.949  0.2502 -0.2812 -0.0627
 2044W        W 6244   4.177   7.120   3.748  0.0516  0.1134  0.0415
 2045W        W 6245   2.971  10.140   3.183 -0.0055  0.0941  0.3509
 2046W        W 6246  10.312   7.834  13.076 -0.0321  0.2789  0.0791
 2047W        W 6247   0.069   4.071   3.743 -0.3206 -0.0193 -0.0005
 2048W        W 6248   4.610   4.560   2.867  0.0517  0.0271  0.0992
 2049W        W 6249   5.969   7.911   2.545  0.1091 -0.1142 -0.2972
 2050W        W 6250   4.603   3.678  10.533 -0.1384 -0.0015 -0.3086
 2051W        W 6251   0.585   6.941   2.827  0.0408  0.0117 -0.0863
 2052W        W 6252   9.295   5.253   4.054  0.1994  0.1993  0.1682
 2053W        W 6253   0.023   5.229  10.655  0.1614  0.1494 -0.0633
 2054W        W 6254   3.798   6.524  12.746  0.0079  0.1762  0.2510
 2055W        W 6255   5.595   0.213   4.705 -0.3356  0.2708  0.1944
 2056W        W 6256   0.413   4.258   4.043  0.2160  0.3029 -0.0088
 2057W        W 6257   3.973   1.623  12.990 -0.0953  0.4273  0.1747
 2058W        W 6258   9.256   0.582   2.081  0.0147  0.1658  0.1649
 2059W        W 6259   8.761   8.622  12.220  0.0515 -0.0266 -0.1517
 2060W        W 6260   0.192   0.595  12.317  0.0464 -0.3756  0.0157
 2061W        W 6261   2.216   3.167  12.286  0.0430  0.0883 -0.0109
 2062W        W 6262  10.141   5.325   4.297 -0.1744 -0.2322 -0.3514
 2063W        W 6263   0.731   1.988  12.767  0.0504 -0.0379  0.3092
 2064W        W 6264   0.372   7.883   8.553  0.2706  0.1780  0.0067
 2065W        W 6265  10.064   0.973   8.044 -0.1857 -0.0153 -0.0711
 2066W        W 6266   8.521   4.625  13.135  0.2056 -0.0748 -0.0908
 2067W        W 6267   4.169   3.723   3.954 -0.2633  0.3023 -0.0708
 2068W        W 6268   7.231   9.084  12.375 -0.2831 -0.1481  0.1013
 2069W        W 6269   0.688   9.669  10.620 -0.0499  0.2982 -0.1688
 2070W        W 6270   3.656   0.929  13.177 -0.1365 -0.1382  0.0910
 2071W        W 6271   7.526   7.078   1.533 -0.1321  0.1492  0.0688
 2072W        W 6272   5.177   9.430   0.501 -0.1701  0.1705 -0.0731
 2073W        W 6273   1.182   1.033   3.580 -0.1137  0.1744  0.1082
 2074W        W 6274   7.032   3.644   3.732  0.1535  0.2852 -0.2488
 2075W        W 6275   8.103   4.886   0.554  0.1175  0.1014  0.0777
 2076W        W 6276   4.915   7.924   1.342 -0.0461  0.0872 -0.0099
 2077W        W 6277   2.914   8.027  10.126 -0.1290  0.0940  0.0220
 2078W        W 6278   4.815   9.971   2.410  0.3336  0.2047 -0.0872
 2079W        W 6279   2.504   1.114   9.460  0.0165 -0.0861  0.1013
 2080W        W 6280   5.507   1.899   9.057 -0.1226 -0.6352 -0.1960
 2081W        W 6281   8.657   2.687   0.460 -0.0985 -0.4695  0.1369
 2082W        W 6282   2.802   9.865   0.208  0.0813 -0.0440 -0.1255
 2083W        W 6283   1.005   1.617   2.509 -0.1480  0.0429 -0.0129
 2084W        W 6284   3.745   0.689   1.911 -0.0540 -0.0457  0.1965
 2085W        W 6285   5.511   9.834  10.731  0.1436  0.1882 -0.4107
 2086W        W 6286   4.035   7.595  11.559  0.2751  0.1422 -0.1245
 2087W        W 6287   9.308   1.829   2.006 -0.0362  0.1212 -0.1370
 2088W        W 6288   9.353   9.914  12.339  0.1478 -0.2391 -0.0141
 2089W        W 6289   9.885   1.322   0.142  0.1140 -0.1051 -0.0717
 2090W        W 6290   3.249   5.468   4.244 -0.0284  0.3301 -0.1528
 2091W        W 6291   2.604   3.439   9.923  0.1564  0.1533 -0.0612
 2092W        W 6292   7.912   9.514  12.304  0.1051 -0.3283 -0.2566
 2093W        W 6293   8.183   6.468   0.982  0.1110 -0.4809 -0.1346
 2094W        W 6294   8.583   3.061   0.775  0.2763 -0.1156 -0.1345
 2095W        W 6295   6.294   3.069  10.463  0.2208 -0.0688  0.1549
 2096W        W 6296   4.186   8.463   9.582  0.1854 -0.2804  0.2922
 2097W        W 6297   7.738   4.244   0.041 -0.3721 -0.2076  0.0728
 2098W        W 6298   3.499   6.204   0.165  0.1124  0.0108 -0.3263
 2099W        W 6299   6.690   1.172  10.971  0.2530  0.1936  0.1598
 2100W        W 6300   9.968   1.026  11.077 -0.2426  0.1228  0.1800
 2101W        W 6301   7.714   2.475  10.107  0.1357 -0.2835  0.1347
 2102W        W 6302   2.573   0.792   1.692  0.1426  0.1310  0.2507
 2103W        W 6303   4.699   6.696   3.402  0.1186 -0.0956 -0.0731
 2104W        W 6304   7.909   9.999   0.292  0.1577 -0.2445 -0.3210
 2105W        W 6305   8.110   8.186   2.362  0.0198 -0.1881 -0.1166
 2106W        W 6306   5.687   9.889  11.729 -0.2957 -0.1147  0.0277
 2107W        W 6307   3.969   4.924  11.226 -0.0468 -0.2480  0.1006
 2108W        W 6308  10.060   5.091  10.680  0.2126 -0.0321  0.2605
 2109W        W 6309   9.915   9.462   2.697 -0.1831 -0.1915  0.0403
 2110W        W 6310   2.331   5.132   4.293 -0.1952 -0.0102  0.4043
 2111W        W 6311   1.000   9.572   2.583  0.1706  0.1473 -0.1303
 2112W        W 6312   9.083   9.130   0.041 -0.2453  0.3198 -0.1819
 2113W        W 6313   4.279   5.743   2.023 -0.0504  0.2018  0.0937
 2114W        W 6314   3.442  10.229   1.029 -0.1319  0.1757  0.1940
 2115W        W 6315   4.578   7.697  10.475 -0.2213  0.2059 -0.2430
 2116W        W 6316   4.593   6.577   4.360 -0.1664  0.2590  0.0657
 2117W        W 6317   5.856   6.100  12.931  0.1902 -0.2201 -0.0851
 2118W        W 6318   2.965   8.441  10.794 -0.1205  0.0905 -0.1979
 2119W        W 6319   5.852   2.862   8.962 -0.0396  0.1542 -0.0754
 2120W        W 6320   7.537   8.077   0.544  0.2350 -0.4341  0.4326
 2121W        W 6321   3.938   5.425  11.127 -0.1317  0.0004 -0.0182
 2122W        W 6322   5.497   2.780   9.453  0.0543  0.1256  0.1150
 2123W        W 6323   2.795   5.345   0.400  0.0249 -0.2704 -0.1085
 2124W        W 6324   8.446   1.623  10.441 -0.2358  0.1083  0.0451
 2125W        W 6325   1.705   3.654   0.802 -0.0885 -0.3892  0.0240
 2126W        W 6326   7.817   1.452   0.523  0.3397 -0.0227  0.2655
 2127W        W 6327   7.279   1.276   3.483 -0.2005 -0.3040  0.1033
 2128W        W 6328   2.495   1.341   3.955 -0.0387 -0.0189  0.0011
 2129W        W 6329   1.379   3.866   4.772  0.0825  0.1052 -0.0678
 2130W        W 6330   7.822   5.295  13.028 -0.0498 -0.2447 -0.0199
 2131W        W 6331   6.959   9.995   1.116  0.1918 -0.0172  0.1508
 2132W        W 6332   6.589   8.699   3.039 -0.0849 -0.4261  0.1590
 2133W        W 6333   8.954   5.327   2.930 -0.3382 -0.0743  0.0439
 2134W        W 6334   9.303   7.934   0.714  0.1442 -0.0072  0.0447
 2135W        W 6335   9.633   4.711  12.833 -0.0582 -0.3401  0.1982
 2136W        W 6336   5.425   1.292   1.751  0.2646  0.1427 -0.3725
 2137W        W 6337   1.394   8.162   0.743 -0.2493 -0.2124 -0.1897
 2138W        W 6338   0.852   7.434   1.528 -0.1403  0.0397  0.1625
 2139W        W 6339   3.211   8.247   2.768  0.1023  0.2968 -0.0692
 2140W        W 6340   7.250   8.406   3.609 -0.0692 -0.0384 -0.1042
 2141W        W 6341   2.927   0.705   3.428 -0.0573 -0.2385  0.0812
 2142W        W 6342   3.255   7.531  13.361  0.1868  0.1147  0.3842
 2143W        W 6343   5.284   5.558  10.984  0.0349  0.0908  0.0324
 2144W        W 6344   8.637   5.748   3.220 -0.2647 -0.1004 -0.0839
 2145W        W 6345   5.113   6.150   0.182 -0.0383  0.1750 -0.0032
 2146W        W 6346   7.989   0.642   2.796 -0.1412  0.0622  0.0036
 2147W        W 6347   3.615   4.098   5.004  0.0625 -0.0689  0.0163
 2148W        W 6348   0.571   7.166  11.041  0.0139 -0.0425  0.1301
 2149W        W 6349   5.123   4.851   2.005 -0.0309  0.2834 -0.1463
 2150W        W 6350   7.269   0.585   1.713  0.3679  0.5629 -0.0534
 2151W        W 6351   7.818   0.154  11.678 -0.2273 -0.0374  0.1533
 2152W        W 6352   7.245   6.574   3.069 -0.0201 -0.0811 -0.2618
 2153W        W 6353   4.820   3.388  11.757  0.0381  0.1799 -0.3435
 2154W        W 6354   3.129   3.141   2.958  0.1078 -0.0887 -0.0664
 2155W        W 6355   9.535   9.714   1.344  0.2534 -0.0491 -0.2032
 2156W        W 6356   7.573   9.574  10.005 -0.0898 -0.1743  0.2653
 2157W        W 6357   7.191   5.117  11.944  0.0638 -0.0812  0.1601
 2158W        W 6358   3.570   3.383   3.434  0.1166  0.0284  0.1314
 2159W        W 6359   5.132   2.411   0.500  0.0467  0.0694 -0.2986
 2160W        W 6360  10.435   1.132   4.738  0.0734 -0.2324  0.1569
 2161W        W 6361   3.017   3.838  11.206  0.2921 -0.0800 -0.2989
 2162W        W 6362   2.390   8.090   4.622  0.2644  0.1331 -0.3155
 2163W        W 6363   3.457   3.342  12.546 -0.3060 -0.4540 -0.3361
 2164W        W 6364   8.340   0.160   0.409  0.3997  0.1463  0.1127
 2165W        W 6365   7.629   6.228   3.350 -0.3287  0.0082 -0.1274
 2166W        W 6366   3.462   8.238  11.999 -0.0507  0.2100 -0.0660
 2167W        W 6367   9.469   3.311   0.529  0.2078  0.0121  0.0486
 2168W        W 6368   4.748   7.871   1.836 -0.1211 -0.0921  0.2788
 2169W        W 6369   6.501   0.204   9.879 -0.1878  0.1577  0.2177
 2170W        W 6370   6.436   2.291  11.427 -0.0419  0.2362  0.1906
 2171W        W 6371   6.169   0.663  12.514  0.1415 -0.0139 -0.2489
 2172W        W 6372   3.202   1.607   0.120 -0.0271  0.0231 -0.0946
 2173W        W 6373   4.173   4.128   2.948 -0.4133  0.0501  0.2161
 2174W        W 6374   9.612   9.652   9.494  0.1786  0.3026 -0.0418
 2175W        W 6375   8.054   3.003   3.508  0.0376  0.2651 -0.0408
 2176W        W 6376   7.549   0.857   5.048 -0.0751  0.1656  0.1525
 2177W        W 6377   6.129   5.159   0.272 -0.1951  0.2510  0.3106
 2178W        W 6378   2.305   1.915   0.359  0.0260  0.1444 -0.3201
 2179W        W 6379  10.159   9.004   9.456  0.2032  0.2065 -0.0491
 2180W        W 6380   9.791   9.306   1.908  0.0012  0.2578 -0.3353
 2181W        W 6381   5.539   3.223   3.110  0.2037 -0.0944  0.2297
 2182W        W 6382   1.559   8.698   1.949  0.3361  0.1307  0.0138
 2183W        W 6383   3.641   0.582  11.998 -0.0486 -0.0920  0.2612
 2184W        W 6384   0.749   4.045   4.832 -0.3494 -0.0344 -0.1396
 2185W        W 6385   3.459   1.755  10.359 -0.0118  0.2348 -0.0797
 2186W        W 6386   5.603   1.444   3.755 -0.3762 -0.2068  0.0314
 2187W        W 6387   3.497   2.336   4.056 -0.0434  0.0606 -0.0148
 2188W        W 6388  10.446   0.487   3.189  0.0902 -0.0202 -0.3160
 2189W        W 6389   3.212   8.183  12.772 -0.1834  0.0575 -0.2907
 2190W        W 6390   3.185   0.466   0.364  0.5922 -0.1154 -0.0751
 2191W        W 6391   3.544   4.344   1.339  0.0809  0.1467 -0.1128
 2192W        W 6392   0.953   3.586   9.489 -0.0839  0.2935 -0.0642
 2193W        W 6393   6.978   6.968  11.524 -0.0018  0.0252 -0.4469
 2194W        W 6394   5.569   5.865  11.345 -0.0037  0.0898 -0.1526
 2195W        W 6395   0.582   4.325   0.313  0.0536 -0.0715 -0.4745
 2196W        W 6396  10.424   6.315  11.787 -0.1799 -0.0903  0.0484
 2197W        W 6397   4.912   5.808   1.118 -0.0393 -0.0566 -0.0288
 2198W        W 6398   4.043   4.426   9.174 -0.5316 -0.1845  0.1056
 2199W        W 6399   7.877   7.311   0.451 -0.1182  0.3265 -0.2829
 2200W        W 6400   6.799   8.503   9.749  0.0459 -0.0267 -0.0941
 2201W        W 6401  10.140   1.586   3.357  0.2486 -0.1472 -0.0894
 2202W        W 6402   5.089   2.602   4.184  0.1423  0.1665  0.1492
 2203W        W 6403   1.617   5.027   1.885  0.3022 -0.2258  0.0644
 2204W        W 6404   4.963   7.326   0.940  0.0886  0.1801 -0.1329
 2205W        W 6405   1.279   7.491  11.736  0.0410  0.1153  0.1331
 2206W        W 6406   8.071   8.808  10.154 -0.2699  0.2335 -0.0612
 2207W        W 6407   1.561   2.531  12.706  0.2171 -0.3221 -0.0266
 2208W        W 6408   3.446   1.159  10.434  0.1216  0.1639 -0.2986
 2209W        W 6409  10.294   4.723   0.800  0.0291 -0.0417 -0.0080
 2210W        W 6410   2.866   5.511  13.247  0.1777  0.0711 -0.1050
 2211W        W 6411   4.972   3.513   1.888  0.1124 -0.3703 -0.3048
 2212W        W 6412   1.112   4.689   4.280 -0.1235  0.3529 -0.1449
 2213W        W 6413   3.663   0.807   2.533 -0.2132 -0.1576 -0.0411
 2214W        W 6414   6.921   8.381  12.760  0.0202 -0.0545 -0.1341
 2215W        W 6415   4.399   5.261   0.622 -0.0154 -0.2662 -0.2182
 2216W        W 6416  10.427  10.220   1.041 -0.0776  0.1221 -0.0634
 2217W        W 6417   3.396   5.869  12.265  0.2561 -0.0290 -0.2552
 2218W        W 6418   7.573   2.294   1.318 -0.3325 -0.1477 -0.3900
 2219W        W 6419   0.287   7.413  11.305 -0.0869  0.0801  0.0999
 2220W        W 6420   6.539   6.214  10.462 -0.0603 -0.0837 -0.1235
 2221W        W 6421   0.953  10.410   2.190 -0.2356  0.1631 -0.0281
 2222W        W 6422   2.388   8.714   2.503  0.0381  0.1957  0.0921
 2223W        W 6423   7.822   5.063  11.476  0.1571  0.3133  0.1300
 2224W        W 6424   3.154   7.409  12.346  0.1683 -0.0258  0.1160
 2225W        W 6425  10.286   9.755  10.061 -0.0688 -0.0129 -0.0852
 2226W        W 6426   4.108   1.628  11.098  0.1258 -0.0002 -0.1718
 2227W        W 6427   6.104   1.767  10.437  0.2892  0.0779  0.2929
 2228W        W 6428   6.331   2.425   3.616  0.0653  0.1276 -0.3689
 2229W        W 6429   4.763   3.854   1.619 -0.0487 -0.1427 -0.3109
 2230W        W 6430   3.638   1.740  11.262 -0.1618  0.1432  0.1440
 2231W        W 6431   7.299   2.738  10.047 -0.1105  0.0943  0.2463
 2232W        W 6432   4.941   2.672   3.198 -0.1410  0.0877 -0.0599
 2233W        W 6433   4.975   3.543   4.453 -0.2593  0.1286 -0.0860
 2234W        W 6434   8.322   1.576   8.435  0.2816  0.1410 -0.3528
 2235W        W 6435   6.118   9.968   0.270  0.0462  0.0263 -0.0060
 2236W        W 6436   7.802   2.893  13.041 -0.0355 -0.2321  0.0718
 2237W        W 6437   3.309   0.491  10.920  0.0215  0.0443 -0.1513
 2238W        W 6438   7.586   8.544   0.325  0.0289  0.0528  0.2863
 2239W        W 6439   2.501   9.455   4.273 -0.0125  0.0503  0.0528
 2240W        W 6440   8.007   1.602   2.415 -0.2562 -0.0190 -0.0274
 2241W        W 6441   5.300   6.604   3.291  0.4645  0.0266 -0.0878
 2242W        W 6442   0.352   8.297   2.908 -0.1461 -0.1433  0.1220
 2243W        W 6443   4.661   1.533   4.617  0.0136 -0.0098 -0.0008
 2244W        W 6444   9.646  10.096  10.418  0.2574 -0.0448  0.1928
 2245W        W 6445   7.272   6.938  12.271  0.0483  0.1107  0.1920
 2246W        W 6446   3.441   9.514  10.178  0.2460 -0.2545 -0.2993
 2247W        W 6447   9.915   6.291  12.777 -0.0533  0.1388 -0.1690
 2248W        W 6448   1.738   1.604   8.648 -0.0806  0.3367 -0.2372
 2249W        W 6449   1.858   3.866   3.781  0.1140 -0.1188 -0.0094
 2250W        W 6450   0.888   2.795  10.734  0.1056 -0.0656 -0.2711
 2251W        W 6451   8.880   0.277   0.397 -0.0898  0.0483 -0.1619
 2252W        W 6452   8.133   7.966   4.462  0.0064  0.0412  0.1155
 2253W        W 6453   0.413   2.541  11.015 -0.1460 -0.0300  0.0207
 2254W        W 6454   8.137   5.992   1.019 -0.1464  0.1377  0.1338
 2255W        W 6455   5.604   0.269  12.302 -0.1507  0.1129  0.1777
 2256W        W 6456  10.183   2.746  10.609 -0.0473  0.2448  0.5912
 2257W        W 6457   9.513   7.323   8.887  0.0310 -0.2307  0.1661
 2258W        W 6458   1.682   2.664   3.085  0.0551 -0.2173  0.0144
 2259W        W 6459   7.023   6.855  10.992  0.2158 -0.0598 -0.1259
 2260W        W 6460   3.095   5.716   0.695  0.3826 -0.0863 -0.1618
 2261W        W 6461   6.924   8.533   0.853 -0.0054  0.2714 -0.0348
 2262W        W 6462   7.702  10.190   0.778  0.2168  0.1480  0.0701
 2263W        W 6463   2.081   0.142   2.744 -0.1056  0.0425 -0.3143
 2264W        W 6464   2.749  10.071  12.464  0.3214  0.1220  0.3183
 2265W        W 6465   5.847   1.486  12.618 -0.3540 -0.6507  0.2268
 2266W        W 6466   3.000  10.039   4.646  0.1687 -0.1745 -0.2634
 2267W        W 6467   0.105   4.851   2.003 -0.1022  0.0352  0.2369
 2268W        W 6468   2.478   3.014   0.354  0.0602 -0.2908  0.1803
 2269W        W 6469   1.550   1.832   2.767  0.0509 -0.1391 -0.1165
 2270W        W 6470   6.145   4.925   9.546  0.1128  0.2465 -0.0085
 2271W        W 6471   1.212   6.317  11.614  0.0960  0.2722  0.0731
 2272W        W 6472   3.914   4.859   5.239  0.1509 -0.0742 -0.0907
 2273W        W 6473   8.983   5.049   2.436 -0.0379 -0.2518  0.1668
 2274W        W 6474   6.512   0.261   3.754  0.0132 -0.0103  0.0311
 2275W        W 6475   5.355   6.495   0.620  0.1534 -0.0201 -0.0474
 2276W        W 6476   2.528   2.451  12.832 -0.0111 -0.2884 -0.0418
 2277W        W 6477   4.164   3.306  10.678 -0.2030  0.0851  0.2628
 2278W        W 6478   8.903   6.929   4.099  0.2221  0.1980  0.2580
 2279W        W 6479   3.012   0.617   1.427 -0.0880  0.1293  0.0912
 2280W        W 6480   5.456   9.474   2.320  0.0979  0.1911  0.1273
 2281W        W 6481   3.354   9.770   3.013 -0.0783 -0.2140  0.0086
 2282W        W 6482   3.134   9.279  12.877  0.0285 -0.0681 -0.2173
 2283W        W 6483   0.042   8.441   9.959  0.0783  0.1575  0.2322
 2284W        W 6484   6.481   5.897   3.536  0.1921  0.0487  0.0300
 2285W        W 6485   4.875   4.086   3.036  0.3094 -0.0098  0.2931
 2286W        W 6486   0.023   9.581   0.788 -0.0914 -0.0917 -0.1329
 2287W        W 6487   8.481   9.700  12.872 -0.0376  0.2126  0.1307
 2288W        W 6488   6.250   4.833   0.722  0.0554  0.1979 -0.1591
 2289W        W 6489   0.973   5.740   3.031 -0.2044 -0.0892  0.2391
 2290W        W 6490   5.809   7.343  10.381 -0.2899 -0.3150  0.2988
 2291W        W 6491   6.638   8.448  10.757 -0.0976  0.0716  0.1552
 2292W        W 6492   4.182   6.037   1.257 -0.3069  0.2708  0.0978
 2293W        W 6493   9.067   8.060  11.014 -0.1954  0.0760 -0.3827
 2294W        W 6494   4.593   3.761  11.021  0.0364 -0.1560 -0.2055
 2295W        W 6495   7.415   4.644   4.584  0.1610  0.0422 -0.0076
 2296W        W 6496   9.788   6.560   1.574  0.0322  0.1522 -0.0093
 2297W        W 6497   8.590   4.770   3.560  0.1022  0.2511  0.4013
 2298W        W 6498   2.388   0.371  10.253 -0.3513 -0.0524  0.0619
 2299W        W 6499  10.369   9.296  12.932  0.0879  0.1658 -0.0070
 2300W        W 6500   4.081   0.868   2.231 -0.2746 -0.1579 -0.2591
 2301W        W 6501   7.946   7.739  11.080  0.1431 -0.3821  0.4481
 2302W        W 6502   0.313   9.319   9.929  0.0591  0.3749  0.3896
 2303W        W 6503  10.297   2.311  12.166 -0.0647  0.1764  0.0473
 2304W        W 6504   3.859   7.721   2.363 -0.1274 -0.2761 -0.3085
 2305W        W 6505   3.232   9.490  11.641 -0.0614 -0.1166  0.0672
 2306W        W 6506   9.491   7.276  10.107 -0.0752 -0.1013  0.0424
 2307W        W 6507   3.203   5.113  12.746  0.1138 -0.0377 -0.0788
 2308W        W 6508   0.280   7.974  11.913 -0.0857  0.5963  0.2590
 2309W        W 6509   0.710   5.867  10.390  0.0137  0.2221  0.2368
 2310W        W 6510   8.439   5.893   2.384  0.1003 -0.2153 -0.0512
 2311W        W 6511   3.133   9.713  12.597 -0.0679 -0.0167 -0.1585
 2312W        W 6512   1.067   9.001   9.451 -0.3268 -0.3403 -0.2822
 2313W        W 6513   0.533   2.847  11.826 -0.2919  0.0826 -0.1855
 2314W        W 6514   8.828   3.538  11.594  0.1590  0.4358 -0.2896
 2315W        W 6515   9.929  10.508   1.888  0.1117 -0.0080  0.2547
 2316W        W 6516   0.392   8.047  13.171  0.0776  0.1754 -0.3618
 2317W        W 6517   6.081   7.685   2.102  0.0644  0.0026 -0.0011
 2318W        W 6518  10.350   1.853   2.080  0.4096 -0.1993 -0.0753
 2319W        W 6519   4.686   5.638  12.984  0.2422 -0.2830 -0.0043
 2320W        W 6520   5.386   8.877  11.042 -0.1631  0.0854  0.0088
 2321W        W 6521   4.656  10.364   0.989  0.1169 -0.0146  0.0855
 2322W        W 6522   3.330   9.675   1.764 -0.0399  0.3736 -0.0735
 2323W        W 6523   2.112   8.339  11.994 -0.3802  0.2309 -0.0908
 2324W        W 6524   0.310   8.963  11.782  0.0946 -0.2317 -0.0280
 2325W        W 6525   7.339   6.220   1.503 -0.1794  0.4859 -0.0588
 2326W        W 6526   9.988  10.055   2.714  0.2166 -0.1495 -0.1465
 2327W        W 6527   8.245   3.534   4.213  0.0228 -0.1178  0.3096
 2328W        W 6528   7.942   4.129   1.034  0.0008  0.1277 -0.0567
 2329W        W 6529   2.692   2.838   9.798  0.2497 -0.2543 -0.1667
 2330W        W 6530   5.811   4.943   1.017  0.0600  0.2162 -0.0319
 2331W        W 6531   0.116   9.813   0.340  0.0362 -0.0118  0.0609
 2332W        W 6532   0.983   1.229  10.267  0.1528  0.1193 -0.2777
 2333W        W 6533   1.729   5.150  12.768  0.1563 -0.0601  0.2781
 2334W        W 6534   2.687   6.523  10.819  0.1713 -0.1346 -0.2580
 2335W        W 6535   9.621   6.454   2.434  0.0276  0.4825  0.0424
 2336W        W 6536   3.179   2.744   9.686  0.1089 -0.0128 -0.1140
 2337W        W 6537   2.005   9.825  10.171  0.0431 -0.2905  0.0397
 2338W        W 6538   0.230   4.005   8.702 -0.0627 -0.0748  0.1058
 2339W        W 6539   6.331   6.962   4.012 -0.0722 -0.1454 -0.2027
 2340W        W 6540   4.313  10.021  13.285  0.1625  0.2031 -0.1632
 2341W        W 6541   3.808   4.305  12.546  0.1306 -0.2028  0.4081
 2342W        W 6542   8.058   8.662   3.545 -0.0300  0.3819 -0.0231
 2343W        W 6543   6.152   7.015  10.709 -0.0664 -0.5346 -0.0915
 2344W        W 6544  10.191   5.429   2.671 -0.0847 -0.0076 -0.4968
 2345W        W 6545   1.027   1.401   0.131  0.0940 -0.1437  0.1374
 2346W        W 6546   9.979   6.063   0.834  0.0979  0.1390  0.0227
 2347W        W 6547   9.860   9.103  13.076 -0.4411 -0.4551 -0.0942
 2348W        W 6548   8.112   7.631  12.875 -0.2019  0.1608  0.1259
 2349W        W 6549   7.886  10.396  11.199 -0.0353 -0.3932  0.1134
 2350W        W 6550   2.565   7.406   3.253  0.2066 -0.1486 -0.1595
 2351W        W 6551   1.198   7.588  13.319  0.0443 -0.1560  0.0053
 2352W        W 6552   4.847   7.690  11.246  0.0912  0.2946 -0.3013
 2353W        W 6553   8.931   2.236  10.920  0.0781 -0.2019 -0.0715
 2354W        W 6554   0.631   7.618  11.697 -0.1024  0.0446 -0.0926
 2355W        W 6555   8.462   3.344  12.619 -0.1463 -0.0039 -0.1995
 2356W        W 6556   0.595   1.912  12.290 -0.1235  0.0116  0.0896
 2357W        W 6557   6.491   2.516   3.150  0.1118 -0.2207  0.1588
 2358W        W 6558   8.405   7.578   0.384  0.0159 -0.0625  0.2370
 2359W        W 6559   5.390   5.539  12.037  0.2934  0.0537 -0.0648
 2360W        W 6560   1.866   8.367   0.531  0.1105 -0.0594 -0.0028
 2361W        W 6561   1.324   2.820  13.141  0.1308  0.1167 -0.0070
 2362W        W 6562   3.186   6.942  13.226 -0.1814  0.1802  0.1036
 2363W        W 6563   2.322   4.291   3.651 -0.0248  0.1615 -0.2597
 2364W        W 6564   1.098   2.037   3.015  0.0610  0.2044 -0.1287
 2365W        W 6565   9.197   1.543   8.667  0.0186 -0.1967  0.0682
 2366W        W 6566   7.052  10.236   3.431 -0.2418 -0.0380  0.1580
 2367W        W 6567   0.174   9.219   4.222  0.1319  0.5230 -0.1498
 2368W        W 6568   9.909  10.110  12.634  0.0575  0.1312  0.1410
 2369W        W 6569  10.468   7.208  12.225  0.0745 -0.2912 -0.2188
 2370W        W 6570   1.938   5.411   0.224 -0.1117  0.1705  0.1123
 2371W        W 6571   6.929   2.007  11.561  0.5050  0.0237  0.2189
 2372W        W 6572  10.215   0.524   0.188  0.0195 -0.4133 -0.0020
 2373W        W 6573   6.986   5.533   2.315 -0.1247  0.2448 -0.1252
 2374W        W 6574   0.303   4.171  12.289 -0.0289  0.1542 -0.0391
 2375W        W 6575   0.367   8.175   2.009 -0.2040 -0.2009 -0.1685
 2376W        W 6576   9.020   9.867  11.132 -0.0725 -0.0980 -0.2516
 2377W        W 6577   6.376   3.863  12.876 -0.1500 -0.1603 -0.2429
 2378W        W 6578   7.425   7.109  12.674 -0.0671 -0.0534 -0.2630
 2379W        W 6579   6.047   3.547  10.117  0.0046 -0.0297 -0.2830
 2380W        W 6580   4.335   3.400  10.191 -0.1040 -0.1795  0.0427
 2381W        W 6581   0.502   5.077   9.307  0.0961 -0.0273  0.2562
 2382W        W 6582   9.183   7.981   1.357 -0.1325 -0.1166  0.2401
 2383W        W 6583   9.834   1.356   3.999  0.1169 -0.0282  0.0361
 2384W        W 6584   3.824   9.384   3.992  0.2682 -0.0330  0.0269
 2385W        W 6585   1.658   2.388  12.177 -0.2113 -0.1515 -0.2446
 2386W        W 6586   8.019   3.433  11.791 -0.1831  0.1261  0.0568
 2387W        W 6587   8.614   5.539   9.240  0.3665 -0.0450 -0.1669
 2388W        W 6588   9.198   8.244   9.911  0.0965  0.0692  0.3624
 2389W        W 6589   3.191   2.490  10.930 -0.0952 -0.2226  0.2258
 2390W        W 6590   2.636   1.007   0.698  0.0790 -0.0113 -0.0228
 2391W        W 6591   5.258   9.479  10.977 -0.0699 -0.0917 -0.0998
 2392W        W 6592  10.369   8.530  12.427  0.1704 -0.1401  0.3085
 2393W        W 6593   9.368   5.673   9.422  0.1546 -0.1639 -0.4750
 2394W        W 6594   9.818   7.031   3.864  0.1851 -0.0741  0.0755
 2395W        W 6595   4.544   3.137   4.312  0.2804 -0.0639  0.0867
 2396W        W 6596   3.439   4.879   0.287  0.5634  0.1417 -0.2254
 2397W        W 6597   4.729   6.714   1.304 -0.0525  0.4802 -0.0734
 2398W        W 6598   6.534   2.323   4.346  0.0313  0.0052 -0.0849
 2399W        W 6599   3.374   5.285   3.758 -0.1003 -0.3317 -0.1298
 2400W        W 6600   7.940   2.563  11.935  0.2543 -0.4599 -0.1063
 2401W        W 6601   8.519   4.262   3.543  0.0236 -0.1083  0.3637
 2402W        W 6602   7.855   3.263   3.996  0.0051 -0.2679 -0.4187
 2403W        W 6603   5.873   1.481  11.547  0.1453  0.1175 -0.4146
 2404W        W 6604   6.662   5.467   1.407  0.1489  0.1001  0.0932
 2405W        W 6605   5.435   1.551  11.766  0.0632 -0.2056  0.0681
 2406W        W 6606   7.898   3.418   0.612 -0.0199 -0.1705  0.0275
 2407W        W 6607   9.561   3.380  11.965  0.0238  0.1504 -0.1486
 2408W        W 6608   9.464   8.911  10.195  0.0859  0.0392  0.3907
 2409W        W 6609   1.385   0.630   0.982  0.0143  0.2303 -0.2219
 2410W        W 6610   8.536   1.272   1.133  0.1305  0.2304 -0.0948
 2411W        W 6611   1.727   3.646  10.506 -0.3191  0.2142 -0.3175
 2412W        W 6612  10.010   9.376  12.000  0.2515 -0.4280 -0.1785
 2413W        W 6613   1.042   4.230   1.443 -0.0009 -0.3706 -0.1242
 2414W        W 6614   0.648   2.334  12.020 -0.1804 -0.2298 -0.1399
 2415W        W 6615   8.716   8.908  11.397 -0.1664  0.1455 -0.0535
 2416W        W 6616   0.550   9.034   1.358  0.1055 -0.0885  0.1578
 2417W        W 6617   6.395   8.321  12.739  0.3000 -0.1311  0.1346
 2418W        W 6618   8.036   3.172  12.640 -0.2336 -0.1228 -0.1984
 2419W        W 6619   1.585   1.665   0.926 -0.2246  0.0965 -0.1860
 2420W        W 6620   3.491   2.035   2.147  0.0791 -0.0261  0.0801
 2421W        W 6621   1.237   9.708   1.300 -0.1679 -0.0583  0.1075
 2422W        W 6622   6.847   6.760   0.823  0.0042  0.3249 -0.0660
 2423W        W 6623   9.657   9.762   0.669  0.3088  0.2002  0.0537
 2424W        W 6624   5.390   4.547   2.325  0.1544 -0.1523  0.0960
 2425W        W 6625   5.151   4.152   4.832  0.0374  0.1632 -0.1063
 2426W        W 6626   4.699   2.222  10.665  0.0079  0.3034  0.0649
 2427W        W 6627   2.186   6.869   2.176  0.1638 -0.0739 -0.0485
 2428W        W 6628   2.850   2.103   1.368 -0.0282 -0.1066 -0.1512
 2429W        W 6629   6.098   3.952  10.471 -0.1960  0.3319 -0.1673
 2430W        W 6630   7.918   1.700   1.890  0.1243 -0.1857 -0.1597
 2431W        W 6631   4.651   1.384   3.732  0.1492 -0.0789  0.0944
 2432W        W 6632   6.820   6.190   4.051 -0.1903 -0.2329 -0.1716
 2433W        W 6633   4.377  10.084   0.688 -0.3098  0.2849  0.2137
 2434W        W 6634   9.161   7.959  10.281  0.3631 -0.1121 -0.1203
 2435W        W 6635   7.282   8.790  13.339  0.1685  0.0972  0.2527
 2436W        W 6636   4.111   4.026  12.798  0.4905 -0.4664 -0.2410
 2437W        W 6637   6.828   9.060   2.678  0.0502 -0.0354 -0.1753
 2438W        W 6638   8.174   7.504   0.847 -0.1835  0.2562 -0.3645
 2439W        W 6639   7.963   6.354  11.891  0.3010  0.2685  0.0748
 2440W        W 6640   0.733   6.038  10.845 -0.0256 -0.1256 -0.1291
 2441W        W 6641   7.061   7.485   3.727 -0.1703  0.2325  0.0230
 2442W        W 6642   7.901   6.849   1.245  0.0080 -0.1940 -0.2503
 2443W        W 6643   7.307   1.344   4.035  0.0395  0.0185 -0.0652
 2444W        W 6644   2.377   6.570  11.620  0.1615 -0.1063 -0.2389
 2445W        W 6645   2.557   9.021  12.160  0.0188  0.0947  0.1881
 2446W        W 6646   7.302   2.070   0.756 -0.0712 -0.0568  0.1712
 2447W        W 6647   9.685   3.599   3.896 -0.2002 -0.4562 -0.0239
 2448W        W 6648   2.462   5.707   4.730 -0.2413  0.1307  0.1031
 2449W        W 6649   9.425   3.084   1.000  0.0811 -0.0123  0.0712
 2450W        W 6650   2.785   1.142   0.215 -0.0820  0.0582 -0.0189
 2451W        W 6651   1.343   9.176  10.110 -0.0886  0.1901 -0.1606
 2452W        W 6652   5.684   8.347   0.418 -0.0770 -0.2602 -0.1215
 2453W        W 6653   4.574   3.008   2.638  0.2884  0.0758  0.0644
 2454W        W 6654   2.862   0.760  13.264  0.0810 -0.0465 -0.1893
 2455W        W 6655   9.537   4.142   9.865  0.1050  0.0764  0.0217
 2456W        W 6656   3.050   2.360   4.407 -0.0735  0.1175 -0.2296
 2457W        W 6657   1.636   7.921  10.100 -0.0576 -0.0724  0.0954
 2458W        W 6658   6.442   3.993  10.834  0.4230 -0.0587 -0.0039
 2459W        W 6659   4.761   0.199   9.932 -0.0392 -0.2413  0.0554
 2460W        W 6660   0.303   9.124  11.276  0.0932  0.0704 -0.2169
 2461W        W 6661   1.072   4.889  13.004 -0.1891  0.1322 -0.2392
 2462W        W 6662   3.517   8.960  12.408  0.1952  0.0720 -0.0690
 2463W        W 6663   4.268   3.635   1.572 -0.0761 -0.0717 -0.0372
 2464W        W 6664  10.131   7.794   4.097  0.0885 -0.3514  0.1873
 2465W        W 6665   3.814   1.377   9.211  0.1942  0.0886  0.0283
 2466W        W 6666   7.025   5.310  10.659 -0.2219 -0.1997  0.0584
 2467W        W 6667  10.109   7.024   2.686  0.2857  0.2143 -0.2927
 2468W        W 6668   9.545   2.747   4.109 -0.2917  0.2355  0.1486
 2469W        W 6669   4.575   8.840  10.706 -0.0248  0.0717 -0.0085
 2470W        W 6670   6.612   5.294  12.007 -0.0760  0.0405 -0.1796
 2471W        W 6671   8.885   4.419   2.362 -0.1012  0.0566  0.0702
 2472W        W 6672   6.093   1.215   2.720  0.0802 -0.2370 -0.0257
 2473W        W 6673   6.508   0.770   9.780  0.0911 -0.1803 -0.0224
 2474W        W 6674   9.001   9.884  12.793 -0.2335  0.1667  0.0814
 2475W        W 6675   9.032   1.869   4.017  0.2485  0.0314 -0.2931
 2476W        W 6676   2.266   4.713  10.494 -0.2406  0.0562  0.1795
 2477W        W 6677   6.320   9.013   0.715  0.2312  0.1594  0.1277
 2478W        W 6678   8.025   7.316   3.152 -0.2077 -0.0069 -0.2492
 2479W        W 6679  10.063  10.203  10.195  0.0151  0.1169 -0.1004
 2480W        W 6680   0.032   5.741  10.741 -0.0286  0.0656  0.2076
 2481W        W 6681   1.429   3.438   5.341  0.0667  0.0078  0.3523
 2482W        W 6682   1.862   9.196   3.442  0.2419 -0.1313 -0.6325
 2483W        W 6683   6.277   9.490   1.598  0.2965 -0.2152  0.2027
 2484W        W 6684   9.171   6.721   2.194  0.0663  0.3117  0.1308
 2485W        W 6685   6.024   3.334   3.655 -0.1231  0.0661  0.5010
 2486W        W 6686   0.853   8.787  11.578 -0.3209  0.0342 -0.2149
 2487W        W 6687   5.296   8.496   2.967  0.2698 -0.2390  0.0318
 2488W        W 6688   4.619   9.913   0.301 -0.1759 -0.0641 -0.3143
 2489W        W 6689   7.528   2.815   4.223 -0.2041 -0.0746 -0.3850
 2490W        W 6690   4.406   7.419   2.741 -0.0723 -0.0409  0.0652
 2491W        W 6691   1.974   5.766  11.815  0.2298  0.1130 -0.3080
 2492W        W 6692   7.131   4.454   8.478 -0.0804 -0.0444 -0.0613
 2493W        W 6693   7.536   2.483  12.831 -0.0368  0.2275 -0.0576
 2494W        W 6694  10.323   4.003  12.191 -0.3714 -0.0555  0.0889
 2495W        W 6695   4.345   5.667   2.802 -0.1613  0.1988 -0.2288
 2496W        W 6696   5.267   6.468  12.142 -0.3259 -0.0553 -0.2299
 2497W        W 6697  10.372   6.550  10.096  0.1243  0.0713 -0.1631
 2498W        W 6698   5.570   6.424  12.670 -0.0617 -0.1334 -0.0589
 2499W        W 6699   0.457   3.600   9.574  0.0241 -0.0429  0.3343
 2500W        W 6700   4.682   8.951   3.335 -0.2847 -0.0935 -0.0240
 2501W        W 6701   4.053   8.942  10.574  0.2964  0.0534  0.2078
 2502W        W 6702   9.937   9.774   4.117  0.2902  0.0166  0.0812
 2503W        W 6703   3.097   2.274  11.685 -0.0105  0.0635  0.1527
 2504W        W 6704   2.265   0.331   1.742 -0.0623  0.3389  0.0157
 2505W        W 6705   2.139   4.147   2.731  0.0675  0.1098  0.0983
 2506W        W 6706   3.178   5.014   4.551 -0.0486 -0.0878  0.1444
 2507W        W 6707   7.935   7.794   2.153 -0.0904 -0.0243 -0.2289
 2508W        W 6708   6.557   5.683   0.739 -0.0298 -0.1299 -0.3564
 2509W        W 6709   0.246   6.276  10.788 -0.2101  0.1111 -0.3687
 2510W        W 6710   4.988   4.189  12.598  0.1876  0.2094 -0.2156
 2511W        W 6711   5.009   9.136   2.283 -0.2352 -0.0078  0.0296
 2512W        W 6712   0.936  10.060  12.740 -0.0261  0.0180 -0.1096
 2513W        W 6713   0.863   7.293   0.142 -0.0606  0.2245 -0.1158
 2514W        W 6714   1.946   3.181  10.585  0.0615 -0.2146  0.2111
 2515W        W 6715   9.018   6.844  10.197  0.1688  0.3937  0.0829
 2516W        W 6716   0.212  10.055  11.261 -0.2244 -0.1105 -0.3333
 2517W        W 6717   3.855   7.722   0.064  0.1532 -0.1400  0.0094
 2518W        W 6718   2.694   3.389  13.304 -0.3104  0.1260 -0.1850
 2519W        W 6719   0.847   3.341  11.158 -0.0121 -0.2091  0.3109
 2520W        W 6720   8.718   7.628   5.191 -0.1321  0.4398 -0.0077
 2521W        W 6721   8.237   4.491  12.524  0.0679  0.0401  0.0781
 2522W        W 6722   2.394   0.039   4.639 -0.1587 -0.2157 -0.0276
 2523W        W 6723   7.370   7.196  11.778  0.0625  0.1745 -0.2274
 2524W        W 6724   6.993   2.398  12.440 -0.2456  0.0117 -0.3527
 2525W        W 6725   3.180   9.788   0.612  0.0567  0.0597 -0.1498
 2526W        W 6726   7.368   2.010  13.197  0.3952 -0.1196  0.0316
 2527W        W 6727   8.496  10.312  12.371 -0.0945  0.0658 -0.0530
 2528W        W 6728   6.233   1.641  12.146  0.1466 -0.1664 -0.1510
 2529W        W 6729   9.224   5.151   3.363  0.1639  0.0588  0.2393
 2530W        W 6730   6.839   3.828  12.542 -0.3743  0.0138 -0.0912
 2531W        W 6731  10.444   2.820  12.097  0.2240 -0.1248 -0.2715
 2532W        W 6732   0.643   8.517   5.022 -0.2109 -0.0436 -0.2198
 2533W        W 6733   8.639   8.408   0.153 -0.2759 -0.1850 -0.2209
 2534W        W 6734   4.626   4.871   1.988 -0.1034 -0.0645  0.2038
 2535W        W 6735   9.706   3.751  10.178 -0.2901  0.2520  0.0416
 2536W        W 6736  10.425   0.253  13.239  0.1396 -0.2356 -0.0591
 2537W        W 6737   9.573   8.684   3.077  0.1134 -0.0863  0.1607
 2538W        W 6738   7.986   6.935   2.713 -0.0391  0.1622  0.0008
 2539W        W 6739   6.808  10.354   2.991  0.0227  0.0689  0.1671
 2540W        W 6740   8.397   4.617   3.134  0.0220 -0.0193 -0.1199
 2541W        W 6741   6.951   5.155  12.887  0.1926  0.2057 -0.2921
 2542W        W 6742   1.821   5.813   0.526 -0.1235 -0.0373 -0.2402
 2543W        W 6743   4.847   9.647  11.298 -0.3413 -0.0585  0.2540
 2544W        W 6744   9.336   4.377   8.247 -0.1747  0.0187  0.0671
 2545W        W 6745   5.742   3.211   0.498  0.0171 -0.0338 -0.0412
 2546W        W 6746   2.120   8.216  10.130  0.0050 -0.0596  0.0156
 2547W        W 6747   3.728   4.095   2.018 -0.1384 -0.0131 -0.0991
 2548W        W 6748   1.933   9.548   9.695  0.0725 -0.3118  0.0779
 2549W        W 6749   0.467   1.122  11.052  0.1838  0.1740  0.2449
 2550W        W 6750   8.055   7.653  11.566 -0.0379  0.2309  0.0779
 2551W        W 6751   4.945   6.636  13.362 -0.1139  0.0541  0.2177
 2552W        W 6752   0.537   0.278  12.551 -0.1209  0.2172 -0.3959
 2553W        W 6753   5.485  10.348  13.183  0.0389  0.0483  0.0220
 2554W        W 6754   4.319   8.005  12.069 -0.3291  0.0046 -0.0777
 2555W        W 6755   2.622   9.726   8.644  0.1892  0.2978  0.2698
 2556W        W 6756   0.831   3.365  12.933  0.0355 -0.0369 -0.1476
 2557W        W 6757   3.093  10.008   2.164 -0.1534 -0.0465  0.0854
 2558W        W 6758   4.750   7.332   2.187  0.2299  0.1584 -0.0707
 2559W        W 6759   8.164   0.094  12.048  0.0554  0.3004  0.1524
 2560W        W 6760  10.338   2.601  11.041  0.2253  0.0255  0.0971
 2561W        W 6761   2.670   4.612   9.581 -0.1874  0.0258 -0.0920
 2562W        W 6762   2.478   5.759   1.537 -0.1574 -0.2626  0.1648
 2563W        W 6763   7.908   4.003  13.047 -0.0973 -0.0539 -0.1466
 2564W        W 6764   8.477   0.108   1.765  0.1793 -0.2802  0.0966
 2565W        W 6765   4.421   5.423   0.065 -0.2601  0.1206  0.0916
 2566W        W 6766   5.106   9.906   3.042 -0.1405 -0.2416  0.0509
 2567W        W 6767   8.021   5.545  10.752  0.0906 -0.3063 -0.0486
 2568W        W 6768  10.037   9.454   4.805  0.1838 -0.0768 -0.1577
 2569W        W 6769   3.451   6.424  10.229 -0.1869 -0.1532  0.0292
 2570W        W 6770   1.317   5.357   3.821 -0.0082 -0.1153 -0.0944
 2571W        W 6771   1.881   1.030  10.563 -0.1176 -0.1411  0.0417
 2572W        W 6772  10.321   6.385   5.089 -0.3549 -0.0735  0.0436
 2573W        W 6773   1.768   2.448   3.690 -0.1205  0.2109  0.0336
 2574W        W 6774   9.459   7.216   1.141 -0.0581 -0.3657  0.0321
 2575W        W 6775   7.748   2.239   1.846 -0.2462  0.3004 -0.1076
 2576W        W 6776  10.007   3.572   5.157  0.1626  0.0077 -0.1682
 2577W        W 6777   7.239   6.470  11.270 -0.1382 -0.0017 -0.0864
 2578W        W 6778   2.253   3.468  10.773  0.3354 -0.0387  0.4152
 2579W        W 6779   5.644   0.490   0.825  0.1587  0.0839  0.0987
 2580W        W 6780   5.685   6.156  12.280  0.3408 -0.0544 -0.3792
 2581W        W 6781   7.931   8.340  11.223 -0.0535  0.3061  0.0310
 2582W        W 6782   5.125   0.223  10.265  0.1675 -0.1565 -0.0238
 2583W        W 6783   9.677   4.758   8.473  0.1202  0.0773 -0.2775
 2584W        W 6784   1.770   8.267  11.621 -0.2608  0.2179  0.0746
 2585W        W 6785   7.822   3.920   8.940  0.0772 -0.1735  0.2047
 2586W        W 6786   5.137   4.044   0.827 -0.0662  0.4984  0.1181
 2587W        W 6787   7.103   9.190   3.766  0.1099 -0.0549  0.2295
 2588W        W 6788   4.952   5.841  10.087 -0.0388  0.0539 -0.1730
 2589W        W 6789   2.842   3.433   0.486  0.1066 -0.3781  0.2910
 2590W        W 6790   9.652   4.422   3.527 -0.0112  0.0343  0.1282
 2591W        W 6791   1.122   5.068   4.617 -0.0805 -0.0673 -0.3801
 2592W        W 6792   2.878   8.438  13.081 -0.2770 -0.0030  0.1432
 2593W        W 6793   5.192   0.195   1.888  0.0262  0.0857 -0.2452
 2594W        W 6794   0.484   4.083   2.434  0.0065 -0.4327 -0.0889
 2595W        W 6795   6.138   1.279  10.647 -0.0623 -0.0824  0.1376
 2596W        W 6796   3.254   9.353   9.687 -0.0598 -0.1077  0.0266
 2597W        W 6797   1.539   3.584   9.799 -0.2268 -0.1053  0.1386
 2598W        W 6798   1.133   8.746   2.676 -0.1614 -0.2505 -0.1313
 2599W        W 6799   3.423   5.266  13.331  0.0408  0.1677  0.1049
 2600W        W 6800   5.079   9.586   2.626  0.0408  0.0685 -0.0911
 2601W        W 6801   3.089   3.283  11.355  0.0614  0.0027  0.0868
 2602W        W 6802   7.287   5.145   2.144 -0.0200 -0.0155  0.1590
 2603W        W 6803   1.808   4.525   2.620 -0.0705 -0.1365 -0.1956
 2604W        W 6804   4.442   5.228  10.860  0.0009 -0.4043  0.3429
 2605W        W 6805   9.746   0.077  12.631  0.0958  0.0675  0.1616
 2606W        W 6806   8.445   9.888  10.406 -0.2744  0.1290 -0.2865
 2607W        W 6807  10.478   6.149   2.667 -0.2032 -0.4840  0.0148
 2608W        W 6808   9.720   6.387   1.087  0.0882 -0.2121  0.1574
 2609W        W 6809   1.455   3.332  12.345 -0.0928 -0.1377  0.0255
 2610W        W 6810   1.706   0.045   9.625  0.0992  0.2237  0.1165
 2611W        W 6811   9.288   9.693  10.113 -0.2407 -0.2325 -0.2257
 2612W        W 6812   3.260   5.769   2.284  0.1139  0.2952 -0.1075
 2613W        W 6813   1.450  10.104   9.409  0.1380 -0.0085 -0.2413
 2614W        W 6814   5.411   3.359  11.559  0.1842 -0.1897 -0.0232
 2615W        W 6815   2.241   8.721  13.317  0.2203  0.1105 -0.1072
 2616W        W 6816   1.794   8.104   3.201 -0.4091  0.0380 -0.1831
 2617W        W 6817   0.323   1.622   1.995 -0.1235 -0.0661  0.2302
 2618W        W 6818   8.278   8.649  11.345 -0.1093  0.0265  0.0146
 2619W        W 6819   7.923   9.609   4.045 -0.3070 -0.5562  0.0547
 2620W        W 6820   6.010   8.544  13.032  0.0033 -0.0360 -0.0590
 2621W        W 6821   6.967   5.680  12.104 -0.1445  0.1125 -0.0732
 2622W        W 6822   9.203   3.734   9.961 -0.2821 -0.1341  0.1780
 2623W        W 6823   0.304   2.930   8.897 -0.1196 -0.0998  0.1814
 2624W        W 6824   9.259   3.523   3.479 -0.2191  0.1433  0.2701
 2625W        W 6825   5.851   1.752   0.526 -0.1537  0.1279  0.1972
 2626W        W 6826   3.370   0.597   2.221  0.1584  0.0894  0.1443
 2627W        W 6827   2.968   8.203   1.559 -0.0003  0.1065  0.0103
 2628W        W 6828   8.057   4.236  11.169  0.4336  0.1038 -0.3112
 2629W        W 6829   6.578   3.894   0.738  0.1276  0.0660  0.2372
 2630W        W 6830   0.900   5.402   2.285  0.0576 -0.1957 -0.4091
 2631W        W 6831   4.595   1.441   1.787 -0.0528 -0.0807 -0.1464
 2632W        W 6832   0.436   7.859   9.841 -0.1767 -0.2669  0.0105
 2633W        W 6833   7.859   6.422  10.550  0.0117 -0.1065  0.1288
 2634W        W 6834   2.972   9.796  12.099  0.0368 -0.1045  0.0099
 2635W        W 6835   3.296   4.815  13.186 -0.0718 -0.0249 -0.0801
 2636W        W 6836   3.767   0.661   0.181 -0.1860  0.0123 -0.2539
 2637W        W 6837   4.867   3.649   1.139  0.2449 -0.3307 -0.0877
 2638W        W 6838   1.910   5.912   2.950  0.3387 -0.0421 -0.1027
 2639W        W 6839   0.283   3.346  10.782 -0.1448 -0.0734  0.2231
 2640W        W 6840   2.871   8.424   9.223 -0.2325 -0.2867 -0.1081
 2641W        W 6841   7.387   8.412  12.515 -0.0181  0.2149 -0.0157
 2642W        W 6842   3.488   7.386   2.427  0.1595  0.0663  0.1693
 2643W        W 6843   8.698   5.655  12.031  0.1695  0.1276  0.2920
 2644W        W 6844   6.153   0.276  11.167  0.0216 -0.1862  0.0939
 2645W        W 6845   4.342   6.387   1.612  0.2789  0.0092 -0.1523
 2646W        W 6846   2.902   3.172   2.075  0.0871 -0.1152  0.1161
 2647W        W 6847   0.954   8.711  11.081  0.1753  0.1082 -0.0514
 2648W        W 6848  10.409   7.311   3.912 -0.2654 -0.0753  0.0145
 2649W        W 6849   0.095  10.195   3.239 -0.2893  0.2320  0.1575
 2650W        W 6850   9.513   3.339   1.993 -0.0307  0.1359 -0.1920
 2651W        W 6851   6.720   1.550  12.010  0.1526  0.0654 -0.2557
 2652W        W 6852   7.611   8.408   4.331  0.1774  0.0222  0.0185
 2653W        W 6853   2.772   4.754  12.951 -0.0588 -0.2969 -0.1151
 2654W        W 6854   4.470   8.659  13.126 -0.0541  0.1552  0.1256
 2655W        W 6855   2.004   9.398   0.276 -0.2548  0.0711  0.1534
 2656W        W 6856   7.450   9.995   3.369  0.1328  0.0744  0.2172
 2657W        W 6857   2.267   4.297  13.249 -0.0637  0.0098 -0.0981
 2658W        W 6858   9.363   4.028  11.217  0.0562  0.0979 -0.0451
 2659W        W 6859   2.588   4.901   2.743 -0.1886  0.1013 -0.5162
 2660W        W 6860   6.814   4.083  11.243  0.0930 -0.1105 -0.1476
 2661W        W 6861   0.321   2.644   3.285  0.3024  0.2846  0.3829
 2662W        W 6862   3.588   0.057  12.165 -0.0774 -0.1152  0.0915
 2663W        W 6863   9.064   9.788   3.296 -0.1512  0.2590  0.2168
 2664W        W 6864   2.944   5.076   9.522 -0.0007  0.0910  0.4151
 2665W        W 6865   1.503   2.918   3.575 -0.0136 -0.0945 -0.1450
 2666W        W 6866   9.216   4.081   8.699  0.0822 -0.1870 -0.1748
 2667W        W 6867  10.331   4.365   4.161 -0.0833 -0.1569  0.0897
 2668W        W 6868   5.951   8.857  12.410 -0.1331 -0.2456  0.0440
 2669W        W 6869   0.703   9.022   2.495  0.4482  0.0254  0.1005
 2670W        W 6870   9.939   4.191   0.740  0.0679 -0.0216  0.0483
 2671W        W 6871   1.225   1.873   9.632  0.0756  0.2866  0.0607
 2672W        W 6872   0.046   5.712   2.527  0.0704  0.1484  0.0421
 2673W        W 6873   4.434   3.989   0.545  0.0297 -0.3171 -0.1356
 2674W        W 6874   2.163   3.086  11.047  0.3203  0.3498  0.0768
 2675W        W 6875   4.788  10.098  10.945  0.0644 -0.1517 -0.0423
 2676W        W 6876   4.907   2.895   0.583  0.0120 -0.1396 -0.0112
 2677W        W 6877   4.217   8.613   1.390 -0.0084  0.2184  0.0037
 2678W        W 6878   1.941   1.189   1.459  0.0365  0.2756 -0.3393
 2679W        W 6879   5.279   2.192   9.417  0.1988  0.1215  0.1129
 2680W        W 6880   7.864   8.064   1.585  0.2646  0.2747 -0.1607
 2681W        W 6881   5.793   7.481   3.368 -0.0826  0.0240  0.3137
 2682W        W 6882   6.733   1.897  12.436 -0.3192 -0.2615  0.1666
 2683W        W 6883   3.782   5.308  11.564 -0.2656 -0.0381  0.0241
 2684W        W 6884   9.995   6.361  10.973 -0.2226 -0.2873  0.0712
 2685W        W 6885   1.783  10.005   1.917  0.0128  0.4659 -0.1787
 2686W        W 6886   7.074   4.869   2.566 -0.0173  0.0321 -0.2034
 2687W        W 6887   5.042  10.454   2.303 -0.2050 -0.0213  0.1403
 2688W        W 6888   8.294   9.509  10.833  0.0606  0.1048 -0.0760
 2689W        W 6889   3.342   1.955   4.374 -0.1233  0.2229  0.2250
 2690W        W 6890   8.281  10.365   3.910 -0.1268  0.0630  0.0855
 2691W        W 6891   5.455   3.429  11.066 -0.1126 -0.0633 -0.1762
 2692W        W 6892   8.632   9.930   0.275 -0.2077 -0.1750  0.2608
 2693W        W 6893   0.811   5.159   5.009 -0.0979 -0.0795  0.1798
 2694W        W 6894   1.903   6.340   3.930  0.1170  0.1153 -0.0686
 2695W        W 6895   6.428   0.350   1.786  0.2339  0.1827  0.0736
 2696W        W 6896   5.485   1.354   0.087  0.0081  0.1204 -0.0851
 2697W        W 6897   9.431  10.191  12.757 -0.1736  0.2125 -0.5063
 2698W        W 6898   5.488   6.067   2.485 -0.1930 -0.0558  0.2829
 2699W        W 6899   3.028   3.333   4.340  0.0105 -0.0515 -0.1813
 2700W        W 6900   3.590   6.616   3.419  0.0415  0.3151 -0.1479
 2701W        W 6901   5.690   0.812   0.074 -0.1316  0.0493  0.1333
 2702W        W 6902   4.848   5.605   0.541  0.2436  0.1026 -0.1169
 2703W        W 6903   7.736   4.653  10.423  0.1399  0.2927 -0.0294
 2704W        W 6904   6.930   4.980   3.632  0.0363 -0.0514  0.1422
 2705W        W 6905   1.170   3.114   9.697 -0.0789 -0.0361 -0.0332
 2706W        W 6906   1.097   6.167  10.403 -0.0038 -0.1416 -0.0401
 2707W        W 6907   7.340   9.512  10.999  0.0451  0.0360  0.3023
 2708W        W 6908   4.952   6.809  10.527 -0.2461  0.0191 -0.2442
 2709W        W 6909   3.789   3.859  10.826  0.0516  0.0273  0.0826
 2710W        W 6910   6.136   1.053  11.591  0.1366  0.0677  0.2202
 2711W        W 6911   1.929   6.596   9.815 -0.0534  0.0795 -0.1580
 2712W        W 6912   6.139   3.398   0.748  0.2648 -0.1287 -0.1174
 2713W        W 6913   6.947   6.728  10.351 -0.2711  0.0910 -0.0767
 2714W        W 6914   9.441   7.546  13.136 -0.3086  0.2717  0.1732
 2715W        W 6915   0.381   4.570  12.016 -0.4493  0.0597  0.0138
 2716W        W 6916   9.105   8.427   2.309  0.1904  0.1080 -0.2225
 2717W        W 6917   7.371   5.773  10.451 -0.0217  0.0855 -0.1532
 2718W        W 6918   0.220   9.515  10.950 -0.2333  0.0200 -0.0852
 2719W        W 6919   6.912   2.461  10.759 -0.2655 -0.0749 -0.1578
 2720W        W 6920   2.825   6.042   1.648 -0.1747 -0.1007  0.1155
 2721W        W 6921   3.123   6.877  12.271  0.1271  0.0821  0.1190
 2722W        W 6922   5.526   7.385  11.484 -0.2109 -0.2011  0.2787
 2723W        W 6923   3.116   5.528  10.449 -0.2973 -0.2627 -0.3910
 2724W        W 6924   1.482   6.365   9.296 -0.0797 -0.1141 -0.2232
 2725W        W 6925   2.601  10.342   3.490 -0.2386  0.1614 -0.1952
 2726W        W 6926   1.417   0.895  13.004 -0.2002 -0.1447 -0.2808
 2727W        W 6927   8.190  10.395   1.203 -0.0380 -0.0548  0.4213
 2728W        W 6928   5.054   4.252  13.115  0.1221 -0.1340 -0.2903
 2729W        W 6929  10.308   6.005  11.094 -0.2380  0.2801  0.0409
 2730W        W 6930   5.479   8.399  11.237  0.1364 -0.0646 -0.2512
 2731W        W 6931   8.696   0.538   1.161 -0.0188  0.1306  0.1308
 2732W        W 6932   7.690   2.984  11.698  0.0798 -0.2202 -0.1326
 2733W        W 6933   0.887   4.624  10.570  0.3156 -0.1258 -0.2157
 2734W        W 6934   3.163   2.453   2.915  0.0047 -0.0517 -0.2036
 2735W        W 6935   8.825   4.030  11.422 -0.0608 -0.0231 -0.3391
 2736W        W 6936   6.774   2.310   1.665 -0.0972 -0.3836  0.1373
 2737W        W 6937   4.740   9.565   3.054 -0.0278  0.3911  0.2753
 2738W        W 6938   6.004   8.522   3.179 -0.3059  0.0035 -0.1794
 2739W        W 6939   1.782   8.714   3.279 -0.0596 -0.2958 -0.1620
 2740W        W 6940   3.734   2.752  10.341  0.0581 -0.0306  0.3969
 2741W        W 6941   4.982   3.109   4.841 -0.1295 -0.0898  0.0572
 2742W        W 6942   7.658   9.615   0.046 -0.3734 -0.2917 -0.3337
 2743W        W 6943   3.277   4.140   1.821 -0.0356  0.0135 -0.2490
 2744W        W 6944   1.733   7.851  11.300  0.0244  0.1816 -0.1316
 2745W        W 6945   0.439   3.901  11.557 -0.1073 -0.3423  0.1804
 2746W        W 6946   7.778   3.484   1.823 -0.1445  0.2038 -0.2167
 2747W        W 6947   8.156   6.114  10.751 -0.0932 -0.2026  0.0340
 2748W        W 6948   8.673   8.271  13.038 -0.0748  0.2586  0.1253
 2749W        W 6949   0.636  10.474  12.074  0.2075 -0.1190  0.0400
 2750W        W 6950   9.123   8.648   0.168 -0.3811 -0.1779  0.1192
 2751W        W 6951   4.700   3.633   3.038  0.1532 -0.2270  0.0631
 2752W        W 6952   5.631   2.848  10.689  0.2057  0.0841  0.0756
 2753W        W 6953   2.230   8.975   4.334 -0.1306  0.1808  0.2959
 2754W        W 6954   5.649   3.684   3.363  0.2810 -0.0230 -0.1447
 2755W        W 6955   2.904   2.758   0.557 -0.0798  0.0234 -0.0183
 2756W        W 6956   6.000  10.388  11.689 -0.1720  0.2908 -0.0268
 2757W        W 6957   0.912   8.713  10.297 -0.0301  0.2131 -0.1494
 2758W        W 6958   7.309   8.414   2.666 -0.2807 -0.0327 -0.1073
 2759W        W 6959   9.426   6.896   9.818 -0.0463 -0.3592 -0.0958
 2760W        W 6960   9.512   7.041  13.280 -0.0834 -0.1377 -0.1113
 2761W        W 6961   8.345   1.700   4.451 -0.0953 -0.1342  0.3554
 2762W        W 6962   6.717   2.554   4.003 -0.4028  0.0496 -0.1575
 2763W        W 6963   9.361   2.784   1.969  0.1522 -0.0290  0.1055
 2764W        W 6964   9.351   5.560   3.034 -0.2191 -0.3764  0.0775
 2765W        W 6965   8.184   0.258  10.005  0.1987 -0.1306 -0.0211
 2766W        W 6966   1.818   6.982   0.165  0.1005  0.3648 -0.1758
 2767W        W 6967   6.474   8.462  12.236 -0.1939 -0.0074  0.0540
 2768W        W 6968   1.106  10.063   4.913 -0.0803  0.2286  0.5400
 2769W        W 6969   0.520   8.484  11.369  0.0946 -0.1548  0.0614
 2770W        W 6970   0.355   5.480   0.762 -0.1260  0.0380 -0.0875
 2771W        W 6971   6.801   4.894  11.599  0.0870 -0.0136  0.0379
 2772W        W 6972   4.893   2.238   9.781 -0.4100 -0.1505 -0.2145
 2773W        W 6973   9.811  10.344   0.590  0.0764 -0.0416 -0.0333
 2774W        W 6974   5.703   2.412  10.917 -0.1992  0.0836  0.4097
 2775W        W 6975   1.812   6.817   9.347  0.3479 -0.0192  0.1859
 2776W        W 6976   5.809   8.284  10.553 -0.2419 -0.0659  0.0617
 2777W        W 6977   7.601   5.511  11.827  0.0292 -0.0382  0.3220
 2778W        W 6978   0.159   6.992   4.342 -0.1917  0.1596 -0.0144
 2779W        W 6979   9.803   6.373   0.006  0.0489 -0.1869  0.1875
 2780W        W 6980   5.365   9.088  13.089 -0.1792 -0.0489 -0.0745
 2781W        W 6981   2.269   0.661   0.711  0.1057 -0.1812 -0.1538
 2782W        W 6982   0.368   5.065   2.393  0.3019 -0.0311  0.0649
 2783W        W 6983   8.620   7.837   2.063 -0.2104 -0.2271  0.0362
 2784W        W 6984   3.237   1.496   1.865  0.1571 -0.0693 -0.2283
 2785W        W 6985   8.819   4.843   3.160 -0.1768 -0.1155  0.1633
 2786W        W 6986   1.916   1.609   0.396 -0.1518 -0.1964 -0.0719
 2787W        W 6987   1.867   4.106   8.629  0.0544 -0.1455  0.4191
 2788W        W 6988   6.592   0.781   3.520 -0.1349 -0.0692  0.0302
 2789W        W 6989   5.437   2.544   1.746 -0.0657  0.1015  0.0537
 2790W        W 6990   8.143   4.129  12.063 -0.0500  0.1147 -0.2991
 2791W        W 6991   6.284   5.665   1.141 -0.0370  0.0577 -0.5687
 2792W        W 6992   6.171   1.950   9.029 -0.2821 -0.0022 -0.2317
 2793W        W 6993   9.130   4.668   2.755  0.0277 -0.0982 -0.2713
 2794W        W 6994   3.653   0.458   0.620 -0.0078  0.0242 -0.0529
 2795W        W 6995   2.387   9.798  11.061 -0.0744 -0.0169 -0.0005
 2796W        W 6996   8.577   6.742   0.725 -0.0832 -0.1290 -0.4008
 2797W        W 6997   7.879   2.617   0.283 -0.0735 -0.0126  0.0454
 2798W        W 6998   2.126   7.845   0.104  0.3778  0.2672  0.3058
 2799W        W 6999   1.714   3.134  13.335 -0.0924  0.2735  0.0201
 2800W        W 7000   8.098   3.454   8.162  0.0734  0.0751 -0.0793
 2801W        W 7001   2.044  10.459   8.748 -0.3245  0.2456  0.0610
 2802W        W 7002   7.945   6.870   2.174 -0.3847 -0.3065 -0.4125
 2803W        W 7003   0.132   3.484   3.798  0.0879 -0.0471  0.0049
 2804W        W 7004   0.376   6.595  10.183  0.0501  0.1340 -0.1120
 2805W        W 7005   6.252   4.932   2.177 -0.0499  0.0551  0.1157
 2806W        W 7006   6.484   9.260   2.319 -0.2291 -0.2412 -0.1240
 2807W        W 7007   9.133   5.161  10.724 -0.1912  0.3589 -0.1154
 2808W        W 7008   0.609   2.548  10.112 -0.0601  0.1096  0.0153
 2809W        W 7009   4.734   1.720   4.062  0.0488 -0.3862  0.1093
 2810W        W 7010   2.128   7.054  11.856  0.1188 -0.2730 -0.0049
 2811W        W 7011   0.637   6.436   5.643 -0.2801  0.1907  0.1109
 2812W        W 7012   2.177   5.299  12.562 -0.1448 -0.1566 -0.2368
 2813W        W 7013  10.509   1.808  12.237  0.2520  0.1029 -0.0387
 2814W        W 7014   8.781   5.125  12.707  0.0832 -0.1110  0.0212
 2815W        W 7015   4.429   4.023   0.062  0.1447 -0.3403  0.0401
 2816W        W 7016   5.812   8.695   2.719 -0.0075 -0.0655  0.0000
 2817W        W 7017  10.503   2.861   2.582  0.1338  0.2474 -0.1632
 2818W        W 7018   6.647   4.899   9.339 -0.2098 -0.0196 -0.1034
 2819W        W 7019   0.855   0.703   3.425  0.1461 -0.1063 -0.1908
 2820W        W 7020   2.723   2.544   2.644 -0.0776 -0.2997  0.2204
 2821W        W 7021   1.107   8.343   5.055  0.0480 -0.1071 -0.0415
 2822W        W 7022   0.565   5.800   4.356  0.0705  0.2080 -0.0557
 2823W        W 7023  10.252   3.802   2.664  0.0986  0.2007  0.0499
 2824W        W 7024   0.204  10.215  12.127 -0.0983 -0.0937  0.1537
 2825W        W 7025   8.016   5.683   9.382 -0.2914 -0.2206 -0.4788
 2826W        W 7026   4.758   9.860  13.164 -0.1970  0.3925  0.2902
 2827W        W 7027   2.577   6.439   1.020 -0.2329  0.2171  0.0114
 2828W        W 7028   5.780   6.217  10.496 -0.3161  0.2231  0.0646
 2829W        W 7029   3.768   5.411   2.017 -0.0340 -0.0230  0.0662
 2830W        W 7030   5.811   2.252   9.203 -0.2094  0.3244 -0.1410
 2831W        W 7031   1.128   9.571  12.102 -0.0327  0.0746  0.0407
 2832W        W 7032   5.477   1.530  12.957 -0.2867 -0.0890 -0.3535
 2833W        W 7033   3.938   5.029  10.259 -0.3805 -0.3050  0.0172
 2834W        W 7034   6.974   0.340   0.065 -0.3186 -0.0862  0.2221
 2835W        W 7035   3.602   5.497   1.411 -0.3102  0.2968  0.1889
 2836W        W 7036   5.409   3.830   4.511  0.0531 -0.1364  0.0478
 2837W        W 7037   1.204   2.416   0.733  0.1992  0.0440  0.4423
 2838W        W 7038   6.225   3.598  11.010  0.1154  0.3194  0.0286
 2839W        W 7039   1.423   6.758   9.709 -0.1907 -0.1717 -0.0277
 2840W        W 7040   6.202   6.495   2.850 -0.0202 -0.0554 -0.1364
 2841W        W 7041   1.105   2.101   2.373 -0.0053  0.0628  0.0566
 2842W        W 7042   7.655   9.838   2.905 -0.2786 -0.2498  0.0908
 2843W        W 7043   1.345   5.411   4.928  0.1392  0.0163  0.1962
 2844W        W 7044  10.274   4.371  11.223 -0.2508  0.0541 -0.1052
 2845W        W 7045   8.204   7.008   0.903 -0.3754 -0.1516  0.0560
 2846W        W 7046   9.748   4.109   3.898 -0.0588  0.0141  0.0888
 2847W        W 7047   8.481   2.922   3.079  0.1986 -0.0719 -0.0612
 2848W        W 7048   9.614   0.042  13.076 -0.2821 -0.1928 -0.1658
 2849W        W 7049   6.713   6.599   3.049 -0.2717  0.0299 -0.0157
 2850W        W 7050   8.987   6.894  13.233 -0.0929  0.1654 -0.1593
 2851W        W 7051   3.672   1.739   8.369  0.0234  0.1945  0.0021
 2852W        W 7052  10.180   3.616  12.722  0.0491  0.1564 -0.1363
 2853W        W 7053   8.470   6.783   3.929 -0.0968  0.1666  0.1823
 2854W        W 7054   9.440   4.763   0.358 -0.0501 -0.0156  0.0406
 2855W        W 7055   3.693   6.820  10.551  0.6546  0.0877  0.0557
 2856W        W 7056   1.598   7.858   1.616  0.0760 -0.3796 -0.1633
 2857W        W 7057   5.367   8.153  10.735  0.0780 -0.1911  0.1435
 2858W        W 7058   4.727   4.601  12.855  0.1974  0.0942 -0.5835
 2859W        W 7059   3.775   5.707   3.451  0.0084  0.2586  0.0528
 2860W        W 7060   8.166   8.312  11.688 -0.1602 -0.0044  0.0383
 2861W        W 7061   9.849   1.883  10.687  0.0578 -0.2249 -0.0365
 2862W        W 7062   7.469   3.733  13.048 -0.0430  0.0579  0.0101
 2863W        W 7063   1.198   3.046  11.139  0.1246  0.2676 -0.3570
 2864W        W 7064   2.982   9.327   9.304 -0.0400 -0.0191 -0.0754
 2865W        W 7065   4.063   5.148   4.878 -0.1882  0.0690 -0.1927
 2866W        W 7066   5.869  10.466   2.488 -0.2755  0.0275  0.1604
 2867W        W 7067   8.844   9.995   9.956 -0.2841 -0.0936 -0.3652
 2868W        W 7068  10.081   7.407   1.761 -0.0038 -0.0841 -0.2781
 2869W        W 7069   3.889   0.376   2.562 -0.0488  0.3046  0.1066
 2870W        W 7070   7.772   9.140  12.633  0.0089  0.0685  0.0731
 2871W        W 7071   4.236   6.176  11.570  0.1655  0.1226 -0.2099
 2872W        W 7072   0.915   4.444   3.914  0.2519  0.0182  0.0428
 2873W        W 7073   0.421   5.999  12.018  0.6679  0.0312  0.1504
 2874W        W 7074   5.292   9.643   3.650 -0.4668 -0.0732 -0.1876
 2875W        W 7075   1.349   6.530   2.738  0.2472  0.2058  0.1815
 2876W        W 7076   2.553   3.249   3.521  0.0522  0.2255 -0.2208
 2877W        W 7077   7.272   3.121  13.158  0.1891  0.0691 -0.1013
 2878W        W 7078   7.965   9.327  10.166  0.3271  0.1144 -0.2549
 2879W        W 7079   0.192   5.196   2.890 -0.2433  0.3404 -0.2582
 2880W        W 7080   0.906   0.218  10.155  0.2445  0.3104  0.0405
 2881W        W 7081   4.592   8.397  10.477  0.3246 -0.2089  0.3502
 2882W        W 7082   6.818   2.524  12.952  0.1259 -0.1116 -0.0472
 2883W        W 7083   8.924   1.406   2.164  0.1506  0.3277  0.1232
 2884W        W 7084   1.898   0.706   2.632 -0.4838  0.1120 -0.1710
 2885W        W 7085   3.224   5.803   0.215 -0.1364 -0.0752  0.1821
 2886W        W 7086   8.848   0.980   1.988  0.2939  0.3072 -0.3245
 2887W        W 7087   4.835   1.329   9.052  0.2249 -0.0437 -0.1804
 2888W        W 7088   5.587   7.930  10.236 -0.1270 -0.1682  0.0502
 2889W        W 7089   9.323   2.061   4.418  0.0301  0.1782  0.3495
 2890W        W 7090   9.065   9.315   2.720 -0.0543  0.0542  0.2009
 2891W        W 7091  10.208   5.986   2.231  0.0847  0.1145  0.1018
 2892W        W 7092   8.477   5.393  12.415 -0.1622 -0.0536  0.1554
 2893W        W 7093   0.527   4.321   3.588  0.0599 -0.0199  0.0149
 2894W        W 7094   3.061   6.887  10.872  0.1119 -0.0193 -0.0209
 2895W        W 7095   6.581   3.321   3.682  0.1286  0.1479 -0.2335
 2896W        W 7096   4.827   3.860  13.248 -0.0802  0.3881 -0.3277
 2897W        W 7097   0.870   5.146   4.186  0.0645 -0.1240 -0.0076
 2898W        W 7098   0.662  10.130   3.160 -0.1338  0.1095  0.0720
 2899W        W 7099   0.932  10.140  10.791 -0.1461 -0.2751  0.2502
 2900W        W 7100   7.429   7.158  10.896  0.0888 -0.0534  0.1039
 2901W        W 7101   7.580   0.342   4.117  0.0459  0.4350 -0.0959
 2902W        W 7102   4.625   5.414  12.510  0.0121 -0.0951 -0.0204
 2903W        W 7103   5.647   1.960   2.480  0.1368  0.1426 -0.0222
 2904W        W 7104   9.226  10.270  11.262 -0.3118 -0.1104  0.1164
 2905W        W 7105   0.535   3.743   9.114 -0.3931  0.0268  0.0915
 2906W        W 7106   0.803   9.655   3.048  0.1099 -0.0924  0.0292
 2907W        W 7107   9.447   1.853  12.956  0.0697 -0.1273 -0.2112
 2908W        W 7108   9.195   5.492   2.569 -0.3405  0.1863 -0.0420
 2909W        W 7109   8.473  10.326   4.953  0.0832 -0.0483 -0.4153
 2910W        W 7110   7.959   1.289   2.092 -0.4503  0.2596  0.2350
 2911W        W 7111   2.453   1.597   3.456 -0.1402 -0.1392 -0.0736
 2912W        W 7112   6.217   5.338  11.766 -0.1522  0.1323  0.1183
 2913W        W 7113   9.098   6.947   0.885  0.2018  0.0360  0.0580
 2914W        W 7114   0.737   0.859   1.752 -0.0516 -0.2791  0.0287
 2915W        W 7115   6.426   1.195   0.057 -0.3586 -0.0300  0.2097
 2916W        W 7116  10.058   2.745   3.881  0.0282 -0.4945  0.0190
 2917W        W 7117   4.523   2.089   1.026  0.0671 -0.0582 -0.0386
 2918W        W 7118   9.928   9.063  10.644 -0.1518  0.1819  0.3663
 2919W        W 7119   7.690  10.039  10.155  0.2222  0.3449  0.0202
 2920W        W 7120   0.481   3.311  11.620  0.1648 -0.0565 -0.1128
 2921W        W 7121   5.825   1.120   0.884  0.0803  0.0587  0.2527
 2922W        W 7122   0.614   7.521   3.629 -0.4220 -0.0652  0.1539
 2923W        W 7123   4.353   0.162   3.418  0.1714  0.2882  0.0791
 2924W        W 7124   9.260   0.625  11.397  0.1942 -0.1842  0.0650
 2925W        W 7125   5.769   4.555   1.373 -0.0170  0.2916 -0.0600
 2926W        W 7126   9.168   6.272   0.977 -0.1354 -0.0652  0.2084
 2927W        W 7127   0.691   8.081  12.322 -0.2196 -0.0716  0.1234
 2928W        W 7128   2.335   3.340  11.812  0.0257  0.0635 -0.0806
 2929W        W 7129   1.277   1.469  13.001 -0.1003  0.2743 -0.1320
 2930W        W 7130   1.555   1.166   0.864 -0.1829 -0.2183  0.1093
 2931W        W 7131   0.410   0.023  10.040  0.4373 -0.0646 -0.0861
 2932W        W 7132   9.195   7.489   0.159 -0.1390 -0.2390  0.0722
 2933W        W 7133   5.222   8.922   0.229  0.0258  0.0448 -0.0189
 2934W        W 7134   6.491   7.454   2.377 -0.0963 -0.2006 -0.3742
 2935W        W 7135   2.444   5.240   3.827  0.0439  0.1256  0.1726
 2936W        W 7136   3.336   4.211   4.601 -0.3715  0.5363 -0.2628
 2937W        W 7137   0.113   8.877  12.770 -0.3890  0.3687  0.0551
 2938W        W 7138   5.395   7.810   3.336  0.2556 -0.0829 -0.2150
 2939W        W 7139   6.081   5.640  13.193 -0.1968 -0.2013  0.0874
 2940W        W 7140   0.455   3.612  11.156  0.2302 -0.0197 -0.0661
 2941W        W 7141   1.392   3.001  10.409  0.4757  0.0242  0.0012
 2942W        W 7142   4.592  10.321   2.116 -0.2702 -0.2706  0.0952
 2943W        W 7143   5.667   6.917  12.350  0.1117  0.0038 -0.2316
 2944W        W 7144   6.938   6.481   1.244  0.0846 -0.0644  0.0955
 2945W        W 7145   2.780   3.042  10.256 -0.3468 -0.1912  0.3635
 2946W        W 7146   1.360   0.067   2.458  0.0915  0.3448  0.4755
 2947W        W 7147   6.279   8.917  12.801 -0.3057  0.0582  0.2377
 2948W        W 7148   4.065   3.715  10.457  0.1328  0.0594  0.0256
 2949W        W 7149   8.887   9.917   9.363  0.1477 -0.0656 -0.3015
 2950W        W 7150   0.367   7.919  11.340 -0.1939  0.2212  0.1174
 2951W        W 7151   7.065  10.191  10.363 -0.2106  0.3840 -0.1597
 2952W        W 7152   1.769   3.924   1.270  0.1232 -0.0296  0.0260
 2953W        W 7153   2.898   6.311  11.749  0.2907  0.1354  0.0212
 2954W        W 7154   9.577   3.870  12.064  0.1037 -0.0448  0.0064
 2955W        W 7155   7.783   6.773  12.498 -0.2200 -0.0850 -0.0562
 2956W        W 7156  10.026   1.402   1.790 -0.0923 -0.0088 -0.3150
 2957W        W 7157   9.031   5.808   1.214 -0.0118  0.1198 -0.1512
 2958W        W 7158   2.957   2.396   3.581  0.0538  0.3044  0.0576
 2959W        W 7159   9.952   8.559   2.183 -0.1892 -0.0736 -0.0340
 2960W        W 7160   7.339   8.012  13.365  0.2202 -0.0071  0.4871
 2961W        W 7161   2.602   6.329  10.296 -0.1818 -0.0095  0.2139
 2962W        W 7162   0.952   2.003  11.783  0.0129 -0.1681  0.1316
 2963W        W 7163   9.469   8.348   1.979 -0.0694 -0.0823  0.1355
 2964W        W 7164   8.259   9.289  11.385  0.0645 -0.0702  0.2203
 2965W        W 7165   0.942   4.102  11.771  0.4026 -0.3305  0.1622
 2966W        W 7166   7.996  10.399  12.529 -0.0864 -0.0603  0.0789
 2967W        W 7167  10.334   7.175   4.649 -0.1142  0.4483 -0.1279
 2968W        W 7168   9.126   3.225   0.118  0.1603  0.1173 -0.0588
 2969W        W 7169   1.544   2.155   0.995 -0.1305 -0.1112 -0.0069
 2970W        W 7170   6.226   8.362   2.776 -0.4549 -0.0983 -0.2828
 2971W        W 7171   1.670  10.175   4.070 -0.1353 -0.0203 -0.1090
 2972W        W 7172   8.130  10.028  12.972 -0.1477 -0.2227 -0.3991
 2973W        W 7173   8.551   1.834   0.993 -0.1123  0.0209  0.0141
 2974W        W 7174   7.057   7.040  13.091  0.0294 -0.0683 -0.0796
 2975W        W 7175   8.726   2.964   5.267  0.0788  0.1936  0.3573
 2976W        W 7176   4.256  10.063  10.259 -0.1466  0.2791 -0.3219
 2977W        W 7177  10.492   2.990   3.074  0.0276 -0.2510 -0.1966
 2978W        W 7178   0.017   2.769   1.419 -0.3771 -0.0241  0.0493
 2979W        W 7179   9.381   7.902   3.612 -0.1817 -0.0659  0.0372
 2980W        W 7180   8.272   6.486   2.564  0.1691 -0.0053 -0.0028
 2981W        W 7181   7.751   9.025   0.264 -0.1423 -0.1492  0.0886
 2982W        W 7182   4.253   4.500  13.019  0.5073 -0.0013  0.0096
 2983W        W 7183   7.440   0.042  10.975  0.0684  0.2236  0.0324
 2984W        W 7184   7.433   3.034   1.812 -0.1392  0.2512 -0.2789
 2985W        W 7185   4.884   3.226   0.228 -0.0044 -0.0167  0.2952
 2986W        W 7186   4.142   1.788   0.955 -0.1598 -0.0925  0.0462
 2987W        W 7187   6.501   6.820  12.361 -0.0749  0.1977 -0.1271
 2988W        W 7188   5.749   8.185   1.474 -0.3435  0.0276 -0.1187
 2989W        W 7189   6.788   3.356  10.439 -0.0576 -0.1217 -0.3315
 2990W        W 7190   7.419   3.786  12.518  0.2888  0.0875 -0.2671
 2991W        W 7191   2.051   1.676   2.635  0.5463  0.0737 -0.0182
 2992W        W 7192   1.453   5.660  11.026  0.1980 -0.1674 -0.2358
 2993W        W 7193   5.914   9.811   0.846 -0.1332 -0.1436  0.1451
 2994W        W 7194   2.671   9.562  11.440 -0.1705  0.4639  0.0018
 2995W        W 7195   7.438   2.430  12.254  0.3277  0.2458 -0.0816
 2996W        W 7196  10.108   3.448  11.718  0.1264  0.2219 -0.1405
 2997W        W 7197   2.319   2.874   1.324  0.0762 -0.2332  0.1106
 2998W        W 7198   3.352   1.594   4.762  0.1576 -0.0085  0.1478
 2999W        W 7199   2.971   9.886  13.052 -0.0865  0.1265  0.1782
 3000W        W 7200   2.936   1.756   0.831  0.1198  0.1409  0.2264
 3001W        W 7201   4.810   9.006   1.279 -0.0102  0.2210  0.1641
 3002W        W 7202   6.680   8.238  11.253  0.0753 -0.0181  0.3755
 3003W        W 7203   9.913   3.811  13.080 -0.2365  0.1584 -0.0581
 3004W        W 7204   5.086   0.037  11.569  0.0095 -0.1253  0.0407
 3005W        W 7205   9.493   5.891   0.982 -0.2260 -0.1087  0.3091
 3006W        W 7206   9.404   8.970   4.413 -0.0060  0.1405  0.5136
 3007W        W 7207   5.687   7.592   1.695  0.0381 -0.0741 -0.2189
 3008W        W 7208   5.107   1.687   3.657  0.0984 -0.0236  0.0855
 3009W        W 7209   3.763   7.190  10.273 -0.1102 -0.1436 -0.2036
 3010W        W 7210   0.617   9.768   9.300  0.2274  0.1723 -0.0614
 3011W        W 7211   6.765   2.041   4.039  0.1320  0.3864  0.1676
 3012W        W 7212   0.986   3.269  12.165 -0.0002  0.1341 -0.3202
 3013W        W 7213   1.300   7.494   8.319  0.1050 -0.0370 -0.1372
 3014W        W 7214   9.422   8.603   5.656  0.2387  0.2527  0.0262
 3015W        W 7215   1.324   5.964   0.331 -0.1028  0.1897  0.1998
 3016W        W 7216   8.927   2.837   1.044 -0.0744 -0.0817  0.0517
 3017W        W 7217   2.838   0.162   0.733 -0.0701 -0.4689 -0.0903
 3018W        W 7218   1.221   6.835   5.025  0.0901  0.0483  0.1373
 3019W        W 7219   1.795  10.196   0.239  0.1039 -0.2614 -0.0624
 3020W        W 7220   3.849   9.867  11.113  0.0207 -0.1005  0.0026
 3021W        W 7221   2.664   5.791   1.051  0.0825  0.4657  0.0056
 3022W        W 7222   8.434   2.173   3.622  0.1305 -0.0328 -0.3400
 3023W        W 7223   2.171  10.432  12.585 -0.0497  0.2393 -0.0085
 3024W        W 7224   4.666   5.781   3.756 -0.0852 -0.1964  0.0824
 3025W        W 7225   6.584   8.614   0.527 -0.3286  0.2277 -0.1554
 3026W        W 7226   1.929  10.131  10.569  0.2192 -0.2968  0.3216
 3027W        W 7227   1.261   8.247  13.146  0.3725  0.1047 -0.2006
 3028W        W 7228   2.115   9.508   2.124  0.4166  0.0243 -0.0220
 3029W        W 7229   9.481   1.591  10.118 -0.3113 -0.1622  0.1313
 3030W        W 7230   1.712   1.373  10.874 -0.0544 -0.3334  0.0048
 3031W        W 7231   6.859   0.347   1.385 -0.0028  0.0686 -0.2447
 3032W        W 7232   7.719   1.269   1.031  0.3361 -0.1506  0.0844
 3033W        W 7233   1.573   4.344  10.638 -0.2688 -0.2542  0.1262
 3034W        W 7234   8.471   5.310   2.457 -0.4251  0.0563 -0.0108
 3035W        W 7235   2.391   6.726   4.031 -0.2325 -0.0789  0.1729
 3036W        W 7236   2.807   1.674   3.038 -0.0015  0.1624 -0.1597
 3037W        W 7237   5.987   6.629   1.377 -0.3016  0.1488 -0.3501
 3038W        W 7238   0.648  10.326  11.196  0.0559 -0.1567 -0.2137
 3039W        W 7239   2.332   5.730  12.824 -0.1107  0.0409 -0.0784
 3040W        W 7240   1.907   0.249  12.907  0.1954  0.0310  0.1213
 3041W        W 7241   2.503   7.145  11.007  0.2218  0.1269 -0.0366
 3042W        W 7242   1.872   2.692   2.112 -0.0579  0.2095  0.1440
 3043W        W 7243   3.436   7.325   9.851  0.0606  0.0741  0.0350
 3044W        W 7244   4.463   2.852   4.853  0.0016 -0.0042 -0.0098
 3045W        W 7245   3.222   0.067  13.328  0.1017  0.1558  0.0904
 3046W        W 7246   7.817   6.753   0.721  0.1602  0.0552  0.0165
 3047W        W 7247   6.705   5.968  12.618  0.1662  0.3771 -0.0904
 3048W        W 7248   8.515   9.213  12.676 -0.1345  0.1503  0.2505
 3049W        W 7249   2.632   9.533   2.315  0.0484  0.1356  0.1113
 3050W        W 7250  10.017   6.579   2.769  0.2712 -0.0899  0.0500
 3051W        W 7251   0.440   6.408   1.768 -0.1298 -0.2783 -0.1786
 3052W        W 7252   5.991   9.603  10.760  0.1611  0.0231  0.3085
 3053W        W 7253  10.196   1.890   0.413 -0.1941  0.0142 -0.0897
 3054W        W 7254   1.393   3.191   0.960 -0.1894 -0.1361  0.1203
 3055W        W 7255   7.586   4.315  12.088  0.1449 -0.1383 -0.2615
 3056W        W 7256   3.014   1.265   4.894 -0.5589 -0.1327  0.2225
 3057W        W 7257   2.851   0.335   2.529  0.0941 -0.1046 -0.0216
 3058W        W 7258   7.848   1.347   3.427  0.3937 -0.1661  0.0082
 3059W        W 7259   0.247   6.240   9.873  0.3182 -0.0864  0.1713
 3060W        W 7260   8.642  10.087  13.164 -0.0188  0.0042  0.2687
 3061W        W 7261   2.839   7.028   1.812 -0.3042  0.2430  0.3534
 3062W        W 7262   5.636   3.092   2.545 -0.1091 -0.2569  0.0286
 3063W        W 7263   2.384   6.970  12.368  0.2856  0.0702 -0.0256
 3064W        W 7264   1.885   2.205   2.493 -0.1893 -0.0704  0.0524
 3065W        W 7265   6.677   3.396   8.927  0.0202 -0.0705 -0.5706
 3066W        W 7266   1.352   0.408  10.247 -0.3434  0.0802 -0.2147
 3067W        W 7267   9.681   1.832  11.360 -0.0617  0.4134 -0.1389
 3068W        W 7268   9.020   4.353   1.161 -0.2825  0.3753 -0.1647
 3069W        W 7269   4.891  10.398   9.433  0.1891 -0.1564 -0.4172
 3070W        W 7270   0.945   3.076   1.231 -0.0596  0.0816  0.0096
 3071W        W 7271   3.130   4.332  12.858  0.0894 -0.1014  0.0403
 3072W        W 7272   0.085   3.727  11.852 -0.1307  0.0271 -0.1512
 3073W        W 7273   1.864   4.977  10.566 -0.1624 -0.0319 -0.1284
 3074W        W 7274   6.387   3.572  10.553  0.2952  0.3793 -0.1009
 3075W        W 7275   5.640   9.723  12.503 -0.4255  0.0546 -0.3021
 3076W        W 7276   8.688   0.877  12.771  0.1670  0.1824  0.1634
 3077W        W 7277   0.271   3.866   2.876 -0.2190  0.0121  0.0837
 3078W        W 7278   0.234  10.283   0.623  0.0924 -0.1784 -0.0430
 3079W        W 7279   8.955   0.444  11.774  0.1113  0.2907  0.0780
 3080W        W 7280   7.532   9.893   9.185 -0.2431 -0.1628  0.1305
 3081W        W 7281   8.986   4.799   1.407  0.1732 -0.0959  0.0863
 3082W        W 7282   1.338   4.405  13.035  0.0084  0.0919 -0.0024
 3083W        W 7283   0.057   4.720  11.569  0.2468 -0.2249  0.0079
 3084W        W 7284   0.488   4.560   2.193 -0.1574 -0.2007  0.2023
 3085W        W 7285   5.277   4.481   2.919  0.0233 -0.3535 -0.5536
 3086W        W 7286   4.990   0.438  11.258  0.2123 -0.3717 -0.0478
 3087W        W 7287   1.599   7.452   0.299  0.1266 -0.0344 -0.1006
 3088W        W 7288   4.454   6.337  10.588 -0.1185 -0.3335 -0.1526
 3089W        W 7289   9.806   2.385  12.633 -0.2501  0.3510 -0.1420
 3090W        W 7290   6.809   0.555  11.621 -0.0968 -0.0219 -0.1744
 3091W        W 7291   1.475   5.964   1.388 -0.1551 -0.3633 -0.0759
 3092W        W 7292   8.678   1.689   0.085  0.1058 -0.2588 -0.0651
 3093W        W 7293   0.227   1.926   2.904 -0.0758  0.0336  0.3084
 3094W        W 7294   2.336   1.425   3.033  0.0376 -0.0856 -0.1109
 3095W        W 7295   7.498  10.463   2.033  0.1781 -0.0357  0.3391
 3096W        W 7296   7.405   5.240   3.682  0.1210 -0.3602 -0.0289
 3097W        W 7297   1.822   0.423   8.825  0.3259 -0.0986 -0.2015
 3098W        W 7298  10.026   0.057   2.635  0.0720 -0.0493 -0.0976
 3099W        W 7299   8.584   6.257   3.272 -0.3830  0.0227 -0.1061
 3100W        W 7300   1.651   6.945  11.049  0.0355 -0.0442  0.3126
 3101W        W 7301   0.029   5.294   9.241 -0.2183 -0.0944 -0.0433
 3102W        W 7302   2.354  10.418   1.959  0.0138  0.0752 -0.0889
 3103W        W 7303   6.681   7.158   9.993  0.0346 -0.0819 -0.0482
 3104W        W 7304   5.056   1.710   1.855 -0.0715  0.0105 -0.1081
 3105W        W 7305   9.926   1.879  12.844  0.1998 -0.3768 -0.0749
 3106W        W 7306   3.562   0.158  10.472 -0.0658 -0.2245 -0.2288
 3107W        W 7307   5.896   3.914   9.870 -0.0712  0.2559 -0.1896
 3108W        W 7308   8.738   8.902   1.054 -0.0335  0.1446  0.3108
 3109W        W 7309   0.752   9.680  13.079  0.1700 -0.3154 -0.2261
 3110W        W 7310   6.506   8.939  12.338 -0.0063  0.0660 -0.0977
 3111W        W 7311   4.451   9.384  11.540  0.2198  0.5822 -0.1227
 3112W        W 7312  10.502   7.920  10.090  0.0293 -0.2137 -0.2754
 3113W        W 7313   8.369   5.186  11.530  0.1642 -0.2396  0.0105
 3114W        W 7314   6.925   2.412  11.826 -0.1171 -0.2355 -0.1603
 3115W        W 7315   6.723   6.260   0.738  0.1030 -0.2116 -0.1175
 3116W        W 7316   2.552   7.727  11.332  0.2291  0.0350 -0.0614
 3117W        W 7317   4.993   4.119   9.515  0.0530 -0.1832 -0.0110
 3118W        W 7318   9.492   3.518   0.016  0.2595 -0.1891 -0.0498
 3119W        W 7319  10.391   3.342  12.133  0.0998  0.2121  0.1975
 3120W        W 7320   2.756   7.988   2.802 -0.1729 -0.1207 -0.0291
 3121W        W 7321   1.725   9.902  12.222  0.1081  0.2170  0.3758
 3122W        W 7322   8.129   8.376   4.079  0.1865  0.0421  0.0575
 3123W        W 7323   1.633   7.274  11.441  0.1923 -0.2614  0.1318
 3124W        W 7324   5.624   3.385   9.866  0.2682  0.0993  0.1533
 3125W        W 7325  10.124   8.383  11.583  0.1340 -0.1260 -0.1413
 3126W        W 7326   0.463   8.426  12.773 -0.0584  0.0694 -0.1445
 3127W        W 7327   2.489   0.258   4.201  0.0859  0.0470  0.2336
 3128W        W 7328   0.777   8.976   3.401 -0.0425  0.0225  0.0471
 3129W        W 7329   4.683   7.000   0.324  0.0390  0.0987 -0.0710
 3130W        W 7330   3.355   9.115   0.244 -0.3278  0.0328 -0.0251
 3131W        W 7331   2.960   0.648  12.260 -0.1934  0.0651  0.2954
 3132W        W 7332   6.188   8.373   0.628  0.0585 -0.1356  0.3837
 3133W        W 7333   2.335   3.407   0.663  0.1450 -0.3644 -0.2103
 3134W        W 7334   8.144   1.054  10.714 -0.1102  0.0238  0.0581
 3135W        W 7335  10.493   0.023  10.221  0.0781  0.1245  0.1328
 3136W        W 7336   7.187   3.955   0.646  0.0995  0.2692  0.0250
 3137W        W 7337   5.827   2.783  13.068 -0.0059  0.0783 -0.1703
 3138W        W 7338   7.891   4.414  11.694 -0.1814  0.1719  0.4341
 3139W        W 7339   9.419   5.765   0.504 -0.1809  0.0414  0.2214
 3140W        W 7340   0.780   2.035   0.329  0.1039 -0.1995  0.0968
 3141W        W 7341   9.661  10.352   3.602  0.1089  0.1113  0.1147
 3142W        W 7342   1.068   7.550   3.171  0.2558 -0.1088 -0.2204
 3143W        W 7343   1.350   4.839   2.750  0.2206  0.0993  0.1536
 3144W        W 7344   4.782   3.940  11.679 -0.0150  0.2144 -0.0271
 3145W        W 7345   8.862   3.641  12.859  0.0623  0.1628  0.0321
 3146W        W 7346   0.558   9.741   3.957  0.1620 -0.0886 -0.3785
 3147W        W 7347   3.589   7.830  11.523  0.0703 -0.3735  0.0817
 3148W        W 7348   6.797   4.271   0.441 -0.1026  0.1329 -0.2234
 3149W        W 7349   9.524   0.170   4.009 -0.0992 -0.0785 -0.2667
 3150W        W 7350   7.427   6.093  10.853 -0.3392 -0.1660  0.3153
 3151W        W 7351   0.962   3.410   0.834  0.0343 -0.0437  0.1932
 3152W        W 7352   3.219   4.358  10.868 -0.0601 -0.0350 -0.2870
 3153W        W 7353   8.125   1.369   1.561  0.1441 -0.2510 -0.3369
 3154W        W 7354   9.676   1.529  12.541  0.0504  0.0336  0.3398
 3155W        W 7355   9.374   5.849  12.215  0.0316 -0.0962 -0.3243
 3156W        W 7356   5.613   7.404  13.239 -0.0943  0.1774  0.2208
 3157W        W 7357   6.916   8.755  11.430 -0.3486  0.2304 -0.0004
 3158W        W 7358   2.835   6.897   3.550  0.1670  0.2787 -0.0275
 3159W        W 7359   6.681   2.958  10.116  0.3790 -0.0873  0.4521
 3160W        W 7360   3.811   0.822   0.989  0.1210  0.0163 -0.1785
 3161W        W 7361   5.244   1.607   2.404 -0.3324  0.1202  0.0978
 3162W        W 7362   2.354   4.233  10.718  0.0693 -0.0337  0.0923
 3163W        W 7363   6.312  10.344  10.280 -0.1032 -0.0911  0.1144
 3164W        W 7364   7.621   1.268  10.995  0.0507  0.4723  0.1326
 3165W        W 7365   6.776   1.134   9.510  0.1329 -0.1210  0.4074
 3166W        W 7366   6.134   1.327   0.450  0.2340 -0.1145 -0.2871
 3167W        W 7367   9.078   6.459   4.635  0.5647  0.1416  0.2198
 3168W        W 7368   8.006   1.492  12.832 -0.1253  0.0761  0.1325
 3169W        W 7369   9.291   4.896   0.990  0.0681  0.3214  0.1028
 3170W        W 7370   6.102   0.225  10.476 -0.3349  0.3707  0.0906
 3171W        W 7371   1.281   7.760   4.215 -0.2711 -0.0093  0.1108
 3172W        W 7372   0.754   6.349   2.161  0.4134 -0.3025 -0.1881
 3173W        W 7373   2.604   7.320   9.999 -0.2607 -0.0164 -0.2292
 3174W        W 7374   5.398   6.635   2.308 -0.0212  0.0464  0.1564
 3175W        W 7375   6.227   9.542   9.960 -0.4106  0.2743  0.2037
 3176W        W 7376   4.047   2.900   1.386 -0.0692 -0.0966 -0.1836
 3177W        W 7377   6.507   3.504  10.015  0.0370  0.0921 -0.3379
 3178W        W 7378   4.987   8.174   3.648  0.0036 -0.0094  0.1493
 3179W        W 7379  10.225   6.851   4.185  0.0357  0.3110 -0.1087
 3180W        W 7380   4.922   5.759   9.551  0.0264 -0.2256 -0.2261
 3181W        W 7381   0.184   7.447  13.073 -0.0593 -0.0899 -0.0850
 3182W        W 7382   0.191   5.963  12.425 -0.0281 -0.1971  0.0028
 3183W        W 7383   2.046   2.536  11.777  0.0212  0.4686 -0.1204
 3184W        W 7384   5.838   3.417   1.958  0.2714  0.2569  0.3368
 3185W        W 7385   8.452   2.428  11.668  0.0137 -0.2477  0.0248
 3186W        W 7386   8.213   3.505   9.609  0.2112  0.0912 -0.0381
 3187W        W 7387   8.790   3.989   2.138 -0.1935  0.0951  0.0897
 3188W        W 7388   9.365   1.348   2.669 -0.0943 -0.0853  0.2288
 3189W        W 7389   2.137   5.832   2.022 -0.2103  0.0792 -0.2886
 3190W        W 7390   9.656   1.997   3.266 -0.1924 -0.0406  0.0353
 3191W        W 7391   2.706  10.398   3.968  0.2454 -0.0450  0.2811
 3192W        W 7392   1.044   0.557   1.440 -0.1747 -0.1615  0.1405
 3193W        W 7393   7.608   0.109   4.560  0.0646  0.1424 -0.0174
 3194W        W 7394  10.468   7.500  10.527  0.1048  0.2613  0.1713
 3195W        W 7395   4.129   1.146  13.253 -0.0832 -0.2472 -0.2156
 3196W        W 7396   1.704   6.713   2.250 -0.1423  0.1493 -0.0106
 3197W        W 7397   1.986   5.900   4.869 -0.0371  0.2153 -0.0709
 3198W        W 7398  10.332   4.060   1.046 -0.0062 -0.0437  0.2577
 3199W        W 7399   2.061   2.244  12.899  0.0361  0.0080 -0.3430
 3200W        W 7400   4.457   3.937   3.325 -0.1349 -0.2877 -0.3034
 3201W        W 7401   8.824   9.558  10.160  0.1159  0.1363 -0.2137
 3202W        W 7402   1.580   6.613   8.526 -0.2988 -0.4954 -0.1266
 3203W        W 7403   7.381  10.414   9.888 -0.1040 -0.2300  0.1798
 3204W        W 7404   8.735   4.553   9.589 -0.1822  0.0056 -0.1437
 3205W        W 7405   1.410   7.408   4.612 -0.1023 -0.1927  0.0569
 3206W        W 7406   9.207   3.185   9.464  0.1072  0.2146  0.0355
 3207W        W 7407   4.600   9.525   1.518  0.3501 -0.3374 -0.3102
 3208W        W 7408   1.983   9.124   8.833 -0.1528  0.0654  0.1499
 3209W        W 7409   4.482   7.871   0.603 -0.1400 -0.0248 -0.1995
 3210W        W 7410   0.054   9.343   4.887 -0.0524 -0.1450  0.0526
 3211W        W 7411   6.552   0.734   2.465  0.2365  0.0684  0.2563
 3212W        W 7412   5.191   2.284  12.458 -0.0213 -0.0374 -0.1548
 3213W        W 7413   4.891   5.142   0.777  0.0524 -0.2784 -0.1041
 3214W        W 7414   2.655   0.595   1.005  0.0274 -0.0472  0.2531
 3215W        W 7415   4.566   4.062  12.926 -0.2054 -0.1790 -0.1318
 3216W        W 7416   8.091   7.599   4.081 -0.0205  0.2247 -0.1546
 3217W        W 7417   3.013   3.236   9.753 -0.2948 -0.1650 -0.1715
 3218W        W 7418  10.114   0.089   9.921  0.0975 -0.2117  0.2539
 3219W        W 7419   4.279   3.426   8.245 -0.1266 -0.0218 -0.0847
 3220W        W 7420   0.524   4.482  10.141 -0.3722 -0.0935 -0.0661
 3221W        W 7421   5.051  10.374   3.336 -0.0193 -0.0481  0.2021
 3222W        W 7422   1.311   3.975   9.537  0.2789  0.2238  0.2941
 3223W        W 7423   5.619   1.832   0.156 -0.0305 -0.1876  0.1505
 3224W        W 7424  10.279   0.924  12.451  0.0333 -0.0708  0.3787
 3225W        W 7425   0.552   9.442   3.439 -0.1317 -0.0424 -0.1623
 3226W        W 7426   5.287   7.990  11.696  0.1297 -0.0409  0.0180
 3227W        W 7427   4.569   0.015   2.596  0.2109 -0.2179 -0.0906
 3228W        W 7428   0.412   3.081   0.406  0.2029 -0.1298  0.0467
 3229W        W 7429   5.379   2.155   2.073 -0.2407 -0.1502  0.2265
 3230W        W 7430   4.969   1.350   1.513 -0.0229 -0.0759  0.0033
 3231W        W 7431  10.268   2.676   1.004 -0.3067  0.0691 -0.2854
 3232W        W 7432   0.415   1.462  11.969  0.2506 -0.0298 -0.3067
 3233W        W 7433   6.832   1.844   0.649  0.1524  0.1854  0.0897
 3234W        W 7434   5.217   1.109  11.721  0.1335  0.2413 -0.2679
 3235W        W 7435   7.452   7.650   0.301  0.2999 -0.0852  0.1312
 3236W        W 7436   1.850   3.704   2.521  0.1559  0.2436  0.0300
 3237W        W 7437   2.895   3.720   2.854  0.1223  0.2515  0.0975
 3238W        W 7438   8.819   2.745   3.976 -0.3462  0.1407  0.1273
 3239W        W 7439   3.584   6.811  12.037 -0.0261  0.0652  0.3025
 3240W        W 7440   3.927  10.494  12.706  0.2515 -0.1938 -0.1102
 3241W        W 7441   1.741   7.459  10.984  0.0490 -0.2639 -0.1809
 3242W        W 7442   9.776   4.996   9.502  0.1315 -0.3327  0.0153
 3243W        W 7443   7.826  10.358  13.313  0.0257 -0.1408  0.2875
 3244W        W 7444   7.629   1.006   0.347 -0.3204  0.0011  0.0843
 3245W        W 7445   1.869   2.491   1.216  0.2708  0.1381  0.0331
 3246W        W 7446   5.487  10.306   9.580  0.0152 -0.0491  0.0077
 3247W        W 7447   6.527   1.519  10.377 -0.0375 -0.1935  0.0650
 3248W        W 7448   6.874   0.620  12.950  0.0257  0.3700 -0.2519
 3249W        W 7449   4.180   2.400  12.266  0.1132  0.0328  0.0407
 3250W        W 7450   9.777   8.176   9.360  0.1947  0.1900  0.0601
 3251W        W 7451   7.383   6.097  11.918 -0.1567 -0.1396 -0.1386
 3252W        W 7452   8.192   2.128   1.821 -0.0611 -0.3442  0.1940
 3253W        W 7453   9.465   8.159  11.354 -0.1139  0.3094  0.1993
 3254W        W 7454   0.217   5.159   4.275 -0.1571 -0.1058  0.2331
 3255W        W 7455   1.334   1.683   5.394 -0.0587 -0.1266 -0.1264
 3256W        W 7456   7.769   3.251   2.776 -0.0999 -0.0210 -0.0259
 3257W        W 7457   1.254   7.725  12.821 -0.3502  0.0245 -0.1188
 3258W        W 7458   9.662   3.945   2.440  0.1061  0.2182  0.0622
 3259W        W 7459   8.881  10.119   1.102  0.3049 -0.3333 -0.1313
 3260W        W 7460   5.766   2.643   3.680 -0.1385  0.0952 -0.3456
 3261W        W 7461   9.332   2.540   0.749 -0.2370  0.0681 -0.2285
 3262W        W 7462   6.834   9.371  12.230 -0.1171  0.0855  0.0581
 3263W        W 7463   1.581   1.377   3.689 -0.2343 -0.1435 -0.0290
 3264W        W 7464   5.572   4.213  12.580 -0.0324 -0.2041 -0.0806
 3265W        W 7465   6.211   3.377   4.122  0.2161  0.1353  0.2776
 3266W        W 7466   5.029   9.421   1.058  0.1966 -0.1565  0.3078
 3267W        W 7467  10.509   3.841   9.856 -0.1491 -0.1610 -0.1694
 3268W        W 7468   2.117   6.118  13.093  0.0446 -0.1656 -0.2624
 3269W        W 7469   2.020   7.340   5.228 -0.1299  0.2349 -0.0222
 3270W        W 7470   7.242   1.986   2.665  0.0343  0.1142 -0.0760
 3271W        W 7471   4.915   1.515   5.057 -0.0622  0.1010 -0.0591
 3272W        W 7472   1.891   3.095   2.988  0.1928  0.0176 -0.0579
 3273W        W 7473  10.201   4.088   8.616  0.1972  0.2829 -0.1748
 3274W        W 7474   2.291   3.771   1.470  0.1137 -0.3580 -0.1838
 3275W        W 7475   7.172   0.386  11.273 -0.1730 -0.5881 -0.2499
 3276W        W 7476   0.900   9.795   0.944  0.2253 -0.2337  0.1290
 3277W        W 7477   1.746   2.026  12.469  0.2095  0.0252  0.0874
 3278W        W 7478   2.634   2.940   4.430 -0.2636 -0.0318 -0.5311
 3279W        W 7479  10.400   7.624  11.161  0.1541  0.0412  0.0372
 3280W        W 7480   3.330   0.182   2.663 -0.1239 -0.2196 -0.0224
 3281W        W 7481   3.142   5.376  12.294 -0.2444 -0.1284 -0.2227
 3282W        W 7482   8.342   9.807  11.260  0.2655 -0.1516 -0.0669
 3283W        W 7483   2.442   1.675   2.123 -0.0337  0.1053  0.0304
 3284W        W 7484   6.405   0.997   4.013  0.0414  0.0963  0.1101
 3285W        W 7485   6.261   1.447  12.975 -0.1127  0.0111 -0.1250
 3286W        W 7486   5.763   6.844  10.439 -0.1477  0.1159 -0.0042
 3287W        W 7487   9.007   8.863  11.795  0.0256 -0.0820 -0.2189
 3288W        W 7488   9.605   6.161   1.874 -0.0572 -0.0493 -0.1227
 3289W        W 7489   8.365   8.800   4.034  0.1428 -0.0914  0.0575
 3290W        W 7490   6.876   5.077   9.723 -0.0448  0.0246  0.1618
 3291W        W 7491   5.105   2.142   1.619 -0.0136 -0.0000  0.1886
 3292W        W 7492   6.248   1.138   3.552  0.1556 -0.3988  0.1055
 3293W        W 7493   3.647   1.012  11.795  0.2162 -0.4705 -0.1329
 3294W        W 7494   4.986   6.874   2.318 -0.1243 -0.0855  0.1419
 3295W        W 7495   4.945   6.470   1.938  0.0837  0.3930 -0.2984
 3296W        W 7496   1.916  10.416   1.152 -0.2069 -0.1916  0.1931
 3297W        W 7497  10.140  10.121   3.512  0.0217 -0.2925 -0.0134
 3298W        W 7498   2.991   0.867   9.536  0.2309 -0.0349  0.1501
 3299W        W 7499   7.353   0.847  12.484 -0.1897 -0.1276  0.1000
 3300W        W 7500   5.475   1.438   0.584  0.1444 -0.0141  0.0896
 3301W        W 7501   1.040   6.882   0.333  0.0310  0.1674  0.1202
 3302W        W 7502   7.892   0.793   9.981  0.0608  0.0314  0.2339
 3303W        W 7503   3.823   6.466   0.691  0.2844  0.4091 -0.2440
 3304W        W 7504   4.159   0.630  10.429 -0.1244  0.0525  0.0719
 3305W        W 7505   0.675   1.201  12.437  0.0113 -0.1421  0.1989
 3306W        W 7506   7.090   4.281   3.032  0.0471  0.0845 -0.0539
 3307W        W 7507   9.744   9.805   3.616 -0.1278  0.0447  0.0816
 3308W        W 7508   8.774   9.795   5.080 -0.2048  0.2683 -0.1426
 3309W        W 7509   9.927   8.392   1.029 -0.0207  0.1743  0.2435
 3310W        W 7510   2.563   8.083  12.720  0.2353  0.3175  0.1310
 3311W        W 7511   4.094   5.133   4.342 -0.0209  0.0932 -0.1118
 3312W        W 7512   7.974   0.677   5.267  0.0051 -0.1871  0.0827
 3313W        W 7513   5.892   0.884   9.331 -0.1919  0.0864 -0.0564
 3314W        W 7514   4.770   2.180   3.913 -0.2929 -0.0405 -0.1515
 3315W        W 7515   1.080   8.382   8.652 -0.1948  0.0350  0.1389
 3316W        W 7516   5.547   0.312  11.191  0.0248  0.2142  0.0886
 3317W        W 7517   4.915   8.372  12.719  0.0970 -0.0732  0.0995
 3318W        W 7518   5.844   0.288   1.231  0.3466  0.0818 -0.1132
 3319W        W 7519   1.764   8.938   0.063 -0.2716  0.3316  0.0786
 3320W        W 7520   9.495   7.207  12.019 -0.0385 -0.1239  0.2192
 3321W        W 7521   3.744   0.224   1.032  0.4830 -0.0351  0.4991
 3322W        W 7522   3.670   7.801   0.520 -0.1049 -0.1057 -0.0667
 3323W        W 7523   2.932   2.232  12.985 -0.1352 -0.2152 -0.1623
 3324W        W 7524   6.814   3.626   3.277 -0.6495 -0.2924 -0.1681
 3325W        W 7525   7.594   9.506   2.485 -0.0195 -0.2306 -0.1287
 3326W        W 7526   7.680   8.330  10.209  0.0181 -0.0701  0.1272
 3327W        W 7527   6.537   4.414  11.577  0.2255  0.1992  0.1426
 3328W        W 7528   6.638   0.607  10.249 -0.1832 -0.2812 -0.1170
 3329W        W 7529  10.338  10.475   8.587  0.0394 -0.1723  0.1471
 3330W        W 7530   6.135  10.296   3.882  0.0496 -0.1946 -0.2510
 3331W        W 7531   9.914   3.012   9.819 -0.1501 -0.1724  0.1911
 3332W        W 7532   3.576   9.437  12.679 -0.1029 -0.1150  0.0187
 3333W        W 7533   6.135   2.704  11.291 -0.2802 -0.0485 -0.2170
 3334W        W 7534   0.579   6.036   3.875 -0.0947 -0.1570  0.1998
 3335W        W 7535  10.146   7.154  10.774  0.0724  0.0416 -0.1172
 3336W        W 7536   8.933   3.833   3.168 -0.1997 -0.4115 -0.0563
 3337W        W 7537   2.021   2.396   0.142 -0.0726 -0.1760 -0.0980
 3338W        W 7538   3.529   7.574   3.176 -0.4661  0.0444 -0.1572
 3339W        W 7539   1.081   7.039  11.047 -0.2199 -0.0903  0.1108
 3340W        W 7540   2.233   0.857  12.677  0.0061  0.0267  0.0400
 3341W        W 7541   1.148   4.025   5.165  0.1727  0.0072  0.0584
 3342W        W 7542   3.353   0.792  12.819 -0.1622  0.0705  0.2411
 3343W        W 7543   7.036   2.502  11.270 -0.1229  0.0998  0.1944
 3344W        W 7544   4.048   8.161  13.188  0.2628 -0.0397 -0.6171
 3345W        W 7545   2.102   9.391  11.126 -0.1902  0.2650  0.1080
 3346W        W 7546   1.917   8.298   2.353  0.0811 -0.2550 -0.2454
 3347W        W 7547   7.263   1.547  12.952  0.0526 -0.1160 -0.2238
 3348W        W 7548   8.464   0.916  11.225  0.0802  0.2132  0.0364
 3349W        W 7549   8.285   7.943  13.284 -0.0434 -0.1643  0.0672
 3350W        W 7550   0.443   9.356  12.928 -0.1877 -0.0545  0.0457
 3351W        W 7551   8.642   8.449  11.615  0.3798 -0.3172  0.1654
 3352W        W 7552   2.468   1.045  13.141 -0.1871  0.2122 -0.1037
 3353W        W 7553   9.990   3.796   4.286  0.2816 -0.2903  0.0627
 3354W        W 7554   9.495   0.226   1.815 -0.1574 -0.1133  0.1483
 3355W        W 7555   5.808   0.832  10.412  0.0329  0.2509  0.1732
 3356W        W 7556   3.421   2.501   2.005  0.1532  0.1743  0.1016
 3357W        W 7557   0.329   0.295  11.079 -0.0133  0.0015  0.1039
 3358W        W 7558   6.862   2.293   3.562 -0.4112  0.0578  0.0518
 3359W        W 7559  10.130   7.888   3.200  0.1261  0.1495  0.2282
 3360W        W 7560   8.573   8.309   2.295  0.0752 -0.0498  0.0648
 3361W        W 7561   4.998   5.221   2.324  0.3166 -0.0108  0.1522
 3362W        W 7562   2.931   5.200   2.462 -0.2681  0.0435  0.0583
 3363W        W 7563   8.138   4.339  10.525 -0.5012  0.2674 -0.2618
 3364W        W 7564   9.168  10.488   2.238  0.0040 -0.2053  0.1053
 3365W        W 7565   8.643   6.192   2.727  0.0880  0.0512  0.2293
 3366W        W 7566   9.783   0.928  12.683  0.0442 -0.0520  0.0693
 3367W        W 7567   9.835  10.299   5.576  0.0820 -0.0015  0.1398
 3368W        W 7568   8.716   3.566  13.337  0.3910  0.0715 -0.2879
 3369W        W 7569   2.682   6.533  12.186 -0.0654 -0.4282 -0.1442
 3370W        W 7570   5.536   1.523   9.935  0.0307 -0.3080  0.3250
 3371W        W 7571   6.203   1.235   9.147 -0.0143 -0.3217  0.1777
 3372W        W 7572   8.330   1.814   1.465  0.2408  0.0198  0.0160
 3373W        W 7573   1.096   2.438  12.597 -0.0171 -0.0021  0.0067
 3374W        W 7574   1.011  10.339  13.132  0.0719  0.1807 -0.1353
 3375W        W 7575   0.157   0.686  13.276  0.0368 -0.0750 -0.2341
 3376W        W 7576   3.590   0.993   0.562  0.4202  0.0871 -0.2302
 3377W        W 7577   2.193  10.376   4.077  0.3827 -0.1878 -0.1274
 3378W        W 7578   6.777   1.082   2.125  0.1471 -0.1444 -0.0729
 3379W        W 7579   4.852   4.235   0.355  0.4763 -0.0684  0.0870
 3380W        W 7580   2.878   8.053   8.703 -0.2305 -0.1161  0.2559
 3381W        W 7581   1.906   1.939  11.600 -0.2446 -0.4565 -0.2317
 3382W        W 7582   6.309   3.055   9.201  0.1401  0.0017 -0.0326
 3383W        W 7583   8.089   7.174   3.839  0.1498 -0.1852  0.1735
 3384W        W 7584   6.218   5.661   2.104  0.2281  0.3832  0.0530
 3385W        W 7585   7.476   9.802   0.556 -0.0963  0.1251 -0.1247
 3386W        W 7586   6.619   3.146   9.613 -0.0672  0.0132 -0.0946
 3387W        W 7587   9.918   6.532  11.786 -0.1566  0.3399  0.1411
 3388W        W 7588   6.712   6.010  13.244 -0.1455  0.2437 -0.1720
 3389W        W 7589   1.325   6.969   2.388 -0.3248  0.0563  0.0200
 3390W        W 7590   7.372   0.601  12.936 -0.1419 -0.1120 -0.0301
 3391W        W 7591   0.357   9.953   1.034  0.3333  0.1998  0.0224
 3392W        W 7592   4.671   0.299   1.878 -0.3000 -0.0127 -0.4936
 3393W        W 7593   8.784   4.054   0.249  0.1135 -0.1575 -0.0288
 3394W        W 7594   4.988   6.363  10.155  0.1181  0.0606 -0.0756
 3395W        W 7595   5.437   5.297   8.583 -0.2084  0.0817 -0.2416
 3396W        W 7596   2.991   3.396  10.866 -0.3261  0.1145  0.0002
 3397W        W 7597   5.394   0.683   2.767  0.0399  0.1183 -0.1201
 3398W        W 7598   6.759   7.883  10.921  0.3353  0.0150 -0.1180
 3399W        W 7599   1.374   0.795   8.960 -0.1501 -0.3754  0.0330
 3400W        W 7600   1.725   7.544   1.216  0.0796  0.0597 -0.2148
 3401W        W 7601   0.609   6.657  10.944  0.0299 -0.3315 -0.0661
 3402W        W 7602   7.737   5.832   2.963 -0.2300  0.3656 -0.0849
 3403W        W 7603   3.067   4.817  11.689  0.0424 -0.2886  0.2190
 3404W        W 7604   0.085   3.102  12.594 -0.2084 -0.0867 -0.0265
 3405W        W 7605   1.723  10.039   1.354  0.2221  0.1874 -0.1679
 3406W        W 7606   3.956  10.371   0.781 -0.2699 -0.0885  0.3053
 3407W        W 7607   1.865   9.769   0.774  0.3170  0.1077 -0.0154
 3408W        W 7608   3.081   0.925   1.837 -0.2532 -0.2148 -0.0676
 3409W        W 7609   1.992   4.352   4.222 -0.2175  0.1168  0.1362
 3410W        W 7610   4.832   0.249   3.547 -0.2028 -0.2119 -0.1702
 3411W        W 7611   4.362   1.895   0.527  0.0295 -0.1693 -0.1536
 3412W        W 7612   4.359   7.491   3.289  0.0217  0.0568  0.1174
 3413W        W 7613   7.169   6.756   1.620  0.1575 -0.1892 -0.1523
 3414W        W 7614   8.727   8.152  10.542  0.0990  0.3613  0.1516
 3415W        W 7615   3.109  10.470  10.148 -0.0228 -0.0514  0.2123
 3416W        W 7616   4.093   3.560  12.726  0.1964 -0.0971  0.0016
 3417W        W 7617   6.733   4.506   9.087 -0.3166  0.3590  0.3041
 3418W        W 7618   4.098   1.178   0.473  0.0792  0.3567  0.3846
 3419W        W 7619   4.637   8.370   9.270  0.0703  0.0496  0.0824
 3420W        W 7620   9.319   7.241   2.391  0.0547 -0.1130 -0.3450
 3421W        W 7621   1.290   6.891  11.507  0.2785  0.0838  0.2943
 3422W        W 7622   4.869   6.271  12.994  0.3470 -0.1460  0.0387
 3423W        W 7623   4.977   0.138   1.386  0.1325 -0.0060 -0.1099
 3424W        W 7624   9.189   7.333   4.575  0.2590 -0.2153 -0.0565
 3425W        W 7625   7.461   1.648  10.178  0.0921  0.1256  0.0964
 3426W        W 7626   5.664   2.151   5.547 -0.2395 -0.1420  0.0022
 3427W        W 7627   6.060   3.892   3.813 -0.1222 -0.4028  0.0960
 3428W        W 7628   0.524   1.140  10.010 -0.0665 -0.1309 -0.1325
 3429W        W 7629   7.349   8.343  13.009  0.1991 -0.1881 -0.3162
 3430W        W 7630   2.368   6.797   1.619  0.1234  0.3376  0.1407
 3431W        W 7631   1.726   3.305  10.153 -0.0541  0.0113 -0.0655
 3432W        W 7632   1.800  10.412   2.401 -0.2570  0.0686 -0.1693
 3433W        W 7633   2.733   5.821   9.087 -0.2487 -0.2571 -0.0278
 3434W        W 7634   1.931   8.937   9.428 -0.1640 -0.3212 -0.2018
 3435W        W 7635   8.313   9.923   1.070 -0.3984  0.0699 -0.0081
 3436W        W 7636   2.502   5.382   9.165 -0.3002 -0.0195 -0.4058
 3437W        W 7637   6.001   4.448   2.203 -0.2882 -0.1865  0.2384
 3438W        W 7638   7.973   2.984   9.055 -0.0052  0.0945  0.1771
 3439W        W 7639   4.293   2.396   1.840  0.1910  0.0408  0.1441
 3440W        W 7640   8.505   1.705  12.800  0.0535  0.3079 -0.3063
 3441W        W 7641   3.335   0.036   4.101  0.0590 -0.0810 -0.6131
 3442W        W 7642   3.568   9.562   3.539 -0.0891  0.1987  0.2650
 3443W        W 7643   4.401   2.051   9.892 -0.0490  0.0651  0.2383
 3444W        W 7644   8.761   3.121  11.039  0.0061 -0.0737  0.3062
 3445W        W 7645   2.705   4.858   4.559 -0.1498  0.1264 -0.2276
 3446W        W 7646   8.053   7.337  10.251  0.2487  0.0347  0.2301
 3447W        W 7647   9.012   7.246   9.325  0.1957 -0.0821  0.0848
 3448W        W 7648   0.326   1.089   1.938 -0.1147  0.1140  0.1089
 3449W        W 7649   8.423   3.341  11.397  0.0060  0.1026  0.2443
 3450W        W 7650   5.701   9.870   3.860  0.1619 -0.0845  0.1308
 3451W        W 7651   4.584   1.081   2.354  0.3377 -0.1424 -0.3822
 3452W        W 7652   5.988   4.491   0.350  0.0980  0.0702  0.2490
 3453W        W 7653   2.153   7.880   1.513  0.2908 -0.0749  0.1670
 3454W        W 7654   6.766   6.801   2.590  0.3002  0.1527 -0.1015
 3455W        W 7655   7.549   6.243   2.860 -0.1309 -0.2309 -0.0406
 3456W        W 7656   8.050   0.920   3.202 -0.1096 -0.0559  0.1471
 3457W        W 7657   2.537   8.743   9.487  0.1882 -0.0566  0.2569
 3458W        W 7658   8.607   8.170  12.033 -0.1235 -0.0641 -0.0705
 3459W        W 7659   1.521   4.112   3.318 -0.0296 -0.1057  0.0151
 3460W        W 7660   0.192   2.197  12.520 -0.1513 -0.1490 -0.0123
 3461W        W 7661   1.157   7.647   1.163  0.1543 -0.0935  0.0681
 3462W        W 7662   3.671   2.888  12.907 -0.1559  0.1782  0.0685
 3463W        W 7663   3.637   7.715  10.570  0.1084 -0.0984 -0.0725
 3464W        W 7664   4.128   1.544   1.608  0.2412 -0.4549 -0.0636
 3465W        W 7665   3.109   9.381   3.464 -0.2012  0.1455 -0.2282
 3466W        W 7666   5.562   8.688  12.837  0.0077 -0.1533  0.1913
 3467W        W 7667   8.551   9.258   3.885  0.1997  0.1363 -0.1476
 3468W        W 7668   2.750   5.584   9.593  0.5500 -0.0364  0.0370
 3469W        W 7669   0.435   2.386   4.431 -0.0155 -0.0975  0.0888
 3470W        W 7670   4.518   8.425  11.200  0.2751 -0.3080 -0.4406
 3471W        W 7671   4.419   4.975   9.914 -0.3372  0.2355  0.1288
 3472W        W 7672   8.281   3.090  13.070 -0.0987 -0.0178  0.0451
 3473W        W 7673   6.636   4.242   1.552  0.0956  0.1026  0.1163
 3474W        W 7674   9.153   0.206   2.966  0.1414  0.2551  0.0913
 3475W        W 7675   5.678   4.313   2.675 -0.0771  0.1277  0.0778
 3476W        W 7676   9.414   1.658   0.674  0.2557  0.2024 -0.0025
 3477W        W 7677   1.381   7.468   9.850 -0.0953  0.1336 -0.0064
 3478W        W 7678   4.072   2.706   9.516 -0.1824  0.0137 -0.2434
 3479W        W 7679   4.759   1.143  11.422  0.1687  0.1100 -0.3552
 3480W        W 7680   3.263   9.330   0.847 -0.1497  0.0663  0.0807
 3481W        W 7681   5.581   6.940   0.658  0.0012 -0.1161 -0.1446
 3482W        W 7682   2.972   7.531   2.797  0.1445  0.1806 -0.2255
 3483W        W 7683   7.334   2.124  10.093  0.1024  0.1384  0.0417
 3484W        W 7684   8.010   3.081  12.147  0.1027  0.1071 -0.0144
 3485W        W 7685   5.744   1.336  10.413  0.0426  0.0024  0.2085
 3486W        W 7686   0.652   5.204   3.180 -0.2243 -0.0405 -0.1021
 3487W        W 7687   7.235   2.827  10.975  0.1531  0.1566 -0.0749
 3488W        W 7688   0.486   5.033  12.217  0.0490 -0.0614 -0.2303
 3489W        W 7689   1.332   9.485  11.561 -0.1796  0.0933 -0.1343
 3490W        W 7690   5.346   3.764   1.216 -0.0238 -0.1954  0.3193
 3491W        W 7691   9.151   9.170   9.985  0.3903 -0.3251  0.2696
 3492W        W 7692   7.947   9.182   1.620  0.1453 -0.2573  0.0759
 3493W        W 7693   8.459   1.133   2.280 -0.1008 -0.2988 -0.2304
 3494W        W 7694   4.285   6.066   2.515 -0.0923  0.1286 -0.0575
 3495W        W 7695   4.014   6.615  12.217  0.0194 -0.2324 -0.0761
 3496W        W 7696   0.728   8.231  10.356  0.3326 -0.0098  0.0080
 3497W        W 7697   0.054   0.714  11.842  0.0486  0.0983  0.2641
 3498W        W 7698   1.749   6.182  12.757  0.2976 -0.0143 -0.0338
 3499W        W 7699   2.167   5.557   1.100  0.0083 -0.0088  0.2322
 3500W        W 7700   5.111   7.811  10.319  0.0413  0.1918 -0.0498
 3501W        W 7701   1.768   8.449  10.671  0.2688 -0.0795  0.0872
 3502W        W 7702   0.706   3.381   1.681 -0.2045 -0.1056  0.2890
 3503W        W 7703   2.348   8.341   0.287 -0.1427  0.2565 -0.0954
 3504W        W 7704  10.033   8.015   0.163 -0.0497 -0.0322 -0.1456
 3505W        W 7705   3.012   6.238   0.084  0.2866 -0.0594  0.0469
 3506W        W 7706   3.365   3.014   2.078  0.1282  0.1116  0.0473
 3507W        W 7707   6.271   4.615   3.149  0.0512  0.0881 -0.1419
 3508W        W 7708   0.010   9.415  11.889 -0.0588  0.1226 -0.1134
 3509W        W 7709   9.010   3.626  11.106 -0.0938  0.4528 -0.1100
 3510W        W 7710  10.107   8.238  10.128 -0.0274 -0.0236  0.1022
 3511W        W 7711   0.418   3.685   4.855 -0.2833  0.1295  0.1045
 3512W        W 7712   6.538   1.860   1.849  0.2583 -0.2871  0.4287
 3513W        W 7713   9.905   7.570  13.297 -0.1978  0.2598  0.4457
 3514W        W 7714   4.549   9.498   2.242 -0.0670 -0.0612  0.0329
 3515W        W 7715   4.784   6.812  12.287 -0.0809 -0.0683  0.0666
 3516W        W 7716   1.956   4.873  12.359  0.0069 -0.0917  0.1881
 3517W        W 7717   8.684   6.381  12.543 -0.3190 -0.0152 -0.1440
 3518W        W 7718   2.860   4.519  12.483  0.1780  0.0279 -0.3175
 3519W        W 7719   8.860   1.357   2.673 -0.0941  0.3158  0.1316
 3520W        W 7720   7.570   0.583  10.269  0.0812 -0.4628  0.0666
 3521W        W 7721   6.322   1.721   2.577 -0.1304 -0.0307  0.4113
 3522W        W 7722   8.540   6.043   1.899  0.0359 -0.0295  0.1221
 3523W        W 7723   8.861   9.665   3.878 -0.0581 -0.1487 -0.0316
 3524W        W 7724   1.031   8.184   4.345  0.0147 -0.0607 -0.0647
 3525W        W 7725   3.297  10.201  10.535  0.0392 -0.0725  0.0535
 3526W        W 7726   0.073   1.299  12.256  0.2706  0.1039  0.0396
 3527W        W 7727   3.266   2.031   4.901 -0.0366 -0.2881 -0.2131
 3528W        W 7728  10.042   7.333  10.346 -0.0376  0.1440  0.1200
 3529W        W 7729   2.582   0.720   3.861 -0.1238 -0.0736 -0.3670
 3530W        W 7730   4.711   5.359   9.859  0.2559 -0.1873  0.0804
 3531W        W 7731   9.989   0.347   9.465  0.4949 -0.0549  0.0548
 3532W        W 7732   3.390   5.983   3.243 -0.0853  0.1721 -0.2013
 3533W        W 7733   8.329  10.218   2.031 -0.1278  0.2388  0.1653
 3534W        W 7734   8.915   9.328   1.006 -0.1133 -0.0065 -0.0637
 3535W        W 7735   9.198   0.308  13.288 -0.2501 -0.0388 -0.0360
 3536W        W 7736   0.162   1.441  10.283  0.0576  0.0051  0.1543
 3537W        W 7737   8.151   2.721  10.015 -0.1318 -0.1323  0.2260
 3538W        W 7738   3.666   0.244   9.986 -0.1795  0.0150  0.2777
 3539W        W 7739   2.493   6.817   3.147 -0.0362 -0.2185  0.1043
 3540W        W 7740   5.506   0.722  12.050 -0.2648  0.0008 -0.0216
 3541W        W 7741   8.773   7.113  11.313  0.0966  0.0549  0.1054
 3542W        W 7742   2.085   4.194  11.276  0.0485  0.0373  0.3461
 3543W        W 7743   9.398   5.669  12.717  0.0738  0.1997  0.1228
 3544W        W 7744   1.580  10.274   3.427 -0.0025  0.1427 -0.0725
 3545W        W 7745   4.376   6.390   0.661  0.0041 -0.1152  0.0142
 3546W        W 7746   1.222   4.339  10.286  0.1603 -0.0312 -0.0357
 3547W        W 7747  10.390   9.762   1.226  0.0854 -0.4132  0.1227
 3548W        W 7748   8.441   8.376   9.678 -0.2288 -0.1009 -0.2683
 3549W        W 7749   4.649   0.567  10.271 -0.5079  0.2075  0.1642
 3550W        W 7750   8.789   3.002  11.588  0.4172  0.3667  0.0922
 3551W        W 7751   4.224   0.569   1.090 -0.4098 -0.0316  0.1843
 3552W        W 7752   9.604   7.833   9.655 -0.1338 -0.0161 -0.2163
 3553W        W 7753   2.204   4.586   5.708 -0.1232 -0.1169  0.0489
 3554W        W 7754   1.282   0.367   9.731 -0.0495 -0.2026  0.0744
 3555W        W 7755   8.231   6.421   1.461 -0.0395  0.0608 -0.0265
 3556W        W 7756   6.704   4.176   4.770  0.2175  0.1381 -0.2779
 3557W        W 7757   3.163   0.149   2.179  0.0854 -0.1874 -0.0970
 3558W        W 7758   0.391   0.918   4.669 -0.0080  0.3088 -0.1457
 3559W        W 7759   7.747   3.080   0.211  0.1108  0.0230 -0.1773
 3560W        W 7760   6.601   5.421  10.897  0.0322 -0.0068  0.1165
 3561W        W 7761   2.018   4.165   1.626  0.2343 -0.1343 -0.0784
 3562W        W 7762   7.549   3.351   8.928 -0.0601 -0.4910  0.0246
 3563W        W 7763   6.758   9.838   3.443  0.1620  0.1581  0.4465
 3564W        W 7764   5.160   1.168   9.759  0.1008  0.3706 -0.0564
 3565W        W 7765   9.649   2.255   4.037  0.1154 -0.0270  0.0349
 3566W        W 7766  10.007   0.582   3.468  0.0889 -0.1269  0.0011
 3567W        W 7767   4.925   3.160   2.972 -0.2036  0.0127 -0.2575
 3568W        W 7768   4.123   4.646   4.846 -0.1361 -0.2637 -0.0344
 3569W        W 7769   0.597   6.120   1.409 -0.0457  0.3078  0.3058
 3570W        W 7770   3.210  10.139   1.466  0.1963 -0.2380  0.2369
 3571W        W 7771   7.596   3.751   0.900  0.3272 -0.1139 -0.0212
 3572W        W 7772   8.607   3.556  10.095 -0.1936  0.0505 -0.3948
 3573W        W 7773   8.228  10.253   0.715 -0.0767  0.3744 -0.0530
 3574W        W 7774   6.950   4.978  13.373 -0.0390 -0.0409  0.0072
 3575W        W 7775   2.280   8.098   0.749 -0.2760 -0.2207 -0.1015
 3576W        W 7776  10.134   4.771   9.289  0.1245  0.0518  0.0606
 3577W        W 7777   2.468   8.014  12.165  0.3011  0.3024  0.1525
 3578W        W 7778   6.056   1.036  12.769 -0.1128  0.2601 -0.5907
 3579W        W 7779   3.853   8.384   1.888 -0.2912  0.4563  0.0136
 3580W        W 7780   3.872   4.504   1.757 -0.2573  0.2229  0.1619
 3581W        W 7781   3.867   7.630  10.079 -0.1132  0.2180 -0.0621
 3582W        W 7782   9.983   0.290   3.943 -0.1514 -0.6631 -0.1089
 3583W        W 7783   5.906   9.303   2.380 -0.0932  0.3098 -0.1480
 3584W        W 7784   5.324   7.788   9.788 -0.2772 -0.0332 -0.1633
 3585W        W 7785   2.713   6.409   4.339  0.3098  0.3481  0.0614
 3586W        W 7786   4.322   1.015   0.937  0.3745  0.0086 -0.1428
 3587W        W 7787   9.147   2.112  12.062  0.0273 -0.0682  0.1282
 3588W        W 7788   1.341   9.981   3.820  0.1083 -0.1265  0.0372
 3589W        W 7789   0.112   4.240  11.691  0.0001 -0.0174  0.0582
 3590W        W 7790   8.400   1.629   2.011 -0.1819  0.3395  0.1542
 3591W        W 7791   1.365   3.306   3.870  0.0400  0.0946  0.1017
 3592W        W 7792  10.381   5.077  10.126  0.2275  0.0190  0.0081
 3593W        W 7793   3.199   7.717  11.939  0.5232  0.1194 -0.1733
 3594W        W 7794   7.970   3.959  10.260 -0.1919  0.0064  0.0845
 3595W        W 7795   3.022   8.704   1.593 -0.0358 -0.2680  0.1893
 3596W        W 7796   2.118   0.402  12.460 -0.4435  0.0030 -0.3469
 3597W        W 7797   7.618   6.633   2.473 -0.0872  0.1561  0.0380
 3598W        W 7798   9.157   1.388   9.778 -0.1299 -0.1202 -0.2480
 3599W        W 7799   2.657   9.942   2.590  0.0801 -0.0456  0.1467
 3600W        W 7800   1.764   6.966   1.353  0.2094 -0.0644  0.0712
 3601W        W 7801  10.223   6.628  13.118  0.1595  0.1415 -0.0667
 3602W        W 7802   1.791   1.139  10.079 -0.0241 -0.0803 -0.2222
 3603W        W 7803   0.403   1.626  12.641  0.0272  0.0645 -0.0517
 3604W        W 7804   2.699   2.897   9.215  0.0081  0.2684  0.2579
 3605W        W 7805   1.716   0.400   1.281  0.0688  0.2320  0.0547
 3606W        W 7806   8.698   9.394   0.340  0.5008  0.1237 -0.0440
 3607W        W 7807   1.958   3.063  11.907 -0.1778  0.1816  0.0030
 3608W        W 7808   0.846   7.614   0.765 -0.1514  0.0321 -0.2850
 3609W        W 7809   1.887   2.397   9.875 -0.4200 -0.0650 -0.0737
 3610W        W 7810   1.358   8.103  11.108  0.5578 -0.2835 -0.1659
 3611W        W 7811   9.721   3.886   3.437 -0.2398 -0.1396  0.2380
 3612W        W 7812  10.058   9.588   0.423 -0.1095 -0.1632  0.1857
 3613W        W 7813   1.401   1.148  10.557  0.2645  0.0343 -0.0097
 3614W        W 7814   5.470   6.857   3.925 -0.1045 -0.0748  0.1139
 3615W        W 7815   1.948   3.887  10.859  0.0033 -0.0549 -0.2442
 3616W        W 7816   8.457   7.088   3.480  0.0940 -0.1377 -0.1859
 3617W        W 7817   8.348   5.893   1.461 -0.3684 -0.1290 -0.2508
 3618W        W 7818   2.682   0.945  11.888  0.0358 -0.1467 -0.1870
 3619W        W 7819   5.033   1.045   3.084 -0.1660 -0.0495  0.2845
 3620W        W 7820   9.389   9.494   3.485 -0.2005 -0.1893 -0.2035
 3621W        W 7821   2.458   2.212  13.298  0.2957 -0.2687  0.1798
 3622W        W 7822  10.031   2.340   9.985 -0.1145 -0.2764 -0.1920
 3623W        W 7823   9.731   5.698  11.826  0.0981 -0.0676 -0.4970
 3624W        W 7824   0.392   5.565   2.183 -0.1300  0.0830 -0.1901
 3625W        W 7825   6.793   3.154  12.926 -0.1218 -0.0126  0.0562
 3626W        W 7826   3.558   6.849  11.037  0.3596 -0.0956 -0.1280
 3627W        W 7827   8.598   3.891   4.355 -0.0507  0.3124 -0.0741
 3628W        W 7828   6.409  10.401  11.396  0.0696  0.0476  0.0491
 3629W        W 7829   8.963   1.599  11.705 -0.0067 -0.5239  0.3013
 3630W        W 7830   8.758   5.404  10.300  0.1908  0.1193 -0.3076
 3631W        W 7831   8.224   4.604   1.002 -0.0711 -0.0494  0.1261
 3632W        W 7832   7.905   6.087   9.665 -0.0932 -0.1549  0.0429
 3633W        W 7833   3.141   4.818  12.205  0.3291 -0.0288  0.0760
 3634W        W 7834   1.885  10.348   4.515 -0.0006 -0.1858  0.1525
 3635W        W 7835   4.753  10.233  11.441 -0.2321  0.0539  0.3436
 3636W        W 7836   4.855   0.552   2.837  0.1055 -0.1419  0.0288
 3637W        W 7837   7.575   9.916  12.052 -0.0178  0.1299 -0.0588
 3638W        W 7838   3.885   5.375   0.659 -0.2650  0.0138 -0.0329
 3639W        W 7839   8.982   0.897   3.814  0.0539  0.0271  0.0682
 3640W        W 7840   3.950  10.257  12.262  0.1239 -0.2674 -0.2168
 3641W        W 7841   7.128   9.560   3.269 -0.1388  0.0744 -0.0039
 3642W        W 7842   2.542   0.621   9.528  0.1346  0.2114 -0.2680
 3643W        W 7843   5.974   1.201  13.246  0.2046  0.4233  0.2901
 3644W        W 7844   8.312   1.571   9.459  0.2158 -0.0965 -0.0257
 3645W        W 7845   0.172   9.128  13.323  0.0557  0.0939  0.0158
 3646W        W 7846   1.664   3.394  10.912  0.1582 -0.0059 -0.1048
 3647W        W 7847   2.650   2.502   1.617  0.0505  0.1888  0.0359
 3648W        W 7848   7.965   5.127  12.503 -0.1846  0.0837  0.1521
 3649W        W 7849   3.528   0.621   4.223  0.0326 -0.0477 -0.1379
 3650W        W 7850   4.221   6.793   0.365  0.2807  0.1653  0.4878
 3651W        W 7851   9.864   8.077   4.371  0.4764  0.1088 -0.0388
 3652W        W 7852   8.381   5.851   0.514 -0.1915 -0.0753  0.0231
 3653W        W 7853  10.353   5.721  12.013  0.0531  0.1153 -0.1914
 3654W        W 7854   5.211   6.906  12.587 -0.0717 -0.1971 -0.0270
 3655W        W 7855   1.630   2.021   0.495  0.1302 -0.0204  0.1593
 3656W        W 7856   6.011  10.331  13.147 -0.2865 -0.1098  0.1584
 3657W        W 7857   6.004   5.417   9.743  0.0822  0.0782  0.1910
 3658W        W 7858   0.761   8.970   1.786  0.0655  0.1018  0.1889
 3659W        W 7859   0.555   3.576  12.043 -0.4786 -0.5272 -0.2231
 3660W        W 7860   3.989   6.585   3.798  0.0506  0.5068  0.0321
 3661W        W 7861   4.133   6.888   1.610 -0.2759 -0.1570 -0.0108
 3662W        W 7862   2.440  10.449   0.999 -0.2392 -0.0128  0.1257
 3663W        W 7863   5.816   3.128  10.311 -0.1008  0.0699 -0.1026
 3664W        W 7864   1.643   7.775  13.215  0.1496 -0.0984  0.3775
 3665W        W 7865   1.513   2.993   8.564 -0.1296 -0.1271 -0.1307
 3666W        W 7866   4.210   6.658   2.479  0.0976  0.0065  0.0185
 3667W        W 7867   9.907   5.717  12.801 -0.0063  0.3054 -0.2949
 3668W        W 7868   2.173   6.623   3.620  0.0297  0.1891 -0.2889
 3669W        W 7869   9.034   5.460  13.018  0.0237  0.0069  0.1352
 3670W        W 7870   0.845   4.429   2.659  0.5760  0.3872  0.0379
 3671W        W 7871   6.465   7.991   2.534 -0.1649  0.1334 -0.1524
 3672W        W 7872   8.507   6.526  11.905 -0.0310  0.1907 -0.1541
 3673W        W 7873   9.363   7.784   8.824  0.0897  0.1288 -0.2584
 3674W        W 7874   9.815   2.470   0.178  0.2391  0.0138 -0.2434
 3675W        W 7875   0.135   4.047  11.184 -0.1425  0.2182  0.2651
 3676W        W 7876   6.702   9.903   2.435  0.0094  0.5132 -0.0815
 3677W        W 7877   0.973   7.261  10.244 -0.1828  0.0665 -0.2077
 3678W        W 7878   2.525   8.548  10.232 -0.0864 -0.0023 -0.2558
 3679W        W 7879   4.315   5.782  12.689 -0.2459  0.1266 -0.0486
 3680W        W 7880   8.432   9.657   9.222 -0.0176  0.0553  0.1362
 3681W        W 7881   3.616   9.458   0.451 -0.0363  0.0844 -0.0764
 3682W        W 7882   1.515  10.321  11.430  0.1313  0.0451  0.1972
 3683W        W 7883   4.512   7.221   1.331 -0.1623  0.0037 -0.5056
 3684W        W 7884   0.935   0.418   0.558  0.1238 -0.0882 -0.2246
 3685W        W 7885   2.296   6.268   1.690 -0.1747 -0.2998 -0.1841
 3686W        W 7886   3.272   4.406   2.259 -0.0676 -0.1915  0.0130
 3687W        W 7887   1.497   5.207   9.380  0.2256  0.1687  0.0964
 3688W        W 7888   9.285   8.257   2.747  0.1910 -0.0442 -0.2485
 3689W        W 7889   6.524   7.868   2.042 -0.1783 -0.1311 -0.0588
 3690W        W 7890   6.802   8.274   1.260  0.1083 -0.0986 -0.3842
 3691W        W 7891   1.006   4.106   9.959 -0.2559 -0.2034 -0.0287
 3692W        W 7892   2.332   9.695   0.583  0.1183  0.5187 -0.0808
 3693W        W 7893   0.850   9.228  11.338 -0.1869 -0.2348  0.2301
 3694W        W 7894   7.855  10.018   1.913 -0.0356 -0.3272 -0.1109
 3695W        W 7895   5.997   7.442   0.792 -0.0151  0.3289  0.0501
 3696W        W 7896   2.934   9.422   2.951 -0.2312 -0.1044  0.0476
 3697W        W 7897   0.268   8.869   8.553 -0.0569 -0.1985  0.3874
 3698W        W 7898   1.764   4.612   2.097 -0.5087  0.0135  0.0626
 3699W        W 7899   3.264   1.894   0.503  0.1615 -0.1249 -0.2035
 3700W        W 7900   5.719   7.542   2.856  0.2060 -0.1270  0.1125
 3701W        W 7901   6.450   0.807   9.192  0.1156  0.0777 -0.1926
 3702W        W 7902   5.788   9.359   1.506  0.0284 -0.2226  0.1099
 3703W        W 7903   6.236   5.227  12.303  0.0225 -0.1962  0.2479
 3704W        W 7904   2.603   1.357  12.779 -0.1510 -0.0566  0.0736
 3705W        W 7905  10.317   0.669   9.845 -0.2577  0.2426  0.4315
 3706W        W 7906   8.470   8.575   3.128  0.3556  0.2685  0.0178
 3707W        W 7907   9.983   5.628   3.933  0.3601  0.2553 -0.0701
 3708W        W 7908   6.671  10.442   9.366 -0.0845  0.1620  0.1203
 3709W        W 7909   4.850   8.965  13.157 -0.3109 -0.2525  0.2731
 3710W        W 7910   2.333  10.280   9.764 -0.2458 -0.0913  0.0038
 3711W        W 7911   4.755   2.667   0.185 -0.0040  0.1306  0.1715
 3712W        W 7912   6.537   1.052  13.000 -0.3440  0.2251 -0.1772
 3713W        W 7913   3.585   0.068  10.966  0.0189 -0.3878 -0.1510
 3714W        W 7914   9.902   0.727   0.957  0.1740  0.0819 -0.0221
 3715W        W 7915   7.372   3.001   4.758  0.1026 -0.5083 -0.2961
 3716W        W 7916   5.363   1.259  11.285 -0.0336 -0.1273  0.0718
 3717W        W 7917  10.143   0.104  10.499  0.1074  0.1023 -0.0009
 3718W        W 7918   6.449   8.018  10.398  0.2573  0.0933  0.1140
 3719W        W 7919   4.021   4.413   1.246 -0.2329 -0.1979  0.1003
 3720W        W 7920   0.951   3.110  11.675 -0.0397  0.1942  0.0265
 3721W        W 7921   7.927   5.336   2.842 -0.3998 -0.0076  0.1047
 3722W        W 7922   8.842   4.881  11.435 -0.2762  0.0602  0.0248
 3723W        W 7923   7.206   4.615   8.971 -0.0274 -0.0103  0.1915
 3724W        W 7924   1.656   2.658   0.806  0.1405  0.0680 -0.1881
 3725W        W 7925   6.085  10.402   1.522  0.0602  0.0455 -0.1502
 3726W        W 7926   9.994   6.935   0.030  0.0323  0.0939  0.2166
 3727W        W 7927   5.209   8.292   0.173  0.1159  0.0578  0.1166
 3728W        W 7928   9.405   8.383   0.879  0.3214  0.0642 -0.0206
 3729W        W 7929   4.077   3.129   2.653 -0.1569 -0.0589  0.0300
 3730W        W 7930  10.207   0.381  12.459  0.2369  0.0616 -0.0429
 3731W        W 7931   6.980   5.867   9.298 -0.1033 -0.1678 -0.1441
 3732W        W 7932   9.328   2.112   3.644  0.0678 -0.2772  0.0460
 3733W        W 7933   0.620   6.639   3.921  0.0900 -0.1129 -0.0292
 3734W        W 7934  10.188   8.359   4.096  0.0378 -0.0549  0.2478
 3735W        W 7935   5.743  10.174  12.123  0.1073  0.1450 -0.0118
 3736W        W 7936   7.479   2.928   8.722  0.1813 -0.1230 -0.1907
 3737W        W 7937  10.152   3.364   2.873  0.2046 -0.2037  0.3361
 3738W        W 7938   6.791   4.215  13.311 -0.1383 -0.1405 -0.1897
 3739W        W 7939   2.724   7.856  11.757  0.2010 -0.1215  0.0957
 3740W        W 7940   3.225   7.624   0.551 -0.0637  0.0127  0.4269
 3741W        W 7941   8.230   0.452  10.957 -0.0524 -0.0047  0.0431
 3742W        W 7942  10.315   2.888   4.423  0.1596  0.1333 -0.2298
 3743W        W 7943   6.006   5.009   3.022  0.2181  0.0152  0.0865
 3744W        W 7944   6.698  10.306   0.795  0.1648 -0.1736 -0.1555
 3745W        W 7945   2.430   3.326   8.818 -0.0180 -0.1152  0.2014
 3746W        W 7946   7.294   8.590   2.152  0.1829 -0.0178  0.1777
 3747W        W 7947   3.390   1.720   1.071  0.0850 -0.0233 -0.0087
 3748W        W 7948   7.624   4.220   0.570  0.1535  0.2441  0.1152
 3749W        W 7949   6.149   5.362  10.733 -0.0058  0.0766 -0.0308
 3750W        W 7950   3.755   4.255  11.632  0.3167 -0.1168 -0.1544
 3751W        W 7951   2.643   5.528  12.450  0.3186  0.0150  0.1361
 3752W        W 7952   9.597   6.379  10.601 -0.1290 -0.1075  0.0863
 3753W        W 7953   3.383   9.162  10.557 -0.2958  0.0709 -0.0675
 3754W        W 7954   2.012  10.197  13.014  0.3142  0.0384  0.4196
 3755W        W 7955   1.031   6.707   0.934 -0.0361  0.1957  0.1978
 3756W        W 7956   7.974  10.196   2.855 -0.0795  0.0148  0.1393
 3757W        W 7957   6.033   8.578   1.350  0.0521 -0.0657 -0.2784
 3758W        W 7958   7.276   1.855   4.087  0.0974 -0.0360  0.2062
 3759W        W 7959   3.882   3.120   2.167  0.2739  0.0707  0.1073
 3760W        W 7960   9.400   0.556  11.920 -0.0813 -0.2164 -0.3263
 3761W        W 7961   4.216   7.658   9.533  0.1732  0.1536 -0.2036
 3762W        W 7962  10.334   3.840   4.609 -0.0519  0.2588  0.0082
 3763W        W 7963  10.237   9.493   2.163  0.1498  0.1551  0.0250
 3764W        W 7964   0.564   3.288   3.923 -0.0002  0.0096  0.1130
 3765W        W 7965   1.591   2.611   4.863 -0.0887 -0.0067  0.4116
 3766W        W 7966   5.136   8.851   1.586 -0.0078  0.3235 -0.2434
 3767W        W 7967   3.941   3.939   0.349  0.1459  0.0699  0.1877
 3768W        W 7968   1.669   0.208   3.280 -0.3008 -0.0751  0.3012
 3769W        W 7969   9.512   5.183   2.256  0.1128 -0.1999  0.0495
 3770W        W 7970   9.968   3.116  10.298 -0.0767 -0.1251 -0.1165
 3771W        W 7971   5.654   9.251  10.671 -0.2698  0.1366  0.1040
 3772W        W 7972   4.403   6.022  12.132 -0.0342 -0.2684 -0.5256
 3773W        W 7973   6.429   2.583   9.197 -0.3288  0.0054 -0.3133
 3774W        W 7974   2.776   6.663   2.768 -0.1892  0.2335 -0.2139
 3775W        W 7975   5.952   3.295   0.043 -0.1353  0.1556 -0.1190
 3776W        W 7976   8.511   5.158   4.005 -0.0022  0.1825  0.0262
 3777W        W 7977   2.331   6.960   0.268 -0.1298 -0.1392  0.1335
 3778W        W 7978   5.529   9.145  12.612  0.1909 -0.1356  0.2534
 3779W        W 7979   2.619   7.398  12.259  0.2266 -0.2135  0.1534
 3780W        W 7980   1.122   5.487   9.090  0.1712  0.2422  0.0383
 3781W        W 7981   8.714   0.866   8.227  0.0016 -0.0110  0.0700
 3782W        W 7982   9.622  10.250   2.342 -0.2019 -0.3954  0.2384
 3783W        W 7983  10.439   0.811   2.134  0.0854 -0.0100 -0.0215
 3784W        W 7984   8.658   9.497  11.717 -0.0314 -0.1277 -0.0515
 3785W        W 7985   8.539   5.904   4.247 -0.0430  0.2720 -0.1589
 3786W        W 7986   0.525   2.365   1.420  0.1600 -0.0790 -0.1747
 3787W        W 7987   8.437   5.943   9.598 -0.0804 -0.0639 -0.1577
 3788W        W 7988   5.273   1.449  10.817  0.0414  0.1938 -0.0049
 3789W        W 7989   5.317   0.586  10.831 -0.2528  0.0516 -0.3539
 3790W        W 7990   9.376   6.715   1.240  0.1035 -0.0553  0.0095
 3791W        W 7991   6.706   9.654   1.423 -0.1390 -0.1798 -0.1214
 3792W        W 7992   5.115   3.960   3.558  0.1438 -0.0996  0.0579
 3793W        W 7993   9.729  10.251   9.234  0.0699  0.0329  0.0731
 3794W        W 7994   1.479   8.945   3.737  0.0114 -0.0074 -0.0764
 3795W        W 7995   5.198   6.932  10.154  0.0217 -0.0463  0.2658
 3796W        W 7996   8.738   3.591   1.686 -0.1764 -0.0328 -0.1512
 3797W        W 7997   1.802   5.024   4.458  0.0617 -0.2090  0.1421
 3798W        W 7998   2.099   8.366  12.964  0.2873 -0.0589 -0.1573
 3799W        W 7999  10.184   0.894   1.709 -0.0116  0.2109 -0.0620
 3800W        W 8000   8.648   4.652   0.254  0.0094 -0.2548  0.1435
 3801W        W 8001   4.178   4.714   8.667  0.5087  0.2223 -0.2254
 3802W        W 8002   4.676   0.355   4.030  0.0557 -0.1063  0.0843
 3803W        W 8003   5.149   2.340   2.866  0.1484 -0.2087  0.2455
 3804W        W 8004   7.331   3.479   0.101  0.1245 -0.0002  0.0029
 3805W        W 8005   8.580   7.356   3.922 -0.0467 -0.2521 -0.0193
 3806W        W 8006   6.461   5.081  12.750  0.2227  0.0076 -0.2383
 3807W        W 8007   3.308   1.291  12.624  0.0501 -0.3212  0.0677
 3808W        W 8008   2.168   4.691   9.518 -0.1338 -0.0141 -0.3143
 3809W        W 8009   8.451   4.963   1.325  0.2444  0.0376 -0.0399
 3810W        W 8010   9.831   6.019   1.440 -0.2768 -0.3597  0.1245
 3811W        W 8011   1.264   1.524   1.947 -0.2096  0.0891 -0.0060
 3812W        W 8012   8.716  10.442   9.485  0.0713 -0.2183 -0.0385
 3813W        W 8013   0.243   4.535  11.132 -0.1652  0.1337 -0.3763
 3814W        W 8014   6.927   3.823   2.321 -0.1417  0.4389  0.3055
 3815W        W 8015   2.785   3.602   3.867 -0.0028  0.1459  0.2101
 3816W        W 8016   5.855   7.392  12.319  0.1001  0.3134 -0.1586
 3817W        W 8017   8.462   2.263  11.059 -0.0891  0.1711 -0.0388
 3818W        W 8018   4.706   0.034  11.079 -0.0620  0.3816  0.0401
 3819W        W 8019   3.422   7.879  12.436  0.0236 -0.0394  0.0633
 3820W        W 8020   6.710   0.544  10.704 -0.0618 -0.2380 -0.2929
 3821W        W 8021   8.361   8.778   0.575  0.0951 -0.2049 -0.1238
 3822W        W 8022   7.704   3.517   9.378 -0.2422 -0.3576  0.1552
 3823W        W 8023   0.343   4.197   9.165  0.0524  0.0078 -0.0094
 3824W        W 8024   6.385  10.394  12.335  0.0790 -0.1131  0.1959
 3825W        W 8025   0.089   0.084  12.434 -0.0866 -0.1155 -0.3509
 3826W        W 8026   5.735   1.805  12.133  0.0278 -0.0144  0.2533
 3827W        W 8027  10.322   4.803  11.021 -0.0584 -0.1065  0.2299
 3828W        W 8028   9.558   0.575   0.121 -0.1383 -0.2312 -0.0865
 3829W        W 8029   9.789   7.430   2.573  0.0095  0.0188 -0.3015
 3830W        W 8030   5.319   3.441  12.654 -0.1584  0.0144 -0.0539
 3831W        W 8031   4.600   3.456   9.284 -0.1765 -0.1715  0.0745
 3832W        W 8032   2.256   1.208  10.256 -0.1385  0.2460  0.0359
 3833W        W 8033   3.341   4.942   3.348 -0.1359  0.0464 -0.2169
 3834W        W 8034   0.315   3.846   3.379 -0.0327 -0.3724  0.1782
 3835W        W 8035   2.103   0.455   3.109 -0.1509 -0.1578 -0.0853
 3836W        W 8036  10.192   1.535  10.896 -0.1177 -0.0098  0.1901
 3837W        W 8037   3.712   3.832   3.555 -0.0941  0.1788 -0.2962
 3838W        W 8038   7.048   2.733   4.420 -0.5200  0.0005  0.0416
 3839W        W 8039   8.455   7.247   1.785  0.0498  0.0985  0.3251
 3840W        W 8040   4.579   0.645  11.184  0.2027 -0.0079 -0.1541
 3841W        W 8041   2.813   0.770  10.018 -0.2230  0.0040  0.0679
 3842W        W 8042   3.620   2.020  11.725 -0.1537  0.0331 -0.0978
 3843W        W 8043   2.576   0.793  10.435 -0.0550 -0.2127  0.1114
 3844W        W 8044   9.357   3.084   2.386 -0.0144 -0.1996  0.3484
 3845W        W 8045   9.225   1.811   1.453 -0.3672 -0.1988 -0.0770
 3846W        W 8046   2.671   5.476  10.638  0.4240 -0.2592 -0.1406
 3847W        W 8047   6.216   3.547   9.620  0.1887  0.2048  0.0647
 3848W        W 8048   8.644   9.962   2.343 -0.0068 -0.3781 -0.2144
 3849W        W 8049   7.248   9.946   2.497 -0.1616  0.0013  0.1713
 3850W        W 8050   6.002   3.157   1.537 -0.0734  0.0106 -0.0091
 3851W        W 8051   1.355   3.485  11.301 -0.0355 -0.3355  0.4262
 3852W        W 8052   7.331   5.094  10.252  0.1797  0.0916  0.0715
 3853W        W 8053   8.308   6.954  13.203 -0.4251 -0.4007 -0.2479
 3854W        W 8054   3.460   3.674   2.173 -0.1903  0.2882  0.0926
 3855W        W 8055   2.090   1.217   3.478 -0.0720  0.0862 -0.2615
 3856W        W 8056   7.730   0.674  13.330 -0.2158 -0.2261  0.1475
 3857W        W 8057   5.077   4.527   0.791 -0.2875 -0.0243 -0.2577
 3858W        W 8058   4.657   4.716   1.084  0.0432 -0.0761 -0.0653
 3859W        W 8059   6.888   9.741  10.520  0.0013  0.1969  0.2354
 3860W        W 8060   3.427   3.729  11.574  0.0453  0.1176 -0.0833
 3861W        W 8061   5.120  10.376   9.967 -0.0662  0.2453  0.0145
 3862W        W 8062   3.182   0.279  11.899  0.1433  0.1902  0.1713
 3863W        W 8063   3.770   0.271  13.189  0.2432 -0.0101  0.1831
 3864W        W 8064   9.230   5.026   4.534  0.0023 -0.1114  0.0184
 3865W        W 8065   4.576   1.469   0.705  0.3094 -0.2966  0.0981
 3866W        W 8066   6.801   6.211  11.786 -0.1674 -0.0835 -0.3285
 3867W        W 8067   1.916   0.890   3.074  0.3551 -0.0684 -0.0474
 3868W        W 8068   3.152   3.687   1.783 -0.0180  0.2764  0.0823
 3869W        W 8069   0.372   2.037  10.229  0.0121  0.0498 -0.0991
 3870W        W 8070   6.844   3.251   0.043 -0.1379  0.1294 -0.1197
 3871W        W 8071   4.047  10.362   3.726 -0.1008  0.0231 -0.1167
 3872W        W 8072   5.883  10.287   3.333  0.0255  0.1651 -0.0195
 3873W        W 8073   1.361   8.142   1.234 -0.1760  0.1444 -0.2101
 3874W        W 8074   3.246   6.799   3.873 -0.2203  0.1720 -0.0336
 3875W        W 8075   2.910   0.452   5.245  0.3104  0.3360  0.3684
 3876W        W 8076   4.519   7.260  10.731 -0.0256 -0.1630 -0.2492
 3877W        W 8077   2.163   3.354   0.150  0.0960  0.1125  0.3436
 3878W        W 8078   2.523   3.867   0.588 -0.2275 -0.2883 -0.0333
 3879W        W 8079   0.005   8.706   2.990 -0.1726  0.1074  0.2466
 3880W        W 8080   9.197  10.110   3.691 -0.0720 -0.1377 -0.0788
 3881W        W 8081   0.488   6.386  11.749 -0.2687 -0.3098 -0.3146
 3882W        W 8082   6.199   3.561   1.246  0.2146  0.3635  0.5612
 3883W        W 8083  10.243   4.511  13.139  0.2391 -0.1750  0.0455
 3884W        W 8084   8.448   5.422   9.794 -0.1302  0.3054  0.0976
 3885W        W 8085  10.232   1.617  13.216 -0.1949  0.2644 -0.0691
 3886W        W 8086   0.492   1.093  10.473  0.4213  0.1113 -0.2236
 3887W        W 8087   3.627  10.463   0.335  0.0242 -0.2517 -0.3063
 3888W        W 8088   4.821   1.146   1.005  0.0518  0.1567  0.2552
 3889W        W 8089   9.051   0.065   0.907 -0.0849  0.0391  0.0114
 3890W        W 8090   9.358   1.249   4.521 -0.3153  0.3007  0.0625
 3891W        W 8091   2.539   0.198  10.686  0.2942 -0.3929  0.1935
 3892W        W 8092   0.183   9.813   9.680  0.2397 -0.0797 -0.2069
 3893W        W 8093   6.514   2.795   1.471 -0.1058  0.0161  0.1649
 3894W        W 8094   6.128   7.094   1.868 -0.0629 -0.2509  0.1459
 3895W        W 8095   2.336   7.244  10.449  0.0394 -0.0185 -0.1783
 3896W        W 8096  10.374   3.197   8.869  0.0319  0.3978  0.1984
 3897W        W 8097   9.064   8.602   4.469  0.1135 -0.0557  0.0564
 3898W        W 8098   3.441   0.929  12.273  0.0380  0.0816  0.2376
 3899W        W 8099   6.905   2.328   1.167  0.1344  0.0500 -0.0147
 3900W        W 8100   5.900   2.804   2.872 -0.1959  0.1634  0.1682
 3901W        W 8101   3.114   7.894   2.416  0.0898  0.0439 -0.2305
 3902W        W 8102   9.986   3.090  12.023 -0.0884  0.1375  0.0342
 3903W        W 8103   1.660   6.239   3.167 -0.0240 -0.1139 -0.1605
 3904W        W 8104   0.887   3.826   8.523  0.2055 -0.0521 -0.1693
 3905W        W 8105   6.807   3.233   2.559 -0.0747  0.1161  0.0464
 3906W        W 8106   5.627   5.968  11.838  0.0907  0.0922 -0.1805
 3907W        W 8107   1.015   7.879   9.982  0.1643 -0.1625 -0.0879
 3908W        W 8108   3.324   2.075   8.828  0.0882  0.0338 -0.1931
 3909W        W 8109   1.303   3.522  11.816 -0.0987  0.0486 -0.0353
 3910W        W 8110  10.068   7.399   3.001  0.0959 -0.1184 -0.0124
 3911W        W 8111   4.027   2.602  12.723  0.6468  0.1159 -0.1861
 3912W        W 8112   1.921   4.203  12.773  0.2432 -0.0079  0.2684
 3913W        W 8113   6.809   4.826  12.122 -0.1077 -0.2618 -0.3262
 3914W        W 8114   3.750   5.930   4.927  0.1491  0.1108  0.3725
 3915W        W 8115   8.131  10.022   4.774  0.1426  0.0649 -0.0650
 3916W        W 8116   7.761   6.774   4.635  0.0733 -0.3391 -0.1075
 3917W        W 8117  10.435   6.892   5.046  0.0621 -0.0367  0.1673
 3918W        W 8118   2.355   2.351   1.151 -0.2042 -0.3502 -0.2319
 3919W        W 8119   4.753   2.209   9.298  0.3622  0.1538 -0.0181
 3920W        W 8120   6.376   2.495   0.303  0.0655  0.0138  0.2250
 3921W        W 8121   8.775   2.594  11.264 -0.1122  0.1274  0.2570
 3922W        W 8122   1.139   9.692   4.493 -0.1814  0.0730 -0.3618
 3923W        W 8123   3.138  10.236   2.657  0.0214  0.4445 -0.1764
 3924W        W 8124   4.428   0.700   3.136 -0.1557 -0.4279  0.1644
 3925W        W 8125   6.343   4.870  10.696  0.0874  0.0588  0.0097
 3926W        W 8126   6.897   7.685  10.452  0.1265  0.1208  0.1174
 3927W        W 8127   8.256   5.521   0.023  0.0583  0.1290  0.1054
 3928W        W 8128   7.586   7.554  11.395  0.0808 -0.1547 -0.2461
 3929W        W 8129  10.025   9.525   1.452 -0.1929  0.1554 -0.0861
 3930W        W 8130   9.497  10.245   1.871  0.1042 -0.1165 -0.2838
 3931W        W 8131  10.420   8.445   1.992  0.1147 -0.0120  0.2704
 3932W        W 8132   0.560   9.915   0.492 -0.1425 -0.3975 -0.2324
 3933W        W 8133  10.498   9.281   1.252 -0.0697  0.0045  0.0499
 3934W        W 8134   5.478   1.759   4.075 -0.0358  0.3009 -0.0272
 3935W        W 8135   6.208   8.077  13.193 -0.2098 -0.2470 -0.0789
 3936W        W 8136   8.043   3.436   3.159 -0.2761  0.2005 -0.1586
 3937W        W 8137   0.806   6.029   0.603 -0.2713 -0.0325  0.0265
 3938W        W 8138   9.980   4.147   1.644 -0.1818 -0.2573  0.0747
 3939W        W 8139   8.602   1.137   4.009 -0.1601 -0.1819 -0.0338
 3940W        W 8140  10.478   4.757  10.550 -0.1729 -0.0396 -0.4513
 3941W        W 8141   8.662   7.572  11.667  0.0719  0.3405 -0.1995
 3942W        W 8142   2.677   8.456   0.691 -0.1546 -0.0577  0.3186
 3943W        W 8143   8.725   7.353   2.289  0.0301 -0.0657  0.0080
 3944W        W 8144   4.294   4.223   4.572 -0.0429 -0.0985  0.3645
 3945W        W 8145   2.150   9.220   3.895  0.2993  0.2023 -0.1731
 3946W        W 8146   0.941   8.130   0.989  0.1231 -0.0329 -0.2152
 3947W        W 8147   0.511   9.481   0.787 -0.0314 -0.0318  0.1437
 3948W        W 8148   8.898   5.026   0.632  0.2067 -0.0432 -0.0484
 3949W        W 8149   5.612   8.730  13.375  0.1416 -0.1036  0.0067
 3950W        W 8150   1.921   5.337   3.967  0.1351  0.1750  0.1653
 3951W        W 8151   5.632   2.824   9.973  0.1314 -0.1437  0.4134
 3952W        W 8152  10.222   9.025   1.733  0.1940  0.0241  0.0176
 3953W        W 8153   9.658   0.864   3.094 -0.0252  0.1504 -0.1030
 3954W        W 8154   2.658   8.258   2.330  0.0345  0.1875 -0.0577
 3955W        W 8155   4.853   3.713  12.168  0.0950 -0.0542  0.0804
 3956W        W 8156  10.359   9.032  12.269  0.0452 -0.1077 -0.0621
 3957W        W 8157   3.580   2.218   2.614  0.0034  0.1489  0.0879
 3958W        W 8158   4.685   2.105   1.952  0.0297  0.1837 -0.0076
 3959W        W 8159   3.419   4.271  10.114  0.0637  0.1107 -0.1969
 3960W        W 8160   9.937   0.129   0.098 -0.0043 -0.2892 -0.0947
 3961W        W 8161   6.124  10.237   2.056 -0.0802 -0.1424  0.1079
 3962W        W 8162   6.542   7.046  11.129 -0.0068  0.1886 -0.1509
 3963W        W 8163   3.673   0.473   1.455 -0.2188 -0.1710 -0.1565
 3964W        W 8164   5.731   7.294   2.102 -0.0455 -0.2107  0.3617
 3965W        W 8165   1.465   7.304   4.055 -0.0257 -0.1261  0.0554
 3966W        W 8166   4.830   6.957   3.012 -0.2007 -0.2131  0.0988
 3967W        W 8167   8.064   0.560  10.387 -0.0474 -0.1846 -0.0178
 3968W        W 8168   7.429   3.373   0.546 -0.1427  0.1553  0.1474
 3969W        W 8169   3.013   3.529   3.442  0.3202  0.1635  0.0017
 3970W        W 8170   6.362   4.832  11.849 -0.0246 -0.1935  0.1051
 3971W        W 8171   1.294   9.743   1.925 -0.2020 -0.1313  0.2410
 3972W        W 8172   4.459   3.100  13.337  0.1487 -0.0108 -0.1716
 3973W        W 8173   7.674   5.366   9.258  0.2699  0.1484  0.1352
 3974W        W 8174   9.593   7.682   4.029 -0.1913 -0.2911  0.1935
 3975W        W 8175   9.870   0.677   9.133 -0.1306 -0.0971 -0.0458
 3976W        W 8176   7.727   4.651   0.319  0.0767 -0.3573  0.1271
 3977W        W 8177   6.601   4.947  11.106 -0.1688  0.1256 -0.0070
 3978W        W 8178   5.540   6.721   9.100  0.0092  0.1370  0.2029
 3979W        W 8179   0.078   5.940   4.051  0.1073  0.0800  0.0776
 3980W        W 8180  10.396   2.000   5.350  0.2605  0.0727  0.3331
 3981W        W 8181   8.616   2.752  12.841  0.0201  0.0343  0.1676
 3982W        W 8182   7.282   9.253   0.151 -0.0535 -0.0198  0.1541
 3983W        W 8183   3.821   1.210  12.740  0.0562  0.1026  0.0225
 3984W        W 8184   1.299   4.606   1.781  0.0764  0.0483 -0.0257
 3985W        W 8185   9.978   2.436   4.378 -0.2733  0.0781 -0.1106
 3986W        W 8186   1.134   4.466   3.470  0.0043 -0.0341 -0.0776
 3987W        W 8187   0.881   9.715  11.672  0.1145  0.1642  0.3349
 3988W        W 8188   7.496   2.910  12.168 -0.0939  0.0151 -0.2241
 3989W        W 8189   6.000   4.870   3.974  0.1567 -0.0112  0.0893
 3990W        W 8190   4.011   2.355  11.759  0.0061  0.0886  0.0760
 3991W        W 8191   2.331   3.740   3.595  0.3345 -0.1735  0.1153
 3992W        W 8192   0.596   1.573  10.578  0.0884 -0.0448  0.1287
 3993W        W 8193   7.392   2.172   3.361 -0.0944  0.0673  0.0827
 3994W        W 8194   4.833   7.401   3.283  0.0614 -0.5296  0.1854
 3995W        W 8195   0.588   6.693   0.723 -0.1129  0.0396  0.1289
 3996W        W 8196   1.131   0.248  12.150  0.0402  0.0068 -0.0563
 3997W        W 8197   5.910   6.361   2.242 -0.0120  0.0090  0.1988
 3998W        W 8198   6.043   2.670  10.229 -0.2479  0.0564 -0.1175
 3999W        W 8199   8.107   3.408   4.695 -0.1475 -0.2646  0.0928
 4000W        W 8200   2.524   2.492   0.298  0.1512  0.2714 -0.2320
 4001W        W 8201   5.888   1.929  10.842  0.1542  0.0851  0.0052
 4002W        W 8202   4.205   4.381   0.348  0.2494  0.0860 -0.0468
 4003W        W 8203   6.092   7.542  12.960 -0.1783  0.0220  0.1179
 4004W        W 8204  10.161   5.096   0.450  0.0500 -0.0866 -0.0122
 4005W        W 8205   7.041   9.180   1.491  0.0206 -0.0167 -0.3872
 4006W        W 8206   1.692   9.828  11.489  0.0617  0.3380  0.1007
 4007W        W 8207   8.621   3.773  10.763  0.0774  0.3605 -0.0764
 4008W        W 8208   9.666   0.404   4.837  0.1772 -0.2558 -0.0211
 4009W        W 8209   3.613   9.989   0.515  0.0944  0.2959 -0.2688
 4010W        W 8210   3.232   0.824   5.459  0.1722 -0.0828  0.0948
 4011W        W 8211   3.175   4.900   2.181 -0.3456 -0.2302  0.0174
 4012W        W 8212   9.720   7.092  11.548  0.0362 -0.0416  0.1228
 4013W        W 8213   7.527   6.932  11.384 -0.1526  0.0954  0.0049
 4014W        W 8214   3.117   3.431  10.354 -0.1108 -0.5218 -0.3191
 4015W        W 8215   7.934   1.093   4.670 -0.2364 -0.0419  0.1095
 4016W        W 8216   3.162   4.820   2.671  0.0598  0.0173  0.1251
 4017W        W 8217   3.723   7.042   9.439 -0.0736 -0.3870 -0.0978
 4018W        W 8218   3.112   2.016   3.270  0.3659 -0.0300  0.0520
 4019W        W 8219   6.472   3.221   3.141 -0.3139  0.1415  0.0341
 4020W        W 8220   2.674   6.965   9.512  0.2350  0.0738 -0.1067
 4021W        W 8221   0.926   7.247  11.511 -0.1155 -0.0744  0.0967
 4022W        W 8222   2.770   5.713  11.116  0.3221 -0.2635 -0.1645
 4023W        W 8223   1.344   6.412   4.696  0.0215 -0.5564  0.1520
 4024W        W 8224   9.394  10.132   1.090 -0.1632  0.1972  0.0764
 4025W        W 8225   3.344  10.371  11.649  0.1968 -0.1187 -0.1762
 4026W        W 8226   9.830   8.953   4.703 -0.0855 -0.0325  0.0319
 4027W        W 8227   4.931   8.020  13.160  0.0580 -0.2646  0.0849
 4028W        W 8228   4.221   9.304   9.868  0.0076 -0.1903 -0.1429
 4029W        W 8229   1.983   7.824   3.777 -0.2053  0.3395  0.1227
 4030W        W 8230   3.421   0.092  12.871  0.0525  0.0351  0.1214
 4031W        W 8231   7.564   8.130  10.758 -0.0977  0.3528  0.0470
 4032W        W 8232   6.684   2.090   2.787 -0.0919  0.0656  0.2300
 4033W        W 8233   5.442   2.342   5.105  0.0284  0.0330  0.0386
 4034W        W 8234   5.745   3.088   4.030 -0.1127  0.1090  0.3314
 4035W        W 8235   2.438   1.487   0.704  0.2578 -0.0338  0.0083
 4036W        W 8236   4.737   4.725   0.540  0.3941 -0.0856  0.2208
 4037W        W 8237   2.279   3.825   4.722 -0.3204 -0.1592  0.0174
 4038W        W 8238   3.162   8.127  11.501  0.2957  0.0896  0.3685
 4039W        W 8239   3.070   1.981  10.218  0.0797  0.1891 -0.0037
 4040W        W 8240   2.867   3.502   1.370 -0.2128 -0.1986 -0.0890
 4041W        W 8241   2.427   6.127  12.546  0.1018  0.2861  0.0093
 4042W        W 8242   1.474   8.030   0.237  0.1114 -0.2025  0.2412
 4043W        W 8243   9.458   6.361  12.521  0.2844  0.1361 -0.1817
 4044W        W 8244   4.925   4.149   5.264  0.1049 -0.0401 -0.0550
 4045W        W 8245   8.341   1.714   9.966 -0.1194  0.2270 -0.1821
 4046W        W 8246   6.764  10.162  11.131  0.2522  0.0420 -0.2986
 4047W        W 8247   0.653   2.222   1.962 -0.1805 -0.1981 -0.1506
 4048W        W 8248   0.575   6.932   5.673 -0.1722  0.0965 -0.0988
 4049W        W 8249   5.167   5.525  12.662 -0.2639 -0.2067 -0.2152
 4050W        W 8250   1.227   2.402  12.002  0.0672  0.3048  0.0144
 4051W        W 8251   0.408   8.809   2.145 -0.2371 -0.0062 -0.0553
 4052W        W 8252   0.089   5.475  11.172  0.1628  0.1524  0.1076
 4053W        W 8253   7.707   0.379  11.220  0.1065 -0.3646 -0.1757
 4054W        W 8254   3.238   9.154   8.866 -0.1159  0.0372 -0.0678
 4055W        W 8255   5.506   9.115   0.626 -0.1063  0.1518  0.1636
 4056W        W 8256   2.708   3.779   4.431 -0.3426  0.2072 -0.1969
 4057W        W 8257   1.820   4.299  12.253  0.2165  0.0836  0.2393
 4058W        W 8258   0.301   1.237   0.579 -0.2011 -0.0780 -0.2727
 4059W        W 8259   9.543   8.310   0.196 -0.0682 -0.1839 -0.3452
 4060W        W 8260   7.212   3.903  11.024  0.1983  0.1325  0.0323
 4061W        W 8261   3.788   4.053   2.596 -0.0158 -0.2720  0.0676
 4062W        W 8262   3.614   3.381   1.809 -0.2221 -0.2029 -0.1386
 4063W        W 8263   7.706   6.424   4.251  0.3571  0.1080  0.0230
 4064W        W 8264   8.968   6.044   0.547  0.0926 -0.2182 -0.2981
 4065W        W 8265   0.696   7.658  12.567  0.0365 -0.0148  0.3737
 4066W        W 8266   6.106   6.250  10.146 -0.1217  0.0639  0.0351
 4067W        W 8267   7.225   1.740   1.110  0.0229 -0.2916  0.0618
 4068W        W 8268   0.519   5.021  13.116  0.1105 -0.1448  0.1464
 4069W        W 8269   2.791  10.363   2.349 -0.2866 -0.0970  0.0910
 4070W        W 8270   5.406   9.117   1.899 -0.2683  0.0059  0.1214
 4071W        W 8271   3.706   7.392  13.107 -0.3042 -0.0766  0.0014
 4072W        W 8272   8.578   2.291   3.119  0.1494 -0.2400  0.3354
 4073W        W 8273   7.588   4.764  11.855 -0.1323 -0.1884 -0.2737
 4074W        W 8274  10.066   2.099   2.439  0.3667  0.0629  0.4417
 4075W        W 8275   8.902   6.821   9.670 -0.0151  0.0824 -0.2207
 4076W        W 8276   1.709   8.310   9.836  0.2519  0.1128 -0.2143
 4077W        W 8277   4.087  10.272   2.093  0.1800 -0.0216  0.0213
 4078W        W 8278   7.673   0.462   2.007  0.1466 -0.2879  0.1278
 4079W        W 8279   1.557   9.459  11.116  0.1324  0.0507  0.5034
 4080W        W 8280   7.282   5.518   0.305 -0.1387 -0.0837 -0.0955
 4081W        W 8281   2.131   7.303   1.309  0.1399 -0.1487 -0.0795
 4082W        W 8282   0.922   8.568   0.027  0.5270  0.0596  0.0283
 4083W        W 8283   4.340   2.832   0.924 -0.0302  0.1902 -0.1210
 4084W        W 8284   7.118   0.747   3.465  0.0275 -0.0296  0.1636
 4085W        W 8285   9.437   4.658   2.320 -0.2181 -0.0257  0.2138
 4086W        W 8286   6.836   1.661   8.595 -0.1134 -0.2774  0.1372
 4087W        W 8287   9.499   3.280  10.214 -0.2628  0.0306  0.3545
 4088W        W 8288   0.192   6.726  10.601 -0.2728 -0.0155  0.0815
 4089W        W 8289   9.259   8.146   4.791  0.2068  0.0131  0.0850
 4090W        W 8290   1.010   2.596  11.649 -0.0121 -0.0894 -0.0455
 4091W        W 8291   9.169   0.426   1.276  0.0567 -0.2302  0.0210
 4092W        W 8292   2.001   2.144  10.308 -0.3274  0.5194  0.1795
 4093W        W 8293   6.154   2.493   4.681  0.4061  0.3491  0.1026
 4094W        W 8294   0.952   0.847   4.325 -0.0957 -0.1699  0.0885
 4095W        W 8295   7.468   2.490   9.598 -0.0552 -0.1606  0.0793
 4096W        W 8296   7.576   0.231  12.521  0.4825 -0.0187 -0.0637
 4097W        W 8297   5.787   5.999   9.786 -0.2571 -0.1576  0.0955
 4098W        W 8298   9.216   6.332  11.614  0.1969  0.0942 -0.1735
 4099W        W 8299   8.686  10.145  10.854 -0.0193  0.2893 -0.1072
 4100W        W 8300   7.342   2.584   0.873 -0.1455 -0.0400  0.1300
 4101W        W 8301  10.223  10.036   0.097 -0.0850  0.2655  0.3972
 4102W        W 8302   1.505   6.814   0.505  0.0414 -0.1981  0.0704
 4103W        W 8303   2.248   0.451   1.232  0.0961  0.0895 -0.1414
 4104W        W 8304   2.232   6.070   9.937 -0.0272  0.2868  0.0105
 4105W        W 8305   4.148   0.664  13.302 -0.1051  0.0051 -0.0644
 4106W        W 8306   9.732   9.113  11.234 -0.0388  0.0674  0.1801
 4107W        W 8307   2.864   1.181   3.150  0.1293  0.1828 -0.1873
 4108W        W 8308   3.415   7.360   1.275  0.2792 -0.1089 -0.0468
 4109W        W 8309   0.764   0.911   3.855  0.0663  0.2191 -0.0787
 4110W        W 8310   4.663   8.467   3.341  0.0882 -0.1047  0.0077
 4111W        W 8311   8.398   4.753  11.796  0.0459 -0.0494  0.2814
 4112W        W 8312   0.873   9.985   8.532 -0.1235 -0.2938  0.0124
 4113W        W 8313   9.640   5.927   4.791 -0.0724  0.2749 -0.2030
 4114W        W 8314   8.972   9.017   1.483  0.3041 -0.1096 -0.0071
 4115W        W 8315  10.088   0.844   8.503 -0.0006  0.0420  0.0230
 4116W        W 8316   9.395   9.525  13.214 -0.1099 -0.1369  0.3564
 4117W        W 8317   3.910   8.122  11.756  0.2658 -0.0003  0.0483
 4118W        W 8318   3.312   5.038  10.199 -0.4004 -0.0289  0.0354
 4119W        W 8319   0.300   4.783   3.207  0.0681 -0.3443  0.1292
 4120W        W 8320   1.687   0.013  10.150 -0.0209 -0.1076 -0.0085
 4121W        W 8321   6.673   1.045  10.437  0.1907 -0.1346  0.1874
 4122W        W 8322  10.206  10.228   1.609 -0.0204 -0.0191  0.2945
 4123W        W 8323   4.162   6.600   3.342  0.1046  0.0553  0.1095
 4124W        W 8324   4.353   3.617   2.658  0.3756 -0.2206 -0.3124
 4125W        W 8325  10.440   7.949  10.753  0.1034  0.0152 -0.0455
 4126W        W 8326   4.067   6.189  12.503 -0.3347  0.2296  0.1581
 4127W        W 8327   0.692   4.210   8.711 -0.1395  0.2727 -0.0921
 4128W        W 8328   7.157   1.077  10.758 -0.0301  0.2299 -0.1994
 4129W        W 8329   8.903   1.231   0.180  0.2262 -0.2619 -0.1113
 4130W        W 8330   7.215   1.252   1.179  0.0383  0.2980  0.0008
 4131W        W 8331   3.425   5.568   9.510 -0.4153  0.1499 -0.1606
 4132W        W 8332   4.444   1.444   1.205 -0.1822  0.3160  0.3501
 4133W        W 8333   0.238   3.136  11.204  0.0028  0.1188  0.0652
 4134W        W 8334  10.152   0.456   2.329 -0.1914  0.1378  0.3162
 4135W        W 8335   6.997   6.718   3.472 -0.0271  0.0190  0.4100
 4136W        W 8336   5.335   9.686  11.435  0.1868 -0.0690  0.2979
 4137W        W 8337   3.452   5.914   4.431  0.0141 -0.2743 -0.0464
 4138W        W 8338   8.658   0.381   9.705 -0.2900  0.1429  0.1647
 4139W        W 8339   7.837   2.000   3.445  0.1287  0.3525  0.1502
 4140W        W 8340   7.871   7.173  12.885  0.1010 -0.0412 -0.1059
 4141W        W 8341   9.256   1.116  10.268 -0.1872  0.2737  0.1561
 4142W        W 8342   1.297   4.957   2.234 -0.1253  0.0691 -0.2312
 4143W        W 8343   7.934   4.443   2.744  0.0562 -0.1635  0.4034
 4144W        W 8344   5.188   0.767   0.957  0.1792 -0.2360  0.1490
 4145W        W 8345   5.304   4.403   0.197  0.1437  0.0992  0.2326
 4146W        W 8346   8.924  10.325   4.621  0.2790 -0.0196  0.0370
 4147W        W 8347   9.323   5.040  11.156 -0.3585 -0.0778  0.1730
 4148W        W 8348   9.169   1.126   8.978 -0.0618  0.0083  0.0101
 4149W        W 8349   9.196   1.099   3.434  0.0695  0.1717 -0.3013
 4150W        W 8350   3.416   6.297  11.750 -0.2665 -0.1122  0.1741
 4151W        W 8351  10.224   9.238   4.007  0.4584  0.3866  0.3699
 4152W        W 8352   7.267   9.069   2.407  0.0697 -0.6607  0.1140
 4153W        W 8353   2.280   2.595  10.972 -0.1521 -0.0355 -0.0992
 4154W        W 8354   8.202   9.642   1.729  0.3131  0.0405  0.1019
 4155W        W 8355   0.374   9.042  10.385 -0.2287 -0.1333 -0.1969
 4156W        W 8356   9.768   2.885  12.789  0.2413  0.0589  0.1052
 4157W        W 8357   3.220   3.097   0.662  0.1819 -0.0747 -0.1135
 4158W        W 8358   6.086   0.593   2.076  0.2757  0.1223  0.0861
 4159W        W 8359   9.287   4.567  11.367 -0.0578  0.1118  0.1546
 4160W        W 8360   0.689   6.211   3.347 -0.0376  0.2700  0.0198
 4161W        W 8361   3.115   7.874   3.130 -0.0238 -0.0911  0.0977
 4162W        W 8362   5.303   0.673  10.049 -0.1294  0.0436  0.6461
 4163W        W 8363   1.336   2.519  10.694 -0.1860 -0.1003  0.0615
 4164W        W 8364   1.340   0.049   4.056 -0.1993 -0.0063  0.2201
 4165W        W 8365   2.801   5.360   4.536  0.0410 -0.2838 -0.1680
 4166W        W 8366   2.667   3.829  13.005  0.4131 -0.2002 -0.0606
 4167W        W 8367   3.419   7.759   1.559 -0.0953  0.0528  0.1315
 4168W        W 8368   9.114   8.757   2.722  0.0318  0.4333  0.0434
 4169W        W 8369   8.944   9.556   2.289  0.4423  0.1621  0.1383
 4170W        W 8370   6.197   1.798  11.277 -0.1421 -0.0113 -0.2582
 4171W        W 8371   1.172   1.839   0.639  0.0523 -0.0237  0.2290
 4172W        W 8372   4.408   4.718  11.103 -0.2614  0.1061  0.4490
 4173W        W 8373   4.752   8.360   2.808  0.0326 -0.1034  0.1343
 4174W        W 8374   8.252   2.044  13.187 -0.0530 -0.3769  0.0635
 4175W        W 8375   2.145   9.220   1.649 -0.1453  0.1642  0.1923
 4176W        W 8376   8.363   7.964  11.353  0.2015 -0.1664 -0.0145
 4177W        W 8377   0.867   9.966   0.072 -0.1708 -0.1190 -0.0401
 4178W        W 8378   8.318   3.349  10.938 -0.1245 -0.3177  0.0986
 4179W        W 8379   5.404   5.924   9.129 -0.1406  0.2944  0.1255
 4180W        W 8380   4.729   9.650  12.242 -0.0437 -0.0723  0.3090
 4181W        W 8381   2.823   9.767   1.799  0.0717 -0.0612 -0.1974
 4182W        W 8382   3.813   7.280  10.878 -0.0751 -0.1359  0.0655
 4183W        W 8383   0.216   1.865   1.537 -0.0540  0.0435 -0.0399
 4184W        W 8384   9.527   4.163   2.033 -0.0687 -0.1781 -0.0992
 4185W        W 8385   8.427   0.748  10.000  0.1700  0.2719 -0.1370
 4186W        W 8386   7.034   9.934   2.925 -0.0155  0.0472 -0.5025
 4187W        W 8387   3.697   1.324   0.188  0.0866 -0.0241 -0.4653
 4188W        W 8388  10.412   8.632   3.633 -0.2800 -0.0581  0.0838
 4189W        W 8389   8.146   2.153   4.555  0.2614 -0.0993  0.2184
 4190W        W 8390   3.509   8.260   2.292 -0.1006 -0.3081  0.0245
 4191W        W 8391   0.898   9.295  10.378 -0.1463 -0.0378  0.2481
 4192W        W 8392   4.812   9.801   3.519 -0.0416 -0.1363  0.3094
 4193W        W 8393   9.799   8.078   0.657 -0.0470 -0.1442 -0.0260
 4194W        W 8394   5.637   0.802   1.220  0.1156 -0.0113  0.1043
 4195W        W 8395   6.468   6.251  12.324  0.1115 -0.1449  0.3311
 4196W        W 8396   6.661   0.671   3.007 -0.2597  0.3300 -0.1230
 4197W        W 8397   3.472   3.885  12.030 -0.1255  0.0481 -0.1793
 4198W        W 8398   9.783   0.561  11.226 -0.2890 -0.1125  0.1667
 4199W        W 8399   4.396   7.663   1.558 -0.1555  0.0695 -0.2663
 4200W        W 8400   5.438   2.759   3.248  0.0232 -0.0097  0.2961
 4201W        W 8401   6.720   1.411   0.424 -0.0375  0.0122 -0.0547
 4202W        W 8402   4.069   7.169   2.458 -0.4659  0.0931 -0.2820
 4203W        W 8403   5.613   7.592  11.912 -0.0155 -0.0642  0.0193
 4204W        W 8404   0.200   8.401  10.438  0.0131  0.2309 -0.2270
 4205W        W 8405   8.819   3.169  12.940 -0.2133 -0.0604 -0.0779
 4206W        W 8406   2.933   0.347  10.416  0.0864 -0.1250  0.0762
 4207W        W 8407   4.265   4.592   3.765  0.1767  0.2950  0.1294
 4208W        W 8408   0.167   3.635  12.477  0.1099  0.4789  0.1408
 4209W        W 8409   4.790   5.865   3.186  0.2547 -0.1695  0.2886
 4210W        W 8410   9.000   4.798   4.058 -0.1710 -0.3983  0.0541
 4211W        W 8411   4.254   5.828   3.407 -0.3386 -0.1951  0.0638
 4212W        W 8412   0.638   6.304  11.240  0.2502 -0.2719 -0.1075
 4213W        W 8413   6.652   6.357   3.571  0.1709 -0.1264  0.0033
 4214W        W 8414   5.693   5.498   1.022 -0.3500  0.2498 -0.1116
 4215W        W 8415   7.415   5.278   1.626  0.2070 -0.1711  0.0367
 4216W        W 8416   2.726   2.481  11.276  0.4895  0.1881  0.1394
 4217W        W 8417   6.385   1.613   3.082  0.0499 -0.0753 -0.0807
 4218W        W 8418   4.830   1.376  10.533 -0.0554 -0.1418  0.2286
 4219W        W 8419   8.450   0.906   2.826  0.1142  0.1361 -0.2583
 4220W        W 8420   1.514   4.339   1.327  0.1036 -0.0992  0.0911
 4221W        W 8421   9.611   1.735   8.401  0.0432  0.0864  0.3487
 4222W        W 8422   8.997   5.614   0.808  0.1917  0.0359 -0.1424
 4223W        W 8423   8.635   0.580   1.640 -0.0813 -0.3582  0.2092
 4224W        W 8424   7.304   4.415   4.137  0.4252  0.0427  0.0929
 4225W        W 8425   8.129   5.442   3.809  0.1567 -0.0514 -0.1826
 4226W        W 8426   6.934   1.863   3.203 -0.0482  0.2008  0.2528
 4227W        W 8427   9.773   8.588  10.834 -0.1729  0.1865 -0.0608
 4228W        W 8428   9.595   0.345   3.158 -0.2237 -0.0660 -0.2655
 4229W        W 8429   8.409   3.284   2.767  0.1483  0.4089 -0.0888
 4230W        W 8430   0.218   8.952   2.614 -0.0429 -0.1756  0.2826
 4231W        W 8431   5.116   1.703   4.452  0.0556 -0.0684  0.2895
 4232W        W 8432   8.826   3.340   3.117 -0.0588 -0.2833  0.1729
 4233W        W 8433   3.232   1.095   9.968  0.0237  0.1603 -0.1439
 4234W        W 8434   9.206   7.987   3.190 -0.0069 -0.0616  0.2187
 4235W        W 8435   2.871   3.851  10.146 -0.0745  0.1263 -0.5036
 4236W        W 8436   7.469   5.192  12.667 -0.0969 -0.0330 -0.1766
 4237W        W 8437   3.355   7.209  10.625 -0.0243 -0.0110 -0.1145
 4238W        W 8438   8.348   0.650   0.823  0.0146 -0.0492 -0.1295
 4239W        W 8439   0.802   3.364   0.389 -0.0346 -0.0016 -0.0178
 4240W        W 8440  10.071   7.139   2.212 -0.1307  0.0145 -0.0301
 4241W        W 8441   0.962   4.013   4.382  0.2795 -0.1931 -0.1614
 4242W        W 8442   6.993   9.278  10.733 -0.2056 -0.1933 -0.1911
 4243W        W 8443   2.160   3.298   3.791 -0.0797  0.0277  0.1445
 4244W        W 8444   0.182   2.217  11.326 -0.0800  0.1588  0.0186
 4245W        W 8445   3.826   2.773   8.474  0.2945  0.1869 -0.2143
 4246W        W 8446   6.016   6.845   0.879  0.2746 -0.1033  0.0321
 4247W        W 8447   6.900   5.279   1.834  0.1345 -0.1553 -0.1451
 4248W        W 8448   7.836   8.224  13.351  0.0588 -0.1606  0.2023
 4249W        W 8449   6.608   4.353   8.468  0.0174  0.1660  0.0927
 4250W        W 8450   1.119   7.046   2.915  0.0189 -0.2708  0.0306
 4251W        W 8451   8.984   0.806  12.189 -0.1210  0.0728  0.2359
 4252W        W 8452   1.373   0.953  12.439 -0.0589 -0.1959  0.5026
 4253W        W 8453   0.764   4.856   5.474 -0.1929 -0.2111 -0.2814
 4254W        W 8454   7.955   0.839  11.167  0.0565 -0.1977 -0.3316
 4255W        W 8455   8.178   5.247   9.165 -0.0232  0.1626  0.0749
 4256W        W 8456   5.001   3.633   4.943  0.0504 -0.0279 -0.0447
 4257W        W 8457   5.663   5.387   3.251  0.1450 -0.0244 -0.1075
 4258W        W 8458   7.441   1.536   2.674 -0.0989  0.1311  0.1929
 4259W        W 8459   2.839   2.588  10.558  0.1175  0.1107  0.2267
 4260W        W 8460   8.330   5.150   1.996 -0.1953  0.0165  0.2356
 4261W        W 8461   7.295   8.822  12.797  0.1278 -0.1154  0.0587
 4262W        W 8462   4.437   0.231  11.501 -0.0460 -0.1672 -0.1271
 4263W        W 8463   6.483   0.008  10.886 -0.0624 -0.0218 -0.0927
 4264W        W 8464  10.127   0.580  12.931  0.6763  0.2315  0.4843
 4265W        W 8465   7.603   7.247  13.368 -0.4012  0.1772 -0.2518
 4266W        W 8466   5.120   2.538  11.953 -0.0292 -0.2347  0.1377
 4267W        W 8467   9.016   0.158  11.191 -0.0333 -0.2533  0.0642
 4268W        W 8468   6.220   1.008  10.153  0.0258 -0.1174  0.2971
 4269W        W 8469   9.607   1.072   9.257  0.0370  0.1158 -0.3250
 4270W        W 8470   4.508   0.626   4.680 -0.3699  0.1020 -0.2634
 4271W        W 8471   7.810   5.054   2.129  0.0241 -0.0416  0.1672
 4272W        W 8472   2.615   0.002   2.786  0.1257  0.0156  0.0079
 4273W        W 8473   2.272   6.143   4.366  0.0058  0.2032 -0.0858
 4274W        W 8474   2.386   0.734   4.437  0.0931 -0.0876  0.0930
 4275W        W 8475   3.312   2.894  10.615  0.0101 -0.4436  0.0151
 4276W        W 8476   8.501   7.720  10.329 -0.0663  0.1226 -0.0032
 4277W        W 8477   4.348   3.717  11.925 -0.1797  0.0176  0.1685
 4278W        W 8478   3.624   0.644  10.408 -0.0123 -0.0776 -0.2810
 4279W        W 8479   5.552   1.790   3.386 -0.0115 -0.0667 -0.2843
 4280W        W 8480   3.788   5.446  12.075  0.0480 -0.0423 -0.1220
 4281W        W 8481   6.939   6.398  10.828 -0.2921  0.1203  0.1581
 4282W        W 8482   0.619   9.170  10.799  0.2873  0.0199  0.0882
 4283W        W 8483   6.718   2.944  12.462 -0.0923  0.1803 -0.1600
 4284W        W 8484  10.004   8.899  11.677  0.2332  0.1509  0.1985
 4285W        W 8485   4.472   6.705   2.012 -0.1216 -0.2430 -0.2673
 4286W        W 8486   3.762   9.389   9.722  0.1765  0.1368 -0.2370
 4287W        W 8487   1.597   7.163   3.165 -0.0394  0.1731  0.2201
 4288W        W 8488   9.143   9.090   0.565 -0.1190 -0.0272 -0.2789
 4289W        W 8489   9.207   9.965   2.296  0.0775 -0.1330  0.0843
 4290W        W 8490   0.650   0.521   0.071 -0.2239 -0.1699 -0.0129
 4291W        W 8491   3.358   3.615   2.973 -0.0627  0.1638  0.1747
 4292W        W 8492   8.977   2.266   9.478  0.2651 -0.4280 -0.1852
 4293W        W 8493   1.087   9.382   5.428  0.3298  0.1284  0.0259
 4294W        W 8494   0.296   7.640   9.268 -0.1307 -0.0144 -0.2271
 4295W        W 8495   2.566   9.566  13.281  0.0618  0.0718 -0.3106
 4296W        W 8496   1.999   3.672  13.133 -0.0504 -0.2132 -0.1416
 4297W        W 8497   2.730   2.479  12.186 -0.1750  0.1634 -0.1486
 4298W        W 8498   8.116   9.458   1.253 -0.3554  0.1984  0.3975
 4299W        W 8499   9.293   7.797  11.684 -0.1892 -0.1097  0.0050
 4300W        W 8500   9.503   4.640   9.966  0.0658  0.1497 -0.0475
 4301W        W 8501  10.357   5.991  12.764  0.0706  0.1985 -0.1864
 4302W        W 8502   5.537   6.009   0.509  0.1013  0.1186  0.3525
 4303W        W 8503   2.499   3.020  10.668 -0.1547 -0.0453 -0.0148
 4304W        W 8504   0.319   4.678   0.704 -0.2307 -0.1982 -0.0392
 4305W        W 8505   9.224  10.453   1.439 -0.2079  0.1018  0.1922
 4306W        W 8506   0.123   1.000   2.995  0.4196  0.1793 -0.2935
 4307W        W 8507  10.133   7.050   0.614 -0.0962 -0.2365 -0.0460
 4308W        W 8508   5.747   3.589   3.939  0.0948  0.0046 -0.0232
 4309W        W 8509   1.998   1.489   2.171  0.1669 -0.1271  0.2911
 4310W        W 8510   8.723   4.660  12.665  0.3062  0.2687  0.3256
 4311W        W 8511   3.793   4.919   2.015 -0.1441  0.1388  0.1648
 4312W        W 8512   5.927   4.976  10.482 -0.2135 -0.0921 -0.1309
 4313W        W 8513   4.108   1.597   0.198  0.0881 -0.0035 -0.0615
 4314W        W 8514   7.335   3.488   2.588 -0.1233 -0.0609  0.1712
 4315W        W 8515   6.190   7.203   3.498 -0.3328 -0.3603  0.0104
 4316W        W 8516   9.356   1.186  12.777 -0.0668  0.1869 -0.1901
 4317W        W 8517   2.722   1.237   4.427  0.1769 -0.1684 -0.0582
 4318W        W 8518   9.187   1.983  10.136  0.0126  0.0791 -0.1995
 4319W        W 8519   4.328   7.326  10.270 -0.1055  0.4638 -0.2528
 4320W        W 8520   3.386   5.187   1.785  0.1447 -0.1794  0.1352
 4321W        W 8521   0.786   2.688   4.668 -0.1578  0.5055 -0.2048
 4322W        W 8522   1.518  10.454  11.966 -0.0148  0.0421 -0.1018
 4323W        W 8523   2.392   0.510   2.720 -0.0247 -0.0583  0.2637
 4324W        W 8524   5.168   9.095  10.643  0.2161  0.1692  0.0902
 4325W        W 8525   5.593   1.799  11.257 -0.0225 -0.2501 -0.1880
 4326W        W 8526   0.541  10.418   1.206 -0.1027  0.2258 -0.0999
 4327W        W 8527   1.910   2.158   3.026  0.3328 -0.1433  0.0371
 4328W        W 8528   3.869   0.682   9.908  0.1358  0.4277  0.2830
 4329W        W 8529   5.897   0.191   1.806  0.0707  0.0450 -0.0124
 4330W        W 8530   6.318   6.178   4.637  0.0128  0.2775 -0.0218
 4331W        W 8531   5.823   0.852   2.505 -0.0003 -0.0819 -0.2195
 4332W        W 8532   7.094   1.426   9.870  0.2446  0.2763  0.2690
 4333W        W 8533   2.044   6.537   0.064 -0.0129 -0.0398  0.4546
 4334W        W 8534   5.022   2.559   3.637 -0.1360  0.1392  0.0328
 4335W        W 8535   9.958   0.868   0.475  0.0520  0.2784  0.2557
 4336W        W 8536   8.627   5.630  11.517 -0.1665 -0.0216  0.2298
 4337W        W 8537   8.435   0.525   2.526  0.1308 -0.4110  0.3652
 4338W        W 8538   8.813   2.081  10.471  0.0376 -0.1411  0.2691
 4339W        W 8539   3.167   1.785  11.601  0.0648  0.0605  0.3250
 4340W        W 8540   7.650   7.608   3.103 -0.1632 -0.2789  0.1858
 4341W        W 8541   6.632   7.734   0.073  0.1970  0.1060  0.0223
 4342W        W 8542   0.286   5.117   3.775 -0.2467  0.1472  0.2448
 4343W        W 8543   5.030   2.107  11.602  0.2601  0.1649 -0.1830
 4344W        W 8544   6.196   4.061  11.818 -0.0276  0.0619  0.1704
 4345W        W 8545   6.075   4.344   9.781 -0.0225 -0.2165 -0.3304
 4346W        W 8546   6.769   0.595   4.031  0.1809 -0.1686 -0.1782
 4347W        W 8547   2.132   5.049   1.203  0.1797 -0.0014 -0.2813
 4348W        W 8548   0.080   5.944   5.113  0.1407 -0.0637 -0.0851
 4349W        W 8549   0.640   1.966   2.615  0.1042  0.0780  0.1977
 4350W        W 8550   6.963   2.839   1.737  0.2885  0.0580  0.1370
 4351W        W 8551   6.383   6.179   1.493 -0.0856  0.1189 -0.2460
 4352W        W 8552   6.549  10.043   3.958 -0.1011 -0.2684  0.2380
 4353W        W 8553   9.716   3.168   4.244  0.2623 -0.2567 -0.0154
 4354W        W 8554   2.678   8.207  11.435  0.0987 -0.1817  0.2196
 4355W        W 8555   0.156   9.330   3.731  0.2218 -0.1959  0.2338
 4356W        W 8556   3.013   7.562   3.535 -0.0944  0.2222  0.2455
 4357W        W 8557   3.685   4.830   1.384 -0.3788 -0.2474  0.1220
 4358W        W 8558   0.858   1.238   2.190 -0.3880 -0.1148 -0.0730
 4359W        W 8559   4.384   2.767   2.140  0.0689 -0.3329  0.0862
 4360W        W 8560   3.102   2.500   1.578  0.2676 -0.1145 -0.1227
 4361W        W 8561   3.894   1.845   2.404  0.0039 -0.0826  0.0793
 4362W        W 8562   5.832   9.212   2.929  0.0344  0.0067 -0.3004
 4363W        W 8563   5.237   1.882   5.377 -0.4069 -0.1311  0.0328
 4364W        W 8564   8.972   7.441  13.065  0.0694  0.2397 -0.2408
 4365W        W 8565   6.933   4.166   1.034 -0.0875 -0.4241  0.0849
 4366W        W 8566   6.650   6.331   0.277  0.3638 -0.1000  0.0852
 4367W        W 8567   3.939   9.921   2.824  0.0200  0.4576 -0.1530
 4368W        W 8568   9.877   5.418   1.508  0.1322  0.3538 -0.0778
 4369W        W 8569   6.907   8.202   1.793 -0.0977  0.1037  0.4065
 4370W        W 8570   0.031   2.248   3.209  0.0520  0.1933 -0.2486
 4371W        W 8571   2.760   0.306   9.942  0.0776  0.0841  0.0593
 4372W        W 8572   0.491   2.985   2.912  0.0692 -0.0221  0.4960
 4373W        W 8573  10.135   5.595   5.610  0.0481 -0.0859  0.0258
 4374W        W 8574  10.237   9.808  12.917 -0.1519  0.2594  0.4064
 4375W        W 8575   0.532   8.693   9.877 -0.1024 -0.1580  0.2500
 4376W        W 8576   5.295   0.588  12.583  0.1500 -0.0152  0.0812
 4377W        W 8577   9.664   3.466   1.182 -0.0812 -0.0809 -0.0255
 4378W        W 8578   8.699  10.397   3.697 -0.0624 -0.0545 -0.0208
 4379W        W 8579  10.213  10.471   9.331  0.1582 -0.1068 -0.3748
 4380W        W 8580   2.318   6.149  11.819  0.1177 -0.1237  0.1173
 4381W        W 8581   2.422   7.837  10.012  0.0884 -0.2013  0.0974
 4382W        W 8582   8.186   0.657   1.761 -0.0965  0.0448  0.3104
 4383W        W 8583   0.250   7.833  12.731 -0.2479  0.0450  0.0778
 4384W        W 8584   0.208   1.585   4.259  0.1349  0.0240 -0.0196
 4385W        W 8585   4.107   7.572  10.644 -0.1037  0.2847  0.1780
 4386W        W 8586   9.944   8.971   1.253  0.1492 -0.0465 -0.0293
 4387W        W 8587   2.569  10.134   9.369 -0.0968 -0.1902  0.0674
 4388W        W 8588   7.811   6.633   3.045 -0.0999  0.0437 -0.2261
 4389W        W 8589   5.938   4.045   3.352 -0.1024 -0.0043  0.1424
 4390W        W 8590   9.951   0.132  11.595 -0.0225 -0.1760  0.4781
 4391W        W 8591   8.754   4.310   9.011 -0.0329  0.0093 -0.1120
 4392W        W 8592   9.550   0.532  12.418  0.2077  0.0303 -0.1551
 4393W        W 8593   2.270  10.275   2.428 -0.2491 -0.1426  0.0257
 4394W        W 8594   2.270   1.151   1.865 -0.0981  0.0890 -0.0996
 4395W        W 8595   8.573   1.991   0.500 -0.1015  0.0256 -0.0516
 4396W        W 8596   7.034   1.146  11.757  0.2074 -0.1399  0.0477
 4397W        W 8597   8.180   8.170  12.578 -0.0419 -0.1974 -0.3825
 4398W        W 8598  10.089   2.463   3.069  0.1862 -0.5261  0.1209
 4399W        W 8599  10.083   4.136   0.113  0.0207 -0.0484 -0.0750
 4400W        W 8600   0.964   8.480   3.601  0.0902  0.3022 -0.1692
 4401W        W 8601   0.278   4.516  13.270  0.2696 -0.3803 -0.3259
 4402W        W 8602   6.681   4.783   8.253 -0.1064  0.4590 -0.0508
 4403W        W 8603   4.924   5.049  12.776  0.3437  0.1091 -0.0861
 4404W        W 8604   2.462   4.422   3.118 -0.1519  0.1562 -0.0043
 4405W        W 8605   9.631   7.874   1.100  0.1570 -0.0524 -0.1102
 4406W        W 8606   5.624   5.660  12.469 -0.2246  0.2528 -0.4152
 4407W        W 8607   9.420   7.749   4.470  0.3015 -0.2137 -0.0493
 4408W        W 8608   0.905   6.476   1.591  0.1266  0.1895  0.1371
 4409W        W 8609   0.472   6.220   0.910  0.4746  0.0769  0.0459
 4410W        W 8610   5.513   4.587   3.977 -0.3343  0.1429 -0.0512
 4411W        W 8611   7.649   3.946  11.214 -0.0132 -0.2185 -0.0060
 4412W        W 8612   1.836   9.349  10.192  0.2266  0.2028 -0.0463
 4413W        W 8613   3.294   0.719   3.733  0.3144  0.0704  0.1051
 4414W        W 8614   6.869   1.602   2.751 -0.0749  0.1531 -0.1508
 4415W        W 8615   4.180   5.601  11.670 -0.0888 -0.2260  0.2682
 4416W        W 8616   0.531   3.666   4.331 -0.0104  0.1644  0.0879
 4417W        W 8617   8.976   7.951   2.532  0.0184  0.2182  0.0914
 4418W        W 8618   6.426   8.769   2.513  0.1080 -0.0112  0.3218
 4419W        W 8619   7.110   4.846   1.800 -0.1729 -0.0578  0.0295
 4420W        W 8620   8.047   5.967   2.104 -0.3658  0.2762 -0.0641
 4421W        W 8621   7.700   5.400  10.256 -0.0638  0.0176  0.3493
 4422W        W 8622   2.268   7.486   0.409 -0.0247 -0.3752  0.0060
 4423W        W 8623   0.062   7.204   2.917 -0.2755 -0.2272 -0.4044
 4424W        W 8624   7.390   9.797   2.040  0.0171 -0.0412 -0.0667
 4425W        W 8625   6.253   5.839   4.053 -0.0951 -0.0427 -0.1152
 4426W        W 8626   3.161   9.367  10.974  0.0707  0.2123 -0.0415
 4427W        W 8627   3.574   3.234  13.312 -0.0190  0.0192 -0.1087
 4428W        W 8628   6.600  10.379   1.310  0.3698  0.2321 -0.1244
 4429W        W 8629   3.351   1.592   3.235  0.1274 -0.0134 -0.1921
 4430W        W 8630   2.442  10.261  12.118  0.1958 -0.2696  0.5134
 4431W        W 8631   7.355   0.844   0.833 -0.0990  0.2533 -0.0827
 4432W        W 8632   2.658  10.434  10.313  0.3561  0.1144  0.0302
 4433W        W 8633   0.006   3.164   9.615 -0.0719  0.0425 -0.1352
 4434W        W 8634   9.784   5.317   3.114  0.1530  0.2085  0.1753
 4435W        W 8635   3.902   7.812  11.040 -0.2831 -0.1383 -0.1537
 4436W        W 8636   7.910   5.249   9.703 -0.1344  0.0657 -0.0536
 4437W        W 8637   1.269   5.284  12.728 -0.0020  0.0521  0.1441
 4438W        W 8638   4.194   5.445   3.713  0.2523  0.1288 -0.1837
 4439W        W 8639   1.774   4.177  11.693 -0.2667 -0.2255  0.2851
 4440W        W 8640   2.203   1.691   9.492 -0.2064 -0.1103  0.1785
 4441W        W 8641   2.985   5.524   1.544  0.0513  0.0501 -0.0468
 4442W        W 8642   7.332   2.495   8.416  0.0304 -0.3368 -0.1296
 4443W        W 8643   7.982   6.904   3.398 -0.1636  0.0439 -0.1569
 4444W        W 8644   3.883   7.879   1.789 -0.1251 -0.2009 -0.0181
 4445W        W 8645   5.009   0.283   0.341  0.0654 -0.0347  0.0343
 4446W        W 8646   4.490   5.827   9.752 -0.2115  0.0323 -0.2372
 4447W        W 8647   7.549   1.151   2.376  0.0945 -0.0268 -0.2385
 4448W        W 8648   9.784   1.716   2.886 -0.0479  0.1621  0.0871
 4449W        W 8649   0.074   6.145   4.611  0.0757 -0.0452  0.1230
 4450W        W 8650   1.887   5.459   2.725  0.0273 -0.1957 -0.1500
 4451W        W 8651   7.892   8.677  12.514  0.0846  0.0198  0.1583
 4452W        W 8652   2.482   6.151   3.902  0.1489  0.0083 -0.4277
 4453W        W 8653   9.536   3.888   4.352  0.2087 -0.2279 -0.1266
 4454W        W 8654   8.131   9.973   4.277 -0.0326 -0.1884  0.0796
 4455W        W 8655   2.148   4.364   9.926 -0.0379 -0.1337 -0.1444
 4456W        W 8656   7.672   1.160   2.992 -0.0431  0.0685 -0.3521
 4457W        W 8657  10.121   5.857   4.332  0.0867  0.2509  0.1293
 4458W        W 8658  10.132   0.311   1.343 -0.1728  0.1517  0.0406
 4459W        W 8659   1.248   2.060  11.344  0.0082 -0.0687 -0.0846
 4460W        W 8660   1.049   9.633   3.998 -0.0295 -0.1022  0.0071
 4461W        W 8661   0.465   2.181  13.223  0.2059  0.0816 -0.0782
 4462W        W 8662   5.996   4.063   9.148  0.1983  0.4686 -0.0302
 4463W        W 8663   0.603   4.104  10.997 -0.3800 -0.3697 -0.0603
 4464W        W 8664   0.951   3.834  11.218  0.2258  0.2267  0.1589
 4465W        W 8665   4.467   8.213  12.948  0.1850 -0.2170 -0.1802
 4466W        W 8666   3.779   4.500   2.328 -0.2791  0.0656  0.1379
 4467W        W 8667   1.877   0.760   0.359  0.2019  0.2890 -0.2540
 4468W        W 8668   9.078   6.674  12.677 -0.0377 -0.0873  0.2387
 4469W        W 8669   1.618   9.431  13.299 -0.0911  0.1880 -0.0847
 4470W        W 8670   5.442   5.016   4.906 -0.4531  0.0562 -0.1492
 4471W        W 8671   0.053   2.122   9.370  0.1786  0.0686 -0.0553
 4472W        W 8672   8.587   6.654  11.421  0.1102 -0.1288 -0.1206
 4473W        W 8673   9.624   7.927   1.588  0.0479  0.0302 -0.2822
 4474W        W 8674   3.002   3.887  11.836 -0.1942 -0.1850 -0.3908
 4475W        W 8675   7.137   9.780   0.199  0.2759  0.0662 -0.0007
 4476W        W 8676   0.998   6.772   1.990 -0.1630  0.2568  0.0304
 4477W        W 8677   9.847   6.951   1.220 -0.4141 -0.0542 -0.0835
 4478W        W 8678   8.323   1.161   0.292  0.1508 -0.2397  0.1424
 4479W        W 8679   1.028   2.181   1.171  0.0625  0.1149 -0.1311
 4480W        W 8680   5.667   4.163  10.372 -0.0214  0.0153 -0.0053
 4481W        W 8681   6.022   5.491  12.689 -0.1396  0.1386  0.3187
 4482W        W 8682   1.837   4.800   9.105  0.2415  0.0969  0.1217
 4483W        W 8683   0.267   6.345   3.640 -0.4478 -0.0410 -0.1106
 4484W        W 8684   7.619  10.024  11.002  0.1965 -0.3171 -0.0856
 4485W        W 8685   3.434   1.900   9.284  0.1826  0.3437 -0.2338
 4486W        W 8686   7.803   4.236   9.671  0.0083  0.3638  0.0370
 4487W        W 8687   2.931   8.894   0.486 -0.1765  0.1716  0.2699
 4488W        W 8688   4.835   2.048   0.602  0.0491  0.2289  0.2453
 4489W        W 8689   9.878   5.810  12.293  0.3468 -0.0982 -0.3284
 4490W        W 8690   7.792   8.565   2.420  0.1300  0.0995  0.0214
 4491W        W 8691   9.990   7.645   9.919  0.1972  0.0228  0.2822
 4492W        W 8692   3.169   8.814   3.002  0.0954 -0.1110  0.2185
 4493W        W 8693  10.417   6.507   3.355  0.0396  0.0374  0.0682
 4494W        W 8694   7.284   2.705   1.354 -0.0606 -0.0301 -0.1454
 4495W        W 8695   2.252   0.255  11.173 -0.1199  0.4796  0.0620
 4496W        W 8696  10.408   8.056   4.429  0.0119  0.0201  0.0822
 4497W        W 8697   4.588   1.256  10.985  0.0366  0.0931  0.0824
 4498W        W 8698   1.870   4.782   1.570 -0.1189 -0.2561  0.0868
 4499W        W 8699   4.896   5.573   9.064  0.1667  0.0288  0.0268
 4500W        W 8700   8.176   6.920  12.177 -0.1034  0.1043  0.1671
 4501W        W 8701   1.400   0.376  12.937  0.1244 -0.0499  0.1865
 4502W        W 8702   7.387   8.421   0.861 -0.1852  0.2701 -0.0865
 4503W        W 8703   0.401   6.781   4.816 -0.0352  0.2562 -0.1989
 4504W        W 8704   7.767   8.315   3.669  0.0358  0.1192 -0.0580
 4505W        W 8705  10.408   4.540   2.968  0.3535 -0.1249  0.0355
 4506W        W 8706  10.295   8.150  12.017 -0.2750  0.0346  0.0601
 4507W        W 8707   4.512   0.255   1.385  0.0978 -0.2272 -0.1952
 4508W        W 8708   3.797   1.850   1.321  0.0762 -0.0670 -0.5933
 4509W        W 8709   0.686   1.639   0.622 -0.1514 -0.0599 -0.2863
 4510W        W 8710   0.959   0.873  12.189  0.4343 -0.0981 -0.0802
 4511W        W 8711   1.762   7.933   2.097  0.2957  0.2123 -0.2065
 4512W        W 8712   5.375   1.257   1.163 -0.3163 -0.1323 -0.1515
 4513W        W 8713   3.833   9.460   3.099 -0.0813  0.0089  0.0142
 4514W        W 8714   6.468   7.140   0.875 -0.2037 -0.0466 -0.2744
 4515W        W 8715   5.395   0.124  12.699 -0.1828 -0.1298  0.0012
 4516W        W 8716  10.499   1.260   5.491  0.0256 -0.1994 -0.3843
 4517W        W 8717   3.444   1.107   4.066  0.3929 -0.1563 -0.2264
 4518W        W 8718  10.409   2.325   2.703  0.2812 -0.2495  0.0643
 4519W        W 8719   1.182   2.009  12.381 -0.1879 -0.0417 -0.3126
 4520W        W 8720   5.045   3.395  13.107 -0.0514  0.2165 -0.1504
 4521W        W 8721   3.057   7.690   1.094 -0.0491 -0.0853 -0.2188
 4522W        W 8722   5.086   7.448  12.823 -0.0700 -0.1673  0.2870
 4523W        W 8723   2.478   6.811  10.266  0.0291 -0.3293 -0.0808
 4524W        W 8724   0.056   5.876  11.533  0.2290 -0.0803  0.1450
 4525W        W 8725   5.142   3.529  10.200  0.2078 -0.1964  0.0658
 4526W        W 8726   0.322  10.085   2.779  0.2837  0.2797  0.1186
 4527W        W 8727   9.192   5.759   4.524  0.0797  0.0118 -0.1318
 4528W        W 8728   4.778   7.003   1.736 -0.2050 -0.0268 -0.1484
 4529W        W 8729   4.603   6.834  10.249  0.0194 -0.2343 -0.1252
 4530W        W 8730   5.284   1.072  12.576 -0.0479 -0.1567  0.1402
 4531W        W 8731   7.866   9.207  10.761  0.2241 -0.1868  0.0203
 4532W        W 8732   4.868   0.748   9.864 -0.2194  0.0917 -0.0087
 4533W        W 8733   4.416   6.520  11.928  0.0176  0.0856 -0.0559
 4534W        W 8734   7.253   0.769   2.172 -0.0962  0.0847  0.0952
 4535W        W 8735   8.875   6.731   3.512 -0.1491 -0.1458 -0.1891
 4536W        W 8736   0.837   0.276  11.139  0.0133  0.2258  0.2880
 4537W        W 8737   5.251   3.837   4.067 -0.2493 -0.1448  0.4931
 4538W        W 8738   1.726   4.921   9.680 -0.1257  0.1995  0.1868
 4539W        W 8739   2.850   8.228   0.179 -0.0549  0.1679 -0.0522
 4540W        W 8740  10.019   3.491  11.233 -0.2606 -0.1025  0.2564
 4541W        W 8741   7.355   3.366  11.916 -0.1467 -0.0855  0.0286
 4542W        W 8742   4.642   4.258   3.666 -0.1366  0.0850 -0.1356
 4543W        W 8743   4.169   2.716   0.428 -0.3631  0.1339  0.0565
 4544W        W 8744   3.895   3.704  11.728  0.1623 -0.1402  0.1455
 4545W        W 8745   4.097   4.206   9.685 -0.3962  0.0373 -0.0421
 4546W        W 8746   1.279   0.349   8.994 -0.1078  0.1914  0.1182
 4547W        W 8747   8.523   8.613  12.691 -0.1781 -0.1343  0.2753
 4548W        W 8748   4.333   2.480   9.172  0.3164 -0.0996 -0.0616
 4549W        W 8749   1.621   3.093   9.053  0.2757 -0.1191 -0.2060
 4550W        W 8750   2.222   9.977  12.478  0.1599  0.2061  0.0789
 4551W        W 8751   4.772   8.122  10.099  0.2407  0.1460  0.2773
 4552W        W 8752   4.012   6.492   1.175  0.1727  0.2812  0.0640
 4553W        W 8753   2.336   0.207   3.674  0.0922 -0.2897  0.0275
 4554W        W 8754   1.144   2.487   9.760  0.1693  0.2878  0.0511
 4555W        W 8755   5.881   7.171   3.877 -0.1651 -0.1557 -0.1153
 4556W        W 8756   5.351   5.541   2.249 -0.2703  0.1364  0.1413
 4557W        W 8757   2.738   3.023  11.588  0.0843  0.1313 -0.0720
 4558W        W 8758   4.655   6.439   2.400 -0.2904  0.2908  0.1085
 4559W        W 8759   5.349   3.491   2.715 -0.3944  0.0401  0.1303
 4560W        W 8760  10.007   6.481   4.418 -0.1985  0.0612  0.0297
 4561W        W 8761   4.526   4.319   1.382 -0.2469  0.2608  0.1813
 4562W        W 8762   5.429   6.406   3.767 -0.0949  0.0617 -0.2579
 4563W        W 8763   7.069   9.177  13.090  0.0693 -0.1431  0.0684
 4564W        W 8764   5.604   8.304   2.380 -0.0675  0.2313 -0.1577
 4565W        W 8765   4.333  10.149  10.735  0.2045 -0.1356  0.1434
 4566W        W 8766   4.677   7.441   9.447 -0.0129  0.0326  0.0191
 4567W        W 8767   7.555   4.213  10.207  0.3537  0.0821  0.0803
 4568W        W 8768   8.490  10.156   2.817  0.1003  0.2238 -0.0557
 4569W        W 8769   8.390  10.446  12.871 -0.0543  0.0780 -0.0106
 4570W        W 8770   2.661   9.015   2.938  0.0414 -0.0274 -0.0853
 4571W        W 8771   5.575   5.799   2.953  0.1707 -0.0014 -0.0082
 4572W        W 8772   7.539   2.621   2.136 -0.0722  0.2683 -0.1490
 4573W        W 8773   1.568   0.012  13.269 -0.1198 -0.1583  0.1843
 4574W        W 8774   1.549   4.058   9.035 -0.0278  0.0626 -0.2739
 4575W        W 8775   0.621   4.602   1.084  0.0663 -0.1814  0.0944
 4576W        W 8776   3.704   2.962   0.448 -0.1859 -0.0972 -0.2643
 4577W        W 8777   8.290   3.597  13.050  0.0434 -0.0647 -0.2315
 4578W        W 8778   0.308   2.670  12.349 -0.0360  0.2431  0.2709
 4579W        W 8779   6.578   9.647  11.848 -0.4586 -0.2169  0.1960
 4580W        W 8780   5.018   4.426   3.393  0.0419  0.1269  0.1867
 4581W        W 8781   2.098   7.104   2.995 -0.0299 -0.1572  0.0776
 4582W        W 8782   9.488   0.175   9.038  0.0036  0.2192  0.1249
 4583W        W 8783   8.454   7.695  12.444  0.1660 -0.1068 -0.1356
 4584W        W 8784   2.545   6.414  13.318 -0.1073 -0.1530 -0.0367
 4585W        W 8785   7.832   2.526   2.589 -0.0496  0.2750 -0.0207
 4586W        W 8786   8.337   4.626   9.197 -0.4190  0.3052 -0.1848
 4587W        W 8787   5.701   2.065   1.664  0.1708 -0.0802  0.1812
 4588W        W 8788   6.942   0.956   9.996  0.1792 -0.2011 -0.1669
 4589W        W 8789   8.233   3.540  10.430 -0.2459 -0.0737 -0.0832
 4590W        W 8790   9.057   9.788   2.809  0.1341  0.1054  0.2819
 4591W        W 8791   7.668   7.177   2.486  0.4736 -0.2782  0.0442
 4592W        W 8792   7.579   9.269   4.065 -0.1253 -0.1394  0.0109
 4593W        W 8793   0.353   0.799   9.676  0.4011  0.1501  0.1799
 4594W        W 8794   3.584   3.185   2.634 -0.1739  0.2569  0.5474
 4595W        W 8795   1.529   0.102  12.434  0.0718 -0.0687 -0.0024
 4596W        W 8796   5.038   2.106   3.362  0.1797  0.2926  0.6142
 4597W        W 8797   9.040  10.507   9.830  0.2107 -0.1621 -0.1044
 4598W        W 8798   0.333   5.267   1.790 -0.1125 -0.1718  0.0343
 4599W        W 8799   0.879   2.634   1.031  0.0289 -0.0839 -0.2440
 4600W        W 8800   4.137   1.145  12.009 -0.2639 -0.0335 -0.2006
 4601W        W 8801   2.844   8.972   1.988  0.1052  0.2461 -0.0894
 4602W        W 8802   9.763   2.625   9.519  0.1394  0.0875 -0.0970
 4603W        W 8803   4.590   4.494  13.367 -0.1393  0.1626 -0.0821
 4604W        W 8804   7.878   1.369   9.886 -0.1560 -0.0334 -0.2935
 4605W        W 8805   0.651   5.898  11.536  0.0452  0.3736 -0.2310
 4606W        W 8806   3.785   4.755   9.422  0.0479  0.1245 -0.0811
 4607W        W 8807   6.645   1.292   1.576  0.1942  0.4033  0.1052
 4608W        W 8808   9.109   2.366   1.267  0.0830 -0.0517  0.0533
 4609W        W 8809   1.554   7.949   3.608 -0.2763 -0.1458  0.0488
 4610W        W 8810   3.782   1.291   3.706 -0.0819  0.1009 -0.2595
 4611W        W 8811   9.859   9.110   0.706 -0.0194  0.1662  0.1758
 4612W        W 8812   9.433   2.914   9.814 -0.0770 -0.1926  0.0710
 4613W        W 8813   0.818   1.400   3.711 -0.3014 -0.2715 -0.0254
 4614W        W 8814   7.974   9.709  10.487 -0.1437 -0.2396 -0.0925
 4615W        W 8815   3.992   6.408  10.442 -0.1521 -0.0028  0.0247
 4616W        W 8816   8.172   9.914  12.461  0.1286  0.1888  0.3775
 4617W        W 8817   4.285   0.287  10.010  0.0895  0.0695  0.0016
 4618W        W 8818   8.256   5.958   4.682  0.1599  0.0973  0.0109
 4619W        W 8819   1.876   7.521  11.777  0.1518 -0.0764  0.1906
 4620W        W 8820   2.321   3.534  12.682 -0.1370  0.0168 -0.0090
 4621W        W 8821   2.339   9.705  12.029  0.1918 -0.1792 -0.0819
 4622W        W 8822   1.877   2.588   4.168  0.2556 -0.0006  0.1105
 4623W        W 8823   5.612   2.512   2.450 -0.1983  0.1403  0.0908
 4624W        W 8824   2.191   9.414   1.205  0.1048 -0.2634 -0.1059
 4625W        W 8825   7.953   0.757   2.254 -0.0874 -0.2551  0.0627
 4626W        W 8826   0.839   4.050   9.477  0.3490 -0.1194 -0.0084
 4627W        W 8827   7.196   7.401   4.263 -0.1661  0.0282  0.1864
 4628W        W 8828   0.907   0.601  13.049 -0.0016  0.1113  0.1069
 4629W        W 8829   1.155   6.130  12.665 -0.0903 -0.2158  0.0820
 4630W        W 8830   8.502   0.660   0.299  0.0064 -0.3333 -0.1591
 4631W        W 8831   0.519   7.146   5.160 -0.1193 -0.0973 -0.1769
 4632W        W 8832   6.375   1.731   5.058  0.3067 -0.0156 -0.2188
 4633W        W 8833   7.975   5.029   1.154 -0.1072  0.0082  0.0274
 4634W        W 8834   5.214   4.879   9.140 -0.2226  0.1362  0.0881
 4635W        W 8835   0.556   5.356   0.215 -0.2733  0.0378  0.1277
 4636W        W 8836   5.381   4.320   4.387 -0.0600 -0.0710 -0.2772
 4637W        W 8837   3.687   3.818  12.539 -0.3980  0.0671  0.3318
 4638W        W 8838   7.765   5.820  11.063 -0.1716 -0.0684  0.2255
 4639W        W 8839   1.054   6.447  12.276 -0.0373 -0.1003 -0.1423
 4640W        W 8840  10.146   4.585   1.972 -0.0438 -0.4005  0.2373
 4641W        W 8841   4.927   1.494  10.062 -0.2304 -0.0259  0.0898
 4642W        W 8842   5.619   4.387   9.887  0.0833 -0.1139  0.2687
 4643W        W 8843   9.690   8.601   2.591  0.2015  0.1903  0.3080
 4644W        W 8844  10.020   1.489   2.382  0.0105 -0.2224 -0.1687
 4645W        W 8845   0.644   6.904   1.670  0.0729 -0.1426  0.2267
 4646W        W 8846   1.658   4.972  11.018  0.1066 -0.2018  0.0162
 4647W        W 8847   3.537   3.335  10.599 -0.2144  0.1916  0.4046
 4648W        W 8848   2.318   6.781   9.278 -0.0769  0.2511  0.2341
 4649W        W 8849   5.520   3.642   0.725  0.1698 -0.0494 -0.3164
 4650W        W 8850   1.297   0.839   5.137 -0.2402  0.0601 -0.0638
 4651W        W 8851   8.076   5.518   2.344 -0.1353 -0.1006  0.2153
 4652W        W 8852   4.724   7.285  12.426  0.1742  0.3200 -0.1229
 4653W        W 8853  10.487   9.364   9.525  0.2323 -0.1059  0.1021
 4654W        W 8854   8.497   7.110   4.336  0.1162 -0.2821 -0.0434
 4655W        W 8855  10.282   1.631   9.653  0.0349 -0.2289 -0.0670
 4656W        W 8856   7.755   5.605   1.463 -0.0360 -0.0547  0.2517
 4657W        W 8857   4.311   7.231   0.105  0.1719 -0.1646  0.2225
 4658W        W 8858   7.428   1.968   4.950  0.0875 -0.1877 -0.2500
 4659W        W 8859   9.299   3.178  10.986  0.2815  0.3357 -0.3166
 4660W        W 8860   2.996   2.929   1.281 -0.2478  0.1532 -0.3090
 4661W        W 8861   1.070   4.084   0.490 -0.0129  0.1427  0.0839
 4662W        W 8862   9.419   1.719  10.628 -0.1603  0.0774  0.2137
 4663W        W 8863   9.964   6.984  12.017 -0.3293 -0.0126  0.0162
 4664W        W 8864   3.311   8.203  10.484  0.0564  0.0114  0.1628
 4665W        W 8865   0.413  10.015  10.741  0.0275  0.0365 -0.0398
 4666W        W 8866   4.911   3.358   3.996  0.2563 -0.0513 -0.1288
 4667W        W 8867   5.197   0.315   3.046 -0.0704  0.2451 -0.2331
 4668W        W 8868   4.029   3.741   5.093 -0.2276 -0.2473 -0.2094
 4669W        W 8869   3.635   1.709   8.860 -0.1783 -0.4519 -0.0867
 4670W        W 8870   0.071   3.845   4.157  0.0043 -0.0735  0.1783
 4671W        W 8871  10.239   3.224   3.519  0.0753  0.1813 -0.1355
 4672W        W 8872  10.061   8.315  13.144 -0.2903  0.2596  0.4688
 4673W        W 8873   1.709   8.810   9.909  0.1693 -0.1700  0.0130
 4674W        W 8874   4.044   3.409   9.114 -0.1975  0.0570  0.1622
 4675W        W 8875   3.348   0.056   0.724  0.0227 -0.0882 -0.0858
 4676W        W 8876   9.624   8.012  13.171 -0.1388  0.2090 -0.1636
 4677W        W 8877   1.483   1.258   8.933 -0.3378  0.1723 -0.0220
 4678W        W 8878   9.801   1.412  13.051 -0.1329  0.0844 -0.0303
 4679W        W 8879   8.626   0.804  11.694  0.4268  0.0424  0.2611
 4680W        W 8880   8.425   3.224   9.219  0.3087  0.1585  0.0110
 4681W        W 8881   0.369   2.814   9.372  0.1792  0.0221  0.0143
 4682W        W 8882   6.073   2.131  12.298 -0.3070 -0.2363  0.2211
 4683W        W 8883   9.471   6.689  10.951  0.2241  0.2652 -0.0360
 4684W        W 8884  10.475  10.412   2.536  0.0600  0.3395  0.0914
 4685W        W 8885   6.526   6.970   2.166  0.0940  0.0259  0.3246
 4686W        W 8886   2.348   9.215  10.712  0.0887 -0.3433 -0.0940
 4687W        W 8887   9.235   6.774  11.410 -0.0480  0.2412 -0.0341
 4688W        W 8888   6.531   7.363  12.448 -0.0561  0.1445  0.1081
 4689W        W 8889   1.412   2.724   1.281  0.1654 -0.0489 -0.0164
 4690W        W 8890   7.264   7.052   3.851  0.0208  0.0063 -0.1476
 4691W        W 8891   7.858   8.635  10.694  0.0833  0.1113 -0.1943
 4692W        W 8892   5.890   8.748   2.226  0.0480  0.1328 -0.1500
 4693W        W 8893   0.410   7.222  10.496 -0.2433 -0.5000  0.1150
 4694W        W 8894  10.059  10.312  12.184  0.1599 -0.3277 -0.0793
 4695W        W 8895   0.320   0.095   1.590 -0.0775  0.3423  0.1504
 4696W        W 8896   8.943   7.582  12.559  0.4755 -0.0625 -0.0764
 4697W        W 8897   8.797   4.136  12.551 -0.0070  0.2402  0.1405
 4698W        W 8898   9.172  10.351   9.244 -0.3308 -0.0752 -0.0084
 4699W        W 8899   3.704   4.432  10.788  0.1201 -0.0246 -0.1427
 4700W        W 8900   9.780   5.853   0.123  0.0515 -0.2543  0.1728
 4701W        W 8901   7.830   2.547   4.515 -0.1586  0.2000  0.2365
 4702W        W 8902   3.899   4.226  10.287  0.1810 -0.1655 -0.2674
 4703W        W 8903   7.182   5.481   9.551 -0.0997 -0.0369 -0.4371
 4704W        W 8904   4.723   1.939   2.919  0.1935 -0.1945  0.3072
 4705W        W 8905   2.811  10.079  10.724 -0.1817 -0.0740 -0.2596
 4706W        W 8906   9.045   9.481   1.541  0.1439  0.1358  0.1473
 4707W        W 8907   9.600   4.932  10.646 -0.2715  0.1433  0.0448
 4708W        W 8908   8.132   5.765   9.955  0.1184 -0.3179 -0.2621
 4709W        W 8909   3.299   8.092   3.989  0.1962 -0.1624  0.0977
 4710W        W 8910   3.129   0.768  10.450 -0.2937 -0.1243 -0.1063
 4711W        W 8911   9.884   3.940  12.500  0.1849  0.2359  0.2135
 4712W        W 8912  10.451   1.827  10.106  0.1446  0.4807 -0.2500
 4713W        W 8913   3.120   3.422   2.427  0.0604  0.0367  0.0058
 4714W        W 8914   3.982   3.785   4.590  0.2657  0.0199  0.1461
 4715W        W 8915   7.211   9.919   9.949  0.1880 -0.3154  0.0032
 4716W        W 8916   0.856   0.837   5.433  0.1757 -0.2230  0.2293
 4717W        W 8917   2.448   0.143   5.150  0.0303 -0.1811 -0.1436
 4718W        W 8918   3.786   7.276  12.111 -0.2825  0.1954 -0.5704
 4719W        W 8919   7.577   0.920   1.432 -0.0317  0.2411  0.4446
 4720W        W 8920   4.692   9.546   0.590  0.0987  0.3179  0.1313
 4721W        W 8921  10.473   2.697  12.778  0.1693  0.2138  0.0600
 4722W        W 8922   1.961   0.946  13.190 -0.1462  0.0894 -0.3134
 4723W        W 8923   1.163   0.587   3.850 -0.1027  0.2055 -0.0177
 4724W        W 8924  10.264   6.988   3.219 -0.1938  0.3549 -0.2807
 4725W        W 8925   0.706  10.417   0.117  0.1502  0.0712  0.0808
 4726W        W 8926   7.235   1.360   0.603 -0.0487 -0.0260  0.1583
 4727W        W 8927   5.470   3.969   5.160  0.1312 -0.1447 -0.0054
 4728W        W 8928   1.810   9.543  11.922  0.3528 -0.1257  0.0287
 4729W        W 8929   9.240   9.118   3.141 -0.1582  0.1799 -0.0739
 4730W        W 8930   0.090   5.117   5.459  0.2405 -0.1910 -0.1508
 4731W        W 8931   9.989   4.504   9.781  0.0405 -0.3376  0.4031
 4732W        W 8932   5.968   6.081  10.935  0.0200 -0.3160 -0.1625
 4733W        W 8933   8.063   4.818   8.784  0.2099  0.2742  0.2049
 4734W        W 8934   8.496   8.843  11.853  0.0410  0.0990  0.0095
 4735W        W 8935   8.220   6.787  10.583  0.0320 -0.0195 -0.2706
 4736W        W 8936   3.322   8.022   0.067  0.0483 -0.0000 -0.2341
 4737W        W 8937   9.956   5.836   9.841 -0.1924 -0.4637 -0.0412
 4738W        W 8938  10.442   5.190   2.311 -0.2179 -0.0521  0.1596
 4739W        W 8939  10.004   7.427  12.259  0.2103  0.0675 -0.0115
 4740W        W 8940   1.639   0.510   9.319 -0.0242 -0.2081 -0.1332
 4741W        W 8941   1.989   5.262   9.364  0.2029  0.0008  0.3990
 4742W        W 8942   8.985   3.896   9.125 -0.1157  0.1146 -0.1089
 4743W        W 8943   0.773   9.626  12.504  0.0090 -0.2372  0.1608
 4744W        W 8944   4.316   8.194   1.690  0.1714 -0.1059 -0.3572
 4745W        W 8945   8.694   2.080   9.980  0.0402 -0.2732  0.0975
 4746W        W 8946   9.104   0.429   4.885 -0.0771  0.0144  0.0641
 4747W        W 8947   1.267   5.933   8.911  0.0857 -0.1380 -0.3116
 4748W        W 8948   4.482   3.668   4.359 -0.0412  0.0776 -0.1916
 4749W        W 8949   8.786   3.340  10.546 -0.0180 -0.0881 -0.1250
 4750W        W 8950   1.485   7.415   2.707 -0.0206  0.1830  0.2527
 4751W        W 8951   6.520   6.150   3.067 -0.1647  0.1319 -0.3063
 4752W        W 8952   0.689   3.250   9.873 -0.4535  0.2644 -0.2159
 4753W        W 8953   3.101   7.138  11.402 -0.1173 -0.0100  0.3377
 4754W        W 8954   3.223   6.385   4.370  0.0653  0.1332 -0.1138
 4755W        W 8955   6.240   2.907  11.874 -0.1126 -0.0964  0.3000
 4756W        W 8956   7.119   1.301  11.225  0.1576  0.0756  0.2144
 4757W        W 8957   6.564   1.503   3.859 -0.0901  0.3780  0.3258
 4758W        W 8958   6.650  10.130  10.623  0.0441  0.0811  0.0999
 4759W        W 8959   0.922   0.370   2.380 -0.3079 -0.1415  0.0242
 4760W        W 8960   9.449   7.601  11.215 -0.1397  0.1094  0.2997
 4761W        W 8961   6.957   9.484   1.008 -0.1665  0.0128  0.2206
 4762W        W 8962   0.403   9.509   1.333 -0.1685 -0.3016 -0.2240
 4763W        W 8963   2.622   9.857   3.862 -0.1906 -0.0265  0.1137
 4764W        W 8964   9.673   4.590   1.749  0.1367  0.1830 -0.0435
 4765W        W 8965   1.147   1.399   0.967  0.2192  0.0517  0.0915
 4766W        W 8966  10.226   8.507  10.651  0.1487 -0.1783 -0.0136
 4767W        W 8967   6.927   6.058  11.282  0.0898  0.1545  0.1211
 4768W        W 8968   3.377   1.092   3.004 -0.1813  0.0228  0.2104
 4769W        W 8969   6.819  10.385  12.633  0.0027  0.1194  0.1077
 4770W        W 8970   7.838  10.044   1.360 -0.0953  0.0698  0.1864
 4771W        W 8971   4.227   4.059  10.766 -0.2046 -0.0347 -0.0974
 4772W        W 8972   1.303   9.783   8.895  0.0464  0.0058  0.1731
 4773W        W 8973   0.120   1.990   4.848  0.0032 -0.0384 -0.1631
 4774W        W 8974   3.554   8.591   1.584  0.0611 -0.0642  0.1744
 4775W        W 8975   1.506   9.559   4.176  0.2842  0.0583  0.0287
 4776W        W 8976   8.432  10.137   1.540 -0.1242 -0.2449 -0.1782
 4777W        W 8977   1.704   1.575   9.736  0.0788 -0.2109  0.2626
 4778W        W 8978   2.170   3.583  10.146 -0.5151 -0.1716 -0.1295
 4779W        W 8979   5.272   7.236  11.095 -0.0446  0.0167  0.0179
 4780W        W 8980   6.015   7.040  12.725 -0.0951  0.2419  0.0680
 4781W        W 8981   1.687   8.683  11.933 -0.1287 -0.1027 -0.0122
 4782W        W 8982   1.253   3.680   3.117 -0.0173 -0.0159  0.1088
 4783W        W 8983   9.919   2.897   3.332  0.5207  0.0701 -0.1202
 4784W        W 8984   7.874   0.192  10.765  0.4016  0.0989 -0.2327
 4785W        W 8985   9.367   0.858   1.219  0.1803  0.0439 -0.3195
 4786W        W 8986   4.987   4.810   4.081 -0.4740  0.0694 -0.0260
 4787W        W 8987   5.587   0.415   2.234  0.3705 -0.2883 -0.3295
 4788W        W 8988   5.022   4.656  11.859  0.0916  0.0868 -0.0982
 4789W        W 8989   6.556   7.215   0.007  0.1554  0.2385 -0.0718
 4790W        W 8990   4.326   1.353  10.566 -0.1113  0.0559 -0.2092
 4791W        W 8991   8.365   0.882  12.348  0.2298 -0.1357 -0.1951
 4792W        W 8992   8.065   8.695   1.711 -0.0508  0.2907  0.2217
 4793W        W 8993   8.259   3.902   9.836  0.1863  0.2563 -0.1985
 4794W        W 8994   4.291   9.511  11.979 -0.3582 -0.1370  0.0557
 4795W        W 8995   0.004   7.553   4.384 -0.0813  0.1352  0.0677
 4796W        W 8996   6.036   6.519  12.618 -0.0241 -0.0555  0.2948
 4797W        W 8997   9.030   5.305   9.568  0.0517 -0.0261 -0.2181
 4798W        W 8998   4.664   6.890   9.379 -0.2126  0.1567  0.2666
 4799W        W 8999   1.121   9.126   4.477 -0.1958  0.1096  0.1215
 4800W        W 9000   5.196   2.595   9.947  0.3335  0.1054  0.2452
 4801W        W 9001   4.322   1.537   9.988  0.3617 -0.0674  0.6159
 4802W        W 9002   2.472   1.018  11.324 -0.2047 -0.1880  0.2345
 4803W        W 9003  10.386   9.568  12.421  0.1841  0.2856 -0.0656
 4804W        W 9004   4.297  10.252  11.242 -0.0437  0.0954 -0.2558
 4805W        W 9005   0.920   5.205   8.633 -0.0513  0.2940 -0.0400
 4806W        W 9006   0.747   5.098   1.276 -0.3464  0.0153 -0.0165
 4807W        W 9007   1.452   2.319   2.814  0.0405  0.0493 -0.3421
 4808W        W 9008   4.816   0.096  13.331  0.3915  0.0370  0.2102
 4809W        W 9009   3.872   3.549   2.505  0.1604 -0.0512 -0.4586
 4810W        W 9010   5.111   8.444   1.143 -0.0145  0.3291  0.1881
 4811W        W 9011   9.815   4.344   4.377 -0.1213  0.0884  0.1819
 4812W        W 9012   3.200   5.532   9.979 -0.3488  0.0477 -0.3226
 4813W        W 9013   5.732   7.076  10.958 -0.0411  0.3862 -0.0582
 4814W        W 9014   7.436   8.992  10.782 -0.3367 -0.0068 -0.0743
 4815W        W 9015   5.759   3.614  11.865  0.0946 -0.0666 -0.0400
 4816W        W 9016   7.955   8.536   0.842  0.2239  0.1470 -0.1506
 4817W        W 9017  10.035   7.673  10.721  0.1196  0.1264  0.0005
 4818W        W 9018   0.642   1.769   1.107 -0.0558  0.1860 -0.2283
 4819W        W 9019   4.503   1.605  13.079 -0.0855 -0.1018 -0.3066
 4820W        W 9020   3.411   2.540   5.111  0.0520 -0.2110 -0.3671
 4821W        W 9021   0.619   0.587  11.412 -0.0213 -0.0251 -0.2612
 4822W        W 9022   7.855   2.966   9.693  0.0444  0.1103  0.1202
 4823W        W 9023   1.723   8.508   0.994 -0.1152  0.1986 -0.0990
 4824W        W 9024   7.375   4.643   9.947 -0.1214 -0.2952  0.0682
 4825W        W 9025   9.143   9.706   0.375  0.1393 -0.1220 -0.1470
 4826W        W 9026   2.029   4.308   4.874 -0.0753  0.1006 -0.0686
 4827W        W 9027   4.511   2.494   9.739  0.0263  0.0618  0.1812
 4828W        W 9028   4.252   9.539   0.376 -0.0445  0.1922  0.1210
 4829W        W 9029   8.263   9.096   2.954 -0.0835 -0.1240  0.1701
 4830W        W 9030   8.110   2.518  10.528 -0.2717  0.3654  0.3229
 4831W        W 9031   8.969   5.776   1.722  0.0513  0.0012 -0.0757
 4832W        W 9032  10.059   5.445  10.295 -0.0497 -0.2527  0.3386
 4833W        W 9033   8.053   5.635  11.989  0.0416 -0.1201  0.0594
 4834W        W 9034   8.825   0.593   2.920 -0.1080  0.1619  0.0699
 4835W        W 9035   9.268   4.039   3.609 -0.3438  0.1816 -0.0013
 4836W        W 9036   3.578   5.791  11.753 -0.0009  0.0912 -0.3023
 4837W        W 9037   8.481   3.738   2.923 -0.0964  0.0814 -0.0155
 4838W        W 9038   9.730   3.766   0.405 -0.3570  0.5785 -0.0685
 4839W        W 9039  10.358   7.161  11.337  0.0000 -0.0138  0.1831
 4840W        W 9040   9.259  10.204  10.135 -0.0386  0.2299 -0.0244
 4841W        W 9041   7.150   0.202   9.509 -0.1045 -0.0445 -0.2385
 4842W        W 9042   2.138   9.227  13.233 -0.0415 -0.3241  0.0956
 4843W        W 9043   6.676   9.906  12.621 -0.0062  0.0252 -0.0722
 4844W        W 9044   9.182   3.127   5.253  0.0870  0.5374  0.0447
 4845W        W 9045   4.642   2.059   4.437  0.0014 -0.1794  0.2617
 4846W        W 9046   9.116   2.900   4.349 -0.1241  0.0097 -0.2207
 4847W        W 9047   5.084   3.109   3.469  0.1849 -0.1266  0.1821
 4848W        W 9048   8.334   0.794   4.835 -0.0795  0.0629  0.0964
 4849W        W 9049   3.685   4.924  10.832 -0.4235 -0.1548  0.2401
 4850W        W 9050   6.369   4.055   0.235 -0.0311  0.3100  0.0299
 4851W        W 9051  10.503   0.397   2.697  0.1842  0.0353 -0.1374
 4852W        W 9052   5.430   0.182   2.618 -0.1020  0.0284 -0.4598
 4853W        W 9053   8.171   7.299   1.327  0.0664 -0.1318 -0.1076
 4854W        W 9054   7.211   1.800  11.090 -0.1203 -0.1100 -0.0915
 4855W        W 9055   4.300   2.482   1.240 -0.0264  0.2266  0.0994
 4856W        W 9056   2.283  10.064   8.960 -0.3771 -0.0029  0.2549
 4857W        W 9057   3.329   8.444   3.660  0.0893  0.0383 -0.0832
 4858W        W 9058   3.012   2.279   5.416  0.0722 -0.2629 -0.0297
 4859W        W 9059   1.130   5.293  11.210 -0.6653  0.1823 -0.7268
 4860W        W 9060  10.494   4.144   1.548  0.0815 -0.1911  0.0319
 4861W        W 9061   3.519   3.324   9.740  0.0569 -0.2460  0.2093
 4862W        W 9062   4.299   3.392   1.051 -0.1069 -0.0168  0.2909
 4863W        W 9063   7.513   5.666   0.709  0.0042  0.0088  0.0863
 4864W        W 9064   8.951  10.300   2.679  0.0845 -0.0445 -0.0918
 4865W        W 9065   0.545   0.693   9.201  0.3575  0.0190  0.0748
 4866W        W 9066   3.442   8.687   2.076 -0.0679  0.0480 -0.1641
 4867W        W 9067   9.111   0.986   2.912 -0.0534 -0.1588  0.1377
 4868W        W 9068   5.260   1.752   1.390  0.2198  0.1978  0.0634
 4869W        W 9069   7.932   4.859   3.035  0.2428  0.0708  0.0367
 4870W        W 9070   1.748   9.544   1.786  0.1644  0.3677 -0.2729
 4871W        W 9071   0.899   6.051   4.639  0.2161  0.0972 -0.0749
 4872W        W 9072   6.005   1.918  11.740 -0.1697 -0.1356 -0.1291
 4873W        W 9073   1.359   2.857   4.080  0.1072 -0.2528 -0.0976
 4874W        W 9074   5.822   0.583  11.489 -0.0348  0.0718 -0.1862
 4875W        W 9075   9.029   7.134   1.971 -0.0521 -0.1326  0.3254
 4876W        W 9076   7.893   7.717   4.906  0.0647 -0.0750  0.0811
 4877W        W 9077   6.277   0.604  12.997 -0.3075  0.1994  0.2685
 4878W        W 9078   7.917   4.799   9.465  0.0927  0.0009  0.0204
 4879W        W 9079   2.895   8.681   9.837 -0.0921 -0.1806  0.1277
 4880W        W 9080   4.230   4.594   0.783 -0.4169 -0.0660 -0.1931
 4881W        W 9081   7.195   7.648   3.218  0.0228  0.1295 -0.0167
 4882W        W 9082   9.756   1.223  10.669  0.1564 -0.2029 -0.0430
 4883W        W 9083   8.963   7.752   4.680 -0.1250 -0.0692 -0.2291
 4884W        W 9084   9.633   3.159   9.289 -0.4411  0.1648  0.0608
 4885W        W 9085   5.149   5.329   3.140 -0.1195 -0.2794 -0.2693
 4886W        W 9086   1.893   9.834  10.994 -0.1193 -0.1733  0.0443
 4887W        W 9087   9.613   1.057   8.726 -0.2769  0.0867  0.0585
 4888W        W 9088   3.099   7.827  10.629  0.1672  0.0454  0.1520
 4889W        W 9089   2.967   1.752   2.207 -0.1898  0.0265 -0.2253
 4890W        W 9090   9.019   1.744   0.412 -0.0519 -0.0287  0.4615
 4891W        W 9091   1.550   7.940   2.697 -0.1850  0.6620  0.0166
 4892W        W 9092   4.118   2.323   0.809  0.1187 -0.0125 -0.2280
 4893W        W 9093   3.703   9.173   0.972  0.1383  0.3127  0.4295
 4894W        W 9094   2.083   8.015   9.637  0.1238 -0.2768 -0.1155
 4895W        W 9095   3.097   3.062   0.164  0.0303  0.1849 -0.1750
 4896W        W 9096   7.665   4.192   4.343  0.1089 -0.0937 -0.1557
 4897W        W 9097   9.495   9.729  11.901  0.1487 -0.1377  0.4815
 4898W        W 9098   5.162   9.147  12.264  0.1475 -0.1087  0.0212
 4899W        W 9099   1.283   6.681  10.659 -0.1206  0.0067  0.0475
 4900W        W 9100   2.885   9.486  10.090 -0.3285  0.1487  0.2571
 4901W        W 9101   5.158  10.428   0.646 -0.0115 -0.1584 -0.1053
 4902W        W 9102   4.369   4.895   0.270 -0.1297 -0.0930  0.1974
 4903W        W 9103   4.707   0.992   3.447  0.0051 -0.0954  0.3399
 4904W        W 9104   6.333   6.468   9.710 -0.0628  0.0912  0.4384
 4905W        W 9105   5.107   6.713  11.551 -0.1957  0.0244 -0.1779
 4906W        W 9106   6.255   1.601   1.505 -0.1516  0.1116 -0.1424
 4907W        W 9107   0.829   7.756   4.075  0.0039 -0.4743 -0.1288
 4908W        W 9108   0.990   2.882   2.460 -0.1112 -0.4276 -0.0618
 4909W        W 9109   5.177  10.057  11.713 -0.0288  0.1271 -0.1630
 4910W        W 9110   8.780   2.691  10.668 -0.2284 -0.2172 -0.0591
 4911W        W 9111   3.220   3.874   3.743  0.0680 -0.0476  0.3148
 4912W        W 9112   9.949   1.789   9.996  0.1631  0.4056 -0.1858
 4913W        W 9113   0.059   7.546   8.840 -0.1082 -0.1400 -0.0073
 4914W        W 9114   6.145   4.751   1.686 -0.0695  0.1234  0.0086
 4915W        W 9115   0.503   0.915  13.060 -0.2406 -0.1813 -0.0451
 4916W        W 9116   9.818   9.915   4.752  0.3447 -0.0910  0.0302
 4917W        W 9117   3.353   0.539  13.274 -0.2150 -0.1286 -0.1019
 4918W        W 9118   8.698   0.630   4.393  0.1285  0.3926  0.0290
 4919W        W 9119   0.570   8.463   0.656  0.1971 -0.0995 -0.0133
 4920W        W 9120   9.586   7.011   0.734  0.0838  0.2554  0.2001
 4921W        W 9121   0.544   2.487  12.870  0.2083  0.2199  0.1026
 4922W        W 9122   1.571   3.893  12.985  0.2684 -0.0468  0.3028
 4923W        W 9123   7.283   7.709  10.895 -0.3812 -0.3448 -0.0239
 4924W        W 9124   5.423   5.975  10.219 -0.2476  0.1540 -0.1872
 4925W        W 9125   2.974   8.590  11.357  0.1931 -0.1111 -0.0116
 4926W        W 9126   0.371   5.599  12.807  0.0782 -0.2666  0.1383
 4927W        W 9127   2.259   8.490   3.010 -0.0904 -0.3182  0.0525
 4928W        W 9128   0.142   8.221   9.457  0.0043 -0.1779 -0.0064
 4929W        W 9129   3.108   7.099   2.596  0.1646 -0.2042  0.0563
 4930W        W 9130   2.296   2.249  12.448 -0.0325 -0.0386 -0.2553
 4931W        W 9131   8.575   8.663   1.506 -0.0934 -0.1117  0.4713
 4932W        W 9132  10.290   0.567  10.931  0.0733  0.0542 -0.1317
 4933W        W 9133   6.255  10.389   0.537 -0.2571 -0.0868  0.1046
 4934W        W 9134   3.075   4.407   0.349 -0.0717 -0.3063  0.1202
 4935W        W 9135   9.063   8.402  12.723  0.3459  0.1601 -0.0610
 4936W        W 9136   4.809   9.578  10.782 -0.1419 -0.1242 -0.1821
 4937W        W 9137   4.472   5.383   3.267  0.0340 -0.7530  0.0088
 4938W        W 9138   4.413   2.179   2.470  0.0410 -0.2360  0.0701
 4939W        W 9139   0.985   8.315   0.445  0.0394  0.1136  0.0670
 4940W        W 9140   3.938   2.485   3.794  0.2562 -0.1136  0.1262
 4941W        W 9141   7.179   6.267  13.368 -0.2264 -0.0253  0.2434
 4942W        W 9142   7.979   6.811  10.158  0.5722  0.3352  0.2390
 4943W        W 9143   0.396   6.929  12.178 -0.1138 -0.3465 -0.1188
 4944W        W 9144   2.533   1.509   2.579  0.0699  0.1348 -0.0465
 4945W        W 9145   3.008   0.397  12.928  0.0579  0.2666  0.1226
 4946W        W 9146   3.183   3.029  12.287  0.3324 -0.0323 -0.1760
 4947W        W 9147   8.422   1.371  12.426 -0.3434  0.0927  0.0728
 4948W        W 9148  10.046   1.809  11.890 -0.3453  0.1794  0.1271
 4949W        W 9149   5.906   2.776   0.244 -0.3312 -0.1039 -0.0611
 4950W        W 9150   2.556   5.408   2.934  0.3653 -0.1136 -0.2899
 4951W        W 9151   8.429   9.321   0.869  0.0989  0.0343  0.3328
 4952W        W 9152   9.637   0.487   1.343 -0.1132  0.0890  0.3974
 4953W        W 9153   9.626   9.700  12.766  0.0354  0.0360 -0.0939
 4954W        W 9154   3.849   7.041   3.315  0.3708 -0.3158 -0.0849
 4955W        W 9155   8.011   5.781  13.067 -0.0915 -0.1496  0.2949
 4956W        W 9156   6.396   6.760   3.453  0.0895 -0.0950 -0.1588
 4957W        W 9157   8.098   4.636   1.716  0.0350 -0.0105 -0.1795
 4958W        W 9158   1.048   5.140   0.306 -0.1551  0.1270  0.1761
 4959W        W 9159   9.475   4.489  10.902 -0.0888 -0.1730 -0.0113
 4960W        W 9160   7.687   3.273   4.484  0.3635  0.1997 -0.0350
 4961W        W 9161   7.952   2.989   1.944 -0.0537 -0.2578 -0.0770
 4962W        W 9162   4.104   8.070   0.307  0.1419 -0.2393  0.0449
 4963W        W 9163   3.990   4.355  11.121 -0.1384 -0.1593  0.0995
 4964W        W 9164   5.700   5.766   8.803 -0.1724  0.1928  0.0043
 4965W        W 9165   7.974   3.046   1.464 -0.4010 -0.2038  0.0356
 4966W        W 9166   5.392   5.089   0.981  0.1154 -0.1495  0.4078
 4967W        W 9167   9.814   1.063   1.390 -0.0755 -0.1359 -0.1841
 4968W        W 9168   0.381   3.131   3.464  0.0612 -0.2288  0.0652
 4969W        W 9169   4.864   6.125   8.989 -0.0778  0.0344 -0.3096
 4970W        W 9170   8.138   0.336   0.014 -0.0545 -0.2739  0.4545
 4971W        W 9171   1.060   8.715  12.932 -0.0095 -0.0226  0.1667
 4972W        W 9172  10.363   1.005   0.137 -0.0161  0.2094  0.0518
 4973W        W 9173   2.963   8.186   1.000 -0.0319  0.0428  0.1211
 4974W        W 9174   6.208   9.493   0.091 -0.0037  0.0487 -0.0627
 4975W        W 9175   0.501   7.498   2.512 -0.0427 -0.1353 -0.1943
 4976W        W 9176   9.008   7.248   2.774  0.0695 -0.1086  0.4021
 4977W        W 9177   5.475  10.292   3.031 -0.2788  0.2426  0.0362
 4978W        W 9178   4.027   7.990   0.803  0.0455  0.0388 -0.0290
 4979W        W 9179   9.535   3.998  13.334 -0.0374  0.1611  0.3675
 4980W        W 9180   1.578   8.197   4.139  0.1069  0.1472 -0.0810
 4981W        W 9181   8.972   8.258   1.748  0.2747  0.1301 -0.0435
 4982W        W 9182   0.762   7.951   9.447  0.1941  0.2254 -0.0415
 4983W        W 9183   9.944   2.662  12.243 -0.2680 -0.1285 -0.0469
 4984W        W 9184   0.218   0.201   9.079 -0.0925 -0.2717 -0.2035
 4985W        W 9185   1.527   2.033   8.875  0.0104  0.0073  0.0662
 4986W        W 9186   4.337   2.885  12.353  0.1141  0.3868 -0.1393
 4987W        W 9187   1.410   0.526   2.333  0.3154 -0.2558 -0.2482
 4988W        W 9188   6.550   6.677  11.820 -0.1164  0.1905 -0.0031
 4989W        W 9189   1.473   6.593  12.008  0.1290  0.1258  0.0540
 4990W        W 9190   8.583   1.182   9.023  0.0396 -0.0523 -0.0578
 4991W        W 9191   1.562   6.168   0.818 -0.0367  0.1768 -0.0348
 4992W        W 9192   3.489   1.221   8.661 -0.3183 -0.2665  0.0271
 4993W        W 9193   4.845   1.444   2.750  0.1084  0.1632 -0.0076
 4994W        W 9194   6.834   0.607   1.912 -0.2326  0.0162 -0.1041
 4995W        W 9195   0.775   7.032  12.540  0.0254  0.0627 -0.1984
 4996W        W 9196   3.399   1.621   3.847  0.0382 -0.1219  0.1557
 4997W        W 9197   6.925   1.239  13.337  0.1860  0.3341 -0.1430
 4998W        W 9198   3.994  10.412   2.619  0.0515 -0.2906 -0.2646
 4999W        W 9199   3.471   1.428   9.591  0.0858 -0.0914 -0.0467
 5000W        W 9200   1.539   0.170   4.607  0.5295 -0.0441  0.0260
 5001W        W 9201   6.526   3.809   3.769 -0.0119  0.0405  0.4305
 5002W        W 9202   2.678   0.249  12.011  0.2983  0.2779  0.0272
 5003W        W 9203   3.275   0.428   1.779 -0.3006 -0.1521 -0.2534
 5004W        W 9204   9.383   8.854   1.086  0.2648 -0.0275  0.0269
 5005W        W 9205   5.738   1.015   3.529  0.2726  0.3714  0.1834
 5006W        W 9206   2.524   7.723  13.046  0.1033 -0.1634 -0.0924
 5007W        W 9207   8.817   8.689  10.708 -0.1243  0.0052 -0.0301
 5008W        W 9208   2.460   0.661  12.193  0.0956  0.0599 -0.2282
 5009W        W 9209   0.750   5.835   1.980  0.0753 -0.0066  0.2613
 5010W        W 9210   0.769   8.869   4.244  0.3200  0.0324  0.1229
 5011W        W 9211   6.667   3.339   0.979  0.0298  0.2067 -0.0434
 5012W        W 9212   3.126   1.510   9.000 -0.2431  0.0076 -0.0299
 5013W        W 9213  10.185   9.860   9.485  0.1511 -0.1897 -0.0640
 5014W        W 9214   3.194   2.646   9.094 -0.0413  0.1058 -0.0706
 5015W        W 9215   8.441   5.150   0.814  0.0107  0.1299 -0.1428
 5016W        W 9216   0.643   4.817   3.578  0.0926 -0.1866  0.1737
 5017W        W 9217   7.139   8.719   0.469 -0.0324  0.1554 -0.1079
 5018W        W 9218   7.417   1.039   4.577 -0.0845  0.1584 -0.2209
 5019W        W 9219   2.492   8.181  13.229  0.2221  0.1824  0.0326
 5020W        W 9220   9.881   0.561   1.881  0.0020 -0.1309  0.0053
 5021W        W 9221   8.843   0.830   2.480 -0.0649 -0.0126 -0.2345
 5022W        W 9222   7.268   2.919   5.277 -0.0629  0.0753 -0.1843
 5023W        W 9223   9.228   1.266  10.836  0.1782  0.1691  0.0391
 5024W        W 9224   5.795   9.863   2.285  0.1059 -0.1270  0.4396
 5025W        W 9225   2.616   0.290   3.248 -0.0784 -0.0657  0.1227
 5026W        W 9226   0.069   1.995   0.102 -0.2179 -0.0449 -0.1780
 5027W        W 9227   1.242   8.773   3.283 -0.1039 -0.3325 -0.1536
 5028W        W 9228   1.256   0.040   3.074 -0.1199  0.2187 -0.0863
 5029W        W 9229   4.016   3.629   2.051  0.1581 -0.0358  0.0488
 5030W        W 9230   5.280   3.839  12.316  0.2061  0.0077 -0.0383
 5031W        W 9231   3.392   4.211   4.076  0.1714 -0.0500 -0.0563
 5032W        W 9232   2.925   2.284   0.501 -0.0503 -0.0080 -0.1618
 5033W        W 9233   4.800   5.944  12.574  0.3756  0.2999 -0.0193
 5034W        W 9234   5.887  10.415   0.235  0.3862  0.5351  0.3808
 5035W        W 9235   5.978   3.154  11.000 -0.1398  0.2770 -0.3550
 5036W        W 9236   8.912   5.179   3.775 -0.0278  0.0555 -0.1353
 5037W        W 9237   0.650   6.881   4.365 -0.0544 -0.1049 -0.2643
 5038W        W 9238   0.588   0.534   4.190 -0.0197 -0.0470  0.4054
 5039W        W 9239   1.148   5.866   2.381  0.0651  0.1771 -0.2391
 5040W        W 9240   1.638   8.840   0.563 -0.5900  0.1230 -0.2312
 5041W        W 9241   8.713   2.399   2.565 -0.0702 -0.0985 -0.0016
 5042W        W 9242   7.768   3.779   9.875 -0.2579  0.2675  0.3658
 5043W        W 9243  10.245   1.725   4.070  0.1474 -0.0401 -0.3637
 5044W        W 9244   7.501   5.329  11.278 -0.4367  0.0541  0.2112
 5045W        W 9245   5.733   8.049   1.983 -0.1476 -0.0779  0.1960
 5046W        W 9246   4.289   0.128  13.295 -0.0341 -0.1371  0.4217
 5047W        W 9247   2.719   1.258   1.698  0.3881 -0.0486 -0.0598
 5048W        W 9248   5.264   8.338   1.612  0.1073 -0.1109 -0.3093
 5049W        W 9249   2.039   4.321   9.126  0.0323  0.3886  0.0951
 5050W        W 9250   4.979   0.739   0.131  0.4503  0.6337 -0.1048
 5051W        W 9251   1.546   9.018   4.269 -0.2359 -0.1481  0.0521
 5052W        W 9252   7.950   5.091  10.628 -0.0719  0.1502 -0.0706
 5053W        W 9253   1.338   6.329   2.255  0.0912  0.0901 -0.1068
 5054W        W 9254   0.592   8.940  12.695 -0.2444 -0.1714 -0.1328
 5055W        W 9255   2.750   5.016  10.432  0.2939 -0.3564  0.3545
 5056W        W 9256   3.478   5.595  11.266 -0.1673 -0.1648 -0.2084
 5057W        W 9257   3.495   1.565   2.333  0.1683 -0.0235  0.0044
 5058W        W 9258   5.636   0.217   9.337  0.0571 -0.0672 -0.0930
 5059W        W 9259   9.093   5.998  10.263  0.1581 -0.0317 -0.0557
 5060W        W 9260   5.183   5.322   1.774 -0.2528 -0.0631  0.2056
 5061W        W 9261   9.792   8.734   5.188 -0.1092  0.2088 -0.1249
 5062W        W 9262   0.563   8.859   0.370 -0.1827 -0.2369  0.0596
 5063W        W 9263   7.987   8.766  11.755 -0.0285 -0.0189 -0.2380
 5064W        W 9264   2.171  10.426   0.067 -0.2874  0.1168  0.1859
 5065W        W 9265   2.739   1.743   1.747  0.2373 -0.0198  0.0183
 5066W        W 9266   3.856   1.536  10.579  0.2489 -0.1952  0.1552
 5067W        W 9267   7.546   1.778   2.242 -0.0790  0.3891  0.4009
 5068W        W 9268  10.159   5.380  12.275 -0.1495 -0.0319 -0.1111
 5069W        W 9269   8.993   7.621   4.106  0.1983 -0.0611 -0.5172
 5070W        W 9270   3.983   5.110   9.735 -0.0221  0.1984 -0.0593
 5071W        W 9271   5.236   5.924  12.364 -0.4191 -0.0229  0.0647
 5072W        W 9272   8.737   7.203   0.606 -0.0121 -0.0786  0.1379
 5073W        W 9273   0.608   3.240   9.277 -0.0370  0.0093 -0.0615
 5074W        W 9274   2.863   1.708   4.662  0.2013 -0.1531 -0.0172
 5075W        W 9275   8.703   6.595  12.955  0.0869 -0.3530 -0.0152
 5076W        W 9276   3.639   7.414   0.808  0.1339  0.0530  0.0015
 5077W        W 9277   4.509   1.002   0.312 -0.0328 -0.1689 -0.0160
 5078W        W 9278   3.749   6.076   4.104  0.1498 -0.0968  0.1216
 5079W        W 9279   9.166   2.391   4.056  0.0142  0.0587  0.0620
 5080W        W 9280   1.205   2.217   0.240  0.0072  0.0838 -0.1947
 5081W        W 9281   9.491   1.716   4.128 -0.1012  0.2431 -0.0284
 5082W        W 9282  10.203   2.108  13.218  0.0802  0.2377 -0.0067
 5083W        W 9283   8.726   1.406  10.051  0.3144  0.2289  0.1219
 5084W        W 9284   3.346   4.003   0.337 -0.1357 -0.2038  0.2128
 5085W        W 9285   1.401   9.233   0.442 -0.0819 -0.2194  0.0562
 5086W        W 9286   2.182   6.094   0.259 -0.2304  0.0667  0.0751
 5087W        W 9287   5.458   7.463   3.725  0.2444  0.0780 -0.0246
 5088W        W 9288   2.950   4.867   0.141  0.0355 -0.1992 -0.2816
 5089W        W 9289   1.160   5.201   9.777 -0.1503  0.3208  0.0505
 5090W        W 9290   1.168   5.673   3.547  0.2909 -0.0700  0.0382
 5091W        W 9291   2.709   0.182  11.133 -0.2129 -0.0060  0.0745
 5092W        W 9292   0.205   2.108   2.313  0.0793 -0.0364 -0.0309
 5093W        W 9293   8.175   2.829  11.489 -0.1048  0.2370 -0.0044
 5094W        W 9294   6.327   7.658   1.084 -0.1298 -0.0625  0.0836
 5095W        W 9295   6.268   9.787  13.014  0.0957  0.0598 -0.1545
 5096W        W 9296   6.222   0.403   4.135  0.0168 -0.1462  0.1281
 5097W        W 9297   1.129   5.542   1.346  0.0018 -0.0332 -0.0220
 5098W        W 9298   7.080   5.089   9.155 -0.0425 -0.3453 -0.2087
 5099W        W 9299   4.560   2.497  11.949  0.2159 -0.3039  0.3810
 5100W        W 9300   0.377   6.154  12.842 -0.0424  0.0663 -0.1293
 5101W        W 9301   7.927   0.705   3.764 -0.1209  0.2093  0.1178
 5102W        W 9302   4.211   3.205   1.806  0.0119 -0.0479 -0.3503
 5103W        W 9303   6.013   4.535  10.264  0.1704 -0.3037 -0.2360
 5104W        W 9304   5.551   7.320  12.689 -0.3895  0.2876  0.1879
 5105W        W 9305   0.041   0.392  10.544  0.0278 -0.0226  0.4298
 5106W        W 9306   4.753   8.008  11.693 -0.0265 -0.1185 -0.1592
 5107W        W 9307   9.908   8.642  10.325  0.1375  0.0574 -0.0391
 5108W        W 9308   1.190   7.719   9.453  0.0894  0.1725 -0.0258
 5109W        W 9309   1.371   0.659   3.258 -0.0941  0.2236 -0.0715
 5110W        W 9310   0.669   9.242   3.874 -0.0444 -0.2016 -0.3894
 5111W        W 9311   1.534   1.139   3.243 -0.0962  0.1153 -0.0712
 5112W        W 9312   4.807   2.458   4.723  0.0630 -0.4905  0.1482
 5113W        W 9313   8.851   1.368   3.659 -0.0928 -0.2449  0.5033
 5114W        W 9314   7.078   1.304  10.359  0.2892  0.1975 -0.0098
 5115W        W 9315   0.396   7.916   3.342  0.0868  0.0323  0.1432
 5116W        W 9316   0.118   3.819   2.295 -0.0281 -0.2354  0.1628
 5117W        W 9317   4.157   2.617  11.212  0.3762 -0.0309  0.2018
 5118W        W 9318   5.708   3.684   9.413 -0.1290 -0.2636  0.1870
 5119W        W 9319   5.391   5.792   3.414  0.3198 -0.0969  0.0165
 5120W        W 9320   0.679   0.478  11.999 -0.2055  0.1917 -0.3415
 5121W        W 9321   1.260   8.137   8.188  0.3057 -0.1469  0.1151
 5122W        W 9322   9.975  10.037   1.171 -0.0753 -0.3362 -0.0195
 5123W        W 9323   6.552   9.375  12.696  0.0558  0.3225  0.1152
 5124W        W 9324   8.759   9.137  12.163  0.3187 -0.2527 -0.0344
 5125W        W 9325   6.146   7.817  12.514 -0.0108  0.4522 -0.1138
 5126W        W 9326   2.948   3.900   2.197  0.2528 -0.2138 -0.0540
 5127W        W 9327   4.549   3.016   9.534  0.1412  0.4054  0.1043
 5128W        W 9328   8.127   6.431   0.471 -0.1206 -0.1529  0.3251
 5129W        W 9329   4.222   1.632   4.321 -0.2979 -0.2992 -0.0736
 5130W        W 9330   1.655   1.256   1.883  0.1316  0.2309 -0.0443
 5131W        W 9331   3.823   1.966   4.047 -0.1491  0.0991 -0.0530
 5132W        W 9332   9.961   6.078   2.631 -0.0543  0.0766 -0.0850
 5133W        W 9333   9.958   8.378  12.633 -0.0623  0.1811  0.0335
 5134W        W 9334   9.603   6.178  11.996  0.1376  0.1394 -0.3193
 5135W        W 9335   5.846   4.500   3.123  0.2273  0.2184  0.1167
 5136W        W 9336   0.875   7.153   2.443  0.0921 -0.0789  0.2064
 5137W        W 9337   3.447   4.645   4.320  0.2190 -0.2036 -0.0794
 5138W        W 9338   7.166   1.870   0.245  0.0876  0.1323  0.0292
 5139W        W 9339   1.936   4.373   3.156 -0.0617 -0.2455 -0.1473
 5140W        W 9340   8.429  10.047   9.644 -0.0436  0.0787  0.0334
 5141W        W 9341   0.823   8.055  12.834 -0.0719 -0.2886 -0.1240
 5142W        W 9342   4.995   2.223   2.341 -0.2147 -0.0067 -0.0260
 5143W        W 9343   8.610   1.273  10.934  0.0928  0.0531 -0.3662
 5144W        W 9344   1.047   0.520   2.893 -0.1146 -0.0325  0.0143
 5145W        W 9345   5.345   2.962  12.897  0.1974 -0.2845 -0.1526
 5146W        W 9346   9.273   0.108   3.455 -0.1162  0.0452  0.2031
 5147W        W 9347   5.272   9.891  13.016 -0.1032  0.0492 -0.2058
 5148W        W 9348   7.674   3.513  10.261  0.2600  0.0674 -0.0207
 5149W        W 9349   8.679   0.913   3.340  0.0816  0.0282  0.4378
 5150W        W 9350   8.720   6.854   2.536  0.0422  0.2449  0.3637
 5151W        W 9351   1.484   4.479   0.157  0.0460  0.0330  0.1405
 5152W        W 9352   8.321   3.894  12.610 -0.0635 -0.2558  0.3266
 5153W        W 9353   0.509   3.028  10.367  0.1803  0.1427 -0.0277
 5154W        W 9354   9.673   3.468   2.604 -0.0405  0.3610 -0.1567
 5155W        W 9355   5.449   8.622   1.992  0.2182 -0.0157 -0.3125
 5156W        W 9356   6.409   8.623   1.023 -0.0611 -0.1205 -0.1377
 5157W        W 9357  10.417  10.280   9.770  0.3184 -0.4681 -0.4294
 5158W        W 9358   4.132   0.323   3.936 -0.1388  0.1033  0.0256
 5159W        W 9359   3.946   1.199  11.316  0.0439 -0.0228  0.1061
 5160W        W 9360   2.178   8.975   3.023 -0.1889  0.3608 -0.0092
 5161W        W 9361   2.205   7.258   9.195 -0.3730  0.0393  0.1837
 5162W        W 9362   9.042   5.626   9.896  0.0652 -0.1350 -0.0969
 5163W        W 9363   0.257   0.266  11.917  0.0072 -0.0669  0.0716
 5164W        W 9364   9.634   2.731  10.204  0.0557 -0.2567  0.3983
 5165W        W 9365  10.413   5.537   1.923  0.1074 -0.1774  0.0042
 5166W        W 9366   1.484   1.650  11.424  0.0503  0.0881  0.1088
 5167W        W 9367   0.752   7.674  11.159 -0.0024  0.2451 -0.1318
 5168W        W 9368   5.673   0.356   0.315 -0.1019 -0.2585 -0.0947
 5169W        W 9369   6.665   3.355   1.571 -0.0246 -0.0233 -0.0083
 5170W        W 9370  10.234   3.015  11.310  0.2255 -0.1070 -0.3081
 5171W        W 9371   2.142   9.984   3.133  0.0240 -0.2733  0.1151
 5172W        W 9372   2.673   4.995  12.517 -0.1249  0.3962 -0.1257
 5173W        W 9373   5.595   7.007   3.495  0.1151 -0.1832  0.0367
 5174W        W 9374   1.204   6.398   0.608  0.0379  0.1328  0.1884
 5175W        W 9375   6.876   6.139   1.686 -0.2881 -0.0963 -0.0024
 5176W        W 9376   7.060   6.145   2.834 -0.1446  0.2985  0.1441
 5177W        W 9377   9.418   8.942   8.908  0.2592 -0.1251  0.0293
 5178W        W 9378   6.411   5.261   1.817  0.0342  0.0113  0.0335
 5179W        W 9379   6.058   5.778  11.628 -0.1733 -0.0482 -0.0200
 5180W        W 9380   8.997   4.728  13.090  0.0159 -0.1161 -0.5025
 5181W        W 9381   4.650   2.822  11.550 -0.2523  0.0423  0.0651
 5182W        W 9382   8.086   7.941  12.055 -0.2991  0.3425  0.0249
 5183W        W 9383   6.814   1.104   0.836  0.1615  0.1504 -0.0320
 5184W        W 9384   8.460   2.334  12.221  0.0254 -0.1043 -0.0810
 5185W        W 9385   0.117   8.501   0.688  0.1742  0.0444  0.2413
 5186W        W 9386   0.601   3.017   0.866  0.3972  0.0329 -0.0583
 5187W        W 9387   7.435   6.803  10.253  0.1417 -0.1397 -0.3002
 5188W        W 9388   4.663   3.301   1.494  0.0000 -0.0122  0.0489
 5189W        W 9389   7.903   5.948   0.580 -0.1394 -0.0344  0.0048
 5190W        W 9390  10.370  10.317  11.733  0.2221  0.0335 -0.1795
 5191W        W 9391   4.494   5.196   1.174  0.0833  0.1814  0.1152
 5192W        W 9392   3.413   9.082   1.760  0.2600 -0.1807  0.0378
 5193W        W 9393   4.016   3.208  11.704  0.1727 -0.1946 -0.0153
 5194W        W 9394   3.505   9.479  13.337  0.1896 -0.4056  0.0709
 5195W        W 9395   1.185   5.036   3.302 -0.1215  0.1156 -0.1241
 5196W        W 9396   8.279   1.068   3.640  0.3047 -0.1925  0.2307
 5197W        W 9397   3.188   1.602   8.409 -0.1269  0.0662 -0.1137
 5198W        W 9398   9.899  10.453   8.802  0.1376 -0.1378  0.2855
 5199W        W 9399   0.539  10.096   4.884  0.0367  0.2458 -0.1651
 5200W        W 9400   5.490   0.883   4.569 -0.0472  0.0078 -0.0402
 5201W        W 9401   6.257   2.238  10.911 -0.2844  0.1524 -0.0219
 5202W        W 9402  10.289   4.357   4.692 -0.4697  0.0891 -0.0968
 5203W        W 9403   5.420   3.334  10.605  0.1143  0.1991  0.3787
 5204W        W 9404   6.627   4.934   1.490 -0.1142  0.0516  0.4133
 5205W        W 9405  10.364   7.217   1.421 -0.2301 -0.1443  0.3894
 5206W        W 9406   2.955   6.172   0.594  0.1965 -0.2705  0.2888
 5207W        W 9407   3.397   4.656  12.579  0.1823  0.0991  0.1830
 5208W        W 9408   1.340   1.116  11.496  0.0303 -0.2297 -0.0301
 5209W        W 9409   5.997   2.685   9.449  0.1088 -0.0258  0.0798
 5210W        W 9410   2.084   0.565   4.066  0.0852  0.2368  0.1867
 5211W        W 9411   9.061   6.105  12.771 -0.0930  0.0933 -0.2067
 5212W        W 9412   5.008   2.271  10.289  0.0868  0.0987  0.2760
 5213W        W 9413  10.310   2.233  12.768  0.2011  0.0314 -0.1095
 5214W        W 9414   2.908   7.361  11.874  0.3362 -0.0410 -0.0258
 5215W        W 9415   6.238   0.760  10.716  0.2503  0.3119 -0.0494
 5216W        W 9416   6.989   1.791  10.215  0.0761  0.0802 -0.2913
 5217W        W 9417  10.345   9.260  10.115  0.0439  0.1979  0.1742
 5218W        W 9418   7.212   2.828  12.584 -0.0475  0.3688  0.0286
 5219W        W 9419   0.621   6.685   1.229 -0.0554  0.2115 -0.0460
 5220W        W 9420   2.072  10.263   0.668 -0.0306  0.1539 -0.1952
 5221W        W 9421  10.492   6.637   2.367  0.0299  0.1845 -0.2706
 5222W        W 9422   7.266   4.466  13.299  0.0250  0.3542  0.1689
 5223W        W 9423   7.787   0.238   2.415 -0.1072 -0.1997  0.1964
 5224W        W 9424   2.242   8.503  10.702 -0.1475 -0.3607 -0.2417
 5225W        W 9425   8.831   1.876   1.823 -0.0814 -0.0085 -0.0233
 5226W        W 9426   4.609   4.158   2.534 -0.0655 -0.0142  0.0929
 5227W        W 9427   9.595   8.465   4.452  0.2168 -0.0328 -0.0360
 5228W        W 9428   2.979   4.768   9.945  0.3070  0.0499  0.3859
 5229W        W 9429   3.265   7.137   0.399  0.0489 -0.0944 -0.2921
 5230W        W 9430   9.172   3.625   1.367 -0.0302  0.0441 -0.0513
 5231W        W 9431   8.295   8.177  10.212  0.3152  0.0989 -0.0488
 5232W        W 9432   2.057   1.976   2.084 -0.0707 -0.1242 -0.0732
 5233W        W 9433   4.607   1.833  10.298 -0.2394 -0.0224 -0.2148
 5234W        W 9434   7.000   8.413   0.086  0.0901  0.2215  0.0683
 5235W        W 9435   3.964   7.811   3.172  0.0217  0.1965 -0.0619
 5236W        W 9436   5.234   2.525   5.580  0.0062 -0.2247  0.1026
 5237W        W 9437  10.377   9.130  11.472  0.0844  0.0318 -0.1986
 5238W        W 9438   7.405  10.285   2.865 -0.1981  0.0660  0.1394
 5239W        W 9439   5.220   4.258  12.147  0.2476 -0.0824  0.1746
 5240W        W 9440   2.204   1.194   4.498 -0.0784 -0.0862  0.0531
 5241W        W 9441   2.183   4.441  11.826 -0.0919  0.0336 -0.0765
 5242W        W 9442   2.020   8.874  10.324 -0.0266  0.0889  0.1634
 5243W        W 9443   5.060   6.233   3.503  0.1780 -0.2016 -0.0338
 5244W        W 9444   3.609   8.946  12.973  0.3782  0.2560  0.1460
 5245W        W 9445   9.850   0.330   0.541 -0.0212  0.0665 -0.3754
 5246W        W 9446   1.673   8.105  12.792 -0.1005  0.0927  0.1202
 5247W        W 9447   5.260   4.663   1.208 -0.1160  0.2194 -0.2756
 5248W        W 9448   3.742   5.938   2.234  0.1174  0.1133 -0.1845
 5249W        W 9449   8.483   6.872   1.385 -0.0932  0.1974 -0.1712
 5250W        W 9450   5.336   6.321  11.364 -0.0505  0.1352  0.0835
 5251W        W 9451   9.742   8.803   1.713 -0.1773 -0.1313 -0.2215
 5252W        W 9452   2.271   5.860  10.409  0.0478 -0.0021 -0.3679
 5253W        W 9453   8.616   5.561   2.031  0.0805  0.1749  0.2326
 5254W        W 9454   2.059   6.362   9.393 -0.0429 -0.0401  0.2397
 5255W        W 9455   7.020   0.286   3.753  0.1131 -0.0370 -0.1921
 5256W        W 9456   2.069   4.268   2.260  0.0427 -0.1874  0.0662
 5257W        W 9457   1.046   7.054   9.794  0.2504 -0.1441  0.2214
 5258W        W 9458   2.074   8.667   2.028  0.2501  0.0411  0.1074
 5259W        W 9459   2.465   6.988   0.779 -0.3464  0.3037 -0.0244
 5260W        W 9460   6.346   2.968   2.718 -0.1001  0.0643 -0.2673
 5261W        W 9461   0.368   1.988   5.299 -0.0282 -0.0964 -0.0158
 5262W        W 9462   1.476   6.550   3.697 -0.3367  0.1652 -0.0341
 5263W        W 9463   0.172   2.413  11.871 -0.3269  0.2123  0.0297
 5264W        W 9464   3.525   5.921   9.845 -0.2317  0.0932 -0.1267
 5265W        W 9465   1.845   1.434  11.905  0.1020  0.0020  0.1987
 5266W        W 9466   0.667   1.985  11.346  0.3372  0.0464  0.0501
 5267W        W 9467   5.723   0.534   3.297  0.1824  0.0736 -0.6773
 5268W        W 9468   2.354   4.887  11.708  0.1533  0.0749 -0.1936
 5269W        W 9469   8.005   4.636  12.130 -0.1780 -0.1008  0.1513
 5270W        W 9470   0.936   5.982  11.983  0.1276  0.1689  0.0513
 5271W        W 9471   1.824   2.507   5.324 -0.1683  0.0879  0.1984
 5272W        W 9472  10.306   1.212  11.842  0.0977  0.2716  0.2265
 5273W        W 9473   1.512   1.806  10.936  0.2666  0.1597  0.0385
 5274W        W 9474   2.280   2.862  13.268  0.0194 -0.0814 -0.0193
 5275W        W 9475   1.563   9.773   0.331  0.2326  0.3613  0.1858
 5276W        W 9476   5.589   3.669  10.250 -0.0302 -0.0287 -0.1277
 5277W        W 9477   6.877   7.730   2.798  0.1818 -0.1492 -0.1693
 5278W        W 9478   7.232  10.386  12.400 -0.1311 -0.0003  0.1777
 5279W        W 9479   2.126   6.548  12.630 -0.3159  0.3008 -0.2420
 5280W        W 9480   5.208   3.841   9.179  0.0073 -0.2564 -0.2946
 5281W        W 9481   4.327   0.964  11.555 -0.0926 -0.0130 -0.1614
 5282W        W 9482  10.468   7.951   1.812 -0.1303  0.1253  0.1086
 5283W        W 9483   5.598   3.796   8.772  0.2571  0.2700 -0.0835
 5284W        W 9484   1.664   7.082   4.976 -0.3570 -0.1901  0.0982
 5285W        W 9485   4.886   1.674   1.008 -0.1491 -0.2200  0.0395
 5286W        W 9486   0.387   0.590   3.121 -0.0162 -0.3456  0.1553
 5287W        W 9487   6.878  10.506  11.540  0.2092  0.0603 -0.0261
 5288W        W 9488   1.226   5.485   1.926 -0.0173  0.1051 -0.0411
 5289W        W 9489   1.591   2.268   2.113 -0.0726  0.0456  0.0943
 5290W        W 9490   2.039   0.154  10.659 -0.2867 -0.2034  0.1576
 5291W        W 9491   6.120   4.655  11.235  0.1182  0.0509 -0.2234
 5292W        W 9492   4.582   1.447   0.166  0.1568  0.1180  0.1489
 5293W        W 9493   5.545  10.343  11.460  0.3665  0.3836 -0.0281
 5294W        W 9494   3.944   2.295   2.248  0.1956 -0.2488  0.3838
 5295W        W 9495   0.466   1.521  11.465  0.0159 -0.0124 -0.1292
 5296W        W 9496   9.315   6.453  13.101 -0.0772 -0.0240  0.0969
 5297W        W 9497  10.046   7.667   2.166  0.1990 -0.0514 -0.0499
 5298W        W 9498   6.850   3.185   4.590 -0.1470  0.3854  0.0043
 5299W        W 9499   1.600   4.132   2.839 -0.0281  0.2841  0.3940
 5300W        W 9500   6.211   1.079   2.277 -0.1683  0.2406  0.0305
 5301W        W 9501   1.591   2.327  11.659  0.0142 -0.2328  0.2125
 5302W        W 9502   8.979   6.459  11.141 -0.1531  0.1809  0.2140
 5303W        W 9503   5.539   6.637   1.075  0.2381  0.0331  0.1900
 5304W        W 9504   9.258   3.839  11.648 -0.1595  0.0918 -0.0222
 5305W        W 9505   6.297   2.911   3.805 -0.4191  0.1529 -0.2837
 5306W        W 9506   3.689   4.973   4.635 -0.1171 -0.1287  0.2444
 5307W        W 9507   4.280   0.267   2.926 -0.1303 -0.0487  0.0538
 5308W        W 9508   6.966   0.799   1.221 -0.0631 -0.2041 -0.1542
 5309W        W 9509   3.110   6.950   1.364  0.0518 -0.1822  0.1596
 5310W        W 9510   5.410   9.921  10.020  0.1910  0.3072  0.0188
 5311W        W 9511   8.471   1.825   3.205  0.3400 -0.1225  0.0268
 5312W        W 9512   8.608   0.197   4.212 -0.2166 -0.0719  0.0835
 5313W        W 9513   4.746   6.350  11.594  0.3439 -0.1598  0.4374
 5314W        W 9514   7.639   4.839  13.138 -0.0556 -0.2219  0.0633
 5315W        W 9515  10.389   6.667  10.940 -0.1170 -0.1319 -0.0357
 5316W        W 9516   4.816   6.223   1.523  0.1229  0.1925 -0.4606
 5317W        W 9517   2.474   8.966   1.344  0.1675  0.1658 -0.0701
 5318W        W 9518   9.968   7.881   2.739  0.1073  0.0647 -0.0880
 5319W        W 9519   5.359   6.000  12.828 -0.0547  0.0608  0.0962
 5320W        W 9520   1.105   1.868   4.941 -0.1220  0.0307 -0.0992
 5321W        W 9521   2.611   7.127   2.767  0.2197 -0.1313 -0.1320
 5322W        W 9522  10.488   7.567   3.272 -0.0631  0.3280 -0.0565
 5323W        W 9523   3.060   6.072  10.276 -0.5291  0.2239 -0.2934
 5324W        W 9524   6.896   9.067   2.144 -0.5719  0.0219 -0.0166
 5325W        W 9525   3.539   2.755   1.595 -0.0741 -0.0762  0.2164
 5326W        W 9526   0.602   4.851   0.178 -0.2228 -0.4595 -0.0061
 5327W        W 9527   6.740   8.874  11.910 -0.0261 -0.0554  0.0697
 5328W        W 9528   5.109   0.821   1.442  0.1393  0.2352 -0.0943
 5329W        W 9529   2.909   0.505   4.194 -0.2415  0.1528 -0.2750
 5330W        W 9530   5.237   3.232   0.692 -0.0959 -0.0963 -0.2716
 5331W        W 9531   7.573   5.663   9.797  0.0131 -0.0249 -0.1516
 5332W        W 9532   3.768   9.486   1.754 -0.0876  0.1994 -0.1360
 5333W        W 9533  10.015   0.542   2.945  0.1786 -0.0394  0.1383
 5334W        W 9534   8.359  10.362   4.476 -0.1888 -0.2930 -0.0862
 5335W        W 9535   9.393   8.678   4.874 -0.0437 -0.0666 -0.1052
 5336W        W 9536   8.628   7.604   1.431 -0.1963  0.1925  0.1207
 5337W        W 9537   2.452   4.374  12.799  0.0265 -0.1187  0.0543
 5338W        W 9538   9.405   4.195   3.136 -0.1310 -0.1294  0.1349
 5339W        W 9539   7.527   9.501   3.562  0.1074  0.1585  0.0103
 5340W        W 9540   7.134  10.030  12.843 -0.1850 -0.1912 -0.5209
 5341W        W 9541   0.133   4.748   9.263 -0.1915 -0.0997 -0.1736
 5342W        W 9542   4.671   2.197  12.317  0.0419  0.1246 -0.1155
 5343W        W 9543   5.575   2.330   0.791  0.1504  0.2527  0.1177
 5344W        W 9544   3.304   7.213  12.766  0.0229  0.1826  0.1213
 5345W        W 9545   1.448   1.422   0.439  0.0786  0.0612  0.1019
 5346W        W 9546   1.429   5.743   9.494 -0.2343  0.1250  0.0994
 5347W        W 9547   9.126   6.485  10.609 -0.0228 -0.1751  0.2111
 5348W        W 9548   0.938   9.381   1.621 -0.0558 -0.0876  0.2292
 5349W        W 9549   9.490   1.002   1.867 -0.3098 -0.0900  0.0645
 5350W        W 9550   6.624   7.315   1.387 -0.0244 -0.0339  0.0445
 5351W        W 9551   0.094   8.022   0.691 -0.0914  0.1643 -0.1040
 5352W        W 9552   5.036   4.074  11.179  0.1888 -0.0583  0.0513
 5353W        W 9553   0.937   5.007  10.871 -0.4228  0.0434 -0.0583
 5354W        W 9554   1.536   0.867   1.460 -0.3097  0.4436  0.0191
 5355W        W 9555   4.944   2.557   1.870 -0.3567 -0.0010 -0.0941
 5356W        W 9556  10.450   8.313   1.071  0.0552 -0.1235  0.0246
 5357W        W 9557   6.202   5.937  12.624  0.0099  0.1109  0.0305
 5358W        W 9558   8.643   5.259   3.424 -0.0176  0.1165  0.2268
 5359W        W 9559   4.949   7.867   0.814  0.1133  0.2365 -0.0737
 5360W        W 9560   1.643   1.578  10.357 -0.2626  0.1457  0.0823
 5361W        W 9561   5.811   0.249  13.241  0.0560 -0.1494  0.0373
 5362W        W 9562  10.281   2.784   9.994 -0.2092  0.3674 -0.4583
 5363W        W 9563   1.377   4.326   3.914  0.0979 -0.0163  0.1020
 5364W        W 9564   8.232   6.413   1.997 -0.2942 -0.1367  0.1515
 5365W        W 9565   0.452   7.873   4.387  0.0430 -0.1641  0.1281
 5366W        W 9566   6.742   7.164   0.489  0.2279  0.0928  0.3460
 5367W        W 9567   5.463   6.055   0.990 -0.0297  0.0133 -0.0917
 5368W        W 9568   7.586   5.398   3.245  0.1063  0.1838  0.1228
 5369W        W 9569   1.539   6.534  10.187  0.0607 -0.0612 -0.0088
 5370W        W 9570   1.492   1.158   8.480 -0.0610 -0.1235  0.2112
 5371W        W 9571   3.846   3.350   4.831 -0.3177 -0.0806  0.2311
 5372W        W 9572   4.407   9.730  11.080  0.0734  0.2490 -0.4725
 5373W        W 9573   6.008   6.066   2.976  0.2406 -0.0754 -0.1776
 5374W        W 9574   6.021   4.455  10.788 -0.1231  0.0877  0.1828
 5375W        W 9575   0.075   5.722  13.156 -0.0713 -0.0018  0.1234
 5376W        W 9576   0.956   5.724   0.156 -0.0709 -0.1182 -0.1643
 5377W        W 9577   4.740   7.061  11.802  0.0385  0.2746  0.2109
 5378W        W 9578   4.654   1.853   3.550  0.1427  0.0322 -0.1409
 5379W        W 9579   5.708   8.260  13.297 -0.2198 -0.0715 -0.2167
 5380W        W 9580  10.223   1.787  11.371 -0.0844  0.1211  0.0796
 5381W        W 9581   5.188   5.371  10.033  0.0669 -0.1081  0.2172
 5382W        W 9582   8.465   4.317   2.679 -0.2557 -0.1585  0.1165
 5383W        W 9583   5.663   5.383  10.121 -0.1897 -0.2439 -0.0504
 5384W        W 9584   9.512   2.956   2.832  0.1320 -0.1421  0.2049
 5385W        W 9585   6.213   4.623  12.893 -0.1882  0.3107 -0.2691
 5386W        W 9586   0.768   8.895   0.873 -0.4970 -0.1569 -0.0678
 5387W        W 9587   7.166   7.328  11.278 -0.0472  0.2446 -0.1603
 5388W        W 9588   1.050   3.590  10.025  0.1232 -0.2543 -0.0101
 5389W        W 9589   0.413   2.762   4.973 -0.0255  0.3378 -0.1481
 5390W        W 9590   5.447   3.853  10.731  0.1204  0.1198 -0.2745
 5391W        W 9591   8.638   0.091  13.343 -0.1377  0.4127 -0.1173
 5392W        W 9592   9.944   1.314  11.503  0.0118 -0.3922 -0.5841
 5393W        W 9593   5.890   3.174   9.436  0.2080 -0.2070 -0.3089
 5394W        W 9594   3.933   6.813   2.054 -0.0678  0.0594 -0.1628
 5395W        W 9595   2.043   4.512   1.231 -0.1722  0.1347 -0.0072
 5396W        W 9596   2.571   1.673   1.186 -0.3228  0.0248 -0.0488
 5397W        W 9597  10.091   3.635   1.367  0.0183  0.2028  0.0565
 5398W        W 9598   8.129   5.455   0.496  0.0484 -0.0610  0.1553
 5399W        W 9599   2.582   7.476   0.940 -0.1033  0.2761 -0.0282
 5400W        W 9600   6.691   7.555   3.198  0.0021  0.4351 -0.0849
 5401W        W 9601   1.500   1.499  12.318  0.3392  0.0032 -0.1854
 5402W        W 9602   8.646   6.814   0.212  0.2379 -0.0920 -0.0276
 5403W        W 9603   9.001   4.498  10.036  0.1964 -0.1232  0.1647
 5404W        W 9604   0.468   6.309   4.925  0.2579 -0.0215 -0.0994
 5405W        W 9605   9.026   5.387  11.448 -0.2469  0.1535  0.4066
 5406W        W 9606   8.926   3.558   8.619  0.0786  0.0271 -0.0568
 5407W        W 9607   1.114   7.750   1.741 -0.2755 -0.1574 -0.1594
 5408W        W 9608   7.458  10.124   1.677 -0.0848  0.3015  0.0086
 5409W        W 9609   2.105   6.113   3.430  0.0472  0.0518 -0.1299
 5410W        W 9610   8.180   3.559  12.229 -0.1902 -0.1704 -0.0380
 5411W        W 9611   4.095   8.473  10.513  0.0562  0.2139 -0.0351
 5412W        W 9612   8.121   6.041   5.137  0.1049 -0.3234  0.1453
 5413W        W 9613   2.057   2.718  12.257 -0.1371 -0.0154 -0.1935
 5414W        W 9614   0.938   1.543  12.638 -0.0240 -0.1914 -0.0922
 5415W        W 9615   8.157   8.865   1.284 -0.1534  0.0994  0.3470
 5416W        W 9616   4.679   9.185  11.961 -0.0057 -0.0943 -0.0850
 5417W        W 9617   5.173   6.919   0.412 -0.0701 -0.0047 -0.1056
 5418W        W 9618   0.948   1.580  11.500  0.1099 -0.1539 -0.2191
 5419W        W 9619   2.306  10.259   1.455  0.2809 -0.0348 -0.0346
 5420W        W 9620   3.500   2.315   1.320 -0.1023  0.0603  0.0900
 5421W        W 9621   5.997   1.290   1.872 -0.0304  0.4189  0.2068
 5422W        W 9622   5.115  10.194   1.153 -0.1084 -0.1163 -0.4250
 5423W        W 9623   5.521   7.771  12.440 -0.2248  0.0464 -0.0100
 5424W        W 9624   9.790   4.913   3.407  0.0628  0.2893 -0.1987
 5425W        W 9625   8.367   4.246  11.558  0.0870 -0.0887  0.0382
 5426W        W 9626   8.214   8.737   0.063  0.6112 -0.3665 -0.1602
 5427W        W 9627   8.285   6.777  12.739 -0.1067  0.1831 -0.4681
 5428W        W 9628   3.485   3.127   1.094  0.0998 -0.1497 -0.0880
 5429W        W 9629   1.279   6.940   4.519  0.3356  0.0661  0.0298
 5430W        W 9630   6.005   2.265   0.579 -0.0412 -0.2233 -0.2635
 5431W        W 9631   6.325   6.564   2.374  0.1041 -0.2678  0.2758
 5432W        W 9632   2.735  10.254  13.354 -0.2894 -0.0390 -0.0754
 5433W        W 9633   5.276   9.798  12.112  0.0580 -0.0784  0.0477
 5434W        W 9634   6.292   5.700   4.560 -0.0176  0.0299  0.0765
 5435W        W 9635   8.923   2.517  12.272 -0.1556 -0.0977 -0.0294
 5436W        W 9636   9.302   4.295   4.105 -0.1667  0.4012  0.1240
 5437W        W 9637   3.732   4.465   0.426  0.0349 -0.0992 -0.0502
 5438W        W 9638   8.118   2.072  11.952 -0.0485 -0.0099 -0.2338
 5439W        W 9639   5.651  10.210   1.091 -0.1297 -0.0078  0.0592
 5440W        W 9640   8.742  10.325  10.344  0.0665 -0.1525  0.0828
 5441W        W 9641   2.648   5.292   1.251 -0.2738 -0.2148 -0.1866
 5442W        W 9642   2.084   7.879  13.002  0.4551  0.2967  0.2253
 5443W        W 9643   7.005   5.903   8.386 -0.0105  0.2355  0.6042
 5444W        W 9644   4.412   3.169  11.991 -0.1112  0.0518  0.0930
 5445W        W 9645   6.448   4.068   2.066  0.4546  0.0365  0.0249
 5446W        W 9646   2.047   4.980  10.078 -0.1421 -0.0675  0.1688
 5447W        W 9647   1.233   2.003  12.902  0.1988  0.1613  0.1374
 5448W        W 9648   4.043   8.587  11.036  0.1389  0.3180  0.0828
 5449W        W 9649   2.937   0.254   8.709 -0.2659 -0.0205  0.3566
 5450W        W 9650   9.027   3.227   9.996 -0.0039  0.0901  0.0060
 5451W        W 9651   4.365   3.302   2.257  0.3060  0.0383 -0.7008
 5452W        W 9652   2.566   2.063   3.536 -0.1325  0.1445 -0.4298
 5453W        W 9653   6.771   7.976   3.467  0.1741 -0.2880  0.0273
 5454W        W 9654   4.576   8.282   0.055 -0.0518  0.0466 -0.1898
 5455W        W 9655   7.785   7.646   2.635 -0.3006  0.0090 -0.1047
 5456W        W 9656  10.116   7.801   1.050 -0.1079 -0.0300 -0.1716
 5457W        W 9657   8.265   4.895   9.866  0.0776  0.3572  0.0289
 5458W        W 9658   2.617   3.257  11.128 -0.2657 -0.1000  0.3134
 5459W        W 9659   3.707   6.915  13.090  0.1034  0.0391  0.0774
 5460W        W 9660   5.469   7.586   0.890  0.0499 -0.1757 -0.1213
 5461W        W 9661   2.642   1.525  13.258  0.2568  0.2659  0.1927
 5462W        W 9662   5.152   5.612   2.678 -0.1097  0.1824  0.2352
 5463W        W 9663  10.047   2.800   0.450 -0.1355 -0.2237  0.3168
 5464W        W 9664   2.781   2.118  12.548 -0.0585  0.1686  0.1997
 5465W        W 9665   0.891   6.673  10.234  0.3453  0.3804 -0.0748
 5466W        W 9666   0.804   1.165  11.783 -0.0978 -0.0122 -0.1822
 5467W        W 9667   2.803   6.801   0.198 -0.1139  0.1326  0.0798
 5468W        W 9668   1.808   7.375   3.648 -0.0424 -0.1072  0.1434
 5469W        W 9669   6.428  10.424   0.076  0.1248  0.1376  0.1649
 5470W        W 9670   5.778   2.816   2.059 -0.1347 -0.1849  0.1813
 5471W        W 9671   7.889   0.451   9.131  0.1297  0.0313 -0.4489
 5472W        W 9672   2.366   1.666   4.396 -0.0474  0.1578  0.2083
 5473W        W 9673   0.029  10.410  10.825 -0.1169  0.1996  0.0641
 5474W        W 9674   5.761   4.893  11.546 -0.0747  0.1096 -0.1488
 5475W        W 9675   5.023   1.246   2.085  0.0679 -0.0778  0.1048
 5476W        W 9676   8.116   8.472  12.943  0.0458  0.3115 -0.0673
 5477W        W 9677   4.122   7.516   0.530 -0.0341  0.1998 -0.2192
 5478W        W 9678   0.824   6.709  11.927 -0.1889 -0.2937  0.0090
 5479W        W 9679   3.098   9.701  10.462  0.0407  0.2150 -0.1570
 5480W        W 9680   8.527   8.040   0.431 -0.1321  0.2701 -0.0332
 5481W        W 9681   5.740   9.646  10.291 -0.1555  0.3802  0.0926
 5482W        W 9682   0.202   1.420   1.106 -0.1015 -0.0064 -0.0797
 5483W        W 9683   7.702   8.068  12.850 -0.1288  0.0433 -0.1011
 5484W        W 9684   3.961   1.450   8.655  0.0310 -0.0859  0.0813
 5485W        W 9685   1.659   3.155   9.539 -0.1100  0.3940  0.0566
 5486W        W 9686  10.150   2.292   1.818 -0.0589 -0.2089  0.0184
 5487W        W 9687   6.917   4.257  10.753  0.1955  0.3775  0.0308
 5488W        W 9688   0.793   2.346   9.406  0.0287  0.2809 -0.0237
 5489W        W 9689   3.860   3.308   3.858 -0.2722  0.4192 -0.2281
 5490W        W 9690   2.249   2.768   1.851 -0.1180 -0.2004  0.1361
 5491W        W 9691   7.761   8.475  12.098  0.1883  0.0995 -0.2160
 5492W        W 9692   1.808   6.000   9.206  0.1493 -0.0064 -0.1118
 5493W        W 9693   9.818   4.280  12.915 -0.0657  0.0567 -0.0573
 5494W        W 9694   4.857   7.286  10.249 -0.0642 -0.1008 -0.0901
 5495W        W 9695   1.250   0.659  11.256 -0.2974  0.1963 -0.3709
 5496W        W 9696   1.643   5.700   4.049 -0.3771 -0.4894 -0.3650
 5497W        W 9697   1.648   4.009   2.095 -0.0523 -0.2173 -0.1761
 5498W        W 9698  10.403   9.385   2.718 -0.0279 -0.0099  0.2476
 5499W        W 9699   0.312   7.251   0.163  0.2824 -0.0621  0.4291
 5500W        W 9700   4.605   1.117  13.161 -0.5499 -0.3699  0.2668
 5501W        W 9701   6.208   7.533   1.608 -0.1155 -0.0445 -0.1358
 5502W        W 9702   9.687   7.314   0.275 -0.0435  0.0885 -0.1211
 5503W        W 9703   3.392   0.611  11.405  0.0302  0.0604  0.1407
 5504W        W 9704   9.023   2.685   9.992  0.1893  0.3145 -0.0091
 5505W        W 9705   3.365   6.283   3.813 -0.0025 -0.1557  0.0180
 5506W        W 9706   6.713   4.675  13.019  0.4414 -0.1269  0.3343
 5507W        W 9707   9.519   6.839  10.377  0.2599  0.1539  0.2019
 5508W        W 9708   1.034  10.246   1.196 -0.1031  0.0997  0.1459
 5509W        W 9709   1.758   2.693   9.316 -0.3835  0.0314  0.1334
 5510W        W 9710   0.522   5.962   5.405 -0.2109 -0.2761 -0.3516
 5511W        W 9711   4.740   8.425   1.489  0.0678 -0.0557  0.0309
 5512W        W 9712   3.719   7.292  11.389  0.2258 -0.0804 -0.0633
 5513W        W 9713   6.990   9.511   2.345  0.1252  0.0922 -0.1433
 5514W        W 9714   6.611   4.097   2.571  0.1879  0.2296  0.0131
 5515W        W 9715   8.170   2.200   3.994  0.2130  0.1995 -0.1217
 5516W        W 9716   3.349   8.031  11.069  0.6181  0.4049 -0.0072
 5517W        W 9717   0.120  10.144   5.185  0.5255 -0.1926 -0.2033
 5518W        W 9718  10.458   8.793   4.081  0.1444  0.1088  0.2903
 5519W        W 9719  10.440   5.528   0.341  0.0481 -0.0644 -0.1376
 5520W        W 9720   2.662   9.588  12.462 -0.1499  0.0329 -0.0375
 5521W        W 9721   4.362   9.164  12.350  0.1347 -0.0741 -0.0102
 5522W        W 9722   5.476   4.266   8.775 -0.1626 -0.1870 -0.0854
 5523W        W 9723   9.541   9.009   0.106  0.0087 -0.0091 -0.1097
 5524W        W 9724   9.519   9.498   4.656  0.1012  0.0566 -0.1891
 5525W        W 9725  10.027   8.194  11.039 -0.1004 -0.1009 -0.1072
 5526W        W 9726   0.053   2.451   4.131 -0.1221  0.2774  0.2932
 5527W        W 9727   0.984   5.775  11.220 -0.0188  0.1454  0.2711
 5528W        W 9728   8.308   2.541   2.764  0.2699 -0.0102 -0.0414
 5529W        W 9729   3.201   9.963  10.042  0.0399 -0.1807 -0.3462
 5530W        W 9730   6.613   7.388   1.894  0.1632  0.0010  0.0149
 5531W        W 9731   3.690   5.432  10.057  0.2164 -0.2923 -0.1504
 5532W        W 9732   7.382  10.460   3.707  0.2516 -0.1000 -0.1345
 5533W        W 9733   9.680   4.464   9.328  0.0696  0.1905  0.0146
 5534W        W 9734   2.470   8.216   9.039 -0.0302  0.0391 -0.2797
 5535W        W 9735   5.058   3.082  11.370  0.0313  0.0588  0.1465
 5536W        W 9736   7.284   5.056   0.390  0.0791  0.2612 -0.0905
 5537W        W 9737   6.363   1.752   0.576  0.2225 -0.0307  0.1597
 5538W        W 9738   2.775   4.007  12.559 -0.1344 -0.2330  0.1095
 5539W        W 9739   5.130   5.072  10.459 -0.3334 -0.0101  0.0165
 5540W        W 9740   8.465   3.803  11.767  0.1266  0.2574  0.1286
 5541W        W 9741   9.142   0.458   2.521  0.1661  0.2714  0.0938
 5542W        W 9742   0.042   4.946  12.062  0.3396  0.1470 -0.3116
 5543W        W 9743   6.582   0.304   0.419 -0.3712 -0.1178 -0.3424
 5544W        W 9744   5.916   5.210   1.964 -0.1015  0.0700  0.0371
 5545W        W 9745   3.723   7.752  12.024 -0.0986 -0.1191 -0.0043
 5546W        W 9746   2.262   2.187  11.307 -0.3177 -0.2155  0.0005
 5547W        W 9747   9.592   2.678   2.452 -0.0329  0.0472 -0.3313
 5548W        W 9748   7.833   3.630  12.695 -0.0227 -0.0776  0.4175
 5549W        W 9749   6.224   4.964   8.998  0.0320  0.1375  0.0595
 5550W        W 9750   3.543   5.845  10.378 -0.0321 -0.0735 -0.1332
 5551W        W 9751   1.224   7.051  12.014 -0.1667 -0.0209  0.1754
 5552W        W 9752   0.693   7.045   9.407 -0.0933 -0.1678 -0.5797
 5553W        W 9753   1.669   4.569  10.059  0.0666 -0.1330 -0.0698
 5554W        W 9754   5.896   3.583  11.408 -0.2799 -0.1623  0.1691
 5555W        W 9755   2.290   9.896   1.058  0.1214 -0.1946  0.3712
 5556W        W 9756   4.182   6.349   4.218 -0.2583 -0.1500 -0.1711
 5557W        W 9757   6.004   7.775  10.563 -0.0128  0.0097  0.3720
 5558W        W 9758   7.803   8.425   9.359 -0.0018 -0.0860  0.1457
 5559W        W 9759   3.666   3.831   1.622  0.0116 -0.0080  0.0893
 5560W        W 9760   9.218   4.493   5.256 -0.0693 -0.0789  0.1468
 5561W        W 9761   2.033   1.605  12.433  0.0469 -0.1530 -0.3117
 5562W        W 9762   1.919   4.613  13.121 -0.1673  0.0567 -0.1477
 5563W        W 9763   4.027   3.486  12.212 -0.1073  0.1502  0.0461
 5564W        W 9764   3.158   2.153   0.978 -0.4930 -0.1378  0.1885
 5565W        W 9765   2.205   7.126   3.507 -0.2515 -0.1778  0.0297
 5566W        W 9766   4.379   6.256  12.894 -0.1880  0.0683  0.0282
 5567W        W 9767   9.519   0.733   0.576  0.0164 -0.1631 -0.1019
 5568W        W 9768   7.022   7.249   1.712  0.0392  0.0415 -0.2408
 5569W        W 9769   1.657   5.477   9.814  0.0954  0.0450 -0.0401
 5570W        W 9770   3.976   0.380  12.376 -0.1360  0.3050  0.0726
 5571W        W 9771   7.588   8.842  10.298  0.2223  0.3621 -0.0720
 5572W        W 9772   4.081   7.408   4.173  0.0433 -0.3778  0.2868
 5573W        W 9773   7.710   2.182  10.536  0.0260  0.1393 -0.0737
 5574W        W 9774   7.479   9.531  12.577 -0.2440 -0.1030  0.2090
 5575W        W 9775   9.320   1.549   9.255 -0.0621  0.0571  0.0961
 5576W        W 9776   9.010   0.981   4.309 -0.0673  0.2136 -0.0306
 5577W        W 9777   9.671   6.665   8.806 -0.0643 -0.0666 -0.1262
 5578W        W 9778   6.142   2.399  11.801  0.0233 -0.1939  0.1184
 5579W        W 9779   4.350   3.923   1.036 -0.4847  0.0636  0.0534
 5580W        W 9780   9.240   4.623  10.434 -0.1702  0.2035  0.2328
 5581W        W 9781   7.234   3.460   1.600  0.2357 -0.1346  0.1718
 5582W        W 9782   2.094   1.584   1.676 -0.0526 -0.1019  0.1578
 5583W        W 9783   2.343   1.374   0.230  0.0658  0.2519 -0.0803
 5584W        W 9784   3.450   5.788   3.771 -0.1667  0.2299  0.1308
 5585W        W 9785   3.022   1.512   1.389  0.0510 -0.0442  0.0832
 5586W        W 9786  10.220   1.167  12.980 -0.0225 -0.1699 -0.4122
 5587W        W 9787   5.470   6.254   1.449 -0.1081 -0.1629  0.4266
 5588W        W 9788   3.561   5.128   0.994 -0.1370  0.1196  0.0782
 5589W        W 9789   0.973   3.642   4.010  0.0974  0.3065  0.0949
 5590W        W 9790   1.295  10.093   2.403  0.3079 -0.1283 -0.2757
 5591W        W 9791   4.088   0.107  11.872  0.1396 -0.2293 -0.0889
 5592W        W 9792   9.310   7.124  12.806  0.4131 -0.2746  0.0238
 5593W        W 9793   0.623   8.012   2.490 -0.0178 -0.1221 -0.0455
 5594W        W 9794   4.866  10.137  12.129  0.2394 -0.1272  0.0305
 5595W        W 9795   9.522   8.725  11.837  0.3996  0.0449 -0.3945
 5596W        W 9796   5.745   0.902  12.419 -0.0245 -0.2220  0.2284
 5597W        W 9797   2.700   9.341   3.798 -0.1279 -0.0336 -0.0566
 5598W        W 9798   5.760   5.748   1.961  0.0866 -0.2575  0.0902
 5599W        W 9799   7.732   1.197   3.852 -0.0442  0.1430  0.0301
 5600W        W 9800  10.305   5.279   3.157  0.1290 -0.0486 -0.1057
 5601W        W 9801   8.421   7.121  11.692 -0.0378 -0.1569  0.1549
 5602W        W 9802   7.767   9.189   9.603 -0.3602 -0.0090 -0.1184
 5603W        W 9803  10.511   3.114  10.323  0.2519 -0.0316 -0.2261
 5604W        W 9804   7.484   6.367   9.574 -0.0750  0.1251  0.0683
 5605W        W 9805   7.032   5.422   3.355  0.1199 -0.1712 -0.1004
 5606W        W 9806  10.168   3.739   3.711 -0.0015 -0.2781  0.0145
 5607W        W 9807   6.230   8.171  11.813  0.1333  0.2009 -0.3298
 5608W        W 9808   6.845  10.349   9.880  0.0422 -0.0053  0.1793
 5609W        W 9809   3.539   4.412  12.065  0.1500  0.5189 -0.1234
 5610W        W 9810  10.407   7.345   0.945  0.1823 -0.1230  0.2101
 5611W        W 9811   4.659   0.110  11.912 -0.0582 -0.0453  0.1308
 5612W        W 9812   3.804   6.984   1.241  0.2771  0.0720 -0.0340
 5613W        W 9813   3.761   0.209   1.986 -0.1142 -0.2606 -0.0859
 5614W        W 9814   1.088   2.976   0.618 -0.3741 -0.1001 -0.1011
 5615W        W 9815   3.091   8.701   2.439 -0.0895  0.1344 -0.2534
 5616W        W 9816   1.720   5.269   5.320  0.0069  0.0580  0.1999
 5617W        W 9817   3.662   3.739   4.077 -0.0682 -0.3313 -0.0779
 5618W        W 9818   1.965  10.114  11.845  0.0057 -0.0503 -0.2862
 5619W        W 9819   3.342   1.094   9.227 -0.1064  0.3761 -0.1347
 5620W        W 9820   2.403   2.026   2.527 -0.3835  0.0557  0.1321
 5621W        W 9821   3.357   9.163   2.425 -0.2065 -0.1108  0.0116
 5622W        W 9822   0.273   6.479   0.298  0.1219 -0.3512  0.0707
 5623W        W 9823   2.483   5.185   0.822 -0.1317  0.0491 -0.1791
 5624W        W 9824   5.953   6.240   1.719 -0.0913 -0.0136 -0.0412
 5625W        W 9825   4.811   5.114   0.267 -0.0825  0.1206  0.0816
 5626W        W 9826   1.132   8.463  10.697 -0.1409  0.2263  0.1771
 5627W        W 9827   1.658   6.153   9.743 -0.0944 -0.0294  0.2645
 5628W        W 9828   8.959   7.608  11.201  0.3553  0.1817  0.0005
 5629W        W 9829   3.002   9.363   0.037  0.1461 -0.1278  0.3306
 5630W        W 9830   8.863   3.966  11.998  0.2925  0.1065 -0.1366
 5631W        W 9831   8.994   9.438  12.450  0.1079 -0.0419  0.1710
 5632W        W 9832   2.642   1.662   9.138 -0.0456 -0.2468 -0.0292
 5633W        W 9833  10.454   8.471   8.706 -0.3007  0.0841  0.0958
 5634W        W 9834   3.893   3.165   3.136  0.2570 -0.1884  0.3003
 5635W        W 9835  10.143   0.668  10.268 -0.0504  0.2322 -0.1228
 5636W        W 9836   9.413   6.187  11.102 -0.1534  0.0284 -0.0531
 5637W        W 9837   6.782   9.957   9.610  0.1627 -0.0264 -0.2133
 5638W        W 9838  10.035   6.714  10.613  0.4511  0.1284 -0.2242
 5639W        W 9839   9.709   2.709   1.112  0.0804 -0.2809 -0.1765
 5640W        W 9840   7.010   8.009  10.065 -0.1222 -0.1241  0.0550
 5641W        W 9841   9.795   7.718  11.893  0.0815  0.2323 -0.0264
 5642W        W 9842   2.799   3.429  12.769 -0.3422  0.0958  0.1596
 5643W        W 9843   8.158   3.415   2.308  0.0482  0.1314  0.0311
 5644W        W 9844   5.199  10.183  10.448  0.1785 -0.5731  0.0536
 5645W        W 9845   7.950   7.846   0.360  0.0596 -0.1294 -0.0499
 5646W        W 9846   0.742   3.688  10.762  0.0689 -0.1108  0.0121
 5647W        W 9847   9.636  10.487  10.713 -0.0072  0.1465  0.0032
 5648W        W 9848   8.033   5.636  12.556  0.0469  0.4010 -0.1197
 5649W        W 9849   3.522   8.081   3.170  0.0784  0.1025  0.2221
 5650W        W 9850   5.697   8.127  12.157  0.0956  0.0513 -0.1445
 5651W        W 9851   0.125   7.388  11.762 -0.0326 -0.0855  0.1486
 5652W        W 9852   7.067   8.155   0.488  0.0310 -0.1553  0.2183
 5653W        W 9853   6.338   3.029   1.890  0.0543 -0.0832 -0.0145
 5654W        W 9854   5.720   4.827   2.695 -0.0506 -0.4184 -0.0675
 5655W        W 9855  10.349   3.728  10.383 -0.1349 -0.0352 -0.2232
 5656W        W 9856   3.086   1.174  13.117  0.1061 -0.0553  0.1327
 5657W        W 9857   8.657   6.458  10.514  0.0461  0.1364  0.0170
 5658W        W 9858   7.479   0.251  13.274 -0.0068  0.1117 -0.0273
 5659W        W 9859   9.215  10.199  11.946 -0.1273 -0.3295  0.1969
 5660W        W 9860   8.200   0.451  11.465 -0.0978 -0.0084 -0.3333
 5661W        W 9861  10.498   1.483   0.281  0.1242  0.2189  0.3431
 5662W        W 9862   9.733   5.481   2.637  0.1627  0.2432 -0.0388
 5663W        W 9863   3.163   4.012  13.246  0.0141 -0.2329  0.2230
 5664W        W 9864  10.250   7.689   4.748  0.0127 -0.1110 -0.2414
 5665W        W 9865   8.269   8.036   9.312  0.1394  0.0964 -0.2294
 5666W        W 9866   2.957   5.106   3.028 -0.1611  0.3328 -0.3757
 5667W        W 9867   3.396   7.885   9.844 -0.0707  0.0945 -0.1313
 5668W        W 9868   0.588   7.268   2.015 -0.0046  0.4112  0.1791
 5669W        W 9869   5.142   8.123  12.131 -0.0534 -0.1191  0.1370
 5670W        W 9870   8.790   9.254   1.892 -0.0021 -0.1979  0.0124
 5671W        W 9871   3.975   6.202   0.347 -0.1559  0.2152 -0.0837
 5672W        W 9872   6.215   7.058   1.328 -0.2676 -0.0283 -0.3447
 5673W        W 9873   9.976   6.246  10.189 -0.1289  0.0618  0.1244
 5674W        W 9874   1.267   9.225   1.984 -0.2067 -0.1879  0.4927
 5675W        W 9875   1.530   5.060  10.108  0.2475 -0.1147  0.0475
 5676W        W 9876   1.342   3.524   2.588 -0.0445  0.0691  0.0809
 5677W        W 9877   4.306   2.034  12.777  0.1344  0.2169 -0.0520
 5678W        W 9878   9.533   2.168   1.061  0.0772 -0.3573  0.1184
 5679W        W 9879   0.118   0.361   2.213  0.0362 -0.0235  0.0669
 5680W        W 9880   9.030   9.921  10.532  0.1860 -0.3409  0.1978
 5681W        W 9881   7.421   6.710  13.276 -0.1395 -0.4599  0.1315
 5682W        W 9882   2.289   2.084   9.832 -0.2552  0.0735  0.2503
 5683W        W 9883   9.707   6.732  12.937  0.2580 -0.0414 -0.1863
 5684W        W 9884   5.321   6.509  13.068 -0.0285  0.0571 -0.1012
 5685W        W 9885   5.940  10.313  11.118  0.1926  0.0888 -0.1716
 5686W        W 9886   2.822   0.847  12.776  0.1363 -0.3156 -0.3427
 5687W        W 9887   1.540   6.059  11.926  0.2425 -0.0310  0.1258
 5688W        W 9888   5.707   8.403   1.004  0.2079  0.3448  0.0376
 5689W        W 9889  10.148   4.535  11.709 -0.1086  0.1627 -0.1975
 5690W        W 9890   5.451   6.484  10.053 -0.0285  0.0193  0.1866
 5691W        W 9891   9.116   6.348   2.583  0.1619 -0.2578  0.1175
 5692W        W 9892   0.609   8.410   4.360  0.2124 -0.2194  0.0356
 5693W        W 9893   8.703   3.521   2.184  0.1796  0.0018 -0.1448
 5694W        W 9894   3.806   1.007   4.356 -0.2639 -0.3911 -0.3147
 5695W        W 9895   9.703   3.691   1.666  0.1119  0.2254  0.1118
 5696W        W 9896   0.788   2.907   1.999  0.3583 -0.1274  0.0416
 5697W        W 9897   0.541   0.542  10.410  0.1879 -0.0471 -0.0177
 5698W        W 9898   6.889   3.955   9.816  0.0532 -0.0957 -0.1232
 5699W        W 9899   3.606   6.939   1.709  0.2445  0.4709  0.2994
 5700W        W 9900   7.308   8.521  10.539  0.1421  0.0461 -0.1678
 5701W        W 9901   0.332   7.327   1.455 -0.1122 -0.0019 -0.1531
 5702W        W 9902  10.416   8.013   3.697 -0.0147 -0.0439  0.0085
 5703W        W 9903   8.016   3.707   2.733  0.0253  0.3393  0.0323
 5704W        W 9904   2.088  10.140   3.668 -0.2333  0.2546 -0.0614
 5705W        W 9905  10.371   5.088   1.623  0.1516 -0.0170 -0.0346
 5706W        W 9906   0.208   7.854   2.332  0.0357 -0.0003 -0.0971
 5707W        W 9907   9.523   3.987  10.710  0.1948 -0.0784 -0.6072
 5708W        W 9908   3.042   9.263   1.506 -0.2143 -0.0034  0.0491
 5709W        W 9909   0.595   2.151   3.142 -0.2058 -0.0741 -0.0675
 5710W        W 9910   2.660   6.250  11.304  0.1802 -0.0287 -0.1673
 5711W        W 9911   4.806   5.591   1.974  0.2607  0.0947  0.0626
 5712W        W 9912   5.914   1.843  13.025  0.0832  0.4301 -0.1554
 5713W        W 9913   6.664   8.006   0.794 -0.0105  0.2083  0.0862
 5714W        W 9914   9.059   0.024   3.976  0.6686 -0.0895  0.1059
 5715W        W 9915   1.336   9.993  13.350 -0.0478 -0.2864  0.2818
 5716W        W 9916   4.833   8.443  11.877  0.1167 -0.0131 -0.2522
 5717W        W 9917   4.314   6.980  12.225 -0.1154 -0.1518 -0.0422
 5718W        W 9918   8.398   5.919   3.670 -0.1526 -0.1885 -0.2472
 5719W        W 9919   7.908   2.822   3.077  0.0278  0.2092  0.1787
 5720W        W 9920   0.997   0.062   4.764  0.2060 -0.2899  0.2201
 5721W        W 9921   2.701   7.629  10.391 -0.0713 -0.2483 -0.0930
 5722W        W 9922   9.528   0.594   9.444 -0.1986  0.0347  0.1679
 5723W        W 9923   9.113   5.812  11.721  0.3825  0.1578 -0.0023
 5724W        W 9924   8.804   8.082   9.494  0.0617 -0.1902 -0.1334
 5725W        W 9925   1.115   9.490   0.086  0.0740  0.2607  0.0546
 5726W        W 9926   1.408   8.364   2.360 -0.3849  0.2353 -0.0988
 5727W        W 9927   0.968   9.206   2.931  0.1833 -0.0578  0.2069
 5728W        W 9928   5.083   3.884   8.637  0.6388  0.2454  0.4021
 5729W        W 9929   1.839   9.282  12.827  0.1701  0.1961 -0.0828
 5730W        W 9930   4.689   3.304  10.993 -0.0481 -0.0647  0.0290
 5731W        W 9931   6.303   7.644   0.480  0.1421 -0.1731 -0.2951
 5732W        W 9932   7.393   0.027  11.492 -0.1837 -0.3384  0.0598
 5733W        W 9933   2.102   4.951   2.928  0.2548 -0.2894 -0.0309
 5734W        W 9934   9.812   5.199  12.719  0.2833 -0.4647 -0.1163
 5735W        W 9935   7.718   0.803   4.235  0.0012  0.0274  0.2031
 5736W        W 9936   6.761   4.598   3.925 -0.0831 -0.1030  0.0871
 5737W        W 9937   5.291   8.900   1.111 -0.1489 -0.1663 -0.0605
 5738W        W 9938   1.039  10.209  11.545 -0.1823 -0.1116  0.0897
 5739W        W 9939   0.515   2.883   1.321  0.1853  0.1368 -0.0645
 5740W        W 9940   0.531   1.416   1.585  0.1344 -0.0390  0.1000
 5741W        W 9941   4.307   1.641   2.768  0.2025  0.2277 -0.0299
 5742W        W 9942   8.853   1.904   3.525 -0.0235  0.1939 -0.4278
 5743W        W 9943   9.013   5.851   2.270  0.0606 -0.0830  0.3796
 5744W        W 9944   4.590   2.619  11.000 -0.1363 -0.1275  0.1970
 5745W        W 9945   1.747   3.249   1.923 -0.4901  0.1077 -0.0084
 5746W        W 9946   8.188   1.121  11.676 -0.1994 -0.1391  0.0442
 5747W        W 9947   1.260   1.776   1.344  0.1103 -0.1761 -0.2682
 5748W        W 9948   8.949   7.210   3.648 -0.0102  0.1186 -0.0588
 5749W        W 9949   5.774   5.073   4.504 -0.0396  0.4284  0.4079
 5750W        W 9950   5.806   9.997   1.750  0.2120  0.1811  0.0727
 5751W        W 9951   7.360   5.288  13.223 -0.2796  0.0587 -0.2009
 5752W        W 9952   4.985   3.590  11.301 -0.1219 -0.0216 -0.0680
 5753W        W 9953  10.468   8.390  12.906 -0.1706 -0.1249 -0.2300
 5754W        W 9954   9.477   9.917  10.830  0.1803  0.3060 -0.2250
 5755W        W 9955   5.306   3.797  11.810 -0.1003  0.1408 -0.1145
 5756W        W 9956   1.691   5.942  10.555  0.0374 -0.0868 -0.1051
 5757W        W 9957   1.822   1.918   1.301 -0.0232 -0.1934 -0.4373
 5758W        W 9958   9.446   4.226   0.858  0.1066  0.0744 -0.1626
 5759W        W 9959   4.761   5.326   4.094  0.3801 -0.2311 -0.1370
 5760W        W 9960   6.492   4.660   4.855 -0.2838 -0.2322  0.2229
 5761W        W 9961   1.468   5.918  11.454  0.1215 -0.0275 -0.1687
 5762W        W 9962   4.234   7.150  11.739  0.2926  0.2105  0.1629
 5763W        W 9963   7.478   1.408   1.927 -0.0908  0.0576 -0.0061
 5764W        W 9964   7.491   2.448   2.946  0.0259 -0.2419  0.1204
 5765W        W 9965   5.430   9.087  10.220  0.1571 -0.0930 -0.1139
 5766W        W 9966   3.775   6.055  12.986  0.1865  0.2290  0.0791
 5767W        W 9967   5.052   5.975   2.192  0.2914  0.0893 -0.0906
 5768W        W 9968   3.495   1.420  13.108  0.1229 -0.0909 -0.2515
 5769W        W 9969   4.284   5.524  12.166  0.2631  0.0655 -0.1605
 5770W        W 9970   0.302   4.207   9.721  0.0528 -0.2534  0.1600
 5771W        W 9971   7.987   1.125  12.168  0.2457  0.4489 -0.1500
 5772W        W 9972   3.552   1.886   9.793 -0.1300  0.0654  0.0283
 5773W        W 9973   2.018   7.830   9.098 -0.1172 -0.2595 -0.0123
 5774W        W 9974   1.476   8.691  10.993 -0.0002 -0.3289 -0.0565
 5775W        W 9975   9.074   5.965   2.908  0.2673  0.1564  0.1856
 5776W        W 9976   9.636   0.106  10.053  0.0878  0.2556 -0.1901
 5777W        W 9977   4.717   1.691   2.262 -0.3673  0.0116  0.0152
 5778W        W 9978   2.941   1.153   3.968 -0.1411  0.1316  0.1404
 5779W        W 9979   3.610   2.689  12.429  0.1628 -0.3430  0.3807
 5780W        W 9980   4.044   6.426  11.061 -0.3104  0.1058  0.1181
 5781W        W 9981   5.488   4.130   3.169  0.1442 -0.0051  0.2413
 5782W        W 9982   3.152   2.792   4.023 -0.4027  0.0491  0.1143
 5783W        W 9983   2.178   4.757   0.708  0.3170  0.0785 -0.2036
 5784W        W 9984   9.239   2.277   2.398  0.0237  0.2256  0.0087
 5785W        W 9985   4.953   4.659  12.377  0.1946  0.0647 -0.1117
 5786W        W 9986   5.786   4.909  10.983  0.0142 -0.0529  0.2585
 5787W        W 9987   9.278   8.883  11.317  0.0755 -0.1506 -0.0340
 5788W        W 9988   5.104   5.242   9.518 -0.1298  0.1391 -0.0577
 5789W        W 9989   9.282   6.677   1.722  0.1086 -0.0683 -0.0908
 5790W        W 9990   6.115   4.249   1.665  0.2113  0.0743 -0.0656
 5791W        W 9991   2.543   1.511  11.382 -0.0650  0.0257 -0.0276
 5792W        W 9992   9.351   2.175  11.623 -0.0539 -0.0587 -0.0786
 5793W        W 9993   8.131   1.374   4.171  0.1839 -0.1010  0.2145
 5794W        W 9994   5.644   8.488  10.119  0.0522 -0.2400 -0.0919
 5795W        W 9995   7.312   5.770  13.222 -0.1473 -0.2518 -0.1871
 5796W        W 9996   8.165  10.064  10.836 -0.2420 -0.1251  0.1028
 5797W        W 9997   8.989   6.088   4.173 -0.1787 -0.2291  0.3239
 5798W        W 9998   0.641   5.937   2.551  0.0293 -0.0660 -0.1886
 5799W        W 9999   4.184   4.933   3.335 -0.4077 -0.1164  0.1477
 5800W        W10000   3.021   0.079   3.052 -0.1483  0.1569  0.4163
 5801W        W10001   7.337   0.023   0.322 -0.0254 -0.1213  0.4008
 5802W        W10002   1.707   5.679   1.096 -0.1284 -0.0443 -0.1398
 5803W        W10003   9.877   2.303  11.259  0.4000 -0.1942 -0.0040
 5804W        W10004   3.720   8.210  10.789  0.0083  0.0862  0.0177
 5805W        W10005   2.263   4.012  12.488 -0.0129 -0.1213 -0.0080
 5806W        W10006   4.916   9.231   1.812 -0.0263 -0.2565  0.1230
 5807W        W10007   8.699   7.027   5.279  0.1606  0.1925 -0.0985
 5808W        W10008   7.005   7.322   2.284  0.0608 -0.5210  0.0678
 5809W        W10009   7.187   7.979   0.932  0.1490  0.0975  0.0168
 5810W        W10010   1.786   7.193   9.727 -0.0530 -0.1707 -0.1278
 5811W        W10011   6.982   0.712   0.495 -0.3456 -0.3570  0.1743
 5812W        W10012  10.422   0.347  11.473  0.1871  0.3261 -0.0691
 5813W        W10013   6.974  10.036   2.100  0.2551 -0.3367 -0.0042
 5814W        W10014   0.929   6.230   1.063  0.0411 -0.0214  0.0865
 5815W        W10015   8.277   8.173   1.788  0.1110 -0.0280  0.1005
 5816W        W10016   3.927   1.549   4.775  0.1694  0.4471  0.0455
 5817W        W10017   9.536   1.780  11.990  0.1627 -0.1615  0.2124
 5818W        W10018   7.249   3.703  10.037 -0.1070 -0.1239 -0.0465
 5819W        W10019   4.563   3.384  12.368 -0.0733 -0.0906 -0.1482
 5820W        W10020   5.853   0.505  10.814  0.3286 -0.0026 -0.1391
 5821W        W10021   6.685   2.621   4.708 -0.0395 -0.1592  0.1975
 5822W        W10022   0.578   3.491   2.496  0.4160 -0.2198  0.1390
 5823W        W10023   5.156   5.906   1.719 -0.1121  0.0482  0.1034
 5824W        W10024   9.252   6.781   2.779 -0.2928 -0.0750  0.2129
 5825W        W10025   6.685   0.863  12.558  0.0594 -0.2051  0.2365
 5826W        W10026   2.059   3.825   0.432 -0.0267  0.0541 -0.1958
 5827W        W10027   9.142   9.315  11.463  0.4559 -0.2971 -0.3555
 5828W        W10028   2.906   9.038  11.581  0.0482 -0.2273  0.0522
 5829W        W10029   1.367   8.234   1.859  0.3280 -0.1977  0.2976
 5830W        W10030   8.078   6.956   1.682  0.4294  0.0016  0.0738
 5831W        W10031   8.403   7.580   3.504 -0.1090 -0.1943  0.5229
 5832W        W10032   2.859   6.143   3.026 -0.3438 -0.0037 -0.2711
 5833W        W10033   9.270  10.194   0.623  0.0298  0.1510 -0.3059
 5834W        W10034   8.736   2.243   0.026 -0.4134  0.1678 -0.0527
 5835W        W10035   4.665   7.863   2.802 -0.1120  0.0302  0.2338
 5836W        W10036   3.238   1.067  10.870 -0.0298  0.1188  0.0128
 5837W        W10037   1.425   1.872  11.860 -0.0167 -0.1757  0.4814
 5838W        W10038   7.353   7.880   2.765  0.0680 -0.0035 -0.1098
 5839W        W10039   2.566   7.251   3.991  0.1109 -0.3346  0.0079
 5840W        W10040   6.477   6.191  10.964 -0.2030  0.1101  0.1403
 5841W        W10041   4.566   2.313   3.304  0.2555  0.0041  0.0721
 5842W        W10042   4.334  10.097   2.478 -0.0305  0.2445 -0.1601
 5843W        W10043   9.276   9.131   1.879  0.0317 -0.3299 -0.1352
 5844W        W10044   4.728   3.514   3.536 -0.2499 -0.2066 -0.1401
 5845W        W10045   4.946   0.852   9.181 -0.1005 -0.0339  0.0381
 5846W        W10046   8.060   3.933   9.387 -0.1608  0.2156 -0.1144
 5847W        W10047   7.643   4.713   0.900  0.1761 -0.0584 -0.2411
 5848W        W10048   4.103   3.568   3.483  0.1322 -0.1476 -0.2538
 5849W        W10049   5.180   7.004  12.040  0.1105  0.0583  0.1514
 5850W        W10050  10.347   1.190   4.264 -0.0460  0.3056 -0.0517
 5851W        W10051   6.384   4.004  10.016  0.2058 -0.2219 -0.2169
 5852W        W10052   6.976   2.258  13.337  0.0252  0.0850 -0.0348
 5853W        W10053   1.782   6.790  11.655  0.2020 -0.0745 -0.1104
 5854W        W10054   6.248   5.340   9.300  0.0248  0.0033 -0.1402
 5855W        W10055   9.612   6.913  12.405  0.3635 -0.4108 -0.2834
 5856W        W10056   9.372   0.253   0.499  0.2301  0.0588  0.0058
 5857W        W10057   5.980   9.612  12.053  0.2353 -0.0864 -0.1926
 5858W        W10058  10.165   3.474   9.416  0.1870 -0.0356 -0.1485
 5859W        W10059   4.041   5.508  10.607 -0.1005  0.1501 -0.0231
 5860W        W10060   9.561   7.259   2.953  0.0026 -0.0810 -0.1945
 5861W        W10061   9.943   0.768  12.177  0.0673  0.2158  0.2221
 5862W        W10062   6.708   4.558   2.871  0.0061  0.0144  0.1187
 5863W        W10063   3.645   3.593  12.953 -0.1446 -0.3236  0.5344
 5864W        W10064   5.530   2.108  11.765  0.1278 -0.3495  0.1533
 5865W        W10065   1.851   3.701   1.724  0.1610  0.1664  0.1891
 5866W        W10066   4.232   7.177   9.337  0.1184  0.1304 -0.0697
 5867W        W10067  10.486   7.011  10.253  0.1091 -0.0289  0.0307
 5868W        W10068   3.407   3.605   1.241  0.1104  0.0784  0.0542
 5869W        W10069   0.440   8.833   5.414  0.0511 -0.0825  0.0734
 5870W        W10070   8.122   2.564  12.842  0.1981  0.1650 -0.0084
 5871W        W10071   9.545   2.537   1.550 -0.1044  0.0815 -0.0285
 5872W        W10072   6.389   7.151  11.777  0.3756  0.0257  0.2937
 5873W        W10073   5.917   8.640  10.957  0.2777 -0.0392  0.2353
 5874W        W10074   8.137   5.347   3.276  0.1394 -0.2715  0.0132
 5875W        W10075   5.020   5.168  12.231  0.2419 -0.2656 -0.1575
 5876W        W10076   3.688   6.380   3.007  0.0798 -0.0432  0.1498
 5877W        W10077   3.019   1.371   2.651 -0.0529 -0.0609  0.0216
 5878W        W10078   0.989   4.565   0.065 -0.1237 -0.4249  0.0519
 5879W        W10079   3.262   1.229   3.570 -0.0747  0.3422 -0.0144
 5880W        W10080   0.798   9.329   2.136  0.1298  0.0102  0.1767
 5881W        W10081   4.861   2.686   2.390 -0.0387  0.0704 -0.0252
 5882W        W10082   5.196   2.904   2.681  0.0761  0.1098 -0.1997
 5883W        W10083   3.875   0.647  11.472 -0.2174  0.1918  0.3148
 5884W        W10084   8.637   0.474  11.195 -0.0209 -0.0218 -0.1539
 5885W        W10085   9.905   6.542  12.318  0.1532  0.0057  0.3077
 5886W        W10086   0.297   7.122   3.528 -0.1089 -0.2920 -0.4398
 5887W        W10087   3.904   5.955   2.941 -0.1722 -0.0085 -0.1721
 5888W        W10088   8.012   4.423  10.081 -0.1145 -0.0111 -0.0007
 5889W        W10089   0.019   4.084   5.063 -0.1791 -0.3397  0.1683
 5890W        W10090   6.614   1.238   2.563 -0.1351 -0.2373 -0.1355
 5891W        W10091   2.038   5.221   0.681  0.2801  0.0862 -0.0830
 5892W        W10092   6.544   1.895   3.528 -0.0391  0.2526  0.0667
 5893W        W10093   6.861   7.176   9.509 -0.1004 -0.0538  0.1119
 5894W        W10094   1.440   8.365   4.604 -0.1335 -0.0780 -0.1450
 5895W        W10095   9.625   2.965  13.351 -0.0054  0.1882  0.0056
 5896W        W10096   9.902   4.873   2.399  0.1688  0.0554  0.3184
 5897W        W10097   9.461   3.117   3.301  0.1935  0.2200 -0.2348
 5898W        W10098   0.224   1.839   0.578 -0.1902  0.1581  0.2770
 5899W        W10099   6.925   5.473  13.263 -0.2827 -0.1948 -0.2219
 5900W        W10100   2.542   5.235  12.944 -0.0635 -0.0719 -0.0467
 5901W        W10101   8.017   9.100   3.759  0.1945  0.1965 -0.0808
 5902W        W10102   9.777  10.409   1.450  0.2301 -0.2017 -0.1343
 5903W        W10103   4.090   5.298   1.611  0.3165  0.2273 -0.1729
 5904W        W10104   5.261   6.806   2.785 -0.0908  0.3582  0.1564
 5905W        W10105   0.843   4.473   9.686  0.1635  0.1555 -0.2128
 5906W        W10106   9.173   7.201  10.535  0.1611  0.3968  0.3018
 5907W        W10107   4.970   3.717   0.414  0.0732  0.1381  0.0244
 5908W        W10108   8.566   6.677  10.010  0.0972  0.1588  0.0118
 5909W        W10109   1.212   6.006  13.207  0.2740  0.2080 -0.0537
 5910W        W10110   7.167  10.195   9.405 -0.0669  0.0326 -0.2309
 5911W        W10111   5.893   5.490   3.838  0.0033  0.1203  0.2247
 5912W        W10112   3.115   4.281  11.439 -0.2128 -0.1341  0.0080
 5913W        W10113   2.767   6.136   9.803  0.0220 -0.5730 -0.0494
 5914W        W10114   8.783   6.624   1.737  0.0858  0.0690  0.3507
 5915W        W10115   6.519   8.021   3.899 -0.0731  0.1097  0.1510
 5916W        W10116   7.859   7.624  12.408 -0.0174  0.0501 -0.1670
 5917W        W10117   6.395   1.789   9.946 -0.2015  0.0648  0.1016
 5918W        W10118   9.268   3.684   9.438 -0.0736 -0.2180 -0.1331
 5919W        W10119   6.278   9.799  10.427 -0.1061  0.2471 -0.2064
 5920W        W10120   5.546   6.345   0.128 -0.0264 -0.1085  0.1587
 5921W        W10121   0.864   0.754   0.958  0.0103  0.2926  0.0154
 5922W        W10122   4.093   1.088  10.163 -0.2854  0.1217  0.3839
 5923W        W10123   9.052   3.903  13.250 -0.0555 -0.1748 -0.2226
 5924W        W10124   3.836   7.339   2.053  0.1050 -0.0882 -0.0530
 5925W        W10125   6.778   1.248   5.207 -0.0485  0.0448 -0.0284
 5926W        W10126   8.091   2.968   2.514 -0.0450  0.0816 -0.0155
 5927W        W10127   1.494   8.959  12.719 -0.1316  0.0281  0.0892
 5928W        W10128   1.915   0.004   1.624  0.0363  0.2241 -0.2536
 5929W        W10129   1.417   0.884   2.788  0.0154  0.0912  0.1868
 5930W        W10130   1.728   7.287   9.088 -0.2149  0.0209 -0.2942
 5931W        W10131  10.395   4.243  10.743  0.0275  0.1841 -0.0109
 5932W        W10132   5.327   5.043  11.719 -0.1141  0.1154 -0.2192
 5933W        W10133   3.552   8.264   0.779 -0.0555 -0.1738 -0.1019
 5934W        W10134   3.693   2.262  12.196  0.1759  0.1749  0.0507
 5935W        W10135   3.910   7.473   2.776  0.0127  0.1569  0.0303
 5936W        W10136   7.851   1.520  11.823 -0.0034  0.0383  0.1337
 5937W        W10137   0.180   8.287   4.119  0.0836 -0.0401  0.1135
 5938W        W10138   5.255   4.619  12.755 -0.0297  0.1112  0.1075
 5939W        W10139   8.781   7.821   0.024  0.1685 -0.0430  0.1241
 5940W        W10140   4.060   8.854   1.844  0.2836 -0.0345  0.0363
 5941W        W10141   3.428   9.058  11.920 -0.0542  0.2699  0.4093
 5942W        W10142   5.280   9.930   2.206  0.2531 -0.1765  0.0588
 5943W        W10143   0.341   3.270   5.173 -0.2467 -0.1490 -0.0502
 5944W        W10144   8.451   8.988  10.950 -0.1170  0.1782  0.3615
 5945W        W10145   6.832   4.634  12.548 -0.0720 -0.1434 -0.1833
 5946W        W10146   1.823   1.259   2.777 -0.0120  0.1182  0.2917
 5947W        W10147   7.834   4.942  10.076  0.1658 -0.1772 -0.0014
 5948W        W10148   8.896   7.682   0.509 -0.3550 -0.1678 -0.2999
 5949W        W10149   5.847   5.729   2.522  0.1496  0.2747 -0.0373
 5950W        W10150   5.027   8.644  11.391  0.1824  0.2065 -0.0624
 5951W        W10151   4.150   8.918   0.965 -0.0669 -0.0230  0.0137
 5952W        W10152   9.508  10.023   2.751  0.0940  0.2754 -0.0362
 5953W        W10153   0.296   2.850   9.893  0.2956  0.0922 -0.2642
 5954W        W10154   0.018   5.635   4.541  0.2468 -0.0667 -0.3660
 5955W        W10155   4.707   5.093   9.205  0.3837 -0.1899  0.0644
 5956W        W10156   6.917   6.980   4.406 -0.0972  0.0299  0.2012
 5957W        W10157   1.489   8.714  10.360 -0.1580  0.3751 -0.0204
 5958W        W10158   4.609   7.881   3.331 -0.0932  0.0913  0.0262
 5959W        W10159   1.354   5.285  10.748 -0.1628 -0.0385 -0.2693
 5960W        W10160   4.183   0.829  10.995 -0.0191 -0.1447  0.0429
 5961W        W10161   7.775   2.631  10.848 -0.1567 -0.1165 -0.0137
 5962W        W10162  10.005   3.257   1.761  0.1584 -0.0437  0.1657
 5963W        W10163   8.969   6.929  11.808 -0.1958 -0.1299  0.0211
 5964W        W10164   2.953   5.676   2.759  0.2661 -0.0350  0.2499
 5965W        W10165   3.328   8.979  11.373 -0.1413  0.1989  0.1404
 5966W        W10166   9.348   0.598   8.866  0.0320 -0.0122  0.0716
 5967W        W10167   0.865   2.835  13.077 -0.0832  0.2237  0.0103
 5968W        W10168   2.441   8.746   1.748 -0.0871 -0.0320  0.1379
 5969W        W10169   6.627   8.356   2.185  0.0717 -0.3036  0.4121
 5970W        W10170   4.522   9.247   0.952  0.0985  0.1209  0.2245
 5971W        W10171   1.384   0.052   1.433  0.0051 -0.2597 -0.0188
 5972W        W10172   8.615   4.795   2.693  0.0068  0.2158 -0.0413
 5973W        W10173   0.823   8.560   1.248 -0.2970 -0.0074  0.3206
 5974W        W10174   8.587   7.104  10.411 -0.0147  0.0085 -0.1571
 5975W        W10175   5.577   6.909  12.973 -0.0123 -0.0170  0.3945
 5976W        W10176   4.063   3.238  13.123  0.3734  0.0137 -0.0177
 5977W        W10177   9.442   3.087   4.730  0.1259  0.2046  0.0844
 5978W        W10178   2.194   3.275   1.677  0.2652 -0.0310  0.2960
 5979W        W10179   0.842   7.483   9.718 -0.2865  0.2065  0.0461
 5980W        W10180   7.376   4.339   1.574 -0.0322 -0.0722 -0.2748
 5981W        W10181   9.469   6.174   4.392  0.0532 -0.1035  0.1117
 5982W        W10182   6.678   2.754   0.950 -0.0082  0.1174  0.4027
 5983W        W10183   5.467   3.023   0.049  0.3009 -0.2032  0.0227
 5984W        W10184   3.951   3.807   9.926 -0.0679  0.1373  0.1067
 5985W        W10185   5.771   0.498  12.775  0.3076 -0.0549  0.2771
 5986W        W10186   4.351   1.957   9.280  0.0561  0.0118 -0.1732
 5987W        W10187   8.683   7.234   1.064  0.4042 -0.2739  0.1128
 5988W        W10188   3.731   4.154   3.126  0.1391 -0.1768 -0.3058
 5989W        W10189   8.886   1.586   9.037  0.2319  0.0122  0.0797
 5990W        W10190   4.681   1.148   9.561 -0.2354 -0.1932  0.2727
 5991W        W10191   3.901   3.435   0.270  0.0101  0.1908  0.0637
 5992W        W10192   3.974   3.148  12.552 -0.2073  0.1186  0.0859
 5993W        W10193   5.821   4.530   4.380 -0.1359 -0.2138  0.3023
 5994W        W10194   4.037   0.225  11.224 -0.2453  0.1491 -0.2237
 5995W        W10195   2.247   6.688  10.685 -0.0476 -0.0842 -0.1495
 5996W        W10196   6.036   6.642   9.271 -0.0682  0.0282 -0.1876
 5997W        W10197   1.486   9.561   2.819 -0.0725 -0.0599 -0.2163
 5998W        W10198   9.316   5.792   3.931  0.0895  0.5663 -0.0826
 5999W        W10199   0.338   2.310   0.361 -0.0861  0.2732  0.3095
 6000W        W10200   7.399   4.870  10.998 -0.0029 -0.2770  0.1920
 6001W        W10201   5.690   0.830   1.859  0.0450 -0.2264  0.0162
 6002W        W10202  10.007   4.495  12.522 -0.0216 -0.0335  0.2202
 6003W        W10203   9.893   1.801   3.755  0.0128 -0.3954 -0.1975
 6004W        W10204   1.969   0.365   4.536  0.1543 -0.1359  0.0131
 6005W        W10205   3.980   2.783  13.360  0.1427  0.0418  0.1197
 6006W        W10206   0.337   2.828   1.818  0.0008  0.0566 -0.0552
 6007W        W10207   5.611   0.611   3.809 -0.0964  0.0267 -0.5453
 6008W        W10208   8.851   4.024   2.669  0.1636  0.2062 -0.3746
 6009W        W10209   9.635   3.443   9.697  0.0325 -0.3093  0.1920
 6010W        W10210   9.014   9.481   4.389 -0.0485  0.0869 -0.0869
 6011W        W10211   3.960   0.238   9.004  0.0026  0.3648  0.1003
 6012W        W10212   6.361   2.701  13.158  0.0507  0.2434 -0.1000
 6013W        W10213   8.911  10.243   1.829  0.1006  0.1259 -0.2358
 6014W        W10214   7.164   2.326   4.207  0.1330  0.2738 -0.0206
 6015W        W10215   8.935   2.543  11.754  0.2751 -0.0932 -0.2328
 6016W        W10216   1.108   8.815   0.470 -0.0343 -0.1265  0.2042
 6017W        W10217   7.552   5.345  10.760  0.0848  0.0487  0.1510
 6018W        W10218   2.490   4.954   3.270 -0.0631 -0.0667 -0.0631
 6019W        W10219   3.118   0.917   2.537 -0.0128  0.3000  0.0203
 6020W        W10220   7.411   9.876   1.114 -0.0811 -0.1502 -0.3103
 6021W        W10221   8.789   9.085   5.183 -0.0345  0.0498  0.0974
 6022W        W10222   0.819   0.201   3.844 -0.2594  0.0573 -0.0070
 6023W        W10223   8.552   4.027  13.008 -0.3961 -0.2090 -0.0442
 6024W        W10224   3.321   2.654   0.945  0.1985  0.0493  0.2195
 6025W        W10225   0.224   9.822  12.788 -0.1125 -0.1746 -0.3796
 6026W        W10226   9.944   8.905   9.911  0.1253 -0.2594 -0.0979
 6027W        W10227   8.359   0.302   3.620 -0.0691  0.0755 -0.3839
 6028W        W10228   5.257   2.126   3.818 -0.0684  0.0349  0.0972
 6029W        W10229   3.024   3.693  12.305 -0.1141  0.1046 -0.0815
 6030W        W10230   8.672   0.191   4.759 -0.0515 -0.1119  0.1800
 6031W        W10231   1.991   3.156   8.604 -0.0460  0.1200 -0.0301
 6032W        W10232   3.673   8.271   0.298  0.1396  0.1808  0.3221
 6033W        W10233   0.034   1.825  10.597  0.0877  0.0039 -0.1989
 6034W        W10234   3.118   7.235   0.901 -0.0418 -0.0466  0.0347
 6035W        W10235   7.960   1.627  10.817  0.1615  0.0631 -0.2491
 6036W        W10236   7.743   5.181   0.149 -0.2543 -0.1347  0.0738
 6037W        W10237   6.213   2.155   1.570  0.0594 -0.1568  0.1559
 6038W        W10238   2.538   7.785   1.828 -0.0700  0.1200  0.0958
 6039W        W10239   4.285   2.805   3.017 -0.1896  0.3774  0.2251
 6040W        W10240   1.473   9.751   9.764 -0.1173 -0.0061  0.0880
 6041W        W10241   6.111   0.378   2.710 -0.1883  0.0687 -0.0330
 6042W        W10242   6.770   8.579  10.290 -0.0380 -0.1300 -0.1687
 6043W        W10243   6.902   3.494   0.583 -0.0995  0.0445 -0.1154
 6044W        W10244   1.829   9.007  12.355  0.0483  0.0298  0.0461
 6045W        W10245  10.364   4.613   1.556  0.0995  0.0192  0.0913
 6046W        W10246   9.444   9.782  11.356 -0.0524 -0.0696 -0.2277
 6047W        W10247  10.453   4.062  12.676  0.0987  0.4591  0.3091
 6048W        W10248   7.553   9.242  13.060  0.0068  0.0672  0.1322
 6049W        W10249  10.093   5.392  13.372 -0.2290  0.0884  0.0189
 6050W        W10250   1.456   5.725   3.122  0.0674 -0.0695 -0.2075
 6051W        W10251   6.274  10.397   3.074  0.0030 -0.5087 -0.0225
 6052W        W10252   1.557   0.050  10.644  0.0930 -0.4266 -0.1397
 6053W        W10253   9.836  10.486   4.383  0.0680  0.0285  0.2674
 6054W        W10254   9.713   4.681   0.844  0.0187 -0.1373  0.1277
 6055W        W10255   9.621   3.527  12.454 -0.0545 -0.1531 -0.1588
 6056W        W10256   3.269   7.638  10.241 -0.0426 -0.2683  0.1273
 6057W        W10257   2.689   2.412   3.186 -0.4170 -0.1555  0.1580
 6058W        W10258   5.802   2.730   0.952  0.0554  0.1618 -0.1159
 6059W        W10259   9.494   1.003  12.319  0.2984  0.3989  0.1447
 6060W        W10260   7.270   5.541   9.078 -0.2221 -0.1289 -0.1527
 6061W        W10261   8.590   0.969  13.252 -0.3310 -0.1921 -0.1633
 6062W        W10262   5.222   2.595  13.328  0.2703  0.3219 -0.0227
 6063W        W10263   7.447   7.604  12.833 -0.1865  0.1627  0.1912
 6064W        W10264   0.669   0.893   0.502  0.0403  0.0563 -0.0874
 6065W        W10265   2.886   8.099   4.369  0.3792  0.1888  0.1386
 6066W        W10266   1.061   0.053  12.642  0.2307  0.0577  0.0646
 6067W        W10267   6.813   2.064  11.069  0.0778 -0.0916 -0.0275
 6068W        W10268   4.741   1.278   4.233 -0.0115 -0.0315 -0.1477
 6069W        W10269   8.444   3.654   0.604 -0.1174 -0.2763  0.1669
 6070W        W10270   8.696   8.108  12.548 -0.0318 -0.0373  0.1836
 6071W        W10271   1.933   4.524  10.915 -0.0225  0.0616  0.0362
 6072W        W10272  10.169   3.719   8.976 -0.0726  0.0060  0.3083
 6073W        W10273   1.366   5.888  10.106 -0.4529  0.0496 -0.0645
 6074W        W10274   6.773   0.220   3.297 -0.4056 -0.2260  0.3093
 6075W        W10275  10.395   5.744   0.797  0.0900 -0.2616 -0.1090
 6076W        W10276   7.972   5.511   0.944  0.0225 -0.2323 -0.4393
 6077W        W10277  10.233   0.880   2.570  0.0652  0.1695 -0.0109
 6078W        W10278   0.008   7.776   1.358  0.2379  0.2239  0.0299
 6079W        W10279   3.577   3.520   0.724 -0.1781  0.0728  0.0241
 6080W        W10280   5.399   4.323  10.756  0.2800 -0.0258  0.0788
 6081W        W10281   2.891   7.693   4.033 -0.1394 -0.2495  0.0670
 6082W        W10282   7.003   0.358   9.951 -0.2340 -0.1176 -0.0316
 6083W        W10283   1.668   5.477  10.359  0.2713  0.0570 -0.2968
 6084W        W10284   8.215   3.974   1.493  0.2665 -0.2855  0.1578
 6085W        W10285   0.351   2.474   2.749  0.1960  0.0598 -0.3110
 6086W        W10286   7.647   4.921   2.522 -0.0701  0.0840 -0.1489
 6087W        W10287   5.730   4.021   1.443 -0.2351 -0.2643 -0.1571
 6088W        W10288   5.653   0.368  10.224  0.1846  0.1139 -0.1580
 6089W        W10289   2.466   4.169   9.380  0.3581  0.2072 -0.3866
 6090W        W10290   0.132   1.332  13.158  0.1212  0.0378 -0.2580
 6091W        W10291   6.379   3.609   2.790  0.0775  0.1357  0.0095
 6092W        W10292   0.208   9.398   2.271  0.1162  0.0921  0.4224
 6093W        W10293  10.070   2.668  11.750 -0.2061 -0.0493 -0.1763
 6094W        W10294   6.065   1.659   3.661 -0.0136 -0.1456 -0.1867
 6095W        W10295   3.888   1.962   4.511 -0.0678 -0.2647  0.0735
 6096W        W10296  10.370   7.965   8.710 -0.1815 -0.3571 -0.0622
 6097W        W10297   8.014   9.532  12.881 -0.0583 -0.1239  0.0606
 6098W        W10298   0.855   9.171  12.296  0.1165 -0.0618  0.1942
 6099W        W10299   2.355   7.654  12.570  0.1650  0.5550 -0.1096
 6100W        W10300   6.983   8.171  10.544  0.3192  0.3741  0.6003
 6101W        W10301   2.049   8.169   4.263  0.1504  0.2652  0.0357
 6102W        W10302   5.623   3.402  12.274  0.1775  0.2446  0.0513
 6103W        W10303   7.373   4.331  11.042 -0.0035 -0.2012 -0.0584
 6104W        W10304   0.537  10.365   9.366 -0.2451  0.3495 -0.5011
 6105W        W10305   9.908   4.637   3.904 -0.0480 -0.3018  0.1499
 6106W        W10306   4.717   0.668   1.184  0.0157  0.1000  0.0422
 6107W        W10307   9.687   1.494   8.895 -0.1827  0.0556  0.5600
 6108W        W10308   2.887   6.090   2.432 -0.0477 -0.0784  0.0027
 6109W        W10309   6.927   1.091   3.785  0.1165  0.4516 -0.1343
 6110W        W10310   0.294   9.367   8.641  0.3465 -0.1404 -0.1908
 6111W        W10311   4.259   1.125   4.000 -0.3143  0.0049 -0.3104
 6112W        W10312   4.425   3.562  11.471 -0.1862 -0.0468  0.2030
 6113W        W10313   3.734   4.521   3.930  0.1715 -0.0466  0.0291
 6114W        W10314   4.695   7.154   3.698 -0.0398  0.1723 -0.0341
 6115W        W10315   4.238   9.339   1.887  0.2252 -0.2308  0.2631
 6116W        W10316   8.357   9.564   2.226 -0.0166  0.4001 -0.0417
 6117W        W10317   5.782   9.789  11.224 -0.0667 -0.0711  0.2275
 6118W        W10318   2.029   1.901  13.301  0.1660  0.3696  0.0851
 6119W        W10319   2.506   6.488   0.480  0.0135 -0.1347  0.0859
 6120W        W10320   1.547   8.658   9.512  0.3356 -0.0299  0.0027
 6121W        W10321  10.416   7.681  12.158 -0.2091 -0.0643 -0.1178
 6122W        W10322   3.392   5.220  11.875 -0.0601 -0.0860 -0.1639
 6123W        W10323   6.292   9.972  10.955 -0.1692  0.0587 -0.0551
 6124W        W10324   2.662   4.758   0.612 -0.1000 -0.3103  0.1452
 6125W        W10325   9.314   3.200  13.019  0.2430 -0.1412  0.2048
 6126W        W10326   0.545   0.458   2.676 -0.0000  0.3200 -0.2487
 6127W        W10327   9.471   9.224   1.444 -0.3071 -0.0052  0.3008
 6128W        W10328   0.288   5.935   0.406 -0.2856  0.1067 -0.0594
 6129W        W10329   4.474   5.669   0.938  0.2242  0.0425 -0.1200
 6130W        W10330   1.549   4.301   4.978 -0.0323  0.0464  0.0890
 6131W        W10331   1.701   2.879  10.903  0.0120  0.2513  0.2071
 6132W        W10332   2.149   0.254   9.829 -0.0184  0.0541 -0.2402
 6133W        W10333   2.453   6.019   0.697  0.1389 -0.1270  0.2651
 6134W        W10334   2.115   7.576   3.308  0.2692 -0.0074 -0.0563
 6135W        W10335   2.349   3.781   2.959  0.0549 -0.3447 -0.0548
 6136W        W10336   6.872   6.011   2.248  0.0151 -0.0446 -0.0582
 6137W        W10337   2.986   5.060   4.069 -0.0199  0.1922  0.1308
 6138W        W10338   3.135   8.874  10.897 -0.0791 -0.2225  0.1594
 6139W        W10339   7.310   4.216  11.517 -0.1604  0.0671 -0.1709
 6140W        W10340   8.906   8.167   0.884 -0.0324  0.3442  0.0785
 6141W        W10341   7.045   8.383   3.088  0.0619 -0.1376  0.1818
 6142W        W10342   5.666   9.647   0.486  0.4820  0.1350 -0.1002
 6143W        W10343   6.011   5.750  12.177  0.0535 -0.3082  0.1423
 6144W        W10344   6.986   6.880   2.068  0.0846  0.0109 -0.1837
 6145W        W10345   5.955   4.125  12.833  0.0117 -0.1521  0.1742
 6146W        W10346   5.057   0.905   2.497  0.2092 -0.0559  0.1002
 6147W        W10347   4.737   3.028   1.958  0.1034  0.0262 -0.0828
 6148W        W10348   2.682   9.075  13.096 -0.0197  0.0519  0.0765
 6149W        W10349   4.340   5.708  11.205 -0.1707 -0.3190 -0.1713
 6150W        W10350   1.396   2.763   5.344  0.5106  0.1888  0.1848
 6151W        W10351   8.698   6.167   4.716  0.2625 -0.3708 -0.1413
 6152W        W10352   9.829   7.278  12.713  0.1805  0.4022  0.0567
 6153W        W10353   1.524   2.782   9.817  0.2347  0.0332 -0.2626
 6154W        W10354   4.934   8.819   2.955  0.3007  0.0553  0.0408
 6155W        W10355   6.243   4.509   9.339  0.4081 -0.1347  0.2659
 6156W        W10356   4.453   9.478  13.279 -0.0023 -0.1107  0.2017
 6157W        W10357   0.537   4.560  12.549  0.1185  0.0775  0.2300
 6158W        W10358   2.932   4.895   1.687 -0.1051  0.1598 -0.2579
 6159W        W10359   5.342   2.896   8.991 -0.0010  0.0793  0.0543
 6160W        W10360   0.594   1.231   4.250  0.0015 -0.1102 -0.2537
 6161W        W10361   4.791   9.312  12.622 -0.1182  0.2560  0.0168
 6162W        W10362   9.939   8.139  10.565 -0.0134  0.0649 -0.2094
 6163W        W10363   8.745   3.674  12.397 -0.0026 -0.1539 -0.2016
 6164W        W10364   3.166   3.291   8.486 -0.2754 -0.1148  0.2282
 6165W        W10365   3.811   7.596  12.620 -0.0612  0.0286  0.3015
 6166W        W10366   8.471   8.986   3.435 -0.2584  0.1145 -0.1154
 6167W        W10367   6.177   1.648   0.080 -0.3387 -0.0543 -0.0766
 6168W        W10368   0.039   2.715   0.549 -0.1560  0.1900 -0.1679
 6169W        W10369   8.151   1.334  11.160 -0.0791  0.1612 -0.0330
 6170W        W10370   7.893  10.498   1.633  0.2276  0.0646  0.5096
 6171W        W10371   1.064   9.865   0.494  0.1233 -0.5025  0.2612
 6172W        W10372   3.562   6.814  11.542  0.2929 -0.1253  0.0026
 6173W        W10373   9.609   0.962  11.435 -0.0589 -0.2711 -0.0747
 6174W        W10374   4.584   4.187  12.115  0.1327 -0.1169 -0.4325
 6175W        W10375   5.082   4.367   9.044  0.0013  0.2524  0.0426
 6176W        W10376   4.995  10.373   2.809  0.0065  0.1098 -0.2734
 6177W        W10377   2.344  10.277  10.846  0.2496 -0.0304  0.1370
 6178W        W10378   9.471   6.668  11.904 -0.1086  0.0187 -0.3658
 6179W        W10379   9.489   8.356  10.439  0.0251 -0.0049 -0.0592
 6180W        W10380   2.890   7.200  10.483  0.0042  0.2975  0.1859
 6181W        W10381   7.671   4.115   2.958  0.1928  0.0850 -0.0805
 6182W        W10382   6.670   6.815   1.574  0.0867  0.0811 -0.0402
 6183W        W10383   8.750  10.287   0.612  0.2058  0.1667  0.2285
 6184W        W10384  10.336   4.806   8.830  0.2766 -0.0632  0.0429
 6185W        W10385   5.241   7.815   1.739  0.0712 -0.1013 -0.2287
 6186W        W10386   4.684   2.371   1.502  0.0583  0.0860 -0.0964
 6187W        W10387   2.987   4.561   4.144 -0.0803  0.0417  0.1108
 6188W        W10388   6.637   2.128   9.244 -0.1436  0.1641  0.0074
 6189W        W10389   0.735   8.983  13.190  0.1391 -0.0122  0.0003
 6190W        W10390  10.272   0.299  11.956  0.2129 -0.1563  0.0586
 6191W        W10391   1.555   6.386  11.264 -0.1075  0.2731  0.3255
 6192W        W10392   8.055   4.496  12.980 -0.0486  0.0838 -0.0690
 6193W        W10393   2.030   8.885  11.028  0.0576 -0.0334  0.1617
 6194W        W10394   9.043   0.586   0.800 -0.3169  0.1088 -0.1735
 6195W        W10395   6.108   6.261  11.940  0.1816 -0.3150  0.1534
 6196W        W10396   2.532   5.701   4.169 -0.1455  0.2477 -0.0019
 6197W        W10397   3.153   6.159   2.010  0.3584 -0.1104  0.2932
 6198W        W10398   1.875   6.280  11.658  0.0820  0.4052  0.1071
 6199W        W10399   2.705   8.716   0.042 -0.0468  0.0999 -0.4129
 6200W        W10400   4.178   8.831   3.494  0.2324 -0.1174  0.0462
 6201W        W10401   6.486   5.652   0.096 -0.0374  0.1048 -0.0027
 6202W        W10402   4.212   9.302  10.946 -0.1227 -0.2127  0.1018
 6203W        W10403   8.140   7.895  10.630 -0.0930 -0.1655 -0.2697
 6204W        W10404   5.251   7.415  12.320 -0.3291  0.4199 -0.2560
 6205W        W10405   9.762   1.821   9.314  0.0218 -0.1645 -0.1561
 6206W        W10406   6.332   8.985   1.495  0.2053 -0.0437  0.1703
 6207W        W10407   9.978   9.453  11.514  0.0131 -0.0303  0.0428
 6208W        W10408   1.681   1.328   4.442  0.1735 -0.1243  0.0222
 6209W        W10409   2.252   6.060   1.220  0.0165  0.0199 -0.1661
 6210W        W10410   0.067   8.799   0.302 -0.1883  0.1801 -0.1366
 6211W        W10411   2.134   3.404   3.267  0.1407 -0.2790  0.0214
 6212W        W10412   3.375   8.806   9.694 -0.0695 -0.0062  0.0506
 6213W        W10413   2.909  10.279   9.686  0.0444  0.3274 -0.1243
 6214W        W10414   6.673   2.144   9.752  0.0645 -0.2302 -0.2436
 6215W        W10415   9.109   2.955   0.583  0.0452  0.0549  0.1449
 6216W        W10416   2.626   4.812   3.771  0.0236  0.2879  0.2427
 6217W        W10417   4.440   3.100   0.497  0.1343 -0.1467 -0.0004
 6218W        W10418   3.456   3.091  11.029  0.3170  0.0883  0.0989
 6219W        W10419   3.515   9.587   2.235 -0.0849  0.1256  0.0864
 6220W        W10420   0.112   2.688  11.472  0.2381 -0.3472 -0.0600
 6221W        W10421   1.113   7.265   1.882 -0.1352 -0.1580 -0.3910
 6222W        W10422   9.911   7.792   3.658  0.0103  0.1228  0.1071
 6223W        W10423   5.282   2.818   0.982 -0.0613 -0.0324  0.2959
 6224W        W10424   9.626   4.540  13.297 -0.0798  0.1905  0.0775
 6225W        W10425   2.177  10.429  10.226 -0.0655  0.1693 -0.0738
 6226W        W10426   7.174   3.408  10.784  0.3528  0.0957 -0.1205
 6227W        W10427   8.200   0.616  11.912 -0.0503  0.4698 -0.3693
 6228W        W10428   0.701   9.722   5.735  0.0063  0.2794 -0.1895
 6229W        W10429   2.495  10.016  11.656  0.0339 -0.3141  0.0099
 6230W        W10430   2.102   9.259   2.559 -0.1429  0.1853  0.0658
 6231W        W10431   0.049   4.320   2.051 -0.2447  0.0849  0.1479
 6232W        W10432   7.822   9.503   0.511 -0.0640 -0.2550  0.0070
 6233W        W10433   8.161   5.182  11.081  0.1018  0.0560 -0.0488
 6234W        W10434   3.956   9.799   9.919  0.0285  0.1200 -0.2353
 6235W        W10435   6.884   3.699  13.056 -0.1318 -0.1784 -0.0836
 6236W        W10436   9.929   5.007   1.836 -0.2683  0.2037  0.1690
 6237W        W10437   3.647   2.808   4.207  0.3782  0.1487 -0.2151
 6238W        W10438   5.573   4.193   9.371  0.2232  0.1245  0.0035
 6239W        W10439   1.829   3.864   4.519  0.5136 -0.1866  0.3006
 6240W        W10440   3.558   9.942   2.551 -0.1711 -0.2574 -0.2410
 6241W        W10441   1.468   3.822  12.213  0.2304  0.0998  0.1308
 6242W        W10442   8.882   7.707   3.600 -0.1752  0.0322 -0.3134
 6243W        W10443  10.117   2.135   4.832 -0.0499 -0.1382 -0.0871
 6244W        W10444   4.764   5.335   2.821 -0.2163 -0.1214 -0.1981
 6245W        W10445   2.137   8.141  12.525  0.0536 -0.2079  0.2006
 6246W        W10446   7.378   9.102  11.327  0.1038 -0.3431  0.0840
 6247W        W10447   9.914   9.580  13.251  0.2197  0.1610  0.0546
 6248W        W10448   4.325  10.073  12.001 -0.1384 -0.0452  0.0014
 6249W        W10449  10.466   9.950   1.925  0.2011  0.1463 -0.1525
 6250W        W10450   0.833   4.129  12.648 -0.2660  0.0016  0.2979
 6251W        W10451   4.071   5.520  13.071 -0.0952  0.0246 -0.1872
 6252W        W10452   2.599   0.934   2.592  0.0030  0.0926 -0.0282
 6253W        W10453   5.891   7.967   3.191  0.0307 -0.0687  0.5061
 6254W        W10454  10.088   0.082   3.465 -0.1485 -0.1319 -0.2042
 6255W        W10455   1.694   2.973   4.477 -0.0305  0.0648  0.4156
 6256W        W10456   7.724   6.263   4.753  0.0744  0.0005  0.2022
 6257W        W10457   7.654   4.619  11.324  0.1070 -0.0327 -0.1130
 6258W        W10458   6.507   0.012  11.868 -0.2650 -0.1917 -0.1258
 6259W        W10459   5.078   3.056  10.885  0.1002 -0.0939  0.1434
 6260W        W10460   4.068   9.957   1.079 -0.2839  0.2905 -0.1802
 6261W        W10461   5.108   4.366   9.950 -0.1415  0.3046  0.0731
 6262W        W10462   8.804   0.200   3.321 -0.0908 -0.2677  0.2854
 6263W        W10463   3.303   1.924   1.539 -0.0007 -0.1117 -0.3616
 6264W        W10464  10.371   3.960   3.164 -0.0306 -0.1970  0.0696
 6265W        W10465   3.964   5.260   0.091  0.0877  0.0403  0.0694
 6266W        W10466   2.767   3.201  12.089  0.1747 -0.2245 -0.4077
 6267W        W10467   9.564   5.419   3.606  0.0817 -0.0586 -0.1974
 6268W        W10468   1.061   4.316  11.349 -0.3311 -0.1410  0.1652
 6269W        W10469   5.335  10.140   3.654  0.1108  0.1193  0.0489
 6270W        W10470   2.861   8.834   3.396 -0.0291 -0.2239 -0.0142
 6271W        W10471   7.673   8.946  12.100  0.0002  0.1693 -0.0541
 6272W        W10472   9.788   1.152  10.104 -0.2163 -0.3731  0.0137
 6273W        W10473   7.354   5.091   8.665 -0.0607  0.3557 -0.2202
 6274W        W10474   6.201   5.188   1.301 -0.2801 -0.0937  0.1853
 6275W        W10475  10.176   8.699  11.160 -0.1563 -0.2022 -0.0451
 6276W        W10476   7.665   3.402  12.287  0.2058  0.2094 -0.1402
 6277W        W10477   5.039   3.614  10.759  0.2940  0.0198 -0.0732
 6278W        W10478  10.147   0.302   4.676 -0.0486 -0.0267  0.0184
 6279W        W10479   9.308   5.486  10.328  0.2087  0.1187  0.1628
 6280W        W10480   4.615   4.466  10.327 -0.1102  0.0756 -0.0598
 6281W        W10481   9.348  10.173   3.208 -0.4092 -0.4796  0.0292
 6282W        W10482   3.506   8.467  13.182 -0.1854 -0.2775 -0.1310
 6283W        W10483   0.890   3.283   2.822 -0.0872 -0.1082  0.0721
 6284W        W10484   2.099  10.140  11.344 -0.1747  0.1181 -0.1512
 6285W        W10485   4.447   8.680  12.182  0.0047 -0.3515 -0.2020
 6286W        W10486   1.846   5.432   2.116 -0.1928 -0.3914 -0.0178
 6287W        W10487   0.999   1.733  10.081 -0.0633 -0.1036 -0.1165
 6288W        W10488   6.872   0.324   2.380 -0.0660  0.1992  0.0600
 6289W        W10489   9.955   4.472  10.762  0.2040 -0.2259 -0.1266
 6290W        W10490   3.199   4.195  12.360 -0.0135 -0.2411  0.2477
 6291W        W10491   0.450   0.976  12.097 -0.0090  0.1463  0.3152
 6292W        W10492   6.946   8.639  12.290 -0.2207 -0.0260 -0.2008
 6293W        W10493   6.722   2.831   3.560  0.0758  0.2544  0.2196
 6294W        W10494   3.401   8.586  11.683  0.1312 -0.1771  0.0117
 6295W        W10495   7.354   1.683  11.567 -0.2408 -0.1410 -0.3309
 6296W        W10496   6.081   6.028   8.643 -0.0401 -0.0575  0.0772
 6297W        W10497   5.335   0.774   9.533 -0.0382  0.0475 -0.0367
 6298W        W10498   7.021   2.971  12.003 -0.2845  0.1066 -0.2502
 6299W        W10499   9.244   3.239   3.964 -0.2028 -0.0886 -0.0624
 6300W        W10500   9.209   3.746   4.003 -0.1721 -0.1363  0.2833
 6301W        W10501   0.072   4.493   1.126 -0.0145 -0.0971  0.0219
 6302W        W10502   4.418   8.365   0.615 -0.1585 -0.2069 -0.2470
 6303W        W10503   5.393   0.128   1.068 -0.0311 -0.1088 -0.1908
 6304W        W10504   6.958   6.863   9.017 -0.0061  0.3759 -0.2236
 6305W        W10505   5.543  10.341   2.091 -0.2812 -0.1128 -0.1443
 6306W        W10506   8.231   4.678   4.516  0.2715 -0.0277  0.2888
 6307W        W10507   2.748   9.827   0.861  0.3471 -0.1148 -0.3935
 6308W        W10508   5.175   0.541  11.746 -0.0805  0.1028  0.0729
 6309W        W10509   1.400   5.323   4.300 -0.2902 -0.0086 -0.1769
 6310W        W10510   9.531   6.024  13.040  0.1096 -0.1781  0.0405
 6311W        W10511   2.755   1.543  11.901  0.3550  0.1879 -0.1318
 6312W        W10512   2.282   3.103  10.212 -0.3164  0.0670 -0.2077
 6313W        W10513   9.843   9.316  10.225  0.2035  0.0830 -0.0552
 6314W        W10514   1.383   3.400  13.013  0.2103 -0.1283 -0.0284
 6315W        W10515   2.993   7.081   3.108  0.3399 -0.0608 -0.2203
 6316W        W10516   7.618   3.150   2.303 -0.1740 -0.0415  0.1219
 6317W        W10517   8.323   5.974  12.309 -0.3258 -0.1983  0.1115
 6318W        W10518   2.630   7.186  11.479  0.1653  0.1704 -0.2067
 6319W        W10519   8.831   4.055   1.541 -0.0487 -0.6028  0.0538
 6320W        W10520   3.863   9.134   2.207  0.1270 -0.2793  0.2842
 6321W        W10521   9.645   2.044   1.561  0.0925  0.0159  0.0806
 6322W        W10522   5.815   5.499  11.127 -0.1383 -0.0073  0.0668
 6323W        W10523   8.131   3.371   5.158  0.0004  0.1279 -0.2249
 6324W        W10524   6.566   2.639  11.048 -0.0485 -0.3091 -0.2427
 6325W        W10525   8.324   2.680   1.223  0.1062 -0.0219  0.1835
 6326W        W10526   5.234   5.352   4.549 -0.1918  0.0507  0.0422
 6327W        W10527   5.613   4.816   0.103 -0.1127  0.0352  0.0090
 6328W        W10528   9.566   1.146   4.953 -0.1894 -0.0306 -0.0521
 6329W        W10529   1.838   4.326   3.693  0.0958 -0.0311  0.2804
 6330W        W10530   3.088   9.692   8.883 -0.1798 -0.0402 -0.1965
 6331W        W10531   7.238   4.788  12.357  0.0312 -0.3702  0.2659
 6332W        W10532   4.548  10.157   2.951 -0.1519  0.1933  0.0997
 6333W        W10533   9.703   8.255  11.831  0.3095 -0.0894  0.1161
 6334W        W10534   4.777   7.749  12.141  0.0258  0.0266  0.0219
 6335W        W10535   0.536   0.337   8.609  0.1227  0.0937 -0.2318
 6336W        W10536   6.603   2.736  11.539  0.1838 -0.1015  0.1047
 6337W        W10537  10.412   1.334   2.129 -0.0285  0.1606  0.0065
 6338W        W10538   7.583   5.498   2.451  0.0607  0.2427  0.3343
 6339W        W10539   4.388   0.659   9.616  0.0785  0.0822 -0.2670
 6340W        W10540   2.799   7.287   0.384  0.0359  0.0509  0.2246
 6341W        W10541   6.624   9.417  10.282 -0.2112  0.0576 -0.0529
 6342W        W10542   0.067   7.490   1.950 -0.0271  0.0190  0.2092
 6343W        W10543   0.530   1.494   2.424  0.0973 -0.1245 -0.2044
 6344W        W10544   4.158   1.132   2.662  0.1256 -0.3745 -0.2038
 6345W        W10545   1.767  10.043   8.975  0.0883  0.3799  0.0400
 6346W        W10546   5.724   9.856   0.036 -0.0512  0.4909  0.1172
 6347W        W10547   4.488  10.051   1.433 -0.4876 -0.2324 -0.1231
 6348W        W10548   2.646   4.809   1.147  0.0519  0.0925 -0.0014
 6349W        W10549   6.709   3.573  10.987  0.1984 -0.0420  0.1996
 6350W        W10550   8.185   3.389   0.163 -0.1032 -0.1970 -0.3410
 6351W        W10551  10.178   1.844   1.578  0.0761  0.1399  0.0935
 6352W        W10552   6.231   6.607  11.098 -0.1657 -0.0034  0.2547
 6353W        W10553   0.214   1.430   8.715  0.1767 -0.2400 -0.2840
 6354W        W10554   4.176   4.088   2.246  0.3964 -0.1168 -0.0530
 6355W        W10555   2.225   4.681   4.560 -0.0433  0.0174  0.1508
 6356W        W10556   9.032   2.212   0.518 -0.2195 -0.1742  0.0099
 6357W        W10557   9.381   0.165   8.507  0.0086  0.1629  0.0884
 6358W        W10558   0.403   3.150  12.226  0.0288  0.1427  0.0408
 6359W        W10559   0.166   0.802  10.740 -0.0967  0.0081  0.0159
 6360W        W10560   0.388   8.438  11.864 -0.1218 -0.0520 -0.2108
 6361W        W10561   8.990   2.065   9.036  0.0447 -0.3140  0.0729
 6362W        W10562   8.305   0.162  10.521 -0.0173  0.0642  0.0579
 6363W        W10563   3.070   3.520   0.894  0.2999  0.1824 -0.1866
 6364W        W10564   3.295   3.813   9.840 -0.1194  0.0702  0.1470
 6365W        W10565   3.669   2.111   0.734 -0.1113  0.1439  0.2187
 6366W        W10566   1.695   8.666   5.104 -0.0413  0.2610 -0.4284
 6367W        W10567   9.358   4.555   8.823  0.0821  0.1530  0.1133
 6368W        W10568   5.124   2.331   8.983  0.0266  0.0330  0.0570
 6369W        W10569   8.592   6.259   0.291 -0.2282 -0.1312  0.3346
 6370W        W10570   8.157   7.302   2.394 -0.1456  0.3888 -0.0595
 6371W        W10571   2.159   7.861   8.553  0.1135  0.1506 -0.0371
 6372W        W10572   8.764   4.042   9.948  0.0086 -0.2198 -0.3961
 6373W        W10573   2.847   7.990  11.037 -0.3088  0.3107 -0.0393
 6374W        W10574  10.025   6.631   3.615 -0.0855  0.1692 -0.1375
 6375W        W10575   3.521   5.296  10.588 -0.0020 -0.1725  0.3702
 6376W        W10576   5.504   7.691   2.332 -0.3695  0.0381 -0.2496
 6377W        W10577   1.622   0.534  12.219  0.0311 -0.1662  0.1242
 6378W        W10578   2.767   2.503   0.998 -0.3379  0.0246  0.1457
 6379W        W10579   4.959   7.745   2.312 -0.1200 -0.2222 -0.0398
 6380W        W10580   7.136   4.887   4.113 -0.0673 -0.2098 -0.1284
 6381W        W10581  10.339   1.745   0.964  0.0599  0.1359 -0.2042
 6382W        W10582   7.098   3.010   0.853 -0.1798  0.0262 -0.0844
 6383W        W10583   1.094   6.161   3.755 -0.0374  0.4427  0.1563
 6384W        W10584   7.769   5.699   0.130  0.1513 -0.4954 -0.2749
 6385W        W10585   5.474   8.635  10.581 -0.1310 -0.0617  0.0546
 6386W        W10586   2.294   8.769   8.999  0.0597  0.2793  0.0596
 6387W        W10587   5.878   7.518  11.088  0.3269 -0.3187  0.0968
 6388W        W10588   8.890   3.030   2.735 -0.2787  0.1098  0.2065
 6389W        W10589   2.507   8.657  11.194  0.2685  0.1903 -0.2940
 6390W        W10590   8.609   7.753  12.932  0.1479  0.0792  0.2786
 6391W        W10591   2.767   0.287   1.843 -0.1566  0.0126 -0.0350
 6392W        W10592   9.617   4.577   2.768 -0.0127 -0.4891  0.3530
 6393W        W10593   0.335   2.892   4.468  0.0743  0.1457 -0.3926
 6394W        W10594  10.410   8.696  11.896  0.1891 -0.1913 -0.0890
 6395W        W10595   8.673   5.099  13.172  0.0809  0.2663 -0.0239
 6396W        W10596   0.864   0.642   9.926  0.0384  0.1935  0.2036
 6397W        W10597   1.565   0.300  11.117  0.0959 -0.0011 -0.1418
 6398W        W10598   4.034   5.922   0.827  0.1822 -0.1190  0.1521
 6399W        W10599   2.313   8.679   4.799  0.1536  0.1032 -0.1506
 6400W        W10600   8.664   6.086  10.915 -0.3144 -0.1131  0.0580
 6401W        W10601   2.975   7.604   9.764  0.0462  0.2095  0.0313
 6402W        W10602   7.721   9.613   1.605 -0.3974  0.4082 -0.0999
 6403W        W10603  10.215   3.944  11.552  0.2373  0.1006  0.2670
 6404W        W10604   9.272   9.715   8.633  0.1073 -0.0371  0.0651
 6405W        W10605   2.044   0.777   9.543  0.3274  0.0216  0.0962
 6406W        W10606   5.379   3.461   0.226  0.0556  0.0510  0.1073
 6407W        W10607   7.909   2.668   3.897 -0.0272  0.1649  0.5021
 6408W        W10608  10.217   5.130  11.318 -0.0995  0.1338  0.1483
 6409W        W10609   3.842   1.960  10.889  0.1497 -0.0834  0.3364
 6410W        W10610   1.462  10.056  10.722 -0.4029 -0.1188  0.2197
 6411W        W10611   2.917   5.147   3.547  0.2416 -0.0946  0.1313
 6412W        W10612   1.114  10.173   5.767 -0.0678 -0.1407  0.1244
 6413W        W10613   9.538   9.438   0.293  0.0882 -0.2646  0.0076
 6414W        W10614   9.732   2.455   3.555  0.2010 -0.0848  0.1584
 6415W        W10615   3.427   6.150   0.891  0.2702 -0.0040  0.0112
 6416W        W10616   2.718  10.015  10.087  0.1466  0.2572 -0.2680
 6417W        W10617   7.328   4.186   9.769  0.1122 -0.1525 -0.1885
 6418W        W10618   9.069   4.121  10.843  0.1373  0.2969  0.1995
 6419W        W10619   2.408   7.523  11.825  0.5167 -0.2219 -0.0797
 6420W        W10620   9.177   0.818   5.199  0.1414 -0.0330 -0.1974
 6421W        W10621   1.380   2.567  11.185 -0.2449  0.1931  0.1072
 6422W        W10622   6.496   8.480   1.608  0.1316 -0.1361 -0.2530
 6423W        W10623   7.761   7.571   1.469 -0.0217  0.4023 -0.1885
 6424W        W10624   9.959   3.956  11.048 -0.3343 -0.0767  0.2392
 6425W        W10625  10.212   3.072  12.983  0.2086  0.0804 -0.0343
 6426W        W10626   2.312   0.768   9.995 -0.0532  0.3190 -0.0333
 6427W        W10627   8.627   4.498  11.270  0.1475  0.2812  0.2427
 6428W        W10628   9.542   8.366   1.409 -0.1809 -0.0445  0.1384
 6429W        W10629   8.998   8.253   3.689 -0.0768  0.0071 -0.0929
 6430W        W10630   8.018   5.145   4.175 -0.0453  0.2450 -0.0471
 6431W        W10631   8.541   1.538  11.460  0.1284  0.2921 -0.0302
 6432W        W10632   8.677   9.754   0.801 -0.0713 -0.0094  0.2734
 6433W        W10633   6.741   3.885  10.394 -0.1721 -0.0785 -0.1498
 6434W        W10634   2.701   1.180   2.195 -0.0504 -0.0964 -0.3432
 6435W        W10635   6.902   2.647   9.690 -0.2292 -0.1827 -0.1530
 6436W        W10636   3.962   4.785  12.567  0.2672  0.1271  0.1367
 6437W        W10637   3.969   4.957   3.819  0.0640 -0.0525 -0.1259
 6438W        W10638  10.284   4.877   9.698  0.2541  0.0418 -0.0682
 6439W        W10639   7.020   5.406   3.889 -0.3218  0.0354  0.0562
 6440W        W10640   4.775   1.737  10.879 -0.0988  0.3401  0.0104
 6441W        W10641   0.465   3.758  13.058 -0.1415  0.1512  0.2033
 6442W        W10642   2.391   3.171   9.558  0.0067 -0.0686  0.0473
 6443W        W10643   8.443   4.923  12.321  0.1052  0.1847 -0.1435
 6444W        W10644   8.693   4.815   1.833 -0.2275  0.1254 -0.4604
 6445W        W10645   0.304   4.871   1.481  0.0667 -0.3806  0.0087
 6446W        W10646   6.513   2.960   4.293 -0.0739  0.2972 -0.0061
 6447W        W10647   5.871   2.071   1.132 -0.2516 -0.0249  0.1727
 6448W        W10648   1.403   5.059   8.946 -0.3458 -0.0284 -0.0045
 6449W        W10649  10.489   2.964   3.965  0.0094  0.0229  0.3133
 6450W        W10650   4.708   0.116   3.108 -0.2990 -0.2255  0.2039
 6451W        W10651   0.786   8.326   9.877 -0.1989  0.0224  0.1922
 6452W        W10652   4.206   7.884   2.662 -0.2333 -0.3790  0.2161
 6453W        W10653   9.275   8.475  10.901 -0.3528  0.4255 -0.1606
 6454W        W10654   1.051   9.355   3.567 -0.0600 -0.2910  0.1378
 6455W        W10655   2.754   3.095   0.919  0.0913 -0.1318  0.0683
 6456W        W10656   8.760   6.834   9.230 -0.3343 -0.0903 -0.0108
 6457W        W10657   2.340   5.147   0.263  0.0747  0.3297  0.1461
 6458W        W10658   0.101   7.744   0.154 -0.1462 -0.2023 -0.1412
 6459W        W10659   4.702   4.732   3.638  0.1227 -0.1889 -0.2030
 6460W        W10660   0.668   5.804   1.051  0.0103  0.2365  0.3353
 6461W        W10661   9.785   8.035  12.299 -0.2058  0.2205 -0.2206
 6462W        W10662   5.011   1.609  13.261 -0.3242 -0.0235  0.0703
 6463W        W10663   1.502   2.046  10.524 -0.2031 -0.0463  0.0726
 6464W        W10664   0.653   0.723  10.856  0.0753  0.0530 -0.0565
 6465W        W10665  10.321   5.999   0.322 -0.1843 -0.2848  0.2123
 6466W        W10666   6.159   3.321   8.804  0.4548 -0.1884  0.1274
 6467W        W10667   9.631   1.829   2.419 -0.0997 -0.0288  0.1830
 6468W        W10668   0.348   8.659   1.094  0.2131  0.2019 -0.1007
 6469W        W10669   0.567   1.850   4.586  0.1914 -0.0722  0.1043
 6470W        W10670   9.682   2.768   9.047 -0.0406  0.1257 -0.1092
 6471W        W10671   3.639   9.911   1.383 -0.1187  0.1006 -0.2230
 6472W        W10672   2.273   8.129   2.667 -0.0522 -0.2487 -0.1072
 6473W        W10673   1.156   5.426  10.197 -0.1762 -0.5536  0.3182
 6474W        W10674   8.799   4.391  10.478 -0.2120  0.1181  0.4064
 6475W        W10675   2.522   4.354   0.327  0.0667 -0.2363  0.0588
 6476W        W10676  10.203   4.292   3.585  0.4319  0.1648  0.2158
 6477W        W10677  10.333   0.464   0.755  0.2431  0.1483  0.0740
 6478W        W10678  10.235  10.484   5.269  0.2899 -0.3548 -0.0739
 6479W        W10679   6.284   4.996  10.104  0.1399  0.1247  0.3539
 6480W        W10680   8.205   1.204  10.258  0.1627 -0.2311  0.0751
 6481W        W10681   1.463   2.628   2.434 -0.0102  0.1699  0.1459
 6482W        W10682   0.600   8.996   4.739  0.1563  0.2057  0.0908
 6483W        W10683   2.681   5.853   0.183  0.2380  0.1456 -0.0118
 6484W        W10684   8.910  10.284   3.151 -0.2088  0.3603 -0.1301
 6485W        W10685   9.994   2.244   1.226 -0.1189  0.1909 -0.0855
 6486W        W10686   3.131   6.545  11.378 -0.0165  0.0959  0.2838
 6487W        W10687   4.127   2.886   3.534  0.1152 -0.1642  0.1277
 6488W        W10688   5.835   1.054   4.897 -0.1080  0.1701  0.0029
 6489W        W10689   7.141   5.771   1.343 -0.1217 -0.0635  0.0281
 6490W        W10690   6.905   5.832   3.192  0.3326  0.0684  0.0798
 6491W        W10691   1.828   5.961  11.050  0.0572 -0.0941 -0.1870
 6492W        W10692   1.092   7.591   3.729  0.3086 -0.1225  0.1385
 6493W        W10693   8.771   1.956   2.815 -0.1343  0.3617 -0.3411
 6494W        W10694   2.105   5.171  13.158 -0.0358  0.2228 -0.1598
 6495W        W10695   5.443   5.190  11.295 -0.1194 -0.0256 -0.1254
 6496W        W10696   3.527   6.540   1.274 -0.0318 -0.3037 -0.3278
 6497W        W10697   7.266   7.864  11.826 -0.0610  0.0016  0.0412
 6498W        W10698   9.062   3.941   4.498 -0.1689 -0.2832 -0.2593
 6499W        W10699   2.813   8.994   0.987  0.2282  0.0016  0.3626
 6500W        W10700   8.422   5.470   4.449  0.0481  0.0541  0.1703
 6501W        W10701   4.565   8.644   1.013  0.3375  0.3368 -0.0349
 6502W        W10702   5.601   2.189   2.960 -0.0119 -0.1884 -0.1247
 6503W        W10703   3.467   6.466  13.160  0.0108  0.0142 -0.1144
 6504W        W10704   7.818   6.131   3.792  0.0857 -0.0242  0.1765
 6505W        W10705   6.060   9.010   3.312 -0.0285  0.3841  0.3403
 6506W        W10706   1.453  10.076   0.796 -0.1646 -0.0285 -0.0971
 6507W        W10707   1.815   2.704  13.149 -0.0062  0.3414  0.0313
 6508W        W10708   0.029   3.564  11.361 -0.0553  0.1456 -0.1678
 6509W        W10709   3.416   6.715   0.794 -0.3161 -0.0474  0.1164
 6510W        W10710   6.573   0.206  13.098  0.1533 -0.0932  0.0414
 6511W        W10711  10.186   2.202   3.953 -0.0662  0.1386 -0.0193
 6512W        W10712   6.165   8.506   0.137 -0.1541  0.0372  0.1949
 6513W        W10713   4.563   1.506  12.195  0.0671 -0.2802  0.1845
 6514W        W10714   5.787   5.205  12.127  0.2096 -0.0672  0.0559
 6515W        W10715   2.191   5.336  10.468  0.0883 -0.2023 -0.1767
 6516W        W10716   7.388   3.423   4.078 -0.0316  0.2545  0.0789
 6517W        W10717   3.888   2.911  10.865 -0.0758  0.1645  0.3798
 6518W        W10718   8.462   4.665   2.248  0.0480  0.0987 -0.4304
 6519W        W10719   2.895   6.152  12.660 -0.1914 -0.0684  0.0419
 6520W        W10720   2.694   4.695  12.022  0.1305 -0.2905 -0.3163
 6521W        W10721   4.317   8.203   3.061 -0.0304  0.1052 -0.0409
 6522W        W10722   3.305   2.723  11.350  0.3008 -0.1284  0.0645
 6523W        W10723   0.552   4.460  11.515 -0.1306  0.0636  0.0235
 6524W        W10724   1.525   5.927  12.387  0.0870 -0.1023  0.1645
 6525W        W10725   8.990   0.258   1.791 -0.1341  0.1360 -0.3250
 6526W        W10726   3.604   1.978  13.022  0.0194  0.0537  0.1112
 6527W        W10727   0.700   1.360  13.120  0.4520 -0.0141 -0.2569
 6528W        W10728   2.388   4.790  13.309 -0.0552 -0.4438  0.1590
 6529W        W10729   2.782   6.558   1.451  0.0607 -0.2939 -0.1308
 6530W        W10730   4.788   5.770   0.083 -0.3461  0.0160  0.2899
 6531W        W10731   6.535   4.496   9.893 -0.3085 -0.0751 -0.1173
 6532W        W10732   7.369   5.792   3.446 -0.2818  0.0963  0.3002
 6533W        W10733   3.238   6.145   4.898 -0.0526  0.1164  0.0914
 6534W        W10734   0.017   8.245  11.197 -0.0281 -0.0570  0.0227
 6535W        W10735   4.973   2.294   5.174 -0.0367  0.0265 -0.2367
 6536W        W10736   1.877   8.054   1.054  0.0002 -0.2204  0.4293
 6537W        W10737   5.947   8.856  10.442  0.0264  0.0869 -0.0179
 6538W        W10738   6.604   7.485  12.922 -0.0954  0.0605 -0.0508
 6539W        W10739   3.755   9.048  11.015  0.2236  0.0019 -0.1524
 6540W        W10740   7.667   5.684   4.021 -0.0462 -0.2098 -0.2163
 6541W        W10741   4.963   3.268   2.411  0.1241 -0.0306 -0.1482
 6542W        W10742   1.348   9.187   2.554 -0.0437  0.0993 -0.1230
 6543W        W10743  10.468   9.019   2.159  0.0343  0.2336  0.0308
 6544W        W10744   4.327  10.443   1.697  0.0023 -0.1527  0.1138
 6545W        W10745   1.036   7.252  12.947  0.0958  0.2746 -0.0650
 6546W        W10746   9.543   5.209  11.619  0.0668 -0.1326 -0.0291
 6547W        W10747   2.674   6.925  13.085 -0.1583 -0.0965 -0.2227
 6548W        W10748   3.961   0.904   1.534 -0.3290  0.1999  0.1739
 6549W        W10749   1.497   2.146   4.741 -0.1955  0.0139 -0.4565
 6550W        W10750   6.043   1.791   1.943  0.0769 -0.1996  0.2886
 6551W        W10751   0.064   2.527  13.283 -0.1144 -0.1204  0.1326
 6552W        W10752   2.060   2.279   0.673  0.4216 -0.1108  0.0689
 6553W        W10753   7.758   7.728  13.221 -0.1766  0.0292 -0.1994
 6554W        W10754   8.153   0.509   9.562  0.0313  0.0774 -0.1854
 6555W        W10755   5.386   7.218   2.503  0.1139 -0.0494 -0.2224
 6556W        W10756   4.450   1.016   1.472  0.4397 -0.0843 -0.2056
 6557W        W10757   0.366   4.427   1.687  0.0278  0.1173  0.2236
 6558W        W10758   0.813   7.112   3.798  0.3800  0.3661  0.1090
 6559W        W10759   3.715   5.761   0.018 -0.0578 -0.3067  0.2310
 6560W        W10760   5.724   3.855   2.839 -0.2316 -0.0841  0.1340
 6561W        W10761   7.537   3.206  12.754  0.0657  0.4170  0.1194
 6562W        W10762   4.907   0.296   0.888  0.0739 -0.2259  0.1297
 6563W        W10763   3.400   0.939   1.482  0.0319 -0.2050  0.1293
 6564W        W10764  10.133   9.047   2.953 -0.1166  0.4873  0.1843
 6565W        W10765   0.724   5.248  12.698  0.1377 -0.0531  0.0274
 6566W        W10766   6.273   6.153   1.009 -0.1989 -0.2016  0.1729
 6567W        W10767   5.552   1.720   0.996  0.0823 -0.1891  0.2027
 6568W        W10768   1.900   9.902   2.602 -0.1977 -0.0260  0.1359
 6569W        W10769   1.607   0.327   2.775  0.0663 -0.3348  0.0453
 6570W        W10770   0.003   5.109   4.754 -0.1108  0.0603 -0.2349
 6571W        W10771   0.671   2.905  11.332 -0.0832  0.0370 -0.1807
 6572W        W10772   5.359   7.813  11.153 -0.1345 -0.1601 -0.1196
 6573W        W10773   9.513   0.540   3.647  0.2994  0.2629  0.0237
 6574W        W10774   2.140   2.755  12.747  0.1408  0.0752  0.0310
 6575W        W10775   9.482   8.895   2.246 -0.0879  0.1738  0.2364
 6576W        W10776   0.963   4.886  11.438  0.0961 -0.0843 -0.0913
 6577W        W10777   4.393   7.718   2.171  0.1185 -0.0030 -0.1723
 6578W        W10778   5.301   1.222  10.272 -0.0733  0.1779 -0.1374
 6579W        W10779   0.073   1.340   3.333  0.4735 -0.0450  0.2651
 6580W        W10780   6.400   5.179   8.380 -0.0638  0.1245  0.2982
 6581W        W10781   7.254   3.897  12.042 -0.0179  0.0266  0.0763
 6582W        W10782   2.506   1.437   4.844 -0.0029  0.4290 -0.0852
 6583W        W10783   2.023   8.351   3.759 -0.0222 -0.2431 -0.0696
 6584W        W10784   0.542   4.814   4.057  0.1270  0.2566 -0.1053
 6585W        W10785   3.933   5.892   1.690  0.0946  0.0516  0.1655
 6586W        W10786   7.687   2.995  10.168  0.1477 -0.0233 -0.4193
 6587W        W10787   5.934   2.244   2.090  0.0848  0.1763 -0.2126
 6588W        W10788   6.715   6.506   2.002 -0.1480 -0.0639 -0.1528
 6589W        W10789   0.969   2.191   4.478  0.1932 -0.0350 -0.2667
 6590W        W10790   9.738   9.107   3.307  0.0061  0.0764  0.0268
 6591W        W10791   5.013   2.636  11.222 -0.1232 -0.3168 -0.0239
 6592W        W10792   5.403   8.247  12.747  0.1013  0.3667  0.1306
 6593W        W10793   1.419   6.857   8.995  0.1651 -0.2128  0.0663
 6594W        W10794   1.265   0.235   3.559  0.2155 -0.2289 -0.1338
 6595W        W10795   5.796  10.506   0.696 -0.1459  0.1120 -0.0675
 6596W        W10796   4.511   7.232   0.743 -0.0759 -0.0563  0.0747
 6597W        W10797   3.630  10.493   3.447 -0.1977 -0.1895  0.1573
 6598W        W10798   5.824   7.928   0.737 -0.2782 -0.1569  0.2713
 6599W        W10799   3.013   7.816   1.909  0.1687  0.1151  0.2742
 6600W        W10800   7.212   6.527   9.951  0.2123 -0.1923 -0.0886
 6601W        W10801   7.877   8.094   2.786  0.2061 -0.0262  0.0609
 6602W        W10802   0.320   8.649  13.261 -0.0372 -0.2261  0.3874
 6603W        W10803  10.415   4.656   2.413  0.4117  0.1811  0.0186
 6604W        W10804   6.038   7.414   2.502  0.0147  0.0370  0.1951
 6605W        W10805   6.815   4.751  10.665 -0.1873 -0.1975  0.0311
 6606W        W10806   3.409   8.515  11.155 -0.0442 -0.1256 -0.0486
 6607W        W10807   9.144   0.165  10.307 -0.0021  0.2185  0.1511
 6608W        W10808   5.962   4.480   3.631  0.0060  0.1098 -0.1912
 6609W        W10809   4.576   7.632   1.076 -0.2553 -0.2416 -0.0230
 6610W        W10810   4.032   9.399  10.334  0.1079  0.4093  0.0378
 6611W        W10811   8.867   9.105  10.429  0.0287  0.0127 -0.1074
 6612W        W10812   7.720   8.102  11.748 -0.0026 -0.0363  0.0075
 6613W        W10813   0.935   2.592   4.232  0.1041 -0.4379 -0.0310
 6614W        W10814   1.539   9.405   4.664 -0.0318  0.0508  0.2817
 6615W        W10815   6.145   8.232   2.225  0.0101 -0.1019  0.1935
 6616W        W10816   8.553   2.941   2.260  0.2718  0.2963  0.1503
 6617W        W10817   8.465   1.953   8.980  0.0872 -0.1092 -0.3290
 6618W        W10818   1.709   9.101  10.746 -0.1820  0.1091  0.0112
 6619W        W10819   1.213   0.958   0.607  0.2054 -0.2088 -0.0805
 6620W        W10820   6.455   3.470  12.462  0.0120 -0.2446  0.0807
 6621W        W10821   4.888   3.026   8.701  0.0538  0.0474  0.0276
 6622W        W10822   7.827   4.195   1.813 -0.0466  0.3386 -0.3031
 6623W        W10823   6.425   6.091   1.931 -0.0750 -0.0136 -0.2015
 6624W        W10824   5.769   5.702  10.632 -0.1257  0.1608 -0.1059
 6625W        W10825   4.342   7.047   3.118 -0.0953  0.1093  0.0683
 6626W        W10826  10.044   2.688   1.481 -0.0165 -0.0129 -0.0155
 6627W        W10827   8.546   2.500  10.266 -0.1640  0.0464  0.3298
 6628W        W10828   7.030   7.670  13.082  0.0881 -0.0290 -0.0411
 6629W        W10829   8.247   3.492   1.528 -0.0409 -0.0665 -0.3665
 6630W        W10830   0.193   6.525   1.372  0.1322  0.1567 -0.1022
 6631W        W10831   9.227   2.559   0.203 -0.0640 -0.0425  0.3142
 6632W        W10832   6.318   3.535   2.205 -0.2485  0.2355  0.1681
 6633W        W10833   9.744   1.778   0.024 -0.2312  0.0103 -0.0600
 6634W        W10834   5.042   0.323  12.168  0.6352 -0.0305  0.0365
 6635W        W10835   4.701   4.816  10.677  0.1282 -0.1664 -0.1744
 6636W        W10836   7.707   7.231   4.184  0.0648  0.1588  0.4942
 6637W        W10837   4.058   4.645   4.306  0.0278  0.0453 -0.2509
 6638W        W10838   5.905   6.347   0.703  0.0291  0.0760  0.2436
 6639W        W10839   0.392   7.599   1.035 -0.2230 -0.2979 -0.1931
 6640W        W10840   6.531   5.279  10.410  0.0328 -0.1970  0.2665
 6641W        W10841   4.534   2.541   4.280  0.0408  0.0934 -0.0388
 6642W        W10842   9.993   5.414   2.206 -0.3673 -0.3033  0.1401
 6643W        W10843   8.319   1.524  11.946 -0.1428  0.2169  0.2993
 6644W        W10844   9.572   7.980  10.886 -0.1581 -0.2455 -0.1213
 6645W        W10845   4.518   7.551  11.609 -0.2008  0.1657 -0.2409
 6646W        W10846   0.122   2.299   3.707  0.0615 -0.1100 -0.0004
 6647W        W10847   9.366   1.912  12.410 -0.5269 -0.0931 -0.2308
 6648W        W10848   0.273   9.262  12.435 -0.1837 -0.1302 -0.2137
 6649W        W10849   5.136   4.060  10.368  0.5694 -0.3923 -0.1818
 6650W        W10850   0.999   6.393   4.225 -0.2367 -0.2320  0.3409
 6651W        W10851  10.059   1.396  12.286  0.1652 -0.0201 -0.4140
 6652W        W10852   4.657   1.665   9.556 -0.0502  0.0867 -0.2625
 6653W        W10853   2.134   7.456  11.368  0.0970 -0.1354  0.3932
 6654W        W10854   3.592   1.681  12.655 -0.2134 -0.1775 -0.0445
 6655W        W10855   5.170   3.115   9.792  0.0351 -0.2349 -0.1210
 6656W        W10856   7.963   7.228  11.192  0.3923  0.0906 -0.1418
 6657W        W10857   2.883   5.601   3.324 -0.0472 -0.1181  0.0566
 6658W        W10858   3.476   4.198   0.767  0.0802 -0.0176 -0.0149
 6659W        W10859   6.762   3.740   1.870 -0.1835  0.0439  0.3575
 6660W        W10860   2.574   2.470   4.589  0.1369 -0.0673 -0.1742
 6661W        W10861   0.647   4.415   4.446 -0.1341 -0.0624  0.4419
 6662W        W10862   0.593   0.257   2.008  0.0351  0.0775  0.0069
 6663W        W10863   5.612   5.222   9.505  0.3988 -0.1060 -0.1381
 6664W        W10864   5.433   1.328   3.301  0.0369  0.1108 -0.0276
 6665W        W10865   7.670   8.898   2.042 -0.0377  0.0051 -0.1751
 6666W        W10866   8.401   0.517   3.192 -0.2508 -0.0395 -0.0949
 6667W        W10867  10.006   5.593   4.727  0.0948  0.1125 -0.1910
 6668W        W10868  10.380   9.520   0.018  0.4290 -0.0437 -0.0281
 6669W        W10869   4.370   7.229  11.235  0.0976 -0.1125 -0.2998
 6670W        W10870   0.766   9.859   1.434 -0.2981 -0.1294  0.1264
 6671W        W10871   3.999   2.869   8.956 -0.1965  0.1248 -0.1848
 6672W        W10872   1.004   1.353   1.463 -0.0940  0.1768  0.1801
 6673W        W10873   3.133   2.914   4.574  0.0189 -0.1196  0.2045
 6674W        W10874   6.712   5.447   9.302  0.0266 -0.0860  0.0801
 6675W        W10875   0.971   0.905   2.540  0.0749 -0.3197  0.2261
 6676W        W10876  10.152   6.385   9.268 -0.0854 -0.1277 -0.1497
 6677W        W10877   3.757   4.867   8.928 -0.2121  0.0016  0.0076
 6678W        W10878   1.045   2.794  10.099  0.1353 -0.0282 -0.3061
 6679W        W10879   6.689   3.268  11.686 -0.1528  0.2566 -0.2724
 6680W        W10880   6.546   4.559   2.385 -0.1841 -0.0759 -0.0518
 6681W        W10881   8.516   4.251  10.900  0.1134 -0.0887  0.0118
 6682W        W10882   4.766   2.914   3.883  0.1810  0.0444 -0.0565
 6683W        W10883   7.530   3.111   3.229 -0.0887  0.0263  0.0752
 6684W        W10884   8.250   6.021  11.313 -0.2091 -0.1599 -0.1309
 6685W        W10885   6.937   5.844   3.692 -0.1293  0.0232 -0.1038
 6686W        W10886   4.182   5.721   0.379  0.2391  0.3691 -0.0385
 6687W        W10887   9.217   0.567   4.081 -0.0296  0.1519  0.2150
 6688W        W10888   8.083   5.100  11.954 -0.0880 -0.0002  0.1224
 6689W        W10889   2.977   6.701   4.668  0.2483  0.1348 -0.5216
 6690W        W10890   8.248   0.371   1.375  0.1239 -0.0066  0.1477
 6691W        W10891   4.999   1.098   0.463 -0.1763 -0.3004  0.3419
 6692W        W10892   8.566   2.815   3.548  0.0027  0.1555  0.1416
 6693W        W10893   7.104  10.445   1.133  0.1606 -0.2183  0.2385
 6694W        W10894   9.060   5.923  13.231 -0.1182  0.0386  0.2143
 6695W        W10895   5.956   4.709  12.163  0.3482 -0.1648 -0.2253
 6696W        W10896   4.965   2.652   9.512 -0.1457  0.0235 -0.2922
 6697W        W10897   2.167   0.423  13.366 -0.1449  0.0305 -0.3478
 6698W        W10898   4.757   6.755  12.790  0.1390  0.2105 -0.1316
 6699W        W10899   3.820   2.159  12.633 -0.0040  0.0649  0.2560
 6700W        W10900   4.633   4.961  13.237 -0.3008 -0.1664 -0.4825
 6701W        W10901   1.889   8.787   3.913 -0.1761 -0.1421  0.1114
 6702W        W10902   9.552   2.765  11.842 -0.2509  0.3467 -0.1587
 6703W        W10903   1.600   0.646  11.692  0.0879 -0.0097  0.3184
 6704W        W10904   2.023   1.821   0.817  0.1148 -0.0095  0.2962
 6705W        W10905  10.241   0.996   8.970 -0.0244  0.0605  0.1872
 6706W        W10906   8.087   3.467   8.959 -0.0273 -0.0056 -0.2069
 6707W        W10907   9.642   5.690   4.293 -0.4403 -0.1624  0.4267
 6708W        W10908   6.207   8.131   1.085  0.1670  0.1023 -0.1395
 6709W        W10909   8.133   6.982   9.263 -0.0860  0.0967 -0.1812
 6710W        W10910   9.268   4.902   9.594 -0.2946  0.1398  0.0884
 6711W        W10911   7.868   0.011   0.387 -0.1431  0.2195 -0.1147
 6712W        W10912   5.498   0.446   1.559  0.0690  0.3169  0.0113
 6713W        W10913   2.466   5.122   9.602  0.5242  0.0610  0.0009
 6714W        W10914   1.974   2.330   1.690  0.0479  0.1516 -0.1903
 6715W        W10915   8.380   5.788  10.494 -0.0045  0.0981 -0.0540
 6716W        W10916   2.756   2.132  10.809 -0.1552 -0.1583  0.0480
 6717W        W10917  10.402   8.799  10.282  0.0168 -0.1740  0.0707
 6718W        W10918   1.414   0.121   0.934 -0.0429  0.0359 -0.1560
 6719W        W10919  10.036   9.117   0.172 -0.5055  0.1463 -0.2059
 6720W        W10920   8.681   8.333  11.097  0.1362  0.1092 -0.2542
 6721W        W10921   4.808   5.429  10.351  0.0471 -0.0268 -0.2083
 6722W        W10922   1.458   9.321  12.349  0.0907  0.2368 -0.0388
 6723W        W10923  10.352   5.879  10.275 -0.0592 -0.2301  0.2556
 6724W        W10924   8.311   9.156   1.980  0.4165  0.2810  0.1504
 6725W        W10925   6.042   3.028   4.461  0.0462 -0.1336 -0.2660
 6726W        W10926   9.075   0.349   9.395  0.1743 -0.1184  0.1070
 6727W        W10927   2.852   1.036   1.176  0.1377  0.1221  0.0405
 6728W        W10928   6.600   2.022  10.536  0.0587  0.1176  0.1620
 6729W        W10929   3.948   5.584   2.504  0.2558 -0.0033  0.0531
 6730W        W10930   7.860   9.746   0.955  0.2154 -0.1805  0.3646
 6731W        W10931   5.190   9.152  11.369  0.0983 -0.1082 -0.2907
 6732W        W10932   2.922   3.162   5.025  0.1597  0.1737  0.0030
 6733W        W10933   8.505   8.469   0.988 -0.4214  0.3979  0.4118
 6734W        W10934   6.483   4.412   0.773  0.1760  0.0914  0.1971
 6735W        W10935   0.932   4.219   0.931 -0.0133  0.1038  0.2301
 6736W        W10936   3.299   1.864   2.794  0.2051  0.1273 -0.2073
 6737W        W10937   5.189   0.748   1.933  0.0965 -0.2603 -0.0484
 6738W        W10938   8.592   0.778   9.417 -0.1473 -0.0691  0.3879
 6739W        W10939   7.143   2.616   3.809  0.0349 -0.3125  0.1251
 6740W        W10940   9.496   7.327   3.504  0.0010 -0.2474 -0.0277
 6741W        W10941   9.827   3.823   2.888 -0.0403 -0.2636 -0.0756
 6742W        W10942   9.890   3.154   0.806 -0.0486  0.3517  0.1250
 6743W        W10943   0.212   9.298   0.406 -0.0266  0.2327 -0.1917
 6744W        W10944   5.166   6.090   2.997 -0.3641  0.2665 -0.1381
 6745W        W10945   7.583   8.073   2.361 -0.3325 -0.0737 -0.5050
 6746W        W10946   1.905   2.795  10.249 -0.1711  0.1578  0.1848
 6747W        W10947   6.671   7.150  10.491  0.0635  0.2490 -0.0423
 6748W        W10948   8.226   7.531   9.407 -0.1699 -0.1291  0.4188
 6749W        W10949   4.623   7.709  12.874 -0.2477 -0.0820 -0.1610
 6750W        W10950   0.614   9.396   0.113  0.2474 -0.0787  0.2348
 6751W        W10951   4.713   1.917   0.124  0.1042  0.0927  0.2756
 6752W        W10952   0.369   0.882   5.644  0.2437  0.1106  0.0540
 6753W        W10953   7.038   4.317   2.521  0.2148  0.1194  0.1412
 6754W        W10954   0.830   7.166   1.041 -0.0454  0.3895 -0.0771
 6755W        W10955   7.107   1.064   1.658  0.3540 -0.0147  0.1272
 6756W        W10956   4.475   3.868  12.471  0.0136  0.2289 -0.1778
 6757W        W10957   3.428   1.178   1.031 -0.2879 -0.0443 -0.2053
 6758W        W10958  10.471   3.811   0.599 -0.1965 -0.3040  0.0818
 6759W        W10959   7.996   8.636   2.904 -0.4073  0.1723 -0.1952
 6760W        W10960   9.345   6.940   3.732  0.1296  0.2177 -0.4140
 6761W        W10961   6.333  10.232   2.549 -0.0089 -0.1535 -0.0493
 6762W        W10962   6.312   9.102  11.446 -0.1566  0.1723  0.2556
 6763W        W10963   1.186  10.431  11.050  0.0349  0.0631 -0.0754
 6764W        W10964   0.395   7.589  12.154 -0.2387  0.1259  0.0344
 6765W        W10965   5.493   4.983  12.997 -0.3467 -0.3140  0.0469
 6766W        W10966   8.762   4.926  10.427 -0.2484 -0.2350 -0.3865
 6767W        W10967   8.214   0.289   2.142  0.4529 -0.1397 -0.0686
 6768W        W10968   1.434   9.157   5.105 -0.2653  0.1264 -0.0478
 6769W        W10969   1.998   5.268  11.733 -0.0777  0.1841 -0.1065
 6770W        W10970   2.421   9.194   3.441 -0.4311 -0.2577 -0.0614
 6771W        W10971   8.930   0.838  10.881  0.1695  0.0980  0.0652
 6772W        W10972   4.754   2.401   5.615  0.3939 -0.2707  0.0736
 6773W        W10973   7.545   3.659   3.077 -0.0126  0.1417 -0.0382
 6774W        W10974   9.028   5.075   0.180  0.4634  0.1692 -0.0528
 6775W        W10975   1.775   3.210   2.452 -0.0980 -0.0653 -0.0677
 6776W        W10976   9.366   4.724   3.199 -0.1425  0.1238 -0.0434
 6777W        W10977   8.569   5.860  12.723 -0.1979 -0.1798  0.0849
 6778W        W10978   5.678   0.979   3.043  0.5006  0.1301 -0.1460
 6779W        W10979   3.728   4.573  13.019 -0.0413  0.0337  0.0063
 6780W        W10980   6.001   3.550  12.774 -0.2788 -0.4305 -0.1179
 6781W        W10981   1.739   8.368  12.337 -0.0544  0.2727  0.2014
 6782W        W10982   7.544   3.072  10.674  0.2322 -0.1455  0.2734
 6783W        W10983   6.088   1.093   1.353  0.3352 -0.0885  0.2596
 6784W        W10984   0.032   0.648   9.255  0.0037 -0.1662 -0.0355
 6785W        W10985   2.459   9.954   2.097  0.2814  0.4608 -0.1273
 6786W        W10986   3.772   5.141   3.432 -0.0658  0.0721 -0.2059
 6787W        W10987   9.479   1.872   9.714  0.2146 -0.2264  0.0273
 6788W        W10988   1.378   2.996   2.143  0.3275  0.0688 -0.1706
 6789W        W10989   8.248   5.706   2.859 -0.1907  0.2132 -0.3505
 6790W        W10990   5.512   9.395  11.899  0.3918  0.0302 -0.4000
 6791W        W10991   8.729   0.374  12.646  0.0348  0.0915  0.3879
 6792W        W10992   1.415   3.798   4.172 -0.0037  0.1615  0.0110
 6793W        W10993   2.041   1.946   3.527  0.2268  0.1061  0.2920
 6794W        W10994   5.692   1.056   9.916 -0.1546  0.0951 -0.1114
 6795W        W10995   1.717   3.552   3.037 -0.1159  0.0042 -0.1559
 6796W        W10996   8.767   1.607   1.397  0.0537  0.1783 -0.3989
 6797W        W10997   0.452   1.659   0.116 -0.4831  0.1574  0.1320
 6798W        W10998   3.128   2.827  11.858  0.2933  0.1930  0.1845
 6799W        W10999   8.138   3.637   1.038 -0.0234 -0.0249 -0.1043
 6800W        W11000   1.022   0.242  10.690 -0.0417 -0.0643  0.4077
 6801W        W11001   0.577   3.557  10.332  0.0025 -0.0657 -0.0554
 6802W        W11002   5.721   6.685   1.891  0.3029  0.1239  0.1519
 6803W        W11003   5.135   4.797  13.255 -0.1875 -0.0617 -0.1673
 6804W        W11004   9.331   9.926   9.104 -0.0541  0.0334 -0.0596
 6805W        W11005   4.385   2.915   5.378 -0.1429  0.1527  0.0214
 6806W        W11006   3.437  10.409   1.799  0.1590 -0.0683  0.2757
 6807W        W11007   7.747  10.089   3.758 -0.2295  0.1622 -0.1261
 6808W        W11008   5.655   2.368   9.714  0.1786  0.0189  0.0936
 6809W        W11009   6.688   1.581  11.300 -0.0864  0.2350  0.4003
 6810W        W11010   1.390   9.245   3.186 -0.2896  0.1106 -0.0873
 6811W        W11011   6.586   0.337   8.946 -0.1405 -0.1424  0.1546
 6812W        W11012   9.036   6.521  12.085  0.1474 -0.1015  0.0183
 6813W        W11013   5.400   3.870  12.982 -0.2563 -0.0377 -0.2777
 6814W        W11014   5.215   0.606   3.454 -0.4705  0.2548  0.0008
 6815W        W11015   7.569   5.718  12.843 -0.1390 -0.1054 -0.0663
 6816W        W11016   2.101   9.849   4.625  0.1765 -0.0233 -0.1883
 6817W        W11017   1.590   0.485   4.175 -0.1650  0.4034 -0.1628
 6818W        W11018   1.194   6.313   9.816 -0.0524  0.0484 -0.0156
 6819W        W11019  10.373   7.862  11.610  0.3103  0.0586  0.1696
 6820W        W11020   5.708   6.482  11.891 -0.0640  0.2722 -0.0991
 6821W        W11021   8.899   4.418  11.687  0.1641 -0.0585  0.2565
 6822W        W11022   3.728   7.607   9.495 -0.1180  0.1465  0.2144
 6823W        W11023  10.330   9.041   4.549  0.0728 -0.2618 -0.1914
 6824W        W11024   3.709   9.848  12.497  0.0919 -0.4394  0.2157
 6825W        W11025   3.314  10.138  12.588  0.3746  0.0565 -0.0646
 6826W        W11026   2.112   7.379  12.260 -0.1191  0.1155  0.2184
 6827W        W11027   5.253   8.599   2.493  0.3065 -0.3994 -0.3344
 6828W        W11028   9.896   2.380   0.701 -0.1476 -0.1060  0.0094
 6829W        W11029   1.572   4.246  11.220 -0.1032 -0.1697 -0.1587
 6830W        W11030   3.717   0.260   2.985  0.1303 -0.0539  0.2747
 6831W        W11031   9.294   1.754   2.977 -0.2019 -0.0358  0.0216
 6832W        W11032   4.039   1.731  11.969  0.0150  0.0353 -0.1163
 6833W        W11033   8.064   6.184   3.099  0.1390 -0.0593  0.0146
 6834W        W11034   1.750   2.204  11.185 -0.3672  0.0130 -0.1630
 6835W        W11035   3.896   2.711   1.918  0.2121 -0.0810  0.1847
 6836W        W11036   7.512   8.939   1.567 -0.0405 -0.1494  0.0467
 6837W        W11037   1.566   1.692   4.917  0.1648  0.3539  0.1753
 6838W        W11038  10.155   5.463  10.957 -0.0891 -0.0885  0.0262
 6839W        W11039   3.263   6.370   9.711 -0.1159  0.0360  0.1111
 6840W        W11040   6.975   7.009   1.192 -0.2039  0.3734 -0.1732
 6841W        W11041   2.306  10.508  11.645 -0.1864 -0.1417 -0.2896
 6842W        W11042   4.414   5.077  10.381  0.0420  0.1944 -0.2530
 6843W        W11043   7.924   1.609   3.012  0.3328 -0.2990  0.0511
 6844W        W11044   6.806   8.773   1.320  0.0401 -0.0806 -0.0228
 6845W        W11045   7.275   0.170  10.384 -0.0453 -0.2469  0.1170
 6846W        W11046   6.428   2.645   9.803  0.2167  0.0545  0.0357
 6847W        W11047   9.812   1.888   1.943  0.0073 -0.1448  0.0735
 6848W        W11048   2.090   6.595  12.052  0.3149  0.1412 -0.0197
 6849W        W11049   5.997   5.828   3.543  0.0793  0.0319  0.2187
 6850W        W11050   4.992   9.441  13.035  0.0799 -0.0118  0.1302
 6851W        W11051   4.433   7.719   0.107 -0.2108  0.1854  0.1461
 6852W        W11052   8.425   4.360   0.566  0.0974 -0.0237  0.0047
 6853W        W11053   3.113   5.875  11.880  0.2794 -0.2650 -0.0954
 6854W        W11054   5.009   8.204  11.205  0.0525 -0.0057 -0.1480
 6855W        W11055   7.530   4.046   9.303  0.0370 -0.1368  0.0349
 6856W        W11056   7.420   6.754   1.069 -0.0846 -0.0438 -0.2464
 6857W        W11057   0.942   5.493   0.664  0.2104 -0.2512  0.0277
 6858W        W11058   9.941   1.022   2.154 -0.2166  0.1212  0.0624
 6859W        W11059   1.840   5.534  11.362 -0.0237  0.1028  0.2232
 6860W        W11060   9.857   3.316   8.846 -0.0197 -0.0806 -0.0558
 6861W        W11061   0.793   3.949   3.310  0.0283  0.1347 -0.0160
 6862W        W11062   1.271   8.033   3.152 -0.0073 -0.0671 -0.0239
 6863W        W11063   7.135   6.466   0.506  0.1248  0.3108 -0.0321
 6864W        W11064   2.727   5.228  10.003 -0.0413 -0.1299  0.2940
 6865W        W11065   2.788   7.122  12.600  0.0862 -0.1036  0.1580
 6866W        W11066   4.325   7.282   1.958 -0.3053  0.0449 -0.2351
 6867W        W11067   4.640   4.433  11.587 -0.2077 -0.1367  0.0615
 6868W        W11068   1.668   1.868   1.791 -0.0271  0.0231  0.0507
 6869W        W11069   2.897   4.091   4.091  0.2234 -0.1098 -0.2678
 6870W        W11070   1.064   9.237  12.931  0.1501 -0.2527  0.1054
 6871W        W11071   0.912   4.585   0.587  0.0057 -0.1534  0.1589
 6872W        W11072   9.768   5.817  11.120 -0.1743  0.2944  0.0753
 6873W        W11073   4.122   6.714   9.622 -0.3106  0.2876 -0.1063
 6874W        W11074   7.481   6.930   2.036 -0.0107  0.1692  0.0922
 6875W        W11075   9.447   6.703   0.209  0.1565 -0.0702 -0.2498
 6876W        W11076   5.098   4.329   3.938  0.0313 -0.1751 -0.1519
 6877W        W11077   9.409   3.756  12.895  0.0828  0.1093 -0.2417
 6878W        W11078   4.319   5.364   9.446  0.1697 -0.2435 -0.0654
 6879W        W11079  10.473   4.782   0.193  0.3620 -0.1791 -0.0432
 6880W        W11080  10.097   8.854  12.740  0.1354  0.2375 -0.2381
 6881W        W11081   4.524   6.046   4.537 -0.0861 -0.1747  0.0107
 6882W        W11082   7.763   2.018   2.700  0.0439 -0.0447 -0.0633
 6883W        W11083   9.241   2.472  10.412  0.1448 -0.2822  0.3188
 6884W        W11084   5.601   2.459  12.141  0.0524 -0.0784  0.0111
 6885W        W11085   2.271   3.094   2.170 -0.1005 -0.0894 -0.0715
 6886W        W11086   9.700   6.508  11.351  0.2823  0.0310  0.0903
 6887W        W11087   0.142   4.334   3.309  0.1111 -0.2202  0.2884
 6888W        W11088  10.099   7.340   3.475  0.0866  0.0046  0.2138
 6889W        W11089   1.234   3.203   0.160  0.3658  0.1300  0.4269
 6890W        W11090   2.330   2.604  10.485 -0.1614 -0.0979 -0.0668
 6891W        W11091   5.530   8.981   2.398  0.1200  0.1240  0.2183
 6892W        W11092  10.455   9.646  11.409 -0.2478 -0.2779  0.0195
 6893W        W11093   8.925   2.396  12.923  0.2148 -0.1678  0.0373
 6894W        W11094   2.072   1.292   9.220  0.1097  0.0370 -0.1845
 6895W        W11095   9.750   3.109   3.703  0.0292 -0.0915  0.2470
 6896W        W11096   9.353  10.027  13.220  0.0012  0.1054  0.0539
 6897W        W11097   6.035   4.491  11.723 -0.0969  0.0174  0.1111
 6898W        W11098   5.830   0.962  11.155  0.3052 -0.1779 -0.1634
 6899W        W11099   7.853   4.382   9.154 -0.3960 -0.2529 -0.0443
 6900W        W11100   3.542   2.326   4.627  0.0138 -0.0663  0.0649
 6901W        W11101   4.060   2.897   4.596  0.2313 -0.0502  0.0800
 6902W        W11102   0.274   3.867  10.686  0.2301  0.0621  0.2486
 6903W        W11103   2.025   6.620   4.354  0.1101 -0.2191  0.0500
 6904W        W11104   2.152   9.157   9.821  0.0463  0.0542 -0.1406
 6905W        W11105   9.700   8.580  11.386  0.1371 -0.1477  0.1740
 6906W        W11106   4.932   8.378   0.643  0.0536  0.1740  0.0608
 6907W        W11107   0.183   3.288   1.617 -0.4503 -0.0173 -0.1985
 6908W        W11108   0.229   0.653   1.732  0.2225  0.1047  0.0430
 6909W        W11109   7.080   1.507   9.337  0.0916 -0.1587 -0.4177
 6910W        W11110   2.494   4.797   9.998  0.1566 -0.3751 -0.0198
 6911W        W11111   8.163   6.419   3.536 -0.1796  0.4628 -0.0767
 6912W        W11112   2.834   0.277   3.699 -0.1102 -0.0531 -0.1102
 6913W        W11113   0.050   3.058   0.995 -0.3745 -0.0755 -0.1175
 6914W        W11114   3.817   1.742   2.873  0.0126  0.0587  0.1204
 6915W        W11115   0.943   8.178   1.533  0.2779 -0.2451 -0.0866
 6916W        W11116   2.124   8.857   0.433 -0.1520 -0.1499  0.1996
 6917W        W11117   5.555   4.530  11.812  0.3254  0.1359  0.2524
 6918W        W11118   1.092   4.736  10.012 -0.1655  0.2155  0.0593
 6919W        W11119   6.253   1.236  11.156  0.0165 -0.2255  0.0021
 6920W        W11120   0.236   3.416   9.974 -0.4491 -0.4322 -0.0093
 6921W        W11121   2.349   5.595   0.527  0.1576 -0.0664 -0.0361
 6922W        W11122  10.326   3.215  10.882 -0.2960  0.2198  0.1010
 6923W        W11123   6.650   5.676   1.913 -0.0837  0.2295 -0.1463
 6924W        W11124  10.224   1.845   9.175  0.2586  0.1259  0.2430
 6925W        W11125   0.302   1.392   9.651  0.1094 -0.2403 -0.2517
 6926W        W11126   0.426   3.023   8.377 -0.2594 -0.0088 -0.1312
 6927W        W11127   4.803   3.129   1.029 -0.4485  0.1770 -0.2941
 6928W        W11128   8.106   1.761   0.251  0.0117 -0.3758 -0.1008
 6929W        W11129   0.764   0.217   3.283 -0.0916 -0.1237 -0.0750
 6930W        W11130   0.626   1.657   5.028 -0.3360 -0.2002 -0.1207
 6931W        W11131   3.146   3.403  11.814 -0.2122  0.2504  0.0083
 6932W        W11132   2.006   3.926   9.789 -0.0570 -0.0078  0.1831
 6933W        W11133   9.422   2.539   4.557  0.0248 -0.1331 -0.0191
 6934W        W11134   8.630   8.725   2.613  0.4459 -0.0197 -0.0723
 6935W        W11135   4.843   1.497   3.239 -0.0037 -0.1373 -0.2761
 6936W        W11136   5.062   6.101  10.584  0.0361 -0.0337  0.0265
 6937W        W11137   0.675   2.201   0.816 -0.1575 -0.0541 -0.0748
 6938W        W11138   5.189   5.516  11.608 -0.4457 -0.1466  0.0264
 6939W        W11139   1.553   9.512   2.257 -0.0933  0.3297 -0.0575
 6940W        W11140   4.637   6.833  11.025 -0.1048 -0.0724  0.2001
 6941W        W11141   7.868   6.062   1.612 -0.1864 -0.1991 -0.2147
 6942W        W11142   7.327   4.003   0.121 -0.2053  0.0947  0.1009
 6943W        W11143   1.242   8.199   9.662  0.0146 -0.0810 -0.0144
 6944W        W11144   1.301   3.955  11.539 -0.0222  0.0391  0.2849
 6945W        W11145  10.307  10.358  11.255  0.1110  0.0521 -0.0261
 6946W        W11146   2.030   2.899   9.783 -0.2777 -0.2910  0.0200
 6947W        W11147   8.453   9.525   4.255 -0.0099  0.0310  0.0261
 6948W        W11148   7.784   7.048  10.547 -0.0510 -0.2041 -0.0228
 6949W        W11149   9.904   6.741   9.977  0.1372 -0.2804  0.1962
 6950W        W11150   6.885   2.492   2.102 -0.0470 -0.1689  0.0168
 6951W        W11151   9.611   2.328   2.014 -0.3208 -0.1270  0.2118
 6952W        W11152   2.197   9.670  12.864 -0.1403  0.0564 -0.1443
 6953W        W11153   4.529   4.916   2.427  0.3678 -0.2497 -0.0054
 6954W        W11154   3.185   9.812   3.677 -0.1396  0.0503 -0.1740
 6955W        W11155   6.945   8.748   3.487 -0.0970 -0.0185 -0.3016
 6956W        W11156   2.016   3.415   9.722 -0.2122 -0.0235 -0.0610
 6957W        W11157   9.726   5.292  11.157  0.0523  0.0400  0.2277
 6958W        W11158   2.404   9.072   2.129 -0.0615 -0.2305 -0.2580
 6959W        W11159  10.025   4.961   1.291  0.2070  0.2869 -0.0947
 6960W        W11160   7.314  10.215  13.327 -0.3595 -0.2309  0.2043
 6961W        W11161   9.494   0.058   9.543 -0.1816  0.2225  0.0830
 6962W        W11162   3.086   6.540   2.334 -0.2675 -0.1178 -0.2968
 6963W        W11163   1.897   0.383   2.191  0.4502  0.0586  0.1442
 6964W        W11164   7.534   7.603   3.916  0.1631  0.1674  0.0103
 6965W        W11165   4.190   4.649  11.550 -0.0882 -0.2634 -0.1099
 6966W        W11166   3.574   9.846  11.589  0.2400 -0.1309 -0.3114
 6967W        W11167   2.030   1.504   3.983  0.1597  0.0078  0.2176
 6968W        W11168   1.826   3.833   9.359  0.1368 -0.0674 -0.0284
 6969W        W11169  10.278   8.551   4.551  0.2008  0.3189  0.1781
 6970W        W11170   7.877   3.529  11.225 -0.0516 -0.0556  0.5370
 6971W        W11171   4.900   6.463  10.895  0.1668 -0.2314 -0.1489
 6972W        W11172   5.336  10.153  12.516  0.0434  0.1380  0.4609
 6973W        W11173   4.908   7.924   0.327  0.1431 -0.0057 -0.0279
 6974W        W11174   9.202   4.860  11.819  0.2988  0.0870 -0.1527
 6975W        W11175   0.964   2.942   3.795 -0.1110  0.3826 -0.1467
 6976W        W11176   7.481   5.377   1.095 -0.0184 -0.1466  0.0166
 6977W        W11177   6.477   2.494  12.150  0.3550 -0.2005 -0.1913
 6978W        W11178   9.291   0.479   9.901  0.0767 -0.0267 -0.2704
 6979W        W11179  10.111   1.045   3.248  0.0096 -0.0713  0.1485
 6980W        W11180   6.986   3.344   9.857  0.1230  0.1437 -0.0428
 6981W        W11181   2.212   6.060  11.356 -0.0423  0.0526  0.1781
 6982W        W11182   1.823   5.855  10.075 -0.0034  0.1548 -0.2101
 6983W        W11183   6.748   5.732   9.725  0.1352 -0.2815 -0.2097
 6984W        W11184   6.145  10.371   1.022 -0.1992 -0.3335 -0.0450
 6985W        W11185   9.502   1.405   2.165  0.0019 -0.1724 -0.0093
 6986W        W11186  10.365  10.095   4.323 -0.0986  0.0532 -0.1920
 6987W        W11187   7.739   6.358   2.089  0.1244 -0.0458  0.2437
 6988W        W11188   5.795   0.114   3.022 -0.1556 -0.1575 -0.0438
 6989W        W11189   1.651   5.553   1.644  0.4146  0.1279  0.0065
 6990W        W11190   1.431   9.069  11.866 -0.0142 -0.1206  0.2701
 6991W        W11191   6.096   2.262   2.773  0.0083  0.0714 -0.2237
 6992W        W11192   3.685   6.362   4.587  0.2577 -0.1342 -0.2587
 6993W        W11193   1.064   0.435   1.927 -0.2137  0.2809  0.1248
 6994W        W11194   6.029   5.007  13.105 -0.0860 -0.3605 -0.0003
 6995W        W11195   6.583   3.502   5.057 -0.0128  0.2083 -0.3092
 6996W        W11196   3.855   6.984   0.712 -0.4192 -0.0111 -0.2203
 6997W        W11197   4.174   0.673   0.580  0.2025  0.1106 -0.2995
 6998W        W11198   9.205   8.783  13.065 -0.0143 -0.1735  0.1348
 6999W        W11199   1.715   6.895   2.737  0.1743 -0.0904 -0.0111
 7000W        W11200   9.385   4.313  11.883  0.4898  0.1372 -0.0956
 7001W        W11201   9.618   5.718   2.169  0.0336 -0.0186 -0.0825
 7002W        W11202   6.721   3.716   4.602 -0.0881  0.2371  0.0273
 7003W        W11203  10.283   0.677   4.365  0.1340 -0.0613 -0.0717
 7004W        W11204   1.875   5.604  13.128 -0.0100  0.0817  0.1124
 7005W        W11205   2.128   4.673   8.651  0.0511  0.0384 -0.1626
 7006W        W11206   5.665   1.844   5.142 -0.0081  0.0996 -0.4618
 7007W        W11207   6.803   8.934   0.138  0.0568  0.3114 -0.2538
 7008W        W11208  10.385   0.301   1.798  0.2339 -0.2182  0.3196
 7009W        W11209   0.172  10.469  12.914  0.1912  0.0651  0.2513
 7010W        W11210   5.529   8.041   2.857 -0.0211  0.2877 -0.1716
 7011W        W11211   3.797   3.869   1.087  0.3066  0.1139  0.1018
 7012W        W11212   9.143   1.041   0.803 -0.1084  0.0687 -0.1027
 7013W        W11213   9.542   0.112   2.723  0.2448 -0.1367  0.2379
 7014W        W11214   8.147   1.577   1.082  0.0478 -0.0377 -0.0929
 7015W        W11215   6.585   2.878   2.259 -0.1839 -0.1134 -0.2327
 7016W        W11216   2.965   2.140   9.221  0.0870 -0.1817  0.0414
 7017W        W11217   6.769  10.134  12.172 -0.1822 -0.1730  0.4073
 7018W        W11218   7.091   0.726  10.386  0.0887 -0.3409 -0.3735
 7019W        W11219   8.063   7.433   4.586  0.1219  0.0563  0.1591
 7020W        W11220  10.273   6.212  12.311  0.1863 -0.3910 -0.0197
 7021W        W11221   1.071   8.068   9.089 -0.1403  0.1204  0.1527
 7022W        W11222   9.966   1.982  12.372 -0.3539  0.0149  0.1069
 7023W        W11223   5.555   8.439  11.728  0.1864  0.0421 -0.0416
 7024W        W11224   1.869   2.460  10.626 -0.0914  0.0749 -0.1604
 7025W        W11225   8.519   5.051   9.440  0.0221 -0.0112 -0.0362
 7026W        W11226   2.060   0.662  11.445 -0.2248  0.3788  0.2704
 7027W        W11227   6.986   7.646   0.490  0.0099  0.1005  0.3133
 7028W        W11228   2.615   7.078   1.248  0.0943  0.0027 -0.0047
 7029W        W11229   0.747   2.091   9.863 -0.0306 -0.1279  0.1549
 7030W        W11230   1.899   6.018   1.614 -0.0296  0.0556  0.1907
 7031W        W11231  10.389   1.113   9.526 -0.0751  0.0390  0.1319
 7032W        W11232   2.001   4.298  10.402 -0.4077 -0.5625  0.3617
 7033W        W11233   5.022   1.893  12.101 -0.2730 -0.0697  0.1334
 7034W        W11234   8.873   5.488   4.288 -0.3436 -0.3127  0.2060
 7035W        W11235   4.379   0.225   0.775  0.0889  0.1045  0.1149
 7036W        W11236   9.623   0.713   8.399 -0.1478  0.0779 -0.0389
 7037W        W11237  10.242   4.929  12.539 -0.0757  0.0367  0.0928
 7038W        W11238   9.296   6.963   3.222 -0.2271 -0.0572 -0.1007
 7039W        W11239   6.619   1.473   1.093  0.0822  0.1035  0.2749
 7040W        W11240   2.073   0.272   5.541  0.1324  0.0674 -0.2552
 7041W        W11241   0.484   2.737   3.960  0.0625 -0.1558 -0.3007
 7042W        W11242   5.526  10.146   0.489 -0.0959 -0.0507 -0.1915
 7043W        W11243   1.206   9.023  10.682 -0.1254 -0.0517  0.1691
 7044W        W11244   7.615   1.219  11.497  0.2779  0.1700 -0.0357
 7045W        W11245   3.208   6.617   1.723  0.3830 -0.0694 -0.1790
 7046W        W11246   9.444   8.366   3.504 -0.0896  0.1837 -0.2211
 7047W        W11247   2.840   7.649  12.646 -0.0907  0.0241 -0.0487
 7048W        W11248   0.128   6.984  12.936 -0.0108  0.2656 -0.1479
 7049W        W11249   8.884   2.059  11.352 -0.0436 -0.0610  0.0139
 7050W        W11250   4.394   2.974  12.824 -0.0604 -0.1423  0.0300
 7051W        W11251   9.298   2.311  12.678 -0.0034  0.0212  0.0596
 7052W        W11252   9.032   1.643  12.716 -0.2098 -0.0792  0.1957
 7053W        W11253   4.806   4.835   9.604  0.1238 -0.1157 -0.0720
 7054W        W11254   3.113   6.341   1.176 -0.2673 -0.0805 -0.0220
 7055W        W11255   2.135   3.630   2.148 -0.0431  0.2121  0.1373
 7056W        W11256   3.361  10.010   0.059  0.0814 -0.1950 -0.1460
 7057W        W11257   9.967   5.939  10.698  0.1935  0.0936  0.2371
 7058W        W11258   0.335   7.928  10.463 -0.1909 -0.0463  0.1734
 7059W        W11259   4.249   4.670   9.571  0.3132 -0.1789 -0.1307
 7060W        W11260   1.015   0.573   9.311 -0.1993 -0.2607 -0.1019
 7061W        W11261   0.162   0.753  11.273 -0.2474  0.0630 -0.0826
 7062W        W11262   7.875   9.598  11.212 -0.0062  0.0845 -0.1229
 7063W        W11263   9.540   6.367   0.596  0.0987  0.0282 -0.1985
 7064W        W11264   3.533   2.515   9.411  0.3306  0.0522 -0.4328
 7065W        W11265   2.047   6.479  11.224 -0.1849 -0.2908  0.3439
 7066W        W11266   4.972   9.807   1.464  0.0035  0.1823 -0.0430
 7067W        W11267   9.638   7.381   2.033 -0.0721 -0.1938 -0.0488
 7068W        W11268   7.524   3.310   9.780 -0.0314 -0.0719  0.0195
 7069W        W11269   2.046   0.745   1.674 -0.1017 -0.0944 -0.0316
 7070W        W11270   0.185   8.390   2.431  0.0015  0.0907 -0.1069
 7071W        W11271   4.148   6.060   3.844 -0.2555 -0.0665  0.2455
 7072W        W11272   3.052   1.686  13.022  0.1413  0.0822  0.0356
 7073W        W11273   0.679   4.576  13.027  0.0808  0.1715 -0.0727
 7074W        W11274   3.658   2.448  10.737  0.0720 -0.1301  0.2270
 7075W        W11275   3.980   0.763   2.972  0.5029 -0.1096 -0.1419
 7076W        W11276   6.996   0.749  12.118 -0.3145 -0.0189 -0.1535
 7077W        W11277   2.349   2.512   2.276 -0.0529 -0.1877 -0.1987
 7078W        W11278   3.012   6.008   4.060 -0.1951 -0.0797 -0.0570
 7079W        W11279   5.274   2.966   3.916 -0.1611  0.2146  0.0231
 7080W        W11280   9.337   8.724   9.747 -0.2241 -0.0224 -0.0605
 7081W        W11281   0.110   0.183   1.127 -0.2514 -0.3511 -0.1202
 7082W        W11282   7.035   1.996   8.979  0.3875 -0.1723  0.0242
 7083W        W11283   9.556   3.016  12.297  0.1280  0.2436 -0.0218
 7084W        W11284   8.674  10.499   2.252  0.2312 -0.2962  0.0287
 7085W        W11285   0.729   9.949  12.120  0.3375  0.0583 -0.2900
 7086W        W11286  10.378  10.069  12.502 -0.3299 -0.0772  0.2291
 7087W        W11287   6.882  10.357   0.317 -0.0024 -0.4469 -0.1941
 7088W        W11288  10.197   9.554   3.542  0.0973  0.3216 -0.0968
 7089W        W11289   1.566   1.043  11.981  0.3118 -0.0326  0.3423
 7090W        W11290   0.438   6.663  12.668 -0.3196  0.1189 -0.3850
 7091W        W11291   2.116   1.257   9.715 -0.4033 -0.3523  0.1875
 7092W        W11292   2.451   7.339  13.374  0.4997  0.0047  0.2602
 7093W        W11293   0.462   8.440   3.400 -0.1116  0.1122  0.0694
 7094W        W11294   2.408   4.003  10.343 -0.2374  0.2080  0.3705
 7095W        W11295   0.981   7.288   4.236 -0.0740  0.0156 -0.0873
 7096W        W11296   8.538   2.783  11.978 -0.4269  0.1659  0.2732
 7097W        W11297   3.295   6.683   2.934  0.3023  0.2131  0.0439
 7098W        W11298   6.462   5.395   9.928  0.1889  0.0367  0.1164
 7099W        W11299   4.872   7.302   2.680 -0.3495 -0.1393  0.0989
 7100W        W11300   1.521  10.335   4.951  0.0899  0.1540 -0.1120
 7101W        W11301   0.987   7.654   2.679  0.3653 -0.0916  0.0263
 7102W        W11302   9.833   9.334   3.769  0.0578 -0.1925 -0.2214
 7103W        W11303   5.747   4.998   3.551 -0.1034 -0.0842  0.0311
 7104W        W11304   4.070   6.837  10.095  0.0334  0.5468  0.0258
 7105W        W11305   5.076   7.437  11.679 -0.0454  0.4748 -0.1794
 7106W        W11306   4.069   8.720  10.089 -0.0241  0.0638 -0.0584
 7107W        W11307   7.396   7.596   2.285 -0.0650  0.0906  0.1917
 7108W        W11308   3.847   3.223  10.171  0.1369  0.2395  0.0102
 7109W        W11309   7.001   3.840   2.834  0.1883 -0.2543  0.2122
 7110W        W11310   3.569   3.285   4.341  0.1084  0.4417 -0.1195
 7111W        W11311   2.062   9.429  12.390  0.2041 -0.3606 -0.0243
 7112W        W11312   9.850   0.923  13.242  0.2533 -0.0923 -0.0044
 7113W        W11313   2.657   8.480  12.315 -0.1314 -0.1867  0.0025
 7114W        W11314   0.514   7.051  11.718  0.1139 -0.0557  0.0682
 7115W        W11315   0.979   5.402  11.822  0.3501  0.0194  0.2224
 7116W        W11316   9.824   0.561   9.897 -0.1161 -0.3154 -0.2807
 7117W        W11317   4.694   9.371   9.739 -0.0481  0.1266 -0.2521
 7118W        W11318   0.908   6.796  13.175  0.2650 -0.0278 -0.0492
 7119W        W11319   0.631   8.496   1.673  0.2417 -0.1824 -0.0238
 7120W        W11320   0.380   3.388   2.052 -0.3121  0.3519 -0.1855
 7121W        W11321  10.198   8.369   9.115 -0.2168 -0.1310 -0.3077
 7122W        W11322   5.249   1.734   2.956  0.1986  0.0885  0.2250
 7123W        W11323   8.362   2.663   4.080  0.0249 -0.1125 -0.2031
 7124W        W11324   2.257   2.341   3.844  0.2599 -0.2228 -0.1899
 7125W        W11325   9.320   5.569  11.017  0.2009 -0.0907 -0.2191
 7126W        W11326   4.543   3.523  12.917  0.2007  0.1140  0.0118
 7127W        W11327   5.896   3.836   0.969 -0.1428 -0.0998  0.3601
 7128W        W11328   7.707   8.042   1.121 -0.3555 -0.1277 -0.1260
 7129W        W11329   7.187  10.266  11.886 -0.0190 -0.1823  0.3102
 7130W        W11330   6.863   9.024   0.715  0.0055 -0.0078 -0.0062
 7131W        W11331   2.703   4.587  10.714 -0.2405 -0.5695  0.1512
 7132W        W11332   2.602   1.112   3.542  0.0511  0.0214 -0.0743
 7133W        W11333   0.054   9.803   4.752 -0.2080  0.1955  0.0300
 7134W        W11334   9.874   7.778  12.784  0.1189  0.0061  0.3219
 7135W        W11335   4.385   5.907   9.267  0.1702  0.3812 -0.0743
 7136W        W11336   1.010   8.578   4.598 -0.0193 -0.0102  0.1929
 7137W        W11337   4.618   6.187   1.032 -0.3004 -0.0596  0.0670
 7138W        W11338   9.265   2.706   9.387  0.0603 -0.1567 -0.1013
 7139W        W11339   6.113   6.690  11.641  0.2210 -0.3103  0.1828
 7140W        W11340   8.165   5.574   1.798  0.0221  0.3633  0.0073
 7141W        W11341   8.237   2.608   1.701 -0.0034 -0.3074 -0.1289
 7142W        W11342   7.625   9.345   1.206 -0.2873 -0.1562 -0.1981
 7143W        W11343   1.383   6.701   3.208  0.1091  0.1187  0.1857
 7144W        W11344  10.399   3.262   2.267  0.0680 -0.0911  0.1977
 7145W        W11345   8.745   0.447   2.132 -0.1150  0.0922 -0.0653
 7146W        W11346   2.387   7.256  12.851 -0.2099 -0.2650 -0.1746
 7147W        W11347   6.905   6.815   0.195 -0.3598  0.2388 -0.2002
 7148W        W11348   2.356   5.554  11.380 -0.1570 -0.0497 -0.2760
 7149W        W11349   0.750   8.050   4.817  0.1579  0.0149  0.3937
 7150W        W11350   3.706   1.480  11.708 -0.1404  0.2131 -0.2526
 7151W        W11351   5.727   6.971  11.834  0.1550  0.1211  0.2105
 7152W        W11352   8.024   9.094   2.447  0.2448  0.0218  0.2477
 7153W        W11353   4.855   6.807   0.804 -0.1938 -0.1179  0.6251
 7154W        W11354   5.273   0.437   4.395  0.1383  0.1970  0.1551
 7155W        W11355   0.852   9.853   3.551  0.0385  0.0015 -0.2140
 7156W        W11356   0.262   6.125   2.143 -0.3952  0.1288 -0.1078
 7157W        W11357   7.337   2.519  10.503 -0.3996  0.1746  0.2824
 7158W        W11358   7.108   8.277  10.990  0.2128  0.0643 -0.1022
 7159W        W11359   9.475  10.401   0.227  0.0199  0.1461  0.2363
 7160W        W11360   0.520  10.133  13.059 -0.0643 -0.2177 -0.3135
 7161W        W11361   0.824   3.428   3.475 -0.1127 -0.1953  0.4529
 7162W        W11362   1.743   3.798  11.339 -0.0432  0.2330  0.1663
 7163W        W11363   0.804   6.290  12.999  0.0511 -0.2597 -0.2438
 7164W        W11364   8.519   1.103   1.623 -0.1267  0.0218  0.1953
 7165W        W11365   0.604   7.702   0.236  0.1501  0.2801  0.1694
 7166W        W11366   4.289   1.198   4.567  0.3469  0.1647 -0.0103
 7167W        W11367   7.729   7.206   0.984 -0.1461 -0.1116 -0.1504
 7168W        W11368   7.025   5.213  11.222  0.1460  0.2052  0.0560
 7169W        W11369   0.449   9.230   3.003 -0.1095 -0.0638 -0.0596
 7170W        W11370   8.181   1.050  12.984  0.2421  0.0101  0.2246
 7171W        W11371   0.372   5.710   3.033 -0.3336 -0.0108 -0.0345
 7172W        W11372   5.200   4.236  11.601 -0.0347  0.2721 -0.3749
 7173W        W11373   3.178   6.370  12.198  0.1808  0.0264 -0.0805
 7174W        W11374   4.345   1.262  12.763  0.0638  0.1655  0.1526
 7175W        W11375   4.681   5.325  11.795  0.0685  0.0040 -0.0739
 7176W        W11376   1.763   0.682  12.732  0.2132 -0.2098  0.0579
 7177W        W11377   4.797   3.873  10.008 -0.1722  0.1882 -0.0191
 7178W        W11378   2.912   2.656  13.359 -0.0147  0.2241  0.0709
 7179W        W11379   0.469   1.958  11.790  0.3666 -0.0284  0.1927
 7180W        W11380   3.592   1.440   1.513  0.0146  0.0003  0.0188
 7181W        W11381   3.238   2.470  12.169 -0.0141  0.1913  0.0951
 7182W        W11382   9.837   8.799   4.212 -0.1952  0.2238 -0.0789
 7183W        W11383   0.572   0.261   4.786  0.0870  0.0250 -0.1546
 7184W        W11384   8.045   5.526  11.429  0.1990 -0.0786  0.3378
 7185W        W11385   7.608   4.728   1.813  0.0010  0.0354  0.0638
 7186W        W11386   8.791   6.854   3.021 -0.1927 -0.2443  0.1179
 7187W        W11387   3.551   6.370  10.765 -0.2186  0.0594  0.0970
 7188W        W11388   5.582   4.654   0.616 -0.2535  0.1648 -0.1921
 7189W        W11389   1.231   9.692   3.264  0.1492 -0.0218  0.1599
 7190W        W11390   7.561   8.618  11.616  0.0005  0.1610  0.1630
 7191W        W11391   5.123   2.966   8.224 -0.0456  0.0151  0.3643
 7192W        W11392   7.503   6.459  12.284  0.1906 -0.0459 -0.0175
 7193W        W11393   2.222   6.736   2.714 -0.3324  0.2475  0.3854
 7194W        W11394   9.763   3.156  11.522 -0.1719 -0.1213  0.0127
 7195W        W11395   9.395   6.350  10.069 -0.0055 -0.1274 -0.4339
 7196W        W11396   1.942   9.427   3.056 -0.1302  0.1034  0.3754
 7197W        W11397   6.377   0.200   2.312 -0.1776 -0.0438  0.0348
 7198W        W11398  10.251   1.098  10.544  0.1274  0.0257 -0.1036
 7199W        W11399   2.355   9.223   0.752 -0.0937  0.1196  0.0708
 7200W        W11400   6.422   6.817  12.868 -0.1482 -0.1118 -0.3002
 7201W        W11401   0.143   1.544   5.127  0.0600 -0.2602 -0.0450
 7202W        W11402   1.147   5.323   2.809 -0.3021 -0.0066 -0.2325
 7203W        W11403   6.431   3.694  11.473 -0.1643 -0.0128  0.0674
 7204W        W11404   0.435   3.004   2.426 -0.3497  0.0598  0.1900
 7205W        W11405   3.305   0.133   1.336 -0.0045  0.0131 -0.1839
 7206W        W11406  10.127   5.241   3.618  0.1887  0.3257 -0.0291
 7207W        W11407   8.328   3.881   3.879 -0.1826  0.1578  0.0376
 7208W        W11408   2.042   9.861   9.335  0.3878  0.0130 -0.0338
 7209W        W11409   2.667   0.487   9.038  0.0950  0.0099 -0.1502
 7210W        W11410   3.925   1.344   1.136 -0.2428  0.0102 -0.3022
 7211W        W11411   9.255   9.404  10.481 -0.0887  0.1361 -0.0999
 7212W        W11412   4.420   9.025   2.199  0.1595  0.2212  0.0534
 7213W        W11413   6.970   7.460  11.695 -0.2532 -0.1385  0.1154
 7214W        W11414   0.559   7.112  13.094 -0.1725 -0.4093 -0.2324
 7215W        W11415   9.352   5.915  10.693 -0.1360 -0.2908  0.3017
 7216W        W11416   0.300   6.168   3.077  0.0113 -0.0364  0.0179
 7217W        W11417   0.308   7.081   0.999 -0.1725 -0.0107 -0.0850
 7218W        W11418   6.704   3.017   0.516 -0.0949  0.0074  0.1628
 7219W        W11419   8.413   3.747   3.392  0.1506 -0.1426  0.1033
 7220W        W11420   6.295   6.953   9.708  0.0596  0.1760  0.0414
 7221W        W11421   3.081   6.474   3.391 -0.0104 -0.1180  0.2889
 7222W        W11422   8.819   3.591   9.614 -0.2956  0.0150  0.2064
 7223W        W11423   2.978   8.373  11.866 -0.0229 -0.0406 -0.0533
 7224W        W11424   6.359   6.438   3.914 -0.1718  0.0411 -0.0940
 7225W        W11425   3.796   7.229   0.243 -0.4911  0.3769 -0.1190
 7226W        W11426   5.067   3.028   4.361  0.0257  0.2540  0.0926
 7227W        W11427   8.084   7.176   9.754  0.0424  0.3151 -0.1540
 7228W        W11428   4.265   2.033   1.452 -0.1209  0.1942  0.2640
 7229W        W11429   6.473   2.167   4.859  0.1473  0.0800 -0.1088
 7230W        W11430   2.691   0.554   0.480  0.1914 -0.1172 -0.0710
 7231W        W11431   5.959   1.997   4.242 -0.0353  0.3844 -0.0279
 7232W        W11432   8.376   8.192   2.829  0.0092  0.3607 -0.0101
 7233W        W11433   6.898   3.157  11.235  0.0794  0.1741 -0.2760
 7234W        W11434   1.943   0.906  12.326 -0.0424 -0.0151  0.3040
 7235W        W11435   5.029   8.126   3.115 -0.3431  0.1256  0.1259
 7236W        W11436   7.728   1.665  13.237  0.0423  0.1203  0.0323
 7237W        W11437   6.373   8.281   9.718 -0.1864 -0.2535  0.0690
 7238W        W11438   9.121   8.166   4.295  0.2024 -0.2301  0.1260
 7239W        W11439   9.472   6.772   5.367  0.0946  0.0973  0.0541
 7240W        W11440   4.726   0.643  11.717  0.1353  0.0453  0.1710
 7241W        W11441   4.071  10.005   1.643  0.1630  0.1448  0.0485
 7242W        W11442   5.326   2.005   9.944 -0.1022 -0.3148  0.0409
 7243W        W11443   4.736   3.300   9.929 -0.1289  0.2292  0.3558
 7244W        W11444   3.451   7.627   3.786  0.0132  0.0039 -0.1406
 7245W        W11445   7.749   8.397   1.959  0.2422 -0.0112 -0.1955
 7246W        W11446   4.014   1.221   1.938  0.0327  0.2719 -0.1331
 7247W        W11447   7.923   9.013  11.224  0.0491  0.0444 -0.0628
 7248W        W11448   1.262   7.841   2.282 -0.1258  0.2254  0.1978
 7249W        W11449   5.309   0.307   9.726  0.1946  0.1533  0.2542
 7250W        W11450   3.561   6.462   2.015  0.0037  0.1156  0.1196
 7251W        W11451   4.760   9.935  10.435  0.0313 -0.0928 -0.1746
 7252W        W11452   4.501   0.438   0.258 -0.0223  0.0214 -0.0226
 7253W        W11453   2.120   3.184  12.959  0.1663  0.0282  0.0784
 7254W        W11454   0.855   2.777  12.224 -0.0110  0.2249  0.0285
 7255W        W11455  10.129   2.118   3.397 -0.0696 -0.1815 -0.2218
 7256W        W11456   2.368   0.839   0.225 -0.0217 -0.1260 -0.0163
 7257W        W11457   8.480   2.232  12.773 -0.2174  0.0449 -0.0434
 7258W        W11458   9.040   4.453  12.197 -0.0980 -0.2370  0.1116
 7259W        W11459   7.118   2.919   2.248  0.2048 -0.1497  0.1073
 7260W        W11460   2.863   7.450   1.478  0.2662  0.0353  0.0118
 7261W        W11461   6.694   5.256   0.418  0.2281  0.1784  0.2065
 7262W        W11462   6.871   3.539  12.076 -0.0123 -0.2031  0.3305
 7263W        W11463   7.904   5.028   3.599 -0.1239 -0.0488  0.2415
 7264W        W11464   2.265   3.616  11.297  0.1675  0.2994  0.0477
 7265W        W11465   4.521   4.674   9.074  0.2433  0.0699  0.1906
 7266W        W11466   8.754   0.187  10.723 -0.1581  0.1860  0.0529
 7267W        W11467   0.108   7.146  10.898  0.0159  0.3246  0.0245
 7268W        W11468   5.534   5.323   2.707 -0.0938 -0.1012 -0.1178
 7269W        W11469   0.979   0.701  10.420  0.0872  0.2111 -0.3503
 7270W        W11470   7.745   4.437   3.339 -0.1044 -0.0337 -0.2784
 7271W        W11471   7.774   3.814   1.408 -0.0720 -0.0854 -0.1230
 7272W        W11472   1.287   9.815  12.494  0.1667  0.0674 -0.1144
 7273W        W11473   5.225   1.744  10.357  0.0229 -0.0032  0.2261
 7274W        W11474   5.822   5.904   1.314 -0.2744 -0.2462  0.3356
 7275W        W11475   6.848   4.534   4.469 -0.1207 -0.0547 -0.0096
 7276W        W11476   4.497   6.787  11.469 -0.1411 -0.0095 -0.4080
 7277W        W11477   7.759  10.231  10.600 -0.2067 -0.0316 -0.0499
 7278W        W11478   6.244   7.618  12.003 -0.0126  0.4950 -0.3285
 7279W        W11479   6.078   5.566   2.963  0.0164  0.3607 -0.2108
 7280W        W11480   4.550   0.839  10.654  0.2329 -0.2462 -0.0403
 7281W        W11481   8.222   6.445  12.373  0.2712 -0.2736  0.0149
 7282W        W11482   4.758   6.006   2.659  0.0490 -0.2845 -0.0919
 7283W        W11483   2.737   4.247  11.089  0.1005 -0.1270  0.0111
 7284W        W11484   7.630   0.014   1.168  0.0661 -0.1229  0.0243
 7285W        W11485   4.381   3.716   9.756 -0.3431 -0.0210  0.2042
 7286W        W11486   7.003   1.578   1.844 -0.2812 -0.1614 -0.0618
 7287W        W11487   6.590   7.874   1.421  0.3683  0.3647 -0.1173
 7288W        W11488   6.319   7.450  10.855  0.0143 -0.5513 -0.0548
 7289W        W11489   8.677   2.209   1.373  0.0302  0.0871  0.2415
 7290W        W11490   9.553   5.430   9.844  0.3587  0.0795  0.4308
 7291W        W11491   8.456   5.235  10.619 -0.0366 -0.0361 -0.1241
 7292W        W11492   2.748   8.522   2.859 -0.0333 -0.0330  0.1771
 7293W        W11493   0.410   1.459   2.939 -0.1770  0.3593 -0.1312
 7294W        W11494   3.721   6.769   0.200 -0.0916  0.0574 -0.3679
 7295W        W11495   7.577   4.107   8.359  0.0776  0.0356  0.0347
 7296W        W11496   4.359   5.200  11.326 -0.0495 -0.0727 -0.1290
 7297W        W11497   1.637   8.571   1.486 -0.0942 -0.0411 -0.2052
 7298W        W11498   7.324   3.744   9.568  0.1438  0.0888  0.2593
 7299W        W11499   3.742   2.180  10.361 -0.2619  0.4216  0.2484
 7300W        W11500  10.465   9.323   3.209 -0.2442 -0.4048 -0.3230
 7301W        W11501   4.899   5.405   3.589 -0.2802 -0.0993  0.1753
 7302W        W11502   1.411   5.422   8.536  0.2544 -0.0965  0.3286
 7303W        W11503   0.414   5.595   3.870  0.0935 -0.0688  0.1497
 7304W        W11504   7.509   8.014  11.270  0.2056  0.0287 -0.1173
 7305W        W11505   1.533   2.106   3.400 -0.1226  0.1630  0.0274
 7306W        W11506   3.989   8.666  13.068 -0.2459  0.0589 -0.1078
 7307W        W11507  10.174   9.307  11.026  0.3814 -0.1528  0.0965
 7308W        W11508   2.790   1.624   0.382  0.1812 -0.1847 -0.0573
 7309W        W11509   0.136   6.646   5.856  0.1433  0.4916  0.0687
 7310W        W11510   7.395   6.018   0.422  0.1555  0.1242  0.2938
 7311W        W11511   5.644   1.925  10.405  0.1339  0.0431  0.1234
 7312W        W11512   0.849   4.695   3.120  0.0385  0.2878 -0.0716
 7313W        W11513   4.097   3.302   9.671  0.1084  0.2053  0.2798
 7314W        W11514  10.483   4.536  12.712  0.1892 -0.3375 -0.0165
 7315W        W11515   8.157   0.389  12.444  0.3128 -0.2570 -0.1358
 7316W        W11516   3.148   2.836   2.571  0.0347 -0.3949  0.1282
 7317W        W11517   8.195   7.356  10.731  0.1976  0.3451 -0.1489
 7318W        W11518   7.775   2.790  12.526  0.0905  0.1729  0.1581
 7319W        W11519   0.374   4.175   0.845  0.0485 -0.1784 -0.1124
 7320W        W11520   6.410   9.506  11.234 -0.2337 -0.0469  0.1067
 7321W        W11521   1.197   7.336   0.581 -0.0088  0.0926 -0.1141
 7322W        W11522   3.718   1.501   4.232  0.1481  0.1049 -0.0770
 7323W        W11523   9.074   8.470  11.397  0.3227 -0.0291  0.2540
 7324W        W11524   4.929   8.723  12.282 -0.0712  0.0116  0.0709
 7325W        W11525   6.905   2.480  10.234  0.0342  0.2317  0.1355
 7326W        W11526   8.134   9.480   3.458  0.1970 -0.3950  0.4026
 7327W        W11527   1.492   1.361   1.330 -0.1206 -0.0760 -0.3712
 7328W        W11528   3.431   2.458  12.900 -0.1917  0.2361 -0.2864
 7329W        W11529   7.009   0.193   0.727  0.0600 -0.1817  0.1887
 7330W        W11530   9.067   4.452   3.577  0.1381  0.2103  0.0488
 7331W        W11531   4.641   5.832  11.604 -0.0329 -0.0258 -0.0267
 7332W        W11532   7.410   4.146   8.794  0.1821 -0.1341 -0.3627
 7333W        W11533   4.854   9.297   0.142 -0.0176 -0.0354 -0.4127
 7334W        W11534   9.452   9.529   2.980 -0.3384  0.0238  0.0119
 7335W        W11535   0.122   6.215   9.373 -0.3933  0.3162  0.1173
 7336W        W11536   0.110   7.010   1.777  0.3616 -0.5186 -0.2248
 7337W        W11537   2.871   9.164  10.494 -0.2087  0.0076 -0.1168
 7338W        W11538   7.837   1.297   9.344 -0.1321  0.1715  0.0828
 7339W        W11539   6.556   5.808  10.195  0.0084  0.3925 -0.1206
 7340W        W11540   1.590   4.692   4.135  0.0074  0.0699 -0.1058
 7341W        W11541   5.619   2.321   0.257 -0.0731  0.1840  0.0953
 7342W        W11542   3.030   9.973  11.631  0.0003 -0.2256 -0.0626
 7343W        W11543   0.089   1.569   9.227 -0.1674 -0.1040  0.3532
 7344W        W11544   0.645   0.020   5.203 -0.0412  0.0859  0.1848
 7345W        W11545  10.363   9.844  10.954  0.1759  0.4957 -0.0937
 7346W        W11546   9.823  10.403   3.050 -0.0190  0.1067 -0.2236
 7347W        W11547   2.184   2.396   3.354  0.2004 -0.2782  0.1376
 7348W        W11548   9.258   0.334  10.764  0.2011 -0.0827 -0.2345
 7349W        W11549   4.826  10.458  12.488 -0.2907  0.3333 -0.0563
 7350W        W11550   7.255   0.713  11.677 -0.0446  0.2074  0.0587
 7351W        W11551   7.662   5.525   1.959 -0.0663 -0.1188  0.1949
 7352W        W11552   9.947   6.845  11.096 -0.0745 -0.2442  0.0924
 7353W        W11553   7.679   6.423  10.050 -0.1490 -0.1858  0.0632
 7354W        W11554   5.802   5.451   1.536  0.0088 -0.2221  0.4077
 7355W        W11555   1.626   5.651   4.569 -0.1866 -0.1365 -0.1171
 7356W        W11556   3.648  10.000   1.951 -0.1318 -0.1563 -0.0455
 7357W        W11557   6.712   5.943   1.157 -0.0793 -0.1266 -0.0082
 7358W        W11558   8.784  10.414  11.961 -0.0765 -0.1425  0.0994
 7359W        W11559   0.506   2.687   0.106  0.1246 -0.1488  0.0021
 7360W        W11560   4.327   1.474  11.620  0.0025 -0.1940  0.2649
 7361W        W11561   5.309   2.009  10.837  0.0309  0.4840 -0.0144
 7362W        W11562   0.154  10.121   1.484 -0.1861 -0.0093  0.2058
 7363W        W11563   7.222   5.768   1.902  0.2593  0.0361  0.1360
 7364W        W11564   9.417   9.362   2.348  0.2201  0.3789  0.0991
 7365W        W11565  10.269   8.094   2.362 -0.2472  0.1488 -0.2240
 7366W        W11566   2.965   0.854  11.291  0.0793  0.1741  0.0745
 7367W        W11567   4.547  10.212   3.481  0.0111 -0.0293  0.0526
 7368W        W11568   6.006   2.241  10.492  0.5092 -0.1391 -0.3256
 7369W        W11569   4.028   0.231   0.295  0.1507 -0.3040 -0.0608
 7370W        W11570   7.132   8.305  11.477 -0.1577 -0.1517 -0.0557
 7371W        W11571   3.619   8.593  10.251 -0.0480  0.0392  0.2808
 7372W        W11572   7.637   8.608   1.253  0.0742  0.0542 -0.0309
 7373W        W11573   7.033   8.022   2.416  0.0418 -0.1786  0.0015
 7374W        W11574   0.117   0.860  10.168 -0.0486  0.1118 -0.2043
 7375W        W11575   9.554  10.197   4.057 -0.2158  0.2007 -0.2307
 7376W        W11576   4.131   7.305   1.070  0.1582  0.2898  0.1747
 7377W        W11577   6.658   6.334   2.617  0.3030  0.0939 -0.0451
 7378W        W11578   4.242   4.184  11.709  0.1151  0.3107 -0.3019
 7379W        W11579   7.557   7.026   3.038  0.2423 -0.0978  0.3055
 7380W        W11580   0.840   7.086   4.774 -0.0309 -0.0990 -0.0303
 7381W        W11581   9.364   4.042   1.468  0.1403  0.0170 -0.0806
 7382W        W11582   0.431  10.504   2.384 -0.0900  0.1243  0.1152
 7383W        W11583   0.159   8.383   1.519 -0.1380  0.1787  0.1562
 7384W        W11584   1.823   7.606  12.678 -0.0339 -0.1156 -0.0971
 7385W        W11585   0.630   4.858   4.614 -0.0111  0.1050 -0.1418
 7386W        W11586   5.825   8.036  11.003 -0.0565  0.2311 -0.0415
 7387W        W11587   1.326   1.686   4.478 -0.0416  0.0659 -0.0482
 7388W        W11588   3.879   9.314  11.592 -0.1775 -0.0552 -0.2517
 7389W        W11589  10.460   6.316   0.771 -0.2420  0.2115  0.0710
 7390W        W11590   6.989   5.525  10.182  0.0845 -0.1015  0.1059
 7391W        W11591  10.007   8.532  12.112 -0.0018  0.0215 -0.2307
 7392W        W11592   1.339   0.237   8.138 -0.1526  0.4146  0.3349
 7393W        W11593  10.459   2.296   1.354  0.2310  0.1779  0.1753
 7394W        W11594   5.359   8.576  12.362 -0.0783  0.1242 -0.1927
 7395W        W11595   2.228   8.635   0.895 -0.1076 -0.1692 -0.0162
 7396W        W11596   8.901   3.379   9.107  0.0754 -0.1126 -0.0040
 7397W        W11597  10.160   6.046  13.218  0.2773 -0.0058  0.2419
 7398W        W11598   8.952   3.169   3.574  0.4443  0.1014  0.1198
 7399W        W11599   7.894   6.667  13.046 -0.2319  0.2633 -0.2493
 7400W        W11600   4.272   3.114  11.235 -0.0202 -0.0035 -0.1437
 7401W        W11601   7.791   0.618   0.965  0.0627 -0.3463  0.0814
 7402W        W11602   7.018   7.756   2.001 -0.2370 -0.1351  0.0258
 7403W        W11603   9.540   4.728  12.135  0.2837  0.1493  0.2218
 7404W        W11604   2.970   8.054  12.262 -0.0758 -0.0269  0.0303
 7405W        W11605   5.847   7.971  12.848  0.0692 -0.1419  0.1772
 7406W        W11606   4.759   1.861  12.654 -0.1477  0.4173  0.0188
 7407W        W11607   2.340   5.107  12.141 -0.2582 -0.2031  0.5522
 7408W        W11608   1.547   1.770   2.263 -0.4894 -0.1155 -0.0173
 7409W        W11609   4.770   9.218  11.089  0.0473 -0.2327 -0.1946
 7410W        W11610   7.592   2.274   3.862  0.0436  0.0350 -0.0786
 7411W        W11611   7.569   2.607  11.310  0.3560  0.2935  0.3301
 7412W        W11612   3.065  10.296   0.395 -0.0095 -0.0898 -0.0498
 7413W        W11613  10.104   7.980   9.630 -0.4079  0.1006  0.2393
 7414W        W11614   1.741   0.910   2.198  0.1357 -0.1000 -0.1177
 7415W        W11615   3.051   2.131   3.993 -0.0028  0.0378  0.2252
 7416W        W11616   4.468   6.701   3.859  0.2731 -0.0445 -0.1869
 7417W        W11617   6.630   4.019   3.097 -0.0072 -0.3111 -0.0180
 7418W        W11618   9.665   1.064   3.585  0.2213  0.1303 -0.1191
 7419W        W11619   8.978   7.283   9.833  0.1497  0.0583  0.1168
 7420W        W11620   1.793  10.356  11.013  0.1061  0.0529 -0.3068
 7421W        W11621   9.725   5.174   0.265 -0.0210 -0.2304  0.3022
 7422W        W11622   0.914   5.755  12.872 -0.0793  0.1549  0.0368
 7423W        W11623   8.289   7.049   0.437 -0.1479  0.0373  0.1081
 7424W        W11624   6.756   8.075  13.149  0.1566 -0.0302  0.3490
 7425W        W11625   9.137   9.961   1.496 -0.4754  0.0513 -0.1719
 7426W        W11626   8.838   4.351   3.108 -0.1892  0.3642  0.0708
 7427W        W11627   3.592   2.911   3.743 -0.0080  0.3809 -0.0292
 7428W        W11628   0.934   0.198   0.992  0.1288  0.0926 -0.0193
 7429W        W11629   4.756   2.209  13.083  0.2358  0.1786 -0.1399
 7430W        W11630   5.499   5.101   4.048  0.0552 -0.0758 -0.5034
 7431W        W11631   7.068   4.823   3.102  0.3312 -0.1412  0.0495
 7432W        W11632   4.100   2.440   8.680 -0.1860 -0.2511 -0.1148
 7433W        W11633   4.989   7.180   9.811  0.0555 -0.0669 -0.0205
 7434W        W11634   0.733   5.265  10.448  0.0570  0.0472 -0.1705
 7435W        W11635   7.663   6.627   1.663  0.1579  0.0140  0.3488
 7436W        W11636   6.822   7.071  12.052 -0.3191 -0.0451  0.1257
 7437W        W11637   1.167   6.860   4.036 -0.1163  0.0700  0.0124
 7438W        W11638   1.188   6.148   3.244 -0.1384  0.4888  0.3196
 7439W        W11639   5.902   4.920  12.630  0.3076 -0.0573  0.1785
 7440W        W11640   2.853   9.403   0.577  0.0933 -0.2769  0.0169
 7441W        W11641   1.867   9.245   0.798  0.0304 -0.0466 -0.0083
 7442W        W11642   0.960  10.036   9.086  0.0085  0.1204 -0.1167
 7443W        W11643   5.987   6.624  13.175  0.0004 -0.0171 -0.3007
 7444W        W11644   8.961   3.530   0.464 -0.2150  0.0312 -0.1218
 7445W        W11645   5.815   1.696   2.864 -0.0234 -0.1190  0.2204
 7446W        W11646   6.259   1.856  12.646 -0.0227 -0.0599  0.2123
 7447W        W11647   0.751   1.634   9.680  0.1133  0.3088 -0.0110
 7448W        W11648   4.042   6.208   9.515  0.0432  0.3733  0.0439
 7449W        W11649   4.801   3.222  10.452 -0.1221  0.1716  0.0842
 7450W        W11650   8.221   8.944  12.914  0.0258 -0.2251 -0.3336
 7451W        W11651   4.175   8.985  11.853  0.1697 -0.2322  0.0024
 7452W        W11652   8.430   4.806  10.850 -0.2687 -0.0717  0.0082
 7453W        W11653   4.127   4.614  10.066 -0.0364  0.1956 -0.0561
 7454W        W11654   9.692   1.389   9.655  0.1164 -0.1065 -0.3014
 7455W        W11655   4.048   9.888   3.815  0.3365  0.0261 -0.0028
 7456W        W11656  10.040   1.372   9.295  0.1675  0.0145  0.0388
 7457W        W11657   3.514  10.127   4.462  0.0262 -0.3200 -0.1450
 7458W        W11658   1.136   8.117   3.834  0.1665 -0.0365  0.0784
 7459W        W11659   5.143   8.134   2.588 -0.1440  0.5457  0.2614
 7460W        W11660   5.215   9.638  10.416  0.0865 -0.0982 -0.1488
 7461W        W11661   7.866   4.093   3.846  0.1837 -0.0031  0.3842
 7462W        W11662   8.403   9.180  10.494  0.0014  0.2055 -0.1021
 7463W        W11663   8.937   3.300   1.024  0.2236 -0.1646  0.0010
 7464W        W11664   2.533   2.162  10.331 -0.1151  0.2059  0.0909
 7465W        W11665   8.229   5.945   8.967  0.0199  0.0497  0.0137
 7466W        W11666   7.607   8.033  12.323  0.0096  0.0674  0.1838
 7467W        W11667   1.777   1.195  12.735 -0.0503  0.0633  0.0755
 7468W        W11668   6.057   7.087  11.322 -0.0299  0.1054  0.2452
 7469W        W11669   2.379   3.336   1.155 -0.0171 -0.3255 -0.3066
 7470W        W11670   7.643   7.667   0.763 -0.0398 -0.1465  0.4160
 7471W        W11671   2.937   1.673  10.633  0.2349  0.0046  0.0766
 7472W        W11672   9.111   0.228  12.174  0.1757 -0.0520 -0.1366
 7473W        W11673   1.834   8.620   4.354  0.2803 -0.2687  0.1865
 7474W        W11674   8.919   1.499   4.451  0.2069  0.1185 -0.2196
 7475W        W11675   2.484   8.279   1.712 -0.0352 -0.0049 -0.0328
 7476W        W11676   1.175   5.810   0.954 -0.2013 -0.3543 -0.1923
 7477W        W11677   2.904  10.427  12.929  0.0526 -0.0589  0.3373
 7478W        W11678   7.880   8.980   9.094  0.3125  0.0728 -0.4684
 7479W        W11679   9.040   0.681  10.308 -0.0417  0.0324 -0.0711
 7480W        W11680   1.160   8.624   1.618  0.0499 -0.1324 -0.0712
 7481W        W11681   9.046   3.506  12.047 -0.0116 -0.0471  0.2224
 7482W        W11682   6.078   5.677  10.216  0.2697 -0.1334 -0.2029
 7483W        W11683   6.820   7.616  12.137 -0.1500  0.0338  0.1207
 7484W        W11684   5.577   2.917   1.434 -0.1363 -0.2369  0.2500
 7485W        W11685   0.542   9.029   9.517 -0.0899 -0.2290  0.0118
 7486W        W11686   3.996   9.115   0.439  0.1885 -0.0453 -0.3775
 7487W        W11687   2.446   4.945   1.595  0.1545 -0.0705  0.0573
 7488W        W11688   8.648   5.311   1.592  0.0085  0.0576  0.0853
 7489W        W11689   8.089   7.993   0.786 -0.2933  0.0934  0.1435
 7490W        W11690   5.649   5.111   0.554 -0.1563  0.0144 -0.0444
 7491W        W11691   6.209   6.168  13.363 -0.1916 -0.2296 -0.0163
 7492W        W11692   7.412   4.258   1.042  0.1740 -0.0684 -0.2554
 7493W        W11693   9.189   9.733   0.904 -0.2962  0.0608 -0.1140
 7494W        W11694   4.553   6.002   0.442 -0.0923  0.1022 -0.1013
 7495W        W11695   2.014   9.684   3.547  0.0436  0.3110  0.1772
 7496W        W11696   2.206   9.801   4.059 -0.1804 -0.0083 -0.1375
 7497W        W11697   6.858   2.657   5.459  0.0242  0.0007 -0.0591
 7498W        W11698   0.267  10.401   4.603 -0.2297 -0.0821  0.0490
 7499W        W11699   7.342   9.450  12.055  0.0222 -0.2919 -0.2213
 7500W        W11700   1.410   0.559  10.724  0.1992 -0.1593 -0.1035
 7501W        W11701   5.807   8.661   3.640  0.0473  0.0532  0.0586
 7502W        W11702   1.156   0.552  12.544 -0.1292  0.1500  0.1556
 7503W        W11703   9.843   5.924   9.383 -0.0521 -0.0814 -0.0624
 7504W        W11704   0.910   3.803   1.747  0.2840 -0.0586 -0.1867
 7505W        W11705   4.967   1.796   8.995  0.1255  0.0970 -0.0860
 7506W        W11706   4.362   4.372  12.542 -0.0595  0.0696  0.2797
 7507W        W11707   9.566   0.649  10.318  0.0031  0.0800  0.1104
 7508W        W11708   1.791   0.188   0.359 -0.1564  0.0941 -0.0605
 7509W        W11709   9.136   7.017   0.344  0.1148  0.0854  0.3018
 7510W        W11710   6.544   5.409   2.411 -0.0582 -0.0332 -0.0829
 7511W        W11711   5.188   7.659   2.846  0.1539  0.1763 -0.1444
 7512W        W11712   9.638   7.936  10.143  0.0637  0.0952  0.1417
 7513W        W11713   0.939   3.672   1.246 -0.1296 -0.0274  0.0814
 7514W        W11714   7.914   3.915   3.385  0.2010  0.0773 -0.0466
 7515W        W11715   8.049   8.226   3.237 -0.1966 -0.2664  0.1333
 7516W        W11716   6.170   7.066   0.446 -0.1091  0.0254  0.0579
 7517W        W11717  10.049   4.317   2.695 -0.0308  0.2110  0.1360
 7518W        W11718  10.363   1.593   4.646 -0.5791 -0.0430 -0.1422
 7519W        W11719   8.492   3.991  10.348  0.0617  0.3066  0.1840
 7520W        W11720   7.100   0.171  12.951  0.2782 -0.2552 -0.3254
 7521W        W11721   1.791   0.181   3.794 -0.0363 -0.1928 -0.0333
 7522W        W11722   5.573   0.912  12.983  0.2861  0.0647 -0.2481
 7523W        W11723   3.656   5.857   0.515 -0.0152  0.0494  0.3411
 7524W        W11724   8.479   3.695   9.129  0.0603 -0.1619 -0.1777
 7525W        W11725   9.647   5.518  13.189 -0.0243  0.3128 -0.1572
 7526W        W11726   8.367   1.824  12.326  0.1737  0.0187 -0.0194
 7527W        W11727   1.796   3.602  12.657 -0.0688 -0.4462 -0.2497
 7528W        W11728   5.556   1.297  12.173 -0.1484  0.2501 -0.2588
 7529W        W11729   0.134   2.424   5.280 -0.1844 -0.2804  0.1775
 7530W        W11730   9.511   2.075   0.374 -0.1085 -0.4029 -0.2622
 7531W        W11731   9.489   8.440  12.276  0.0238  0.1911  0.0407
 7532W        W11732   3.040   2.142   1.904 -0.0763 -0.3312  0.0348
 7533W        W11733   9.298   4.444   4.638  0.0457  0.1260  0.1196
 7534W        W11734   5.308   7.461   1.309 -0.1050 -0.1856 -0.1615
 7535W        W11735   4.549   6.168  11.109  0.2684  0.0419 -0.2656
 7536W        W11736   3.514  10.343   2.259 -0.1468 -0.0755 -0.1955
 7537W        W11737   5.265   2.653   4.718 -0.0839 -0.3344  0.2510
 7538W        W11738   0.261   6.424  12.218  0.3185 -0.0195  0.0316
 7539W        W11739   7.210   8.461   1.486  0.1593  0.0922 -0.2760
 7540W        W11740   8.577   4.392  12.155 -0.0496  0.0748 -0.0329
 7541W        W11741   6.457   6.693   1.131 -0.0678  0.2419 -0.1598
 7542W        W11742  10.240   6.477   0.230 -0.2675  0.0088 -0.0592
 7543W        W11743   6.465   3.571   0.349  0.1010 -0.0645 -0.1903
 7544W        W11744   0.869   9.336   1.064 -0.2405 -0.1337 -0.1486
 7545W        W11745   7.112  10.029  10.842 -0.2866 -0.0580 -0.2144
 7546W        W11746   0.761   1.892   1.603 -0.0921  0.2452 -0.1713
 7547W        W11747   4.610   6.100   2.004  0.0614  0.4043  0.3017
 7548W        W11748   9.755   3.640   9.254  0.2026 -0.0318 -0.2395
 7549W        W11749   8.942   3.765  10.390  0.1211 -0.0498 -0.0793
 7550W        W11750   4.196   0.436   1.800 -0.0999  0.1085 -0.3132
 7551W        W11751   7.453   4.533   2.860  0.0041  0.3882 -0.2602
 7552W        W11752   0.834   9.499   9.600 -0.2401  0.2761  0.0283
 7553W        W11753   7.910   1.281  13.365 -0.0669 -0.1301 -0.1338
 7554W        W11754   2.470   5.076  10.835  0.2684  0.2678 -0.0079
 7555W        W11755   8.942   9.170   3.624 -0.0401 -0.2790  0.1047
 7556W        W11756   7.261   2.926   9.529 -0.1190  0.2825  0.0850
 7557W        W11757   7.618   2.070   4.457  0.1518  0.3095 -0.2837
 7558W        W11758   4.294   6.800   0.938  0.2949  0.0799  0.3816
 7559W        W11759   1.788   6.855   3.482 -0.0271  0.1477 -0.1019
 7560W        W11760   9.115   5.618   3.439 -0.0909  0.0255 -0.3489
 7561W        W11761   4.461   0.898  12.300  0.1419 -0.2043  0.1685
 7562W        W11762   0.651   8.523   2.493  0.0275 -0.0107  0.2807
 7563W        W11763   7.218   7.274  10.450  0.0863 -0.2135 -0.0288
 7564W        W11764   9.546   8.724  12.668 -0.1696  0.4266 -0.4760
 7565W        W11765   2.353   8.053   3.180 -0.1129  0.1962 -0.0235
 7566W        W11766   4.894   9.239  10.250  0.0282  0.2489 -0.2816
 7567W        W11767   4.283   8.303  10.015 -0.5155  0.0902  0.1115
 7568W        W11768   6.248   3.638   9.174  0.2182 -0.1312  0.0176
 7569W        W11769   3.235   1.341  11.919  0.2241 -0.1218 -0.1117
 7570W        W11770   4.468   4.938   5.076 -0.1239  0.0873 -0.0226
 7571W        W11771   5.066   6.077   0.681 -0.0379  0.1403  0.0396
 7572W        W11772   4.375   2.277   0.228  0.0397 -0.2511  0.1274
 7573W        W11773   5.380   9.841   0.861  0.0615 -0.0693 -0.4005
 7574W        W11774   6.132   3.098   9.851  0.0969 -0.1177 -0.1643
 7575W        W11775  10.130   3.146   1.237 -0.1231  0.0430 -0.0917
 7576W        W11776   6.704   0.738   0.052  0.1559 -0.1835  0.1987
 7577W        W11777   5.532  10.457   1.568  0.2378  0.1386  0.2501
 7578W        W11778   4.688   7.171  13.138 -0.2654 -0.0054 -0.0548
 7579W        W11779   5.629  10.370  10.244  0.0571 -0.0959 -0.0494
 7580W        W11780   8.133   4.975   2.532 -0.1404  0.0773 -0.2133
 7581W        W11781   5.836   8.892   0.980 -0.1730 -0.2912  0.1276
 7582W        W11782   5.685   7.164   1.113 -0.0148  0.0756  0.1898
 7583W        W11783  10.500   6.619   4.580  0.1456  0.1995 -0.0614
 7584W        W11784   2.218   8.775   3.461 -0.1991  0.0864 -0.0437
 7585W        W11785   8.282   4.149   8.958  0.1999 -0.1240 -0.4344
 7586W        W11786   8.917   6.955   4.646  0.1689  0.3346  0.0493
 7587W        W11787   5.706   4.707   1.865  0.0436  0.1365  0.0455
 7588W        W11788   2.439   9.589   2.962 -0.1440  0.0629 -0.0368
 7589W        W11789   1.305   3.611   2.015 -0.0832  0.0866 -0.1905
 7590W        W11790   5.204   8.335   9.806 -0.0427  0.1661 -0.3772
 7591W        W11791   2.603   8.658  11.753 -0.1154  0.2326 -0.1473
 7592W        W11792   7.268   3.853  10.506 -0.1347 -0.2420  0.0743
 7593W        W11793   5.256   1.998  12.946  0.2251  0.1203  0.1830
 7594W        W11794   9.855   6.476   5.168 -0.2352 -0.1145  0.0714
 7595W        W11795   9.675   7.684   3.225  0.0861 -0.0443 -0.2687
 7596W        W11796   6.032   2.658   4.150 -0.1107  0.0033  0.0558
 7597W        W11797   7.198   2.907  11.542 -0.0649 -0.0633  0.1754
 7598W        W11798   5.673   8.878   1.502 -0.1963  0.3913 -0.2401
 7599W        W11799   6.923   6.556  12.134  0.4512 -0.2610 -0.3232
 7600W        W11800   9.076   1.858   0.984 -0.1526 -0.0168 -0.1671
 7601W        W11801   5.054   6.416  12.551 -0.0119  0.1691 -0.0794
 7602W        W11802   5.097   2.148   0.983 -0.0460  0.2569 -0.1228
 7603W        W11803   0.233   9.588  10.407 -0.0485  0.0479  0.1068
 7604W        W11804   8.787   4.118   3.943 -0.0543 -0.2214  0.0127
 7605W        W11805   8.229   3.774   1.980  0.3135  0.3574 -0.1055
 7606W        W11806   2.116   1.032  11.808  0.2421 -0.2457  0.1190
 7607W        W11807   3.764  10.296  11.302  0.0602  0.1729 -0.2836
 7608W        W11808   7.677  10.406  12.113 -0.4559  0.2372  0.0258
 7609W        W11809   7.091   6.153  12.336  0.1612  0.3048  0.0161
 7610W        W11810   5.685   2.576  11.636 -0.3044 -0.0960  0.2257
 7611W        W11811   6.124   2.634   2.365  0.2491  0.0577  0.0524
 7612W        W11812   3.423   5.391   0.461 -0.3583 -0.4158  0.1121
 7613W        W11813   0.664   2.950  12.644  0.0247  0.4225  0.1046
 7614W        W11814   4.516   2.155   8.800 -0.1572  0.0611 -0.0256
 7615W        W11815  10.252   5.974   8.469  0.0871 -0.3339 -0.0264
 7616W        W11816   7.064   9.793  11.809  0.2000 -0.2787 -0.0899
 7617W        W11817   0.772   2.465   3.523  0.2202 -0.1049 -0.0173
 7618W        W11818   9.233   4.665  12.577  0.2131  0.0372 -0.2346
 7619W        W11819   1.102   4.243  10.796  0.0555  0.0988  0.0900
 7620W        W11820   6.837   7.264   2.754  0.0777  0.1447 -0.0073
 7621W        W11821   0.576   3.832   3.779  0.1067 -0.0490 -0.4103
 7622W        W11822   7.912   8.195   9.799  0.0886  0.3660  0.2289
 7623W        W11823   8.041   8.662   4.501 -0.0407 -0.2545  0.2232
 7624W        W11824  10.147   5.398   9.663 -0.1936  0.2119  0.2249
 7625W        W11825   3.879   7.471   3.554 -0.2490 -0.2817 -0.0704
 7626W        W11826   0.166   5.105   0.550  0.1701  0.1064 -0.2816
 7627W        W11827   1.108   4.690   1.126 -0.3240  0.0683  0.1253
 7628W        W11828   2.129   0.393  11.915  0.2496 -0.3409  0.0733
 7629W        W11829   9.061   5.375   2.030  0.0947  0.0888  0.2421
 7630W        W11830   3.485   8.582   3.245 -0.0438 -0.0449 -0.2144
 7631W        W11831   7.926   4.665  10.880  0.0925  0.0497  0.3818
 7632W        W11832   8.545   9.612   2.694  0.0566  0.1545 -0.1928
 7633W        W11833   2.956   4.433   0.948 -0.0170  0.0475  0.1349
 7634W        W11834   0.291   9.816   3.552  0.2607  0.2370  0.1418
 7635W        W11835   0.276   8.964   3.399 -0.1747  0.3664 -0.0043
 7636W        W11836   0.165   2.822  10.731  0.2074 -0.2233 -0.1674
 7637W        W11837   7.797   4.462   1.323  0.0852 -0.0492 -0.1754
 7638W        W11838   3.196   1.359   4.400 -0.2969  0.1194  0.1662
 7639W        W11839   8.352   1.448  13.242 -0.1005  0.1946 -0.2841
 7640W        W11840  10.269   8.129   4.929 -0.2009  0.0065 -0.1011
 7641W        W11841   1.320   7.042  13.357 -0.1756  0.0723 -0.1591
 7642W        W11842   2.725   9.115  11.121 -0.1269 -0.0043 -0.0305
 7643W        W11843   8.798   9.507  10.690 -0.0916  0.0648  0.3166
 7644W        W11844   0.715   6.217  10.056  0.2814 -0.0875 -0.0043
 7645W        W11845   6.785   9.398   0.265 -0.1220  0.0308  0.1961
 7646W        W11846   7.778   2.323   0.712  0.1747  0.1277  0.3078
 7647W        W11847   5.073   2.523  12.862  0.0887 -0.3395  0.2419
 7648W        W11848   5.177   7.115  13.178  0.3198  0.1029 -0.1390
 7649W        W11849   4.030  10.323   3.148  0.1351  0.1196  0.2091
 7650W        W11850   3.480   2.114   3.646 -0.1300  0.0832  0.1285
 7651W        W11851   8.958   9.280  12.918  0.0528 -0.3769  0.3529
 7652W        W11852   3.235   6.710  12.716 -0.0876 -0.4743 -0.1664
 7653W        W11853  10.334   1.576  12.680  0.2295 -0.2322  0.0371
 7654W        W11854   4.333   0.748  12.773 -0.1016 -0.1977 -0.0370
 7655W        W11855   9.560   9.149   5.513 -0.2585 -0.2556  0.1317
 7656W        W11856   0.421   4.448  10.641 -0.3459 -0.2393  0.1700
 7657W        W11857   8.399   4.273   1.961  0.6849  0.3790  0.2304
 7658W        W11858   4.268   2.009  13.234  0.0328 -0.2501 -0.2045
 7659W        W11859   4.546   4.253   9.306 -0.0694  0.1421 -0.0189
 7660W        W11860   7.554   3.259   1.315 -0.1875  0.0668 -0.1250
 7661W        W11861   1.209   9.524   9.273  0.2541  0.0826  0.2230
 7662W        W11862   2.506   8.084   3.955 -0.1340 -0.1303  0.1561
 7663W        W11863   2.182   1.112   5.045 -0.0519 -0.0282  0.3871
 7664W        W11864   0.262   8.345   4.757 -0.0323  0.1525  0.0998
 7665W        W11865   6.313   5.995   0.430 -0.0270 -0.1670 -0.0069
 7666W        W11866   6.320   5.920   2.491 -0.0897  0.2009  0.0267
 7667W        W11867   3.383   0.605   2.961  0.3682 -0.0507 -0.1834
 7668W        W11868   9.653   1.425  11.116 -0.0450  0.1953  0.0497
 7669W        W11869   4.797   0.898  12.726 -0.0311 -0.1273 -0.0881
 7670W        W11870   3.737   3.709   9.467  0.0107  0.0184 -0.0226
 7671W        W11871   6.227   1.117   9.611 -0.2376 -0.1429 -0.2864
 7672W        W11872   4.122   9.797  11.520  0.0220 -0.1946 -0.1094
 7673W        W11873   8.603   3.303  12.016  0.1667  0.3358 -0.3335
 7674W        W11874   9.950   9.088   2.362  0.1772  0.0754  0.0737
 7675W        W11875   2.473   4.047   2.023  0.0777 -0.1111  0.0057
 7676W        W11876   1.768   5.893   5.371  0.2885 -0.0688  0.0058
 7677W        W11877  10.508   6.778   3.757 -0.0298 -0.1494  0.2895
 7678W        W11878   7.062   4.143   9.275  0.2170 -0.0795  0.1593
 7679W        W11879   2.288   9.033  11.493 -0.0357  0.0155  0.2729
 7680W        W11880   7.033   0.407   2.881 -0.3251  0.0738 -0.0765
 7681W        W11881   3.856   6.185   3.497  0.0124 -0.0717 -0.2450
 7682W        W11882   0.750  10.505   2.829  0.0981  0.0339  0.0005
 7683W        W11883   8.303   8.482  12.236  0.1335  0.2828 -0.4227
 7684W        W11884   2.124   1.468   1.113  0.1236  0.3131 -0.0139
 7685W        W11885   8.149   0.316   4.070  0.1732 -0.1333  0.0857
 7686W        W11886   4.078   4.208   4.100  0.0683 -0.0872 -0.1616
 7687W        W11887   4.263   2.939   9.933  0.1043 -0.1670 -0.0746
 7688W        W11888   5.262   5.630  10.509  0.6342  0.2779 -0.1289
 7689W        W11889  10.510   2.292   9.936  0.1014  0.0822 -0.2268
 7690W        W11890   5.181   1.381   4.049 -0.0678 -0.2216  0.3100
 7691W        W11891   8.187   2.250   0.231 -0.0327 -0.0804 -0.4134
 7692W        W11892   5.265   6.655   1.568  0.0591  0.0355 -0.2809
 7693W        W11893  10.236   9.484  10.568  0.3018  0.3580 -0.0656
 7694W        W11894   3.362   5.765   9.016  0.2592  0.0526 -0.1243
 7695W        W11895   2.157  10.478   3.256 -0.0962  0.1883  0.0019
 7696W        W11896  10.274   8.787  13.267  0.0796  0.1167  0.0343
 7697W        W11897   3.584   6.364  11.284  0.0551  0.0565 -0.1751
 7698W        W11898   3.188   4.096   3.156  0.0291  0.0403  0.0495
 7699W        W11899   8.481   4.260   4.634  0.0908 -0.1169  0.2384
 7700W        W11900   0.894  10.177   3.996 -0.2401  0.0071  0.2524
 7701W        W11901   6.370   5.771  10.706 -0.0147 -0.2035 -0.2729
 7702W        W11902   5.043   6.450   1.089 -0.3657  0.2831  0.2563
 7703W        W11903   1.677   7.870   4.560 -0.2754 -0.1699 -0.1008
 7704W        W11904   4.594   8.817  11.637  0.0006  0.2432 -0.2292
 7705W        W11905   8.933   4.783   4.906  0.5197  0.0328 -0.2259
 7706W        W11906   9.207   3.455   4.409 -0.1351 -0.2355  0.0255
 7707W        W11907   7.762   0.498   1.512  0.2122 -0.0135  0.1525
 7708W        W11908   5.043   7.891  12.612  0.0552  0.1443 -0.0643
 7709W        W11909   2.924   5.151   4.979 -0.0455 -0.1466 -0.0710
 7710W        W11910   6.270   7.850  11.264 -0.5671 -0.2432  0.0605
 7711W        W11911  10.037   5.343   9.174  0.3115 -0.0797  0.0272
 7712W        W11912   7.390   6.633  10.701 -0.0476  0.3772  0.1764
 7713W        W11913   2.173   8.474  11.509  0.1599 -0.0454  0.2416
 7714W        W11914   7.733   2.046   9.771 -0.1499  0.1938 -0.0120
 7715W        W11915   1.896   6.620   1.716  0.2369  0.4442 -0.0098
 7716W        W11916   2.615   3.496   2.297  0.0706 -0.3892 -0.3019
 7717W        W11917   3.914   6.531  11.714 -0.1242  0.1042 -0.2628
 7718W        W11918  10.397   5.316  12.755  0.0051 -0.0720 -0.1007
 7719W        W11919   5.467   0.966   0.523 -0.2150 -0.0578  0.0434
 7720W        W11920   3.801   5.890  10.865 -0.1951  0.1240 -0.0980
 7721W        W11921   0.535   0.969   2.778  0.0123  0.3164  0.0350
 7722W        W11922   4.523   3.691   2.073 -0.0642 -0.0303  0.0671
 7723W        W11923   0.380   6.633  13.197  0.2150 -0.2872 -0.0515
 7724W        W11924   6.301   3.721   3.352  0.1128  0.1171 -0.0879
 7725W        W11925   0.878   8.176  11.127  0.1051 -0.2388  0.4709
 7726W        W11926   9.330   4.252  12.932 -0.1631 -0.1130  0.1071
 7727W        W11927   1.427   5.525  13.331  0.0938 -0.1357  0.1873
 7728W        W11928   3.911   2.827  12.072 -0.1697  0.0067  0.0305
 7729W        W11929   5.646   4.502  13.055 -0.2691  0.0758  0.2678
 7730W        W11930   5.381   5.370   3.671 -0.1597  0.1431  0.1588
 7731W        W11931  10.075   5.259  11.772 -0.3109  0.0300  0.1683
 7732W        W11932   2.506   8.592  12.760  0.1360 -0.1592  0.1065
 7733W        W11933   0.372   7.487   5.532 -0.0726 -0.3872  0.2841
 7734W        W11934   2.589   4.058   2.487 -0.0743 -0.1837  0.1532
 7735W        W11935   8.519  10.406   9.927  0.0410  0.0783 -0.2387
 7736W        W11936   7.384   1.125   9.582  0.1729 -0.0082  0.0791
 7737W        W11937   1.917   3.074   5.009  0.2510  0.0600 -0.2138
 7738W        W11938   1.532   7.261  12.949  0.1438 -0.2038  0.0848
 7739W        W11939   2.729   6.004  12.162  0.0425  0.2117 -0.0622
 7740W        W11940   7.497   1.686   3.655  0.0997 -0.2474  0.0234
 7741W        W11941   0.918   9.269   0.560  0.0411  0.1275  0.1560
 7742W        W11942   1.522   2.330  13.172 -0.0207  0.0119 -0.0091
 7743W        W11943   4.210   4.630   2.062 -0.1379 -0.0237 -0.0979
 7744W        W11944   8.134  10.255  10.251 -0.0978 -0.2079  0.1439
 7745W        W11945   2.508   2.066   0.776 -0.3649 -0.2261 -0.2312
 7746W        W11946   9.185   2.976   9.032 -0.1164  0.1919  0.2982
 7747W        W11947   1.742   9.861  12.765  0.2273  0.0262  0.0427
 7748W        W11948   5.357   0.753  11.341 -0.1334  0.0689  0.3341
 7749W        W11949   0.847   2.875   3.202 -0.1929  0.0274  0.0921
 7750W        W11950   0.517   5.747   9.918  0.0081 -0.3539 -0.0185
 7751W        W11951   9.650   6.927   2.567 -0.2445 -0.1025  0.0379
 7752W        W11952   2.038   3.409   9.173 -0.1998  0.1961  0.0905
 7753W        W11953   3.268  10.250  11.189  0.1185 -0.1359  0.2401
 7754W        W11954   7.811   9.226  11.641  0.1872 -0.1889  0.0915
 7755W        W11955   8.242   8.401  10.839 -0.3060 -0.0014  0.1980
 7756W        W11956   3.197   0.203  11.329 -0.0888 -0.1267  0.0824
 7757W        W11957   4.921   9.712   1.962  0.2201  0.0358 -0.0302
 7758W        W11958  10.341   8.824   1.011  0.3197  0.0079 -0.0790
 7759W        W11959   7.028   8.764  10.915 -0.0955  0.2756 -0.0575
 7760W        W11960   7.581   1.140  13.048 -0.0552 -0.1007 -0.1245
 7761W        W11961   0.083   1.845  12.995 -0.1457 -0.0953  0.0420
 7762W        W11962   8.022   3.519   3.648  0.2866  0.0544 -0.0993
 7763W        W11963   0.595   7.811   2.930 -0.0798  0.1496  0.3634
 7764W        W11964   6.470   5.026   2.753 -0.0066  0.1356  0.1571
 7765W        W11965   9.266   3.907   0.340  0.1600 -0.0515 -0.3799
 7766W        W11966   6.495   1.468   2.118  0.0488 -0.1396 -0.1520
 7767W        W11967   5.429  10.184   2.563 -0.2311  0.1128 -0.3154
 7768W        W11968   7.506   5.920   4.383 -0.1360  0.1228  0.0503
 7769W        W11969   2.093   8.441   1.352  0.2840 -0.0943 -0.0904
 7770W        W11970   1.502   8.423   3.598  0.1174 -0.0472  0.1789
 7771W        W11971   4.844   1.381  12.664 -0.3345 -0.0348  0.0764
 7772W        W11972   9.138   2.328   1.764 -0.0482  0.1367 -0.1280
 7773W        W11973   9.479   6.295   9.159 -0.4141 -0.1625 -0.1635
 7774W        W11974   8.417   2.603  13.312  0.1792 -0.2432  0.1624
 7775W        W11975   1.760   7.035  12.168 -0.4640  0.3319  0.1132
 7776W        W11976   3.939   9.165  13.243  0.0817 -0.1960 -0.2083
 7777W        W11977   8.715   5.665   2.687 -0.1429  0.2051 -0.0694
 7778W        W11978   6.003   1.942   4.782 -0.2990  0.0568 -0.3997
 7779W        W11979   8.951   4.958  12.257  0.0475  0.2516 -0.1063
 7780W        W11980   0.693   3.854   0.687 -0.1949  0.0861 -0.1180
 7781W        W11981  10.379   7.473  12.650  0.1113 -0.1588 -0.2997
 7782W        W11982   2.442   0.228   2.269 -0.1282 -0.1647 -0.1002
 7783W        W11983  10.181   2.538   2.255  0.0552  0.2537  0.1109
 7784W        W11984   9.871   2.916   4.633  0.3386  0.2666 -0.2111
 7785W        W11985   9.957   4.038  10.532 -0.0685  0.1804 -0.0666
 7786W        W11986   9.742   6.396   5.673  0.1300 -0.0115  0.2868
 7787W        W11987   5.043   9.471  11.756  0.2962  0.1515 -0.0586
 7788W        W11988   3.041   5.473  11.550  0.0410 -0.2276 -0.1837
 7789W        W11989   3.181   5.857   1.209  0.3138  0.0285 -0.0224
 7790W        W11990   3.592   7.381   4.343  0.1545 -0.1804  0.0864
 7791W        W11991   0.494   1.126   3.451  0.0076 -0.0098  0.2521
 7792W        W11992   0.326   5.390   5.062  0.0755  0.1642  0.0201
 7793W        W11993   2.310   0.699   2.114 -0.2123  0.0527 -0.3112
 7794W        W11994   5.515   4.519   3.487 -0.0614  0.0121 -0.0147
 7795W        W11995   0.157  10.248   0.050 -0.0041  0.0555 -0.1880
 7796W        W11996   4.971   8.970   0.692 -0.2671 -0.1113  0.0384
 7797W        W11997   9.970   8.291   3.525 -0.3346 -0.0471 -0.0764
 7798W        W11998   3.717   8.111  10.221 -0.1781 -0.1764  0.1427
 7799W        W11999   9.243   3.666   2.411 -0.0397  0.2633 -0.0179
 7800W        W12000   4.415   0.286  12.798  0.1825 -0.0091  0.0498
 7801W        W12001   9.625   6.581   4.007 -0.0714 -0.1858  0.2768
 7802W        W12002   7.948   1.664  10.327 -0.2977 -0.1618  0.2156
 7803W        W12003   4.145   2.911   4.064 -0.2656 -0.0882 -0.1771
 7804W        W12004   4.067   4.169   3.597  0.3544  0.1168  0.1671
 7805W        W12005   0.453   1.700   3.481  0.2677 -0.0764  0.1392
 7806W        W12006   3.308   6.201   2.726  0.0758  0.0234 -0.0437
 7807W        W12007   6.252   9.994  11.972  0.0384  0.0587 -0.1610
 7808W        W12008   7.861  10.431   4.172  0.0592  0.3626  0.0300
 7809W        W12009   8.500   8.420   3.708  0.1904  0.0409 -0.2512
 7810W        W12010   3.143   5.992  11.386 -0.1205  0.2513 -0.2933
 7811W        W12011   1.266   2.448   3.841  0.1893  0.2474  0.1065
 7812W        W12012   1.656   7.917  10.700 -0.0339 -0.0307  0.1202
 7813W        W12013   8.084   9.688  11.680  0.0513 -0.2951  0.0711
 7814W        W12014   0.236   2.057   1.026  0.0732 -0.0903 -0.2010
 7815W        W12015   5.985   0.774   0.576  0.4316  0.0716 -0.2471
 7816W        W12016   9.679   6.877   2.093 -0.1843  0.0607  0.1832
 7817W        W12017   9.903   5.595   1.062  0.1474 -0.0971 -0.2795
 7818W        W12018  10.093   0.036   0.929  0.2258 -0.2039  0.0208
 7819W        W12019   3.385   7.238  11.826 -0.1450  0.2121  0.0152
 7820W        W12020   8.194   4.361   0.120 -0.1139  0.0722 -0.2866
 7821W        W12021   9.135   5.310  11.990 -0.3338  0.0476  0.0559
 7822W        W12022   7.964   6.066   2.599 -0.0209  0.1466  0.0547
 7823W        W12023   4.190   5.984  13.317 -0.2863 -0.0572 -0.0785
 7824W        W12024   9.529   6.557   3.436  0.0001  0.2162  0.0916
 7825W        W12025   3.852   0.575  12.803 -0.3175 -0.1783 -0.0407
 7826W        W12026   5.827   3.089  11.648  0.1687  0.0277  0.1176
 7827W        W12027   2.345   3.715   9.444 -0.2626 -0.3106 -0.0899
 7828W        W12028   8.190   0.882   9.143  0.3907  0.2761 -0.1936
 7829W        W12029   3.541   2.366   9.916 -0.2309 -0.0327  0.1620
 7830W        W12030   7.267   0.114   3.214  0.1950 -0.1569 -0.2794
 7831W        W12031   9.418   2.478  12.246  0.1452  0.0048 -0.1250
 7832W        W12032   9.437   9.234  12.796 -0.1552  0.1401 -0.0833
 7833W        W12033   5.467   1.052   2.224  0.1345  0.0630 -0.0312
 7834W        W12034   5.600   4.113   3.759  0.1670 -0.0104 -0.2368
 7835W        W12035   8.921   1.233  12.472 -0.0190 -0.2720 -0.2185
 7836W        W12036   9.698   8.213   3.962  0.0512  0.0103  0.0226
 7837W        W12037   0.669   0.756  12.620  0.0513 -0.3176  0.0130
 7838W        W12038   9.114   7.095  12.340  0.0780  0.1979  0.1222
 7839W        W12039   3.714   5.068  13.022 -0.0051  0.2035  0.0567
 7840W        W12040   7.235   5.690   2.807 -0.1761  0.4870 -0.0391
 7841W        W12041   2.419   0.067  13.039 -0.3328  0.2309 -0.0470
 7842W        W12042   0.870   9.759   5.208  0.0612  0.1264  0.0843
 7843W        W12043   3.047   0.073  12.401 -0.0224 -0.2073  0.0933
 7844W        W12044   9.360   4.812   3.737 -0.1285  0.2501 -0.2086
 7845W        W12045   6.075   2.642  12.376  0.0638 -0.0765 -0.2118
 7846W        W12046   7.974   9.171   0.895 -0.1161 -0.3723  0.2063
 7847W        W12047   3.086   5.403   9.184 -0.0525 -0.2025 -0.2465
 7848W        W12048   1.590   1.967  10.006 -0.2903  0.0415  0.4065
 7849W        W12049   5.975   6.640   0.298  0.2162 -0.0822 -0.0165
 7850W        W12050   9.761   1.709   1.208  0.1025  0.1443  0.0475
 7851W        W12051   3.844   8.114  12.320 -0.0266 -0.0872  0.2846
 7852W        W12052   2.085   5.834   3.872 -0.1569 -0.1376  0.3893
 7853W        W12053   9.150   0.627   3.313 -0.0838  0.0766  0.0919
 7854W        W12054   0.510   3.459   3.071 -0.0395  0.0506  0.0096
 7855W        W12055   9.280   5.549   0.094  0.0420  0.3738 -0.1047
 7856W        W12056   4.156   7.172  13.014  0.1443  0.2291  0.0595
 7857W        W12057   6.499   0.558  12.115  0.0294  0.3150 -0.4120
 7858W        W12058   0.972   8.716   2.135 -0.1814 -0.3803  0.1694
 7859W        W12059   8.681   9.713   1.348 -0.1899  0.1115  0.1244
 7860W        W12060   0.924   2.322  13.171 -0.1139 -0.0646 -0.0548
 7861W        W12061   3.146   3.787  12.772  0.0538  0.2792  0.0143
 7862W        W12062   2.889   6.638   9.934  0.0842 -0.3458  0.1811
 7863W        W12063   0.842   1.062  11.350  0.0506 -0.1294  0.1676
 7864W        W12064   4.054   6.273   2.075  0.2619 -0.2441 -0.1877
 7865W        W12065   5.543   2.448  10.366 -0.1173 -0.1863  0.2537
 7866W        W12066   9.515   0.120   1.005  0.2852  0.1280  0.0588
 7867W        W12067   9.900   3.091   2.234 -0.0049  0.1834  0.1521
 7868W        W12068   0.579   2.467  10.561 -0.0602  0.2507 -0.1265
 7869W        W12069   3.721   2.701   2.869 -0.1434 -0.2409 -0.1791
 7870W        W12070   6.570   5.017   3.221 -0.1244 -0.2089  0.0372
 7871W        W12071   8.300   2.808   9.453  0.0150 -0.1163 -0.1279
 7872W        W12072  10.502   1.791   3.661 -0.3475 -0.2862 -0.3657
 7873W        W12073   0.038   8.900   9.813  0.1511  0.0388 -0.0241
 7874W        W12074   9.937   0.947   9.618 -0.0088  0.2884 -0.2186
 7875W        W12075   5.821   1.421   2.391  0.0922  0.0287  0.0800
 7876W        W12076   6.167   3.148  12.281  0.2735  0.1521  0.0247
 7877W        W12077   3.254   3.459   9.333 -0.1781  0.0091 -0.3055
 7878W        W12078   6.021   0.631   1.566 -0.1205  0.0162 -0.0895
 7879W        W12079   4.519   5.918  10.344  0.0267 -0.1822  0.1853
 7880W        W12080   0.206   0.529  12.785 -0.1858 -0.6147  0.0528
 7881W        W12081   2.858   5.662   5.064  0.2193 -0.1448 -0.1074
 7882W        W12082   9.133   7.521   3.212 -0.2048 -0.0410 -0.0945
 7883W        W12083   7.874   5.938  10.330  0.1392 -0.2176 -0.2000
 7884W        W12084   3.059   6.590  10.516 -0.0833  0.0284  0.1307
 7885W        W12085   0.136   5.415  12.344  0.1034 -0.2668  0.0996
 7886W        W12086   2.430   6.474   2.327  0.2070  0.2272  0.1165
 7887W        W12087   4.268   0.220   2.285 -0.0030 -0.0994  0.2577
 7888W        W12088  10.470   1.685   2.557 -0.2177  0.1669 -0.1540
 7889W        W12089   0.551   5.484   2.659 -0.0826  0.1100 -0.3349
 7890W        W12090   9.273   7.405   0.664 -0.2792 -0.2543  0.1287
 7891W        W12091  10.086   0.007  12.959  0.0974  0.0627  0.1216
 7892W        W12092   2.165   2.816   4.538  0.2810  0.1492 -0.3393
 7893W        W12093   2.162   8.658  12.365 -0.2522 -0.1410 -0.1224
 7894W        W12094   8.546   9.600  12.302 -0.1226 -0.1340 -0.0644
 7895W        W12095   1.246   0.228  11.547 -0.0380 -0.0395  0.0696
 7896W        W12096   5.355   8.616   0.716  0.0427 -0.0744 -0.1464
 7897W        W12097   9.834  10.102  13.122 -0.0735 -0.0789 -0.0402
 7898W        W12098   7.305   7.401   2.767  0.2227  0.1047 -0.0683
 7899W        W12099   7.778   3.362  13.142  0.1194 -0.0866  0.0816
 7900W        W12100   9.209   4.135  10.293 -0.0298 -0.1220  0.1062
 7901W        W12101   5.593   8.835   3.178 -0.1556  0.1548  0.2335
 7902W        W12102   1.157   5.589  12.291 -0.2690  0.1099 -0.3839
 7903W        W12103  10.189   8.579   1.497 -0.2135  0.1603 -0.1161
 7904W        W12104   5.532   4.236   1.032  0.0489  0.2393 -0.1691
 7905W        W12105   9.708   8.201   3.110  0.0422  0.3057 -0.1630
 7906W        W12106   3.032   5.290   0.878  0.0230  0.1183 -0.2012
 7907W        W12107   2.066   7.498  10.097  0.0139  0.0842  0.0479
 7908W        W12108   2.733   6.508   1.963  0.0690 -0.1542  0.1698
 7909W        W12109   0.582   3.253  13.362 -0.0264  0.1195  0.1076
 7910W        W12110   7.444   5.061   9.630 -0.0289 -0.2597  0.2206
 7911W        W12111   2.737   5.982  10.658  0.1185  0.2580 -0.3306
 7912W        W12112   1.633   5.534   8.966  0.0559 -0.4298 -0.1688
 7913W        W12113   5.241   3.302   1.319 -0.4451  0.0532 -0.2562
 7914W        W12114   0.661   5.359  11.356 -0.2097 -0.1923 -0.4497
 7915W        W12115   5.101   5.988  11.689 -0.0011 -0.0080  0.0957
 7916W        W12116   9.237   1.521  13.296  0.2770  0.1851 -0.1394
 7917W        W12117   2.420   0.641   5.400  0.1634 -0.0160 -0.0873
 7918W        W12118   4.105   8.106   2.220 -0.0663  0.1897 -0.1347
 7919W        W12119   9.311   0.138  11.688 -0.0927 -0.0046  0.0486
 7920W        W12120   7.924   2.256  11.555  0.4075  0.0161 -0.0569
 7921W        W12121   8.569   7.192   9.501  0.0755 -0.0043 -0.1125
 7922W        W12122   4.239   5.036  13.012  0.1288  0.3107 -0.0425
 7923W        W12123   4.659  10.497  10.508 -0.0338  0.0946  0.3969
 7924W        W12124   3.039   1.628  11.133  0.1500 -0.1437 -0.0602
 7925W        W12125   3.106   3.098   8.970  0.0843  0.0170 -0.3923
 7926W        W12126   6.298   6.965   2.679  0.3242 -0.0597  0.2891
 7927W        W12127   0.823   4.141  13.216  0.3963 -0.3388 -0.1958
 7928W        W12128   1.821   3.522   4.138  0.4709  0.0721 -0.0626
 7929W        W12129   5.879   4.007  10.950 -0.0003  0.1947  0.0799
 7930W        W12130   4.371   3.268   3.837  0.0036 -0.1322  0.3008
 7931W        W12131   9.578  10.086   5.174  0.2973  0.0930 -0.0352
 7932W        W12132   4.836   8.631   3.784 -0.2223  0.1800 -0.0322
 7933W        W12133   2.976   5.572  12.787 -0.0532 -0.3528  0.3256
 7934W        W12134   4.758   1.835   1.453  0.0397  0.2790  0.1101
 7935W        W12135   7.497   0.983  11.984  0.0432  0.0857 -0.1185
 7936W        W12136   3.930   3.166   0.866  0.0436  0.0205  0.1396
 7937W        W12137   1.240   8.334  12.099  0.0873 -0.3144 -0.3594
 7938W        W12138   8.187   3.001   0.469  0.3746  0.1559  0.0560
 7939W        W12139   1.477   1.058   0.093  0.0237 -0.1583  0.0954
 7940W        W12140   4.215   4.448   2.558  0.0699  0.2026 -0.1278
 7941W        W12141   3.430   5.408   3.206  0.0231  0.0243 -0.2507
 7942W        W12142   5.556   5.265  10.721  0.1806  0.0863 -0.3010
 7943W        W12143  10.294   7.329   0.255 -0.2444  0.1831 -0.2488
 7944W        W12144  10.123   6.902   1.687 -0.1047  0.2305 -0.2902
 7945W        W12145   0.461   7.856   1.542 -0.0035 -0.1005 -0.5825
 7946W        W12146   0.156   7.428  10.073 -0.2636  0.0798 -0.2526
 7947W        W12147   0.073   6.339  11.308 -0.0977 -0.3375 -0.0325
 7948W        W12148   4.036   5.525   1.189  0.1180  0.0942  0.2997
 7949W        W12149   7.271   5.496   4.315 -0.6060 -0.0242  0.2027
 7950W        W12150   0.816   4.282  12.195  0.0790  0.0170  0.0463
 7951W        W12151   5.226   9.522  12.587 -0.1839  0.0827 -0.1715
 7952W        W12152   5.820   7.726   1.222  0.0621  0.3434  0.1327
 7953W        W12153   4.064   4.007  12.175  0.0560  0.0529 -0.1414
 7954W        W12154   0.252   5.026  12.654  0.2879  0.3502 -0.2248
 7955W        W12155   7.882   7.640   3.579 -0.2356  0.0926 -0.1226
 7956W        W12156   9.209   2.234   3.153  0.1136  0.0081  0.1916
 7957W        W12157   9.789   6.117   3.995 -0.2560 -0.0566  0.2297
 7958W        W12158   9.560   7.087   1.617 -0.2381  0.2510 -0.1003
 7959W        W12159   2.097   6.333   0.813 -0.2182  0.2233  0.1908
 7960W        W12160   9.764   6.951   4.362 -0.0353 -0.1765 -0.0090
 7961W        W12161   5.737   9.525   9.796 -0.0072 -0.0947 -0.3704
 7962W        W12162   9.550   0.940   4.105  0.3550  0.0361 -0.0219
 7963W        W12163   3.978   4.639   2.954  0.3181 -0.0233  0.1468
 7964W        W12164   8.595   1.564   4.852  0.0150 -0.3231  0.2899
 7965W        W12165   1.755   6.873  10.536 -0.1647 -0.3019 -0.0982
 7966W        W12166   0.988   7.813  12.027  0.1500 -0.1603  0.0472
 7967W        W12167   9.285   4.202   2.540  0.1875 -0.0060  0.0460
 7968W        W12168   0.982   1.046  12.785 -0.0242 -0.0995  0.2264
 7969W        W12169   1.385   3.520   1.460 -0.0872  0.3552 -0.1141
 7970W        W12170   1.477   5.437   0.506 -0.1638 -0.0656  0.0133
 7971W        W12171   6.458  10.047   1.626 -0.1175  0.0904  0.1724
 7972W        W12172   4.093   3.892  11.306  0.5256 -0.1243 -0.1333
 7973W        W12173   9.892   3.568  10.614 -0.0706  0.1060 -0.2561
 7974W        W12174   6.362   1.275   4.919  0.0087  0.2818 -0.2416
 7975W        W12175   0.654   7.577  10.228  0.1530 -0.0033 -0.2326
 7976W        W12176   6.563   1.286   9.952  0.3413 -0.0567  0.1061
 7977W        W12177   9.754   0.247  12.088 -0.0594  0.0508 -0.2344
 7978W        W12178   3.461   5.126   9.619 -0.1217  0.1414  0.1905
 7979W        W12179   2.437   9.192  12.657  0.1652  0.0693  0.0055
 7980W        W12180  10.002   4.548   0.397 -0.2055 -0.3216  0.1030
 7981W        W12181   8.416   7.507  11.224 -0.1374  0.2234 -0.1779
 7982W        W12182   1.337   9.638   5.047  0.0098 -0.3944  0.0528
 7983W        W12183   2.212   5.377   3.366 -0.1170  0.0398  0.3279
 7984W        W12184   1.492   7.641   0.793  0.0128 -0.0203 -0.0047
 7985W        W12185   6.861   0.159  12.127  0.2205 -0.1349 -0.4007
 7986W        W12186  10.304   2.256  11.570 -0.0834 -0.1474 -0.0044
 7987W        W12187   4.511   6.362   0.075 -0.1569 -0.1332 -0.1413
 7988W        W12188   4.925   3.077   9.210 -0.1581 -0.2142  0.1178
 7989W        W12189   2.690   3.981   1.115 -0.0198 -0.3161 -0.1818
 7990W        W12190   1.589   4.012   0.498  0.0002 -0.0949 -0.0417
 7991W        W12191   9.563   1.453   1.626  0.1779 -0.2979 -0.1722
 7992W        W12192   5.844   2.389   8.301  0.0146 -0.0864  0.3195
 7993W        W12193   9.863   0.640  11.720  0.3590 -0.1471  0.2697
 7994W        W12194   6.548   5.277   8.849  0.0640 -0.0547 -0.1635
 7995W        W12195   9.251   6.200   1.463 -0.1129 -0.0217  0.1052
 7996W        W12196   4.917   4.546   4.512 -0.4182 -0.2124  0.3025
 7997W        W12197   6.996   1.173  12.301  0.3767 -0.1287 -0.1629
 7998W        W12198   4.604   9.741   1.076 -0.0401 -0.1417  0.2210
 7999W        W12199   0.693   5.269   9.950  0.0871  0.1597 -0.3645
 8000W        W12200   6.980   2.171   4.690  0.2735  0.1581 -0.3054
 8001W        W12201  10.079   3.376   4.676 -0.0343 -0.0098 -0.2039
 8002W        W12202   7.914   7.169  11.683  0.0278  0.0212 -0.3982
 8003W        W12203   2.687   3.053   1.609 -0.2698  0.1507  0.2165
 8004W        W12204   0.126   7.155   2.353  0.1103  0.0667  0.3479
 8005W        W12205   0.250   8.758   4.480 -0.2311  0.1789  0.1734
 8006W        W12206   1.831   9.133   2.058 -0.0325  0.1495  0.0125
 8007W        W12207  10.501   9.464   1.709  0.1058 -0.2967 -0.2356
 8008W        W12208   0.299   7.299  12.617  0.1432  0.1928 -0.2563
 8009W        W12209   6.323   8.981   0.202  0.2119  0.0022  0.2134
 8010W        W12210   2.719  10.040   1.308 -0.3157  0.1976 -0.1105
 8011W        W12211   8.064   2.176   1.151 -0.1628 -0.1986 -0.3031
 8012W        W12212   9.055   9.011   4.747  0.1929  0.1887  0.1977
 8013W        W12213   5.305   1.730  12.462 -0.0394 -0.0340  0.1187
 8014W        W12214   9.822   7.444   0.789 -0.1125  0.0522  0.1862
 8015W        W12215  10.370   6.068   1.753 -0.1212 -0.1917  0.0779
 8016W        W12216   3.934   2.158   9.540  0.0042 -0.1270  0.0831
 8017W        W12217   4.604   8.842  12.661 -0.0539  0.1429  0.0846
 8018W        W12218   8.203   7.430  12.042 -0.3020  0.2510 -0.0615
 8019W        W12219   5.686   3.282   1.063  0.2757 -0.2750  0.1311
 8020W        W12220   6.906   4.264  12.250  0.0701 -0.0066  0.1541
 8021W        W12221   9.842   0.451  10.698  0.1471 -0.0805 -0.0091
 8022W        W12222   3.611   4.059  12.938 -0.3099  0.0017 -0.0933
 8023W        W12223   6.388   8.603  11.648 -0.0690  0.1784  0.0671
 8024W        W12224   7.874   3.114  11.025 -0.0635  0.2660  0.2357
 8025W        W12225   1.557   7.518  12.160 -0.2462  0.3203  0.0216
 8026W        W12226   8.483   7.343   9.950 -0.0299  0.0648  0.1725
 8027W        W12227   5.015  10.196   1.760 -0.2891  0.0145 -0.0008
 8028W        W12228   6.901   5.242   2.831 -0.1155 -0.2549  0.0096
 8029W        W12229   6.412  10.252  12.896  0.2058 -0.0707  0.3490
 8030W        W12230   2.366   1.009   1.126 -0.1166  0.0981  0.1518
 8031W        W12231   7.679   0.692  10.761  0.2183 -0.2377  0.0537
 8032W        W12232   9.222   4.927   1.904 -0.1205  0.0562  0.3458
 8033W        W12233   2.425   4.209   4.450  0.1456  0.0628 -0.2147
 8034W        W12234   8.846   3.555   2.640 -0.2418  0.2154 -0.3433
 8035W        W12235   4.551   4.232  11.177  0.0302 -0.4699 -0.1142
 8036W        W12236   8.972   9.136  11.018  0.0991  0.1821 -0.1008
 8037W        W12237   0.683   6.135  12.482 -0.1670  0.0525 -0.2247
 8038W        W12238   8.512   5.155   0.291 -0.3460 -0.2742 -0.2431
 8039W        W12239   2.350   8.120  10.996 -0.0047  0.1168  0.0042
 8040W        W12240   8.229   9.228  11.885  0.0347  0.0216  0.1554
 8041W        W12241   4.601   1.133   2.960  0.0726  0.2964 -0.2098
 8042W        W12242   0.784   6.726  11.398 -0.0303 -0.0437 -0.0680
 8043W        W12243   1.253   3.763   3.586 -0.4732 -0.0443  0.0883
 8044W        W12244   2.591   4.139  12.088 -0.0104  0.0554 -0.0019
 8045W        W12245   2.426   3.847   0.067 -0.2644 -0.1597 -0.2269
 8046W        W12246   5.697   7.431   0.368 -0.0616 -0.4398 -0.3391
 8047W        W12247   5.619   6.211   3.242 -0.1926 -0.2403 -0.2749
 8048W        W12248   2.702   5.857  11.604  0.2854 -0.2344  0.0596
 8049W        W12249   4.186   1.964  10.513  0.1448  0.1828  0.0083
 8050W        W12250   9.135   0.793   1.637 -0.0182 -0.0095  0.0494
 8051W        W12251  10.447   7.632   9.693  0.1237  0.0424  0.0386
 8052W        W12252   1.186   5.096   1.594  0.1457 -0.0899  0.1318
 8053W        W12253   7.220   2.722   3.305  0.4952  0.5022 -0.5132
 8054W        W12254   9.275   1.377   1.165  0.1331  0.4069  0.2493
 8055W        W12255   2.356   0.420   8.658  0.1400  0.1600  0.0256
 8056W        W12256  10.261   5.262   0.952  0.0239  0.2389  0.1006
 8057W        W12257   6.828   8.917  12.705  0.3353  0.0159  0.1133
 8058W        W12258   8.014   2.405   9.582  0.0454 -0.1990  0.1636
 8059W        W12259   0.232   7.855   4.851  0.0674  0.2274 -0.0539
 8060W        W12260   5.418   5.154  12.494  0.0279 -0.2496  0.0856
 8061W        W12261   5.700   4.056  12.098  0.0765 -0.1854 -0.0678
 8062W        W12262   0.761   5.274   3.707 -0.0673  0.1304 -0.0865
 8063W        W12263   3.005   9.242  12.385  0.1249 -0.0059  0.0286
 8064W        W12264   0.326   8.712  12.282 -0.0726 -0.0684 -0.2718
 8065W        W12265   4.229   5.164   2.094  0.3464  0.1130 -0.0103
 8066W        W12266  10.168   5.606  11.450  0.1186  0.2436 -0.2999
 8067W        W12267  10.141   8.298   2.868 -0.1767  0.1778  0.0779
 8068W        W12268   4.109   9.067   2.615  0.1010  0.0644  0.0225
 8069W        W12269   1.282  10.335   9.869 -0.2469  0.2787 -0.0051
 8070W        W12270   9.788   6.857   3.132 -0.1807 -0.0134 -0.0954
 8071W        W12271  10.234   4.190  10.141  0.3572  0.4379  0.0957
 8072W        W12272   4.425   7.571   3.780 -0.0895  0.3034 -0.3233
 8073W        W12273   8.554   8.070   3.304 -0.1045  0.2530  0.3800
 8074W        W12274   6.688   2.564   2.683 -0.2069 -0.3159  0.1611
 8075W        W12275   8.786   8.678   1.991  0.0478  0.1302  0.3466
 8076W        W12276   8.595   0.362  12.128 -0.2337 -0.3913 -0.1752
 8077W        W12277   2.027   9.073  11.903 -0.0463 -0.1096 -0.1182
 8078W        W12278   0.306   5.455   1.296  0.1495  0.2858  0.0883
 8079W        W12279   0.422   2.413   9.685 -0.1892  0.0810 -0.1839
 8080W        W12280   9.995   3.592  12.158  0.2156  0.2518 -0.0492
 8081W        W12281   2.280   8.222   5.117  0.1197  0.1183  0.1298
 8082W        W12282   2.803   0.666   2.185 -0.1347  0.2461  0.1088
 8083W        W12283   2.300   2.825  11.479 -0.0185  0.0590  0.0224
 8084W        W12284   9.997   5.699   8.898  0.1136  0.2394  0.4471
 8085W        W12285   3.751   8.603   9.332 -0.1383 -0.0265 -0.0571
 8086W        W12286   6.526   5.528   3.108  0.0538  0.2710  0.1413
 8087W        W12287   2.683   9.566  10.791 -0.2090  0.1240  0.1212
 8088W        W12288   6.086   7.291   2.993  0.0364  0.0205 -0.3293
 8089W        W12289   1.427   3.888  10.944  0.2559 -0.0370 -0.0232
 8090W        W12290   2.943   1.288  11.540 -0.3542 -0.2036 -0.1161
 8091W        W12291   0.958   1.008   9.025  0.1797 -0.0231 -0.0190
 8092W        W12292   6.624   4.649   1.895 -0.1679 -0.2948 -0.1461
 8093W        W12293   3.950   5.033   2.539 -0.0226 -0.1797 -0.1160
 8094W        W12294   2.744   9.174   4.683 -0.0182  0.0203 -0.0191
 8095W        W12295   3.810  10.242  10.731  0.2784 -0.2670 -0.0158
 8096W        W12296   4.576   4.775  11.973  0.1766 -0.0528 -0.0841
 8097W        W12297   1.489   4.699   4.686 -0.1593  0.3653  0.0962
 8098W        W12298   1.548   7.442   2.048  0.0041 -0.1463  0.4275
 8099W        W12299   7.764   0.836   9.494  0.3877 -0.4000  0.1975
 8100W        W12300   7.320   0.822   3.937  0.0266  0.0131  0.1063
 8101W        W12301   6.842   9.829   0.670 -0.3284  0.0066  0.1385
 8102W        W12302   6.809   2.737   0.020 -0.1423 -0.0644  0.0956
 8103W        W12303   9.647  10.243  11.784 -0.0702  0.1698 -0.1139
 8104W        W12304   9.780   3.354  12.951 -0.0519  0.0623  0.1480
 8105W        W12305   7.413   3.946   3.906  0.1145  0.1301 -0.3478
 8106W        W12306   7.248   3.451   2.084 -0.0130 -0.2770  0.1816
 8107W        W12307  10.146   7.419  11.750 -0.1832 -0.1017  0.0017
 8108W        W12308   5.855   3.576   2.423 -0.2614  0.0563  0.0648
 8109W        W12309   1.538   6.566   4.246 -0.1785 -0.2679  0.1113
 8110W        W12310   4.584   2.294  11.494  0.2347  0.2037  0.1139
 8111W        W12311   9.405   5.106   2.808 -0.2427 -0.0242 -0.0645
 8112W        W12312   9.575   9.239   9.798 -0.1326  0.1389  0.2498
 8113W        W12313   7.324   1.457  12.030 -0.1976 -0.1940  0.1777
 8114W        W12314  10.246   7.760   9.203  0.0928  0.2411  0.1776
 8115W        W12315   2.619   6.947  11.937  0.0989 -0.0878  0.1202
 8116W        W12316   4.480   9.878   1.910 -0.0868  0.1552 -0.2065
 8117W        W12317   1.540   9.058   1.567  0.0233 -0.0267  0.2010
 8118W        W12318   7.793   3.727   4.244 -0.3052  0.1070 -0.2484
 8119W        W12319   7.234   2.179   2.162  0.0075  0.2439  0.0255
 8120W        W12320   0.150   1.775  11.125 -0.2881  0.3853 -0.0011
 8121W        W12321   8.660   3.409   5.111  0.2410 -0.2871  0.2625
 8122W        W12322   5.758   9.225   0.130 -0.0117 -0.3149  0.0285
 8123W        W12323   3.834   9.259  12.169  0.0818 -0.2359  0.2790
 8124W        W12324   3.249   0.306   3.429  0.0131  0.0840  0.2633
 8125W        W12325   3.110   9.669   2.518  0.0360  0.2958 -0.1716
 8126W        W12326   1.494   5.836   2.031 -0.2838 -0.0765 -0.2409
 8127W        W12327   6.904   9.680  11.193 -0.0102  0.0652 -0.1350
 8128W        W12328   4.243   7.986  12.555 -0.1672  0.3886  0.3468
 8129W        W12329   4.860   4.582   1.628 -0.3011  0.0589  0.0180
 8130W        W12330   6.480   0.927   0.488  0.1624 -0.0713  0.1701
 8131W        W12331   4.217   9.696  10.628  0.1603  0.2506  0.3341
 8132W        W12332   8.859   1.949  13.045  0.0013  0.1925  0.3682
 8133W        W12333   6.254   3.715   1.725 -0.1513 -0.1277  0.0883
 8134W        W12334   7.579   8.853   0.725  0.1280  0.0086 -0.0625
 8135W        W12335   3.315   2.964  10.110 -0.1152  0.1625 -0.0023
 8136W        W12336   2.248   5.721  10.897 -0.0711 -0.0565 -0.0348
 8137W        W12337   3.615   2.570   8.940  0.3475 -0.1865 -0.0346
 8138W        W12338   0.717   5.484   9.545  0.2137  0.0290  0.1764
 8139W        W12339   6.746   3.548   4.133 -0.0757  0.1231  0.1707
 8140W        W12340   6.300   0.478  11.650  0.3551 -0.2186  0.1861
 8141W        W12341   0.454   6.745   2.208  0.2409  0.5513  0.1611
 8142W        W12342   9.446   8.996  10.767 -0.1203  0.1417  0.0028
 8143W        W12343   7.379   3.302  11.239 -0.1296  0.1137  0.1786
 8144W        W12344   7.001   1.767   3.662 -0.2013  0.1498 -0.0910
 8145W        W12345   3.747   2.402   0.217 -0.2011  0.1505  0.3357
 8146W        W12346   4.510   2.798   1.575 -0.0642  0.0956  0.1132
 8147W        W12347   0.520  10.288   3.680  0.2693 -0.0719  0.0365
 8148W        W12348   1.982   0.000  12.101 -0.2255 -0.0929 -0.1305
 8149W        W12349  10.283   6.171   9.696  0.2706 -0.0737  0.0949
 8150W        W12350   4.224   4.565  10.589  0.0547  0.1691  0.0561
 8151W        W12351   7.134   2.008  12.119 -0.3762 -0.2390 -0.0697
 8152W        W12352   9.525   3.586  11.145 -0.0653  0.4088 -0.0192
 8153W        W12353   9.047   4.539   0.679 -0.1695  0.2152  0.1037
 8154W        W12354   6.807   1.872   1.426  0.1648 -0.0471  0.4642
 8155W        W12355   9.224   7.269  11.526  0.2210  0.2844  0.0140
 8156W        W12356   4.368   0.622   3.595 -0.5300  0.3280 -0.2233
 8157W        W12357   6.453   3.900  12.198  0.1905 -0.2727 -0.2033
 8158W        W12358   4.526   9.891   3.926 -0.2053 -0.0156  0.2669
 8159W        W12359   1.800   6.455  10.766  0.0579 -0.2876  0.2038
 8160W        W12360   8.614   1.952  11.895 -0.1842 -0.1122 -0.1421
 8161W        W12361   6.240   3.228  11.409 -0.0031 -0.2160  0.1198
 8162W        W12362   1.717   0.728   3.609 -0.2462 -0.1657  0.0875
 8163W        W12363   5.675   3.538   1.493 -0.0053 -0.2687  0.0052
 8164W        W12364   6.005   0.176   3.551 -0.0845  0.0065  0.0543
 8165W        W12365   4.312   1.568   3.287 -0.3176 -0.0560 -0.3199
 8166W        W12366   4.625   5.237   1.646  0.0685 -0.0449  0.1273
 8167W        W12367   6.722   9.692  13.176 -0.0100 -0.1956  0.2789
 8168W        W12368   7.202   3.521   1.034  0.1493 -0.1280  0.2332
 8169W        W12369   9.693   2.466   8.649  0.3215 -0.1126  0.1650
 8170W        W12370   6.684  10.065  11.640  0.2996 -0.1736  0.1341
 8171W        W12371   0.281   0.188   0.283 -0.3865 -0.2796  0.0608
 8172W        W12372   0.877   6.572   4.666  0.1957 -0.1125 -0.2771
 8173W        W12373   6.784  10.288  13.162  0.0589 -0.3036 -0.3155
 8174W        W12374   2.456   7.622   3.691 -0.0551  0.0058  0.0923
 8175W        W12375   6.156   2.395   8.785  0.0035 -0.1773  0.1436
 8176W        W12376  10.336   4.936   4.013 -0.2499 -0.1964  0.2664
 8177W        W12377  10.331   2.662   3.477 -0.4309 -0.0002 -0.1580
 8178W        W12378   6.992   2.021  12.847 -0.2516  0.0616  0.0782
 8179W        W12379   0.381   9.234   1.849  0.0391 -0.1971 -0.1637
 8180W        W12380  10.505   6.753   9.287 -0.1427 -0.1217  0.2210
 8181W        W12381   1.346   4.478   2.290 -0.1803  0.0071 -0.1564
 8182W        W12382   8.622   0.156  11.562 -0.1073 -0.3816 -0.1038
 8183W        W12383   2.981   1.632  12.525 -0.2058  0.4276  0.0281
 8184W        W12384   3.817   6.365   1.630 -0.1778  0.1000  0.0205
 8185W        W12385   5.056   2.891   1.493  0.1671 -0.0778 -0.2488
 8186W        W12386   3.674   1.332  12.274 -0.0393  0.0979  0.1418
 8187W        W12387   4.182   2.030   3.570 -0.2252 -0.2689  0.1809
 8188W        W12388   4.425   3.514   0.220 -0.2175  0.0098  0.0622
 8189W        W12389   0.197   7.544   0.552  0.1394 -0.1299 -0.5220
 8190W        W12390   9.319   8.996  12.206 -0.1855 -0.2918 -0.2387
 8191W        W12391  10.188   7.693   0.541  0.1052  0.3148  0.1587
 8192W        W12392   3.799   7.381   1.569  0.2507  0.2323 -0.0545
 8193W        W12393   8.759   6.129  12.087 -0.0374  0.1972  0.1133
 8194W        W12394   7.682   1.217  10.495 -0.3129 -0.2692 -0.2623
 8195W        W12395   5.246   2.461  10.758 -0.1332  0.2758  0.0159
 8196W        W12396   6.939   5.881   0.375 -0.4138 -0.1209  0.2172
 8197W        W12397   8.047  10.324   9.786  0.2375  0.0984 -0.2107
 8198W        W12398   2.638   8.500   1.230 -0.1970 -0.1086 -0.3118
 8199W        W12399   3.051   9.783  11.154 -0.1943 -0.0999  0.2377
 8200W        W12400   5.589   9.362   1.049  0.3399 -0.0228  0.0892
 8201W        W12401   6.139   0.182  12.748  0.0197  0.1046 -0.0049
 8202W        W12402   8.205   1.887  11.375  0.0818 -0.2428  0.0496
 8203W        W12403   2.376   3.234   8.287  0.2332  0.0270  0.0696
 8204W        W12404   8.609  10.012   4.086  0.0843 -0.3708 -0.1441
 8205W        W12405   8.942   1.792   9.530  0.0782 -0.2105 -0.4716
 8206W        W12406   6.338   0.758  11.206 -0.2371  0.1478 -0.1329
 8207W        W12407   9.640   5.244  12.170 -0.0010  0.4058  0.2707
 8208W        W12408   0.739   4.636  11.086 -0.0572 -0.1708 -0.1429
 8209W        W12409   0.329   1.121   9.232  0.1754  0.0388 -0.0443
 8210W        W12410   2.363   7.578   2.827  0.1880  0.1868 -0.0163
 8211W        W12411   6.429   2.256   2.349 -0.0266  0.3888 -0.1351
 8212W        W12412   2.686   3.919   3.373 -0.3755  0.4104  0.1194
 8213W        W12413   1.299   4.054   0.034  0.0581 -0.1078  0.3135
 8214W        W12414   4.538   5.731   1.546 -0.0451  0.1002  0.0816
 8215W        W12415   0.926   4.323   1.985 -0.1108 -0.2391  0.0441
 8216W        W12416   7.641   6.736  11.939 -0.1372 -0.2316 -0.2950
 8217W        W12417   6.769   8.338  11.852  0.0595  0.0265 -0.0101
 8218W        W12418   1.380   4.195  12.603  0.0798 -0.1679 -0.3421
 8219W        W12419   5.599   3.079   3.585 -0.2006  0.1263  0.4189
 8220W        W12420   7.452   2.153  11.478  0.1466 -0.1231 -0.1868
 8221W        W12421   2.897   1.190  12.324  0.1720  0.1121  0.2000
 8222W        W12422   1.163   3.140   1.674 -0.1691  0.0763 -0.1276
 8223W        W12423  10.274   9.781   3.036  0.0885  0.2020  0.1282
 8224W        W12424   0.201   4.049   0.087 -0.0963 -0.1635  0.2411
 8225W        W12425   2.960   1.402   9.455 -0.1565  0.1261  0.0316
 8226W        W12426   7.792   1.855   1.462  0.1005 -0.0851  0.0099
 8227W        W12427   4.477   2.541   3.745 -0.1342 -0.1907 -0.0971
 8228W        W12428   2.332   7.648   4.290 -0.2755  0.0170 -0.2212
 8229W        W12429   6.945   4.564  11.209  0.0783  0.2368 -0.1161
 8230W        W12430   1.210   8.559   0.938  0.0857  0.1875  0.1340
 8231W        W12431   7.518   3.777  11.626  0.3876  0.1123 -0.0869
 8232W        W12432   1.838   8.368  11.158 -0.1371  0.1075  0.0877
 8233W        W12433   9.786   9.742   2.315  0.1062  0.2452 -0.0653
 8234W        W12434   6.033   7.572   0.066  0.1057  0.1925  0.0305
 8235W        W12435   8.944   4.698  10.907 -0.1678  0.1271  0.2506
 8236W        W12436   4.113   9.543  12.503 -0.1398 -0.1089  0.1619
 8237W        W12437   5.170   4.969   2.715  0.2140  0.1399 -0.5451
 8238W        W12438   5.730  10.047  12.912  0.1644  0.0615  0.0682
 8239W        W12439   3.488   4.473   2.724 -0.0511  0.5188  0.0171
 8240W        W12440   5.364   7.993   1.168  0.2704 -0.1457  0.0235
 8241W        W12441   8.195   2.533   0.738 -0.0559  0.3614  0.0675
 8242W        W12442   8.601   6.201   0.876 -0.2344 -0.2578 -0.0260
 8243W        W12443   5.004  10.317  12.942 -0.1337 -0.1280  0.4287
 8244W        W12444   6.348   1.474  11.655 -0.0547  0.1097  0.1682
 8245W        W12445   4.236   7.352  12.557  0.0996  0.1718 -0.0154
 8246W        W12446   3.073   8.845   9.305 -0.3110  0.0459 -0.2199
 8247W        W12447   6.915   8.747   1.776  0.1378 -0.1032  0.0198
 8248W        W12448   7.759   5.988  12.224  0.0890  0.0367 -0.0454
 8249W        W12449   7.398   0.834  11.205 -0.1801  0.0681  0.3733
 8250W        W12450   8.541   3.151   9.749 -0.0393  0.3200 -0.0603
 8251W        W12451   5.019   5.957  11.153 -0.1083 -0.1506 -0.0941
 8252W        W12452  10.468   8.276   3.238  0.0154 -0.1203  0.1717
 8253W        W12453   9.652   7.116  10.781  0.1878  0.0571  0.0850
 8254W        W12454   1.272   3.620   0.456 -0.2907  0.0211 -0.1525
 8255W        W12455   5.281   4.842   9.888 -0.0692 -0.0279  0.2262
 8256W        W12456   0.285   2.026   4.092 -0.0582 -0.0861  0.0093
 8257W        W12457   4.912   3.677  12.665  0.0281 -0.2839  0.1381
 8258W        W12458   1.410   2.494  10.200  0.0298 -0.2066 -0.2225
 8259W        W12459   2.073   5.127  11.186  0.3023  0.0349  0.2606
 8260W        W12460   7.374   7.586   1.780 -0.2214 -0.0853  0.2089
 8261W        W12461   5.760   3.020  12.626  0.0982 -0.2711 -0.0743
 8262W        W12462   1.963   1.027   4.019 -0.0968 -0.0197  0.0069
 8263W        W12463   7.098   1.461   2.325  0.3408 -0.3627 -0.0729
 8264W        W12464   7.058   4.538   4.884 -0.0885 -0.0159  0.1313
 8265W        W12465   7.399   2.058  12.621  0.2052 -0.0993  0.1755
 8266W        W12466   7.313   6.530   3.872 -0.1363  0.3075  0.1690
 8267W        W12467   8.802   3.068  12.378 -0.2481  0.2290 -0.0858
 8268W        W12468   2.580   8.107  10.546  0.0151 -0.1515 -0.1142
 8269W        W12469   7.323   0.104   2.448  0.0001 -0.1538 -0.1373
 8270W        W12470   7.156   7.967   1.425 -0.1683 -0.3930 -0.1716
 8271W        W12471   6.413   0.748   4.503  0.1667  0.2676 -0.0984
 8272W        W12472   2.018   2.884   3.493  0.3495  0.0318  0.2810
 8273W        W12473   3.520   9.871   9.658  0.2508  0.2436  0.1990
 8274W        W12474   5.655   0.021  10.699  0.0430 -0.2135  0.0309
 8275W        W12475   4.706   8.673   2.453  0.3948 -0.1636 -0.1131
 8276W        W12476   8.328  10.361   3.265  0.1625 -0.0331  0.2735
 8277W        W12477   4.596   2.556  12.668 -0.1537  0.3543 -0.1504
 8278W        W12478  10.154   3.277   4.139 -0.2605 -0.1225  0.2668
 8279W        W12479   5.894   6.654   9.944  0.0023 -0.1761 -0.1426
 8280W        W12480   0.981   6.215   2.733 -0.2500 -0.0658 -0.0076
 8281W        W12481   9.345   8.866   3.575 -0.0014  0.1460 -0.1064
 8282W        W12482   3.283   2.412  10.387  0.0493  0.3809  0.0345
 8283W        W12483   7.921   6.830   0.185 -0.0698 -0.2437 -0.0763
 8284W        W12484   2.482   4.427   1.441  0.0740 -0.2749  0.1898
 8285W        W12485   7.654   4.891   9.055  0.0993  0.0829  0.0536
 8286W        W12486   5.389   4.283   1.769 -0.1445  0.0832  0.0443
 8287W        W12487   6.082   2.720  10.774 -0.2065 -0.0305  0.0145
 8288W        W12488   8.760   3.446   4.090  0.0398  0.0247 -0.0327
 8289W        W12489   7.457   5.562  12.360 -0.2450 -0.1410 -0.0822
 8290W        W12490   8.643   0.983   0.677 -0.1772 -0.0434 -0.1560
 8291W        W12491   2.658   4.030  11.562 -0.2723  0.0297  0.0833
 8292W        W12492   0.939   1.062   3.087 -0.1258 -0.1072 -0.1258
 8293W        W12493   5.955   1.969   9.988 -0.2259 -0.1421 -0.0565
 8294W        W12494   7.376   7.837  10.358  0.0097 -0.0444 -0.4064
 8295W        W12495   2.226   4.883  12.788  0.1361 -0.0783  0.4490
 8296W        W12496   1.425   7.953  11.848 -0.1470 -0.0167  0.2468
 8297W        W12497   9.263   6.434   9.582 -0.4377 -0.0411 -0.3234
 8298W        W12498   4.422   2.598  13.144  0.0744  0.1152 -0.0196
 8299W        W12499   1.201   0.947   1.982 -0.0493 -0.0745  0.2473
 8300W        W12500   1.352   7.265  10.700  0.1086 -0.0681 -0.4934
 8301W        W12501   0.700   2.443   2.408 -0.1681 -0.0159  0.0718
 8302W        W12502   4.070   0.148  10.411 -0.1469  0.0866  0.1118
 8303W        W12503   3.991   1.878  10.056 -0.0448  0.0349  0.0962
 8304W        W12504   9.802   2.824  11.137 -0.1189  0.0005  0.1156
 8305W        W12505   7.355   9.338   1.932 -0.2103  0.1564  0.0250
 8306W        W12506   3.205   6.945  10.137 -0.2693 -0.0917 -0.3810
 8307W        W12507   6.867   0.778  11.142 -0.1057 -0.0478  0.2998
 8308W        W12508   0.781   8.699  12.041 -0.1086  0.1059 -0.0127
 8309W        W12509   0.256   9.675   3.040 -0.1217  0.0962  0.0816
 8310W        W12510   7.280   8.960   1.088  0.0434 -0.4381 -0.1885
 8311W        W12511   7.407   2.560  11.779  0.0903  0.1702  0.0287
 8312W        W12512   8.619   2.379   9.160  0.2895  0.1556 -0.0341
 8313W        W12513   1.843   5.418  10.827  0.0102 -0.0352 -0.1560
 8314W        W12514   0.228   4.155   4.526 -0.0038 -0.0103 -0.4097
 8315W        W12515   0.799   7.284  12.081  0.3723  0.0328 -0.3023
 8316W        W12516   1.476   4.620  11.567  0.0518  0.2470 -0.3291
 8317W        W12517  10.044   4.862  12.090  0.0183 -0.1467  0.3793
 8318W        W12518   1.411   2.955   2.811  0.0688  0.1009  0.0988
 8319W        W12519   4.623   0.884   1.906 -0.1615  0.1514  0.0303
 8320W        W12520   9.848   3.432   3.269 -0.1260  0.0812  0.0364
 8321W        W12521   1.305   1.406   2.881  0.2144  0.2054  0.0327
 8322W        W12522   2.312   0.699  10.969  0.0835  0.0410 -0.0260
 8323W        W12523   6.743   1.347   3.405  0.0406  0.2602  0.2320
 8324W        W12524   8.246   1.114   9.670 -0.1133  0.2673  0.1099
 8325W        W12525   3.092   9.693   1.210 -0.3814 -0.0445  0.2049
 8326W        W12526   8.690   7.745   2.921  0.1164  0.2982 -0.1496
 8327W        W12527   7.264   1.716   4.583  0.0846  0.1557  0.2781
 8328W        W12528   6.044   9.636   3.089  0.0320  0.2801  0.2835
 8329W        W12529   8.904   2.416   3.565 -0.0477  0.2284  0.1594
 8330W        W12530   4.190   8.525  12.595  0.0680 -0.0649  0.0604
 8331W        W12531   5.054   1.001  11.018  0.1774  0.0036  0.0881
 8332W        W12532   6.095   0.629   3.681 -0.0506 -0.2138 -0.0883
 8333W        W12533   0.016   6.815  11.713  0.0580  0.4527  0.3399
 8334W        W12534   2.632   1.660  10.199 -0.1138  0.2840  0.0897
 8335W        W12535   4.320   0.023  12.340 -0.1501  0.1022 -0.2326
 8336W        W12536   7.267   7.154   0.774  0.3074 -0.0022 -0.1039
 8337W        W12537   5.874   4.992   8.489  0.0706  0.1319 -0.1982
 8338W        W12538   6.484   1.266   4.459  0.1931 -0.1265  0.0273
 8339W        W12539   8.122   3.865  10.814 -0.0621 -0.1040 -0.1958
 8340W        W12540   7.751   8.790  13.135  0.0260 -0.1380  0.0838
 8341W        W12541   7.888   6.801  10.978 -0.0661  0.0164 -0.0537
 8342W        W12542   0.700  10.500   4.376 -0.0657  0.1776 -0.2844
 8343W        W12543   3.493   9.418   1.340 -0.0305 -0.1172  0.3506
 8344W        W12544   6.571   0.639   0.898  0.4361  0.1862 -0.0763
 8345W        W12545   6.426   6.328  12.910  0.0280  0.0968  0.0502
 8346W        W12546   5.752   4.657   9.309  0.0788 -0.2630 -0.0228
 8347W        W12547   5.755   2.690   4.820  0.0437 -0.0859 -0.0519
 8348W        W12548   0.964   3.217  10.351  0.1400  0.1310  0.2921
 8349W        W12549   4.638   3.518   0.709 -0.0998  0.1833  0.0267
 8350W        W12550  10.201   0.075   5.753  0.2757 -0.1903  0.0398
 8351W        W12551   3.745   1.453  10.057 -0.1873  0.1891 -0.0535
 8352W        W12552   0.719   7.632  13.134 -0.2767 -0.0028  0.0617
 8353W        W12553  10.482   6.903   0.093 -0.3515  0.2868  0.1388
 8354W        W12554   6.505   6.689  10.187  0.1426  0.2095  0.3098
 8355W        W12555   0.107   1.341  10.765 -0.1450  0.3493  0.0950
 8356W        W12556   9.227   5.508   8.550 -0.1769 -0.0307 -0.0478
 8357W        W12557   4.460   7.098   9.829 -0.0307  0.1196  0.0913
 8358W        W12558   6.135   5.297   3.441 -0.0944 -0.0083  0.1068
 8359W        W12559   0.677   2.640   0.559 -0.2551  0.1493  0.1266
 8360W        W12560   8.602   9.536   9.671  0.0230  0.0763 -0.0052
 8361W        W12561   2.550   2.141   1.948 -0.1239  0.0119 -0.1867
 8362W        W12562   8.777   5.164  11.060  0.0277 -0.0600 -0.1285
 8363W        W12563   3.438   2.688  13.372  0.0809 -0.1023  0.0309
 8364W        W12564   5.149   8.301  10.325 -0.1032  0.0355 -0.1624
 8365W        W12565   6.398   0.875   1.854  0.4502 -0.2124  0.2860
 8366W        W12566   6.286   3.033  12.763 -0.2369 -0.0252  0.1310
 8367W        W12567   3.681   1.852   0.111 -0.2327  0.0564  0.1109
 8368W        W12568   2.772   7.753   0.113 -0.0034  0.1652  0.1875
 8369W        W12569   8.027   3.925   0.496 -0.5459 -0.2331 -0.0887
 8370W        W12570   2.605   9.329   1.763 -0.2881 -0.0919  0.3104
 8371W        W12571   1.145   3.133  12.687 -0.2403 -0.0625 -0.0148
 8372W        W12572   3.506   8.688   2.668 -0.0071  0.1439  0.2847
 8373W        W12573   6.056   7.110  13.263  0.2426  0.2276  0.0778
 8374W        W12574   3.477   4.062  11.159  0.2186  0.2441 -0.1170
 8375W        W12575   4.407   6.778  13.235  0.1012 -0.0465  0.0339
 8376W        W12576   7.177   7.946  12.640  0.1299  0.2289 -0.1939
 8377W        W12577   7.966   2.329  12.410  0.1350  0.0935 -0.1834
 8378W        W12578   6.306   2.463   1.141 -0.1289 -0.1753  0.0347
 8379W        W12579   3.725   7.805   1.156  0.0837 -0.0679 -0.0929
 8380W        W12580   1.169   1.367   9.327  0.0813 -0.1585 -0.0676
 8381W        W12581   2.218   1.479   8.679  0.1765  0.0627 -0.1432
 8382W        W12582   7.253   8.551  10.052  0.1118  0.2954  0.0335
 8383W        W12583   4.107   5.272  12.605 -0.0623 -0.2318  0.1071
 8384W        W12584   6.320   2.028   3.926  0.1465  0.3031 -0.0537
 8385W        W12585   1.956   8.956   1.216  0.2168  0.1561  0.1756
 8386W        W12586   0.553   5.351   4.616 -0.1339  0.1216  0.0826
 8387W        W12587   2.461   7.309   2.310  0.0516  0.1635  0.3044
 8388W        W12588   6.771   3.300   2.039 -0.2803 -0.1628  0.0012
 8389W        W12589   7.030   7.836  11.394  0.0930  0.0533 -0.0006
 8390W        W12590   0.649   1.274   0.997 -0.0273  0.0357 -0.1709
 8391W        W12591   9.627   4.282   0.363 -0.0168  0.1722 -0.0813
 8392W        W12592   0.157   0.702   0.398 -0.4566  0.2389  0.0796
 8393W        W12593   2.848   0.672  10.854 -0.3381 -0.0320 -0.1489
 8394W        W12594   4.398   3.272   3.169  0.0205  0.1295 -0.3819
 8395W        W12595   1.330   3.937   0.960 -0.4030 -0.0297 -0.1040
 8396W        W12596  10.142  10.208   2.238 -0.2140 -0.4316  0.0634
 8397W        W12597   1.225  10.242   4.428  0.0945 -0.1650  0.3331
 8398W        W12598   2.697   9.211   9.663 -0.1534  0.0686 -0.3497
 8399W        W12599   6.758   7.543   0.958 -0.2734 -0.0542 -0.5816
 8400W        W12600   6.845   1.235   8.952  0.0180  0.2224  0.0715
 8401W        W12601   6.330   4.096   1.192 -0.0235 -0.3088 -0.1141
 8402W        W12602   0.523   5.503  10.862  0.1932  0.0164  0.2479
 8403W        W12603   9.226   7.160  11.056  0.2505 -0.0022  0.0028
 8404W        W12604   5.166   8.513  13.098 -0.0613 -0.1951 -0.1064
 8405W        W12605   2.130   7.908  10.506 -0.2149  0.1056 -0.1397
 8406W        W12606   7.931   5.104   1.647 -0.1087  0.0791  0.1481
 8407W        W12607   5.960   8.372  12.521  0.0918  0.1317 -0.1103
 8408W        W12608   3.198   3.188   1.633  0.1274 -0.1209 -0.1146
 8409W        W12609   9.187   4.509   9.275 -0.1347 -0.1128 -0.2169
 8410W        W12610   0.200   0.395   4.408  0.1426 -0.1781  0.0165
 8411W        W12611   6.359   1.950   1.108 -0.0433 -0.3752 -0.0466
 8412W        W12612   8.437   5.597  11.058  0.3779  0.0889  0.2459
 8413W        W12613   7.718   1.840   0.939  0.1634 -0.1354 -0.0159
 8414W        W12614   8.426   6.892   2.090 -0.4110  0.2374  0.3627
 8415W        W12615   0.096   2.317  10.717 -0.3384 -0.0490 -0.0473
 8416W        W12616   4.155   2.624   2.559  0.3118  0.2066  0.1095
 8417W        W12617   2.091   5.430   1.604 -0.1110 -0.1103  0.4008
 8418W        W12618   3.477   5.730   2.821  0.2168 -0.0484  0.2291
 8419W        W12619   6.661   9.498   9.772  0.0746 -0.1118 -0.0510
 8420W        W12620   8.637   5.877  10.050  0.2489 -0.1589 -0.0148
 8421W        W12621   5.820   3.506   4.473 -0.1082  0.3236  0.0064
 8422W        W12622   7.744   6.396   1.241 -0.3093 -0.0732  0.2248
 8423W        W12623   8.309   1.830   2.723  0.1043 -0.3465 -0.3108
 8424W        W12624   2.258   8.071   2.112  0.2805  0.3553  0.2065
 8425W        W12625   5.178   4.109   2.616 -0.2606  0.1622 -0.0268
 8426W        W12626   7.718   7.193  12.239  0.1365  0.0167 -0.3116
 8427W        W12627   6.584   9.902   0.211  0.0763 -0.0857  0.1294
 8428W        W12628   9.009   9.881  11.660 -0.0270  0.0190  0.2162
 8429W        W12629   5.249   9.447   9.894  0.0736 -0.1959  0.0500
 8430W        W12630   2.453   5.397   1.906  0.0538 -0.1048  0.0137
 8431W        W12631   3.595   3.235  12.085  0.1467  0.0276 -0.1924
 8432W        W12632   6.651   4.164   4.151  0.0687 -0.0200 -0.2451
 8433W        W12633   8.873   2.075  12.497 -0.1549  0.2297 -0.0594
 8434W        W12634   0.333   1.423   4.686 -0.3041 -0.0895  0.1345
 8435W        W12635   0.541   3.884   9.997  0.2694  0.3661 -0.0145
 8436W        W12636   9.050   6.432   3.108  0.0773 -0.0122 -0.0392
 8437W        W12637   4.969   7.594   3.804  0.3354  0.3397 -0.1438
 8438W        W12638   2.196   7.956  11.611  0.0638 -0.0129  0.0765
 8439W        W12639   5.912   2.236  11.367  0.1689  0.0933  0.0025
 8440W        W12640   7.263   3.734   9.060  0.0656 -0.1351 -0.1163
 8441W        W12641   1.498   9.989  10.212 -0.1573 -0.3273 -0.1656
 8442W        W12642   9.722   3.759  11.535  0.1368  0.3453 -0.5549
 8443W        W12643   0.773   4.981   2.749  0.2371  0.1669  0.0788
 8444W        W12644   1.782   0.574   9.853 -0.1794 -0.1733 -0.0313
 8445W        W12645   6.811   0.491   4.559  0.1241 -0.0250  0.2990
 8446W        W12646   8.345   7.248  12.496  0.0454 -0.1265  0.0119
 8447W        W12647   6.586   1.990   0.224  0.0205 -0.0512 -0.0770
 8448W        W12648   4.717   3.858   8.991  0.1080 -0.2340  0.0282
 8449W        W12649   3.490   9.851  13.026  0.1211 -0.0274  0.2594
 8450W        W12650   2.500   1.793  12.297  0.1634 -0.2071 -0.1146
 8451W        W12651   4.164   1.939   1.957  0.2031  0.0476 -0.3540
 8452W        W12652   4.136   7.661  12.974 -0.3275 -0.2988 -0.1082
 8453W        W12653   5.464   0.101   3.391  0.0635  0.0334 -0.1596
 8454W        W12654   7.236   1.504   8.767  0.0116 -0.0311  0.3635
 8455W        W12655   5.646   4.444  11.215  0.2628 -0.0334 -0.3062
 8456W        W12656   5.869   3.561  10.660  0.1089  0.0056 -0.0035
 8457W        W12657   7.193   6.570  11.750 -0.1604 -0.0809 -0.1203
 8458W        W12658   5.152   8.170   2.070  0.2547  0.1061  0.0311
 8459W        W12659   6.110   2.191   0.018  0.0208  0.2076 -0.3250
 8460W        W12660   2.944   7.927  13.098 -0.1689 -0.4062 -0.1264
 8461W        W12661   7.401   9.762  10.529 -0.3149  0.1277  0.1022
 8462W        W12662   1.326   6.037   4.365  0.0706 -0.0863  0.0326
 8463W        W12663   8.307   7.768   2.554 -0.1400 -0.1062  0.0323
 8464W        W12664   0.057   6.593   2.903  0.0882 -0.3323 -0.4418
 8465W        W12665   4.973   3.986   2.094  0.0525  0.0402 -0.0061
 8466W        W12666   3.057   6.256  10.929 -0.0620 -0.2024  0.1528
 8467W        W12667   4.488  10.330  12.897 -0.0343  0.1195  0.1229
 8468W        W12668   8.722   6.438   2.245  0.0376  0.0830  0.0724
 8469W        W12669   1.722   9.490   1.188 -0.2233 -0.0909  0.0080
 8470W        W12670   5.973   1.402   3.252  0.1677 -0.0073 -0.1827
 8471W        W12671   7.926   4.560   2.190 -0.0556 -0.1012  0.1385
 8472W        W12672   3.731   2.330  11.254 -0.4189  0.1229  0.0076
 8473W        W12673  10.244   1.222   3.735  0.1273 -0.0921  0.2859
 8474W        W12674   8.695   8.912   0.244 -0.2162  0.1546  0.4146
 8475W        W12675   5.631   5.838   0.015 -0.0546  0.1980  0.0965
 8476W        W12676   7.073   1.154   3.047  0.4479 -0.1402  0.0531
 8477W        W12677   4.536   4.437   9.853 -0.2151 -0.0223 -0.2533
 8478W        W12678   5.747   4.070  11.598  0.3352  0.0205 -0.2773
 8479W        W12679   2.220   3.393   2.676  0.0131 -0.2779  0.0287
 8480W        W12680   9.515   4.055   9.075 -0.0003 -0.0084 -0.2774
 8481W        W12681   2.650   9.481   1.179  0.1039 -0.0884 -0.1536
 8482W        W12682   7.622   9.427   3.103 -0.1077 -0.1152  0.2551
 8483W        W12683   6.781   9.141  11.153  0.0974  0.0874 -0.0948
 8484W        W12684   6.961   9.322  11.631  0.2176 -0.0009  0.0806
 8485W        W12685   6.458   8.854   1.992  0.1508  0.2276 -0.1831
 8486W        W12686   9.788   3.979   1.189  0.0698  0.2263 -0.1068
 8487W        W12687   2.411   6.500   9.774  0.0688 -0.3022  0.0100
 8488W        W12688   7.226   0.479  10.807  0.1402  0.4852 -0.0288
 8489W        W12689   2.027   1.744  11.145  0.4372  0.0232 -0.0559
 8490W        W12690   0.519   9.400  11.993 -0.0135 -0.1197 -0.4636
 8491W        W12691   2.705   4.502  11.564  0.1882  0.3716 -0.2943
 8492W        W12692   7.021   0.887   2.620 -0.4761 -0.1106  0.0232
 8493W        W12693   4.064   1.584  12.476  0.0553 -0.1129  0.0657
 8494W        W12694   6.409   2.503   1.895  0.2771 -0.0525  0.1340
 8495W        W12695   7.616   5.945   1.110 -0.0275  0.3296  0.1859
 8496W        W12696   0.202   0.145   3.441  0.1344 -0.0841 -0.1756
 8497W        W12697  10.003  10.172  10.782 -0.3194  0.2871 -0.1685
 8498W        W12698   7.614   2.692   9.153 -0.0603  0.1140 -0.1483
 8499W        W12699   0.520  10.059  11.696  0.0034  0.2423  0.2723
 8500W        W12700   0.284   7.743   3.858  0.0297  0.3004 -0.2786
 8501W        W12701   6.376   0.294   1.218  0.0469 -0.0656 -0.2310
 8502W        W12702   4.873   2.606   0.988 -0.0684  0.2489 -0.2392
 8503W        W12703  10.425   5.448   3.944  0.1236  0.1334  0.0720
 8504W        W12704   9.343   5.262   0.530  0.1350  0.0384 -0.1630
 8505W        W12705   5.395   3.511   2.228  0.2708  0.1190 -0.1885
 8506W        W12706   8.967   7.547  10.289 -0.0228  0.1105  0.1619
 8507W        W12707   5.362   3.360   9.373  0.0096 -0.0811  0.4934
 8508W        W12708   9.379   7.290   4.120  0.1164  0.1550 -0.1514
 8509W        W12709   3.180   9.062  10.083  0.1098  0.4477 -0.0623
 8510W        W12710   9.755   2.277  11.979  0.2048 -0.1290  0.1830
 8511W        W12711   8.728   2.354   0.917 -0.0889 -0.2502 -0.0732
 8512W        W12712   1.821   7.204   0.656 -0.1362 -0.0697  0.1186
 8513W        W12713   3.657   6.300  12.249 -0.2249 -0.0226 -0.3991
 8514W        W12714  10.100   2.942   9.311  0.0130  0.2266 -0.3687
 8515W        W12715   6.712   3.620   9.404  0.2414  0.0251  0.1310
 8516W        W12716   2.934   8.797  12.631 -0.0706  0.0620  0.0224
 8517W        W12717   0.478   9.728   1.786  0.1992 -0.0182  0.2066
 8518W        W12718   2.294   2.886   4.050 -0.0459 -0.1266 -0.0506
 8519W        W12719   1.216   9.928  11.172  0.0170  0.1282 -0.1502
 8520W        W12720   6.829   2.923  10.652  0.3478 -0.0300  0.0175
 8521W        W12721   5.543   8.295   3.313  0.0587  0.0048  0.0625
 8522W        W12722   0.870   7.920   3.418 -0.1667  0.0459 -0.0857
 8523W        W12723   2.034   2.412   4.828 -0.0241  0.4140  0.1820
 8524W        W12724   7.285   6.585  12.743 -0.1194 -0.1744 -0.1775
 8525W        W12725   5.674   1.907   9.550  0.0745  0.0911 -0.3649
 8526W        W12726   9.810   6.391   9.622  0.2571  0.0777  0.0541
 8527W        W12727   3.990   1.187   9.631  0.0991 -0.1899 -0.1115
 8528W        W12728  10.422   2.255   0.711 -0.1270  0.2365 -0.2558
 8529W        W12729   0.490   4.969  11.689 -0.1506 -0.2952 -0.0344
 8530W        W12730   2.739   1.951  11.405 -0.0190 -0.2914 -0.0256
 8531W        W12731   6.821   2.905   3.016 -0.0341 -0.3991 -0.0297
 8532W        W12732   1.212   2.513   3.277  0.4536 -0.2108 -0.2991
 8533W        W12733   7.241   0.865   0.004  0.0772 -0.0978 -0.0778
 8534W        W12734   9.038  10.306  12.421  0.0681  0.2181  0.0379
 8535ION    NA+12735   1.400   1.778   0.035 -0.1504  0.2891 -0.2867
 8536ION    NA+12736   7.557   4.275   4.865 -0.0521  0.2260 -0.1672
 8537ION    NA+12737   3.282   4.736   0.743 -0.2407  0.0687  0.1931
 8538ION    NA+12738   3.277   3.844  10.709  0.0901 -0.0939  0.1943
 8539ION    NA+12739   1.863  10.145   9.809  0.3568 -0.1132 -0.1091
 8540ION    NA+12740   6.491   9.932   3.034  0.0096 -0.0033 -0.2046
 8541ION    NA+12741   4.922   7.448   1.618 -0.1514  0.3901 -0.0218
 8542ION    NA+12742   3.599   2.168   3.131  0.0899 -0.3159 -0.0225
 8543ION    NA+12743   0.794   8.546  12.500 -0.1882  0.1894  0.1685
 8544ION    NA+12744   5.278   1.468   8.768 -0.1741  0.1033  0.5432
 8545ION    NA+12745   1.819   3.292  11.387  0.0991 -0.2060  0.1209
 8546ION    NA+12746   1.974   3.726  12.222 -0.0411 -0.0933 -0.0811
 8547ION    NA+12747   9.238   0.388   5.436 -0.4502  0.1897 -0.0228
 8548ION    NA+12748   0.796   4.692   1.567  0.0044 -0.1326  0.3817
 8549ION    NA+12749   8.307   6.475  13.347  0.1021 -0.1488 -0.0485
 8550ION    NA+12750   9.600   2.976   8.581  0.0951 -0.0907 -0.2763
 8551ION    NA+12751   7.737  10.443   3.260  0.0208  0.2390  0.1626
 8552ION    NA+12752   8.713   2.563   4.933  0.1279 -0.0433 -0.1676
 8553ION    NA+12753   3.451   1.087   2.137  0.0466 -0.2076 -0.2296
 8554ION    NA+12754   5.328   7.186   3.068  0.0262  0.0191 -0.0206
 8555ION    NA+12755   6.022   9.850   1.346  0.1523  0.1933 -0.1558
 8556ION    NA+12756   2.746   1.229  10.771 -0.2243  0.1271  0.1410
 8557ION    NA+12757   0.280   2.599   0.975 -0.1148  0.2794  0.1502
 8558ION    NA+12758   5.197   2.058   0.110  0.0862  0.2932  0.2042
 8559ION    NA+12759   0.179   5.622   5.525  0.1670  0.0380  0.1399
 8560ION    NA+12760   9.480   5.978   8.748 -0.0758  0.1152 -0.0242
 8561ION    NA+12761   6.641   1.113  11.452  0.0902 -0.0425 -0.0316
 8562ION    NA+12762   2.559   2.837  12.473  0.2815 -0.1674  0.0995
 8563ION    NA+12763   4.438   8.750   2.983  0.2101 -0.3488 -0.3369
 8564ION    NA+12764   6.000   5.273   2.515 -0.1500 -0.2119  0.1729
 8565ION    NA+12765   5.647   5.007   8.988 -0.1556 -0.0385  0.0335
 8566ION    NA+12766   2.793   4.026   1.634  0.0822  0.0935  0.2842
 8567ION    NA+12767   1.967   1.302  11.419 -0.1170  0.0341 -0.3163
 8568ION    NA+12768   0.156   4.645   4.441  0.1129 -0.1062 -0.0193
 8569ION    NA+12769   9.851   8.406   4.852 -0.0657  0.3051  0.1419
 8570ION    NA+12770   2.211   6.368   4.814 -0.0292  0.1558  0.3847
 8571ION    NA+12771   8.223   9.732  13.354  0.2606  0.0992 -0.0902
 8572ION    NA+12772   3.169   1.341   5.412 -0.0307 -0.1603  0.0282
 8573ION    NA+12773   7.440   7.796   9.895  0.1433  0.1972 -0.0413
 8574ION    NA+12774   5.141   8.873  12.728  0.0710  0.0891 -0.0642
 8575ION    NA+12775   7.919   2.934   4.845 -0.0919  0.1713 -0.2902
 8576ION    NA+12776   2.078   7.603   1.932 -0.0767 -0.0899  0.1693
 8577ION    NA+12777   0.654   9.671  10.054 -0.1240  0.0194 -0.0343
 8578ION    NA+12778   7.587   0.919   3.475 -0.3784  0.0120  0.1069
 8579ION    NA+12779   6.189   7.066  10.196  0.0299  0.1427 -0.0327
 8580ION    NA+12780   6.818   6.488  12.607  0.0787  0.2842 -0.0841
 8581ION    NA+12781   5.354   4.759  10.867  0.3145 -0.3623  0.4032
 8582ION    NA+12782   5.600   7.089   1.583  0.1732  0.0548 -0.0442
 8583ION    NA+12783   2.414   1.974   8.866  0.0804  0.0088  0.0628
 8584ION    NA+12784   8.964   8.901  12.652 -0.2584  0.3082 -0.4605
 8585ION    NA+12785  10.064   9.182   5.225  0.2519  0.0802 -0.0843
 8586ION    NA+12786   0.109   3.495   0.129  0.0372  0.2751  0.1623
 8587ION    NA+12787   6.313   1.112   0.885  0.4368 -0.0734  0.0490
 8588ION    NA+12788   2.916   2.634   4.962 -0.0272  0.2781 -0.0012
 8589ION    NA+12789   2.050   7.816   4.941 -0.3602  0.2336 -0.0842
 8590ION    NA+12790   9.654   4.358  10.356  0.2601  0.1182 -0.1781
 8591ION    NA+12791   6.054   8.344  11.388 -0.2425 -0.2479 -0.5797
 8592ION    NA+12792   8.373   3.142   3.942  0.0598  0.1489  0.0835
 8593ION    NA+12793   8.138   9.740   2.885 -0.1350 -0.1561 -0.0060
 8594ION    NA+12794   9.122   9.417  11.982 -0.0933 -0.3777  0.0329
 8595ION    NA+12795   4.690   1.062   4.892  0.1639  0.0527 -0.1378
 8596ION    NA+12796   8.306   3.874   0.070 -0.0688 -0.0836  0.1565
 8597ION    NA+12797   2.919   9.641   4.265 -0.0450  0.0618 -0.0034
 8598ION    NA+12798  10.367   2.985   0.087 -0.1667  0.0942  0.3042
 8599ION    NA+12799   0.832   7.630   4.602 -0.0069  0.1417 -0.0404
 8600ION    NA+12800   0.398   4.223  12.910  0.3291  0.0508  0.2276
 8601ION    NA+12801   1.102  10.204   1.761 -0.0476 -0.0357 -0.2206
 8602ION    NA+12802   8.593   4.054   9.486  0.0718  0.0731 -0.1838
 8603ION    NA+12803   9.725   2.610   5.022 -0.3474  0.1352 -0.1184
 8604ION    NA+12804   8.342   6.629   3.039  0.1813  0.0795  0.0766
 8605ION    NA+12805   9.044   3.057   8.590  0.2667 -0.0175  0.0939
 8606ION    NA+12806   9.193   3.734   1.857 -0.2992  0.3008  0.0975
 8607ION    NA+12807   2.500   9.660   9.177 -0.0997 -0.0543 -0.0351
 8608ION    NA+12808   6.624   5.456  11.450  0.0219  0.4718  0.2397
 8609ION    NA+12809   6.179   4.144   2.932 -0.0670  0.3470  0.0546
 8610ION    NA+12810   2.425   9.494  10.208  0.0769  0.2961  0.1475
 8611ION    NA+12811   6.444   4.660   0.113  0.2529 -0.1459  0.0386
 8612ION    NA+12812   3.076   5.314  10.961  0.3659  0.0326 -0.1876
 8613ION    NA+12813   6.245   4.323   4.589  0.1755 -0.4693 -0.1415
 8614ION    NA+12814   3.102   6.205   9.074 -0.0471 -0.0200  0.1891
 8615ION    NA+12815   6.555   8.964  10.597 -0.2059  0.0219  0.1721
 8616ION    NA+12816   9.657   3.019   1.507 -0.0903 -0.0475 -0.0488
 8617ION    NA+12817  10.427   6.154   8.896 -0.2076  0.2112 -0.0499
 8618ION    NA+12818   4.877   2.723  10.575 -0.0803 -0.0828 -0.0494
 8619ION    NA+12819   1.889   8.313   0.035  0.2796  0.2137 -0.0057
 8620ION    NA+12820   0.311   0.111   4.018 -0.0969 -0.2634  0.0040
 8621ION    NA+12821   3.057   3.631   8.879  0.1637  0.1627 -0.0487
 8622ION    NA+12822   5.116   1.678  11.265 -0.2472 -0.1533  0.1551
 8623ION    NA+12823   5.060   4.670   4.944 -0.1499 -0.0474  0.1420
 8624ION    NA+12824   8.792   9.036   3.010 -0.2244 -0.1762 -0.2488
 8625ION    CL-12825   2.656   2.959  12.954  0.1287  0.1146 -0.0307
 8626ION    CL-12826   8.934   9.842  12.171  0.3435  0.1070 -0.1060
 8627ION    CL-12827   8.000   9.952   3.334  0.4334  0.2527  0.1900
 8628ION    CL-12828   4.569   4.428   4.157 -0.0274  0.2637 -0.2113
 8629ION    CL-12829  10.154   1.417   0.653  0.0574  0.3882 -0.1370
 8630ION    CL-12830   6.066   1.444   9.963  0.1278 -0.1303 -0.0047
 8631ION    CL-12831   8.399   2.997   4.838 -0.0630  0.1171  0.0586
 8632ION    CL-12832   8.552   1.704   4.028 -0.0269  0.2609  0.1324
 8633ION    CL-12833   2.169   2.232   4.376 -0.3094  0.0579 -0.0328
 8634ION    CL-12834   1.063   3.811   9.079  0.0387  0.2471  0.2676
 8635ION    CL-12835   9.062   8.596  10.259 -0.0040  0.2290  0.0508
 8636ION    CL-12836  10.120   4.836   4.442 -0.3411  0.1002  0.2237
 8637ION    CL-12837   8.471   3.276   3.487  0.0225 -0.0284  0.1176
 8638ION    CL-12838   2.166   9.622  11.557 -0.2376 -0.0626  0.3673
 8639ION    CL-12839   8.018   1.119   2.601 -0.1225  0.0060  0.1778
 8640ION    CL-12840  10.473   3.906   9.337 -0.3586  0.1076  0.1608
 8641ION    CL-12841   9.514   9.446  12.290 -0.2798  0.1791 -0.2574
 8642ION    CL-12842   2.916   8.035   3.664  0.3448 -0.3563  0.1054
 8643ION    CL-12843   1.625   7.674   3.159 -0.2165  0.4195  0.1389
 8644ION    CL-12844   6.201   0.626   0.118  0.3504 -0.0108 -0.0445
 8645ION    CL-12845   6.130   4.567   2.681  0.2247  0.2097 -0.1380
 8646ION    CL-12846   1.712   3.577   8.824 -0.2249 -0.2670  0.0090
 8647ION    CL-12847   2.361   9.707   9.801  0.1620  0.2277 -0.2121
 8648ION    CL-12848   8.597   7.946   3.999  0.0792  0.1590  0.1286
 8649ION    CL-12849   1.460   8.531   0.218 -0.3655 -0.1028 -0.1264
 8650ION    CL-12850   8.281   4.398   9.646  0.3789 -0.0494  0.0597
 8651ION    CL-12851   1.823   3.571  11.775  0.1037  0.1122 -0.1145
 8652ION    CL-12852   3.449   3.560  11.095 -0.0009 -0.4684  0.0661
 8653ION    CL-12853   0.252   6.790   9.681 -0.2073  0.4674  0.0802
 8654ION    CL-12854   6.107   4.254  12.370  0.0301 -0.0526  0.2080
 8655ION    CL-12855   4.930   2.152  11.108 -0.1430  0.1203 -0.2941
 8656ION    CL-12856   6.530   9.449  10.783  0.0091  0.0552  0.1697
 8657ION    CL-12857   7.837   0.462   3.295 -0.2457  0.2275 -0.2284
 8658ION    CL-12858   3.718   4.606   0.929 -0.0466  0.1725 -0.0860
 8659ION    CL-12859   7.111   1.930   9.555  0.0117  0.3145 -0.1256
 8660ION    CL-12860   9.197   8.268  13.212 -0.0777  0.4028  0.3458
 8661ION    CL-12861   0.615  10.223   1.797 -0.0242  0.0096 -0.1067
 8662ION    CL-12862   7.852   4.180  12.533 -0.0637  0.0969  0.1402
 8663ION    CL-12863   0.058   5.215  11.661  0.1347  0.4780  0.2044
 8664ION    CL-12864   4.439   2.900  10.491  0.1757 -0.0091  0.2971
 8665ION    CL-12865   4.964   5.128  10.952 -0.4550  0.3189 -0.0231
 8666ION    CL-12866   2.879   4.285   4.546  0.2830 -0.2145 -0.0518
 8667ION    CL-12867   2.495   3.640  12.198  0.1273 -0.1577 -0.0345
 8668ION    CL-12868   0.354  10.141   4.179  0.1097  0.0571  0.1021
 8669ION    CL-12869  10.312  10.509   0.388  0.1072  0.0540 -0.1279
 8670ION    CL-12870   9.446   2.195   9.318 -0.1757 -0.0507 -0.0146
 8671ION    CL-12871   1.724   1.438  13.285  0.1975 -0.1640  0.0885
 8672ION    CL-12872   6.845   6.599  13.140 -0.1203  0.1699  0.0701
 8673ION    CL-12873   6.322   5.720  11.170 -0.0336 -0.2125 -0.1725
 8674ION    CL-12874   2.437   7.312   1.725  0.1080  0.1956 -0.0166
 8675ION    CL-12875   2.470   3.376   4.190 -0.2093 -0.1693  0.0480
 8676ION    CL-12876   5.489   9.810   1.353  0.3067 -0.2166  0.0931
 8677ION    CL-12877   1.324   8.805  12.271  0.0074  0.2961  0.1137
 8678ION    CL-12878   3.165   4.008   1.278 -0.1919  0.2824  0.1085
 8679ION    CL-12879   0.890   1.828  13.280 -0.1078  0.1799 -0.2742
 8680ION    CL-12880   1.788   6.176   4.499 -0.3221  0.1213 -0.6610
 8681ION    CL-12881   1.767   7.657   9.513  0.2056 -0.0703 -0.0085
 8682ION    CL-12882   6.258   5.818   9.761 -0.2004  0.0424  0.1285
 8683ION    CL-12883   9.835   2.781   1.912  0.1028 -0.2878 -0.0686
 8684ION    CL-12884   0.420   0.599   3.669 -0.0395 -0.1566  0.1010
 8685ION    CL-12885   1.835   7.535   4.203 -0.0538  0.1471 -0.0837
 8686ION    CL-12886   9.734   7.692   9.126 -0.1815  0.1419 -0.0492
 8687ION    CL-12887   2.494   1.703  10.931  0.0659 -0.0931  0.0029
 8688ION    CL-12888   2.589   3.777  10.871 -0.2055  0.1164 -0.0077
 8689ION    CL-12889   7.795   3.736   0.086  0.0925 -0.0298  0.1760
 8690ION    CL-12890   6.784   6.697   9.802  0.0493  0.3481 -0.0997
 8691ION    CL-12891   8.242   6.213  12.853 -0.0723  0.0309  0.2175
 8692ION    CL-12892   0.945   2.604   1.549 -0.2019 -0.0153  0.0077
 8693ION    CL-12893   5.389   5.404   9.095  0.1638  0.2529  0.1838
 8694ION    CL-12894  10.371   3.260   0.604  0.5117  0.1610 -0.0054
 8695ION    CL-12895   6.505   5.173  13.266  0.1162  0.2192  0.1926
 8696ION    CL-12896   0.577   3.760   0.191  0.0037 -0.1093 -0.0750
 8697ION    CL-12897   2.666   9.633   3.391  0.1138 -0.0998  0.2223
 8698ION    CL-12898   6.449   8.682  11.118  0.0353  0.0874 -0.0066
 8699ION    CL-12899   7.382   9.086   3.351 -0.1049 -0.0401 -0.0507
 8700ION    CL-12900  10.026   4.653  10.256  0.0895 -0.2425 -0.0125
 8701ION    CL-12901   9.415  10.348   4.600 -0.2086 -0.2982 -0.0424
 8702ION    CL-12902   2.843  10.467  11.557 -0.2554 -0.0690 -0.1268
 8703ION    CL-12903   8.202   6.333   4.030  0.0778 -0.0447  0.0045
 8704ION    CL-12904   6.732   5.709   2.730 -0.1674 -0.1142  0.3371
 8705ION    CL-12905   0.308   9.742  12.294  0.3070 -0.0186 -0.4520
 8706ION    CL-12906   3.339   3.949   9.269  0.0199  0.1399  0.1281
 8707ION    CL-12907   7.944   9.665   9.582 -0.1572 -0.0120 -0.1455
 8708ION    CL-12908   5.529   5.056   2.279 -0.1269 -0.0019 -0.1929
 8709ION    CL-12909   2.872   6.481   3.879  0.1872  0.4590  0.0386
 8710ION    CL-12910   8.869   3.892   0.776 -0.4448 -0.2084 -0.0296
 8711ION    CL-12911   0.331   2.939  13.057  0.2298  0.1491  0.0662
 8712ION    CL-12912   8.628   2.946   4.428 -0.1996 -0.1141 -0.3053
 8713ION    CL-12913   1.009   1.606  12.135 -0.1109  0.1434 -0.0673
 8714ION    CL-12914   5.294   6.966   1.935  0.1778 -0.1584  0.1607
  10.51124  10.51124  13.37649
