Protein in INSANE! Membrane UpperLeaflet>POPC=1.0 LowerLeaflet>POPC=1.0
12676
    1AU     AUC    1   5.751   5.855   6.005
    1AU     AUC    2   6.013   5.859   5.849
    1AU     AUC    3   6.004   5.847   6.160
    1AU     AUC    4   5.500   5.862   5.837
    1AU     AUC    5   5.492   5.874   6.151
    1AU     AUC    6   5.599   6.108   6.008
    1AU     AUC    7   5.912   6.105   5.994
    1AU     AUC    8   5.608   5.592   6.005
    1AU     AUC    9   5.893   5.601   6.019
    1AU     AUC   10   5.747   5.700   6.264
    1AU     AUC   11   5.753   6.024   6.259
    1AU     AUC   12   5.749   5.694   5.750
    1AU     AUC   13   5.738   6.002   5.736
    1AU     AUC   14   6.266   5.860   5.687
    1AU     AUC   15   6.268   5.865   5.997
    1AU     AUC   16   6.256   5.852   6.313
    1AU     AUC   17   5.233   5.846   5.706
    1AU     AUC   18   5.226   5.836   6.010
    1AU     AUC   19   5.243   5.880   6.322
    1AU     AUC   20   5.443   6.364   6.011
    1AU     AUC   21   5.759   6.374   6.004
    1AU     AUC   22   6.056   6.369   6.000
    1AU     AUC   23   5.434   5.347   6.010
    1AU     AUC   24   5.740   5.333   5.999
    1AU     AUC   25   6.052   5.335   6.020
    1AU     AUC   26   5.745   5.542   6.518
    1AU     AUC   27   5.755   5.852   6.533
    1AU     AUC   28   5.758   6.164   6.522
    1AU     AUC   29   5.745   5.532   5.509
    1AU     AUC   30   5.742   5.858   5.482
    1AU     AUC   31   5.735   6.160   5.478
    1AU     AUC   32   6.018   5.708   6.433
    1AU     AUC   33   6.010   5.998   6.433
    1AU     AUC   34   6.026   5.696   5.590
    1AU     AUC   35   6.030   5.998   5.581
    1AU     AUC   36   5.486   5.710   6.433
    1AU     AUC   37   5.500   6.026   6.440
    1AU     AUC   38   5.502   5.696   5.573
    1AU     AUC   39   5.488   6.023   5.586
    1AU     AUC   40   6.166   6.123   5.831
    1AU     AUC   41   6.178   6.099   6.154
    1AU     AUC   42   5.322   6.094   5.859
    1AU     AUC   43   5.331   6.125   6.161
    1AU     AUC   44   6.166   5.597   5.853
    1AU     AUC   45   6.167   5.599   6.177
    1AU     AUC   46   5.325   5.603   5.842
    1AU     AUC   47   5.346   5.600   6.180
    1AU     AUC   48   5.593   6.262   6.274
    1AU     AUC   49   5.911   6.278   6.246
    1AU     AUC   50   5.589   5.424   6.254
    1AU     AUC   51   5.898   5.436   6.281
    1AU     AUC   52   5.597   6.271   5.732
    1AU     AUC   53   5.899   6.263   5.724
    1AU     AUC   54   5.575   5.445   5.739
    1AU     AUC   55   5.906   5.437   5.759
    1AU    AUSL   56   6.110   5.816   6.681
    1AU    AUSL   57   6.083   5.380   6.629
    1AU     AUL   58   6.380   5.456   6.913
    1AU       S   59   6.362   5.127   6.538
    1AU     LIG   60   6.299   4.950   6.955
    1AU     LIG   61   6.379   4.569   7.191
    1AU     LIG   62   6.597   4.223   7.426
    1AU     LIG   63   6.659   3.937   7.815
    1AU     LIG   64   6.733   3.752   8.257
    1AU     LIG   65   6.940   3.580   8.644
    1AU       S   66   6.131   5.807   6.894
    1AU     LIG   67   6.270   5.750   7.330
    1AU     LIG   68   6.538   5.565   7.689
    1AU     LIG   69   6.879   5.542   8.046
    1AU     LIG   70   7.241   5.533   8.377
    1AU     LIG   71   7.593   5.579   8.706
    1AU     LIG   72   7.883   5.612   9.079
    1AU    AUSL   73   5.792   5.574   6.845
    1AU    AUSL   74   5.686   5.979   6.804
    1AU     AUL   75   5.804   5.935   7.194
    1AU       S   76   5.905   5.543   7.016
    1AU     LIG   77   6.098   5.261   7.326
    1AU     LIG   78   6.246   5.122   7.773
    1AU     LIG   79   6.257   4.925   8.235
    1AU     LIG   80   6.268   4.743   8.700
    1AU     LIG   81   6.433   4.661   9.149
    1AU     LIG   82   6.563   4.839   9.569
    1AU       S   83   5.388   5.764   7.134
    1AU     LIG   84   5.239   5.666   7.601
    1AU     LIG   85   5.041   5.591   8.027
    1AU     LIG   86   5.018   5.739   8.482
    1AU     LIG   87   5.107   6.012   8.878
    1AU     LIG   88   4.976   6.255   9.268
    1AU     LIG   89   4.696   6.443   9.609
    1AU    AUSL   90   6.021   6.211   6.795
    1AU    AUSL   91   6.383   6.063   6.496
    1AU     AUL   92   6.481   6.024   6.953
    1AU       S   93   6.060   6.222   6.936
    1AU     LIG   94   6.229   6.282   7.340
    1AU     LIG   95   6.421   6.466   7.745
    1AU     LIG   96   6.455   6.640   8.200
    1AU     LIG   97   6.511   6.772   8.676
    1AU     LIG   98   6.633   6.842   9.147
    1AU     LIG   99   6.583   6.824   9.623
    1AU       S  100   6.631   6.101   6.521
    1AU     LIG  101   6.952   6.169   6.876
    1AU     LIG  102   7.189   6.369   7.244
    1AU     LIG  103   7.462   6.648   7.537
    1AU     LIG  104   7.814   6.725   7.883
    1AU     LIG  105   8.232   6.824   8.141
    1AU     LIG  106   8.622   7.016   8.366
    1AU    AUSL  107   6.285   5.905   5.374
    1AU    AUSL  108   6.077   6.271   5.334
    1AU     AUL  109   6.028   6.276   5.071
    1AU       S  110   6.337   5.957   4.973
    1AU     LIG  111   6.647   5.766   4.767
    1AU     LIG  112   6.692   5.526   4.394
    1AU     LIG  113   6.825   5.445   3.951
    1AU     LIG  114   7.207   5.501   3.658
    1AU     LIG  115   7.578   5.662   3.391
    1AU     LIG  116   7.735   5.723   2.942
    1AU       S  117   6.470   6.394   5.165
    1AU     LIG  118   6.578   6.718   4.893
    1AU     LIG  119   6.850   6.758   4.520
    1AU     LIG  120   7.154   6.846   4.182
    1AU     LIG  121   7.293   7.133   3.842
    1AU     LIG  122   7.512   7.514   3.691
    1AU     LIG  123   7.523   7.975   3.551
    1AU    AUSL  124   6.037   5.607   5.211
    1AU    AUSL  125   6.377   5.535   5.518
    1AU     AUL  126   6.497   5.642   5.257
    1AU       S  127   6.399   5.191   5.309
    1AU     LIG  128   6.593   4.965   4.943
    1AU     LIG  129   6.837   4.583   4.792
    1AU     LIG  130   7.104   4.357   4.462
    1AU     LIG  131   7.494   4.417   4.176
    1AU     LIG  132   7.863   4.493   3.876
    1AU     LIG  133   8.208   4.289   3.617
    1AU       S  134   6.161   5.718   4.941
    1AU     LIG  135   6.302   5.359   4.753
    1AU     LIG  136   6.324   5.186   4.304
    1AU     LIG  137   6.394   5.154   3.822
    1AU     LIG  138   6.388   5.097   3.330
    1AU     LIG  139   6.405   5.043   2.834
    1AU     LIG  140   6.634   5.011   2.394
    1AU    AUSL  141   5.885   5.930   5.423
    1AU    AUSL  142   5.632   5.678   5.217
    1AU     AUL  143   5.795   5.468   5.072
    1AU       S  144   5.585   5.809   4.830
    1AU     LIG  145   5.470   5.488   4.546
    1AU     LIG  146   5.253   5.265   4.171
    1AU     LIG  147   5.066   5.003   3.795
    1AU     LIG  148   4.987   4.819   3.343
    1AU     LIG  149   4.812   4.907   2.895
    1AU     LIG  150   4.669   5.126   2.478
    1AU       S  151   6.051   5.837   4.978
    1AU     LIG  152   6.191   5.785   4.466
    1AU     LIG  153   6.337   5.638   4.033
    1AU     LIG  154   6.476   5.601   3.577
    1AU     LIG  155   6.526   5.800   3.153
    1AU     LIG  156   6.719   6.164   2.914
    1AU     LIG  157   6.822   6.374   2.506
    1AU    AUSL  158   5.304   5.880   6.680
    1AU    AUSL  159   5.458   6.284   6.657
    1AU     AUL  160   5.508   6.201   6.947
    1AU       S  161   5.211   5.898   7.153
    1AU     LIG  162   4.913   5.554   7.212
    1AU     LIG  163   4.762   5.367   7.632
    1AU     LIG  164   4.566   5.338   8.098
    1AU     LIG  165   4.246   5.315   8.493
    1AU     LIG  166   4.016   5.456   8.913
    1AU     LIG  167   3.660   5.700   9.161
    1AU       S  168   5.063   6.287   6.886
    1AU     LIG  169   5.052   6.516   7.297
    1AU     LIG  170   4.970   6.829   7.659
    1AU     LIG  171   4.829   6.957   8.098
    1AU     LIG  172   4.776   7.270   8.452
    1AU     LIG  173   4.569   7.634   8.688
    1AU     LIG  174   4.323   8.048   8.762
    1AU    AUSL  175   5.626   5.702   6.505
    1AU    AUSL  176   5.068   5.600   6.479
    1AU     AUL  177   5.112   5.748   6.733
    1AU       S  178   4.851   5.363   6.705
    1AU     LIG  179   4.484   5.111   6.627
    1AU     LIG  180   4.079   4.889   6.676
    1AU     LIG  181   3.871   4.641   7.026
    1AU     LIG  182   3.713   4.358   7.370
    1AU     LIG  183   3.438   4.173   7.699
    1AU     LIG  184   3.138   4.277   8.060
    1AU       S  185   5.412   5.643   7.087
    1AU     LIG  186   5.325   5.256   7.314
    1AU     LIG  187   5.211   5.157   7.769
    1AU     LIG  188   5.018   5.095   8.206
    1AU     LIG  189   4.870   4.885   8.617
    1AU     LIG  190   4.851   4.747   9.077
    1AU     LIG  191   4.751   4.926   9.497
    1AU    AUSL  192   5.293   5.869   5.347
    1AU    AUSL  193   5.426   5.398   5.418
    1AU     AUL  194   5.309   5.559   5.117
    1AU       S  195   5.305   5.952   4.864
    1AU     LIG  196   5.029   5.744   4.545
    1AU     LIG  197   4.810   5.524   4.162
    1AU     LIG  198   4.595   5.261   3.809
    1AU     LIG  199   4.249   5.132   3.478
    1AU     LIG  200   3.959   5.213   3.096
    1AU     LIG  201   3.816   5.539   2.766
    1AU       S  202   5.033   5.187   5.288
    1AU     LIG  203   4.761   4.773   5.260
    1AU     LIG  204   4.418   4.524   5.061
    1AU     LIG  205   4.194   4.272   4.722
    1AU     LIG  206   4.228   4.092   4.266
    1AU     LIG  207   4.313   3.785   3.887
    1AU     LIG  208   4.149   3.445   3.577
    1AU    AUSL  209   5.606   6.105   5.200
    1AU    AUSL  210   5.303   6.104   5.678
    1AU     AUL  211   5.122   6.051   5.280
    1AU       S  212   4.982   6.497   5.259
    1AU     LIG  213   4.644   6.546   4.955
    1AU     LIG  214   4.531   6.687   4.526
    1AU     LIG  215   4.440   6.850   4.092
    1AU     LIG  216   4.117   6.998   3.778
    1AU     LIG  217   3.668   7.129   3.739
    1AU     LIG  218   3.438   7.514   3.608
    1AU       S  219   5.587   6.022   4.984
    1AU     LIG  220   5.489   6.041   4.422
    1AU     LIG  221   5.259   5.794   4.079
    1AU     LIG  222   5.075   5.835   3.635
    1AU     LIG  223   5.108   6.053   3.194
    1AU     LIG  224   5.128   6.208   2.728
    1AU     LIG  225   4.934   6.295   2.292
    1AU    AUSL  226   6.361   6.465   5.940
    1AU    AUSL  227   6.405   6.225   5.597
    1AU     AUL  228   6.494   6.672   5.719
    1AU       S  229   6.657   6.201   5.348
    1AU     LIG  230   6.918   6.319   4.963
    1AU     LIG  231   7.251   6.478   4.676
    1AU     LIG  232   7.544   6.524   4.327
    1AU     LIG  233   7.960   6.569   4.127
    1AU     LIG  234   8.307   6.853   3.994
    1AU     LIG  235   8.472   7.040   3.587
    1AU       S  236   6.828   6.365   5.860
    1AU     LIG  237   7.274   6.427   6.090
    1AU     LIG  238   7.780   6.482   6.056
    1AU     LIG  239   8.273   6.585   6.013
    1AU     LIG  240   8.657   6.927   6.010
    1AU     LIG  241   8.984   7.319   6.014
    1AU     LIG  242   9.216   7.725   6.172
    1AU    AUSL  243   6.589   5.908   5.754
    1AU    AUSL  244   6.600   5.743   6.152
    1AU     AUL  245   6.888   5.697   5.902
    1AU       S  246   6.802   6.147   5.841
    1AU     LIG  247   7.272   6.036   5.772
    1AU     LIG  248   7.781   6.064   5.752
    1AU     LIG  249   8.277   6.136   5.708
    1AU     LIG  250   8.765   6.077   5.672
    1AU     LIG  251   9.203   6.285   5.664
    1AU     LIG  252   9.574   6.582   5.492
    1AU       S  253   6.898   5.310   6.174
    1AU     LIG  254   7.227   5.059   6.349
    1AU     LIG  255   7.647   4.843   6.302
    1AU     LIG  256   8.065   4.629   6.264
    1AU     LIG  257   8.485   4.437   6.224
    1AU     LIG  258   8.858   4.345   6.466
    1AU     LIG  259   9.185   4.433   6.806
    1AU    AUSL  260   6.381   6.079   6.086
    1AU    AUSL  261   6.256   6.422   6.332
    1AU     AUL  262   6.519   6.451   6.198
    1AU       S  263   6.438   6.255   6.576
    1AU     LIG  264   6.914   6.507   6.507
    1AU     LIG  265   7.101   6.739   6.898
    1AU     LIG  266   7.335   7.070   7.191
    1AU     LIG  267   7.568   7.529   7.241
    1AU     LIG  268   7.832   7.946   7.351
    1AU     LIG  269   8.063   8.342   7.520
    1AU       S  270   6.836   6.148   6.085
    1AU     LIG  271   7.155   5.947   6.280
    1AU     LIG  272   7.630   6.019   6.244
    1AU     LIG  273   8.122   6.097   6.192
    1AU     LIG  274   8.617   6.183   6.151
    1AU     LIG  275   9.107   6.301   6.183
    1AU     LIG  276   9.453   6.580   6.396
    1AU    AUSL  277   5.101   6.268   6.031
    1AU    AUSL  278   5.128   6.156   6.438
    1AU     AUL  279   5.020   6.531   6.306
    1AU       S  280   4.934   6.199   6.649
    1AU     LIG  281   4.602   6.375   7.013
    1AU     LIG  282   4.552   6.643   7.420
    1AU     LIG  283   4.394   6.733   7.889
    1AU     LIG  284   4.041   6.815   8.245
    1AU     LIG  285   3.602   7.020   8.381
    1AU     LIG  286   3.216   7.274   8.544
    1AU       S  287   4.690   6.345   6.047
    1AU     LIG  288   4.592   6.807   6.178
    1AU     LIG  289   4.337   7.258   6.140
    1AU     LIG  290   4.000   7.630   6.156
    1AU     LIG  291   3.551   7.851   6.099
    1AU     LIG  292   3.118   8.107   6.117
    1AU     LIG  293   2.721   8.144   6.417
    1AU    AUSL  294   4.936   5.980   5.758
    1AU    AUSL  295   5.254   6.533   5.770
    1AU     AUL  296   4.980   6.317   5.678
    1AU       S  297   4.551   6.247   5.848
    1AU     LIG  298   4.511   6.573   5.480
    1AU     LIG  299   4.123   6.859   5.309
    1AU     LIG  300   3.609   6.906   5.276
    1AU     LIG  301   3.094   6.935   5.235
    1AU     LIG  302   2.602   6.797   5.226
    1AU     LIG  303   2.138   6.946   5.121
    1AU       S  304   5.044   6.734   5.459
    1AU     LIG  305   4.928   6.959   5.044
    1AU     LIG  306   4.793   7.270   4.718
    1AU     LIG  307   4.549   7.662   4.784
    1AU     LIG  308   4.441   8.075   4.583
    1AU     LIG  309   4.153   8.384   4.388
    1AU     LIG  310   3.809   8.703   4.328
    1AU    AUSL  311   4.900   5.938   6.189
    1AU    AUSL  312   4.982   5.612   5.945
    1AU     AUL  313   4.682   5.804   5.829
    1AU       S  314   4.638   5.501   6.216
    1AU     LIG  315   4.179   5.429   6.359
    1AU     LIG  316   3.689   5.420   6.361
    1AU     LIG  317   3.309   5.137   6.288
    1AU     LIG  318   2.918   5.064   5.943
    1AU     LIG  319   2.413   5.064   5.852
    1AU     LIG  320   1.982   4.936   5.638
    1AU       S  321   4.691   6.057   6.236
    1AU     LIG  322   4.493   6.406   6.507
    1AU     LIG  323   4.073   6.587   6.683
    1AU     LIG  324   3.580   6.691   6.734
    1AU     LIG  325   3.092   6.803   6.756
    1AU     LIG  326   2.681   7.042   6.829
    1AU     LIG  327   2.234   6.893   6.830
    1AU    AUSL  328   6.439   5.355   6.084
    1AU    AUSL  329   6.364   5.608   6.443
    1AU     AUL  330   6.674   5.607   6.443
    1AU       S  331   6.601   5.104   6.054
    1AU     LIG  332   6.807   4.777   6.257
    1AU     LIG  333   7.228   4.577   6.140
    1AU     LIG  334   7.666   4.384   6.032
    1AU     LIG  335   8.111   4.179   5.978
    1AU     LIG  336   8.487   3.917   6.157
    1AU     LIG  337   8.854   3.830   6.495
    1AU       S  338   6.391   5.240   6.523
    1AU     LIG  339   6.780   4.978   6.739
    1AU     LIG  340   6.882   4.615   7.060
    1AU     LIG  341   7.105   4.358   7.420
    1AU     LIG  342   7.444   4.255   7.770
    1AU     LIG  343   7.793   4.262   8.127
    1AU     LIG  344   8.215   4.227   8.381
    1AU    AUSL  345   6.289   5.680   5.885
    1AU    AUSL  346   6.223   5.224   5.759
    1AU     AUL  347   6.565   5.424   5.709
    1AU       S  348   6.654   5.266   6.118
    1AU     LIG  349   7.055   4.995   5.847
    1AU     LIG  350   7.532   4.840   5.799
    1AU     LIG  351   8.004   4.671   5.758
    1AU     LIG  352   8.447   4.479   5.699
    1AU     LIG  353   8.846   4.457   5.459
    1AU     LIG  354   9.223   4.708   5.533
    1AU       S  355   6.443   5.016   5.499
    1AU     LIG  356   6.518   4.587   5.277
    1AU     LIG  357   6.659   4.170   5.058
    1AU     LIG  358   6.869   3.773   4.856
    1AU     LIG  359   7.106   3.325   4.872
    1AU     LIG  360   7.516   3.076   4.757
    1AU     LIG  361   7.980   3.089   4.596
    1AU    AUSL  362   5.116   5.226   5.993
    1AU    AUSL  363   5.092   5.595   5.560
    1AU     AUL  364   4.864   5.377   5.775
    1AU       S  365   4.917   5.419   5.325
    1AU     LIG  366   4.511   5.205   5.419
    1AU     LIG  367   4.185   4.976   5.167
    1AU     LIG  368   3.948   4.708   4.874
    1AU     LIG  369   3.715   4.429   4.586
    1AU     LIG  370   3.375   4.415   4.257
    1AU     LIG  371   3.135   4.398   3.841
    1AU       S  372   4.649   5.278   6.163
    1AU     LIG  373   4.340   4.989   6.117
    1AU     LIG  374   3.904   4.993   6.197
    1AU     LIG  375   3.572   4.703   6.298
    1AU     LIG  376   3.107   4.650   6.195
    1AU     LIG  377   2.704   4.387   6.110
    1AU     LIG  378   2.504   4.007   5.916
    1AU    AUSL  379   5.269   5.770   6.180
    1AU    AUSL  380   5.354   5.369   6.291
    1AU     AUL  381   5.077   5.286   6.303
    1AU       S  382   5.016   5.149   6.724
    1AU     LIG  383   4.857   4.854   6.394
    1AU     LIG  384   4.459   4.610   6.456
    1AU     LIG  385   4.147   4.353   6.709
    1AU     LIG  386   3.863   4.059   6.982
    1AU     LIG  387   3.636   3.735   7.277
    1AU     LIG  388   3.497   3.264   7.354
    1AU       S  389   4.706   5.526   6.197
    1AU     LIG  390   4.286   5.438   5.859
    1AU     LIG  391   3.773   5.357   5.847
    1AU     LIG  392   3.273   5.470   5.925
    1AU     LIG  393   2.900   5.425   6.284
    1AU     LIG  394   2.405   5.352   6.305
    1AU     LIG  395   1.967   5.238   6.493
    1AU    AUSL  396   5.765   6.520   6.532
    1AU    AUSL  397   5.437   6.353   6.256
    1AU     AUL  398   5.433   6.621   6.550
    1AU       S  399   5.095   6.450   6.785
    1AU     LIG  400   4.853   6.813   6.922
    1AU     LIG  401   4.766   7.129   7.272
    1AU     LIG  402   4.661   7.588   7.416
    1AU     LIG  403   4.558   8.074   7.431
    1AU     LIG  404   4.261   8.450   7.500
    1AU     LIG  405   3.827   8.584   7.654
    1AU       S  406   5.793   6.922   6.529
    1AU     LIG  407   6.015   7.056   6.877
    1AU     LIG  408   6.073   7.497   7.036
    1AU     LIG  409   6.092   7.861   7.352
    1AU     LIG  410   6.079   8.146   7.751
    1AU     LIG  411   5.938   8.488   8.069
    1AU     LIG  412   5.880   8.940   8.215
    1AU    AUSL  413   5.539   6.709   6.112
    1AU    AUSL  414   5.966   6.687   5.793
    1AU     AUL  415   5.618   6.977   5.915
    1AU       S  416   5.711   6.979   6.362
    1AU     LIG  417   5.769   7.421   6.589
    1AU     LIG  418   5.765   7.853   6.773
    1AU     LIG  419   5.521   8.266   6.809
    1AU     LIG  420   5.400   8.730   6.891
    1AU     LIG  421   5.331   9.202   7.025
    1AU     LIG  422   5.174   9.641   7.139
    1AU       S  423   6.062   6.933   5.733
    1AU     LIG  424   6.403   7.173   5.515
    1AU     LIG  425   6.485   7.633   5.317
    1AU     LIG  426   6.750   8.082   5.253
    1AU     LIG  427   6.835   8.579   5.225
    1AU     LIG  428   6.867   9.065   5.194
    1AU     LIG  429   6.828   9.537   5.120
    1AU    AUSL  430   5.912   6.527   6.155
    1AU    AUSL  431   5.945   6.171   6.413
    1AU     AUL  432   6.089   6.577   6.537
    1AU       S  433   6.484   6.404   6.714
    1AU     LIG  434   6.651   6.520   7.114
    1AU     LIG  435   6.908   6.750   7.437
    1AU     LIG  436   7.117   6.897   7.839
    1AU     LIG  437   7.225   7.110   8.260
    1AU     LIG  438   7.295   7.496   8.542
    1AU     LIG  439   7.440   7.853   8.828
    1AU       S  440   5.982   6.894   6.226
    1AU     LIG  441   6.226   7.243   6.446
    1AU     LIG  442   6.354   7.696   6.635
    1AU     LIG  443   6.661   8.116   6.686
    1AU     LIG  444   6.832   8.599   6.728
    1AU     LIG  445   6.675   9.057   6.734
    1AU     LIG  446   6.710   9.525   6.866
    1AU    AUSL  447   5.735   5.254   6.456
    1AU    AUSL  448   6.065   5.412   6.223
    1AU     AUL  449   5.924   5.141   6.670
    1AU       S  450   5.735   4.734   6.497
    1AU     LIG  451   5.524   4.358   6.647
    1AU     LIG  452   5.292   3.964   6.740
    1AU     LIG  453   5.293   3.532   6.909
    1AU     LIG  454   5.343   3.226   7.272
    1AU     LIG  455   5.389   3.033   7.713
    1AU     LIG  456   5.528   2.728   8.056
    1AU       S  457   6.352   5.013   6.444
    1AU     LIG  458   6.439   4.596   6.612
    1AU     LIG  459   6.602   4.228   6.870
    1AU     LIG  460   6.927   3.974   7.108
    1AU     LIG  461   7.219   3.617   7.263
    1AU     LIG  462   7.533   3.258   7.362
    1AU     LIG  463   7.933   2.997   7.390
    1AU    AUSL  464   5.557   5.048   6.146
    1AU    AUSL  465   5.424   5.407   6.691
    1AU     AUL  466   5.443   5.086   6.526
    1AU       S  467   5.491   4.715   6.263
    1AU     LIG  468   5.270   4.307   6.203
    1AU     LIG  469   5.103   3.873   6.270
    1AU     LIG  470   4.991   3.467   6.483
    1AU     LIG  471   4.751   3.048   6.533
    1AU     LIG  472   4.626   2.659   6.772
    1AU     LIG  473   4.678   2.217   6.881
    1AU       S  474   5.166   5.291   6.832
    1AU     LIG  475   4.764   5.064   7.121
    1AU     LIG  476   4.431   4.711   7.019
    1AU     LIG  477   4.230   4.322   7.230
    1AU     LIG  478   4.037   3.978   7.511
    1AU     LIG  479   4.030   3.707   7.914
    1AU     LIG  480   4.031   3.621   8.385
    1AU    AUSL  481   5.987   5.022   6.180
    1AU    AUSL  482   5.482   5.064   5.743
    1AU     AUL  483   5.808   4.782   5.937
    1AU       S  484   5.316   4.815   5.788
    1AU     LIG  485   5.024   4.477   5.782
    1AU     LIG  486   5.083   4.014   5.771
    1AU     LIG  487   5.082   3.574   5.556
    1AU     LIG  488   4.855   3.131   5.446
    1AU     LIG  489   4.658   2.708   5.262
    1AU     LIG  490   4.625   2.257   5.114
    1AU       S  491   5.870   4.783   6.380
    1AU     LIG  492   5.803   4.326   6.204
    1AU     LIG  493   5.616   3.912   6.338
    1AU     LIG  494   5.641   3.454   6.511
    1AU     LIG  495   5.908   3.020   6.532
    1AU     LIG  496   6.067   2.589   6.698
    1AU     LIG  497   6.249   2.233   6.946
    1AU    AUSL  498   5.780   6.498   5.470
    1AU    AUSL  499   6.047   6.287   5.761
    1AU     AUL  500   6.127   6.561   5.459
    1AU       S  501   5.831   6.891   5.335
    1AU     LIG  502   6.176   7.024   5.083
    1AU     LIG  503   6.217   7.460   4.887
    1AU     LIG  504   6.106   7.773   4.526
    1AU     LIG  505   6.060   8.100   4.165
    1AU     LIG  506   6.012   8.534   3.966
    1AU     LIG  507   6.041   8.872   3.628
    1AU       S  508   6.527   6.300   5.457
    1AU     LIG  509   6.843   6.667   5.355
    1AU     LIG  510   7.074   6.853   4.987
    1AU     LIG  511   7.361   7.125   4.717
    1AU     LIG  512   7.611   7.557   4.697
    1AU     LIG  513   7.813   7.989   4.581
    1AU     LIG  514   7.835   8.406   4.331
    1AU    AUSL  515   5.631   6.419   5.841
    1AU    AUSL  516   5.405   6.378   5.412
    1AU     AUL  517   5.494   6.689   5.586
    1AU       S  518   5.905   6.948   5.570
    1AU     LIG  519   5.970   7.404   5.372
    1AU     LIG  520   5.982   7.859   5.168
    1AU     LIG  521   5.797   8.332   5.084
    1AU     LIG  522   5.484   8.737   4.995
    1AU     LIG  523   5.420   9.229   4.859
    1AU     LIG  524   4.968   9.410   4.773
    1AU       S  525   5.265   6.506   5.218
    1AU     LIG  526   5.137   6.574   4.763
    1AU     LIG  527   4.986   6.868   4.396
    1AU     LIG  528   4.915   6.989   3.926
    1AU     LIG  529   4.909   7.343   3.599
    1AU     LIG  530   4.603   7.677   3.448
    1AU     LIG  531   4.288   7.933   3.179
    1AU    AUSL  532   5.782   5.189   5.457
    1AU    AUSL  533   5.398   5.449   5.817
    1AU     AUL  534   5.492   5.175   5.366
    1AU       S  535   5.057   5.098   5.490
    1AU     LIG  536   4.729   4.898   5.764
    1AU     LIG  537   4.321   4.699   5.578
    1AU     LIG  538   3.981   4.429   5.308
    1AU     LIG  539   3.749   4.098   5.009
    1AU     LIG  540   3.467   3.678   4.913
    1AU     LIG  541   3.276   3.344   4.623
    1AU       S  542   5.589   4.764   5.521
    1AU     LIG  543   5.254   4.540   5.334
    1AU     LIG  544   5.205   4.071   5.275
    1AU     LIG  545   5.357   3.643   5.116
    1AU     LIG  546   5.378   3.319   4.749
    1AU     LIG  547   5.365   3.127   4.296
    1AU     LIG  548   5.499   2.826   3.950
    1AU    AUSL  549   5.832   5.230   5.870
    1AU    AUSL  550   5.968   5.515   5.592
    1AU     AUL  551   5.991   5.030   5.602
    1AU       S  552   5.436   4.875   5.708
    1AU     LIG  553   5.517   4.339   5.754
    1AU     LIG  554   5.547   3.857   5.605
    1AU     LIG  555   5.672   3.393   5.470
    1AU     LIG  556   5.996   3.001   5.427
    1AU     LIG  557   6.280   2.611   5.327
    1AU     LIG  558   6.499   2.212   5.136
    1AU       S  559   6.218   5.188   5.236
    1AU     LIG  560   6.106   4.815   5.054
    1AU     LIG  561   6.331   4.486   4.789
    1AU     LIG  562   6.608   4.176   4.537
    1AU     LIG  563   6.726   3.917   4.155
    1AU     LIG  564   6.925   3.714   3.779
    1AU     LIG  565   7.228   3.572   3.455
    2POPC   NC3  566   1.374   2.485   7.922
    2POPC   PO4  567   1.139   3.065   8.133
    2POPC   GL1  568   1.219   2.956   7.714
    2POPC   GL2  569   0.887   2.805   7.677
    2POPC   C1A  570   1.245   2.685   7.314
    2POPC   D2A  571   1.470   2.702   6.941
    2POPC   C3A  572   1.355   2.746   6.536
    2POPC   C4A  573   1.652   2.977   6.300
    2POPC   C1B  574   0.908   3.049   7.282
    2POPC   C2B  575   1.012   3.044   6.848
    2POPC   C3B  576   0.861   2.862   6.458
    2POPC   C4B  577   1.118   2.767   6.071
    3POPC   NC3  578   2.747   1.959   8.074
    3POPC   PO4  579   3.228   2.306   7.714
    3POPC   GL1  580   3.012   1.907   7.600
    3POPC   GL2  581   2.668   1.732   7.626
    3POPC   C1A  582   3.036   1.903   7.176
    3POPC   D2A  583   3.134   2.004   6.784
    3POPC   C3A  584   2.995   1.875   6.466
    3POPC   C4A  585   3.070   1.954   6.102
    3POPC   C1B  586   2.559   1.991   7.293
    3POPC   C2B  587   2.601   2.114   6.865
    3POPC   C3B  588   2.501   2.037   6.453
    3POPC   C4B  589   2.612   2.144   6.022
    4POPC   NC3  590   8.549   5.190   8.162
    4POPC   PO4  591   9.036   5.448   8.235
    4POPC   GL1  592   8.924   5.273   7.799
    4POPC   GL2  593   8.942   4.913   7.679
    4POPC   C1A  594   8.940   5.283   7.308
    4POPC   D2A  595   9.182   5.181   6.897
    4POPC   C3A  596   9.041   5.257   6.445
    4POPC   C4A  597   8.793   5.286   6.051
    4POPC   C1B  598   8.980   4.780   7.195
    4POPC   C2B  599   8.845   4.824   6.734
    4POPC   C3B  600   8.836   4.816   6.284
    4POPC   C4B  601   8.921   4.527   5.956
    5POPC   NC3  602   1.404   0.519   8.054
    5POPC   PO4  603   0.832   0.806   7.963
    5POPC   GL1  604   0.981   0.414   7.720
    5POPC   GL2  605   1.252   0.141   7.753
    5POPC   C1A  606   0.888   0.310   7.286
    5POPC   D2A  607   0.821   0.518   6.890
    5POPC   C3A  608   0.842   0.184   6.601
    5POPC   C4A  609   0.855  11.486   6.230
    5POPC   C1B  610   1.409   0.384   7.382
    5POPC   C2B  611   1.335   0.536   6.949
    5POPC   C3B  612   1.218   0.512   6.511
    5POPC   C4B  613   1.272   0.259   6.159
    6POPC   NC3  614   7.891   2.565   7.966
    6POPC   PO4  615   7.603   3.127   8.016
    6POPC   GL1  616   7.510   2.815   7.665
    6POPC   GL2  617   7.144   2.735   7.668
    6POPC   C1A  618   7.515   2.755   7.187
    6POPC   D2A  619   7.375   2.873   6.743
    6POPC   C3A  620   7.591   2.779   6.329
    6POPC   C4A  621   7.634   2.917   5.879
    6POPC   C1B  622   7.175   2.422   7.362
    6POPC   C2B  623   7.179   2.412   6.908
    6POPC   C3B  624   7.100   2.522   6.462
    6POPC   C4B  625   7.269   2.487   6.047
    7POPC   NC3  626   2.125   5.670   8.155
    7POPC   PO4  627   1.644   6.097   8.055
    7POPC   GL1  628   1.646   5.936   7.660
    7POPC   GL2  629   2.009   5.910   7.660
    7POPC   C1A  630   1.632   6.119   7.234
    7POPC   D2A  631   1.840   6.031   6.858
    7POPC   C3A  632   1.695   6.069   6.440
    7POPC   C4A  633   1.744   5.695   6.223
    7POPC   C1B  634   1.880   5.676   7.283
    7POPC   C2B  635   2.047   5.569   6.876
    7POPC   C3B  636   2.149   5.792   6.494
    7POPC   C4B  637   2.214   5.756   6.025
    8POPC   NC3  638   0.376   5.413   8.117
    8POPC   PO4  639   0.032   4.847   8.123
    8POPC   GL1  640   0.195   5.006   7.792
    8POPC   GL2  641   0.539   5.007   7.846
    8POPC   C1A  642   0.080   4.842   7.365
    8POPC   D2A  643   0.158   4.637   6.960
    8POPC   C3A  644   0.003   4.789   6.579
    8POPC   C4A  645   0.216   4.862   6.231
    8POPC   C1B  646   0.531   5.152   7.445
    8POPC   C2B  647   0.481   5.034   7.025
    8POPC   C3B  648   0.452   5.155   6.565
    8POPC   C4B  649   0.625   5.172   6.149
    9POPC   NC3  650  11.175   5.275   8.112
    9POPC   PO4  651  11.007   4.732   8.367
    9POPC   GL1  652  11.076   4.850   7.837
    9POPC   GL2  653  11.240   5.152   7.645
    9POPC   C1A  654  11.029   4.840   7.349
    9POPC   D2A  655  11.036   5.106   6.952
    9POPC   C3A  656  10.954   4.914   6.561
    9POPC   C4A  657  11.090   4.837   6.171
    9POPC   C1B  658  11.390   5.313   7.268
    9POPC   C2B  659   0.039   5.213   6.852
    9POPC   C3B  660  11.417   5.273   6.377
    9POPC   C4B  661  11.183   5.298   5.948
   10POPC   NC3  662  11.399   8.194   7.883
   10POPC   PO4  663  10.692   8.348   8.045
   10POPC   GL1  664  10.966   8.324   7.636
   10POPC   GL2  665  11.323   8.425   7.466
   10POPC   C1A  666  10.875   8.353   7.203
   10POPC   D2A  667  10.899   8.485   6.805
   10POPC   C3A  668  11.036   8.178   6.587
   10POPC   C4A  669  10.987   8.038   6.200
   10POPC   C1B  670  11.337   8.055   7.228
   10POPC   C2B  671  11.473   8.098   6.827
   10POPC   C3B  672  11.470   7.977   6.439
   10POPC   C4B  673  11.411   8.296   6.175
   11POPC   NC3  674   3.537   2.437   8.033
   11POPC   PO4  675   4.195   2.546   8.273
   11POPC   GL1  676   3.956   2.525   7.786
   11POPC   GL2  677   3.608   2.746   7.634
   11POPC   C1A  678   3.849   2.427   7.346
   11POPC   D2A  679   3.654   2.681   7.073
   11POPC   C3A  680   3.768   2.555   6.687
   11POPC   C4A  681   3.765   2.819   6.362
   11POPC   C1B  682   3.214   2.820   7.316
   11POPC   C2B  683   3.096   2.954   6.883
   11POPC   C3B  684   3.224   2.840   6.447
   11POPC   C4B  685   3.426   3.165   6.187
   12POPC   NC3  686   4.803   7.988   8.037
   12POPC   PO4  687   5.157   7.576   7.939
   12POPC   GL1  688   5.048   7.887   7.586
   12POPC   GL2  689   5.119   8.222   7.691
   12POPC   C1A  690   4.949   7.913   7.118
   12POPC   D2A  691   5.141   7.907   6.687
   12POPC   C3A  692   4.828   7.966   6.344
   12POPC   C4A  693   4.445   8.104   6.095
   12POPC   C1B  694   5.225   8.312   7.246
   12POPC   C2B  695   5.019   8.390   6.828
   12POPC   C3B  696   5.203   8.327   6.386
   12POPC   C4B  697   5.286   7.976   6.088
   13POPC   NC3  698   8.470   0.947   7.984
   13POPC   PO4  699   7.761   1.063   8.127
   13POPC   GL1  700   8.017   1.103   7.748
   13POPC   GL2  701   7.833   1.337   7.515
   13POPC   C1A  702   8.123   0.928   7.340
   13POPC   D2A  703   7.956   1.036   6.915
   13POPC   C3A  704   8.238   0.961   6.580
   13POPC   C4A  705   8.286   1.095   6.167
   13POPC   C1B  706   8.171   1.423   7.193
   13POPC   C2B  707   8.219   1.470   6.762
   13POPC   C3B  708   7.930   1.353   6.438
   13POPC   C4B  709   7.777   1.644   6.127
   14POPC   NC3  710   1.114   9.562   8.091
   14POPC   PO4  711   0.858  10.183   8.116
   14POPC   GL1  712   1.032   9.932   7.743
   14POPC   GL2  713   1.407   9.860   7.751
   14POPC   C1A  714   0.862   9.926   7.325
   14POPC   D2A  715   1.126   9.909   6.957
   14POPC   C3A  716   1.074   9.638   6.597
   14POPC   C4A  717   1.144   9.864   6.230
   14POPC   C1B  718   1.305   9.645   7.370
   14POPC   C2B  719   1.501   9.537   6.969
   14POPC   C3B  720   1.596   9.646   6.571
   14POPC   C4B  721   1.488   9.490   6.180
   15POPC   NC3  722   1.270  10.546   8.174
   15POPC   PO4  723   0.729  10.683   7.814
   15POPC   GL1  724   0.985  10.427   7.644
   15POPC   GL2  725   1.350  10.409   7.678
   15POPC   C1A  726   1.064  10.380   7.231
   15POPC   D2A  727   1.298  10.489   6.903
   15POPC   C3A  728   1.138  10.270   6.560
   15POPC   C4A  729   0.905  10.316   6.189
   15POPC   C1B  730   1.555  10.235   7.292
   15POPC   C2B  731   1.600  10.068   6.857
   15POPC   C3B  732   1.616  10.134   6.397
   15POPC   C4B  733   1.392  10.357   6.095
   16POPC   NC3  734   3.605   9.373   8.253
   16POPC   PO4  735   3.067   9.215   7.993
   16POPC   GL1  736   3.427   9.457   7.761
   16POPC   GL2  737   3.659   9.758   7.810
   16POPC   C1A  738   3.449   9.552   7.315
   16POPC   D2A  739   3.328   9.721   6.904
   16POPC   C3A  740   3.306   9.527   6.473
   16POPC   C4A  741   3.205   9.519   6.032
   16POPC   C1B  742   3.730   9.975   7.379
   16POPC   C2B  743   3.825   9.931   6.906
   16POPC   C3B  744   3.789   9.726   6.467
   16POPC   C4B  745   3.678   9.735   6.006
   17POPC   NC3  746  10.455   1.261   8.296
   17POPC   PO4  747  10.354   1.797   7.937
   17POPC   GL1  748  10.286   1.495   7.621
   17POPC   GL2  749  10.419   1.150   7.688
   17POPC   C1A  750  10.537   1.391   7.240
   17POPC   D2A  751  10.677   1.224   6.858
   17POPC   C3A  752  10.633   1.570   6.613
   17POPC   C4A  753  10.523   1.570   6.211
   17POPC   C1B  754  10.100   1.130   7.325
   17POPC   C2B  755  10.191   1.063   6.910
   17POPC   C3B  756  10.249   1.228   6.516
   17POPC   C4B  757  10.255   1.073   6.081
   18POPC   NC3  758   3.822  11.336   8.156
   18POPC   PO4  759   3.283   0.053   7.841
   18POPC   GL1  760   3.632  11.392   7.677
   18POPC   GL2  761   3.556  11.051   7.685
   18POPC   C1A  762   3.759  11.342   7.272
   18POPC   D2A  763   3.721  11.049   6.944
   18POPC   C3A  764   3.685  11.204   6.574
   18POPC   C4A  765   3.727   0.020   6.293
   18POPC   C1B  766   3.298  11.077   7.288
   18POPC   C2B  767   3.230  10.919   6.854
   18POPC   C3B  768   3.265  11.003   6.404
   18POPC   C4B  769   3.591  11.001   6.087
   19POPC   NC3  770  11.317   6.264   8.077
   19POPC   PO4  771  11.204   6.914   7.951
   19POPC   GL1  772  11.269   6.728   7.594
   19POPC   GL2  773  11.261   6.374   7.593
   19POPC   C1A  774  11.183   6.840   7.185
   19POPC   D2A  775  11.105   7.003   6.781
   19POPC   C3A  776  11.208   6.800   6.334
   19POPC   C4A  777  10.887   6.946   5.960
   19POPC   C1B  778  11.239   6.341   7.177
   19POPC   C2B  779  11.049   6.496   6.813
   19POPC   C3B  780  11.057   6.305   6.450
   19POPC   C4B  781  11.463   6.240   6.270
   20POPC   NC3  782  10.385   0.273   8.435
   20POPC   PO4  783  10.910   0.127   8.073
   20POPC   GL1  784  10.690   0.265   7.692
   20POPC   GL2  785  10.314   0.338   7.720
   20POPC   C1A  786  10.525   0.226   7.246
   20POPC   D2A  787  10.493  11.486   6.879
   20POPC   C3A  788  10.553   0.247   6.534
   20POPC   C4A  789  10.691   0.178   6.117
   20POPC   C1B  790  10.338   0.673   7.368
   20POPC   C2B  791  10.470   0.636   6.914
   20POPC   C3B  792  10.286   0.706   6.498
   20POPC   C4B  793  10.219   0.410   6.184
   21POPC   NC3  794   6.951   1.118   7.960
   21POPC   PO4  795   6.259   1.165   8.032
   21POPC   GL1  796   6.511   0.975   7.677
   21POPC   GL2  797   6.288   0.750   7.484
   21POPC   C1A  798   6.858   1.070   7.339
   21POPC   D2A  799   6.791   1.242   6.943
   21POPC   C3A  800   6.554   0.975   6.693
   21POPC   C4A  801   6.550   1.205   6.332
   21POPC   C1B  802   6.347   1.094   7.183
   21POPC   C2B  803   6.288   1.456   6.896
   21POPC   C3B  804   6.350   1.665   6.479
   21POPC   C4B  805   6.202   1.488   6.097
   22POPC   NC3  806   8.956  10.997   7.997
   22POPC   PO4  807   9.307  10.484   7.870
   22POPC   GL1  808   9.145  10.807   7.567
   22POPC   GL2  809   9.066  11.211   7.568
   22POPC   C1A  810   8.954  10.875   7.180
   22POPC   D2A  811   8.673  10.774   6.841
   22POPC   C3A  812   8.677  11.001   6.485
   22POPC   C4A  813   8.991  10.983   6.237
   22POPC   C1B  814   8.678  11.260   7.338
   22POPC   C2B  815   8.789  11.300   6.903
   22POPC   C3B  816   8.687   0.018   6.524
   22POPC   C4B  817   8.739  11.435   6.090
   23POPC   NC3  818   0.463   1.060   7.838
   23POPC   PO4  819   0.786   1.599   7.998
   23POPC   GL1  820   0.679   1.471   7.615
   23POPC   GL2  821   0.285   1.488   7.637
   23POPC   C1A  822   0.601   1.547   7.189
   23POPC   D2A  823   0.494   1.313   6.829
   23POPC   C3A  824   0.474   1.599   6.493
   23POPC   C4A  825   0.306   1.550   6.088
   23POPC   C1B  826   0.146   1.252   7.267
   23POPC   C2B  827  11.462   1.089   6.915
   23POPC   C3B  828   0.079   1.237   6.506
   23POPC   C4B  829   0.468   1.069   6.312
   24POPC   NC3  830   4.240   8.604   8.174
   24POPC   PO4  831   4.052   9.223   8.164
   24POPC   GL1  832   4.080   9.011   7.784
   24POPC   GL2  833   4.395   8.893   7.729
   24POPC   C1A  834   4.050   8.918   7.325
   24POPC   D2A  835   4.170   8.601   7.001
   24POPC   C3A  836   4.116   8.710   6.541
   24POPC   C4A  837   4.076   8.498   6.138
   24POPC   C1B  838   4.548   8.854   7.281
   24POPC   C2B  839   4.434   9.006   6.842
   24POPC   C3B  840   4.540   8.948   6.396
   24POPC   C4B  841   4.683   9.137   6.030
   25POPC   NC3  842   3.539   1.356   8.166
   25POPC   PO4  843   3.213   0.701   8.050
   25POPC   GL1  844   3.251   0.887   7.641
   25POPC   GL2  845   3.512   1.139   7.561
   25POPC   C1A  846   3.157   1.025   7.224
   25POPC   D2A  847   3.354   1.075   6.821
   25POPC   C3A  848   3.154   1.093   6.418
   25POPC   C4A  849   3.171   1.465   6.140
   25POPC   C1B  850   3.823   1.398   7.279
   25POPC   C2B  851   3.988   1.530   6.854
   25POPC   C3B  852   3.923   1.472   6.410
   25POPC   C4B  853   3.626   1.192   6.343
   26POPC   NC3  854   5.645   9.702   8.242
   26POPC   PO4  855   6.088  10.150   8.207
   26POPC   GL1  856   6.104   9.843   7.804
   26POPC   GL2  857   5.794   9.641   7.740
   26POPC   C1A  858   6.015   9.876   7.311
   26POPC   D2A  859   6.181   9.756   6.882
   26POPC   C3A  860   5.940   9.829   6.495
   26POPC   C4A  861   6.006   9.880   6.058
   26POPC   C1B  862   5.656   9.504   7.318
   26POPC   C2B  863   5.628   9.632   6.877
   26POPC   C3B  864   5.501   9.502   6.453
   26POPC   C4B  865   5.727   9.452   6.045
   27POPC   NC3  866  11.080  10.444   8.036
   27POPC   PO4  867  10.749   9.913   7.779
   27POPC   GL1  868  11.110  10.095   7.602
   27POPC   GL2  869  11.170  10.457   7.543
   27POPC   C1A  870  11.186  10.066   7.175
   27POPC   D2A  871  10.925  10.117   6.815
   27POPC   C3A  872  11.175  10.314   6.550
   27POPC   C4A  873  11.238  10.149   6.160
   27POPC   C1B  874  10.853  10.718   7.323
   27POPC   C2B  875  11.008  10.657   6.921
   27POPC   C3B  876  11.102  10.852   6.542
   27POPC   C4B  877  11.301  10.670   6.216
   28POPC   NC3  878   5.448   0.128   7.909
   28POPC   PO4  879   5.013   0.588   8.230
   28POPC   GL1  880   5.207   0.547   7.772
   28POPC   GL2  881   5.123   0.279   7.540
   28POPC   C1A  882   5.361   0.621   7.281
   28POPC   D2A  883   5.084   0.361   6.985
   28POPC   C3A  884   5.173   0.330   6.546
   28POPC   C4A  885   5.262   0.666   6.293
   28POPC   C1B  886   4.873   0.646   7.387
   28POPC   C2B  887   4.635   0.678   7.019
   28POPC   C3B  888   4.768   0.672   6.584
   28POPC   C4B  889   4.799   0.976   6.259
   29POPC   NC3  890   8.699   2.606   8.042
   29POPC   PO4  891   8.208   2.914   7.998
   29POPC   GL1  892   8.541   2.907   7.635
   29POPC   GL2  893   8.773   2.601   7.532
   29POPC   C1A  894   8.843   3.055   7.300
   29POPC   D2A  895   8.927   3.355   6.951
   29POPC   C3A  896   8.971   3.190   6.530
   29POPC   C4A  897   8.674   3.039   6.186
   29POPC   C1B  898   9.096   2.620   7.187
   29POPC   C2B  899   8.969   2.678   6.759
   29POPC   C3B  900   9.048   2.710   6.326
   29POPC   C4B  901   9.051   2.554   5.899
   30POPC   NC3  902   7.364  10.623   8.227
   30POPC   PO4  903   7.707  10.785   7.685
   30POPC   GL1  904   7.357  10.549   7.565
   30POPC   GL2  905   7.408  10.239   7.761
   30POPC   C1A  906   7.277  10.394   7.154
   30POPC   D2A  907   6.996  10.443   6.820
   30POPC   C3A  908   7.166  10.652   6.482
   30POPC   C4A  909   7.507  10.658   6.215
   30POPC   C1B  910   7.697  10.146   7.421
   30POPC   C2B  911   7.630  10.075   6.985
   30POPC   C3B  912   7.507  10.266   6.604
   30POPC   C4B  913   7.477  10.125   6.184
   31POPC   NC3  914  10.263   4.522   7.597
   31POPC   PO4  915  10.222   4.032   7.949
   31POPC   GL1  916  10.046   4.076   7.532
   31POPC   GL2  917   9.716   4.143   7.545
   31POPC   C1A  918  10.021   4.246   7.066
   31POPC   D2A  919  10.146   4.643   6.790
   31POPC   C3A  920  10.034   4.593   6.347
   31POPC   C4A  921   9.769   4.253   6.222
   31POPC   C1B  922   9.495   4.113   7.143
   31POPC   C2B  923   9.320   3.911   6.769
   31POPC   C3B  924   9.307   4.131   6.397
   31POPC   C4B  925   9.315   4.589   6.324
   32POPC   NC3  926   0.324   2.042   7.966
   32POPC   PO4  927   0.947   2.345   7.934
   32POPC   GL1  928   0.835   2.014   7.637
   32POPC   GL2  929   0.498   1.931   7.521
   32POPC   C1A  930   0.788   2.152   7.202
   32POPC   D2A  931   0.493   1.981   6.902
   32POPC   C3A  932   0.711   2.066   6.545
   32POPC   C4A  933   0.854   1.915   6.163
   32POPC   C1B  934   0.151   1.816   7.271
   32POPC   C2B  935   0.088   1.618   6.881
   32POPC   C3B  936  11.479   1.762   6.462
   32POPC   C4B  937   0.283   2.042   6.263
   33POPC   NC3  938   9.427   5.659   8.247
   33POPC   PO4  939   9.904   6.037   8.133
   33POPC   GL1  940  10.007   5.832   7.729
   33POPC   GL2  941  10.120   6.091   7.571
   33POPC   C1A  942   9.911   5.701   7.293
   33POPC   D2A  943   9.843   5.822   6.859
   33POPC   C3A  944   9.730   5.599   6.489
   33POPC   C4A  945   9.870   5.676   6.083
   33POPC   C1B  946   9.811   6.202   7.230
   33POPC   C2B  947   9.664   6.290   6.785
   33POPC   C3B  948   9.690   6.101   6.370
   33POPC   C4B  949   9.441   5.928   6.044
   34POPC   NC3  950   5.067   1.077   8.168
   34POPC   PO4  951   5.656   0.717   8.097
   34POPC   GL1  952   5.423   0.987   7.734
   34POPC   GL2  953   5.165   1.267   7.707
   34POPC   C1A  954   5.382   1.119   7.281
   34POPC   D2A  955   5.075   0.961   6.979
   34POPC   C3A  956   5.196   1.073   6.581
   34POPC   C4A  957   5.251   1.177   6.137
   34POPC   C1B  958   4.902   1.316   7.323
   34POPC   C2B  959   4.770   1.409   6.897
   34POPC   C3B  960   4.896   1.456   6.452
   34POPC   C4B  961   5.002   1.616   6.033
   35POPC   NC3  962   7.723   9.202   8.073
   35POPC   PO4  963   8.451   9.239   8.041
   35POPC   GL1  964   8.326   9.099   7.640
   35POPC   GL2  965   7.999   9.072   7.666
   35POPC   C1A  966   8.205   8.802   7.282
   35POPC   D2A  967   8.083   8.689   6.817
   35POPC   C3A  968   8.350   8.660   6.408
   35POPC   C4A  969   8.330   8.763   5.951
   35POPC   C1B  970   7.829   9.148   7.267
   35POPC   C2B  971   7.990   9.190   6.853
   35POPC   C3B  972   8.009   9.048   6.408
   35POPC   C4B  973   7.853   8.979   5.958
   36POPC   NC3  974   8.907  10.378   8.079
   36POPC   PO4  975   8.480  11.004   8.008
   36POPC   GL1  976   8.605  10.671   7.636
   36POPC   GL2  977   8.860  10.375   7.584
   36POPC   C1A  978   8.557  10.450   7.197
   36POPC   D2A  979   8.620  10.262   6.782
   36POPC   C3A  980   8.392  10.548   6.464
   36POPC   C4A  981   8.558  10.721   6.064
   36POPC   C1B  982   9.097  10.380   7.186
   36POPC   C2B  983   9.155  10.627   6.788
   36POPC   C3B  984   8.910  10.516   6.422
   36POPC   C4B  985   8.960  10.115   6.280
   37POPC   NC3  986   7.086   8.824   7.944
   37POPC   PO4  987   7.754   8.647   8.169
   37POPC   GL1  988   7.725   8.649   7.746
   37POPC   GL2  989   7.533   8.881   7.693
   37POPC   C1A  990   7.710   8.635   7.276
   37POPC   D2A  991   7.593   8.868   6.896
   37POPC   C3A  992   7.401   8.654   6.567
   37POPC   C4A  993   7.758   8.614   6.315
   37POPC   C1B  994   7.326   8.983   7.319
   37POPC   C2B  995   7.139   9.083   6.931
   37POPC   C3B  996   7.141   9.108   6.489
   37POPC   C4B  997   7.384   8.989   6.148
   38POPC   NC3  998   0.593  11.017   8.084
   38POPC   PO4  999   1.163  10.947   8.430
   38POPC   GL1 1000   1.183  10.951   7.887
   38POPC   GL2 1001   0.951  11.194   7.728
   38POPC   C1A 1002   1.233  10.857   7.385
   38POPC   D2A 1003   1.222  11.055   6.936
   38POPC   C3A 1004   1.220  10.827   6.530
   38POPC   C4A 1005   0.948  10.868   6.180
   38POPC   C1B 1006   1.170  11.371   7.344
   38POPC   C2B 1007   1.440   0.022   7.015
   38POPC   C3B 1008   1.340   0.018   6.604
   38POPC   C4B 1009   1.299  11.261   6.256
   39POPC   NC3 1010   9.390   8.507   8.057
   39POPC   PO4 1011   9.324   7.838   8.075
   39POPC   GL1 1012   9.578   8.046   7.723
   39POPC   GL2 1013   9.775   8.351   7.712
   39POPC   C1A 1014   9.695   8.026   7.268
   39POPC   D2A 1015   9.840   7.759   6.907
   39POPC   C3A 1016   9.645   7.802   6.471
   39POPC   C4A 1017   9.713   7.797   6.026
   39POPC   C1B 1018   9.673   8.537   7.334
   39POPC   C2B 1019   9.530   8.440   6.919
   39POPC   C3B 1020   9.697   8.453   6.501
   39POPC   C4B 1021   9.541   8.247   6.141
   40POPC   NC3 1022   1.139   1.289   7.999
   40POPC   PO4 1023   1.715   0.870   8.071
   40POPC   GL1 1024   1.478   0.955   7.722
   40POPC   GL2 1025   1.495   1.294   7.630
   40POPC   C1A 1026   1.579   0.886   7.283
   40POPC   D2A 1027   1.737   0.848   6.852
   40POPC   C3A 1028   1.407   0.978   6.563
   40POPC   C4A 1029   1.028   0.961   6.292
   40POPC   C1B 1030   1.214   1.265   7.297
   40POPC   C2B 1031   1.275   1.372   6.864
   40POPC   C3B 1032   0.941   1.380   6.563
   40POPC   C4B 1033   0.810   1.406   6.140
   41POPC   NC3 1034   8.008   3.328   8.033
   41POPC   PO4 1035   8.316   3.821   7.910
   41POPC   GL1 1036   8.338   3.420   7.666
   41POPC   GL2 1037   7.999   3.476   7.533
   41POPC   C1A 1038   8.385   3.270   7.249
   41POPC   D2A 1039   8.425   3.563   6.907
   41POPC   C3A 1040   8.519   3.437   6.502
   41POPC   C4A 1041   8.313   3.399   6.123
   41POPC   C1B 1042   7.931   3.422   7.069
   41POPC   C2B 1043   8.036   3.286   6.631
   41POPC   C3B 1044   7.822   3.257   6.223
   41POPC   C4B 1045   7.473   3.400   5.949
   42POPC   NC3 1046  11.141   9.767   7.999
   42POPC   PO4 1047  10.818   9.212   7.837
   42POPC   GL1 1048  10.993   9.521   7.550
   42POPC   GL2 1049  11.349   9.627   7.550
   42POPC   C1A 1050  10.810   9.671   7.164
   42POPC   D2A 1051  10.635   9.471   6.785
   42POPC   C3A 1052  10.669   9.771   6.473
   42POPC   C4A 1053  10.887   9.788   6.066
   42POPC   C1B 1054  11.376   9.604   7.108
   42POPC   C2B 1055  11.116   9.636   6.751
   42POPC   C3B 1056  11.021   9.408   6.399
   42POPC   C4B 1057  11.336   9.507   6.094
   43POPC   NC3 1058  11.029   7.295   8.121
   43POPC   PO4 1059  11.153   7.806   7.842
   43POPC   GL1 1060  11.266   7.356   7.649
   43POPC   GL2 1061  10.965   7.145   7.567
   43POPC   C1A 1062  11.488   7.223   7.257
   43POPC   D2A 1063   0.101   6.941   6.901
   43POPC   C3A 1064  11.497   7.180   6.516
   43POPC   C4A 1065  11.362   7.529   6.258
   43POPC   C1B 1066  11.010   7.452   7.224
   43POPC   C2B 1067  11.035   7.764   6.900
   43POPC   C3B 1068  10.871   7.663   6.503
   43POPC   C4B 1069  10.960   7.245   6.366
   44POPC   NC3 1070   1.521   8.032   8.162
   44POPC   PO4 1071   0.873   8.052   8.267
   44POPC   GL1 1072   1.125   8.158   7.824
   44POPC   GL2 1073   1.120   8.531   7.681
   44POPC   C1A 1074   1.397   8.154   7.407
   44POPC   D2A 1075   1.544   8.309   6.974
   44POPC   C3A 1076   1.599   8.190   6.557
   44POPC   C4A 1077   1.367   8.116   6.186
   44POPC   C1B 1078   0.954   8.384   7.278
   44POPC   C2B 1079   1.078   8.116   6.991
   44POPC   C3B 1080   1.090   8.222   6.610
   44POPC   C4B 1081   0.881   8.288   6.241
   45POPC   NC3 1082   3.311   3.411   8.032
   45POPC   PO4 1083   2.673   3.240   8.061
   45POPC   GL1 1084   2.681   3.217   7.635
   45POPC   GL2 1085   2.481   3.521   7.594
   45POPC   C1A 1086   2.907   3.300   7.228
   45POPC   D2A 1087   2.776   3.390   6.786
   45POPC   C3A 1088   2.946   3.369   6.355
   45POPC   C4A 1089   2.954   3.814   6.150
   45POPC   C1B 1090   2.351   3.303   7.239
   45POPC   C2B 1091   2.155   3.511   6.922
   45POPC   C3B 1092   2.365   3.631   6.583
   45POPC   C4B 1093   2.431   3.274   6.373
   46POPC   NC3 1094  10.766   8.846   8.102
   46POPC   PO4 1095  11.324   9.352   8.158
   46POPC   GL1 1096  11.328   9.132   7.744
   46POPC   GL2 1097  11.176   8.801   7.791
   46POPC   C1A 1098  11.443   9.130   7.305
   46POPC   D2A 1099  11.239   9.143   6.883
   46POPC   C3A 1100  11.481   9.148   6.490
   46POPC   C4A 1101  11.219   9.000   6.171
   46POPC   C1B 1102  11.050   8.813   7.345
   46POPC   C2B 1103  11.343   8.645   7.005
   46POPC   C3B 1104  11.336   8.633   6.548
   46POPC   C4B 1105  10.974   8.559   6.255
   47POPC   NC3 1106   0.619   2.988   8.102
   47POPC   PO4 1107   0.167   2.458   8.081
   47POPC   GL1 1108   0.374   2.689   7.766
   47POPC   GL2 1109   0.526   2.424   7.650
   47POPC   C1A 1110   0.458   2.815   7.328
   47POPC   D2A 1111   0.510   2.996   6.933
   47POPC   C3A 1112   0.216   2.990   6.608
   47POPC   C4A 1113   0.412   2.942   6.212
   47POPC   C1B 1114   0.302   2.327   7.284
   47POPC   C2B 1115   0.356   2.497   6.893
   47POPC   C3B 1116   0.355   2.500   6.479
   47POPC   C4B 1117   0.683   2.442   6.202
   48POPC   NC3 1118   5.420   0.401   8.339
   48POPC   PO4 1119   5.962   0.217   7.918
   48POPC   GL1 1120   5.694   0.365   7.582
   48POPC   GL2 1121   5.772   0.626   7.591
   48POPC   C1A 1122   5.537   0.157   7.209
   48POPC   D2A 1123   5.649   0.384   6.838
   48POPC   C3A 1124   5.656   0.152   6.487
   48POPC   C4A 1125   5.417  11.411   6.228
   48POPC   C1B 1126   6.014   0.404   7.224
   48POPC   C2B 1127   6.194   0.645   6.958
   48POPC   C3B 1128   6.103   0.720   6.579
   48POPC   C4B 1129   5.884   0.513   6.210
   49POPC   NC3 1130  10.642   4.899   8.164
   49POPC   PO4 1131  10.765   5.529   8.102
   49POPC   GL1 1132  10.729   5.249   7.696
   49POPC   GL2 1133  10.449   5.020   7.700
   49POPC   C1A 1134  10.608   5.070   7.230
   49POPC   D2A 1135  10.508   5.075   6.799
   49POPC   C3A 1136  10.438   4.909   6.425
   49POPC   C4A 1137  10.653   5.088   6.126
   49POPC   C1B 1138  10.227   5.322   7.425
   49POPC   C2B 1139  10.176   5.415   6.957
   49POPC   C3B 1140  10.176   5.347   6.481
   49POPC   C4B 1141   9.857   5.169   6.173
   50POPC   NC3 1142   8.092  10.702   7.926
   50POPC   PO4 1143   8.498  10.234   7.950
   50POPC   GL1 1144   8.356  10.200   7.570
   50POPC   GL2 1145   8.111  10.483   7.464
   50POPC   C1A 1146   8.186  10.058   7.196
   50POPC   D2A 1147   8.084  10.263   6.830
   50POPC   C3A 1148   8.236  10.015   6.565
   50POPC   C4A 1149   8.450  10.108   6.218
   50POPC   C1B 1150   7.786  10.551   7.123
   50POPC   C2B 1151   7.556  10.734   6.832
   50POPC   C3B 1152   7.875  10.685   6.557
   50POPC   C4B 1153   7.946  10.337   6.293
   51POPC   NC3 1154   9.907   1.712   7.978
   51POPC   PO4 1155   9.299   1.571   8.280
   51POPC   GL1 1156   9.429   1.883   7.838
   51POPC   GL2 1157   9.702   2.155   7.751
   51POPC   C1A 1158   9.439   1.936   7.346
   51POPC   D2A 1159   9.712   1.889   6.947
   51POPC   C3A 1160   9.532   1.936   6.523
   51POPC   C4A 1161   9.323   1.780   6.152
   51POPC   C1B 1162   9.831   2.269   7.314
   51POPC   C2B 1163   9.523   2.378   6.975
   51POPC   C3B 1164   9.512   2.455   6.518
   51POPC   C4B 1165   9.862   2.255   6.255
   52POPC   NC3 1166  10.468   2.224   8.150
   52POPC   PO4 1167  10.762   1.648   8.308
   52POPC   GL1 1168  10.800   2.022   7.829
   52POPC   GL2 1169  10.425   2.120   7.590
   52POPC   C1A 1170  10.830   2.145   7.337
   52POPC   D2A 1171  10.594   1.907   7.001
   52POPC   C3A 1172  10.559   2.083   6.558
   52POPC   C4A 1173  10.543   2.081   6.103
   52POPC   C1B 1174  10.144   1.853   7.301
   52POPC   C2B 1175  10.137   1.570   6.951
   52POPC   C3B 1176  10.135   1.745   6.553
   52POPC   C4B 1177  10.104   1.826   6.128
   53POPC   NC3 1178   2.871   5.762   8.185
   53POPC   PO4 1179   3.276   6.138   8.017
   53POPC   GL1 1180   2.902   6.002   7.738
   53POPC   GL2 1181   2.601   5.717   7.695
   53POPC   C1A 1182   2.905   5.871   7.320
   53POPC   D2A 1183   2.968   6.083   6.956
   53POPC   C3A 1184   3.045   5.797   6.618
   53POPC   C4A 1185   3.105   5.895   6.175
   53POPC   C1B 1186   2.423   5.705   7.220
   53POPC   C2B 1187   2.568   5.589   6.753
   53POPC   C3B 1188   2.617   5.825   6.331
   53POPC   C4B 1189   2.465   6.192   6.188
   54POPC   NC3 1190   8.959   9.266   8.088
   54POPC   PO4 1191   8.954   9.934   8.185
   54POPC   GL1 1192   8.809   9.875   7.727
   54POPC   GL2 1193   8.802   9.518   7.668
   54POPC   C1A 1194   8.743   9.958   7.264
   54POPC   D2A 1195   8.953   9.840   6.834
   54POPC   C3A 1196   8.683   9.721   6.459
   54POPC   C4A 1197   8.694   9.612   5.978
   54POPC   C1B 1198   9.107   9.579   7.310
   54POPC   C2B 1199   9.190   9.322   6.954
   54POPC   C3B 1200   9.164   9.328   6.527
   54POPC   C4B 1201   9.129   9.632   6.220
   55POPC   NC3 1202   9.727   0.223   7.954
   55POPC   PO4 1203   9.213  11.378   8.058
   55POPC   GL1 1204   9.275   0.163   7.699
   55POPC   GL2 1205   9.436   0.504   7.617
   55POPC   C1A 1206   9.505   0.097   7.303
   55POPC   D2A 1207   9.482   0.347   6.940
   55POPC   C3A 1208   9.337   0.130   6.581
   55POPC   C4A 1209   9.315   0.332   6.190
   55POPC   C1B 1210   9.833   0.505   7.328
   55POPC   C2B 1211   9.909   0.639   6.869
   55POPC   C3B 1212   9.748   0.456   6.472
   55POPC   C4B 1213   9.763   0.502   6.017
   56POPC   NC3 1214   0.151   8.181   8.409
   56POPC   PO4 1215   0.325   7.937   7.844
   56POPC   GL1 1216   0.307   8.195   7.553
   56POPC   GL2 1217   0.638   8.301   7.648
   56POPC   C1A 1218   0.357   8.128   7.145
   56POPC   D2A 1219   0.611   8.209   6.840
   56POPC   C3A 1220   0.393   8.268   6.504
   56POPC   C4A 1221   0.369   8.078   6.141
   56POPC   C1B 1222   0.761   7.915   7.353
   56POPC   C2B 1223   0.750   7.718   6.907
   56POPC   C3B 1224   0.741   7.865   6.456
   56POPC   C4B 1225   0.764   7.871   5.931
   57POPC   NC3 1226   0.559   4.082   7.921
   57POPC   PO4 1227   0.385   3.397   8.065
   57POPC   GL1 1228   0.451   3.574   7.694
   57POPC   GL2 1229   0.588   3.247   7.609
   57POPC   C1A 1230   0.421   3.793   7.309
   57POPC   D2A 1231   0.659   3.873   6.918
   57POPC   C3A 1232   0.488   3.833   6.533
   57POPC   C4A 1233   0.651   3.711   6.121
   57POPC   C1B 1234   0.251   3.295   7.293
   57POPC   C2B 1235   0.341   3.470   6.890
   57POPC   C3B 1236   0.584   3.340   6.522
   57POPC   C4B 1237   0.224   3.441   6.241
   58POPC   NC3 1238   5.190  10.954   8.114
   58POPC   PO4 1239   4.977   0.055   7.974
   58POPC   GL1 1240   4.826  11.359   7.615
   58POPC   GL2 1241   4.953  11.070   7.675
   58POPC   C1A 1242   5.073  11.376   7.237
   58POPC   D2A 1243   5.260  11.366   6.835
   58POPC   C3A 1244   4.906  11.399   6.542
   58POPC   C4A 1245   4.921  11.471   6.114
   58POPC   C1B 1246   5.106  10.877   7.302
   58POPC   C2B 1247   5.202  10.806   6.873
   58POPC   C3B 1248   5.213  11.001   6.460
   58POPC   C4B 1249   5.206  10.976   6.013
   59POPC   NC3 1250   2.930   0.280   8.073
   59POPC   PO4 1251   2.466   0.812   7.955
   59POPC   GL1 1252   2.779   0.646   7.690
   59POPC   GL2 1253   2.598   0.344   7.667
   59POPC   C1A 1254   2.997   0.538   7.311
   59POPC   D2A 1255   2.908   0.296   6.941
   59POPC   C3A 1256   2.892   0.442   6.529
   59POPC   C4A 1257   2.880   0.232   6.150
   59POPC   C1B 1258   2.476   0.440   7.233
   59POPC   C2B 1259   2.297   0.720   6.901
   59POPC   C3B 1260   2.206   0.759   6.467
   59POPC   C4B 1261   2.492   0.727   6.057
   60POPC   NC3 1262   8.984   1.249   8.139
   60POPC   PO4 1263   8.339   1.371   8.080
   60POPC   GL1 1264   8.671   1.348   7.720
   60POPC   GL2 1265   8.886   1.073   7.652
   60POPC   C1A 1266   8.673   1.340   7.249
   60POPC   D2A 1267   8.864   1.273   6.822
   60POPC   C3A 1268   8.613   1.384   6.459
   60POPC   C4A 1269   8.667   1.343   5.974
   60POPC   C1B 1270   9.125   1.103   7.245
   60POPC   C2B 1271   9.201   0.815   6.934
   60POPC   C3B 1272   9.213   0.996   6.572
   60POPC   C4B 1273   9.075   1.305   6.276
   61POPC   NC3 1274   2.326  10.403   7.937
   61POPC   PO4 1275   1.720  10.690   8.091
   61POPC   GL1 1276   1.864  10.511   7.711
   61POPC   GL2 1277   1.872  10.133   7.730
   61POPC   C1A 1278   1.833  10.676   7.312
   61POPC   D2A 1279   1.681  10.830   6.931
   61POPC   C3A 1280   1.903  10.712   6.576
   61POPC   C4A 1281   1.815  10.645   6.176
   61POPC   C1B 1282   2.076  10.216   7.333
   61POPC   C2B 1283   2.002  10.369   6.928
   61POPC   C3B 1284   2.112  10.203   6.507
   61POPC   C4B 1285   2.038  10.229   6.053
   62POPC   NC3 1286   0.308   4.530   8.324
   62POPC   PO4 1287   0.067   4.087   7.968
   62POPC   GL1 1288   0.085   4.382   7.683
   62POPC   GL2 1289   0.342   4.529   7.770
   62POPC   C1A 1290   0.237   4.268   7.290
   62POPC   D2A 1291   0.184   4.042   6.926
   62POPC   C3A 1292   0.178   4.269   6.570
   62POPC   C4A 1293   0.247   4.077   6.180
   62POPC   C1B 1294   0.556   4.640   7.394
   62POPC   C2B 1295   0.663   4.507   6.966
   62POPC   C3B 1296   0.523   4.642   6.582
   62POPC   C4B 1297   0.564   4.468   6.180
   63POPC   NC3 1298   1.177   8.853   8.084
   63POPC   PO4 1299   1.558   9.468   8.097
   63POPC   GL1 1300   1.393   9.265   7.720
   63POPC   GL2 1301   1.059   9.109   7.663
   63POPC   C1A 1302   1.363   9.148   7.271
   63POPC   D2A 1303   1.104   9.206   6.919
   63POPC   C3A 1304   1.340   9.175   6.575
   63POPC   C4A 1305   1.212   9.086   6.187
   63POPC   C1B 1306   0.929   8.886   7.299
   63POPC   C2B 1307   1.183   8.694   6.934
   63POPC   C3B 1308   1.097   8.709   6.499
   63POPC   C4B 1309   0.799   8.769   6.150
   64POPC   NC3 1310   9.798  10.858   8.061
   64POPC   PO4 1311  10.134   0.038   8.123
   64POPC   GL1 1312   9.983  11.244   7.802
   64POPC   GL2 1313   9.611  11.248   7.711
   64POPC   C1A 1314   9.959  10.998   7.401
   64POPC   D2A 1315   9.852  11.199   6.990
   64POPC   C3A 1316   9.917  11.077   6.571
   64POPC   C4A 1317   9.856  10.847   6.216
   64POPC   C1B 1318   9.459  11.083   7.291
   64POPC   C2B 1319   9.314  11.138   6.855
   64POPC   C3B 1320   9.429  11.155   6.404
   64POPC   C4B 1321   9.244  11.340   6.000
   65POPC   NC3 1322   0.762   7.701   7.976
   65POPC   PO4 1323   1.421   7.670   7.888
   65POPC   GL1 1324   1.120   7.555   7.645
   65POPC   GL2 1325   1.145   7.219   7.802
   65POPC   C1A 1326   1.179   7.658   7.223
   65POPC   D2A 1327   1.458   7.790   6.929
   65POPC   C3A 1328   1.252   7.746   6.580
   65POPC   C4A 1329   1.127   7.651   6.210
   65POPC   C1B 1330   1.218   7.159   7.340
   65POPC   C2B 1331   0.963   7.128   6.934
   65POPC   C3B 1332   1.012   7.202   6.479
   65POPC   C4B 1333   1.456   7.280   6.341
   66POPC   NC3 1334   8.911   0.252   8.120
   66POPC   PO4 1335   9.180   0.829   8.077
   66POPC   GL1 1336   8.924   0.576   7.724
   66POPC   GL2 1337   8.716   0.250   7.656
   66POPC   C1A 1338   8.843   0.683   7.290
   66POPC   D2A 1339   8.646   0.825   6.882
   66POPC   C3A 1340   8.722   0.899   6.392
   66POPC   C4A 1341   8.620   0.808   5.917
   66POPC   C1B 1342   8.966   0.179   7.296
   66POPC   C2B 1343   8.850   0.328   6.917
   66POPC   C3B 1344   8.984   0.505   6.575
   66POPC   C4B 1345   8.793   0.431   6.212
   67POPC   NC3 1346   4.294   3.011   8.221
   67POPC   PO4 1347   3.668   3.140   8.048
   67POPC   GL1 1348   4.020   3.047   7.755
   67POPC   GL2 1349   4.346   2.828   7.707
   67POPC   C1A 1350   4.016   2.936   7.325
   67POPC   D2A 1351   4.156   2.771   6.930
   67POPC   C3A 1352   4.238   2.945   6.507
   67POPC   C4A 1353   4.417   3.101   6.117
   67POPC   C1B 1354   4.345   2.477   7.338
   67POPC   C2B 1355   4.172   2.274   6.928
   67POPC   C3B 1356   4.239   2.432   6.513
   67POPC   C4B 1357   4.581   2.600   6.260
   68POPC   NC3 1358   9.957   9.328   8.115
   68POPC   PO4 1359   9.816   8.708   8.057
   68POPC   GL1 1360   9.736   8.936   7.691
   68POPC   GL2 1361   9.363   8.908   7.673
   68POPC   C1A 1362   9.978   8.996   7.308
   68POPC   D2A 1363   9.925   8.757   6.902
   68POPC   C3A 1364   9.891   8.925   6.445
   68POPC   C4A 1365  10.004   9.167   6.025
   68POPC   C1B 1366   9.391   8.923   7.199
   68POPC   C2B 1367   9.449   8.925   6.734
   68POPC   C3B 1368   9.391   8.862   6.350
   68POPC   C4B 1369   9.173   8.467   6.404
   69POPC   NC3 1370  11.463   3.631   8.054
   69POPC   PO4 1371  10.785   3.464   7.966
   69POPC   GL1 1372  10.828   3.560   7.561
   69POPC   GL2 1373  11.160   3.441   7.577
   69POPC   C1A 1374  10.871   3.763   7.184
   69POPC   D2A 1375  10.936   3.632   6.760
   69POPC   C3A 1376  10.759   3.873   6.441
   69POPC   C4A 1377  10.977   3.712   6.062
   69POPC   C1B 1378  11.235   3.132   7.277
   69POPC   C2B 1379  11.340   3.255   6.858
   69POPC   C3B 1380  11.248   3.288   6.408
   69POPC   C4B 1381  11.023   3.004   6.137
   70POPC   NC3 1382   1.199   5.954   7.943
   70POPC   PO4 1383   0.853   5.417   8.078
   70POPC   GL1 1384   0.979   5.580   7.676
   70POPC   GL2 1385   1.331   5.523   7.698
   70POPC   C1A 1386   0.870   5.464   7.242
   70POPC   D2A 1387   0.680   5.488   6.856
   70POPC   C3A 1388   0.938   5.377   6.492
   70POPC   C4A 1389   1.059   5.466   6.055
   70POPC   C1B 1390   1.293   5.745   7.290
   70POPC   C2B 1391   1.232   5.595   6.865
   70POPC   C3B 1392   1.267   5.760   6.439
   70POPC   C4B 1393   1.338   5.920   6.032
   71POPC   NC3 1394   9.835   6.538   8.037
   71POPC   PO4 1395  10.480   6.376   7.965
   71POPC   GL1 1396  10.532   6.376   7.585
   71POPC   GL2 1397  10.795   6.562   7.583
   71POPC   C1A 1398  10.399   6.272   7.179
   71POPC   D2A 1399  10.566   6.324   6.768
   71POPC   C3A 1400  10.271   6.551   6.554
   71POPC   C4A 1401   9.972   6.533   6.263
   71POPC   C1B 1402  10.728   6.648   7.192
   71POPC   C2B 1403  10.634   6.817   6.831
   71POPC   C3B 1404  10.722   6.724   6.412
   71POPC   C4B 1405  10.419   6.756   6.088
   72POPC   NC3 1406   2.867   1.027   8.025
   72POPC   PO4 1407   3.069   1.603   8.070
   72POPC   GL1 1408   3.011   1.358   7.665
   72POPC   GL2 1409   2.688   1.184   7.597
   72POPC   C1A 1410   2.871   1.431   7.214
   72POPC   D2A 1411   2.735   1.636   6.871
   72POPC   C3A 1412   2.789   1.427   6.520
   72POPC   C4A 1413   2.635   1.635   6.184
   72POPC   C1B 1414   2.636   0.944   7.245
   72POPC   C2B 1415   2.842   0.825   6.872
   72POPC   C3B 1416   2.689   0.920   6.485
   72POPC   C4B 1417   2.397   1.194   6.305
   73POPC   NC3 1418   9.718   7.596   8.051
   73POPC   PO4 1419   9.672   6.965   7.991
   73POPC   GL1 1420   9.599   7.310   7.637
   73POPC   GL2 1421   9.817   7.619   7.552
   73POPC   C1A 1422   9.462   7.466   7.203
   73POPC   D2A 1423   9.478   7.401   6.731
   73POPC   C3A 1424   9.324   7.096   6.375
   73POPC   C4A 1425   9.372   6.854   5.951
   73POPC   C1B 1426   9.955   7.329   7.220
   73POPC   C2B 1427  10.013   7.296   6.765
   73POPC   C3B 1428   9.814   7.264   6.370
   73POPC   C4B 1429   9.874   7.009   6.012
   74POPC   NC3 1430  10.679   3.908   8.037
   74POPC   PO4 1431  10.646   4.575   7.836
   74POPC   GL1 1432  10.730   4.408   7.470
   74POPC   GL2 1433  10.613   4.090   7.569
   74POPC   C1A 1434  10.764   4.291   7.086
   74POPC   D2A 1435  10.653   4.580   6.811
   74POPC   C3A 1436  10.648   4.459   6.420
   74POPC   C4A 1437  10.649   4.607   6.004
   74POPC   C1B 1438  10.410   3.942   7.237
   74POPC   C2B 1439  10.475   3.936   6.853
   74POPC   C3B 1440  10.259   4.169   6.602
   74POPC   C4B 1441  10.300   4.159   6.214
   75POPC   NC3 1442   4.915  10.352   8.137
   75POPC   PO4 1443   5.491  10.004   7.945
   75POPC   GL1 1444   5.272  10.271   7.665
   75POPC   GL2 1445   5.075  10.574   7.713
   75POPC   C1A 1446   5.175  10.195   7.216
   75POPC   D2A 1447   5.053  10.251   6.774
   75POPC   C3A 1448   4.978   9.934   6.398
   75POPC   C4A 1449   4.972   9.915   5.896
   75POPC   C1B 1450   4.766  10.495   7.359
   75POPC   C2B 1451   4.676  10.635   6.907
   75POPC   C3B 1452   4.881  10.607   6.471
   75POPC   C4B 1453   5.067  10.364   6.116
   76POPC   NC3 1454   7.584   8.222   8.035
   76POPC   PO4 1455   7.011   8.376   7.885
   76POPC   GL1 1456   7.232   8.507   7.533
   76POPC   GL2 1457   7.465   8.270   7.540
   76POPC   C1A 1458   7.239   8.524   7.075
   76POPC   D2A 1459   7.178   8.206   6.760
   76POPC   C3A 1460   7.054   8.310   6.365
   76POPC   C4A 1461   7.055   8.601   6.031
   76POPC   C1B 1462   7.348   8.020   7.211
   76POPC   C2B 1463   7.561   7.882   6.835
   76POPC   C3B 1464   7.417   7.905   6.387
   76POPC   C4B 1465   7.514   7.791   5.938
   77POPC   NC3 1466   2.427  11.224   8.465
   77POPC   PO4 1467   3.050  11.389   8.304
   77POPC   GL1 1468   2.788  11.388   7.806
   77POPC   GL2 1469   2.565  11.113   7.783
   77POPC   C1A 1470   2.783  11.493   7.344
   77POPC   D2A 1471   2.893  11.296   6.932
   77POPC   C3A 1472   2.704  11.452   6.545
   77POPC   C4A 1473   2.437  11.424   6.183
   77POPC   C1B 1474   2.761  10.983   7.367
   77POPC   C2B 1475   2.700  10.842   6.950
   77POPC   C3B 1476   2.784  10.951   6.533
   77POPC   C4B 1477   2.622  10.928   6.116
   78POPC   NC3 1478   7.818   0.622   8.005
   78POPC   PO4 1479   8.507   0.500   8.084
   78POPC   GL1 1480   8.290   0.559   7.717
   78POPC   GL2 1481   8.128   0.275   7.752
   78POPC   C1A 1482   8.385   0.475   7.310
   78POPC   D2A 1483   8.200   0.574   6.944
   78POPC   C3A 1484   8.426   0.469   6.583
   78POPC   C4A 1485   8.235   0.571   6.213
   78POPC   C1B 1486   7.873   0.384   7.387
   78POPC   C2B 1487   7.854   0.198   6.998
   78POPC   C3B 1488   7.849   0.422   6.591
   78POPC   C4B 1489   7.724   0.161   6.276
   79POPC   NC3 1490   2.041   0.524   8.005
   79POPC   PO4 1491   2.456   0.055   8.153
   79POPC   GL1 1492   2.163   0.066   7.767
   79POPC   GL2 1493   1.884   0.296   7.585
   79POPC   C1A 1494   2.187   0.000   7.329
   79POPC   D2A 1495   2.409  11.474   6.961
   79POPC   C3A 1496   2.174   0.087   6.583
   79POPC   C4A 1497   2.154   0.344   6.206
   79POPC   C1B 1498   1.915   0.474   7.185
   79POPC   C2B 1499   1.782   0.345   6.770
   79POPC   C3B 1500   1.714   0.569   6.384
   79POPC   C4B 1501   1.692   0.438   5.961
   80POPC   NC3 1502  10.818   3.437   8.416
   80POPC   PO4 1503  10.186   3.348   8.261
   80POPC   GL1 1504  10.334   3.341   7.764
   80POPC   GL2 1505  10.342   3.649   7.643
   80POPC   C1A 1506  10.642   3.084   7.459
   80POPC   D2A 1507  10.788   3.262   7.079
   80POPC   C3A 1508  10.805   3.109   6.655
   80POPC   C4A 1509  10.721   3.381   6.343
   80POPC   C1B 1510  10.331   3.442   7.253
   80POPC   C2B 1511  10.250   3.480   6.828
   80POPC   C3B 1512  10.278   3.660   6.413
   80POPC   C4B 1513  10.480   3.719   6.021
   81POPC   NC3 1514  10.813   6.692   8.070
   81POPC   PO4 1515  10.583   7.358   8.122
   81POPC   GL1 1516  10.471   7.147   7.730
   81POPC   GL2 1517  10.111   7.242   7.749
   81POPC   C1A 1518  10.551   7.158   7.251
   81POPC   D2A 1519  10.693   7.317   6.836
   81POPC   C3A 1520  10.445   7.157   6.493
   81POPC   C4A 1521  10.539   7.280   6.111
   81POPC   C1B 1522  10.322   7.571   7.476
   81POPC   C2B 1523  10.337   7.616   7.017
   81POPC   C3B 1524  10.351   7.657   6.563
   81POPC   C4B 1525  10.140   7.570   6.159
   82POPC   NC3 1526   0.549   9.909   7.903
   82POPC   PO4 1527   0.792   9.221   8.076
   82POPC   GL1 1528   0.681   9.445   7.713
   82POPC   GL2 1529   0.310   9.469   7.725
   82POPC   C1A 1530   0.833   9.428   7.281
   82POPC   D2A 1531   0.662   9.684   6.904
   82POPC   C3A 1532   0.523   9.558   6.485
   82POPC   C4A 1533   0.822   9.461   6.163
   82POPC   C1B 1534   0.357   9.638   7.322
   82POPC   C2B 1535   0.256   9.974   7.045
   82POPC   C3B 1536   0.022   9.944   6.679
   82POPC   C4B 1537   0.161   9.876   6.259
   83POPC   NC3 1538   3.331   1.971   7.997
   83POPC   PO4 1539   3.917   1.643   8.231
   83POPC   GL1 1540   3.640   1.618   7.743
   83POPC   GL2 1541   3.533   1.956   7.511
   83POPC   C1A 1542   3.345   1.544   7.360
   83POPC   D2A 1543   3.475   1.677   6.994
   83POPC   C3A 1544   3.381   1.562   6.606
   83POPC   C4A 1545   3.533   1.812   6.275
   83POPC   C1B 1546   3.447   2.209   7.128
   83POPC   C2B 1547   3.283   2.468   6.809
   83POPC   C3B 1548   3.406   2.310   6.413
   83POPC   C4B 1549   3.818   2.326   6.226
   84POPC   NC3 1550   6.656  10.704   7.955
   84POPC   PO4 1551   7.083  10.242   8.167
   84POPC   GL1 1552   6.883  10.287   7.738
   84POPC   GL2 1553   6.491  10.265   7.711
   84POPC   C1A 1554   6.804  10.499   7.330
   84POPC   D2A 1555   6.516  10.565   6.982
   84POPC   C3A 1556   6.565  10.450   6.541
   84POPC   C4A 1557   6.698  10.777   6.314
   84POPC   C1B 1558   6.458  10.129   7.270
   84POPC   C2B 1559   6.614  10.049   6.842
   84POPC   C3B 1560   6.454   9.953   6.402
   84POPC   C4B 1561   6.502   9.947   5.927
   85POPC   NC3 1562   9.693   2.689   7.972
   85POPC   PO4 1563   9.097   2.448   7.903
   85POPC   GL1 1564   9.257   2.803   7.650
   85POPC   GL2 1565   9.488   2.587   7.512
   85POPC   C1A 1566   9.353   3.077   7.253
   85POPC   D2A 1567   9.422   2.880   6.839
   85POPC   C3A 1568   9.481   3.011   6.428
   85POPC   C4A 1569   9.484   2.764   6.078
   85POPC   C1B 1570   9.743   2.770   7.211
   85POPC   C2B 1571   9.979   2.628   6.872
   85POPC   C3B 1572   9.950   2.719   6.443
   85POPC   C4B 1573   9.945   2.990   6.122
   86POPC   NC3 1574   0.215   9.124   8.082
   86POPC   PO4 1575   0.012   8.549   8.156
   86POPC   GL1 1576   0.223   8.688   7.720
   86POPC   GL2 1577   0.584   8.843   7.745
   86POPC   C1A 1578   0.457   8.611   7.285
   86POPC   D2A 1579   0.678   8.702   6.884
   86POPC   C3A 1580   0.373   8.774   6.562
   86POPC   C4A 1581   0.289   8.627   6.141
   86POPC   C1B 1582   0.452   9.105   7.391
   86POPC   C2B 1583   0.536   9.185   6.942
   86POPC   C3B 1584   0.762   9.114   6.544
   86POPC   C4B 1585   0.448   9.125   6.194
   87POPC   NC3 1586   6.281   2.419   8.083
   87POPC   PO4 1587   6.904   2.413   8.001
   87POPC   GL1 1588   6.760   2.282   7.623
   87POPC   GL2 1589   6.554   2.557   7.592
   87POPC   C1A 1590   6.716   2.286   7.165
   87POPC   D2A 1591   6.669   2.501   6.770
   87POPC   C3A 1592   6.589   2.363   6.361
   87POPC   C4A 1593   6.783   2.632   6.038
   87POPC   C1B 1594   6.474   2.756   7.174
   87POPC   C2B 1595   6.420   2.950   6.746
   87POPC   C3B 1596   6.349   2.811   6.314
   87POPC   C4B 1597   6.129   2.928   5.931
   88POPC   NC3 1598   5.862  10.272   7.826
   88POPC   PO4 1599   5.366  10.535   8.244
   88POPC   GL1 1600   5.562  10.695   7.804
   88POPC   GL2 1601   5.854  10.844   7.590
   88POPC   C1A 1602   5.518  10.583   7.320
   88POPC   D2A 1603   5.607  10.431   6.886
   88POPC   C3A 1604   5.397  10.528   6.468
   88POPC   C4A 1605   5.505  10.573   5.990
   88POPC   C1B 1606   6.078  10.518   7.278
   88POPC   C2B 1607   6.115  10.276   6.898
   88POPC   C3B 1608   6.012  10.484   6.547
   88POPC   C4B 1609   5.776  10.269   6.279
   89POPC   NC3 1610   1.104   1.919   8.074
   89POPC   PO4 1611   1.590   2.337   8.314
   89POPC   GL1 1612   1.612   2.075   7.850
   89POPC   GL2 1613   1.349   1.892   7.663
   89POPC   C1A 1614   1.639   2.086   7.346
   89POPC   D2A 1615   1.333   2.200   7.036
   89POPC   C3A 1616   1.480   2.216   6.614
   89POPC   C4A 1617   1.160   2.315   6.311
   89POPC   C1B 1618   1.147   1.771   7.306
   89POPC   C2B 1619   0.981   1.787   6.904
   89POPC   C3B 1620   1.188   1.822   6.538
   89POPC   C4B 1621   1.285   1.571   6.211
   90POPC   NC3 1622   6.113   0.724   7.978
   90POPC   PO4 1623   6.865   0.645   7.965
   90POPC   GL1 1624   6.763   0.535   7.569
   90POPC   GL2 1625   6.911   0.244   7.454
   90POPC   C1A 1626   6.684   0.644   7.141
   90POPC   D2A 1627   6.615   0.435   6.782
   90POPC   C3A 1628   6.836   0.588   6.462
   90POPC   C4A 1629   6.718   0.803   6.086
   90POPC   C1B 1630   6.495   0.183   7.277
   90POPC   C2B 1631   6.375  11.486   6.905
   90POPC   C3B 1632   6.174   0.219   6.608
   90POPC   C4B 1633   6.386   0.406   6.286
   91POPC   NC3 1634   4.219   2.078   8.297
   91POPC   PO4 1635   3.780   2.055   7.925
   91POPC   GL1 1636   4.033   2.026   7.587
   91POPC   GL2 1637   4.133   1.704   7.559
   91POPC   C1A 1638   3.886   1.930   7.158
   91POPC   D2A 1639   3.742   2.025   6.723
   91POPC   C3A 1640   4.078   1.954   6.432
   91POPC   C4A 1641   4.295   2.187   6.065
   91POPC   C1B 1642   4.391   1.888   7.222
   91POPC   C2B 1643   4.418   1.794   6.786
   91POPC   C3B 1644   4.571   1.840   6.354
   91POPC   C4B 1645   4.538   1.768   5.902
   92POPC   NC3 1646   7.547  11.167   7.887
   92POPC   PO4 1647   6.825  11.168   7.961
   92POPC   GL1 1648   6.973  10.940   7.577
   92POPC   GL2 1649   7.268  11.153   7.473
   92POPC   C1A 1650   7.081  10.869   7.107
   92POPC   D2A 1651   7.236  11.125   6.779
   92POPC   C3A 1652   7.032  11.145   6.402
   92POPC   C4A 1653   7.074  10.873   5.998
   92POPC   C1B 1654   7.593  11.166   7.154
   92POPC   C2B 1655   7.803  11.196   6.780
   92POPC   C3B 1656   7.642  11.131   6.388
   92POPC   C4B 1657   7.382  11.302   6.080
   93POPC   NC3 1658   0.473  10.465   8.122
   93POPC   PO4 1659   0.093   9.917   7.908
   93POPC   GL1 1660   0.137  10.113   7.529
   93POPC   GL2 1661   0.443  10.308   7.584
   93POPC   C1A 1662   0.055  10.424   7.194
   93POPC   D2A 1663   0.237  10.621   6.815
   93POPC   C3A 1664   0.235  10.359   6.479
   93POPC   C4A 1665   0.591  10.064   6.513
   93POPC   C1B 1666   0.561  10.564   7.224
   93POPC   C2B 1667   0.816  10.732   6.918
   93POPC   C3B 1668   0.712  10.598   6.552
   93POPC   C4B 1669   0.515  10.629   6.163
   94POPC   NC3 1670   4.562   0.555   8.092
   94POPC   PO4 1671   4.036   0.158   7.879
   94POPC   GL1 1672   4.274   0.393   7.562
   94POPC   GL2 1673   4.606   0.318   7.652
   94POPC   C1A 1674   4.154   0.445   7.101
   94POPC   D2A 1675   3.848   0.310   6.736
   94POPC   C3A 1676   4.018   0.446   6.304
   94POPC   C4A 1677   4.381   0.703   6.159
   94POPC   C1B 1678   4.637   0.184   7.230
   94POPC   C2B 1679   4.563   0.223   6.790
   94POPC   C3B 1680   4.503   0.204   6.362
   94POPC   C4B 1681   4.431  11.354   6.084
   95POPC   NC3 1682   7.111   2.013   7.924
   95POPC   PO4 1683   7.754   2.121   8.102
   95POPC   GL1 1684   7.555   2.148   7.656
   95POPC   GL2 1685   7.418   1.815   7.531
   95POPC   C1A 1686   7.571   2.155   7.176
   95POPC   D2A 1687   7.404   1.962   6.781
   95POPC   C3A 1688   7.500   2.170   6.397
   95POPC   C4A 1689   7.472   2.022   5.983
   95POPC   C1B 1690   7.093   1.936   7.196
   95POPC   C2B 1691   6.894   2.016   6.747
   95POPC   C3B 1692   6.997   2.041   6.286
   95POPC   C4B 1693   6.742   2.135   5.924
   96POPC   NC3 1694  11.266   4.457   8.101
   96POPC   PO4 1695  11.080   3.796   8.290
   96POPC   GL1 1696  11.124   3.899   7.796
   96POPC   GL2 1697  11.102   4.193   7.712
   96POPC   C1A 1698  11.340   3.890   7.342
   96POPC   D2A 1699  11.187   4.065   6.897
   96POPC   C3A 1700  11.266   3.966   6.426
   96POPC   C4A 1701  10.951   4.199   6.122
   96POPC   C1B 1702  11.234   4.388   7.318
   96POPC   C2B 1703  11.157   4.589   6.927
   96POPC   C3B 1704  11.141   4.441   6.533
   96POPC   C4B 1705  11.405   4.448   6.179
   97POPC   NC3 1706   8.035   1.728   8.078
   97POPC   PO4 1707   8.538   2.179   8.052
   97POPC   GL1 1708   8.521   1.844   7.742
   97POPC   GL2 1709   8.248   1.613   7.648
   97POPC   C1A 1710   8.503   1.835   7.291
   97POPC   D2A 1711   8.258   1.964   6.933
   97POPC   C3A 1712   8.424   1.915   6.505
   97POPC   C4A 1713   8.277   1.653   6.207
   97POPC   C1B 1714   7.942   1.838   7.404
   97POPC   C2B 1715   7.791   1.709   7.003
   97POPC   C3B 1716   7.876   1.838   6.586
   97POPC   C4B 1717   8.017   2.108   6.259
   98POPC   NC3 1718  11.051   5.846   8.263
   98POPC   PO4 1719   0.099   6.005   7.822
   98POPC   GL1 1720  11.290   5.869   7.568
   98POPC   GL2 1721  11.125   5.638   7.748
   98POPC   C1A 1722  11.355   5.816   7.142
   98POPC   D2A 1723  11.215   5.583   6.788
   98POPC   C3A 1724  11.226   5.770   6.379
   98POPC   C4A 1725  11.013   5.982   6.041
   98POPC   C1B 1726  10.932   5.550   7.330
   98POPC   C2B 1727  10.719   5.521   6.941
   98POPC   C3B 1728  10.813   5.397   6.526
   98POPC   C4B 1729  10.786   5.562   6.144
   99POPC   NC3 1730   1.491   6.504   8.221
   99POPC   PO4 1731   0.894   6.331   7.986
   99POPC   GL1 1732   1.195   6.389   7.674
   99POPC   GL2 1733   1.292   6.733   7.713
   99POPC   C1A 1734   1.150   6.253   7.247
   99POPC   D2A 1735   1.312   6.114   6.826
   99POPC   C3A 1736   1.184   6.276   6.414
   99POPC   C4A 1737   1.487   6.408   6.101
   99POPC   C1B 1738   0.982   6.722   7.330
   99POPC   C2B 1739   1.151   6.634   6.892
   99POPC   C3B 1740   1.302   6.775   6.471
   99POPC   C4B 1741   1.081   6.721   6.090
  100POPC   NC3 1742   1.350   4.372   8.028
  100POPC   PO4 1743   0.706   4.590   8.110
  100POPC   GL1 1744   0.907   4.417   7.681
  100POPC   GL2 1745   1.253   4.172   7.575
  100POPC   C1A 1746   0.837   4.161   7.303
  100POPC   D2A 1747   1.103   4.088   6.923
  100POPC   C3A 1748   0.853   4.211   6.550
  100POPC   C4A 1749   1.010   4.154   6.124
  100POPC   C1B 1750   1.300   4.451   7.259
  100POPC   C2B 1751   1.269   4.554   6.836
  100POPC   C3B 1752   1.343   4.327   6.465
  100POPC   C4B 1753   1.410   4.533   6.096
  101POPC   NC3 1754   7.301   9.835   8.104
  101POPC   PO4 1755   7.277   9.246   7.924
  101POPC   GL1 1756   7.542   9.393   7.613
  101POPC   GL2 1757   7.517   9.725   7.662
  101POPC   C1A 1758   7.443   9.468   7.154
  101POPC   D2A 1759   7.531   9.394   6.721
  101POPC   C3A 1760   7.285   9.642   6.418
  101POPC   C4A 1761   7.130   9.437   6.066
  101POPC   C1B 1762   7.243   9.912   7.323
  101POPC   C2B 1763   7.143   9.947   6.848
  101POPC   C3B 1764   6.998  10.109   6.414
  101POPC   C4B 1765   7.029   9.945   5.970
  102POPC   NC3 1766   2.127   8.557   7.981
  102POPC   PO4 1767   1.485   8.501   8.091
  102POPC   GL1 1768   1.655   8.537   7.713
  102POPC   GL2 1769   1.749   8.882   7.752
  102POPC   C1A 1770   1.549   8.682   7.302
  102POPC   D2A 1771   1.665   8.916   6.900
  102POPC   C3A 1772   1.640   8.709   6.477
  102POPC   C4A 1773   1.771   8.445   6.100
  102POPC   C1B 1774   2.030   8.799   7.404
  102POPC   C2B 1775   2.171   8.879   7.035
  102POPC   C3B 1776   2.149   8.847   6.638
  102POPC   C4B 1777   2.126   8.809   6.226
  103POPC   NC3 1778   3.002   6.484   8.050
  103POPC   PO4 1779   2.458   5.990   8.101
  103POPC   GL1 1780   2.441   6.198   7.670
  103POPC   GL2 1781   2.640   6.478   7.672
  103POPC   C1A 1782   2.531   6.200   7.217
  103POPC   D2A 1783   2.490   6.080   6.762
  103POPC   C3A 1784   2.854   6.247   6.494
  103POPC   C4A 1785   2.943   6.416   6.095
  103POPC   C1B 1786   2.711   6.675   7.257
  103POPC   C2B 1787   2.638   6.547   6.841
  103POPC   C3B 1788   2.660   6.704   6.424
  103POPC   C4B 1789   2.873   6.936   6.092
  104POPC   NC3 1790   7.704   1.397   8.442
  104POPC   PO4 1791   7.176   1.544   7.946
  104POPC   GL1 1792   7.302   1.302   7.576
  104POPC   GL2 1793   7.479   0.984   7.696
  104POPC   C1A 1794   7.336   1.466   7.127
  104POPC   D2A 1795   7.477   1.453   6.672
  104POPC   C3A 1796   7.286   1.601   6.248
  104POPC   C4A 1797   7.442   1.484   5.785
  104POPC   C1B 1798   7.555   0.993   7.245
  104POPC   C2B 1799   7.229   0.996   6.922
  104POPC   C3B 1800   7.088   1.075   6.507
  104POPC   C4B 1801   7.476   1.126   6.270
  105POPC   NC3 1802   3.721  10.277   8.023
  105POPC   PO4 1803   3.265   9.839   8.148
  105POPC   GL1 1804   3.277  10.097   7.769
  105POPC   GL2 1805   3.261  10.484   7.789
  105POPC   C1A 1806   3.213  10.025   7.330
  105POPC   D2A 1807   3.364  10.223   6.952
  105POPC   C3A 1808   3.233  10.076   6.542
  105POPC   C4A 1809   3.509  10.155   6.233
  105POPC   C1B 1810   3.515  10.478   7.395
  105POPC   C2B 1811   3.755  10.543   7.007
  105POPC   C3B 1812   3.586  10.611   6.570
  105POPC   C4B 1813   3.844  10.557   6.193
  106POPC   NC3 1814   0.605   6.759   7.932
  106POPC   PO4 1815   0.202   6.408   8.284
  106POPC   GL1 1816   0.198   6.506   7.805
  106POPC   GL2 1817   0.478   6.337   7.628
  106POPC   C1A 1818   0.170   6.619   7.326
  106POPC   D2A 1819   0.164   6.406   6.906
  106POPC   C3A 1820   0.255   6.626   6.520
  106POPC   C4A 1821   0.265   6.632   6.084
  106POPC   C1B 1822   0.611   6.390   7.193
  106POPC   C2B 1823   0.616   6.731   6.898
  106POPC   C3B 1824   0.795   6.691   6.514
  106POPC   C4B 1825   0.692   6.379   6.235
  107POPC   NC3 1826   5.846  10.545   8.277
  107POPC   PO4 1827   5.610  11.219   8.079
  107POPC   GL1 1828   5.449  11.182   7.651
  107POPC   GL2 1829   5.725  11.362   7.577
  107POPC   C1A 1830   5.565  11.090   7.204
  107POPC   D2A 1831   5.915  10.908   6.999
  107POPC   C3A 1832   5.690  10.889   6.667
  107POPC   C4A 1833   5.693  10.941   6.263
  107POPC   C1B 1834   6.019  11.374   7.277
  107POPC   C2B 1835   5.862  11.408   6.898
  107POPC   C3B 1836   6.007  11.255   6.559
  107POPC   C4B 1837   5.980  11.383   6.204
  108POPC   NC3 1838   9.972   3.649   7.988
  108POPC   PO4 1839   9.875   3.073   7.832
  108POPC   GL1 1840   9.892   3.299   7.500
  108POPC   GL2 1841   9.832   3.626   7.485
  108POPC   C1A 1842   9.845   3.274   7.093
  108POPC   D2A 1843   9.871   3.115   6.746
  108POPC   C3A 1844   9.826   3.404   6.412
  108POPC   C4A 1845   9.630   3.378   6.012
  108POPC   C1B 1846   9.469   3.591   7.187
  108POPC   C2B 1847   9.410   3.399   6.767
  108POPC   C3B 1848   9.292   3.577   6.346
  108POPC   C4B 1849   9.469   3.855   6.008
  109POPC   NC3 1850   2.030   4.584   8.057
  109POPC   PO4 1851   2.013   3.989   8.125
  109POPC   GL1 1852   1.787   4.165   7.771
  109POPC   GL2 1853   2.120   4.198   7.640
  109POPC   C1A 1854   1.735   4.170   7.298
  109POPC   D2A 1855   1.644   4.168   6.841
  109POPC   C3A 1856   1.841   4.426   6.477
  109POPC   C4A 1857   1.894   4.773   6.148
  109POPC   C1B 1858   2.204   3.920   7.269
  109POPC   C2B 1859   2.156   4.027   6.834
  109POPC   C3B 1860   2.300   4.133   6.400
  109POPC   C4B 1861   2.016   4.171   6.056
  110POPC   NC3 1862  10.194   8.423   8.033
  110POPC   PO4 1863  10.358   9.097   8.199
  110POPC   GL1 1864  10.263   8.864   7.772
  110POPC   GL2 1865  10.564   8.665   7.675
  110POPC   C1A 1866  10.178   8.536   7.382
  110POPC   D2A 1867  10.420   8.521   6.974
  110POPC   C3A 1868  10.251   8.574   6.544
  110POPC   C4A 1869  10.278   8.752   6.116
  110POPC   C1B 1870  10.533   8.891   7.319
  110POPC   C2B 1871  10.738   8.986   6.964
  110POPC   C3B 1872  10.680   8.871   6.570
  110POPC   C4B 1873  10.715   9.017   6.197
  111POPC   NC3 1874   0.480   0.547   8.122
  111POPC   PO4 1875   0.324  11.389   8.110
  111POPC   GL1 1876   0.518   0.076   7.717
  111POPC   GL2 1877   0.481   0.445   7.597
  111POPC   C1A 1878   0.436   0.018   7.265
  111POPC   D2A 1879   0.378   0.260   6.870
  111POPC   C3A 1880   0.365   0.040   6.442
  111POPC   C4A 1881   0.455   0.139   5.971
  111POPC   C1B 1882   0.367   0.750   7.234
  111POPC   C2B 1883   0.362   0.802   6.782
  111POPC   C3B 1884   0.528   0.563   6.464
  111POPC   C4B 1885   0.821   0.508   6.170
  112POPC   NC3 1886  10.616   9.559   8.053
  112POPC   PO4 1887   9.943   9.787   8.201
  112POPC   GL1 1888  10.219   9.786   7.806
  112POPC   GL2 1889  10.376   9.450   7.644
  112POPC   C1A 1890  10.238   9.838   7.342
  112POPC   D2A 1891  10.027   9.642   6.994
  112POPC   C3A 1892  10.187   9.645   6.595
  112POPC   C4A 1893   9.991   9.667   6.173
  112POPC   C1B 1894  10.376   9.354   7.220
  112POPC   C2B 1895  10.240   9.144   6.850
  112POPC   C3B 1896  10.311   9.195   6.429
  112POPC   C4B 1897  10.464   9.473   6.116
  113POPC   NC3 1898   9.564  10.018   8.351
  113POPC   PO4 1899   9.300   9.570   7.952
  113POPC   GL1 1900   9.677   9.685   7.751
  113POPC   GL2 1901   9.876   9.442   7.623
  113POPC   C1A 1902   9.689   9.854   7.321
  113POPC   D2A 1903   9.515   9.724   6.923
  113POPC   C3A 1904   9.734   9.893   6.574
  113POPC   C4A 1905   9.533   9.919   6.184
  113POPC   C1B 1906   9.593   9.360   7.331
  113POPC   C2B 1907   9.730   9.250   6.955
  113POPC   C3B 1908   9.755   9.385   6.581
  113POPC   C4B 1909   9.570   9.354   6.224
  114POPC   NC3 1910  10.189  10.301   8.098
  114POPC   PO4 1911  10.848  10.116   8.263
  114POPC   GL1 1912  10.665  10.391   7.770
  114POPC   GL2 1913  10.360  10.265   7.629
  114POPC   C1A 1914  10.698  10.252   7.260
  114POPC   D2A 1915  10.510  10.430   6.892
  114POPC   C3A 1916  10.685  10.557   6.518
  114POPC   C4A 1917  10.741  10.226   6.288
  114POPC   C1B 1918  10.330  10.611   7.338
  114POPC   C2B 1919  10.090  10.721   6.959
  114POPC   C3B 1920  10.176  10.615   6.528
  114POPC   C4B 1921  10.342  10.463   6.099
  115POPC   NC3 1922  10.684   7.853   8.010
  115POPC   PO4 1923  10.006   7.977   8.016
  115POPC   GL1 1924  10.155   8.026   7.628
  115POPC   GL2 1925  10.475   8.147   7.628
  115POPC   C1A 1926  10.200   8.060   7.202
  115POPC   D2A 1927  10.002   8.247   6.887
  115POPC   C3A 1928  10.060   8.073   6.506
  115POPC   C4A 1929  10.075   8.278   6.147
  115POPC   C1B 1930  10.682   7.896   7.296
  115POPC   C2B 1931  10.600   8.037   6.862
  115POPC   C3B 1932  10.552   8.167   6.452
  115POPC   C4B 1933  10.519   7.889   6.120
  116POPC   NC3 1934   0.065   7.599   7.981
  116POPC   PO4 1935   0.643   7.223   7.909
  116POPC   GL1 1936   0.345   7.364   7.636
  116POPC   GL2 1937   0.191   7.023   7.672
  116POPC   C1A 1938   0.312   7.616   7.245
  116POPC   D2A 1939   0.058   7.592   6.849
  116POPC   C3A 1940   0.322   7.588   6.464
  116POPC   C4A 1941   0.658   7.450   6.177
  116POPC   C1B 1942   0.477   7.045   7.276
  116POPC   C2B 1943   0.477   7.271   6.875
  116POPC   C3B 1944   0.489   7.086   6.483
  116POPC   C4B 1945   0.664   6.969   6.082
  117POPC   NC3 1946   8.451   9.781   8.078
  117POPC   PO4 1947   7.731   9.648   8.182
  117POPC   GL1 1948   8.039   9.552   7.824
  117POPC   GL2 1949   8.018   9.862   7.717
  117POPC   C1A 1950   8.356   9.583   7.422
  117POPC   D2A 1951   8.452   9.659   6.939
  117POPC   C3A 1952   8.229   9.506   6.536
  117POPC   C4A 1953   8.168   9.699   6.177
  117POPC   C1B 1954   7.876   9.668   7.322
  117POPC   C2B 1955   7.936   9.703   6.895
  117POPC   C3B 1956   7.771   9.799   6.487
  117POPC   C4B 1957   7.720   9.419   6.218
  118POPC   NC3 1958   3.595   0.388   7.922
  118POPC   PO4 1959   3.799   1.037   7.954
  118POPC   GL1 1960   3.773   0.708   7.586
  118POPC   GL2 1961   3.779   0.346   7.455
  118POPC   C1A 1962   3.556   0.712   7.182
  118POPC   D2A 1963   3.345   0.544   6.815
  118POPC   C3A 1964   3.597   0.719   6.505
  118POPC   C4A 1965   3.650   0.759   6.055
  118POPC   C1B 1966   3.408   0.219   7.230
  118POPC   C2B 1967   3.371  11.450   6.904
  118POPC   C3B 1968   3.230   0.028   6.509
  118POPC   C4B 1969   3.358   0.372   6.247
  119POPC   NC3 1970  11.242   2.330   8.180
  119POPC   PO4 1971  10.693   2.641   8.212
  119POPC   GL1 1972  10.898   2.534   7.821
  119POPC   GL2 1973  11.249   2.699   7.835
  119POPC   C1A 1974  10.990   2.669   7.404
  119POPC   D2A 1975  10.856   2.755   7.024
  119POPC   C3A 1976  10.921   2.419   6.766
  119POPC   C4A 1977  10.912   2.416   6.317
  119POPC   C1B 1978  11.484   2.703   7.455
  119POPC   C2B 1979  11.418   2.728   7.014
  119POPC   C3B 1980  11.223   2.802   6.633
  119POPC   C4B 1981  11.415   2.717   6.287
  120POPC   NC3 1982   8.091  11.408   8.129
  120POPC   PO4 1983   7.753  10.885   8.203
  120POPC   GL1 1984   8.030  11.145   7.719
  120POPC   GL2 1985   7.838  11.386   7.538
  120POPC   C1A 1986   8.099  11.011   7.234
  120POPC   D2A 1987   8.305  11.106   6.834
  120POPC   C3A 1988   8.174  11.061   6.383
  120POPC   C4A 1989   7.999  10.811   6.053
  120POPC   C1B 1990   8.223  11.490   7.353
  120POPC   C2B 1991   8.377   0.093   6.966
  120POPC   C3B 1992   8.161   0.031   6.598
  120POPC   C4B 1993   8.246   0.054   6.200
  121POPC   NC3 1994   6.018   1.553   8.076
  121POPC   PO4 1995   5.349   1.573   8.091
  121POPC   GL1 1996   5.676   1.419   7.730
  121POPC   GL2 1997   5.911   1.110   7.675
  121POPC   C1A 1998   5.906   1.458   7.323
  121POPC   D2A 1999   5.754   1.367   6.922
  121POPC   C3A 2000   5.947   1.343   6.517
  121POPC   C4A 2001   5.737   1.309   6.100
  121POPC   C1B 2002   5.857   0.946   7.228
  121POPC   C2B 2003   5.596   0.886   6.860
  121POPC   C3B 2004   5.674   0.933   6.426
  121POPC   C4B 2005   6.105   0.979   6.160
  122POPC   NC3 2006  10.730   1.529   7.869
  122POPC   PO4 2007  11.332   1.884   8.077
  122POPC   GL1 2008  11.343   2.177   7.704
  122POPC   GL2 2009  11.224   1.871   7.559
  122POPC   C1A 2010  11.304   2.273   7.244
  122POPC   D2A 2011  11.496   2.125   6.887
  122POPC   C3A 2012  11.375   2.281   6.537
  122POPC   C4A 2013  11.348   2.239   6.124
  122POPC   C1B 2014  11.142   1.790   7.128
  122POPC   C2B 2015  11.036   1.930   6.719
  122POPC   C3B 2016  10.990   1.878   6.286
  122POPC   C4B 2017  10.913   1.689   5.885
  123POPC   NC3 2018   1.289   3.479   7.998
  123POPC   PO4 2019   1.023   4.049   8.001
  123POPC   GL1 2020   0.952   3.737   7.662
  123POPC   GL2 2021   1.296   3.628   7.507
  123POPC   C1A 2022   0.866   3.551   7.255
  123POPC   D2A 2023   1.140   3.552   6.901
  123POPC   C3A 2024   0.996   3.708   6.524
  123POPC   C4A 2025   1.147   3.659   6.122
  123POPC   C1B 2026   1.382   3.245   7.240
  123POPC   C2B 2027   1.502   3.187   6.780
  123POPC   C3B 2028   1.235   3.238   6.408
  123POPC   C4B 2029   1.333   3.211   5.927
  124POPC   NC3 2030   9.290  10.024   7.846
  124POPC   PO4 2031   9.742  10.426   8.221
  124POPC   GL1 2032   9.817  10.483   7.735
  124POPC   GL2 2033   9.855  10.155   7.706
  124POPC   C1A 2034   9.599  10.580   7.294
  124POPC   D2A 2035   9.565  10.238   6.955
  124POPC   C3A 2036   9.404  10.279   6.525
  124POPC   C4A 2037   9.388  10.651   6.302
  124POPC   C1B 2038   9.982  10.265   7.274
  124POPC   C2B 2039  10.107  10.125   6.875
  124POPC   C3B 2040  10.212  10.118   6.447
  124POPC   C4B 2041   9.868  10.309   6.235
  125POPC   NC3 2042  11.031   0.590   7.971
  125POPC   PO4 2043   0.129   0.847   8.053
  125POPC   GL1 2044  11.494   0.523   7.723
  125POPC   GL2 2045  11.284   0.200   7.707
  125POPC   C1A 2046   0.053   0.361   7.294
  125POPC   D2A 2047  11.417   0.557   6.922
  125POPC   C3A 2048   0.036   0.481   6.523
  125POPC   C4A 2049  11.496   0.251   6.172
  125POPC   C1B 2050  11.047   0.328   7.327
  125POPC   C2B 2051  10.941   0.253   6.910
  125POPC   C3B 2052  11.068   0.274   6.497
  125POPC   C4B 2053  11.065   0.528   6.190
  126POPC   NC3 2054   0.474   6.097   8.075
  126POPC   PO4 2055  11.461   5.620   8.207
  126POPC   GL1 2056   0.129   5.511   7.705
  126POPC   GL2 2057   0.482   5.683   7.712
  126POPC   C1A 2058   0.323   5.580   7.260
  126POPC   D2A 2059   0.346   5.893   6.967
  126POPC   C3A 2060   0.219   5.665   6.618
  126POPC   C4A 2061   0.368   5.638   6.223
  126POPC   C1B 2062   0.718   5.929   7.403
  126POPC   C2B 2063   0.855   5.950   6.974
  126POPC   C3B 2064   0.760   5.895   6.537
  126POPC   C4B 2065   0.816   5.900   6.103
  127POPC   NC3 2066  10.370   5.944   8.080
  127POPC   PO4 2067  10.903   6.281   8.289
  127POPC   GL1 2068  10.876   6.079   7.829
  127POPC   GL2 2069  10.636   5.801   7.691
  127POPC   C1A 2070  10.856   6.075   7.347
  127POPC   D2A 2071  10.943   5.995   6.908
  127POPC   C3A 2072  10.736   5.909   6.530
  127POPC   C4A 2073  10.571   6.232   6.246
  127POPC   C1B 2074  10.435   5.769   7.301
  127POPC   C2B 2075  10.351   5.878   6.881
  127POPC   C3B 2076  10.177   6.035   6.523
  127POPC   C4B 2077  10.331   5.779   6.252
  128POPC   NC3 2078   2.065   6.317   7.981
  128POPC   PO4 2079   1.744   6.853   8.060
  128POPC   GL1 2080   1.825   6.726   7.635
  128POPC   GL2 2081   1.707   6.426   7.642
  128POPC   C1A 2082   1.683   6.642   7.174
  128POPC   D2A 2083   1.652   6.496   6.733
  128POPC   C3A 2084   1.819   6.771   6.406
  128POPC   C4A 2085   2.238   6.950   6.320
  128POPC   C1B 2086   2.062   6.338   7.352
  128POPC   C2B 2087   2.144   6.414   6.949
  128POPC   C3B 2088   2.202   6.451   6.526
  128POPC   C4B 2089   1.999   6.378   6.125
  129POPC   NC3 2090  10.354   2.962   8.070
  129POPC   PO4 2091  10.029   2.375   8.082
  129POPC   GL1 2092  10.298   2.563   7.787
  129POPC   GL2 2093  10.043   2.649   7.593
  129POPC   C1A 2094  10.503   2.569   7.376
  129POPC   D2A 2095  10.446   2.409   6.962
  129POPC   C3A 2096  10.476   2.621   6.542
  129POPC   C4A 2097  10.296   2.532   6.118
  129POPC   C1B 2098  10.196   2.947   7.282
  129POPC   C2B 2099  10.372   2.980   6.912
  129POPC   C3B 2100  10.302   3.110   6.489
  129POPC   C4B 2101  10.462   3.014   6.128
  130POPC   NC3 2102   4.347  10.516   7.928
  130POPC   PO4 2103   3.717  10.726   8.052
  130POPC   GL1 2104   3.910  10.670   7.693
  130POPC   GL2 2105   3.984  10.357   7.595
  130POPC   C1A 2106   3.980  10.886   7.354
  130POPC   D2A 2107   4.214  10.927   6.992
  130POPC   C3A 2108   4.101  10.712   6.643
  130POPC   C4A 2109   4.360  10.630   6.289
  130POPC   C1B 2110   4.235  10.453   7.252
  130POPC   C2B 2111   4.235  10.276   6.863
  130POPC   C3B 2112   4.550  10.252   6.565
  130POPC   C4B 2113   4.590  10.173   6.142
  131POPC   NC3 2114   0.979   4.971   8.104
  131POPC   PO4 2115   1.609   4.758   8.015
  131POPC   GL1 2116   1.246   4.800   7.652
  131POPC   GL2 2117   1.014   5.087   7.627
  131POPC   C1A 2118   0.983   4.837   7.207
  131POPC   D2A 2119   0.906   4.944   6.777
  131POPC   C3A 2120   0.998   4.703   6.423
  131POPC   C4A 2121   1.103   4.981   6.160
  131POPC   C1B 2122   1.313   5.213   7.300
  131POPC   C2B 2123   1.399   5.048   6.896
  131POPC   C3B 2124   1.495   4.893   6.488
  131POPC   C4B 2125   1.486   5.278   6.284
  132POPC   NC3 2126   5.362   2.025   8.049
  132POPC   PO4 2127   6.012   2.042   8.090
  132POPC   GL1 2128   5.941   1.881   7.657
  132POPC   GL2 2129   5.594   1.905   7.614
  132POPC   C1A 2130   5.856   1.938   7.177
  132POPC   D2A 2131   5.929   1.820   6.741
  132POPC   C3A 2132   6.120   2.134   6.461
  132POPC   C4A 2133   5.985   2.473   6.193
  132POPC   C1B 2134   5.401   1.621   7.319
  132POPC   C2B 2135   5.267   1.483   6.893
  132POPC   C3B 2136   5.460   1.532   6.471
  132POPC   C4B 2137   5.804   1.790   6.234
  133POPC   NC3 2138   0.007  11.226   7.805
  133POPC   PO4 2139   0.205  10.834   8.290
  133POPC   GL1 2140   0.238  10.782   7.753
  133POPC   GL2 2141   0.449  11.067   7.613
  133POPC   C1A 2142   0.156  10.917   7.250
  133POPC   D2A 2143  11.483  11.053   6.827
  133POPC   C3A 2144   0.179  10.936   6.394
  133POPC   C4A 2145   0.150  10.807   5.886
  133POPC   C1B 2146   0.731  11.085   7.282
  133POPC   C2B 2147   0.743  11.280   6.899
  133POPC   C3B 2148   0.653  11.109   6.511
  133POPC   C4B 2149   0.526  11.139   6.069
  134POPC   NC3 2150   2.277   3.614   8.067
  134POPC   PO4 2151   1.681   3.260   7.942
  134POPC   GL1 2152   1.930   3.335   7.577
  134POPC   GL2 2153   1.966   3.684   7.642
  134POPC   C1A 2154   1.868   3.139   7.157
  134POPC   D2A 2155   2.011   3.012   6.761
  134POPC   C3A 2156   1.942   3.343   6.476
  134POPC   C4A 2157   1.627   3.503   6.214
  134POPC   C1B 2158   1.742   3.653   7.226
  134POPC   C2B 2159   1.669   3.665   6.785
  134POPC   C3B 2160   1.868   3.868   6.444
  134POPC   C4B 2161   2.166   3.689   6.132
  135POPC   NC3 2162   1.609   2.880   8.190
  135POPC   PO4 2163   2.221   2.459   8.031
  135POPC   GL1 2164   1.880   2.517   7.795
  135POPC   GL2 2165   1.937   2.853   7.765
  135POPC   C1A 2166   1.748   2.583   7.360
  135POPC   D2A 2167   1.850   2.373   6.967
  135POPC   C3A 2168   1.833   2.568   6.572
  135POPC   C4A 2169   1.634   2.472   6.176
  135POPC   C1B 2170   2.186   2.821   7.389
  135POPC   C2B 2171   2.336   2.526   7.056
  135POPC   C3B 2172   2.340   2.520   6.608
  135POPC   C4B 2173   2.174   2.825   6.301
  136POPC   NC3 2174   2.764   8.877   8.036
  136POPC   PO4 2175   2.501   8.423   7.764
  136POPC   GL1 2176   2.473   8.903   7.612
  136POPC   GL2 2177   2.786   9.116   7.569
  136POPC   C1A 2178   2.418   9.232   7.256
  136POPC   D2A 2179   2.601   9.101   6.846
  136POPC   C3A 2180   2.544   9.090   6.414
  136POPC   C4A 2181   2.587   8.866   5.996
  136POPC   C1B 2182   2.736   8.775   7.216
  136POPC   C2B 2183   2.587   8.578   6.805
  136POPC   C3B 2184   2.814   8.660   6.412
  136POPC   C4B 2185   3.049   9.065   6.272
  137POPC   NC3 2186   2.020   2.055   8.149
  137POPC   PO4 2187   1.491   1.600   8.049
  137POPC   GL1 2188   1.824   1.657   7.714
  137POPC   GL2 2189   2.078   1.913   7.673
  137POPC   C1A 2190   1.854   1.609   7.288
  137POPC   D2A 2191   1.600   1.772   6.931
  137POPC   C3A 2192   1.690   1.667   6.515
  137POPC   C4A 2193   1.762   1.948   6.163
  137POPC   C1B 2194   2.119   2.198   7.379
  137POPC   C2B 2195   2.128   1.947   6.983
  137POPC   C3B 2196   2.010   2.077   6.581
  137POPC   C4B 2197   2.130   2.299   6.194
  138POPC   NC3 2198   1.731  11.101   8.335
  138POPC   PO4 2199   1.704   0.189   8.033
  138POPC   GL1 2200   1.685  11.314   7.765
  138POPC   GL2 2201   1.976  11.071   7.792
  138POPC   C1A 2202   1.698  11.185   7.327
  138POPC   D2A 2203   1.916  11.291   6.943
  138POPC   C3A 2204   1.750  11.206   6.549
  138POPC   C4A 2205   1.745   0.023   6.251
  138POPC   C1B 2206   2.227  10.993   7.409
  138POPC   C2B 2207   2.202  10.862   6.985
  138POPC   C3B 2208   2.296  11.087   6.626
  138POPC   C4B 2209   2.141  11.030   6.242
  139POPC   NC3 2210   4.500  11.479   8.039
  139POPC   PO4 2211   4.716  10.775   8.046
  139POPC   GL1 2212   4.448  10.976   7.718
  139POPC   GL2 2213   4.123  11.148   7.777
  139POPC   C1A 2214   4.604  10.979   7.311
  139POPC   D2A 2215   4.642  11.232   6.962
  139POPC   C3A 2216   4.526  11.032   6.588
  139POPC   C4A 2217   4.737  11.005   6.233
  139POPC   C1B 2218   4.268  11.341   7.374
  139POPC   C2B 2219   4.155  11.444   6.963
  139POPC   C3B 2220   4.160  11.387   6.544
  139POPC   C4B 2221   4.064  11.049   6.270
  140POPC   NC3 2222   9.477   1.185   8.063
  140POPC   PO4 2223  10.070   1.283   8.050
  140POPC   GL1 2224   9.763   1.318   7.661
  140POPC   GL2 2225   9.486   1.037   7.594
  140POPC   C1A 2226   9.661   1.456   7.232
  140POPC   D2A 2227   9.342   1.470   6.887
  140POPC   C3A 2228   9.509   1.426   6.481
  140POPC   C4A 2229   9.864   1.415   6.250
  140POPC   C1B 2230   9.625   0.945   7.201
  140POPC   C2B 2231   9.699   1.101   6.813
  140POPC   C3B 2232   9.789   0.950   6.408
  140POPC   C4B 2233   9.430   0.852   6.158
  141POPC   NC3 2234   2.860  10.039   8.278
  141POPC   PO4 2235   2.719  10.671   8.047
  141POPC   GL1 2236   2.733  10.569   7.651
  141POPC   GL2 2237   2.803  10.230   7.608
  141POPC   C1A 2238   2.467  10.535   7.295
  141POPC   D2A 2239   2.501  10.365   6.897
  141POPC   C3A 2240   2.426  10.597   6.551
  141POPC   C4A 2241   2.507  10.417   6.178
  141POPC   C1B 2242   2.969  10.463   7.206
  141POPC   C2B 2243   2.981  10.489   6.735
  141POPC   C3B 2244   3.017  10.547   6.316
  141POPC   C4B 2245   2.967  10.206   6.091
  142POPC   NC3 2246   6.940   0.163   7.956
  142POPC   PO4 2247   7.697   0.126   7.984
  142POPC   GL1 2248   7.401   0.153   7.643
  142POPC   GL2 2249   7.302   0.487   7.723
  142POPC   C1A 2250   7.332   0.113   7.180
  142POPC   D2A 2251   7.443   0.085   6.716
  142POPC   C3A 2252   7.204   0.195   6.348
  142POPC   C4A 2253   7.386   0.279   5.907
  142POPC   C1B 2254   7.192   0.639   7.315
  142POPC   C2B 2255   7.137   0.497   6.889
  142POPC   C3B 2256   7.374   0.634   6.541
  142POPC   C4B 2257   7.215   0.699   6.151
  143POPC   NC3 2258   2.957   9.632   7.859
  143POPC   PO4 2259   2.422   9.972   8.101
  143POPC   GL1 2260   2.366   9.924   7.661
  143POPC   GL2 2261   2.512   9.597   7.588
  143POPC   C1A 2262   2.541   9.989   7.240
  143POPC   D2A 2263   2.878  10.015   6.929
  143POPC   C3A 2264   2.698  10.069   6.511
  143POPC   C4A 2265   2.419   9.896   6.168
  143POPC   C1B 2266   2.840   9.562   7.223
  143POPC   C2B 2267   2.868   9.526   6.770
  143POPC   C3B 2268   2.790   9.577   6.348
  143POPC   C4B 2269   2.716   9.340   6.005
  144POPC   NC3 2270   1.677   7.300   7.955
  144POPC   PO4 2271   1.940   7.813   8.324
  144POPC   GL1 2272   1.884   7.862   7.836
  144POPC   GL2 2273   2.096   8.101   7.737
  144POPC   C1A 2274   1.789   7.811   7.346
  144POPC   D2A 2275   1.935   7.929   6.887
  144POPC   C3A 2276   1.766   7.723   6.476
  144POPC   C4A 2277   1.787   7.880   6.036
  144POPC   C1B 2278   1.924   8.300   7.346
  144POPC   C2B 2279   2.028   8.426   6.917
  144POPC   C3B 2280   2.101   8.347   6.484
  144POPC   C4B 2281   2.233   8.137   6.097
  145POPC   NC3 2282   2.594   2.771   8.056
  145POPC   PO4 2283   3.099   2.335   8.216
  145POPC   GL1 2284   2.836   2.558   7.695
  145POPC   GL2 2285   2.515   2.494   7.581
  145POPC   C1A 2286   2.876   2.403   7.208
  145POPC   D2A 2287   2.795   2.567   6.822
  145POPC   C3A 2288   2.887   2.371   6.463
  145POPC   C4A 2289   3.058   2.459   6.084
  145POPC   C1B 2290   2.668   2.854   7.266
  145POPC   C2B 2291   2.517   2.973   6.831
  145POPC   C3B 2292   2.697   2.855   6.388
  145POPC   C4B 2293   2.530   2.991   5.952
  146POPC   NC3 2294  11.197   1.499   8.307
  146POPC   PO4 2295  10.803   1.013   8.082
  146POPC   GL1 2296  10.998   1.117   7.668
  146POPC   GL2 2297  11.378   1.113   7.686
  146POPC   C1A 2298  11.068   1.277   7.212
  146POPC   D2A 2299  11.139   1.440   6.758
  146POPC   C3A 2300  10.999   1.328   6.376
  146POPC   C4A 2301  10.694   1.025   6.368
  146POPC   C1B 2302  11.280   0.818   7.347
  146POPC   C2B 2303  10.986   0.807   6.981
  146POPC   C3B 2304  11.155   0.866   6.561
  146POPC   C4B 2305  11.447   0.864   6.198
  147POPC   NC3 2306   1.893   1.305   8.074
  147POPC   PO4 2307   2.340   1.721   8.073
  147POPC   GL1 2308   2.258   1.421   7.691
  147POPC   GL2 2309   2.000   1.133   7.623
  147POPC   C1A 2310   2.367   1.474   7.247
  147POPC   D2A 2311   2.407   1.254   6.835
  147POPC   C3A 2312   2.226   1.592   6.544
  147POPC   C4A 2313   1.999   1.513   6.134
  147POPC   C1B 2314   2.053   1.081   7.201
  147POPC   C2B 2315   1.904   1.329   6.863
  147POPC   C3B 2316   1.889   1.163   6.472
  147POPC   C4B 2317   1.607   1.173   6.139
  148POPC   NC3 2318  11.486  11.224   8.402
  148POPC   PO4 2319  11.246  10.854   7.885
  148POPC   GL1 2320  11.181  11.049   7.485
  148POPC   GL2 2321  10.954  11.289   7.668
  148POPC   C1A 2322  11.355  11.393   7.208
  148POPC   D2A 2323  11.416   0.058   6.797
  148POPC   C3A 2324  11.340  11.325   6.407
  148POPC   C4A 2325   0.053  11.277   6.010
  148POPC   C1B 2326  10.840  11.338   7.262
  148POPC   C2B 2327  10.994  11.232   6.891
  148POPC   C3B 2328  10.847  11.324   6.532
  148POPC   C4B 2329  10.888  11.147   6.181
  149POPC   NC3 2330   5.213   8.814   8.082
  149POPC   PO4 2331   4.658   8.431   8.080
  149POPC   GL1 2332   4.852   8.657   7.702
  149POPC   GL2 2333   4.893   9.026   7.725
  149POPC   C1A 2334   5.059   8.782   7.295
  149POPC   D2A 2335   4.926   8.938   6.896
  149POPC   C3A 2336   5.009   8.791   6.506
  149POPC   C4A 2337   4.714   8.465   6.374
  149POPC   C1B 2338   4.862   9.261   7.328
  149POPC   C2B 2339   4.753   9.409   6.917
  149POPC   C3B 2340   4.864   9.344   6.484
  149POPC   C4B 2341   5.105   9.457   6.099
  150POPC   NC3 2342   4.381   9.527   8.071
  150POPC   PO4 2343   4.501  10.108   8.043
  150POPC   GL1 2344   4.180   9.897   7.731
  150POPC   GL2 2345   4.090   9.521   7.659
  150POPC   C1A 2346   4.236   9.882   7.260
  150POPC   D2A 2347   4.549   9.872   6.903
  150POPC   C3A 2348   4.315   9.821   6.495
  150POPC   C4A 2349   4.067  10.077   6.210
  150POPC   C1B 2350   4.338   9.356   7.304
  150POPC   C2B 2351   4.227   9.471   6.878
  150POPC   C3B 2352   4.200   9.327   6.450
  150POPC   C4B 2353   4.130   9.524   6.056
  151POPC   NC3 2354   8.962   2.007   8.011
  151POPC   PO4 2355   9.205   1.441   7.783
  151POPC   GL1 2356   8.990   1.728   7.557
  151POPC   GL2 2357   8.948   2.103   7.523
  151POPC   C1A 2358   8.998   1.732   7.153
  151POPC   D2A 2359   8.745   1.756   6.854
  151POPC   C3A 2360   8.999   1.722   6.548
  151POPC   C4A 2361   8.812   1.772   6.180
  151POPC   C1B 2362   8.821   2.207   7.108
  151POPC   C2B 2363   9.112   2.167   6.768
  151POPC   C3B 2364   9.087   2.201   6.329
  151POPC   C4B 2365   8.683   2.296   6.150
  152POPC   NC3 2366  10.565  11.301   8.021
  152POPC   PO4 2367  10.257  10.757   7.990
  152POPC   GL1 2368  10.452  11.001   7.624
  152POPC   GL2 2369  10.415  11.355   7.564
  152POPC   C1A 2370  10.407  11.078   7.171
  152POPC   D2A 2371  10.590  10.931   6.874
  152POPC   C3A 2372  10.420  11.070   6.567
  152POPC   C4A 2373  10.418  10.940   6.194
  152POPC   C1B 2374  10.056   0.013   7.373
  152POPC   C2B 2375  10.022   0.172   6.981
  152POPC   C3B 2376  10.064   0.069   6.565
  152POPC   C4B 2377  10.249  11.408   6.210
  153POPC   NC3 2378   2.011   9.523   8.164
  153POPC   PO4 2379   2.323   8.977   8.082
  153POPC   GL1 2380   2.110   9.254   7.711
  153POPC   GL2 2381   1.926   9.597   7.682
  153POPC   C1A 2382   1.861   9.260   7.303
  153POPC   D2A 2383   1.977   9.337   6.883
  153POPC   C3A 2384   1.853   9.220   6.463
  153POPC   C4A 2385   2.174   9.318   6.174
  153POPC   C1B 2386   1.807   9.783   7.305
  153POPC   C2B 2387   2.065   9.854   6.948
  153POPC   C3B 2388   2.151   9.686   6.554
  153POPC   C4B 2389   1.926   9.753   6.195
  154POPC   NC3 2390   6.065  11.262   7.921
  154POPC   PO4 2391   6.194  10.637   7.912
  154POPC   GL1 2392   6.371  10.916   7.576
  154POPC   GL2 2393   6.508  11.270   7.584
  154POPC   C1A 2394   6.420  11.035   7.154
  154POPC   D2A 2395   6.675  11.051   6.793
  154POPC   C3A 2396   6.322  10.887   6.619
  154POPC   C4A 2397   6.184  10.853   6.202
  154POPC   C1B 2398   6.843  11.306   7.231
  154POPC   C2B 2399   6.923   0.028   6.849
  154POPC   C3B 2400   6.719   0.053   6.458
  154POPC   C4B 2401   6.478  11.258   6.272
  155POPC   NC3 2402   8.409   8.782   8.101
  155POPC   PO4 2403   9.023   8.790   8.134
  155POPC   GL1 2404   8.806   8.922   7.756
  155POPC   GL2 2405   8.607   8.650   7.635
  155POPC   C1A 2406   8.747   9.059   7.328
  155POPC   D2A 2407   8.590   8.824   6.966
  155POPC   C3A 2408   8.470   9.087   6.659
  155POPC   C4A 2409   8.687   9.232   6.303
  155POPC   C1B 2410   9.008   8.612   7.387
  155POPC   C2B 2411   9.064   8.643   6.929
  155POPC   C3B 2412   8.928   8.873   6.572
  155POPC   C4B 2413   8.808   8.756   6.140
  156POPC   NC3 2414   4.119   1.359   7.928
  156POPC   PO4 2415   4.641   0.997   7.970
  156POPC   GL1 2416   4.499   1.213   7.622
  156POPC   GL2 2417   4.440   0.899   7.456
  156POPC   C1A 2418   4.355   1.362   7.227
  156POPC   D2A 2419   4.365   1.098   6.885
  156POPC   C3A 2420   4.395   1.335   6.558
  156POPC   C4A 2421   4.439   1.360   6.175
  156POPC   C1B 2422   4.048   0.941   7.257
  156POPC   C2B 2423   3.860   1.018   6.861
  156POPC   C3B 2424   4.060   0.953   6.470
  156POPC   C4B 2425   4.041   1.077   6.045
  157POPC   NC3 2426   0.893   8.160   3.999
  157POPC   PO4 2427   1.436   7.781   3.938
  157POPC   GL1 2428   1.424   7.957   4.317
  157POPC   GL2 2429   1.277   8.276   4.324
  157POPC   C1A 2430   1.313   7.850   4.722
  157POPC   D2A 2431   1.225   7.558   5.041
  157POPC   C3A 2432   1.289   7.842   5.376
  157POPC   C4A 2433   1.348   7.764   5.788
  157POPC   C1B 2434   0.978   8.250   4.671
  157POPC   C2B 2435   0.912   7.996   5.026
  157POPC   C3B 2436   0.857   8.114   5.440
  157POPC   C4B 2437   1.096   8.203   5.773
  158POPC   NC3 2438   3.555   1.771   4.116
  158POPC   PO4 2439   4.076   2.235   3.882
  158POPC   GL1 2440   3.822   2.177   4.360
  158POPC   GL2 2441   3.489   2.029   4.547
  158POPC   C1A 2442   3.850   2.249   4.795
  158POPC   D2A 2443   3.533   2.027   5.071
  158POPC   C3A 2444   3.550   2.187   5.481
  158POPC   C4A 2445   3.476   2.183   5.907
  158POPC   C1B 2446   3.457   1.608   4.749
  158POPC   C2B 2447   3.596   1.421   5.136
  158POPC   C3B 2448   3.720   1.665   5.471
  158POPC   C4B 2449   3.339   1.742   5.713
  159POPC   NC3 2450   0.718   5.684   3.970
  159POPC   PO4 2451   0.871   6.293   3.925
  159POPC   GL1 2452   0.602   6.145   4.254
  159POPC   GL2 2453   0.360   5.887   4.250
  159POPC   C1A 2454   0.645   5.960   4.676
  159POPC   D2A 2455   0.767   5.829   5.103
  159POPC   C3A 2456   0.498   5.800   5.460
  159POPC   C4A 2457   0.613   5.553   5.795
  159POPC   C1B 2458   0.317   5.587   4.635
  159POPC   C2B 2459   0.176   5.732   5.054
  159POPC   C3B 2460   0.028   5.565   5.471
  159POPC   C4B 2461  11.466   5.736   5.905
  160POPC   NC3 2462   2.050   4.564   4.123
  160POPC   PO4 2463   1.720   4.117   3.804
  160POPC   GL1 2464   1.592   4.079   4.253
  160POPC   GL2 2465   1.911   4.086   4.456
  160POPC   C1A 2466   1.481   4.299   4.644
  160POPC   D2A 2467   1.791   4.420   4.916
  160POPC   C3A 2468   1.683   4.330   5.334
  160POPC   C4A 2469   1.757   4.466   5.742
  160POPC   C1B 2470   2.216   3.823   4.747
  160POPC   C2B 2471   2.271   3.827   5.219
  160POPC   C3B 2472   2.145   4.135   5.562
  160POPC   C4B 2473   2.275   4.535   5.820
  161POPC   NC3 2474   0.487   1.504   4.200
  161POPC   PO4 2475   0.458   1.018   3.746
  161POPC   GL1 2476   0.407   0.979   4.269
  161POPC   GL2 2477   0.502   1.181   4.576
  161POPC   C1A 2478   0.117   0.888   4.691
  161POPC   D2A 2479   0.218   1.180   5.044
  161POPC   C3A 2480   0.389   1.055   5.430
  161POPC   C4A 2481   0.237   1.099   5.849
  161POPC   C1B 2482   0.614   1.541   4.849
  161POPC   C2B 2483   0.581   1.513   5.280
  161POPC   C3B 2484   0.600   1.426   5.690
  161POPC   C4B 2485   0.735   0.978   5.848
  162POPC   NC3 2486   2.275   1.512   4.078
  162POPC   PO4 2487   2.541   0.882   3.906
  162POPC   GL1 2488   2.386   1.051   4.320
  162POPC   GL2 2489   2.024   1.106   4.322
  162POPC   C1A 2490   2.329   0.898   4.765
  162POPC   D2A 2491   2.053   0.917   5.157
  162POPC   C3A 2492   2.254   1.002   5.545
  162POPC   C4A 2493   2.071   1.007   5.991
  162POPC   C1B 2494   1.948   1.258   4.749
  162POPC   C2B 2495   1.831   1.371   5.185
  162POPC   C3B 2496   1.875   1.343   5.631
  162POPC   C4B 2497   1.581   1.593   5.814
  163POPC   NC3 2498   1.277   3.296   4.070
  163POPC   PO4 2499   0.825   3.674   3.750
  163POPC   GL1 2500   0.865   3.502   4.303
  163POPC   GL2 2501   1.177   3.518   4.508
  163POPC   C1A 2502   0.842   3.369   4.807
  163POPC   D2A 2503   0.991   3.563   5.227
  163POPC   C3A 2504   0.906   3.450   5.685
  163POPC   C4A 2505   0.847   3.218   6.086
  163POPC   C1B 2506   1.469   3.297   4.721
  163POPC   C2B 2507   1.522   3.457   5.081
  163POPC   C3B 2508   1.497   3.364   5.461
  163POPC   C4B 2509   1.343   3.700   5.673
  164POPC   NC3 2510   9.615   7.508   3.868
  164POPC   PO4 2511   9.796   6.979   4.007
  164POPC   GL1 2512   9.676   7.239   4.332
  164POPC   GL2 2513   9.921   7.453   4.368
  164POPC   C1A 2514   9.583   7.305   4.780
  164POPC   D2A 2515   9.331   7.522   5.121
  164POPC   C3A 2516   9.401   7.331   5.539
  164POPC   C4A 2517   9.497   7.352   5.965
  164POPC   C1B 2518  10.127   7.405   4.760
  164POPC   C2B 2519  10.063   7.077   5.079
  164POPC   C3B 2520   9.861   7.075   5.473
  164POPC   C4B 2521   9.927   7.462   5.700
  165POPC   NC3 2522  11.199   3.071   3.998
  165POPC   PO4 2523  10.873   2.420   3.986
  165POPC   GL1 2524  11.000   2.526   4.374
  165POPC   GL2 2525  11.318   2.718   4.371
  165POPC   C1A 2526  11.151   2.436   4.778
  165POPC   D2A 2527  10.906   2.558   5.104
  165POPC   C3A 2528  11.126   2.451   5.435
  165POPC   C4A 2529  11.234   2.631   5.819
  165POPC   C1B 2530  11.491   2.837   4.791
  165POPC   C2B 2531  11.299   2.899   5.189
  165POPC   C3B 2532  11.278   3.086   5.565
  165POPC   C4B 2533   0.010   3.049   5.935
  166POPC   NC3 2534  11.113   8.775   3.723
  166POPC   PO4 2535  10.933   9.091   4.332
  166POPC   GL1 2536  11.009   8.696   4.492
  166POPC   GL2 2537  11.228   8.634   4.235
  166POPC   C1A 2538  11.157   8.666   4.922
  166POPC   D2A 2539  11.248   9.036   5.163
  166POPC   C3A 2540  10.928   9.050   5.450
  166POPC   C4A 2541  10.897   8.783   5.796
  166POPC   C1B 2542  11.425   8.387   4.592
  166POPC   C2B 2543   0.034   8.336   5.065
  166POPC   C3B 2544   0.008   8.646   5.417
  166POPC   C4B 2545  11.381   8.673   5.835
  167POPC   NC3 2546   8.792   5.436   3.938
  167POPC   PO4 2547   8.515   5.997   3.953
  167POPC   GL1 2548   8.674   5.743   4.327
  167POPC   GL2 2549   9.035   5.635   4.354
  167POPC   C1A 2550   8.749   5.698   4.782
  167POPC   D2A 2551   8.673   5.427   5.138
  167POPC   C3A 2552   8.729   5.546   5.588
  167POPC   C4A 2553   8.471   5.716   5.953
  167POPC   C1B 2554   9.263   5.818   4.725
  167POPC   C2B 2555   9.108   5.753   5.175
  167POPC   C3B 2556   9.194   5.765   5.626
  167POPC   C4B 2557   8.972   5.765   6.037
  168POPC   NC3 2558   8.338   3.539   4.022
  168POPC   PO4 2559   7.969   3.914   4.175
  168POPC   GL1 2560   8.120   3.583   4.495
  168POPC   GL2 2561   8.444   3.382   4.495
  168POPC   C1A 2562   8.229   3.504   4.938
  168POPC   D2A 2563   8.541   3.562   5.273
  168POPC   C3A 2564   8.337   3.672   5.690
  168POPC   C4A 2565   7.935   3.688   5.934
  168POPC   C1B 2566   8.464   3.054   4.823
  168POPC   C2B 2567   8.318   3.084   5.261
  168POPC   C3B 2568   8.238   3.122   5.706
  168POPC   C4B 2569   8.144   2.872   6.082
  169POPC   NC3 2570   8.969   9.040   4.096
  169POPC   PO4 2571   8.434   9.164   3.707
  169POPC   GL1 2572   8.522   8.843   4.192
  169POPC   GL2 2573   8.767   8.627   4.322
  169POPC   C1A 2574   8.583   8.917   4.691
  169POPC   D2A 2575   8.686   8.681   5.064
  169POPC   C3A 2576   8.628   8.745   5.508
  169POPC   C4A 2577   8.678   9.099   5.762
  169POPC   C1B 2578   9.050   8.705   4.705
  169POPC   C2B 2579   9.170   8.609   5.142
  169POPC   C3B 2580   9.130   8.830   5.536
  169POPC   C4B 2581   9.254   8.665   5.922
  170POPC   NC3 2582  10.506   1.366   3.903
  170POPC   PO4 2583  10.000   0.812   3.961
  170POPC   GL1 2584  10.059   1.235   4.141
  170POPC   GL2 2585  10.338   1.111   4.314
  170POPC   C1A 2586  10.052   1.497   4.535
  170POPC   D2A 2587  10.166   1.367   4.946
  170POPC   C3A 2588  10.107   1.521   5.355
  170POPC   C4A 2589  10.027   1.427   5.774
  170POPC   C1B 2590  10.568   1.166   4.698
  170POPC   C2B 2591  10.517   1.078   5.155
  170POPC   C3B 2592  10.457   1.224   5.571
  170POPC   C4B 2593  10.710   1.233   5.898
  171POPC   NC3 2594   8.200   8.759   3.827
  171POPC   PO4 2595   8.498   9.332   4.188
  171POPC   GL1 2596   8.182   9.136   4.432
  171POPC   GL2 2597   8.028   8.881   4.277
  171POPC   C1A 2598   8.131   9.091   4.847
  171POPC   D2A 2599   8.319   9.005   5.208
  171POPC   C3A 2600   8.181   9.100   5.588
  171POPC   C4A 2601   8.276   9.256   6.015
  171POPC   C1B 2602   8.178   8.619   4.637
  171POPC   C2B 2603   8.207   8.534   5.076
  171POPC   C3B 2604   8.213   8.450   5.521
  171POPC   C4B 2605   7.939   8.455   5.874
  172POPC   NC3 2606   6.586   0.397   3.686
  172POPC   PO4 2607   7.121   0.617   3.913
  172POPC   GL1 2608   6.909   0.307   4.187
  172POPC   GL2 2609   6.553   0.351   4.203
  172POPC   C1A 2610   6.840   0.246   4.646
  172POPC   D2A 2611   6.873   0.422   5.089
  172POPC   C3A 2612   6.746   0.334   5.534
  172POPC   C4A 2613   6.856   0.336   6.000
  172POPC   C1B 2614   6.328   0.398   4.590
  172POPC   C2B 2615   6.337   0.510   5.033
  172POPC   C3B 2616   6.251   0.401   5.470
  172POPC   C4B 2617   6.284   0.620   5.845
  173POPC   NC3 2618   3.448   8.278   3.555
  173POPC   PO4 2619   2.979   8.081   3.916
  173POPC   GL1 2620   3.043   8.291   4.336
  173POPC   GL2 2621   3.406   8.208   4.375
  173POPC   C1A 2622   3.166   8.356   4.797
  173POPC   D2A 2623   3.335   8.168   5.206
  173POPC   C3A 2624   3.341   8.355   5.630
  173POPC   C4A 2625   3.559   8.377   6.044
  173POPC   C1B 2626   3.459   7.921   4.749
  173POPC   C2B 2627   3.654   7.755   5.152
  173POPC   C3B 2628   3.635   7.910   5.589
  173POPC   C4B 2629   3.962   8.075   5.873
  174POPC   NC3 2630   9.507   9.758   3.923
  174POPC   PO4 2631  10.000   9.319   4.054
  174POPC   GL1 2632   9.890   9.668   4.274
  174POPC   GL2 2633   9.571   9.516   4.377
  174POPC   C1A 2634   9.850   9.835   4.687
  174POPC   D2A 2635   9.832  10.028   5.089
  174POPC   C3A 2636   9.598   9.975   5.461
  174POPC   C4A 2637   9.844  10.017   5.812
  174POPC   C1B 2638   9.549   9.451   4.830
  174POPC   C2B 2639   9.871   9.483   5.172
  174POPC   C3B 2640   9.863   9.506   5.632
  174POPC   C4B 2641   9.458   9.586   5.796
  175POPC   NC3 2642   9.081   0.311   3.933
  175POPC   PO4 2643   8.566   0.685   3.757
  175POPC   GL1 2644   8.812   0.509   4.274
  175POPC   GL2 2645   8.782   0.178   4.335
  175POPC   C1A 2646   8.864   0.650   4.731
  175POPC   D2A 2647   8.659   0.753   5.142
  175POPC   C3A 2648   8.911   0.639   5.502
  175POPC   C4A 2649   9.361   0.679   5.694
  175POPC   C1B 2650   8.767   0.057   4.756
  175POPC   C2B 2651   8.853   0.241   5.135
  175POPC   C3B 2652   8.638   0.171   5.497
  175POPC   C4B 2653   8.475   0.319   5.841
  176POPC   NC3 2654   8.110   9.427   3.903
  176POPC   PO4 2655   7.725   8.895   3.849
  176POPC   GL1 2656   7.731   9.286   4.205
  176POPC   GL2 2657   8.001   9.594   4.345
  176POPC   C1A 2658   7.734   9.348   4.672
  176POPC   D2A 2659   7.732   9.285   5.093
  176POPC   C3A 2660   7.745   9.625   5.371
  176POPC   C4A 2661   7.970   9.548   5.732
  176POPC   C1B 2662   8.178   9.643   4.748
  176POPC   C2B 2663   8.205   9.496   5.168
  176POPC   C3B 2664   8.461   9.527   5.513
  176POPC   C4B 2665   8.366   9.899   5.744
  177POPC   NC3 2666   2.928   0.308   4.065
  177POPC   PO4 2667   2.382   0.088   3.848
  177POPC   GL1 2668   2.477   0.248   4.274
  177POPC   GL2 2669   2.625   0.602   4.339
  177POPC   C1A 2670   2.400   0.336   4.707
  177POPC   D2A 2671   2.215   0.455   5.068
  177POPC   C3A 2672   2.496   0.494   5.408
  177POPC   C4A 2673   2.512   0.272   5.806
  177POPC   C1B 2674   2.819   0.673   4.771
  177POPC   C2B 2675   2.977   0.629   5.217
  177POPC   C3B 2676   2.894   0.757   5.658
  177POPC   C4B 2677   3.009   0.717   6.105
  178POPC   NC3 2678   2.092  11.236   3.963
  178POPC   PO4 2679   1.527  10.968   3.670
  178POPC   GL1 2680   1.602  11.121   4.174
  178POPC   GL2 2681   1.870  10.988   4.385
  178POPC   C1A 2682   1.589  11.313   4.632
  178POPC   D2A 2683   1.881  11.162   4.990
  178POPC   C3A 2684   1.764  11.247   5.438
  178POPC   C4A 2685   1.821  11.094   5.871
  178POPC   C1B 2686   2.198  11.304   4.577
  178POPC   C2B 2687   2.365  11.384   4.966
  178POPC   C3B 2688   2.377  11.103   5.290
  178POPC   C4B 2689   2.334  11.163   5.736
  179POPC   NC3 2690  10.674   8.778   4.105
  179POPC   PO4 2691  10.066   8.496   3.962
  179POPC   GL1 2692  10.133   8.871   4.268
  179POPC   GL2 2693  10.372   8.811   4.500
  179POPC   C1A 2694   9.987   9.052   4.704
  179POPC   D2A 2695  10.168   8.879   5.096
  179POPC   C3A 2696  10.018   8.916   5.529
  179POPC   C4A 2697  10.101   8.470   5.677
  179POPC   C1B 2698  10.642   8.803   4.827
  179POPC   C2B 2699  10.706   8.684   5.186
  179POPC   C3B 2700  10.492   8.739   5.520
  179POPC   C4B 2701  10.457   9.094   5.770
  180POPC   NC3 2702   2.361  10.274   4.017
  180POPC   PO4 2703   3.017   9.986   3.893
  180POPC   GL1 2704   2.828  10.111   4.273
  180POPC   GL2 2705   2.695  10.433   4.349
  180POPC   C1A 2706   2.744  10.013   4.700
  180POPC   D2A 2707   3.013  10.129   5.063
  180POPC   C3A 2708   2.851  10.152   5.481
  180POPC   C4A 2709   2.451  10.164   5.726
  180POPC   C1B 2710   2.878  10.492   4.713
  180POPC   C2B 2711   2.575  10.424   5.044
  180POPC   C3B 2712   2.492  10.591   5.435
  180POPC   C4B 2713   2.795  10.572   5.785
  181POPC   NC3 2714  11.365   4.262   4.011
  181POPC   PO4 2715  11.310   4.899   3.778
  181POPC   GL1 2716  11.276   4.721   4.241
  181POPC   GL2 2717  11.038   4.438   4.345
  181POPC   C1A 2718  11.412   4.617   4.672
  181POPC   D2A 2719  11.171   4.442   5.031
  181POPC   C3A 2720  11.350   4.493   5.437
  181POPC   C4A 2721  11.098   4.503   5.769
  181POPC   C1B 2722  11.224   4.138   4.634
  181POPC   C2B 2723  11.357   3.944   5.040
  181POPC   C3B 2724  11.215   3.999   5.457
  181POPC   C4B 2725  11.347   4.034   5.864
  182POPC   NC3 2726   2.739  11.071   3.546
  182POPC   PO4 2727   2.974  10.531   3.937
  182POPC   GL1 2728   2.837  10.915   4.260
  182POPC   GL2 2729   2.654  11.248   4.189
  182POPC   C1A 2730   2.760  10.991   4.711
  182POPC   D2A 2731   2.884  10.815   5.122
  182POPC   C3A 2732   2.838  10.995   5.512
  182POPC   C4A 2733   3.094  10.968   5.925
  182POPC   C1B 2734   2.740  11.474   4.593
  182POPC   C2B 2735   2.807   0.166   5.004
  182POPC   C3B 2736   2.691  11.496   5.414
  182POPC   C4B 2737   2.794  11.356   5.845
  183POPC   NC3 2738   9.023   8.210   3.976
  183POPC   PO4 2739   8.443   8.365   3.940
  183POPC   GL1 2740   8.660   8.141   4.339
  183POPC   GL2 2741   8.983   7.927   4.392
  183POPC   C1A 2742   8.799   8.262   4.775
  183POPC   D2A 2743   8.578   8.196   5.183
  183POPC   C3A 2744   8.713   8.237   5.604
  183POPC   C4A 2745   8.546   8.311   6.026
  183POPC   C1B 2746   9.180   7.919   4.807
  183POPC   C2B 2747   9.035   7.938   5.242
  183POPC   C3B 2748   9.082   7.784   5.668
  183POPC   C4B 2749   8.734   7.797   5.983
  184POPC   NC3 2750   1.172  10.299   3.928
  184POPC   PO4 2751   1.710  10.610   4.042
  184POPC   GL1 2752   1.514  10.319   4.317
  184POPC   GL2 2753   1.270  10.585   4.320
  184POPC   C1A 2754   1.582  10.117   4.732
  184POPC   D2A 2755   1.636  10.316   5.147
  184POPC   C3A 2756   1.534  10.068   5.501
  184POPC   C4A 2757   1.543   9.911   5.907
  184POPC   C1B 2758   1.138  10.372   4.666
  184POPC   C2B 2759   1.128  10.551   5.048
  184POPC   C3B 2760   1.210  10.458   5.427
  184POPC   C4B 2761   1.062  10.598   5.773
  185POPC   NC3 2762   4.586   8.962   3.893
  185POPC   PO4 2763   4.059   9.184   3.891
  185POPC   GL1 2764   4.122   9.149   4.347
  185POPC   GL2 2765   4.331   8.880   4.395
  185POPC   C1A 2766   4.048   9.200   4.815
  185POPC   D2A 2767   4.190   9.373   5.241
  185POPC   C3A 2768   4.039   9.222   5.648
  185POPC   C4A 2769   4.160   9.004   6.045
  185POPC   C1B 2770   4.534   9.052   4.771
  185POPC   C2B 2771   4.571   8.953   5.190
  185POPC   C3B 2772   4.468   8.944   5.611
  185POPC   C4B 2773   4.527   8.638   5.940
  186POPC   NC3 2774  11.135   9.394   4.053
  186POPC   PO4 2775  10.717  10.016   4.017
  186POPC   GL1 2776  10.924   9.982   4.435
  186POPC   GL2 2777  11.164   9.714   4.443
  186POPC   C1A 2778  10.891   9.774   4.863
  186POPC   D2A 2779  10.885   9.558   5.254
  186POPC   C3A 2780  11.042   9.834   5.555
  186POPC   C4A 2781  11.426   9.898   5.757
  186POPC   C1B 2782  11.305   9.455   4.807
  186POPC   C2B 2783  11.433   9.561   5.230
  186POPC   C3B 2784  11.272   9.398   5.590
  186POPC   C4B 2785  10.919   9.328   5.864
  187POPC   NC3 2786   2.376   5.975   3.727
  187POPC   PO4 2787   3.046   6.160   3.855
  187POPC   GL1 2788   2.748   6.041   4.184
  187POPC   GL2 2789   2.516   5.739   4.176
  187POPC   C1A 2790   2.917   5.908   4.605
  187POPC   D2A 2791   3.163   6.010   4.994
  187POPC   C3A 2792   2.951   5.932   5.412
  187POPC   C4A 2793   2.764   6.028   5.819
  187POPC   C1B 2794   2.423   5.779   4.628
  187POPC   C2B 2795   2.302   5.843   5.087
  187POPC   C3B 2796   2.444   5.760   5.509
  187POPC   C4B 2797   2.651   5.533   5.860
  188POPC   NC3 2798  11.402   8.037   3.998
  188POPC   PO4 2799  10.710   8.258   3.855
  188POPC   GL1 2800  10.953   8.213   4.241
  188POPC   GL2 2801  11.037   7.889   4.357
  188POPC   C1A 2802  10.941   8.233   4.701
  188POPC   D2A 2803  10.795   8.179   5.092
  188POPC   C3A 2804  11.060   8.392   5.380
  188POPC   C4A 2805  11.062   8.292   5.783
  188POPC   C1B 2806  11.356   7.900   4.677
  188POPC   C2B 2807  11.227   7.898   5.072
  188POPC   C3B 2808  11.346   7.978   5.458
  188POPC   C4B 2809  11.342   7.873   5.880
  189POPC   NC3 2810   1.693   9.773   4.075
  189POPC   PO4 2811   1.094   9.871   3.769
  189POPC   GL1 2812   1.191   9.862   4.222
  189POPC   GL2 2813   1.286   9.539   4.280
  189POPC   C1A 2814   1.110   9.850   4.674
  189POPC   D2A 2815   1.197  10.025   5.079
  189POPC   C3A 2816   0.913   9.949   5.410
  189POPC   C4A 2817   1.079  10.085   5.775
  189POPC   C1B 2818   1.535   9.548   4.670
  189POPC   C2B 2819   1.403   9.471   5.082
  189POPC   C3B 2820   1.447   9.571   5.492
  189POPC   C4B 2821   1.141   9.581   5.794
  190POPC   NC3 2822   1.272   7.327   3.895
  190POPC   PO4 2823   1.559   6.812   3.725
  190POPC   GL1 2824   1.493   6.954   4.171
  190POPC   GL2 2825   1.166   6.869   4.300
  190POPC   C1A 2826   1.490   7.071   4.645
  190POPC   D2A 2827   1.653   7.175   5.071
  190POPC   C3A 2828   1.443   7.333   5.472
  190POPC   C4A 2829   1.669   7.380   5.877
  190POPC   C1B 2830   0.985   6.982   4.728
  190POPC   C2B 2831   0.838   7.068   5.167
  190POPC   C3B 2832   0.923   6.996   5.610
  190POPC   C4B 2833   1.128   7.223   5.939
  191POPC   NC3 2834   9.776   5.614   3.915
  191POPC   PO4 2835   9.237   5.307   3.997
  191POPC   GL1 2836   9.519   5.446   4.387
  191POPC   GL2 2837   9.752   5.738   4.421
  191POPC   C1A 2838   9.636   5.471   4.861
  191POPC   D2A 2839   9.602   5.689   5.283
  191POPC   C3A 2840   9.623   5.475   5.693
  191POPC   C4A 2841   9.398   5.429   6.104
  191POPC   C1B 2842   9.830   5.950   4.831
  191POPC   C2B 2843   9.880   6.120   5.241
  191POPC   C3B 2844   9.685   6.086   5.631
  191POPC   C4B 2845   9.609   6.390   5.955
  192POPC   NC3 2846   2.814   2.220   3.884
  192POPC   PO4 2847   3.420   2.211   4.080
  192POPC   GL1 2848   3.082   1.899   4.259
  192POPC   GL2 2849   2.770   2.058   4.357
  192POPC   C1A 2850   2.982   1.749   4.676
  192POPC   D2A 2851   2.929   2.095   4.930
  192POPC   C3A 2852   3.066   1.983   5.315
  192POPC   C4A 2853   3.033   2.183   5.662
  192POPC   C1B 2854   2.504   1.927   4.694
  192POPC   C2B 2855   2.545   1.824   5.101
  192POPC   C3B 2856   2.576   1.983   5.508
  192POPC   C4B 2857   2.824   1.695   5.732
  193POPC   NC3 2858   1.920   2.380   3.760
  193POPC   PO4 2859   1.837   1.654   4.035
  193POPC   GL1 2860   1.898   2.082   4.207
  193POPC   GL2 2861   2.251   2.070   4.283
  193POPC   C1A 2862   1.968   2.298   4.649
  193POPC   D2A 2863   2.243   2.313   5.014
  193POPC   C3A 2864   2.156   2.292   5.441
  193POPC   C4A 2865   1.825   2.267   5.751
  193POPC   C1B 2866   2.032   1.788   4.639
  193POPC   C2B 2867   2.038   1.835   5.080
  193POPC   C3B 2868   1.916   1.838   5.501
  193POPC   C4B 2869   2.195   1.894   5.860
  194POPC   NC3 2870   8.205   1.910   3.895
  194POPC   PO4 2871   7.696   2.361   3.853
  194POPC   GL1 2872   7.945   2.227   4.232
  194POPC   GL2 2873   8.056   1.890   4.368
  194POPC   C1A 2874   8.118   2.305   4.657
  194POPC   D2A 2875   7.928   2.279   5.062
  194POPC   C3A 2876   8.087   2.379   5.477
  194POPC   C4A 2877   8.261   2.393   5.889
  194POPC   C1B 2878   8.121   1.797   4.820
  194POPC   C2B 2879   8.103   1.516   5.171
  194POPC   C3B 2880   7.842   1.635   5.505
  194POPC   C4B 2881   7.944   1.974   5.774
  195POPC   NC3 2882   0.908   1.113   3.674
  195POPC   PO4 2883   0.881   1.685   4.043
  195POPC   GL1 2884   0.953   1.300   4.277
  195POPC   GL2 2885   1.317   1.265   4.323
  195POPC   C1A 2886   0.989   1.221   4.722
  195POPC   D2A 2887   1.070   1.503   5.085
  195POPC   C3A 2888   1.022   1.265   5.453
  195POPC   C4A 2889   1.201   1.197   5.848
  195POPC   C1B 2890   1.462   1.029   4.656
  195POPC   C2B 2891   1.344   1.065   5.066
  195POPC   C3B 2892   1.491   1.052   5.434
  195POPC   C4B 2893   1.667   0.880   5.734
  196POPC   NC3 2894  11.011  10.363   4.092
  196POPC   PO4 2895  10.920  10.915   3.809
  196POPC   GL1 2896  10.947  10.831   4.251
  196POPC   GL2 2897  11.344  10.717   4.259
  196POPC   C1A 2898  10.840  10.663   4.672
  196POPC   D2A 2899  10.825  10.817   5.090
  196POPC   C3A 2900  10.877  10.653   5.508
  196POPC   C4A 2901  10.833  10.663   6.016
  196POPC   C1B 2902  11.323  10.483   4.649
  196POPC   C2B 2903  11.082  10.339   5.002
  196POPC   C3B 2904  11.227  10.278   5.396
  196POPC   C4B 2905  11.264  10.463   5.769
  197POPC   NC3 2906   7.261   1.029   4.067
  197POPC   PO4 2907   7.815   1.487   3.895
  197POPC   GL1 2908   7.683   1.242   4.258
  197POPC   GL2 2909   7.411   1.402   4.418
  197POPC   C1A 2910   7.553   0.984   4.654
  197POPC   D2A 2911   7.189   1.055   4.934
  197POPC   C3A 2912   7.275   1.030   5.377
  197POPC   C4A 2913   7.412   0.991   5.793
  197POPC   C1B 2914   7.352   1.533   4.856
  197POPC   C2B 2915   7.219   1.544   5.297
  197POPC   C3B 2916   6.919   1.352   5.587
  197POPC   C4B 2917   7.000   1.225   6.012
  198POPC   NC3 2918   9.700   8.971   3.984
  198POPC   PO4 2919   9.196   8.627   4.069
  198POPC   GL1 2920   9.455   8.714   4.371
  198POPC   GL2 2921   9.753   8.554   4.353
  198POPC   C1A 2922   9.501   8.929   4.733
  198POPC   D2A 2923   9.288   9.090   5.083
  198POPC   C3A 2924   9.547   9.142   5.402
  198POPC   C4A 2925   9.558   9.078   5.804
  198POPC   C1B 2926   9.936   8.539   4.758
  198POPC   C2B 2927   9.703   8.663   5.134
  198POPC   C3B 2928   9.604   8.634   5.556
  198POPC   C4B 2929   9.770   8.676   6.007
  199POPC   NC3 2930   8.885  10.574   4.035
  199POPC   PO4 2931   9.056   9.906   3.956
  199POPC   GL1 2932   9.155  10.212   4.282
  199POPC   GL2 2933   8.793  10.223   4.380
  199POPC   C1A 2934   9.096  10.427   4.713
  199POPC   D2A 2935   8.922  10.190   5.084
  199POPC   C3A 2936   9.057  10.364   5.483
  199POPC   C4A 2937   9.062  10.618   5.886
  199POPC   C1B 2938   8.560  10.027   4.711
  199POPC   C2B 2939   8.467   9.938   5.142
  199POPC   C3B 2940   8.525  10.263   5.434
  199POPC   C4B 2941   8.718  10.268   5.839
  200POPC   NC3 2942   1.496   8.909   3.864
  200POPC   PO4 2943   0.909   8.630   3.972
  200POPC   GL1 2944   1.189   8.773   4.328
  200POPC   GL2 2945   1.080   9.081   4.378
  200POPC   C1A 2946   1.321   8.637   4.786
  200POPC   D2A 2947   1.253   8.413   5.213
  200POPC   C3A 2948   1.065   8.658   5.575
  200POPC   C4A 2949   1.283   8.622   5.999
  200POPC   C1B 2950   1.123   9.128   4.826
  200POPC   C2B 2951   1.340   8.974   5.230
  200POPC   C3B 2952   1.327   9.096   5.665
  200POPC   C4B 2953   0.914   9.120   5.803
  201POPC   NC3 2954   9.731   4.103   3.877
  201POPC   PO4 2955   9.783   3.454   3.942
  201POPC   GL1 2956   9.780   3.669   4.333
  201POPC   GL2 2957   9.443   3.797   4.410
  201POPC   C1A 2958   9.756   3.762   4.802
  201POPC   D2A 2959   9.531   3.867   5.182
  201POPC   C3A 2960   9.760   3.987   5.586
  201POPC   C4A 2961   9.971   3.839   5.992
  201POPC   C1B 2962   9.382   3.404   4.695
  201POPC   C2B 2963   9.505   3.293   5.115
  201POPC   C3B 2964   9.527   3.486   5.520
  201POPC   C4B 2965   9.173   3.567   5.733
  202POPC   NC3 2966   5.888   1.067   3.939
  202POPC   PO4 2967   5.399   1.557   3.886
  202POPC   GL1 2968   5.482   1.523   4.304
  202POPC   GL2 2969   5.575   1.194   4.314
  202POPC   C1A 2970   5.664   1.425   4.735
  202POPC   D2A 2971   5.466   1.433   5.114
  202POPC   C3A 2972   5.782   1.478   5.380
  202POPC   C4A 2973   5.939   1.670   5.725
  202POPC   C1B 2974   5.444   0.967   4.705
  202POPC   C2B 2975   5.488   0.819   5.119
  202POPC   C3B 2976   5.503   1.055   5.495
  202POPC   C4B 2977   5.954   1.114   5.689
  203POPC   NC3 2978   9.549   2.729   3.870
  203POPC   PO4 2979  10.136   2.527   3.815
  203POPC   GL1 2980   9.947   2.499   4.244
  203POPC   GL2 2981   9.649   2.704   4.371
  203POPC   C1A 2982  10.003   2.535   4.698
  203POPC   D2A 2983   9.882   2.297   5.051
  203POPC   C3A 2984   9.920   2.544   5.412
  203POPC   C4A 2985   9.869   2.568   5.844
  203POPC   C1B 2986   9.535   2.807   4.804
  203POPC   C2B 2987   9.399   2.551   5.151
  203POPC   C3B 2988   9.436   2.643   5.567
  203POPC   C4B 2989   9.683   3.011   5.667
  204POPC   NC3 2990  11.350   5.209   4.116
  204POPC   PO4 2991  10.783   4.846   4.190
  204POPC   GL1 2992  10.846   4.899   4.535
  204POPC   GL2 2993  10.964   5.245   4.476
  204POPC   C1A 2994  10.747   4.731   4.944
  204POPC   D2A 2995  10.980   4.808   5.316
  204POPC   C3A 2996  10.880   4.964   5.677
  204POPC   C4A 2997  10.712   5.344   5.698
  204POPC   C1B 2998  11.185   5.052   4.850
  204POPC   C2B 2999  11.478   4.898   5.123
  204POPC   C3B 3000  11.414   5.050   5.502
  204POPC   C4B 3001  11.454   4.837   5.821
  205POPC   NC3 3002  10.273   3.655   3.881
  205POPC   PO4 3003  10.914   3.995   3.941
  205POPC   GL1 3004  10.646   3.671   4.273
  205POPC   GL2 3005  10.300   3.507   4.350
  205POPC   C1A 3006  10.623   3.404   4.716
  205POPC   D2A 3007  10.543   3.593   5.137
  205POPC   C3A 3008  10.508   3.316   5.488
  205POPC   C4A 3009  10.756   3.300   5.832
  205POPC   C1B 3010  10.278   3.801   4.707
  205POPC   C2B 3011  10.125   3.896   5.134
  205POPC   C3B 3012  10.234   3.754   5.561
  205POPC   C4B 3013  10.149   3.375   5.863
  206POPC   NC3 3014   3.652   1.012   3.805
  206POPC   PO4 3015   3.623   1.598   3.701
  206POPC   GL1 3016   3.394   1.351   4.299
  206POPC   GL2 3017   3.452   0.986   4.266
  206POPC   C1A 3018   3.673   1.151   4.708
  206POPC   D2A 3019   3.827   0.928   5.126
  206POPC   C3A 3020   3.731   1.110   5.565
  206POPC   C4A 3021   3.669   1.416   5.911
  206POPC   C1B 3022   3.312   0.801   4.633
  206POPC   C2B 3023   3.311   0.983   5.046
  206POPC   C3B 3024   3.234   1.162   5.442
  206POPC   C4B 3025   3.294   1.058   5.866
  207POPC   NC3 3026   5.798   9.747   3.919
  207POPC   PO4 3027   5.663   9.183   4.093
  207POPC   GL1 3028   5.727   9.492   4.430
  207POPC   GL2 3029   5.609   9.805   4.407
  207POPC   C1A 3030   5.811   9.599   4.885
  207POPC   D2A 3031   5.739   9.486   5.342
  207POPC   C3A 3032   6.095   9.544   5.680
  207POPC   C4A 3033   6.305   9.480   6.119
  207POPC   C1B 3034   5.337   9.754   4.775
  207POPC   C2B 3035   5.231   9.585   5.230
  207POPC   C3B 3036   5.383   9.652   5.690
  207POPC   C4B 3037   5.460   9.888   6.116
  208POPC   NC3 3038   0.479  11.422   3.968
  208POPC   PO4 3039   0.752  10.804   3.883
  208POPC   GL1 3040   0.647  11.035   4.245
  208POPC   GL2 3041   0.266  11.076   4.292
  208POPC   C1A 3042   0.668  11.130   4.670
  208POPC   D2A 3043   0.758  11.246   5.094
  208POPC   C3A 3044   0.896  10.918   5.360
  208POPC   C4A 3045   0.620  10.829   5.685
  208POPC   C1B 3046   0.235  10.835   4.707
  208POPC   C2B 3047   0.371  10.866   5.185
  208POPC   C3B 3048   0.286  11.189   5.537
  208POPC   C4B 3049   0.100   0.113   5.610
  209POPC   NC3 3050   3.295  10.309   3.662
  209POPC   PO4 3051   3.685   9.905   4.029
  209POPC   GL1 3052   3.687   9.834   4.415
  209POPC   GL2 3053   3.740   9.489   4.379
  209POPC   C1A 3054   3.326   9.841   4.710
  209POPC   D2A 3055   3.271   9.679   5.110
  209POPC   C3A 3056   3.482   9.790   5.490
  209POPC   C4A 3057   3.286   9.980   5.796
  209POPC   C1B 3058   3.554   9.385   4.790
  209POPC   C2B 3059   3.668   9.374   5.245
  209POPC   C3B 3060   3.543   9.330   5.698
  209POPC   C4B 3061   3.680   9.251   6.152
  210POPC   NC3 3062   0.210   8.038   3.406
  210POPC   PO4 3063   0.313   7.832   4.068
  210POPC   GL1 3064   0.257   8.034   4.393
  210POPC   GL2 3065   0.561   8.182   4.375
  210POPC   C1A 3066   0.409   7.901   4.790
  210POPC   D2A 3067   0.238   7.773   5.149
  210POPC   C3A 3068   0.366   7.979   5.521
  210POPC   C4A 3069   0.152   8.273   5.733
  210POPC   C1B 3070   0.423   8.400   4.712
  210POPC   C2B 3071   0.555   8.349   5.070
  210POPC   C3B 3072   0.513   8.495   5.425
  210POPC   C4B 3073   0.633   8.394   5.823
  211POPC   NC3 3074   7.820  10.383   3.937
  211POPC   PO4 3075   8.442  10.722   3.900
  211POPC   GL1 3076   8.201  10.549   4.272
  211POPC   GL2 3077   8.199  10.166   4.242
  211POPC   C1A 3078   8.114  10.697   4.725
  211POPC   D2A 3079   7.881  10.760   5.133
  211POPC   C3A 3080   8.150  10.633   5.494
  211POPC   C4A 3081   8.231  10.394   5.856
  211POPC   C1B 3082   8.070  10.169   4.662
  211POPC   C2B 3083   8.129  10.308   5.080
  211POPC   C3B 3084   7.989  10.122   5.473
  211POPC   C4B 3085   7.897  10.013   5.911
  212POPC   NC3 3086   1.641   5.370   4.015
  212POPC   PO4 3087   1.850   6.012   3.799
  212POPC   GL1 3088   1.796   5.983   4.237
  212POPC   GL2 3089   1.988   5.741   4.348
  212POPC   C1A 3090   1.626   6.018   4.633
  212POPC   D2A 3091   1.632   5.981   5.048
  212POPC   C3A 3092   1.910   6.038   5.369
  212POPC   C4A 3093   1.790   5.957   5.799
  212POPC   C1B 3094   1.938   5.641   4.762
  212POPC   C2B 3095   1.905   5.525   5.173
  212POPC   C3B 3096   2.000   5.515   5.614
  212POPC   C4B 3097   1.956   5.289   5.998
  213POPC   NC3 3098   5.623  11.285   3.581
  213POPC   PO4 3099   6.174   0.202   3.818
  213POPC   GL1 3100   6.092   0.040   4.243
  213POPC   GL2 3101   5.794  11.322   4.243
  213POPC   C1A 3102   5.991   0.022   4.705
  213POPC   D2A 3103   6.080  11.210   5.037
  213POPC   C3A 3104   6.088  11.408   5.414
  213POPC   C4A 3105   6.148  11.205   5.783
  213POPC   C1B 3106   5.763  11.076   4.622
  213POPC   C2B 3107   5.604  10.956   5.043
  213POPC   C3B 3108   5.715  11.078   5.440
  213POPC   C4B 3109   5.650  11.194   5.837
  214POPC   NC3 3110   0.271   4.925   3.822
  214POPC   PO4 3111   0.912   4.582   3.892
  214POPC   GL1 3112   0.711   4.766   4.303
  214POPC   GL2 3113   0.403   4.955   4.320
  214POPC   C1A 3114   0.742   4.986   4.710
  214POPC   D2A 3115   0.775   4.840   5.128
  214POPC   C3A 3116   0.410   4.697   5.376
  214POPC   C4A 3117   0.479   4.814   5.805
  214POPC   C1B 3118   0.214   5.066   4.692
  214POPC   C2B 3119   0.398   5.249   5.054
  214POPC   C3B 3120   0.411   5.209   5.488
  214POPC   C4B 3121   0.194   5.273   5.896
  215POPC   NC3 3122   5.657   0.205   3.933
  215POPC   PO4 3123   5.453   0.867   3.938
  215POPC   GL1 3124   5.661   0.674   4.317
  215POPC   GL2 3125   5.698   0.320   4.410
  215POPC   C1A 3126   5.844   0.630   4.769
  215POPC   D2A 3127   5.836   0.407   5.166
  215POPC   C3A 3128   5.793   0.622   5.584
  215POPC   C4A 3129   5.591   0.830   5.935
  215POPC   C1B 3130   5.476   0.012   4.659
  215POPC   C2B 3131   5.627  11.448   5.090
  215POPC   C3B 3132   5.627   0.102   5.512
  215POPC   C4B 3133   5.922   0.191   5.822
  216POPC   NC3 3134   2.921   7.607   4.025
  216POPC   PO4 3135   2.328   7.945   4.017
  216POPC   GL1 3136   2.648   7.956   4.314
  216POPC   GL2 3137   2.425   7.952   4.566
  216POPC   C1A 3138   2.924   7.923   4.697
  216POPC   D2A 3139   2.844   8.069   5.143
  216POPC   C3A 3140   2.970   8.006   5.598
  216POPC   C4A 3141   2.689   7.859   5.957
  216POPC   C1B 3142   2.597   8.327   4.759
  216POPC   C2B 3143   2.461   8.395   5.196
  216POPC   C3B 3144   2.508   8.218   5.592
  216POPC   C4B 3145   2.669   8.367   5.974
  217POPC   NC3 3146   1.860   6.507   3.913
  217POPC   PO4 3147   2.453   6.390   3.871
  217POPC   GL1 3148   2.248   6.189   4.239
  217POPC   GL2 3149   2.064   6.468   4.369
  217POPC   C1A 3150   2.095   6.148   4.733
  217POPC   D2A 3151   2.257   6.445   5.043
  217POPC   C3A 3152   2.147   6.574   5.467
  217POPC   C4A 3153   1.771   6.443   5.676
  217POPC   C1B 3154   1.830   6.596   4.758
  217POPC   C2B 3155   1.729   6.613   5.189
  217POPC   C3B 3156   1.763   6.927   5.519
  217POPC   C4B 3157   2.017   6.860   5.882
  218POPC   NC3 3158   0.517   3.355   3.970
  218POPC   PO4 3159   0.165   3.921   3.955
  218POPC   GL1 3160   0.411   3.760   4.308
  218POPC   GL2 3161   0.394   3.440   4.443
  218POPC   C1A 3162   0.626   3.823   4.697
  218POPC   D2A 3163   0.369   3.791   5.068
  218POPC   C3A 3164   0.503   3.688   5.472
  218POPC   C4A 3165   0.277   3.767   5.799
  218POPC   C1B 3166   0.371   3.208   4.776
  218POPC   C2B 3167   0.491   3.299   5.157
  218POPC   C3B 3168   0.284   3.188   5.480
  218POPC   C4B 3169   0.439   3.284   5.820
  219POPC   NC3 3170  10.247   7.117   4.026
  219POPC   PO4 3171  10.930   7.371   3.982
  219POPC   GL1 3172  10.812   7.158   4.315
  219POPC   GL2 3173  10.502   7.285   4.422
  219POPC   C1A 3174  10.835   7.041   4.726
  219POPC   D2A 3175  10.686   6.918   5.136
  219POPC   C3A 3176  10.669   7.135   5.517
  219POPC   C4A 3177  10.289   7.098   5.732
  219POPC   C1B 3178  10.622   7.664   4.661
  219POPC   C2B 3179  10.454   7.753   5.059
  219POPC   C3B 3180  10.303   7.463   5.338
  219POPC   C4B 3181  10.474   7.577   5.710
  220POPC   NC3 3182  10.633   4.477   3.962
  220POPC   PO4 3183  10.123   4.036   4.096
  220POPC   GL1 3184  10.254   4.363   4.350
  220POPC   GL2 3185  10.549   4.486   4.467
  220POPC   C1A 3186  10.205   4.303   4.781
  220POPC   D2A 3187  10.436   4.326   5.101
  220POPC   C3A 3188  10.183   4.279   5.453
  220POPC   C4A 3189  10.071   4.394   5.842
  220POPC   C1B 3190  10.694   4.119   4.655
  220POPC   C2B 3191  10.850   4.025   5.068
  220POPC   C3B 3192  10.797   4.286   5.439
  220POPC   C4B 3193  10.547   4.178   5.786
  221POPC   NC3 3194   5.028   8.177   3.867
  221POPC   PO4 3195   4.784   7.656   4.132
  221POPC   GL1 3196   4.942   7.927   4.458
  221POPC   GL2 3197   4.901   8.250   4.355
  221POPC   C1A 3198   4.852   8.086   4.887
  221POPC   D2A 3199   4.591   8.250   5.226
  221POPC   C3A 3200   4.581   8.006   5.607
  221POPC   C4A 3201   4.839   7.751   5.876
  221POPC   C1B 3202   5.193   8.407   4.663
  221POPC   C2B 3203   5.303   8.220   5.083
  221POPC   C3B 3204   5.066   8.179   5.490
  221POPC   C4B 3205   4.905   8.278   5.920
  222POPC   NC3 3206   1.313   4.323   3.898
  222POPC   PO4 3207   1.224   3.756   4.087
  222POPC   GL1 3208   1.058   4.019   4.403
  222POPC   GL2 3209   1.083   4.384   4.344
  222POPC   C1A 3210   1.076   4.013   4.862
  222POPC   D2A 3211   1.333   3.960   5.226
  222POPC   C3A 3212   1.292   4.204   5.654
  222POPC   C4A 3213   1.522   4.028   6.046
  222POPC   C1B 3214   1.026   4.530   4.762
  222POPC   C2B 3215   1.132   4.430   5.178
  222POPC   C3B 3216   0.880   4.527   5.518
  222POPC   C4B 3217   0.954   4.601   5.891
  223POPC   NC3 3218   2.552   8.351   3.992
  223POPC   PO4 3219   2.738   9.050   3.972
  223POPC   GL1 3220   2.759   8.748   4.321
  223POPC   GL2 3221   2.443   8.683   4.420
  223POPC   C1A 3222   2.848   8.771   4.795
  223POPC   D2A 3223   2.943   8.572   5.191
  223POPC   C3A 3224   2.808   8.662   5.583
  223POPC   C4A 3225   3.088   8.639   5.975
  223POPC   C1B 3226   2.520   9.100   4.625
  223POPC   C2B 3227   2.561   9.187   5.074
  223POPC   C3B 3228   2.655   9.176   5.523
  223POPC   C4B 3229   3.068   9.092   5.739
  224POPC   NC3 3230  10.227   0.406   3.938
  224POPC   PO4 3231  10.686   0.138   4.235
  224POPC   GL1 3232  10.326   0.267   4.456
  224POPC   GL2 3233  10.213   0.616   4.426
  224POPC   C1A 3234  10.208   0.286   4.877
  224POPC   D2A 3235  10.356   0.488   5.245
  224POPC   C3A 3236  10.438   0.242   5.614
  224POPC   C4A 3237  10.049   0.133   5.782
  224POPC   C1B 3238  10.542   0.665   4.761
  224POPC   C2B 3239  10.827   0.677   5.128
  224POPC   C3B 3240  10.646   0.766   5.551
  224POPC   C4B 3241  10.607   0.689   6.008
  225POPC   NC3 3242   2.230   3.018   4.035
  225POPC   PO4 3243   1.750   2.806   3.689
  225POPC   GL1 3244   1.766   2.649   4.167
  225POPC   GL2 3245   2.094   2.574   4.255
  225POPC   C1A 3246   1.692   2.755   4.645
  225POPC   D2A 3247   1.635   2.944   5.071
  225POPC   C3A 3248   1.787   2.697   5.425
  225POPC   C4A 3249   1.724   2.852   5.830
  225POPC   C1B 3250   2.204   2.798   4.646
  225POPC   C2B 3251   2.138   2.872   5.082
  225POPC   C3B 3252   2.349   2.792   5.451
  225POPC   C4B 3253   2.186   2.637   5.824
  226POPC   NC3 3254   6.909   7.903   3.912
  226POPC   PO4 3255   6.987   8.458   3.835
  226POPC   GL1 3256   7.052   8.361   4.297
  226POPC   GL2 3257   7.368   8.229   4.393
  226POPC   C1A 3258   7.051   8.335   4.791
  226POPC   D2A 3259   7.280   8.340   5.201
  226POPC   C3A 3260   7.095   8.319   5.605
  226POPC   C4A 3261   7.044   8.017   5.948
  226POPC   C1B 3262   7.575   8.390   4.786
  226POPC   C2B 3263   7.779   8.298   5.206
  226POPC   C3B 3264   7.593   8.197   5.611
  226POPC   C4B 3265   7.469   8.289   6.055
  227POPC   NC3 3266   1.318   0.290   4.068
  227POPC   PO4 3267   1.161   0.918   3.987
  227POPC   GL1 3268   1.136   0.707   4.400
  227POPC   GL2 3269   0.978   0.373   4.464
  227POPC   C1A 3270   1.047   0.715   4.842
  227POPC   D2A 3271   0.818   0.895   5.158
  227POPC   C3A 3272   1.054   0.738   5.507
  227POPC   C4A 3273   1.231   0.690   5.911
  227POPC   C1B 3274   1.384   0.349   4.736
  227POPC   C2B 3275   1.249   0.326   5.166
  227POPC   C3B 3276   1.397   0.317   5.565
  227POPC   C4B 3277   1.474  11.456   5.810
  228POPC   NC3 3278  10.868   7.819   3.898
  228POPC   PO4 3279  11.466   7.713   3.668
  228POPC   GL1 3280  11.373   7.556   4.185
  228POPC   GL2 3281  11.331   7.221   4.273
  228POPC   C1A 3282  11.100   7.474   4.642
  228POPC   D2A 3283  10.859   7.417   5.076
  228POPC   C3A 3284  11.003   7.572   5.500
  228POPC   C4A 3285  10.915   7.595   5.967
  228POPC   C1B 3286  11.350   7.032   4.678
  228POPC   C2B 3287  11.195   6.889   5.059
  228POPC   C3B 3288  11.176   7.072   5.461
  228POPC   C4B 3289  11.256   7.255   5.856
  229POPC   NC3 3290   4.401   2.575   3.919
  229POPC   PO4 3291   4.000   2.943   4.047
  229POPC   GL1 3292   4.029   2.676   4.423
  229POPC   GL2 3293   4.266   2.397   4.369
  229POPC   C1A 3294   3.882   2.752   4.849
  229POPC   D2A 3295   3.679   2.655   5.254
  229POPC   C3A 3296   3.915   2.740   5.628
  229POPC   C4A 3297   4.131   2.676   6.028
  229POPC   C1B 3298   4.334   2.510   4.788
  229POPC   C2B 3299   4.171   2.500   5.195
  229POPC   C3B 3300   4.334   2.434   5.589
  229POPC   C4B 3301   4.591   2.754   5.775
  230POPC   NC3 3302   4.829   9.922   4.033
  230POPC   PO4 3303   5.481  10.079   3.975
  230POPC   GL1 3304   5.400  10.278   4.346
  230POPC   GL2 3305   5.273  10.612   4.303
  230POPC   C1A 3306   5.239  10.275   4.749
  230POPC   D2A 3307   5.077  10.471   5.106
  230POPC   C3A 3308   5.116  10.146   5.396
  230POPC   C4A 3309   5.384  10.169   5.710
  230POPC   C1B 3310   4.905  10.683   4.595
  230POPC   C2B 3311   4.809  10.904   4.999
  230POPC   C3B 3312   4.753  10.748   5.402
  230POPC   C4B 3313   5.118  10.613   5.640
  231POPC   NC3 3314  10.505   2.695   4.035
  231POPC   PO4 3315  10.770   3.292   3.927
  231POPC   GL1 3316  10.802   3.043   4.315
  231POPC   GL2 3317  10.480   2.986   4.459
  231POPC   C1A 3318  10.959   2.941   4.732
  231POPC   D2A 3319  10.825   3.101   5.139
  231POPC   C3A 3320  10.817   2.868   5.525
  231POPC   C4A 3321  10.732   2.654   5.899
  231POPC   C1B 3322  10.546   2.592   4.700
  231POPC   C2B 3323  10.420   2.371   5.091
  231POPC   C3B 3324  10.415   2.517   5.522
  231POPC   C4B 3325  10.246   2.890   5.694
  232POPC   NC3 3326   7.258  10.824   4.042
  232POPC   PO4 3327   6.942  11.435   3.822
  232POPC   GL1 3328   7.021  11.252   4.270
  232POPC   GL2 3329   7.355  11.108   4.443
  232POPC   C1A 3330   6.943  11.234   4.738
  232POPC   D2A 3331   6.997  11.423   5.159
  232POPC   C3A 3332   7.037  11.163   5.548
  232POPC   C4A 3333   6.889  11.342   5.954
  232POPC   C1B 3334   7.377  10.920   4.867
  232POPC   C2B 3335   7.469  11.228   5.182
  232POPC   C3B 3336   7.519  11.363   5.584
  232POPC   C4B 3337   7.530  10.933   5.782
  233POPC   NC3 3338   1.549   3.701   3.775
  233POPC   PO4 3339   1.730   3.163   4.103
  233POPC   GL1 3340   1.658   3.559   4.300
  233POPC   GL2 3341   1.984   3.586   4.359
  233POPC   C1A 3342   1.560   3.793   4.685
  233POPC   D2A 3343   1.799   3.922   5.010
  233POPC   C3A 3344   1.780   3.801   5.411
  233POPC   C4A 3345   1.837   3.613   5.770
  233POPC   C1B 3346   1.973   3.324   4.740
  233POPC   C2B 3347   2.009   3.384   5.165
  233POPC   C3B 3348   1.993   3.167   5.534
  233POPC   C4B 3349   2.065   3.207   5.985
  234POPC   NC3 3350   8.998   1.894   3.888
  234POPC   PO4 3351   8.449   2.316   4.013
  234POPC   GL1 3352   8.826   2.184   4.266
  234POPC   GL2 3353   8.759   1.846   4.323
  234POPC   C1A 3354   9.035   2.101   4.691
  234POPC   D2A 3355   8.966   2.269   5.096
  234POPC   C3A 3356   9.053   1.992   5.420
  234POPC   C4A 3357   9.005   2.060   5.826
  234POPC   C1B 3358   8.542   2.007   4.657
  234POPC   C2B 3359   8.568   1.855   5.069
  234POPC   C3B 3360   8.321   1.919   5.422
  234POPC   C4B 3361   8.481   1.935   5.834
  235POPC   NC3 3362   9.596   0.216   3.593
  235POPC   PO4 3363   9.283   0.726   3.990
  235POPC   GL1 3364   9.419   0.407   4.299
  235POPC   GL2 3365   9.787   0.353   4.216
  235POPC   C1A 3366   9.247   0.317   4.717
  235POPC   D2A 3367   9.238   0.590   5.079
  235POPC   C3A 3368   9.317   0.315   5.368
  235POPC   C4A 3369   9.516   0.185   5.727
  235POPC   C1B 3370   9.773   0.482   4.658
  235POPC   C2B 3371   9.732   0.377   5.083
  235POPC   C3B 3372   9.829   0.531   5.491
  235POPC   C4B 3373  10.182   0.657   5.741
  236POPC   NC3 3374   8.845   0.943   4.014
  236POPC   PO4 3375   8.558   1.608   3.865
  236POPC   GL1 3376   8.640   1.361   4.228
  236POPC   GL2 3377   9.019   1.400   4.227
  236POPC   C1A 3378   8.568   1.480   4.679
  236POPC   D2A 3379   8.602   1.326   5.116
  236POPC   C3A 3380   8.707   1.589   5.497
  236POPC   C4A 3381   9.078   1.563   5.751
  236POPC   C1B 3382   8.976   1.163   4.627
  236POPC   C2B 3383   9.099   1.095   5.056
  236POPC   C3B 3384   8.942   1.139   5.465
  236POPC   C4B 3385   9.061   1.039   5.859
  237POPC   NC3 3386   0.264   7.377   3.909
  237POPC   PO4 3387   0.891   7.034   3.910
  237POPC   GL1 3388   0.672   7.130   4.345
  237POPC   GL2 3389   0.329   7.242   4.379
  237POPC   C1A 3390   0.607   7.333   4.792
  237POPC   D2A 3391   0.350   7.252   5.184
  237POPC   C3A 3392   0.478   7.256   5.653
  237POPC   C4A 3393   0.207   7.155   6.043
  237POPC   C1B 3394   0.115   7.461   4.708
  237POPC   C2B 3395  11.373   7.405   5.099
  237POPC   C3B 3396   0.033   7.504   5.530
  237POPC   C4B 3397   0.274   7.642   5.911
  238POPC   NC3 3398   5.541   1.980   3.980
  238POPC   PO4 3399   5.944   2.363   4.119
  238POPC   GL1 3400   5.838   2.007   4.388
  238POPC   GL2 3401   5.968   1.687   4.282
  238POPC   C1A 3402   5.507   1.894   4.695
  238POPC   D2A 3403   5.303   1.928   5.115
  238POPC   C3A 3404   5.557   1.930   5.491
  238POPC   C4A 3405   5.787   2.144   5.845
  238POPC   C1B 3406   6.067   1.738   4.759
  238POPC   C2B 3407   6.012   1.906   5.193
  238POPC   C3B 3408   6.221   2.082   5.556
  238POPC   C4B 3409   6.265   1.984   6.003
  239POPC   NC3 3410   0.684   6.673   4.115
  239POPC   PO4 3411   0.095   6.921   3.974
  239POPC   GL1 3412   0.224   6.742   4.332
  239POPC   GL2 3413   0.151   6.394   4.262
  239POPC   C1A 3414   0.329   6.885   4.748
  239POPC   D2A 3415   0.445   6.749   5.124
  239POPC   C3A 3416   0.315   6.793   5.543
  239POPC   C4A 3417   0.648   6.588   5.764
  239POPC   C1B 3418   0.373   6.375   4.669
  239POPC   C2B 3419   0.464   6.229   5.093
  239POPC   C3B 3420   0.313   6.286   5.502
  239POPC   C4B 3421   0.371   6.108   5.919
  240POPC   NC3 3422  10.321   9.653   3.952
  240POPC   PO4 3423  10.821   9.132   3.806
  240POPC   GL1 3424  10.495   9.254   4.196
  240POPC   GL2 3425  10.671   9.554   4.315
  240POPC   C1A 3426  10.432   9.298   4.688
  240POPC   D2A 3427  10.546   9.200   5.125
  240POPC   C3A 3428  10.336   9.417   5.407
  240POPC   C4A 3429  10.583   9.665   5.660
  240POPC   C1B 3430  10.373   9.804   4.581
  240POPC   C2B 3431  10.277   9.775   5.019
  240POPC   C3B 3432  10.184   9.903   5.462
  240POPC   C4B 3433  10.336   9.984   5.946
  241POPC   NC3 3434   4.864  11.145   3.865
  241POPC   PO4 3435   5.527  10.953   3.876
  241POPC   GL1 3436   5.318  11.127   4.245
  241POPC   GL2 3437   5.015  11.288   4.328
  241POPC   C1A 3438   5.249  11.040   4.689
  241POPC   D2A 3439   5.142  11.300   5.025
  241POPC   C3A 3440   5.193  11.091   5.407
  241POPC   C4A 3441   5.209  11.404   5.714
  241POPC   C1B 3442   4.738  11.312   4.699
  241POPC   C2B 3443   4.617  11.464   5.111
  241POPC   C3B 3444   4.546  11.320   5.523
  241POPC   C4B 3445   4.793  11.107   5.755
  242POPC   NC3 3446  11.251   6.009   3.572
  242POPC   PO4 3447  10.955   5.621   4.050
  242POPC   GL1 3448  11.112   5.733   4.430
  242POPC   GL2 3449  11.422   5.658   4.324
  242POPC   C1A 3450  11.209   5.567   4.852
  242POPC   D2A 3451  11.054   5.370   5.271
  242POPC   C3A 3452  11.040   5.709   5.592
  242POPC   C4A 3453  10.895   6.132   5.548
  242POPC   C1B 3454   0.001   6.006   4.611
  242POPC   C2B 3455  11.248   6.089   4.954
  242POPC   C3B 3456  11.373   6.048   5.370
  242POPC   C4B 3457  11.376   6.221   5.780
  243POPC   NC3 3458   8.091  11.100   3.872
  243POPC   PO4 3459   7.686  10.758   4.211
  243POPC   GL1 3460   7.951  11.055   4.379
  243POPC   GL2 3461   8.336  11.052   4.320
  243POPC   C1A 3462   7.827  11.139   4.781
  243POPC   D2A 3463   7.973  11.267   5.157
  243POPC   C3A 3464   7.950  11.087   5.555
  243POPC   C4A 3465   7.874  11.295   5.954
  243POPC   C1B 3466   8.344  11.181   4.745
  243POPC   C2B 3467   8.394  10.962   5.120
  243POPC   C3B 3468   8.449  11.185   5.468
  243POPC   C4B 3469   8.353  11.161   5.893
  244POPC   NC3 3470   2.292   8.992   4.037
  244POPC   PO4 3471   1.709   9.323   3.873
  244POPC   GL1 3472   1.626   9.161   4.317
  244POPC   GL2 3473   1.826   8.898   4.271
  244POPC   C1A 3474   1.626   9.055   4.804
  244POPC   D2A 3475   1.800   8.743   5.137
  244POPC   C3A 3476   1.688   8.728   5.612
  244POPC   C4A 3477   1.689   8.965   6.020
  244POPC   C1B 3478   1.984   8.745   4.634
  244POPC   C2B 3479   2.281   8.773   4.928
  244POPC   C3B 3480   2.274   8.844   5.371
  244POPC   C4B 3481   2.173   9.055   5.745
  245POPC   NC3 3482   4.333   0.492   3.839
  245POPC   PO4 3483   4.149  11.362   3.921
  245POPC   GL1 3484   4.169   0.195   4.265
  245POPC   GL2 3485   4.232   0.532   4.356
  245POPC   C1A 3486   4.349   0.204   4.712
  245POPC   D2A 3487   4.129   0.277   5.095
  245POPC   C3A 3488   4.363   0.292   5.449
  245POPC   C4A 3489   4.323   0.283   5.879
  245POPC   C1B 3490   4.227   0.718   4.797
  245POPC   C2B 3491   4.480   0.734   5.192
  245POPC   C3B 3492   4.525   0.727   5.655
  245POPC   C4B 3493   4.053   0.680   5.733
  246POPC   NC3 3494   8.718   9.599   3.885
  246POPC   PO4 3495   9.343   9.290   3.952
  246POPC   GL1 3496   9.062   9.478   4.320
  246POPC   GL2 3497   8.791   9.716   4.367
  246POPC   C1A 3498   8.936   9.295   4.756
  246POPC   D2A 3499   8.802   9.172   5.216
  246POPC   C3A 3500   9.064   9.349   5.565
  246POPC   C4A 3501   9.114   9.173   6.013
  246POPC   C1B 3502   9.036   9.812   4.725
  246POPC   C2B 3503   8.914   9.670   5.142
  246POPC   C3B 3504   8.856   9.862   5.532
  246POPC   C4B 3505   9.151   9.988   5.831
  247POPC   NC3 3506   2.244   0.523   3.915
  247POPC   PO4 3507   1.746   0.109   4.057
  247POPC   GL1 3508   1.983   0.246   4.365
  247POPC   GL2 3509   2.101   0.594   4.391
  247POPC   C1A 3510   1.906   0.190   4.763
  247POPC   D2A 3511   1.764   0.143   5.129
  247POPC   C3A 3512   2.140   0.083   5.411
  247POPC   C4A 3513   2.022   0.057   5.819
  247POPC   C1B 3514   1.841   0.699   4.718
  247POPC   C2B 3515   1.634   0.644   5.097
  247POPC   C3B 3516   1.851   0.516   5.449
  247POPC   C4B 3517   2.119   0.566   5.746
  248POPC   NC3 3518  10.440   6.178   3.754
  248POPC   PO4 3519  10.603   6.797   3.982
  248POPC   GL1 3520  10.543   6.723   4.364
  248POPC   GL2 3521  10.413   6.398   4.253
  248POPC   C1A 3522  10.379   6.816   4.749
  248POPC   D2A 3523  10.213   6.554   5.059
  248POPC   C3A 3524  10.309   6.697   5.429
  248POPC   C4A 3525  10.036   6.603   5.754
  248POPC   C1B 3526  10.447   6.295   4.683
  248POPC   C2B 3527  10.345   6.029   5.014
  248POPC   C3B 3528  10.342   6.167   5.440
  248POPC   C4B 3529  10.498   6.370   5.773
  249POPC   NC3 3530   0.456   1.992   3.780
  249POPC   PO4 3531   0.091   2.283   4.175
  249POPC   GL1 3532   0.235   1.946   4.346
  249POPC   GL2 3533   0.560   2.007   4.284
  249POPC   C1A 3534   0.201   1.811   4.757
  249POPC   D2A 3535   0.381   1.940   5.121
  249POPC   C3A 3536   0.188   1.838   5.457
  249POPC   C4A 3537   0.024   2.211   5.640
  249POPC   C1B 3538   0.640   2.089   4.700
  249POPC   C2B 3539   0.655   2.351   5.057
  249POPC   C3B 3540   0.507   2.316   5.492
  249POPC   C4B 3541   0.498   1.988   5.815
  250POPC   NC3 3542   0.497   8.876   3.894
  250POPC   PO4 3543  11.441   8.451   3.794
  250POPC   GL1 3544   0.228   8.550   4.205
  250POPC   GL2 3545   0.571   8.687   4.338
  250POPC   C1A 3546   0.175   8.840   4.606
  250POPC   D2A 3547   0.322   8.821   5.051
  250POPC   C3A 3548   0.203   9.138   5.398
  250POPC   C4A 3549   0.078   9.121   5.849
  250POPC   C1B 3550   0.813   8.729   4.678
  250POPC   C2B 3551   0.879   8.751   5.086
  250POPC   C3B 3552   0.700   8.994   5.367
  250POPC   C4B 3553   0.486   8.875   5.742
  251POPC   NC3 3554  11.207  11.256   3.688
  251POPC   PO4 3555  10.738   0.181   3.724
  251POPC   GL1 3556  11.152   0.044   4.108
  251POPC   GL2 3557  11.275  11.226   4.196
  251POPC   C1A 3558  11.199   0.023   4.614
  251POPC   D2A 3559  11.038  11.281   5.013
  251POPC   C3A 3560  11.191  11.345   5.448
  251POPC   C4A 3561  11.126  11.498   5.894
  251POPC   C1B 3562  11.225  11.015   4.630
  251POPC   C2B 3563  11.330  10.825   5.026
  251POPC   C3B 3564  11.380  10.841   5.441
  251POPC   C4B 3565  11.171  10.980   5.805
  252POPC   NC3 3566   4.152   0.998   4.190
  252POPC   PO4 3567   4.610   1.392   3.820
  252POPC   GL1 3568   4.629   1.225   4.221
  252POPC   GL2 3569   4.377   1.417   4.360
  252POPC   C1A 3570   4.695   1.209   4.687
  252POPC   D2A 3571   4.573   1.213   5.106
  252POPC   C3A 3572   4.609   1.434   5.472
  252POPC   C4A 3573   4.752   1.220   5.816
  252POPC   C1B 3574   4.179   1.309   4.769
  252POPC   C2B 3575   4.100   1.355   5.202
  252POPC   C3B 3576   4.230   1.121   5.529
  252POPC   C4B 3577   4.160   1.465   5.762
  253POPC   NC3 3578   5.632  10.507   3.924
  253POPC   PO4 3579   6.101  10.077   3.906
  253POPC   GL1 3580   5.905  10.210   4.302
  253POPC   GL2 3581   5.932  10.567   4.343
  253POPC   C1A 3582   5.763  10.113   4.758
  253POPC   D2A 3583   5.566   9.966   5.174
  253POPC   C3A 3584   5.816   9.962   5.526
  253POPC   C4A 3585   5.881  10.269   5.787
  253POPC   C1B 3586   5.632  10.595   4.673
  253POPC   C2B 3587   5.589  10.459   5.094
  253POPC   C3B 3588   5.615  10.585   5.489
  253POPC   C4B 3589   5.943  10.756   5.770
  254POPC   NC3 3590   1.853  10.612   3.604
  254POPC   PO4 3591   2.432  10.911   3.854
  254POPC   GL1 3592   2.344  10.828   4.316
  254POPC   GL2 3593   2.139  10.536   4.410
  254POPC   C1A 3594   2.283  10.836   4.796
  254POPC   D2A 3595   2.039  10.641   5.105
  254POPC   C3A 3596   2.017  10.821   5.494
  254POPC   C4A 3597   2.218  10.682   5.865
  254POPC   C1B 3598   2.175  10.236   4.784
  254POPC   C2B 3599   2.194  10.111   5.219
  254POPC   C3B 3600   2.002  10.331   5.532
  254POPC   C4B 3601   1.647  10.531   5.691
  255POPC   NC3 3602   9.727  11.068   3.775
  255POPC   PO4 3603   9.212  11.464   3.658
  255POPC   GL1 3604   9.511  11.426   4.096
  255POPC   GL2 3605   9.659  11.100   4.275
  255POPC   C1A 3606   9.591  11.462   4.618
  255POPC   D2A 3607   9.433  11.382   5.107
  255POPC   C3A 3608   9.668  11.255   5.546
  255POPC   C4A 3609   9.739  11.371   6.069
  255POPC   C1B 3610   9.646  10.929   4.707
  255POPC   C2B 3611   9.391  10.837   5.078
  255POPC   C3B 3612   9.236  10.918   5.485
  255POPC   C4B 3613   9.488  10.904   5.871
  256POPC   NC3 3614   9.163   4.833   4.034
  256POPC   PO4 3615   8.581   5.037   3.883
  256POPC   GL1 3616   8.769   5.146   4.356
  256POPC   GL2 3617   9.112   5.129   4.453
  256POPC   C1A 3618   8.789   4.987   4.824
  256POPC   D2A 3619   8.646   4.915   5.255
  256POPC   C3A 3620   8.754   4.930   5.682
  256POPC   C4A 3621   8.425   4.908   6.001
  256POPC   C1B 3622   9.131   5.349   4.832
  256POPC   C2B 3623   9.116   5.229   5.264
  256POPC   C3B 3624   9.153   5.253   5.682
  256POPC   C4B 3625   9.221   4.961   5.992
  257POPC   NC3 3626   2.913   3.746   3.973
  257POPC   PO4 3627   2.678   3.156   3.959
  257POPC   GL1 3628   2.686   3.362   4.312
  257POPC   GL2 3629   2.393   3.265   4.453
  257POPC   C1A 3630   2.794   3.542   4.701
  257POPC   D2A 3631   2.989   3.395   5.073
  257POPC   C3A 3632   2.879   3.528   5.496
  257POPC   C4A 3633   3.121   3.422   5.856
  257POPC   C1B 3634   2.467   3.194   4.880
  257POPC   C2B 3635   2.483   3.263   5.299
  257POPC   C3B 3636   2.349   3.523   5.638
  257POPC   C4B 3637   2.614   3.495   5.964
  258POPC   NC3 3638   4.168  10.644   4.061
  258POPC   PO4 3639   4.394  10.020   4.117
  258POPC   GL1 3640   4.140  10.200   4.449
  258POPC   GL2 3641   3.843  10.323   4.321
  258POPC   C1A 3642   4.224  10.170   4.915
  258POPC   D2A 3643   4.625  10.210   5.177
  258POPC   C3A 3644   4.673  10.283   5.626
  258POPC   C4A 3645   4.692  10.626   5.908
  258POPC   C1B 3646   3.931  10.598   4.724
  258POPC   C2B 3647   3.884  10.502   5.163
  258POPC   C3B 3648   4.139  10.289   5.441
  258POPC   C4B 3649   4.227  10.424   5.849
  259POPC   NC3 3650   5.057   0.643   3.956
  259POPC   PO4 3651   5.255   0.007   3.780
  259POPC   GL1 3652   5.221   0.240   4.216
  259POPC   GL2 3653   4.850   0.283   4.325
  259POPC   C1A 3654   5.276   0.491   4.611
  259POPC   D2A 3655   5.314   0.339   5.047
  259POPC   C3A 3656   5.302   0.505   5.486
  259POPC   C4A 3657   5.384   0.345   5.920
  259POPC   C1B 3658   4.841   0.315   4.798
  259POPC   C2B 3659   4.852   0.407   5.256
  259POPC   C3B 3660   4.839   0.284   5.691
  259POPC   C4B 3661   4.836   0.466   6.101
  260POPC   NC3 3662   1.873   7.964   4.013
  260POPC   PO4 3663   2.111   8.572   3.999
  260POPC   GL1 3664   2.121   8.301   4.347
  260POPC   GL2 3665   1.785   8.311   4.419
  260POPC   C1A 3666   2.092   8.287   4.819
  260POPC   D2A 3667   1.766   8.226   5.127
  260POPC   C3A 3668   2.014   8.356   5.467
  260POPC   C4A 3669   2.199   8.557   5.803
  260POPC   C1B 3670   1.818   7.896   4.664
  260POPC   C2B 3671   1.726   7.702   5.083
  260POPC   C3B 3672   1.782   7.854   5.510
  260POPC   C4B 3673   1.579   8.224   5.682
  261POPC   NC3 3674   8.813   2.667   4.085
  261POPC   PO4 3675   9.324   3.019   4.131
  261POPC   GL1 3676   9.138   2.858   4.485
  261POPC   GL2 3677   9.127   2.545   4.476
  261POPC   C1A 3678   9.021   2.864   4.924
  261POPC   D2A 3679   8.939   2.733   5.356
  261POPC   C3A 3680   9.118   3.007   5.682
  261POPC   C4A 3681   9.162   3.161   6.060
  261POPC   C1B 3682   8.700   2.504   4.712
  261POPC   C2B 3683   8.463   2.350   5.095
  261POPC   C3B 3684   8.635   2.345   5.533
  261POPC   C4B 3685   8.610   2.757   5.768
  262POPC   NC3 3686   3.261  10.866   4.011
  262POPC   PO4 3687   3.249   0.002   3.960
  262POPC   GL1 3688   3.172  11.318   4.338
  262POPC   GL2 3689   3.489  11.181   4.378
  262POPC   C1A 3690   3.188  11.326   4.798
  262POPC   D2A 3691   3.274  11.147   5.187
  262POPC   C3A 3692   3.207  11.366   5.561
  262POPC   C4A 3693   3.314  11.426   5.999
  262POPC   C1B 3694   3.705  11.058   4.755
  262POPC   C2B 3695   3.757  11.005   5.183
  262POPC   C3B 3696   3.647  11.086   5.579
  262POPC   C4B 3697   3.812  10.705   5.709
  263POPC   NC3 3698  11.229   2.114   3.967
  263POPC   PO4 3699   0.152   1.626   3.915
  263POPC   GL1 3700  11.280   1.713   4.286
  263POPC   GL2 3701  10.951   1.976   4.341
  263POPC   C1A 3702  11.206   1.890   4.745
  263POPC   D2A 3703  11.352   2.077   5.122
  263POPC   C3A 3704  11.177   1.876   5.492
  263POPC   C4A 3705  11.407   1.798   5.904
  263POPC   C1B 3706  10.745   2.128   4.715
  263POPC   C2B 3707  10.839   2.054   5.116
  263POPC   C3B 3708  10.703   2.105   5.502
  263POPC   C4B 3709  10.949   2.196   5.839
  264POPC   NC3 3710   4.276   1.717   3.760
  264POPC   PO4 3711   3.833   1.327   4.114
  264POPC   GL1 3712   3.927   1.659   4.440
  264POPC   GL2 3713   4.201   1.878   4.264
  264POPC   C1A 3714   3.925   1.734   4.897
  264POPC   D2A 3715   4.022   2.027   5.216
  264POPC   C3A 3716   4.171   1.943   5.591
  264POPC   C4A 3717   3.911   1.871   5.949
  264POPC   C1B 3718   4.314   1.986   4.711
  264POPC   C2B 3719   4.447   1.766   5.113
  264POPC   C3B 3720   4.739   1.920   5.467
  264POPC   C4B 3721   4.751   2.241   5.823
  265POPC   NC3 3722   1.141   6.643   3.771
  265POPC   PO4 3723   1.513   6.451   4.204
  265POPC   GL1 3724   1.315   6.424   4.538
  265POPC   GL2 3725   0.997   6.407   4.433
  265POPC   C1A 3726   1.320   6.636   4.899
  265POPC   D2A 3727   1.289   6.870   5.257
  265POPC   C3A 3728   1.322   6.671   5.642
  265POPC   C4A 3729   1.532   6.899   5.991
  265POPC   C1B 3730   0.831   6.507   4.834
  265POPC   C2B 3731   0.873   6.550   5.277
  265POPC   C3B 3732   0.828   6.199   5.508
  265POPC   C4B 3733   1.040   6.278   5.870
  266POPC   NC3 3734   1.408   6.090   3.950
  266POPC   PO4 3735   1.159   5.465   3.972
  266POPC   GL1 3736   1.334   5.688   4.304
  266POPC   GL2 3737   1.066   5.913   4.300
  266POPC   C1A 3738   1.421   5.559   4.727
  266POPC   D2A 3739   1.243   5.666   5.130
  266POPC   C3A 3740   1.521   5.658   5.453
  266POPC   C4A 3741   1.511   5.485   5.819
  266POPC   C1B 3742   1.135   5.986   4.728
  266POPC   C2B 3743   1.175   6.193   5.098
  266POPC   C3B 3744   1.343   6.123   5.496
  266POPC   C4B 3745   1.060   5.761   5.635
  267POPC   NC3 3746   7.256   2.207   3.938
  267POPC   PO4 3747   7.090   1.586   3.670
  267POPC   GL1 3748   7.193   1.737   4.111
  267POPC   GL2 3749   7.553   1.855   4.190
  267POPC   C1A 3750   7.137   1.914   4.568
  267POPC   D2A 3751   7.145   1.996   5.048
  267POPC   C3A 3752   6.862   1.924   5.416
  267POPC   C4A 3753   7.065   1.791   5.794
  267POPC   C1B 3754   7.644   1.943   4.646
  267POPC   C2B 3755   7.658   1.856   5.090
  267POPC   C3B 3756   7.464   1.976   5.478
  267POPC   C4B 3757   7.162   2.265   5.619
  268POPC   NC3 3758  10.280   8.224   3.658
  268POPC   PO4 3759  10.050   7.667   3.928
  268POPC   GL1 3760  10.307   7.778   4.289
  268POPC   GL2 3761  10.441   8.126   4.295
  268POPC   C1A 3762  10.157   7.934   4.703
  268POPC   D2A 3763   9.921   8.100   5.047
  268POPC   C3A 3764  10.103   7.946   5.402
  268POPC   C4A 3765  10.143   7.940   5.795
  268POPC   C1B 3766  10.436   8.352   4.717
  268POPC   C2B 3767  10.322   8.366   5.172
  268POPC   C3B 3768  10.545   8.214   5.555
  268POPC   C4B 3769  10.584   8.377   5.971
  269POPC   NC3 3770   2.879   9.499   3.876
  269POPC   PO4 3771   2.286   9.806   3.890
  269POPC   GL1 3772   2.525   9.696   4.270
  269POPC   GL2 3773   2.833   9.578   4.390
  269POPC   C1A 3774   2.470   9.588   4.731
  269POPC   D2A 3775   2.754   9.664   5.085
  269POPC   C3A 3776   2.516   9.737   5.426
  269POPC   C4A 3777   2.345   9.539   5.758
  269POPC   C1B 3778   2.985   9.324   4.758
  269POPC   C2B 3779   3.064   9.235   5.213
  269POPC   C3B 3780   3.016   9.564   5.546
  269POPC   C4B 3781   2.802   9.802   5.852
  270POPC   NC3 3782   3.879  11.017   3.752
  270POPC   PO4 3783   4.539  10.811   3.827
  270POPC   GL1 3784   4.569  10.963   4.260
  270POPC   GL2 3785   4.509  11.311   4.262
  270POPC   C1A 3786   4.412  10.867   4.678
  270POPC   D2A 3787   4.361  10.648   5.063
  270POPC   C3A 3788   4.218  10.868   5.414
  270POPC   C4A 3789   4.291  10.938   5.834
  270POPC   C1B 3790   4.141  11.272   4.566
  270POPC   C2B 3791   4.173  11.236   5.012
  270POPC   C3B 3792   4.050  11.374   5.428
  270POPC   C4B 3793   3.969  11.357   5.871
  271POPC   NC3 3794   2.861   6.585   3.888
  271POPC   PO4 3795   2.929   7.146   4.001
  271POPC   GL1 3796   2.860   6.817   4.375
  271POPC   GL2 3797   2.602   6.568   4.329
  271POPC   C1A 3798   2.897   6.612   4.832
  271POPC   D2A 3799   3.032   6.438   5.266
  271POPC   C3A 3800   2.859   6.644   5.644
  271POPC   C4A 3801   2.476   6.622   5.913
  271POPC   C1B 3802   2.569   6.276   4.627
  271POPC   C2B 3803   2.680   6.163   5.023
  271POPC   C3B 3804   2.559   6.280   5.431
  271POPC   C4B 3805   2.253   6.170   5.734
  272POPC   NC3 3806   6.937   3.102   4.120
  272POPC   PO4 3807   6.812   2.424   3.990
  272POPC   GL1 3808   7.087   2.590   4.340
  272POPC   GL2 3809   7.461   2.523   4.296
  272POPC   C1A 3810   7.072   2.805   4.776
  272POPC   D2A 3811   7.278   2.878   5.199
  272POPC   C3A 3812   7.108   2.789   5.639
  272POPC   C4A 3813   7.156   2.982   6.085
  272POPC   C1B 3814   7.404   2.396   4.730
  272POPC   C2B 3815   7.443   2.389   5.170
  272POPC   C3B 3816   7.588   2.519   5.563
  272POPC   C4B 3817   7.769   2.438   5.966
  273POPC   NC3 3818   1.946   9.760   3.595
  273POPC   PO4 3819   1.966  10.108   4.196
  273POPC   GL1 3820   2.050   9.749   4.421
  273POPC   GL2 3821   2.080   9.439   4.202
  273POPC   C1A 3822   1.994   9.738   4.824
  273POPC   D2A 3823   1.757   9.815   5.114
  273POPC   C3A 3824   1.977   9.661   5.393
  273POPC   C4A 3825   2.004   9.878   5.711
  273POPC   C1B 3826   2.044   9.268   4.610
  273POPC   C2B 3827   2.044   9.236   5.054
  273POPC   C3B 3828   1.794   9.188   5.416
  273POPC   C4B 3829   1.813   9.412   5.813
  274POPC   NC3 3830   7.256   8.840   3.870
  274POPC   PO4 3831   7.054   9.409   4.137
  274POPC   GL1 3832   7.304   9.125   4.436
  274POPC   GL2 3833   7.426   8.767   4.341
  274POPC   C1A 3834   7.307   9.008   4.888
  274POPC   D2A 3835   7.316   8.845   5.304
  274POPC   C3A 3836   7.111   9.068   5.677
  274POPC   C4A 3837   6.815   9.049   6.060
  274POPC   C1B 3838   7.714   8.850   4.641
  274POPC   C2B 3839   7.774   8.788   5.048
  274POPC   C3B 3840   7.805   8.765   5.468
  274POPC   C4B 3841   7.477   8.684   5.752
  275POPC   NC3 3842   2.774   1.234   3.722
  275POPC   PO4 3843   2.671   1.734   3.974
  275POPC   GL1 3844   2.730   1.493   4.319
  275POPC   GL2 3845   2.890   1.198   4.232
  275POPC   C1A 3846   2.521   1.409   4.709
  275POPC   D2A 3847   2.335   1.326   5.092
  275POPC   C3A 3848   2.322   1.537   5.453
  275POPC   C4A 3849   2.373   1.403   5.834
  275POPC   C1B 3850   3.010   1.217   4.674
  275POPC   C2B 3851   2.810   1.119   5.083
  275POPC   C3B 3852   2.732   1.223   5.523
  275POPC   C4B 3853   2.795   1.164   5.989
  276POPC   NC3 3854   3.744   2.558   4.029
  276POPC   PO4 3855   3.198   2.469   3.683
  276POPC   GL1 3856   3.164   2.617   4.206
  276POPC   GL2 3857   3.496   2.577   4.470
  276POPC   C1A 3858   3.049   2.521   4.678
  276POPC   D2A 3859   3.236   2.447   5.125
  276POPC   C3A 3860   3.243   2.644   5.561
  276POPC   C4A 3861   3.501   2.684   5.959
  276POPC   C1B 3862   3.390   2.873   4.835
  276POPC   C2B 3863   3.429   3.124   5.224
  276POPC   C3B 3864   3.512   3.100   5.671
  276POPC   C4B 3865   3.891   3.131   5.969
  277POPC   NC3 3866   9.030  11.046   3.534
  277POPC   PO4 3867   9.253  10.830   4.142
  277POPC   GL1 3868   8.898  11.024   4.334
  277POPC   GL2 3869   9.125  11.317   4.402
  277POPC   C1A 3870   8.697  10.814   4.705
  277POPC   D2A 3871   8.879  10.694   5.116
  277POPC   C3A 3872   8.694  10.740   5.521
  277POPC   C4A 3873   8.835  11.059   5.772
  277POPC   C1B 3874   9.087  11.141   4.802
  277POPC   C2B 3875   8.891  11.208   5.191
  277POPC   C3B 3876   9.080  11.411   5.521
  277POPC   C4B 3877   9.021   0.257   5.799
  278POPC   NC3 3878   6.336   2.584   4.048
  278POPC   PO4 3879   6.503   3.192   4.123
  278POPC   GL1 3880   6.620   2.811   4.431
  278POPC   GL2 3881   6.591   2.427   4.452
  278POPC   C1A 3882   6.576   2.719   4.891
  278POPC   D2A 3883   6.760   2.934   5.245
  278POPC   C3A 3884   6.573   2.930   5.655
  278POPC   C4A 3885   6.642   3.133   6.054
  278POPC   C1B 3886   6.889   2.333   4.762
  278POPC   C2B 3887   6.946   2.464   5.186
  278POPC   C3B 3888   6.703   2.455   5.547
  278POPC   C4B 3889   6.351   2.477   5.844
  279POPC   NC3 3890   0.391   2.804   3.730
  279POPC   PO4 3891   0.126   3.107   4.187
  279POPC   GL1 3892   0.492   2.894   4.371
  279POPC   GL2 3893   0.473   2.509   4.426
  279POPC   C1A 3894   0.659   2.796   4.793
  279POPC   D2A 3895   0.524   2.807   5.201
  279POPC   C3A 3896   0.771   2.996   5.489
  279POPC   C4A 3897   0.679   2.770   5.814
  279POPC   C1B 3898   0.205   2.354   4.799
  279POPC   C2B 3899   0.113   2.497   5.197
  279POPC   C3B 3900   0.175   2.705   5.575
  279POPC   C4B 3901   0.251   2.517   5.965
  280POPC   NC3 3902  11.097   3.607   3.796
  280POPC   PO4 3903  11.494   3.128   3.648
  280POPC   GL1 3904  11.439   3.529   4.126
  280POPC   GL2 3905  11.127   3.478   4.292
  280POPC   C1A 3906  11.494   3.633   4.636
  280POPC   D2A 3907  11.496   3.378   5.047
  280POPC   C3A 3908  11.500   3.592   5.411
  280POPC   C4A 3909  11.356   3.509   5.832
  280POPC   C1B 3910  11.001   3.702   4.637
  280POPC   C2B 3911  11.037   3.547   5.020
  280POPC   C3B 3912  11.001   3.503   5.427
  280POPC   C4B 3913  10.759   3.776   5.597
  281POPC   NC3 3914   3.338  10.197   4.156
  281POPC   PO4 3915   3.722  10.777   4.126
  281POPC   GL1 3916   3.433  10.655   4.426
  281POPC   GL2 3917   3.422  10.370   4.617
  281POPC   C1A 3918   3.252  10.830   4.752
  281POPC   D2A 3919   3.387  10.635   5.102
  281POPC   C3A 3920   3.280  10.738   5.516
  281POPC   C4A 3921   3.365  10.536   5.928
  281POPC   C1B 3922   3.722  10.151   4.799
  281POPC   C2B 3923   3.516  10.134   5.123
  281POPC   C3B 3924   3.531  10.304   5.488
  281POPC   C4B 3925   3.778  10.189   5.801
  282POPC   NC3 3926   3.720   0.037   4.017
  282POPC   PO4 3927   3.924   0.675   3.942
  282POPC   GL1 3928   3.720   0.517   4.292
  282POPC   GL2 3929   3.390   0.415   4.250
  282POPC   C1A 3930   3.831   0.282   4.669
  282POPC   D2A 3931   3.681  11.497   5.016
  282POPC   C3A 3932   3.616   0.151   5.444
  282POPC   C4A 3933   3.717   0.299   5.859
  282POPC   C1B 3934   3.314   0.301   4.688
  282POPC   C2B 3935   3.513   0.507   5.057
  282POPC   C3B 3936   3.441   0.660   5.492
  282POPC   C4B 3937   3.203   0.366   5.754
  283POPC   NC3 3938   4.089   9.649   3.999
  283POPC   PO4 3939   4.789   9.388   3.987
  283POPC   GL1 3940   4.507   9.484   4.379
  283POPC   GL2 3941   4.210   9.691   4.472
  283POPC   C1A 3942   4.478   9.551   4.860
  283POPC   D2A 3943   4.710   9.452   5.249
  283POPC   C3A 3944   4.517   9.463   5.675
  283POPC   C4A 3945   4.615   9.634   6.123
  283POPC   C1B 3946   3.964   9.700   4.822
  283POPC   C2B 3947   3.912   9.842   5.206
  283POPC   C3B 3948   3.996   9.741   5.597
  283POPC   C4B 3949   4.330   9.924   5.792
  284POPC   NC3 3950  10.371  10.311   3.881
  284POPC   PO4 3951  10.059  10.829   3.991
  284POPC   GL1 3952  10.405  10.686   4.275
  284POPC   GL2 3953  10.535  10.361   4.371
  284POPC   C1A 3954  10.333  10.728   4.712
  284POPC   D2A 3955  10.414  10.522   5.083
  284POPC   C3A 3956  10.339  10.791   5.352
  284POPC   C4A 3957  10.445  10.787   5.723
  284POPC   C1B 3958  10.634  10.199   4.776
  284POPC   C2B 3959  10.639  10.076   5.214
  284POPC   C3B 3960  10.507  10.293   5.560
  284POPC   C4B 3961  10.821  10.213   5.801
  285POPC   NC3 3962   0.968   5.030   3.959
  285POPC   PO4 3963   0.388   5.360   4.003
  285POPC   GL1 3964   0.753   5.347   4.339
  285POPC   GL2 3965   1.116   5.184   4.411
  285POPC   C1A 3966   0.900   5.490   4.739
  285POPC   D2A 3967   1.158   5.183   4.976
  285POPC   C3A 3968   1.208   5.226   5.429
  285POPC   C4A 3969   0.895   5.101   5.710
  285POPC   C1B 3970   1.385   4.866   4.629
  285POPC   C2B 3971   1.473   4.782   5.084
  285POPC   C3B 3972   1.363   4.731   5.535
  285POPC   C4B 3973   1.511   4.979   5.866
  286POPC   NC3 3974   7.202   9.826   4.032
  286POPC   PO4 3975   7.912   9.875   3.919
  286POPC   GL1 3976   7.693   9.979   4.353
  286POPC   GL2 3977   7.473   9.685   4.423
  286POPC   C1A 3978   7.685   9.866   4.843
  286POPC   D2A 3979   7.342   9.888   5.169
  286POPC   C3A 3980   7.489  10.015   5.586
  286POPC   C4A 3981   7.500   9.713   5.882
  286POPC   C1B 3982   7.281   9.518   4.816
  286POPC   C2B 3983   7.283   9.382   5.266
  286POPC   C3B 3984   7.095   9.609   5.576
  286POPC   C4B 3985   6.707   9.496   5.784
  287POPC   NC3 3986   7.429   0.274   3.845
  287POPC   PO4 3987   7.675   0.908   3.874
  287POPC   GL1 3988   7.717   0.689   4.271
  287POPC   GL2 3989   7.414   0.504   4.309
  287POPC   C1A 3990   7.733   0.498   4.730
  287POPC   D2A 3991   7.757   0.276   5.198
  287POPC   C3A 3992   7.672   0.602   5.568
  287POPC   C4A 3993   7.719   0.679   6.073
  287POPC   C1B 3994   7.209   0.603   4.681
  287POPC   C2B 3995   7.366   0.592   5.090
  287POPC   C3B 3996   7.265   0.319   5.412
  287POPC   C4B 3997   7.104   0.634   5.668
  288POPC   NC3 3998   5.212   9.142   4.053
  288POPC   PO4 3999   4.878   8.611   3.853
  288POPC   GL1 4000   4.813   8.735   4.302
  288POPC   GL2 4001   4.823   9.063   4.371
  288POPC   C1A 4002   4.682   8.557   4.730
  288POPC   D2A 4003   4.958   8.578   5.111
  288POPC   C3A 4004   4.890   8.670   5.551
  288POPC   C4A 4005   5.032   8.771   5.989
  288POPC   C1B 4006   5.043   8.913   4.737
  288POPC   C2B 4007   5.059   9.074   5.178
  288POPC   C3B 4008   5.000   9.190   5.608
  288POPC   C4B 4009   5.387   9.129   5.833
  289POPC   NC3 4010   5.055   1.252   3.900
  289POPC   PO4 4011   4.629   0.723   4.090
  289POPC   GL1 4012   4.880   0.789   4.430
  289POPC   GL2 4013   5.094   1.049   4.364
  289POPC   C1A 4014   4.965   0.810   4.859
  289POPC   D2A 4015   5.077   1.102   5.102
  289POPC   C3A 4016   4.956   0.940   5.442
  289POPC   C4A 4017   5.077   0.807   5.830
  289POPC   C1B 4018   5.151   1.414   4.678
  289POPC   C2B 4019   4.940   1.580   5.072
  289POPC   C3B 4020   5.107   1.473   5.491
  289POPC   C4B 4021   5.436   1.509   5.767
  290POPC   NC3 4022   4.358   7.514   4.168
  290POPC   PO4 4023   3.792   7.594   4.235
  290POPC   GL1 4024   4.054   7.418   4.568
  290POPC   GL2 4025   4.252   7.123   4.488
  290POPC   C1A 4026   4.116   7.459   4.992
  290POPC   D2A 4027   4.275   7.744   5.283
  290POPC   C3A 4028   4.073   7.626   5.649
  290POPC   C4A 4029   3.900   7.240   5.819
  290POPC   C1B 4030   4.398   7.027   4.899
  290POPC   C2B 4031   4.562   7.303   5.208
  290POPC   C3B 4032   4.430   7.259   5.623
  290POPC   C4B 4033   4.255   6.871   5.808
  291POPC   NC3 4034   0.438   0.564   3.863
  291POPC   PO4 4035   0.071   0.001   3.801
  291POPC   GL1 4036   0.160   0.117   4.296
  291POPC   GL2 4037   0.358   0.441   4.342
  291POPC   C1A 4038   0.527   0.110   4.655
  291POPC   D2A 4039   0.753   0.285   5.021
  291POPC   C3A 4040   0.655   0.117   5.448
  291POPC   C4A 4041   0.933   0.239   5.769
  291POPC   C1B 4042   0.561   0.648   4.691
  291POPC   C2B 4043   0.353   0.653   5.111
  291POPC   C3B 4044   0.406   0.558   5.566
  291POPC   C4B 4045   0.361   0.637   6.001
  292POPC   NC3 4046  10.358   2.270   3.501
  292POPC   PO4 4047  10.178   1.707   3.894
  292POPC   GL1 4048  10.180   2.031   4.218
  292POPC   GL2 4049  10.482   2.214   4.279
  292POPC   C1A 4050  10.184   2.063   4.680
  292POPC   D2A 4051  10.344   1.868   5.047
  292POPC   C3A 4052  10.137   2.030   5.397
  292POPC   C4A 4053  10.142   2.166   5.779
  292POPC   C1B 4054  10.521   1.742   4.481
  292POPC   C2B 4055  10.743   1.615   4.870
  292POPC   C3B 4056  10.732   1.596   5.350
  292POPC   C4B 4057  10.437   1.725   5.714
  293POPC   NC3 4058   1.368   1.701   4.069
  293POPC   PO4 4059   1.478   2.246   3.821
  293POPC   GL1 4060   1.400   2.225   4.284
  293POPC   GL2 4061   1.065   2.121   4.273
  293POPC   C1A 4062   1.480   2.208   4.757
  293POPC   D2A 4063   1.679   2.232   5.187
  293POPC   C3A 4064   1.394   2.037   5.500
  293POPC   C4A 4065   1.336   2.033   5.942
  293POPC   C1B 4066   1.093   1.871   4.663
  293POPC   C2B 4067   1.057   2.045   5.070
  293POPC   C3B 4068   0.855   1.923   5.431
  293POPC   C4B 4069   1.038   1.680   5.752
  294POPC   NC3 4070   0.435  10.511   3.741
  294POPC   PO4 4071   0.785  10.152   4.114
  294POPC   GL1 4072   0.750  10.530   4.310
  294POPC   GL2 4073   0.397  10.580   4.261
  294POPC   C1A 4074   0.708  10.629   4.728
  294POPC   D2A 4075   0.706  10.273   4.987
  294POPC   C3A 4076   0.699  10.425   5.363
  294POPC   C4A 4077   0.643  10.340   5.762
  294POPC   C1B 4078   0.314  10.316   4.638
  294POPC   C2B 4079   0.152  10.415   5.064
  294POPC   C3B 4080   0.210  10.442   5.516
  294POPC   C4B 4081   0.193  10.288   5.965
  295POPC   NC3 4082   2.923   2.822   3.770
  295POPC   PO4 4083   2.400   2.461   3.860
  295POPC   GL1 4084   2.610   2.532   4.223
  295POPC   GL2 4085   2.679   2.835   4.352
  295POPC   C1A 4086   2.551   2.426   4.627
  295POPC   D2A 4087   2.596   2.669   4.969
  295POPC   C3A 4088   2.745   2.453   5.319
  295POPC   C4A 4089   2.701   2.560   5.745
  295POPC   C1B 4090   2.900   3.006   4.709
  295POPC   C2B 4091   2.985   2.899   5.159
  295POPC   C3B 4092   2.876   3.016   5.563
  295POPC   C4B 4093   3.030   2.941   5.974
  296POPC   NC3 4094   1.174  10.992   3.960
  296POPC   PO4 4095   0.871   0.145   4.005
  296POPC   GL1 4096   1.060  11.378   4.327
  296POPC   GL2 4097   1.132  11.041   4.466
  296POPC   C1A 4098   1.095  11.440   4.768
  296POPC   D2A 4099   1.356  11.304   5.099
  296POPC   C3A 4100   1.127  11.389   5.440
  296POPC   C4A 4101   0.972  11.212   5.808
  296POPC   C1B 4102   1.451  10.833   4.751
  296POPC   C2B 4103   1.548  10.821   5.207
  296POPC   C3B 4104   1.374  10.959   5.584
  296POPC   C4B 4105   1.407  10.861   6.006
  297POPC   NC3 4106   9.930   8.083   4.125
  297POPC   PO4 4107   9.306   7.847   3.923
  297POPC   GL1 4108   9.517   7.819   4.304
  297POPC   GL2 4109   9.433   8.168   4.345
  297POPC   C1A 4110   9.673   7.795   4.731
  297POPC   D2A 4111   9.830   7.590   5.145
  297POPC   C3A 4112   9.603   7.796   5.486
  297POPC   C4A 4113   9.702   8.163   5.674
  297POPC   C1B 4114   9.455   8.351   4.765
  297POPC   C2B 4115   9.460   8.206   5.203
  297POPC   C3B 4116   9.219   8.289   5.575
  297POPC   C4B 4117   9.054   8.198   5.989
  298POPC   NC3 4118   6.510  11.396   3.958
  298POPC   PO4 4119   6.508  10.769   3.951
  298POPC   GL1 4120   6.570  10.988   4.341
  298POPC   GL2 4121   6.540  11.350   4.441
  298POPC   C1A 4122   6.436  10.942   4.754
  298POPC   D2A 4123   6.615  11.062   5.126
  298POPC   C3A 4124   6.380  10.900   5.450
  298POPC   C4A 4125   6.564  10.938   5.862
  298POPC   C1B 4126   6.474  11.457   4.820
  298POPC   C2B 4127   6.508   0.056   5.179
  298POPC   C3B 4128   6.574  11.369   5.550
  298POPC   C4B 4129   6.427   0.099   5.890
  299POPC   NC3 4130  11.080   6.925   3.936
  299POPC   PO4 4131  10.904   6.241   3.763
  299POPC   GL1 4132  10.963   6.489   4.214
  299POPC   GL2 4133  11.212   6.692   4.342
  299POPC   C1A 4134  10.891   6.534   4.712
  299POPC   D2A 4135  10.716   6.406   5.139
  299POPC   C3A 4136  10.855   6.641   5.537
  299POPC   C4A 4137  10.957   6.466   5.973
  299POPC   C1B 4138  11.397   6.523   4.687
  299POPC   C2B 4139   0.027   6.486   5.080
  299POPC   C3B 4140  11.351   6.577   5.438
  299POPC   C4B 4141  11.354   6.755   5.836
  300POPC   NC3 4142   0.009   1.160   3.860
  300POPC   PO4 4143  10.854   1.070   3.913
  300POPC   GL1 4144  11.117   0.928   4.236
  300POPC   GL2 4145  11.389   1.152   4.337
  300POPC   C1A 4146  11.071   0.927   4.691
  300POPC   D2A 4147  11.001   1.220   5.030
  300POPC   C3A 4148  10.992   1.126   5.460
  300POPC   C4A 4149  11.060   0.894   5.848
  300POPC   C1B 4150  11.384   1.394   4.704
  300POPC   C2B 4151  11.381   1.562   5.127
  300POPC   C3B 4152  11.437   1.388   5.542
  300POPC   C4B 4153  11.299   1.318   5.980
  301POPC   NC3 4154  10.700   5.238   3.971
  301POPC   PO4 4155  10.317   4.782   3.776
  301POPC   GL1 4156  10.270   4.871   4.249
  301POPC   GL2 4157  10.427   5.175   4.405
  301POPC   C1A 4158  10.278   4.817   4.732
  301POPC   D2A 4159  10.135   4.727   5.166
  301POPC   C3A 4160  10.415   4.725   5.546
  301POPC   C4A 4161  10.222   4.876   5.943
  301POPC   C1B 4162  10.602   5.224   4.835
  301POPC   C2B 4163  10.558   5.132   5.250
  301POPC   C3B 4164  10.235   5.234   5.542
  301POPC   C4B 4165  10.270   5.390   5.950
  302POPC   NC3 4166   9.621   1.070   3.949
  302POPC   PO4 4167   9.392   1.645   3.905
  302POPC   GL1 4168   9.543   1.444   4.313
  302POPC   GL2 4169   9.442   1.077   4.418
  302POPC   C1A 4170   9.474   1.442   4.773
  302POPC   D2A 4171   9.683   1.229   5.105
  302POPC   C3A 4172   9.468   1.170   5.513
  302POPC   C4A 4173   9.478   1.335   5.945
  302POPC   C1B 4174   9.870   1.012   4.617
  302POPC   C2B 4175  10.063   0.845   4.999
  302POPC   C3B 4176  10.015   1.014   5.427
  302POPC   C4B 4177   9.810   0.975   5.846
  303POPC   NC3 4178   9.636  10.630   3.995
  303POPC   PO4 4179  10.001  10.035   3.893
  303POPC   GL1 4180  10.042  10.208   4.310
  303POPC   GL2 4181   9.917  10.565   4.414
  303POPC   C1A 4182  10.130  10.257   4.741
  303POPC   D2A 4183   9.909  10.541   5.024
  303POPC   C3A 4184  10.017  10.386   5.424
  303POPC   C4A 4185   9.952  10.581   5.798
  303POPC   C1B 4186   9.608  10.318   4.659
  303POPC   C2B 4187   9.425  10.329   5.093
  303POPC   C3B 4188   9.536  10.507   5.489
  303POPC   C4B 4189   9.489  10.361   5.901
  304POPC   NC3 4190   6.639   1.690   3.717
  304POPC   PO4 4191   6.327   1.188   3.891
  304POPC   GL1 4192   6.545   1.060   4.339
  304POPC   GL2 4193   6.872   0.810   4.349
  304POPC   C1A 4194   6.524   1.234   4.806
  304POPC   D2A 4195   6.611   1.559   5.163
  304POPC   C3A 4196   6.470   1.634   5.625
  304POPC   C4A 4197   6.674   1.634   6.056
  304POPC   C1B 4198   6.704   0.751   4.741
  304POPC   C2B 4199   6.753   0.910   5.162
  304POPC   C3B 4200   6.664   0.871   5.574
  304POPC   C4B 4201   6.471   1.162   5.827
  305POPC   NC3 4202  10.952   0.480   4.007
  305POPC   PO4 4203   0.051   0.714   4.053
  305POPC   GL1 4204  11.320   0.489   4.410
  305POPC   GL2 4205  10.947   0.468   4.512
  305POPC   C1A 4206  11.290   0.482   4.880
  305POPC   D2A 4207  11.328   0.848   5.131
  305POPC   C3A 4208  11.440   0.837   5.513
  305POPC   C4A 4209  11.416   0.545   5.792
  305POPC   C1B 4210  10.732   0.195   4.853
  305POPC   C2B 4211  10.796   0.157   5.250
  305POPC   C3B 4212  11.148   0.360   5.392
  305POPC   C4B 4213  10.931   0.412   5.725
  306POPC   NC3 4214   0.701   9.734   3.953
  306POPC   PO4 4215   0.297   9.294   3.952
  306POPC   GL1 4216   0.578   9.210   4.324
  306POPC   GL2 4217   0.784   9.515   4.431
  306POPC   C1A 4218   0.602   9.180   4.799
  306POPC   D2A 4219   0.546   9.474   5.150
  306POPC   C3A 4220   0.614   9.469   5.596
  306POPC   C4A 4221   0.325   9.541   5.921
  306POPC   C1B 4222   0.580   9.822   4.741
  306POPC   C2B 4223   0.339   9.943   5.142
  306POPC   C3B 4224   0.404   9.941   5.591
  306POPC   C4B 4225   0.641   9.912   6.015
  307POPC   NC3 4226  10.782   6.030   4.160
  307POPC   PO4 4227  10.186   5.816   3.900
  307POPC   GL1 4228  10.448   5.656   4.241
  307POPC   GL2 4229  10.287   5.904   4.416
  307POPC   C1A 4230  10.673   5.700   4.690
  307POPC   D2A 4231  10.825   5.836   5.093
  307POPC   C3A 4232  10.555   5.704   5.390
  307POPC   C4A 4233  10.545   5.852   5.807
  307POPC   C1B 4234  10.173   5.582   4.718
  307POPC   C2B 4235  10.095   5.597   5.172
  307POPC   C3B 4236  10.074   5.756   5.612
  307POPC   C4B 4237  10.089   6.117   5.951
  308POPC   NC3 4238  10.632  11.275   3.936
  308POPC   PO4 4239   9.934  11.491   3.797
  308POPC   GL1 4240  10.058  11.403   4.226
  308POPC   GL2 4241  10.323  11.186   4.302
  308POPC   C1A 4242  10.072  11.292   4.704
  308POPC   D2A 4243   9.953  11.407   5.119
  308POPC   C3A 4244  10.197  11.273   5.456
  308POPC   C4A 4245  10.074  11.092   5.833
  308POPC   C1B 4246  10.636  11.140   4.642
  308POPC   C2B 4247  10.517  11.226   5.051
  308POPC   C3B 4248  10.709  11.165   5.450
  308POPC   C4B 4249  10.565  11.285   5.826
  309POPC   NC3 4250   0.630   4.050   3.958
  309POPC   PO4 4251   0.232   4.554   4.077
  309POPC   GL1 4252   0.273   4.257   4.333
  309POPC   GL2 4253   0.594   4.270   4.404
  309POPC   C1A 4254   0.214   4.118   4.711
  309POPC   D2A 4255   0.162   4.353   5.062
  309POPC   C3A 4256   0.238   4.145   5.432
  309POPC   C4A 4257   0.217   4.389   5.786
  309POPC   C1B 4258   0.512   4.533   4.739
  309POPC   C2B 4259   0.659   4.286   5.079
  309POPC   C3B 4260   0.846   4.041   5.389
  309POPC   C4B 4261   0.651   4.116   5.782
  310POPC   NC3 4262   9.949   4.569   3.636
  310POPC   PO4 4263   9.385   4.404   3.972
  310POPC   GL1 4264   9.748   4.455   4.267
  310POPC   GL2 4265   9.806   4.159   4.471
  310POPC   C1A 4266   9.797   4.591   4.726
  310POPC   D2A 4267   9.797   4.310   5.110
  310POPC   C3A 4268   9.700   4.506   5.510
  310POPC   C4A 4269   9.696   4.736   5.934
  310POPC   C1B 4270   9.452   4.198   4.737
  310POPC   C2B 4271   9.233   4.277   5.133
  310POPC   C3B 4272   9.257   4.141   5.558
  310POPC   C4B 4273   9.389   4.337   5.894
  311POPC   NC3 4274   6.369  10.372   4.112
  311POPC   PO4 4275   6.977  10.229   3.942
  311POPC   GL1 4276   6.849  10.552   4.290
  311POPC   GL2 4277   6.549  10.479   4.551
  311POPC   C1A 4278   6.908  10.727   4.754
  311POPC   D2A 4279   6.652  10.561   5.128
  311POPC   C3A 4280   6.831  10.639   5.562
  311POPC   C4A 4281   6.758  10.406   5.986
  311POPC   C1B 4282   6.166  10.458   4.825
  311POPC   C2B 4283   6.085  10.417   5.291
  311POPC   C3B 4284   6.348  10.432   5.675
  311POPC   C4B 4285   6.266  10.358   6.122
  312POPC   NC3 4286   8.152   0.615   3.967
  312POPC   PO4 4287   7.840   0.007   3.873
  312POPC   GL1 4288   7.935   0.203   4.294
  312POPC   GL2 4289   8.291   0.301   4.336
  312POPC   C1A 4290   8.043   0.098   4.749
  312POPC   D2A 4291   8.349   0.077   5.104
  312POPC   C3A 4292   8.127   0.066   5.534
  312POPC   C4A 4293   7.956   0.293   5.846
  312POPC   C1B 4294   8.408   0.440   4.745
  312POPC   C2B 4295   8.155   0.553   5.039
  312POPC   C3B 4296   8.247   0.545   5.449
  312POPC   C4B 4297   8.124   0.790   5.771
  313POPC   NC3 4298   8.219   1.267   3.905
  313POPC   PO4 4299   8.456   0.820   4.253
  313POPC   GL1 4300   8.130   1.028   4.413
  313POPC   GL2 4301   8.151   1.394   4.396
  313POPC   C1A 4302   8.216   1.111   4.843
  313POPC   D2A 4303   8.207   1.002   5.250
  313POPC   C3A 4304   8.423   1.150   5.565
  313POPC   C4A 4305   8.242   1.486   5.743
  313POPC   C1B 4306   7.828   1.411   4.718
  313POPC   C2B 4307   7.699   1.193   5.100
  313POPC   C3B 4308   7.807   1.128   5.519
  313POPC   C4B 4309   7.857   1.190   5.939
  314POPC   NC3 4310   9.332   3.461   4.051
  314POPC   PO4 4311   8.611   3.160   4.039
  314POPC   GL1 4312   8.925   3.297   4.363
  314POPC   GL2 4313   8.949   3.642   4.410
  314POPC   C1A 4314   8.873   3.364   4.839
  314POPC   D2A 4315   8.995   3.278   5.279
  314POPC   C3A 4316   8.725   3.324   5.687
  314POPC   C4A 4317   8.812   3.529   6.086
  314POPC   C1B 4318   9.114   3.819   4.825
  314POPC   C2B 4319   9.016   3.790   5.265
  314POPC   C3B 4320   8.796   3.903   5.649
  314POPC   C4B 4321   8.979   4.023   6.028
  315POPC   NC3 4322   6.798  10.554   3.677
  315POPC   PO4 4323   7.469  10.592   3.712
  315POPC   GL1 4324   7.381  10.346   4.200
  315POPC   GL2 4325   7.315  10.575   4.488
  315POPC   C1A 4326   7.259  10.109   4.645
  315POPC   D2A 4327   7.126  10.347   5.037
  315POPC   C3A 4328   7.037  10.189   5.474
  315POPC   C4A 4329   7.230  10.405   5.845
  315POPC   C1B 4330   7.642  10.429   4.756
  315POPC   C2B 4331   7.628  10.298   5.135
  315POPC   C3B 4332   7.516  10.525   5.444
  315POPC   C4B 4333   7.731  10.464   5.803
  316POPC   NC3 4334   1.351   2.677   3.853
  316POPC   PO4 4335   0.797   2.968   3.946
  316POPC   GL1 4336   0.953   2.639   4.246
  316POPC   GL2 4337   1.284   2.726   4.346
  316POPC   C1A 4338   1.024   2.436   4.678
  316POPC   D2A 4339   1.244   2.561   5.069
  316POPC   C3A 4340   0.974   2.510   5.418
  316POPC   C4A 4341   0.926   2.284   5.797
  316POPC   C1B 4342   1.127   2.943   4.689
  316POPC   C2B 4343   1.138   3.076   5.127
  316POPC   C3B 4344   1.296   2.896   5.515
  316POPC   C4B 4345   1.381   2.502   5.721
  317POPC   NC3 4346   9.762   1.927   3.933
  317POPC   PO4 4347   9.208   2.365   3.928
  317POPC   GL1 4348   9.471   2.237   4.241
  317POPC   GL2 4349   9.320   1.931   4.318
  317POPC   C1A 4350   9.513   2.309   4.692
  317POPC   D2A 4351   9.427   2.040   5.057
  317POPC   C3A 4352   9.577   2.167   5.484
  317POPC   C4A 4353   9.465   2.254   5.943
  317POPC   C1B 4354   9.705   1.867   4.580
  317POPC   C2B 4355   9.837   1.758   4.993
  317POPC   C3B 4356   9.618   1.664   5.402
  317POPC   C4B 4357   9.701   1.808   5.825
  318POPC   NC3 4358   3.363   5.834   3.800
  318POPC   PO4 4359   3.616   5.339   3.825
  318POPC   GL1 4360   3.494   5.115   4.251
  318POPC   GL2 4361   3.182   4.897   4.271
  318POPC   C1A 4362   3.665   5.126   4.714
  318POPC   D2A 4363   3.751   5.274   5.160
  318POPC   C3A 4364   3.425   5.203   5.488
  318POPC   C4A 4365   3.435   4.926   5.849
  318POPC   C1B 4366   3.327   4.747   4.697
  318POPC   C2B 4367   3.522   4.811   5.133
  318POPC   C3B 4368   3.813   4.871   5.502
  318POPC   C4B 4369   3.895   4.614   5.867
  319W        W 4370  11.249  10.741   8.544
  320W        W 4371   8.595   4.370   3.155
  321W        W 4372   5.732   3.535   8.134
  322W        W 4373   6.749   6.838  11.798
  323W        W 4374   7.626   8.422   9.836
  324W        W 4375   2.199   9.723   8.606
  325W        W 4376   5.981   3.879   8.543
  326W        W 4377   0.958   5.091   2.239
  327W        W 4378   3.705   0.816   3.131
  328W        W 4379   9.298   0.768  11.221
  329W        W 4380   7.609   6.092   8.327
  330W        W 4381   8.676   5.481   8.615
  331W        W 4382  10.954   9.091   9.080
  332W        W 4383   9.786   9.392   9.118
  333W        W 4384  10.458   6.565   2.990
  334W        W 4385   7.784  10.879   2.278
  335W        W 4386  10.260   6.655  10.846
  336W        W 4387   7.491   1.368   0.155
  337W        W 4388   5.128   6.449   0.849
  338W        W 4389   0.753   4.369  11.654
  339W        W 4390   0.127   8.137  10.784
  340W        W 4391   7.986   2.332   2.939
  341W        W 4392   4.062  10.742  11.494
  342W        W 4393   3.188   7.605   9.980
  343W        W 4394   1.448   0.901   1.889
  344W        W 4395   9.695   6.620   9.992
  345W        W 4396   7.239   8.008   0.761
  346W        W 4397  10.985   5.444  10.534
  347W        W 4398   6.676   0.760   1.761
  348W        W 4399   3.256   7.034   1.777
  349W        W 4400   5.543   3.606   9.481
  350W        W 4401   1.840   9.468  11.779
  351W        W 4402   4.768   2.837   0.516
  352W        W 4403   9.939  11.421   3.220
  353W        W 4404   8.611   3.408   2.157
  354W        W 4405   1.521   7.583  10.019
  355W        W 4406   0.397   8.520  11.526
  356W        W 4407   0.923   6.976   8.297
  357W        W 4408   2.462   9.918   0.357
  358W        W 4409   6.413   3.635   8.762
  359W        W 4410   7.529   9.510   9.000
  360W        W 4411  10.635   5.067  11.989
  361W        W 4412   6.119   8.453  10.388
  362W        W 4413   1.098   1.404   9.781
  363W        W 4414   6.522   2.922  11.643
  364W        W 4415   2.293  10.833   1.364
  365W        W 4416   1.824   5.526   2.485
  366W        W 4417   9.399   8.834   3.023
  367W        W 4418   4.635  10.769   2.783
  368W        W 4419   5.209   5.455   1.818
  369W        W 4420   8.462   6.950   3.061
  370W        W 4421   7.614   6.578   9.499
  371W        W 4422   5.580   2.628   1.483
  372W        W 4423  11.134  10.513   2.869
  373W        W 4424   7.720   9.464   3.559
  374W        W 4425   5.570   6.661  10.539
  375W        W 4426   1.401   9.915   0.479
  376W        W 4427   9.848   4.759   0.721
  377W        W 4428   7.608   5.218  10.096
  378W        W 4429   2.234   3.703   2.331
  379W        W 4430   1.451   8.121   2.735
  380W        W 4431   3.748   3.728   1.274
  381W        W 4432   9.291   2.465   2.492
  382W        W 4433   5.147   3.218   1.337
  383W        W 4434   5.660   0.374  11.106
  384W        W 4435   5.388   6.045   9.829
  385W        W 4436   4.825   1.165   3.100
  386W        W 4437   9.414   4.626  11.955
  387W        W 4438   4.975  10.559  10.442
  388W        W 4439   8.628   9.883   2.573
  389W        W 4440  11.246   2.711   8.836
  390W        W 4441   2.695   5.931   1.824
  391W        W 4442   2.963   8.040   9.270
  392W        W 4443   2.720   1.974  11.760
  393W        W 4444   0.845   9.359   2.632
  394W        W 4445   5.406   4.464   3.950
  395W        W 4446   2.703   8.618   3.248
  396W        W 4447   1.726   7.921   3.538
  397W        W 4448   5.196   3.652   1.853
  398W        W 4449   6.965   7.574   1.312
  399W        W 4450   3.166   7.445   2.555
  400W        W 4451   3.777   0.485  10.685
  401W        W 4452  11.396   2.570  10.850
  402W        W 4453   5.383  10.849  10.583
  403W        W 4454   1.430   9.152   0.661
  404W        W 4455   8.687  10.523  11.752
  405W        W 4456   5.001   2.402   8.127
  406W        W 4457   3.138   6.593   1.491
  407W        W 4458   0.228   6.547  11.493
  408W        W 4459   3.321   4.759  11.061
  409W        W 4460  10.353   4.158   1.246
  410W        W 4461   3.564   5.547  11.289
  411W        W 4462   5.947  10.415  10.967
  412W        W 4463   7.603   5.080  11.922
  413W        W 4464   2.736   9.159   3.470
  414W        W 4465   6.492  10.165   3.577
  415W        W 4466   3.307   3.393   0.461
  416W        W 4467   8.211   9.065  11.263
  417W        W 4468   2.336   2.273   9.140
  418W        W 4469   8.974   5.389  11.555
  419W        W 4470   5.238   2.610  10.778
  420W        W 4471   9.996   6.637   2.769
  421W        W 4472   6.963   4.649  10.745
  422W        W 4473   4.283   6.982   0.702
  423W        W 4474  11.310   6.069  10.391
  424W        W 4475   1.280   6.487   0.180
  425W        W 4476   9.034   8.900   0.528
  426W        W 4477   6.449   4.050   9.142
  427W        W 4478   2.274   9.659  11.955
  428W        W 4479  10.977   7.485   1.479
  429W        W 4480  10.049  10.757  10.411
  430W        W 4481   3.934   0.168  11.096
  431W        W 4482   7.071   7.528   0.286
  432W        W 4483   7.819   0.853   2.629
  433W        W 4484   7.080   0.253  11.526
  434W        W 4485   8.603   2.259  11.864
  435W        W 4486   4.211   5.707   0.342
  436W        W 4487   4.253   3.763   1.377
  437W        W 4488   5.539   1.954   9.456
  438W        W 4489   8.432   7.121   1.654
  439W        W 4490   7.582   1.703   3.408
  440W        W 4491  10.025  10.832   1.298
  441W        W 4492   8.027   4.108   1.190
  442W        W 4493   5.602   9.650   9.439
  443W        W 4494   1.242   6.507   1.147
  444W        W 4495   9.461   7.919   2.849
  445W        W 4496   6.982  11.299   2.808
  446W        W 4497   5.490   4.183   2.258
  447W        W 4498   2.255   2.779   8.888
  448W        W 4499   0.952  10.876   9.854
  449W        W 4500   2.835   7.558   1.807
  450W        W 4501   4.261  11.142   3.462
  451W        W 4502   4.715   0.772  11.930
  452W        W 4503   7.670   3.675  10.442
  453W        W 4504  10.862   8.840   1.453
  454W        W 4505  10.454   0.579   1.408
  455W        W 4506   3.199   8.113   9.748
  456W        W 4507   3.146   1.637   2.488
  457W        W 4508   9.314   7.549  10.791
  458W        W 4509   2.955  11.198   2.229
  459W        W 4510   7.788   9.277  11.722
  460W        W 4511   9.530   2.614   0.437
  461W        W 4512   7.060   1.698   0.202
  462W        W 4513   4.156   8.765   8.939
  463W        W 4514   0.885   1.370   0.025
  464W        W 4515   7.143   8.871   3.169
  465W        W 4516   3.144   5.670   9.427
  466W        W 4517  10.002   7.075   0.505
  467W        W 4518   5.522   8.420   9.941
  468W        W 4519   0.662   0.952   0.292
  469W        W 4520   1.107   9.496   0.372
  470W        W 4521   7.077   4.321   0.874
  471W        W 4522   2.730  10.815   1.986
  472W        W 4523   4.327  10.774   0.026
  473W        W 4524   9.210  10.067  11.069
  474W        W 4525   3.199   6.466   8.903
  475W        W 4526   5.999   5.741  11.364
  476W        W 4527   5.914   6.055   9.824
  477W        W 4528   2.161   4.857   3.283
  478W        W 4529   9.571   1.061   9.614
  479W        W 4530  10.703   0.883  11.369
  480W        W 4531   4.729   0.648  11.020
  481W        W 4532   2.300   7.604   8.013
  482W        W 4533   2.475   4.824   8.326
  483W        W 4534   7.997   9.587   9.324
  484W        W 4535   3.760   2.551   8.719
  485W        W 4536   4.569   7.142  11.821
  486W        W 4537   3.844   9.040   8.587
  487W        W 4538   0.911   8.427   1.761
  488W        W 4539   9.461   6.520  10.429
  489W        W 4540   3.059   7.143   9.515
  490W        W 4541   5.101  10.739   9.956
  491W        W 4542   7.026   1.817  10.839
  492W        W 4543   5.110   2.337   3.245
  493W        W 4544   2.290   7.182   9.876
  494W        W 4545   3.144   1.819   3.765
  495W        W 4546   7.971   6.077   3.223
  496W        W 4547  11.474   3.398   2.729
  497W        W 4548   5.947   6.444   0.364
  498W        W 4549   4.119  11.258   2.146
  499W        W 4550   0.938   2.691   1.219
  500W        W 4551   5.517   2.719   3.263
  501W        W 4552   4.866   4.335   0.894
  502W        W 4553   9.724   3.362  10.663
  503W        W 4554   5.134   9.829   2.230
  504W        W 4555   6.134  10.818   9.995
  505W        W 4556   1.450   3.321   1.490
  506W        W 4557   7.224   0.845   9.300
  507W        W 4558   0.804   6.559   1.394
  508W        W 4559   9.853   8.483   0.651
  509W        W 4560   1.667   4.029   9.664
  510W        W 4561   4.506   5.286  11.232
  511W        W 4562  10.529  10.061   2.245
  512W        W 4563  11.428   4.714  11.904
  513W        W 4564   8.195   5.466   8.434
  514W        W 4565  10.857   9.340   1.576
  515W        W 4566   1.219   2.789   3.005
  516W        W 4567   7.457   6.566   8.514
  517W        W 4568   0.059   4.837   0.380
  518W        W 4569   2.761   8.574   0.358
  519W        W 4570   2.629   4.639   1.948
  520W        W 4571   4.650  10.235   0.928
  521W        W 4572   3.875   1.732   2.172
  522W        W 4573   7.562   2.412   2.676
  523W        W 4574   2.354   6.966  10.813
  524W        W 4575   6.331   9.526   9.676
  525W        W 4576   6.189   5.085  10.844
  526W        W 4577   3.150   8.653   9.870
  527W        W 4578   8.235   4.795   3.608
  528W        W 4579   8.854   8.536  11.252
  529W        W 4580   3.317   8.082   0.357
  530W        W 4581   7.431   2.684   1.833
  531W        W 4582   6.729   0.793   9.249
  532W        W 4583   9.739   7.548   1.318
  533W        W 4584   8.453   6.091   3.439
  534W        W 4585   0.885   5.593   9.557
  535W        W 4586   1.800  11.002  10.279
  536W        W 4587   4.942   0.082  10.321
  537W        W 4588   8.538   6.641   2.179
  538W        W 4589   1.297   7.483  10.884
  539W        W 4590   0.329   1.675   0.788
  540W        W 4591   5.635   2.808  11.027
  541W        W 4592   5.535   2.310   3.592
  542W        W 4593   6.660   8.716  11.195
  543W        W 4594   3.558   0.996   1.294
  544W        W 4595   7.432   1.299   0.937
  545W        W 4596   7.358   6.145   0.341
  546W        W 4597   0.999   8.516   8.459
  547W        W 4598  11.437   5.194   3.376
  548W        W 4599   9.110   6.069   8.204
  549W        W 4600   3.887  10.800  10.997
  550W        W 4601   0.847   7.898   1.961
  551W        W 4602  10.519   9.915   1.282
  552W        W 4603   5.605   7.159   1.715
  553W        W 4604   7.633  10.077   0.085
  554W        W 4605   2.648   7.575   0.280
  555W        W 4606   9.880   6.502   2.295
  556W        W 4607  10.945   6.477   9.606
  557W        W 4608  10.044   3.335   1.366
  558W        W 4609   1.519  11.352  11.999
  559W        W 4610   7.724   1.941   2.548
  560W        W 4611   9.438   7.035  10.734
  561W        W 4612   0.400   1.165   0.716
  562W        W 4613   5.625   7.946   2.814
  563W        W 4614   6.108  11.324   2.668
  564W        W 4615   1.197   6.575   0.660
  565W        W 4616  10.804  11.290   1.141
  566W        W 4617   4.610   7.082   9.853
  567W        W 4618  11.461   2.596   3.197
  568W        W 4619   5.562   4.169   8.660
  569W        W 4620   2.298   9.216   2.782
  570W        W 4621   2.467   8.173  11.799
  571W        W 4622   9.041  10.495  10.829
  572W        W 4623   0.982   1.869  11.990
  573W        W 4624   1.350   8.672   1.943
  574W        W 4625   6.487   7.163   3.122
  575W        W 4626   4.872   1.990   1.402
  576W        W 4627   9.868   9.802  10.411
  577W        W 4628   9.594   6.785   9.205
  578W        W 4629   1.113   5.688   0.512
  579W        W 4630   5.821  10.461   9.448
  580W        W 4631   8.025   0.566  11.421
  581W        W 4632   9.217   2.140   3.477
  582W        W 4633   6.404   5.731   2.224
  583W        W 4634   1.844   2.195   9.294
  584W        W 4635   9.460   3.205   3.601
  585W        W 4636   4.303   2.652  11.076
  586W        W 4637   5.684   8.698   9.546
  587W        W 4638  10.877   6.758  11.960
  588W        W 4639   8.158  10.967   0.741
  589W        W 4640   1.313   8.993  11.492
  590W        W 4641   2.147   1.816   2.674
  591W        W 4642   2.647   0.346   2.846
  592W        W 4643   3.231   3.719   0.052
  593W        W 4644   4.642   6.162   3.529
  594W        W 4645   9.413   4.357   9.862
  595W        W 4646   4.280   7.973  10.330
  596W        W 4647   0.821   8.924   1.379
  597W        W 4648   7.392   3.140   9.465
  598W        W 4649   5.100   9.507   9.431
  599W        W 4650   3.042   6.054  11.939
  600W        W 4651   0.501   8.562   2.006
  601W        W 4652   4.308   7.173   8.877
  602W        W 4653   9.903   1.972   1.668
  603W        W 4654   0.819   3.534   3.075
  604W        W 4655   2.746   9.366   9.915
  605W        W 4656   7.410   4.861  10.490
  606W        W 4657   4.795   6.647   1.227
  607W        W 4658   7.390   1.687  11.780
  608W        W 4659   9.464   3.145  11.506
  609W        W 4660   8.713   9.873   0.327
  610W        W 4661  10.368   9.450  10.000
  611W        W 4662   2.436   2.286  10.068
  612W        W 4663  10.758   9.530   8.811
  613W        W 4664   6.988   9.986   3.225
  614W        W 4665   3.509   5.097   3.362
  615W        W 4666   5.605   9.721   1.864
  616W        W 4667   5.565   2.433   9.233
  617W        W 4668   8.592  11.332   2.158
  618W        W 4669   6.290   7.048  10.473
  619W        W 4670   2.305   7.686  11.858
  620W        W 4671   1.406   2.821   1.971
  621W        W 4672   0.203   2.211   1.477
  622W        W 4673   4.120   6.355   8.593
  623W        W 4674   6.667   7.221  11.437
  624W        W 4675   0.237   5.357   1.490
  625W        W 4676   0.310   4.244   3.103
  626W        W 4677   3.796  10.232   0.184
  627W        W 4678   8.836   4.331   0.127
  628W        W 4679   1.380   1.047   2.776
  629W        W 4680   2.379   9.587  10.155
  630W        W 4681   7.886   9.310   0.763
  631W        W 4682  11.428   5.638  11.713
  632W        W 4683   5.701   8.518   1.386
  633W        W 4684   7.195  10.213   1.416
  634W        W 4685   2.797   9.586  11.528
  635W        W 4686   6.028   6.887   1.819
  636W        W 4687  10.981   7.433  11.380
  637W        W 4688   1.419   6.690   2.162
  638W        W 4689   3.590  10.441  10.462
  639W        W 4690   3.610   9.482   3.280
  640W        W 4691   0.730   6.738   9.048
  641W        W 4692   8.982   6.815   9.540
  642W        W 4693   8.660   6.638   1.669
  643W        W 4694  11.421   5.765   1.120
  644W        W 4695   3.619   1.824   2.656
  645W        W 4696  10.497   0.741   0.928
  646W        W 4697   1.819  10.168  11.285
  647W        W 4698   4.137   5.705  11.841
  648W        W 4699  11.275   7.458  11.789
  649W        W 4700   8.569   0.542  10.222
  650W        W 4701   6.234   9.765   0.360
  651W        W 4702   1.795   7.313   0.250
  652W        W 4703   4.101   0.450   1.428
  653W        W 4704   5.201   1.661  11.737
  654W        W 4705   8.108   7.121   9.964
  655W        W 4706   8.433   1.180  10.847
  656W        W 4707   5.106   4.462  11.219
  657W        W 4708   7.120   7.137   1.101
  658W        W 4709   0.797   1.893   2.328
  659W        W 4710   7.970   0.331   0.258
  660W        W 4711   5.106  10.068   3.148
  661W        W 4712   0.725   8.885  11.094
  662W        W 4713   5.186   1.858   3.144
  663W        W 4714   2.665   5.197   3.666
  664W        W 4715   5.747   3.165   2.125
  665W        W 4716   3.616   4.858   0.628
  666W        W 4717   8.930   3.755   0.733
  667W        W 4718   7.601   9.168   3.094
  668W        W 4719   7.463   8.143   2.063
  669W        W 4720   1.284  11.382  11.020
  670W        W 4721   0.983   3.034   9.654
  671W        W 4722   9.051   0.256  11.470
  672W        W 4723   5.781   5.745  11.847
  673W        W 4724   4.973  10.246  10.036
  674W        W 4725   3.585   7.028   9.614
  675W        W 4726   6.578  11.086  10.970
  676W        W 4727   9.594   5.511   9.438
  677W        W 4728   2.097   4.197  10.577
  678W        W 4729   7.448   4.228   1.929
  679W        W 4730   0.901   7.622   9.373
  680W        W 4731   2.462  10.362  10.076
  681W        W 4732   7.081  10.556   8.696
  682W        W 4733   7.169  11.140   0.412
  683W        W 4734   0.797   3.353  10.032
  684W        W 4735   4.704   6.155   0.801
  685W        W 4736   3.645   2.390  11.791
  686W        W 4737   2.199   6.244   2.978
  687W        W 4738   8.324   5.266   2.815
  688W        W 4739   8.817   3.764   9.074
  689W        W 4740  10.810   4.858   3.657
  690W        W 4741   5.827  10.552   0.182
  691W        W 4742   2.329  11.320   9.056
  692W        W 4743   5.686   1.793   1.000
  693W        W 4744   8.145   8.269   2.271
  694W        W 4745   2.298   1.718  11.913
  695W        W 4746   1.400   5.158   2.656
  696W        W 4747   5.488   2.655   0.950
  697W        W 4748   3.123   9.449   9.177
  698W        W 4749   2.986   4.133   0.222
  699W        W 4750   4.720   7.240   0.517
  700W        W 4751   9.987   0.804   3.465
  701W        W 4752  10.583   5.173   2.283
  702W        W 4753   8.078   4.601   9.441
  703W        W 4754   1.674   2.363   2.290
  704W        W 4755   9.270   3.270  10.879
  705W        W 4756   7.130   0.936  11.313
  706W        W 4757   9.604   8.964   0.850
  707W        W 4758   4.361   9.939  10.666
  708W        W 4759  10.643   3.219   0.703
  709W        W 4760   4.904   1.278   1.211
  710W        W 4761   1.263   9.762   9.818
  711W        W 4762   6.537   9.968   9.613
  712W        W 4763   2.185   8.642   1.621
  713W        W 4764   1.858   8.557   9.983
  714W        W 4765   9.352   9.441   2.325
  715W        W 4766   2.756   2.188   0.244
  716W        W 4767   3.115   3.164   1.798
  717W        W 4768  10.050   9.619   3.079
  718W        W 4769   0.247   0.571   0.121
  719W        W 4770   4.150   9.509  10.961
  720W        W 4771   5.088   9.406  11.061
  721W        W 4772   9.208   6.580  10.867
  722W        W 4773   8.127  10.045   9.077
  723W        W 4774   7.927   0.350  10.958
  724W        W 4775   8.063   1.455   1.874
  725W        W 4776   1.137   7.976  11.584
  726W        W 4777   7.178   3.680   1.234
  727W        W 4778   0.528   7.691   1.445
  728W        W 4779  10.311   0.262   1.015
  729W        W 4780   6.324   1.733   2.297
  730W        W 4781   2.618   5.606   3.368
  731W        W 4782   3.591   8.400  11.292
  732W        W 4783   0.703  10.375   1.357
  733W        W 4784   3.644   7.919  11.520
  734W        W 4785   5.214   3.057  11.568
  735W        W 4786   6.497   2.813   3.440
  736W        W 4787   0.795   0.626   3.200
  737W        W 4788   7.017   8.434   1.914
  738W        W 4789   5.602   7.807   9.831
  739W        W 4790   5.859  10.533   2.114
  740W        W 4791   0.491  11.034   0.665
  741W        W 4792   8.296   6.370  10.986
  742W        W 4793  11.440   7.641   9.656
  743W        W 4794   1.535   7.938  10.902
  744W        W 4795   2.217   1.255   1.009
  745W        W 4796   5.669   5.541   2.734
  746W        W 4797   9.989   8.175   1.063
  747W        W 4798   3.254  10.811   0.860
  748W        W 4799  10.856   8.670   8.788
  749W        W 4800   6.692   3.218   8.914
  750W        W 4801   2.748   4.231  11.205
  751W        W 4802  10.371   5.574   1.889
  752W        W 4803  11.401   4.554   1.679
  753W        W 4804   5.030   2.078   9.542
  754W        W 4805   8.569   7.199  11.173
  755W        W 4806  10.879   4.687   1.695
  756W        W 4807   4.787   2.666  10.973
  757W        W 4808   0.946   9.017   9.202
  758W        W 4809   7.132   4.265   9.985
  759W        W 4810   9.018  11.495   9.530
  760W        W 4811  11.460   5.687  10.742
  761W        W 4812   5.715   1.110   1.820
  762W        W 4813   0.702   0.338  10.957
  763W        W 4814  10.860   7.030   1.722
  764W        W 4815  10.137   4.496   9.861
  765W        W 4816   6.677   9.111  11.683
  766W        W 4817   2.080   6.863   3.632
  767W        W 4818   7.612   0.731   2.049
  768W        W 4819  10.013   5.674  10.638
  769W        W 4820   2.608   1.790   1.757
  770W        W 4821   4.188   1.786   3.101
  771W        W 4822   6.779   5.148   0.433
  772W        W 4823   1.941   0.681   0.203
  773W        W 4824   8.534   8.950   2.741
  774W        W 4825   5.073   6.681  10.323
  775W        W 4826   7.030   1.024   3.596
  776W        W 4827   9.685   5.046   3.890
  777W        W 4828   6.273   5.713   1.270
  778W        W 4829   0.836   5.082   1.731
  779W        W 4830   7.832   4.671  10.735
  780W        W 4831   0.047   8.614   9.434
  781W        W 4832   5.951  10.107  10.486
  782W        W 4833   4.820   5.664   2.095
  783W        W 4834  10.865   0.889   1.307
  784W        W 4835   6.698   2.615   9.394
  785W        W 4836   6.041   2.171   2.257
  786W        W 4837  10.267   0.258  10.727
  787W        W 4838  10.495   5.620  10.461
  788W        W 4839   9.379   7.649   3.439
  789W        W 4840   2.832   8.622   2.740
  790W        W 4841   1.193   9.637   1.741
  791W        W 4842   5.790  10.070   0.389
  792W        W 4843   6.601   3.181  11.180
  793W        W 4844   7.500   7.642   1.264
  794W        W 4845   5.580   1.802   3.462
  795W        W 4846   6.373  10.598  11.207
  796W        W 4847   7.420   7.694   2.314
  797W        W 4848   7.551   6.729  11.415
  798W        W 4849  10.543   6.575  10.371
  799W        W 4850   8.544   9.885   8.779
  800W        W 4851   9.135   8.939  11.162
  801W        W 4852  11.431   5.597   1.852
  802W        W 4853   0.899  10.072   0.368
  803W        W 4854   2.728   6.618  10.941
  804W        W 4855  10.359   5.112   3.139
  805W        W 4856   9.985   1.702  10.269
  806W        W 4857   6.448   3.806   9.594
  807W        W 4858   1.342   5.477   3.224
  808W        W 4859   0.082  11.346  10.688
  809W        W 4860   9.543   0.232   0.530
  810W        W 4861   5.054   0.457   0.806
  811W        W 4862   3.645   2.329   1.204
  812W        W 4863   9.990   0.245   0.273
  813W        W 4864   4.578   2.195   0.974
  814W        W 4865   2.557   8.342   0.791
  815W        W 4866   0.545   9.189   0.791
  816W        W 4867   5.925   7.825  11.989
  817W        W 4868   6.516   5.147   1.881
  818W        W 4869   4.766   8.329   1.553
  819W        W 4870   3.207   1.387   2.044
  820W        W 4871  10.422   0.600   9.401
  821W        W 4872   3.857   0.376   9.680
  822W        W 4873   6.263   7.194   9.476
  823W        W 4874   2.227   5.233   9.487
  824W        W 4875   5.436   0.793   9.847
  825W        W 4876   0.913   8.348   3.530
  826W        W 4877   5.641   9.948  11.859
  827W        W 4878   2.176   3.381   2.802
  828W        W 4879  11.377   7.028  10.516
  829W        W 4880   2.712   4.505   0.950
  830W        W 4881   1.428   9.918   9.360
  831W        W 4882   7.041   4.831   0.747
  832W        W 4883   1.838   8.151   1.391
  833W        W 4884   7.812   4.193   8.671
  834W        W 4885  10.916   2.085   2.261
  835W        W 4886  11.289   9.935   0.748
  836W        W 4887   1.207   0.575   2.875
  837W        W 4888   7.773  10.645   0.773
  838W        W 4889   0.683   8.894   2.766
  839W        W 4890  10.022   5.664   0.979
  840W        W 4891   8.041  10.751   1.219
  841W        W 4892   6.268   9.194   3.138
  842W        W 4893   1.515   6.229   9.872
  843W        W 4894   6.426   0.295  11.663
  844W        W 4895   0.956   8.409   9.857
  845W        W 4896   6.640   9.403   1.069
  846W        W 4897  10.846   2.176   1.755
  847W        W 4898   4.209  10.787   2.463
  848W        W 4899   2.650   3.676   2.035
  849W        W 4900   7.873   0.353   2.714
  850W        W 4901   6.549   8.120  11.343
  851W        W 4902   0.665   2.145   1.735
  852W        W 4903   0.785   0.812   0.768
  853W        W 4904   1.292   3.116  11.575
  854W        W 4905  11.389   4.067   3.492
  855W        W 4906   2.363   2.446   0.454
  856W        W 4907   8.355   7.499   2.297
  857W        W 4908   1.205   9.399   9.450
  858W        W 4909   4.259  11.289  11.341
  859W        W 4910   1.753   5.081   1.681
  860W        W 4911   3.825   9.273   0.442
  861W        W 4912   3.528  11.398  11.942
  862W        W 4913   7.493   5.006   0.923
  863W        W 4914   2.558   4.643  11.791
  864W        W 4915   7.742   1.437   0.570
  865W        W 4916   7.905   1.931   0.713
  866W        W 4917   0.949   2.713   8.462
  867W        W 4918   3.186   7.493   1.082
  868W        W 4919   2.705   4.094   1.250
  869W        W 4920   6.978   0.325   2.756
  870W        W 4921   2.515   8.054   8.153
  871W        W 4922   4.905   2.835   4.031
  872W        W 4923   4.267   3.364  11.493
  873W        W 4924   2.255   3.818   1.331
  874W        W 4925  11.141   7.716   0.729
  875W        W 4926   1.015   8.892   0.423
  876W        W 4927   8.466   1.772   3.199
  877W        W 4928   1.353  10.041  11.731
  878W        W 4929   9.910   8.981   9.403
  879W        W 4930   0.344   2.730   0.041
  880W        W 4931   9.833   7.445   8.546
  881W        W 4932   3.921   2.174   2.886
  882W        W 4933   6.945   5.843  10.345
  883W        W 4934   4.221   2.214   3.380
  884W        W 4935   4.286   0.862   2.221
  885W        W 4936   7.749  10.159   0.573
  886W        W 4937   0.486   6.276   1.679
  887W        W 4938   0.306   1.881  10.294
  888W        W 4939  11.433   4.692  10.573
  889W        W 4940   3.610   0.467   2.741
  890W        W 4941   5.703   1.331   0.762
  891W        W 4942   1.143  10.431   9.505
  892W        W 4943  10.915  10.412   9.289
  893W        W 4944   6.266  10.247   0.208
  894W        W 4945   4.542  11.159   9.167
  895W        W 4946   4.199   4.710   2.821
  896W        W 4947   6.637   9.486  10.475
  897W        W 4948  11.309   7.680   9.152
  898W        W 4949  10.321   9.595  10.508
  899W        W 4950   3.897   6.166  10.669
  900W        W 4951   4.102   4.105   9.267
  901W        W 4952   1.690   9.513   8.596
  902W        W 4953   1.338   8.690   1.062
  903W        W 4954   0.869   6.369   2.938
  904W        W 4955   3.605  11.438   9.535
  905W        W 4956   4.810   8.413   2.864
  906W        W 4957   8.323  10.225   2.793
  907W        W 4958   5.555  10.596   2.970
  908W        W 4959   7.584   8.449  10.365
  909W        W 4960   0.197   1.442  11.892
  910W        W 4961   6.001   3.190   0.118
  911W        W 4962   0.634   7.076   9.470
  912W        W 4963   3.422   8.911   1.946
  913W        W 4964  11.288   8.039   3.075
  914W        W 4965   1.714   7.349   2.939
  915W        W 4966   3.085   5.277   8.208
  916W        W 4967   8.161   2.779  11.278
  917W        W 4968   9.304   0.479   2.746
  918W        W 4969   8.629   1.078   2.618
  919W        W 4970   9.389   2.154   0.338
  920W        W 4971  10.961  10.559   0.757
  921W        W 4972   2.268   9.105   9.981
  922W        W 4973   6.587   1.960   1.467
  923W        W 4974   5.669   1.935   1.994
  924W        W 4975   4.299   0.739  11.380
  925W        W 4976   6.125   3.813   0.395
  926W        W 4977   4.743   6.268  10.319
  927W        W 4978   0.319   2.278  10.906
  928W        W 4979   8.014   7.957   1.382
  929W        W 4980   6.587  10.429  10.760
  930W        W 4981   2.127   4.318   0.514
  931W        W 4982   3.183   5.538  10.517
  932W        W 4983   4.485   8.827   9.341
  933W        W 4984  10.381   2.412  10.916
  934W        W 4985   9.669   4.131   1.848
  935W        W 4986   1.537   6.357   3.527
  936W        W 4987   5.130   1.967   3.651
  937W        W 4988   3.257  10.218   2.688
  938W        W 4989   8.589   3.350   3.103
  939W        W 4990   6.176   1.396   2.683
  940W        W 4991  11.007   3.647   1.417
  941W        W 4992   8.541   6.150   9.161
  942W        W 4993  11.122   8.107   3.550
  943W        W 4994   8.039  11.448   8.923
  944W        W 4995   5.973  10.429   2.632
  945W        W 4996   3.588   6.381   2.710
  946W        W 4997   3.661   3.713   3.052
  947W        W 4998   9.394  10.512  10.292
  948W        W 4999   0.419   7.009   2.561
  949W        W 5000   2.104   9.990   2.852
  950W        W 5001   9.777   3.277  11.897
  951W        W 5002   7.613   2.227  10.925
  952W        W 5003   9.005  11.050   0.434
  953W        W 5004   9.298   5.094   1.464
  954W        W 5005   6.733   8.919   9.205
  955W        W 5006   8.294   9.132  11.765
  956W        W 5007   5.747   3.755   1.631
  957W        W 5008   1.326   3.780   2.878
  958W        W 5009   5.233   8.051   9.617
  959W        W 5010   0.988   1.683   1.445
  960W        W 5011   0.289   9.491   1.476
  961W        W 5012  10.398   3.234   2.190
  962W        W 5013   2.646  10.910   8.949
  963W        W 5014   5.752   7.180  11.292
  964W        W 5015   1.351   0.440   3.373
  965W        W 5016   8.603   5.908  10.962
  966W        W 5017   5.171   4.626  11.753
  967W        W 5018   1.030   0.647   1.740
  968W        W 5019   5.621   7.563  10.984
  969W        W 5020   2.132   5.968  10.911
  970W        W 5021   9.490   5.196   3.412
  971W        W 5022   3.772   8.032   8.914
  972W        W 5023   4.156   7.646   9.038
  973W        W 5024   7.144   2.317   3.011
  974W        W 5025   8.745   4.955  10.765
  975W        W 5026   0.815   0.215   1.896
  976W        W 5027   4.382   1.331   1.373
  977W        W 5028   6.998   2.757   8.996
  978W        W 5029   7.635   3.885   3.291
  979W        W 5030  11.498   4.269   0.163
  980W        W 5031   2.671   8.508   1.713
  981W        W 5032  10.870  10.352   0.293
  982W        W 5033   3.152   2.901   9.152
  983W        W 5034   1.361   2.768  11.002
  984W        W 5035   3.265   9.833   8.854
  985W        W 5036   5.063   5.862  11.355
  986W        W 5037   5.144   9.609   8.059
  987W        W 5038  10.951   8.099   2.687
  988W        W 5039   6.436   9.133   1.842
  989W        W 5040   5.677  10.126   8.545
  990W        W 5041   7.043   8.389   9.077
  991W        W 5042   6.011   5.558   9.646
  992W        W 5043   8.895   5.530  10.570
  993W        W 5044   7.457   3.609   0.774
  994W        W 5045   6.312   2.694   2.918
  995W        W 5046   8.087   5.535   0.692
  996W        W 5047   1.438   6.238   8.986
  997W        W 5048   6.664   0.069  10.853
  998W        W 5049   8.061   6.430   0.292
  999W        W 5050  10.591   4.513   9.613
 1000W        W 5051   9.562   3.553   2.665
 1001W        W 5052   4.178   2.840  10.029
 1002W        W 5053   0.348   4.545   9.822
 1003W        W 5054  10.003   9.082  11.510
 1004W        W 5055   2.647   6.585   2.906
 1005W        W 5056   3.272  10.574   3.223
 1006W        W 5057   9.904   1.691   3.479
 1007W        W 5058   9.402   5.550  11.751
 1008W        W 5059   7.982   9.974   3.244
 1009W        W 5060   1.239   4.559   9.855
 1010W        W 5061   9.014   9.364  11.458
 1011W        W 5062   3.601   0.418   0.048
 1012W        W 5063   3.061   3.087   8.378
 1013W        W 5064   0.249   9.115   0.059
 1014W        W 5065   8.143   8.925   0.578
 1015W        W 5066   9.743   6.640   0.423
 1016W        W 5067   9.338   9.394   9.943
 1017W        W 5068   5.227   1.937   0.728
 1018W        W 5069   3.142   2.383   2.159
 1019W        W 5070   9.316   5.913   1.945
 1020W        W 5071   0.944   1.524  11.096
 1021W        W 5072   2.887   1.624  10.481
 1022W        W 5073   3.770   0.285   9.173
 1023W        W 5074   0.408   6.466   3.288
 1024W        W 5075   1.842   3.615   9.385
 1025W        W 5076   9.940  10.015   3.383
 1026W        W 5077   5.948   0.491   9.280
 1027W        W 5078  11.370   7.034   1.711
 1028W        W 5079   7.674   2.609  11.945
 1029W        W 5080   8.429   0.248   0.467
 1030W        W 5081   5.769  10.917   9.187
 1031W        W 5082   8.433   8.096   9.095
 1032W        W 5083   0.318   5.166   3.014
 1033W        W 5084   4.820   8.920   0.935
 1034W        W 5085   0.549   3.982  11.882
 1035W        W 5086   0.418   6.276   9.767
 1036W        W 5087   8.744   1.441  11.781
 1037W        W 5088  11.264  11.214  10.304
 1038W        W 5089   2.612   8.111   2.098
 1039W        W 5090   3.632   8.417   9.730
 1040W        W 5091   7.892   6.948   2.599
 1041W        W 5092   9.571   2.376  11.104
 1042W        W 5093   6.947   0.792   1.293
 1043W        W 5094   6.248   6.354   8.559
 1044W        W 5095   2.181   8.323  10.722
 1045W        W 5096   0.925   1.369   9.074
 1046W        W 5097   2.065   6.852   9.524
 1047W        W 5098   9.758  10.283   8.996
 1048W        W 5099  11.055   7.699  10.491
 1049W        W 5100   1.193   1.957   0.710
 1050W        W 5101   8.596   9.951   1.149
 1051W        W 5102   6.037   8.190   3.057
 1052W        W 5103  11.038   9.839   0.318
 1053W        W 5104   4.797   9.785   2.636
 1054W        W 5105   6.152   1.375   1.151
 1055W        W 5106   1.757  11.245  11.105
 1056W        W 5107   9.391   6.634   0.076
 1057W        W 5108   8.287   0.256   3.017
 1058W        W 5109   2.435   0.717   0.307
 1059W        W 5110   2.588   6.139  11.041
 1060W        W 5111   3.762   0.065   0.385
 1061W        W 5112   7.973   8.974   1.581
 1062W        W 5113   6.640   8.953   0.291
 1063W        W 5114   0.891   3.397  11.453
 1064W        W 5115   0.840   6.783  10.902
 1065W        W 5116   8.165   6.667   1.766
 1066W        W 5117   2.429   4.829   1.209
 1067W        W 5118   9.412   2.446  10.646
 1068W        W 5119   5.102   2.645   1.296
 1069W        W 5120   0.888   3.660  10.892
 1070W        W 5121   7.567   7.217   0.301
 1071W        W 5122  10.136   7.904   0.676
 1072W        W 5123   6.709   9.321   9.979
 1073W        W 5124   9.856  10.131   1.826
 1074W        W 5125   2.198   4.684   0.161
 1075W        W 5126   2.202   7.947   2.370
 1076W        W 5127  11.187   6.486  11.256
 1077W        W 5128  10.910   9.980  10.058
 1078W        W 5129   1.596   2.352   1.448
 1079W        W 5130   6.511   1.714   1.000
 1080W        W 5131   1.933   1.348   9.402
 1081W        W 5132  11.379   7.261   0.802
 1082W        W 5133   9.885  10.871   9.928
 1083W        W 5134   1.183   9.569   0.865
 1084W        W 5135   0.718   2.309  11.296
 1085W        W 5136   9.528  10.374   0.024
 1086W        W 5137   9.331   7.608   1.002
 1087W        W 5138  10.856   7.181   3.084
 1088W        W 5139   6.617   1.462   1.469
 1089W        W 5140   5.519   6.689   1.829
 1090W        W 5141   9.426   1.892  11.068
 1091W        W 5142   9.289   1.422  11.835
 1092W        W 5143   4.701   7.750   2.953
 1093W        W 5144   6.542   3.739  10.916
 1094W        W 5145   5.137   8.041   3.033
 1095W        W 5146   9.521   8.868  10.803
 1096W        W 5147   9.483   1.658   1.506
 1097W        W 5148   2.875   9.478   2.204
 1098W        W 5149  11.321   5.112   2.878
 1099W        W 5150   7.613   9.321  10.489
 1100W        W 5151   2.875   0.942  11.431
 1101W        W 5152   2.271   4.366   9.825
 1102W        W 5153   3.768   7.980  11.025
 1103W        W 5154   5.142   6.669  10.845
 1104W        W 5155   9.752   7.016   0.965
 1105W        W 5156   0.233   2.853   8.972
 1106W        W 5157   3.682  10.361   2.928
 1107W        W 5158   3.200  11.363  10.619
 1108W        W 5159  10.962  10.833   2.523
 1109W        W 5160  10.824   6.331   2.763
 1110W        W 5161  11.119  11.115  11.502
 1111W        W 5162   0.391   6.018  10.755
 1112W        W 5163   8.180   2.825   1.265
 1113W        W 5164   7.509   2.643   9.030
 1114W        W 5165   7.050   7.038   2.070
 1115W        W 5166   0.328   9.018   3.125
 1116W        W 5167   9.869   1.790   1.183
 1117W        W 5168   2.906   5.483   0.735
 1118W        W 5169   7.953   8.369  11.321
 1119W        W 5170   7.921   0.678   3.116
 1120W        W 5171   8.977   8.680   2.777
 1121W        W 5172   2.083   0.891   0.659
 1122W        W 5173   8.009   3.861  10.078
 1123W        W 5174   9.367   7.428   9.852
 1124W        W 5175   0.850   0.496   8.835
 1125W        W 5176   4.749   4.357   2.937
 1126W        W 5177   7.044   5.028  11.331
 1127W        W 5178  11.015   4.082   0.614
 1128W        W 5179   4.417   1.304   2.759
 1129W        W 5180   2.545   4.212  10.216
 1130W        W 5181   6.421   2.748   1.667
 1131W        W 5182   3.301   0.441   9.428
 1132W        W 5183   7.036   2.973   9.821
 1133W        W 5184   5.180   4.031   8.355
 1134W        W 5185   0.065   2.852  11.230
 1135W        W 5186   6.834  10.739   0.577
 1136W        W 5187   2.697  10.812   9.917
 1137W        W 5188   4.565   2.210  11.932
 1138W        W 5189   7.094   6.515  11.409
 1139W        W 5190  10.243   4.042  10.408
 1140W        W 5191   7.893   5.030   1.473
 1141W        W 5192   6.346   3.289   3.250
 1142W        W 5193   4.295   4.219   2.651
 1143W        W 5194  11.362   7.521   3.191
 1144W        W 5195   1.255   6.668   9.753
 1145W        W 5196   9.453   4.046   2.846
 1146W        W 5197   4.738   4.118   8.638
 1147W        W 5198  10.033   8.625   1.939
 1148W        W 5199   0.884   7.709  10.662
 1149W        W 5200   8.979   5.619   0.979
 1150W        W 5201   0.931   0.226  10.211
 1151W        W 5202   1.148  10.200   2.780
 1152W        W 5203  10.118   3.062  10.530
 1153W        W 5204  11.020   1.163   0.560
 1154W        W 5205   4.601   2.260   2.380
 1155W        W 5206   7.337   1.453   9.061
 1156W        W 5207   3.810   0.389  10.195
 1157W        W 5208   2.506   1.755   8.817
 1158W        W 5209   6.683  10.919   8.726
 1159W        W 5210   3.836   4.626  11.356
 1160W        W 5211   6.187   2.957  10.338
 1161W        W 5212   3.048   5.544   8.865
 1162W        W 5213   0.269   3.166  10.823
 1163W        W 5214   2.439   4.629  11.301
 1164W        W 5215   0.133   1.800   8.853
 1165W        W 5216   4.248   5.015   9.557
 1166W        W 5217  10.014   1.694   2.618
 1167W        W 5218   9.068   4.287   2.600
 1168W        W 5219  11.261   3.114  10.867
 1169W        W 5220   8.370   1.756   0.862
 1170W        W 5221   1.267   8.459  11.553
 1171W        W 5222   6.930   6.213   9.134
 1172W        W 5223  11.396   3.182   1.345
 1173W        W 5224  10.668   1.867   3.935
 1174W        W 5225   1.173  10.288  10.412
 1175W        W 5226   9.083   9.027   2.001
 1176W        W 5227   8.937   1.885  11.929
 1177W        W 5228   4.242   9.934   2.781
 1178W        W 5229   8.975   6.925   1.202
 1179W        W 5230   6.878   3.110   9.370
 1180W        W 5231   6.210   8.501  11.276
 1181W        W 5232   9.416   3.594   3.154
 1182W        W 5233   8.556   2.078   1.280
 1183W        W 5234   8.508   8.050   2.764
 1184W        W 5235   9.897   9.328  10.653
 1185W        W 5236   7.474   2.789   2.336
 1186W        W 5237   8.960   7.146  10.848
 1187W        W 5238  10.803   9.792   1.875
 1188W        W 5239   4.754   9.483   8.461
 1189W        W 5240   8.132   1.820   2.247
 1190W        W 5241   8.017   6.437  11.438
 1191W        W 5242   7.592   5.323  10.608
 1192W        W 5243   7.066   9.069  11.993
 1193W        W 5244   7.115  10.987   9.028
 1194W        W 5245   8.873   4.562   8.637
 1195W        W 5246   4.170   2.601   3.004
 1196W        W 5247   5.670   3.852   0.717
 1197W        W 5248   1.261   6.546  11.272
 1198W        W 5249   8.492   8.998   3.239
 1199W        W 5250   4.140   0.467   8.832
 1200W        W 5251   8.728  10.911   0.952
 1201W        W 5252   6.550   8.446   9.694
 1202W        W 5253   2.332   8.648  10.342
 1203W        W 5254   0.502   1.031  11.810
 1204W        W 5255   0.389   4.385   1.724
 1205W        W 5256   0.407   0.475   2.081
 1206W        W 5257  11.303  10.775   0.410
 1207W        W 5258  10.518   4.802  10.027
 1208W        W 5259   1.804   1.744  10.095
 1209W        W 5260   6.474   4.734   0.384
 1210W        W 5261   1.210   4.998   3.186
 1211W        W 5262  10.341   6.268  11.239
 1212W        W 5263   6.110   9.624  10.572
 1213W        W 5264  10.893   7.891   1.786
 1214W        W 5265   3.305   8.335   8.931
 1215W        W 5266   2.277   6.170   9.327
 1216W        W 5267   9.922   5.436   8.710
 1217W        W 5268  10.402   2.138   9.588
 1218W        W 5269   1.845   0.184   2.717
 1219W        W 5270   3.372   1.287   8.785
 1220W        W 5271   7.190   7.283  10.061
 1221W        W 5272   8.574  10.781   0.468
 1222W        W 5273   6.416   8.002   9.002
 1223W        W 5274   6.631   5.422   0.043
 1224W        W 5275   7.477   1.540   2.377
 1225W        W 5276   6.742   9.514   3.216
 1226W        W 5277   3.482   8.633  11.760
 1227W        W 5278   5.902   2.942   0.836
 1228W        W 5279  10.891   5.547  10.036
 1229W        W 5280   2.421   1.788  11.395
 1230W        W 5281   7.219  10.662   0.222
 1231W        W 5282   0.027  10.895   0.894
 1232W        W 5283   3.293   7.455   2.057
 1233W        W 5284   8.901   7.583  11.100
 1234W        W 5285   6.250  10.021  10.925
 1235W        W 5286   3.732  10.922  10.007
 1236W        W 5287  10.071   9.105   1.778
 1237W        W 5288   3.794   7.041   0.508
 1238W        W 5289   9.403   7.149   1.864
 1239W        W 5290   3.631   9.383   9.232
 1240W        W 5291   3.835   9.865   1.207
 1241W        W 5292   1.312   5.326   9.431
 1242W        W 5293  11.338   8.564   8.965
 1243W        W 5294   8.243   6.372   8.791
 1244W        W 5295   6.922  11.445   3.293
 1245W        W 5296   2.390   1.324   9.141
 1246W        W 5297   6.383   9.153  11.278
 1247W        W 5298   3.130   1.847   9.533
 1248W        W 5299   6.565   2.463  11.892
 1249W        W 5300   3.713   9.832   2.058
 1250W        W 5301   6.181  11.065  11.291
 1251W        W 5302   7.149   7.083   0.554
 1252W        W 5303   2.334   9.887   1.738
 1253W        W 5304   8.504   9.415  11.057
 1254W        W 5305   5.522   5.640   9.533
 1255W        W 5306   7.644   7.993  10.143
 1256W        W 5307   1.146   0.374  11.213
 1257W        W 5308   1.314   8.146   1.925
 1258W        W 5309   7.550  10.872  11.451
 1259W        W 5310   1.687   4.557   9.562
 1260W        W 5311   8.887   1.657   2.908
 1261W        W 5312   5.146   8.624   0.353
 1262W        W 5313   5.640  10.028   1.425
 1263W        W 5314   9.844  10.293  10.337
 1264W        W 5315   9.045   3.695   8.624
 1265W        W 5316   5.659   8.645   0.461
 1266W        W 5317   2.032  11.291  11.915
 1267W        W 5318   7.438   4.002  11.934
 1268W        W 5319   4.586   6.744   2.913
 1269W        W 5320   5.355   5.075   2.621
 1270W        W 5321   9.499   3.016   2.489
 1271W        W 5322   9.154   1.234  10.040
 1272W        W 5323   0.639   0.551  10.493
 1273W        W 5324   4.547  10.365   8.508
 1274W        W 5325   1.230   3.556   9.860
 1275W        W 5326   0.760   0.073  11.400
 1276W        W 5327   0.625   7.150   1.279
 1277W        W 5328  10.413  10.835  10.997
 1278W        W 5329   1.911   5.046   2.629
 1279W        W 5330   1.466   9.734   1.270
 1280W        W 5331   3.660   2.347   0.690
 1281W        W 5332   6.711   6.851   2.391
 1282W        W 5333   8.444   7.103   0.329
 1283W        W 5334   5.278   3.299   2.245
 1284W        W 5335   0.226   2.307   9.116
 1285W        W 5336   1.756   6.876   2.741
 1286W        W 5337   5.266   0.187   0.401
 1287W        W 5338   0.043  10.292   2.346
 1288W        W 5339   6.747   9.982  10.991
 1289W        W 5340   5.997   8.490  11.761
 1290W        W 5341   8.064   7.242  11.113
 1291W        W 5342   9.815   9.417   0.686
 1292W        W 5343   2.398  11.339   0.276
 1293W        W 5344   2.390   9.421   0.391
 1294W        W 5345   8.487   5.622   3.599
 1295W        W 5346   4.259   3.565   0.911
 1296W        W 5347   6.970   2.356  10.992
 1297W        W 5348   8.430   3.282   9.495
 1298W        W 5349   9.188  10.113   0.408
 1299W        W 5350  10.189   8.603  11.580
 1300W        W 5351  11.434   8.629   9.918
 1301W        W 5352   6.516   0.637   0.057
 1302W        W 5353   6.137  11.021   3.417
 1303W        W 5354   0.154   7.195   9.812
 1304W        W 5355   2.916   7.573   2.990
 1305W        W 5356   0.428   8.997   1.741
 1306W        W 5357  10.527   8.512  11.972
 1307W        W 5358   7.204   5.667   1.091
 1308W        W 5359   3.388   5.251   9.131
 1309W        W 5360   9.902   8.146   2.817
 1310W        W 5361   2.906   5.475   1.750
 1311W        W 5362   2.404   3.310   1.194
 1312W        W 5363   3.877   1.298   8.615
 1313W        W 5364   8.715   6.672  10.835
 1314W        W 5365  10.417   1.494  10.439
 1315W        W 5366   7.169   6.503   3.176
 1316W        W 5367  11.477   6.132  11.995
 1317W        W 5368   0.175   1.064   0.257
 1318W        W 5369  11.448   3.389  10.430
 1319W        W 5370   8.873   3.211   8.537
 1320W        W 5371   0.065   6.094   1.916
 1321W        W 5372   5.998   4.095   9.441
 1322W        W 5373   9.879   3.706   0.634
 1323W        W 5374   4.630   8.563   0.444
 1324W        W 5375  10.814   3.472   2.392
 1325W        W 5376   0.463  10.009   2.208
 1326W        W 5377   5.053  11.447   0.826
 1327W        W 5378   7.266   6.193  10.596
 1328W        W 5379   3.779  11.135  11.421
 1329W        W 5380   2.663   9.319  11.944
 1330W        W 5381  10.614   7.861   0.515
 1331W        W 5382   1.705   4.865  11.033
 1332W        W 5383   6.905  11.387   9.499
 1333W        W 5384   1.881   8.829   0.284
 1334W        W 5385   8.551   2.358   2.361
 1335W        W 5386   3.668   2.858   0.725
 1336W        W 5387  10.679  11.404   0.655
 1337W        W 5388   2.865   4.186   2.660
 1338W        W 5389   3.149   0.321   1.524
 1339W        W 5390   0.274   5.530   9.813
 1340W        W 5391   6.312  10.449  10.311
 1341W        W 5392   4.930   0.649   1.671
 1342W        W 5393   0.243   3.126   0.389
 1343W        W 5394   2.951   0.136  10.175
 1344W        W 5395   0.482   3.085  11.433
 1345W        W 5396   1.979   8.112  11.901
 1346W        W 5397   4.571   7.573  11.548
 1347W        W 5398   7.311   0.527   8.920
 1348W        W 5399   6.575   7.887   2.358
 1349W        W 5400   7.549   2.290   0.782
 1350W        W 5401   3.769   5.204   0.258
 1351W        W 5402   3.702   4.487   1.893
 1352W        W 5403   8.139   4.623   8.656
 1353W        W 5404   7.852   8.459  11.924
 1354W        W 5405   5.490   8.964   8.582
 1355W        W 5406   0.819   9.228   3.126
 1356W        W 5407   2.796   2.107  10.360
 1357W        W 5408   0.488   1.298   2.656
 1358W        W 5409   5.313  11.360   1.748
 1359W        W 5410  10.279   9.480  11.313
 1360W        W 5411  10.722  10.407   1.331
 1361W        W 5412   2.783   2.391   0.776
 1362W        W 5413   8.009   6.006   4.124
 1363W        W 5414   2.321  10.874  11.800
 1364W        W 5415   6.992   1.518   0.726
 1365W        W 5416   0.018   9.953   8.824
 1366W        W 5417   0.467   3.055   9.774
 1367W        W 5418  10.639   3.906   0.289
 1368W        W 5419   2.815   3.761   9.455
 1369W        W 5420   4.595   9.477  10.696
 1370W        W 5421   5.666   1.723   2.927
 1371W        W 5422   3.407   1.418   2.885
 1372W        W 5423   5.292   9.468   8.537
 1373W        W 5424   0.225   0.333  10.755
 1374W        W 5425  10.879  10.123  11.286
 1375W        W 5426   4.622  10.060   2.221
 1376W        W 5427   4.931   0.780   9.777
 1377W        W 5428   4.045   4.635   3.544
 1378W        W 5429  10.536   7.227  11.541
 1379W        W 5430   6.794   3.658   9.176
 1380W        W 5431   4.525   4.464   9.559
 1381W        W 5432   3.812   0.401  11.579
 1382W        W 5433  10.883   4.170   1.140
 1383W        W 5434   5.174   9.876   3.627
 1384W        W 5435   4.354   1.432   9.948
 1385W        W 5436   7.480   0.817   3.396
 1386W        W 5437   9.036   0.799   2.457
 1387W        W 5438   8.545   7.585   9.269
 1388W        W 5439   3.685   2.655   9.275
 1389W        W 5440   8.548   7.543   2.787
 1390W        W 5441   9.015   4.608   1.310
 1391W        W 5442   8.594   2.584   0.528
 1392W        W 5443   6.073   3.307   1.154
 1393W        W 5444   2.722   7.941   2.641
 1394W        W 5445   3.189  10.311   0.103
 1395W        W 5446  10.599   9.837  10.901
 1396W        W 5447   7.604   4.372   1.454
 1397W        W 5448   2.382   7.860  10.733
 1398W        W 5449   8.632   6.363  11.721
 1399W        W 5450   8.967   9.629  11.007
 1400W        W 5451   5.767   0.374   0.495
 1401W        W 5452   6.076   8.096   8.594
 1402W        W 5453   6.044   7.276   4.029
 1403W        W 5454   4.087  10.961   9.039
 1404W        W 5455   0.878   3.900  11.360
 1405W        W 5456   4.337   8.849   0.760
 1406W        W 5457   2.788   2.478  11.828
 1407W        W 5458   7.789   6.661   9.984
 1408W        W 5459   9.591   2.876   9.462
 1409W        W 5460  10.095   9.005   9.874
 1410W        W 5461   3.667   0.795   8.952
 1411W        W 5462   4.736   9.055  11.469
 1412W        W 5463   8.791  10.903   2.363
 1413W        W 5464   3.867   5.266  10.560
 1414W        W 5465   6.675   3.783   0.262
 1415W        W 5466   8.036   9.619   9.875
 1416W        W 5467   9.090   5.735   2.797
 1417W        W 5468   7.668   4.168  11.037
 1418W        W 5469  10.732   9.812  11.779
 1419W        W 5470   3.139   9.095  10.154
 1420W        W 5471   5.831   5.201  11.604
 1421W        W 5472   3.382   6.067  10.672
 1422W        W 5473   6.524   6.675   1.687
 1423W        W 5474   9.551   6.154  10.815
 1424W        W 5475   6.928  10.862  10.663
 1425W        W 5476   8.137   8.978   1.093
 1426W        W 5477   3.334   8.053  10.222
 1427W        W 5478   4.226   2.321  10.455
 1428W        W 5479  10.814   2.776   9.149
 1429W        W 5480   0.477  10.972   1.188
 1430W        W 5481   0.979  11.321   1.400
 1431W        W 5482   8.914   7.323   9.527
 1432W        W 5483   2.164   3.415   1.894
 1433W        W 5484   9.162   7.084  11.938
 1434W        W 5485   2.891   7.879  11.930
 1435W        W 5486   2.373   0.541   1.995
 1436W        W 5487   1.143   9.659   2.932
 1437W        W 5488   8.853   0.740  11.472
 1438W        W 5489   2.942   3.035   3.106
 1439W        W 5490   4.272   2.824   0.360
 1440W        W 5491   4.647   4.263   9.113
 1441W        W 5492   4.718   2.960   1.424
 1442W        W 5493   5.227   5.593  10.947
 1443W        W 5494   5.727  11.080   3.080
 1444W        W 5495  11.066   6.064   9.908
 1445W        W 5496   1.257   4.817   9.404
 1446W        W 5497   2.312   4.342   8.435
 1447W        W 5498   2.413   2.715  11.552
 1448W        W 5499   5.795   7.114  10.416
 1449W        W 5500   1.292   1.104  11.109
 1450W        W 5501   8.736   4.241   9.212
 1451W        W 5502   7.430   5.194   1.847
 1452W        W 5503   5.141   1.689  11.253
 1453W        W 5504   6.590   6.132  10.038
 1454W        W 5505   6.586   4.514   2.526
 1455W        W 5506   1.188   5.666   1.333
 1456W        W 5507  10.273   0.635   0.100
 1457W        W 5508   3.115   8.858   2.357
 1458W        W 5509   3.406  10.779  10.865
 1459W        W 5510   8.106   4.115   3.149
 1460W        W 5511   3.154   3.527   2.755
 1461W        W 5512   4.715  10.932   9.695
 1462W        W 5513   9.846   0.289  10.402
 1463W        W 5514   5.688   3.384   8.938
 1464W        W 5515   9.087   4.597  10.948
 1465W        W 5516  10.707   1.807   0.872
 1466W        W 5517   5.186   3.722   1.369
 1467W        W 5518   9.098   4.165   8.864
 1468W        W 5519   9.745   5.288   1.239
 1469W        W 5520   9.944   8.143   0.282
 1470W        W 5521  10.397  10.923   3.266
 1471W        W 5522  10.073   2.371   2.881
 1472W        W 5523   1.280   2.374   1.043
 1473W        W 5524   7.092   0.273   1.305
 1474W        W 5525   2.165   2.136  10.987
 1475W        W 5526   7.369   7.180   2.456
 1476W        W 5527   0.004   9.560   2.762
 1477W        W 5528   9.127   6.594   9.090
 1478W        W 5529   3.148   8.928   9.138
 1479W        W 5530   4.110   9.540  10.439
 1480W        W 5531   1.911   2.208   0.417
 1481W        W 5532   4.818  10.577   1.292
 1482W        W 5533   6.216   6.216   3.034
 1483W        W 5534   3.719   5.401  11.782
 1484W        W 5535   0.139   8.890   2.145
 1485W        W 5536   6.072   6.178  11.930
 1486W        W 5537   0.901   6.466   1.908
 1487W        W 5538   5.165   3.623  10.993
 1488W        W 5539   9.284   6.298  11.285
 1489W        W 5540   8.944   3.284  10.461
 1490W        W 5541   4.569   0.262  11.960
 1491W        W 5542   1.765   9.184  11.349
 1492W        W 5543   9.662   0.585   9.454
 1493W        W 5544   9.765   0.785  11.419
 1494W        W 5545  10.394  11.343   1.877
 1495W        W 5546  10.834   1.315  11.090
 1496W        W 5547   3.712   3.368  10.923
 1497W        W 5548   0.466   3.844   2.307
 1498W        W 5549   4.594   0.752   0.776
 1499W        W 5550   9.029   8.090  10.179
 1500W        W 5551  10.798   0.293   0.990
 1501W        W 5552  10.144  10.405   9.951
 1502W        W 5553   8.541  11.243   0.178
 1503W        W 5554   1.011  10.538   2.429
 1504W        W 5555   5.135  11.449   2.730
 1505W        W 5556   5.461   4.048   3.626
 1506W        W 5557   1.994   9.883   9.379
 1507W        W 5558   4.959   1.264   2.613
 1508W        W 5559   6.631   2.675  10.382
 1509W        W 5560   5.163   4.001   4.034
 1510W        W 5561   9.116   6.345   8.646
 1511W        W 5562   8.902   7.420   1.224
 1512W        W 5563  10.563   4.291  10.087
 1513W        W 5564   2.181   9.132  11.989
 1514W        W 5565   8.070   5.023   4.055
 1515W        W 5566   7.614   7.126   1.250
 1516W        W 5567   1.679   6.924   3.251
 1517W        W 5568   0.067   5.969   9.941
 1518W        W 5569   4.423  10.396  11.349
 1519W        W 5570   9.508   9.888   1.249
 1520W        W 5571   5.538   9.631  11.330
 1521W        W 5572   2.665   1.065   1.266
 1522W        W 5573   3.319   2.266   9.277
 1523W        W 5574  11.055   9.433  11.723
 1524W        W 5575   2.293   2.254   0.915
 1525W        W 5576   9.036   6.785   1.964
 1526W        W 5577   7.800   5.741   9.866
 1527W        W 5578  11.103   4.482  10.891
 1528W        W 5579   8.011   4.692   2.181
 1529W        W 5580   7.376   4.693  11.023
 1530W        W 5581   4.241  11.392   2.618
 1531W        W 5582   3.664   6.612   0.271
 1532W        W 5583   5.919   0.925   8.502
 1533W        W 5584  10.862   8.198   0.222
 1534W        W 5585  10.796   1.807  10.501
 1535W        W 5586   9.430   2.621   2.028
 1536W        W 5587   1.627   1.332   9.813
 1537W        W 5588   0.480  10.545   2.302
 1538W        W 5589   9.339  11.363  11.216
 1539W        W 5590   9.976  11.435   9.527
 1540W        W 5591   2.914   5.358   0.221
 1541W        W 5592   3.365   2.591  10.651
 1542W        W 5593   4.335   3.774  11.186
 1543W        W 5594   6.614   2.232   0.974
 1544W        W 5595   2.151   1.772   9.200
 1545W        W 5596   2.182  11.413  11.417
 1546W        W 5597   4.357   0.793   0.310
 1547W        W 5598   9.574   8.042  10.087
 1548W        W 5599   4.921   8.590  10.866
 1549W        W 5600   0.609   5.909   0.708
 1550W        W 5601   3.241   4.291  11.292
 1551W        W 5602   2.252   8.621   2.968
 1552W        W 5603   1.820   0.267   9.502
 1553W        W 5604   6.375   4.021  10.481
 1554W        W 5605   4.106  11.258  10.830
 1555W        W 5606   5.986   6.130   0.866
 1556W        W 5607   0.280   1.653   9.835
 1557W        W 5608   1.439  10.236   1.361
 1558W        W 5609   3.747   6.600   9.392
 1559W        W 5610   1.160   1.839   8.957
 1560W        W 5611   7.943   0.448   1.773
 1561W        W 5612   6.265   8.806   9.994
 1562W        W 5613   8.008   4.163  11.425
 1563W        W 5614   8.600   8.411   2.013
 1564W        W 5615   8.200   6.535   3.248
 1565W        W 5616   9.621   6.952   2.293
 1566W        W 5617   0.702  11.380   0.985
 1567W        W 5618   8.761   8.721   3.760
 1568W        W 5619  11.443   9.132  10.774
 1569W        W 5620   1.298   5.994   0.070
 1570W        W 5621   8.923   6.108   0.535
 1571W        W 5622   8.511   3.397   8.871
 1572W        W 5623   4.751   8.008  11.739
 1573W        W 5624  11.277   9.655   1.734
 1574W        W 5625   6.762   8.039   9.392
 1575W        W 5626   7.129  10.486   9.214
 1576W        W 5627  10.955  10.634  11.393
 1577W        W 5628   5.489   6.116   2.298
 1578W        W 5629   6.362   6.148   2.543
 1579W        W 5630   3.276   8.568  10.385
 1580W        W 5631   2.685   5.535   2.854
 1581W        W 5632   0.311   9.466  11.330
 1582W        W 5633   3.187   6.207   3.390
 1583W        W 5634   0.577   1.504   3.653
 1584W        W 5635   0.302   7.084  11.771
 1585W        W 5636   3.670   3.854  11.815
 1586W        W 5637   9.880  11.492   1.837
 1587W        W 5638  10.403   1.290  11.351
 1588W        W 5639   6.233   7.897   0.416
 1589W        W 5640  10.999  10.006   1.462
 1590W        W 5641  10.825   1.354   9.618
 1591W        W 5642  10.456   6.486  11.977
 1592W        W 5643   0.782   1.128   3.188
 1593W        W 5644   0.904   3.792   2.575
 1594W        W 5645   9.666   2.147   2.629
 1595W        W 5646   3.148   2.085  10.758
 1596W        W 5647   4.521   0.959  10.085
 1597W        W 5648   1.356   2.325   1.910
 1598W        W 5649   8.854   4.599   2.234
 1599W        W 5650   5.788   9.019   9.941
 1600W        W 5651  11.002   9.858   2.332
 1601W        W 5652   8.859   1.738   1.036
 1602W        W 5653   8.011   7.455   1.306
 1603W        W 5654   9.040   7.652   2.879
 1604W        W 5655  10.006   7.006   8.982
 1605W        W 5656   3.382   3.380   1.411
 1606W        W 5657   9.170   7.590  11.938
 1607W        W 5658  10.620   3.606   9.617
 1608W        W 5659   8.093  10.302  11.886
 1609W        W 5660  10.091   8.844   8.936
 1610W        W 5661   6.970   4.627  11.726
 1611W        W 5662   6.576   1.145   9.598
 1612W        W 5663   6.281   8.983   2.672
 1613W        W 5664  10.007   8.952  11.000
 1614W        W 5665   8.326   6.841   0.765
 1615W        W 5666   2.828  11.386   8.800
 1616W        W 5667   2.490   0.062  10.374
 1617W        W 5668   6.644  10.914   1.335
 1618W        W 5669   4.587   9.034  11.946
 1619W        W 5670   9.411   2.881   0.891
 1620W        W 5671   5.007   2.844   3.169
 1621W        W 5672   0.183  10.338   1.410
 1622W        W 5673   9.825   4.801   2.312
 1623W        W 5674  10.079   0.380   9.736
 1624W        W 5675   3.304   9.965   1.309
 1625W        W 5676  10.897   6.460   1.307
 1626W        W 5677   6.109   3.646   1.995
 1627W        W 5678   4.149   4.259  11.199
 1628W        W 5679   0.684  10.800   3.390
 1629W        W 5680   9.384   8.052   1.816
 1630W        W 5681   0.442   6.176  11.771
 1631W        W 5682   4.213  10.125   3.294
 1632W        W 5683   9.460   3.929   2.320
 1633W        W 5684   2.857   2.595  10.500
 1634W        W 5685   0.781   4.189   0.696
 1635W        W 5686   1.796   0.911   8.670
 1636W        W 5687   3.766   3.605  11.379
 1637W        W 5688   2.176   5.684   9.127
 1638W        W 5689   8.110   5.818  10.966
 1639W        W 5690   4.995   9.511   8.942
 1640W        W 5691   3.846   7.536   3.261
 1641W        W 5692   5.623   3.680   2.105
 1642W        W 5693   5.053   3.551   2.773
 1643W        W 5694   0.057   6.700   2.386
 1644W        W 5695  10.463   3.224   2.699
 1645W        W 5696   5.657   7.643   1.938
 1646W        W 5697   7.329   0.868   8.467
 1647W        W 5698   7.994   5.006  10.363
 1648W        W 5699   4.442   1.085  11.047
 1649W        W 5700   2.661   3.289   0.223
 1650W        W 5701   0.417   0.273   3.419
 1651W        W 5702   3.222   3.604  10.549
 1652W        W 5703   3.190   6.051   9.801
 1653W        W 5704   9.896   2.862   1.145
 1654W        W 5705   0.426   8.623  10.055
 1655W        W 5706   7.105   2.841   0.455
 1656W        W 5707   8.097  10.051   2.359
 1657W        W 5708   0.836   8.363  11.278
 1658W        W 5709   6.202   5.286   2.399
 1659W        W 5710   1.899   2.263   1.851
 1660W        W 5711   3.222   5.317   2.474
 1661W        W 5712   5.803   5.037   0.388
 1662W        W 5713   5.170   9.743  11.725
 1663W        W 5714   1.375   5.764   1.799
 1664W        W 5715   2.156   9.001   8.929
 1665W        W 5716  10.519   6.985   9.078
 1666W        W 5717   5.552   7.953   8.672
 1667W        W 5718   4.711   0.932   3.623
 1668W        W 5719   6.429   2.126   9.318
 1669W        W 5720   1.291   7.631   9.020
 1670W        W 5721  11.241   2.824   1.718
 1671W        W 5722   3.422   2.243   3.004
 1672W        W 5723  10.860   3.672   0.924
 1673W        W 5724  10.996   6.170   0.546
 1674W        W 5725   0.882   8.645  10.288
 1675W        W 5726   2.679   0.526  11.240
 1676W        W 5727  11.478   8.076   2.596
 1677W        W 5728   7.310  10.767   2.143
 1678W        W 5729  10.423   0.454   8.920
 1679W        W 5730   5.498   6.694   0.383
 1680W        W 5731   2.697   0.258   0.244
 1681W        W 5732   3.519   4.000   2.012
 1682W        W 5733   9.581   2.899  11.054
 1683W        W 5734   4.597   9.364   9.385
 1684W        W 5735   8.707   5.118   0.360
 1685W        W 5736   5.108   4.059   0.092
 1686W        W 5737   1.682   9.494   9.603
 1687W        W 5738   4.781   1.461  11.531
 1688W        W 5739   5.631   9.395  11.781
 1689W        W 5740   1.821   0.476   1.193
 1690W        W 5741   2.713   3.643   3.039
 1691W        W 5742   9.963   4.827   1.246
 1692W        W 5743   9.017   4.820   2.681
 1693W        W 5744   0.042   9.423   3.285
 1694W        W 5745   4.560   4.811   0.471
 1695W        W 5746  10.709   5.769   3.629
 1696W        W 5747   7.079   9.851   2.248
 1697W        W 5748   6.136   4.891  10.390
 1698W        W 5749  10.992   0.735   0.837
 1699W        W 5750   8.458  10.040  10.355
 1700W        W 5751   2.706   3.660   1.531
 1701W        W 5752   3.832  10.257   0.695
 1702W        W 5753  11.133   0.038  11.793
 1703W        W 5754   4.464   9.315   1.273
 1704W        W 5755   4.658  10.783   1.738
 1705W        W 5756   9.067  11.371  10.548
 1706W        W 5757   4.235   7.771  10.963
 1707W        W 5758   5.506  10.782   1.185
 1708W        W 5759   7.933   3.196  11.607
 1709W        W 5760   5.517   6.824  10.056
 1710W        W 5761  10.128   5.157  10.515
 1711W        W 5762   6.241   3.170   2.178
 1712W        W 5763   8.473   5.182   3.364
 1713W        W 5764  10.826   0.752   0.330
 1714W        W 5765  10.107   6.272  11.687
 1715W        W 5766   8.928   3.562   9.951
 1716W        W 5767   4.812   6.978   2.470
 1717W        W 5768   3.331   8.155  11.829
 1718W        W 5769   1.077   7.941  11.081
 1719W        W 5770   2.247   0.947   3.148
 1720W        W 5771   4.202   8.397   9.487
 1721W        W 5772   8.137   7.852   3.071
 1722W        W 5773   7.849  11.488  10.387
 1723W        W 5774   1.475   3.730   1.175
 1724W        W 5775   7.265   4.525   8.183
 1725W        W 5776   6.185  11.221   9.092
 1726W        W 5777   7.871   5.483   1.751
 1727W        W 5778   5.596   1.720   8.970
 1728W        W 5779   2.774   2.693   1.965
 1729W        W 5780   0.428   4.068   0.362
 1730W        W 5781   2.411   8.561   8.814
 1731W        W 5782   3.850  11.128   8.617
 1732W        W 5783   8.405  10.934  11.788
 1733W        W 5784   9.510   0.098   9.371
 1734W        W 5785   5.557   8.006   3.700
 1735W        W 5786   8.979   9.984   3.009
 1736W        W 5787   0.422   0.331   1.047
 1737W        W 5788   6.330   8.013   0.922
 1738W        W 5789   6.231   4.100   8.127
 1739W        W 5790   5.185   2.566  11.779
 1740W        W 5791   3.145   8.335   3.091
 1741W        W 5792   3.071   5.575   1.244
 1742W        W 5793   0.756  10.461  10.641
 1743W        W 5794   5.339   6.938   3.566
 1744W        W 5795   5.975   4.191   3.647
 1745W        W 5796   8.881   5.072   1.131
 1746W        W 5797   6.179   4.315   0.982
 1747W        W 5798   4.685   3.721  10.810
 1748W        W 5799   6.606   7.976   8.519
 1749W        W 5800   0.933   2.919   0.754
 1750W        W 5801   1.679   3.257   1.926
 1751W        W 5802  10.932   5.535   2.195
 1752W        W 5803   9.446   4.258  10.898
 1753W        W 5804   3.680   6.167   9.674
 1754W        W 5805   3.634   3.557   9.890
 1755W        W 5806   6.317   5.382  10.433
 1756W        W 5807   9.904   4.681   8.893
 1757W        W 5808  10.787   7.664   9.051
 1758W        W 5809   4.253   5.584  10.888
 1759W        W 5810   5.726  10.489   8.913
 1760W        W 5811   5.912   3.795   2.876
 1761W        W 5812   7.228  10.105   0.434
 1762W        W 5813   3.375   9.790   3.615
 1763W        W 5814  11.445   8.060   1.877
 1764W        W 5815   5.688   4.118   0.253
 1765W        W 5816   4.157   6.680   0.286
 1766W        W 5817   6.912   0.749  10.309
 1767W        W 5818  10.455  10.541   0.564
 1768W        W 5819   2.910   2.962  11.906
 1769W        W 5820  10.032   2.562  11.286
 1770W        W 5821   4.459   6.654   3.603
 1771W        W 5822   1.332   8.928   2.417
 1772W        W 5823   2.147   3.336  10.487
 1773W        W 5824   7.942   9.163   9.670
 1774W        W 5825   3.288   4.009   2.868
 1775W        W 5826  11.151   9.492   9.526
 1776W        W 5827   2.757   3.735   8.955
 1777W        W 5828   9.092   8.070   2.264
 1778W        W 5829   7.790   2.857   2.821
 1779W        W 5830   7.504   3.134  10.915
 1780W        W 5831   8.524   0.621   1.189
 1781W        W 5832   6.536   0.799  11.561
 1782W        W 5833   6.520   2.234   2.412
 1783W        W 5834   9.663   8.702  11.311
 1784W        W 5835   3.248   9.799   2.364
 1785W        W 5836   4.610   0.351   1.390
 1786W        W 5837   6.715   1.096  11.966
 1787W        W 5838   5.204   1.000   3.465
 1788W        W 5839   4.480   5.377  10.456
 1789W        W 5840   0.994   8.523   9.368
 1790W        W 5841  10.774   8.462  10.882
 1791W        W 5842   7.105   9.755   1.215
 1792W        W 5843   1.947   2.224   9.986
 1793W        W 5844   6.532   8.346   0.237
 1794W        W 5845   3.384   9.100  11.522
 1795W        W 5846   6.015   7.901  11.010
 1796W        W 5847   6.235   6.471   9.829
 1797W        W 5848   1.233   0.969   0.941
 1798W        W 5849   1.435   3.092   9.909
 1799W        W 5850   1.701   4.555   3.325
 1800W        W 5851   4.042   6.743   2.888
 1801W        W 5852   6.032   1.835   9.505
 1802W        W 5853  10.774   9.105   2.937
 1803W        W 5854   9.769   8.444   8.947
 1804W        W 5855   1.486   8.018   0.036
 1805W        W 5856   9.411   6.652   1.050
 1806W        W 5857   9.422   4.718   3.591
 1807W        W 5858   0.663   6.722  11.786
 1808W        W 5859   2.618  10.564  11.433
 1809W        W 5860   3.797   2.158   9.051
 1810W        W 5861  10.909  10.906   9.959
 1811W        W 5862  10.954   6.646   3.177
 1812W        W 5863   8.025  10.082  10.086
 1813W        W 5864   4.683  10.898   3.302
 1814W        W 5865   1.478   9.662   0.053
 1815W        W 5866   9.521   2.668   1.479
 1816W        W 5867   4.275  10.821  10.608
 1817W        W 5868   9.238   5.162  10.722
 1818W        W 5869   3.228   3.823  11.533
 1819W        W 5870   5.700   4.261   9.950
 1820W        W 5871   4.110  10.011  10.226
 1821W        W 5872   1.257   9.106   2.895
 1822W        W 5873   2.588  10.070   2.970
 1823W        W 5874   6.626   9.437   9.253
 1824W        W 5875   1.611   5.580   0.452
 1825W        W 5876   8.905   4.169   9.694
 1826W        W 5877   9.913   7.172   2.648
 1827W        W 5878   2.471   5.314   1.007
 1828W        W 5879   4.163   3.132  11.042
 1829W        W 5880   1.385   5.795   9.615
 1830W        W 5881   1.068   2.927   3.501
 1831W        W 5882   1.719   6.645  11.003
 1832W        W 5883   1.197  10.946   9.392
 1833W        W 5884   4.124   5.221  11.541
 1834W        W 5885   0.564  10.284   8.860
 1835W        W 5886   5.014   5.781   9.581
 1836W        W 5887   1.382   3.764   1.828
 1837W        W 5888   0.242   3.531   9.907
 1838W        W 5889   9.963   0.482   8.689
 1839W        W 5890   9.520   1.935   9.009
 1840W        W 5891   4.625   3.234   0.251
 1841W        W 5892   9.178   0.468   9.546
 1842W        W 5893   3.594   4.207   3.262
 1843W        W 5894   8.531   5.381  10.943
 1844W        W 5895   5.667   8.714   1.866
 1845W        W 5896  10.098   2.728   9.433
 1846W        W 5897  10.216   3.415  10.883
 1847W        W 5898   8.001   9.473   8.810
 1848W        W 5899   0.799   8.249   2.312
 1849W        W 5900   0.728   8.096   9.242
 1850W        W 5901   9.085   6.653   2.913
 1851W        W 5902   8.542  10.336   0.197
 1852W        W 5903   6.574   2.645  11.194
 1853W        W 5904   0.243   5.878   1.473
 1854W        W 5905   1.811   2.784   1.206
 1855W        W 5906   3.493   8.406   1.618
 1856W        W 5907   3.824   4.815  10.847
 1857W        W 5908   8.071   2.649   8.456
 1858W        W 5909   1.532  11.022   0.854
 1859W        W 5910   6.727   9.893   0.366
 1860W        W 5911   5.853   6.227  11.459
 1861W        W 5912   4.661  11.275   2.918
 1862W        W 5913   7.168   9.393   1.955
 1863W        W 5914  10.654  11.388  11.783
 1864W        W 5915   2.019   6.288  11.849
 1865W        W 5916   7.471   3.346   1.574
 1866W        W 5917   5.718   4.114   3.206
 1867W        W 5918   8.091  10.833   1.723
 1868W        W 5919   2.455  10.886  10.905
 1869W        W 5920  11.267   4.275   2.987
 1870W        W 5921   7.190   2.645   9.472
 1871W        W 5922   9.273   0.661   1.778
 1872W        W 5923   7.210   3.254   3.036
 1873W        W 5924   2.199   3.690   3.267
 1874W        W 5925  10.341   3.373   9.976
 1875W        W 5926   1.366   9.203   1.982
 1876W        W 5927   3.726   2.093   8.442
 1877W        W 5928  10.273   3.903   9.889
 1878W        W 5929   6.980   5.386   2.042
 1879W        W 5930   4.573   2.719   0.983
 1880W        W 5931   6.244   3.662   1.494
 1881W        W 5932   8.357  10.832   9.518
 1882W        W 5933   4.744   5.230   0.760
 1883W        W 5934   7.111   4.536   1.714
 1884W        W 5935  11.054  11.338   0.269
 1885W        W 5936   9.725   5.938  11.727
 1886W        W 5937   6.690  10.433   9.458
 1887W        W 5938   5.295  10.951   8.975
 1888W        W 5939   6.287   2.349   1.364
 1889W        W 5940   4.606   0.552   2.427
 1890W        W 5941   0.459   2.759  10.573
 1891W        W 5942  10.841   1.985   2.749
 1892W        W 5943   6.464   6.106   0.995
 1893W        W 5944   1.945  10.131   1.954
 1894W        W 5945   1.155   0.863   9.100
 1895W        W 5946   3.490   9.572   9.677
 1896W        W 5947  10.437   2.792   2.429
 1897W        W 5948   1.246   8.035   9.362
 1898W        W 5949   0.356   0.829   2.451
 1899W        W 5950   1.695   5.549   1.428
 1900W        W 5951   3.203   8.870   3.169
 1901W        W 5952  10.044   4.992  10.031
 1902W        W 5953   2.086   1.793   1.747
 1903W        W 5954   8.423   3.274  10.422
 1904W        W 5955   3.784   3.100  11.375
 1905W        W 5956   9.040   6.073   9.060
 1906W        W 5957  11.190   5.719  11.221
 1907W        W 5958   1.787   4.598   1.494
 1908W        W 5959   8.724   2.515   2.828
 1909W        W 5960  11.365  10.561  11.097
 1910W        W 5961  10.034   2.616  10.320
 1911W        W 5962   8.249   0.914  10.393
 1912W        W 5963   5.531   2.117   2.571
 1913W        W 5964   5.611   0.376   9.628
 1914W        W 5965  10.976   5.222  11.471
 1915W        W 5966  10.116   3.567   9.516
 1916W        W 5967   0.275   7.267   2.987
 1917W        W 5968   3.330  11.354   1.423
 1918W        W 5969   6.704   6.114   8.679
 1919W        W 5970   1.430   7.054   8.403
 1920W        W 5971  11.396   5.668   9.211
 1921W        W 5972  10.120   6.061   2.236
 1922W        W 5973   5.057  10.322   2.320
 1923W        W 5974   0.419   9.899   3.483
 1924W        W 5975   9.175   9.584   0.336
 1925W        W 5976   9.016  10.475   2.204
 1926W        W 5977   1.804   8.942   1.826
 1927W        W 5978   2.231   2.750  10.081
 1928W        W 5979   4.103   4.244   1.556
 1929W        W 5980   2.239   1.955   3.791
 1930W        W 5981   4.126   3.350  10.057
 1931W        W 5982   0.192   1.463   1.703
 1932W        W 5983   8.496  10.714   2.749
 1933W        W 5984   4.633   3.858   2.819
 1934W        W 5985   6.616   8.437  10.224
 1935W        W 5986   2.994  10.448  10.116
 1936W        W 5987   3.181   1.771   9.017
 1937W        W 5988   9.602  10.778   1.002
 1938W        W 5989   3.511   8.007   0.933
 1939W        W 5990   5.417   7.824   9.172
 1940W        W 5991   4.048   2.573   2.515
 1941W        W 5992   7.687  11.033   0.458
 1942W        W 5993   3.606   2.129   0.234
 1943W        W 5994   6.574   1.257   9.073
 1944W        W 5995   8.074   8.327   2.778
 1945W        W 5996   0.891   0.375   2.409
 1946W        W 5997   6.915   3.321   0.578
 1947W        W 5998   4.176   9.070   1.701
 1948W        W 5999   3.459   0.488   3.735
 1949W        W 6000   3.675   3.555   1.791
 1950W        W 6001   9.927   4.752  10.798
 1951W        W 6002   7.224   1.866   2.695
 1952W        W 6003   8.692   3.666  11.302
 1953W        W 6004  11.420   9.892   9.319
 1954W        W 6005   9.811   0.094   1.001
 1955W        W 6006   1.477   5.095   2.135
 1956W        W 6007   2.432   6.120   8.836
 1957W        W 6008   3.375   9.494   0.399
 1958W        W 6009   8.603   5.260  11.875
 1959W        W 6010   5.994   6.066  10.969
 1960W        W 6011  10.509   3.419   0.269
 1961W        W 6012   3.102  11.349  11.118
 1962W        W 6013   8.629   8.791   1.237
 1963W        W 6014   1.768   5.975   2.213
 1964W        W 6015   1.682  10.809   9.246
 1965W        W 6016  11.278   9.764  11.363
 1966W        W 6017   5.303   8.960   0.704
 1967W        W 6018  10.553  11.360  10.939
 1968W        W 6019  11.451   7.575   1.697
 1969W        W 6020   9.922   5.591   0.030
 1970W        W 6021   1.376   1.418   3.132
 1971W        W 6022   4.775   1.702  11.987
 1972W        W 6023   6.532   7.548   1.017
 1973W        W 6024   4.986   6.545   3.597
 1974W        W 6025   3.850   3.162   1.496
 1975W        W 6026   7.128   8.846  11.058
 1976W        W 6027   3.265   2.677   1.752
 1977W        W 6028   2.264   7.913   1.201
 1978W        W 6029   3.700   0.299   3.221
 1979W        W 6030   4.155  11.216  10.294
 1980W        W 6031  10.430   5.187  11.473
 1981W        W 6032   2.831   8.816   0.787
 1982W        W 6033  10.892   3.278   9.312
 1983W        W 6034   3.952   7.120   9.265
 1984W        W 6035   3.858   3.389  11.832
 1985W        W 6036  11.414   3.113   9.977
 1986W        W 6037   2.231   8.925  11.317
 1987W        W 6038   6.217  10.803  10.754
 1988W        W 6039   2.194   2.219  11.490
 1989W        W 6040   3.268   9.053  10.640
 1990W        W 6041   1.293   5.293   1.667
 1991W        W 6042   9.748   4.600  10.194
 1992W        W 6043   3.878   8.174   8.378
 1993W        W 6044   8.102  10.456   2.039
 1994W        W 6045   6.972   8.425   0.563
 1995W        W 6046   5.545   2.364   9.747
 1996W        W 6047   0.679   6.010   1.227
 1997W        W 6048   1.685   6.699  11.990
 1998W        W 6049   6.078   8.881   1.611
 1999W        W 6050   0.638   1.822   9.035
 2000W        W 6051   2.767   1.121  10.429
 2001W        W 6052   6.076   0.413   2.281
 2002W        W 6053   8.551   9.721   1.611
 2003W        W 6054  11.440   0.903  11.849
 2004W        W 6055   7.211   7.833   9.938
 2005W        W 6056   8.636  10.020  11.072
 2006W        W 6057   3.321   2.255   9.791
 2007W        W 6058   1.808   6.428   1.942
 2008W        W 6059   3.650   8.920   9.030
 2009W        W 6060   2.246   3.673  11.278
 2010W        W 6061  10.069   0.229   1.448
 2011W        W 6062   8.244   1.533  11.292
 2012W        W 6063   2.914   1.869  11.256
 2013W        W 6064   8.392   9.565   0.028
 2014W        W 6065   0.306   7.963   9.519
 2015W        W 6066   2.708   3.468   8.520
 2016W        W 6067   1.244   9.336   3.385
 2017W        W 6068  10.815   7.040  10.853
 2018W        W 6069   3.828   7.497   0.254
 2019W        W 6070   2.007   7.711   3.173
 2020W        W 6071   1.836   1.368   2.005
 2021W        W 6072   9.392   9.383  11.864
 2022W        W 6073   1.617  10.508   1.775
 2023W        W 6074   8.019  11.468   0.890
 2024W        W 6075   8.593   0.608   2.296
 2025W        W 6076   4.266   4.550  11.701
 2026W        W 6077   2.428   7.443   4.090
 2027W        W 6078   9.520   9.831   9.027
 2028W        W 6079   8.081   5.307   3.643
 2029W        W 6080   9.635  10.954  11.301
 2030W        W 6081   8.903   3.640  10.829
 2031W        W 6082   6.104   9.488   0.765
 2032W        W 6083   2.625  10.879   0.210
 2033W        W 6084  10.568   0.262   3.247
 2034W        W 6085   1.544   2.411   0.088
 2035W        W 6086  10.872   1.182   8.598
 2036W        W 6087   9.101  11.282   2.185
 2037W        W 6088   8.156   7.541   1.815
 2038W        W 6089   3.094   1.475   3.359
 2039W        W 6090   2.256   4.920   3.797
 2040W        W 6091   0.122   6.774  10.135
 2041W        W 6092  10.378   6.999  11.973
 2042W        W 6093  10.831   6.104  11.194
 2043W        W 6094   1.680   2.767   3.201
 2044W        W 6095  10.038   2.766   8.918
 2045W        W 6096   4.812  10.074   1.371
 2046W        W 6097   5.695  11.358   8.934
 2047W        W 6098   2.788   4.553   1.464
 2048W        W 6099   4.503  11.258  11.968
 2049W        W 6100   8.977   9.495  10.304
 2050W        W 6101   3.055   7.807   0.721
 2051W        W 6102   5.678   8.170   1.844
 2052W        W 6103   6.428   3.355   9.351
 2053W        W 6104   1.099   2.216   1.485
 2054W        W 6105   5.539   5.701   0.444
 2055W        W 6106   8.905   5.924  11.418
 2056W        W 6107  11.460   6.751   0.855
 2057W        W 6108   6.745  10.426   1.499
 2058W        W 6109   4.386   6.527   0.952
 2059W        W 6110  10.786   5.143   1.396
 2060W        W 6111   0.382  10.346   9.882
 2061W        W 6112   6.954   3.771   2.290
 2062W        W 6113   4.040   7.932   0.970
 2063W        W 6114   5.522   3.295   1.685
 2064W        W 6115  11.263   0.410  11.108
 2065W        W 6116   1.810  10.408   2.776
 2066W        W 6117   0.993   9.933   1.341
 2067W        W 6118  10.460   8.962  11.272
 2068W        W 6119   9.664   8.164   9.563
 2069W        W 6120   1.903   2.513  11.761
 2070W        W 6121   5.962   6.176   8.943
 2071W        W 6122   0.655   1.636   1.890
 2072W        W 6123   2.209  11.335  10.907
 2073W        W 6124   4.187  10.278   2.388
 2074W        W 6125   5.257   9.638   4.096
 2075W        W 6126   2.935   8.377   8.105
 2076W        W 6127   2.824   2.949  10.885
 2077W        W 6128   7.396   2.994  11.748
 2078W        W 6129   5.454   4.656   0.338
 2079W        W 6130   1.815   0.206   3.249
 2080W        W 6131  10.897   5.972   2.430
 2081W        W 6132   6.941   9.917  11.474
 2082W        W 6133   5.752   4.779  10.044
 2083W        W 6134  11.470   5.071   1.828
 2084W        W 6135   8.099   2.850   8.958
 2085W        W 6136   4.137   3.038   2.712
 2086W        W 6137   3.593  11.058   0.375
 2087W        W 6138   2.255   9.048   3.250
 2088W        W 6139   1.686   1.866   0.771
 2089W        W 6140   0.298  10.021  10.638
 2090W        W 6141  10.443   5.491   9.423
 2091W        W 6142  10.821   9.655  10.458
 2092W        W 6143   1.395   1.751  11.272
 2093W        W 6144   9.230   3.889   1.843
 2094W        W 6145   2.613   3.193   1.788
 2095W        W 6146   8.561   1.837   9.535
 2096W        W 6147   8.194  11.106  10.450
 2097W        W 6148   8.226   5.062   0.480
 2098W        W 6149   2.398   5.326   0.026
 2099W        W 6150   3.186   7.965   1.324
 2100W        W 6151   3.672   7.572   9.201
 2101W        W 6152   1.319   9.431   2.447
 2102W        W 6153   7.611  10.374   9.009
 2103W        W 6154   0.060   0.576   9.802
 2104W        W 6155  10.383   2.421   0.301
 2105W        W 6156  11.052   5.982  11.645
 2106W        W 6157   1.956   3.174   9.109
 2107W        W 6158  10.002   6.177   9.895
 2108W        W 6159   6.153  10.841   2.896
 2109W        W 6160  11.458   2.764   2.185
 2110W        W 6161   7.139   7.023  11.524
 2111W        W 6162   0.047   3.335  11.356
 2112W        W 6163   5.717   0.765   2.203
 2113W        W 6164   0.198   3.186  11.863
 2114W        W 6165   3.886   1.047  11.393
 2115W        W 6166   1.900   0.249  10.864
 2116W        W 6167   6.011   4.398  10.326
 2117W        W 6168   9.342   7.588   8.810
 2118W        W 6169   3.307   5.126   9.623
 2119W        W 6170   3.407   3.255   3.147
 2120W        W 6171   3.589   9.319  10.251
 2121W        W 6172  10.195   0.299   2.922
 2122W        W 6173   3.998   8.917   9.419
 2123W        W 6174   5.406   8.098   4.210
 2124W        W 6175   2.190   8.429   2.114
 2125W        W 6176  10.418   6.542   2.438
 2126W        W 6177   8.132   9.957   0.260
 2127W        W 6178  11.324   3.909   1.026
 2128W        W 6179   0.843   7.434   1.754
 2129W        W 6180  10.479   6.760   1.352
 2130W        W 6181   1.919   9.673  11.316
 2131W        W 6182   3.280   2.250  10.293
 2132W        W 6183   8.566   2.636   3.629
 2133W        W 6184   4.608   2.424   9.589
 2134W        W 6185   3.175   9.403  11.923
 2135W        W 6186   2.104   5.613   0.337
 2136W        W 6187  10.020   1.170   2.573
 2137W        W 6188   1.047   3.646   1.471
 2138W        W 6189   9.562   9.788  10.826
 2139W        W 6190   0.784   6.148  10.388
 2140W        W 6191  10.047   0.806   9.095
 2141W        W 6192   9.137   1.262   3.227
 2142W        W 6193   9.259   8.387  11.474
 2143W        W 6194   1.893   1.920   1.275
 2144W        W 6195   4.363   4.393   0.204
 2145W        W 6196   8.649   1.759   0.419
 2146W        W 6197   9.758   6.718   1.851
 2147W        W 6198   1.663   9.405   1.614
 2148W        W 6199   4.493   8.374  10.019
 2149W        W 6200   3.764   9.682   8.832
 2150W        W 6201   3.632   0.273   2.265
 2151W        W 6202   0.468   8.860   9.288
 2152W        W 6203   2.465   3.238   3.211
 2153W        W 6204   5.071   2.996  10.014
 2154W        W 6205   5.228   8.620   3.095
 2155W        W 6206   1.433   1.743  11.776
 2156W        W 6207  10.005  10.511  11.823
 2157W        W 6208   4.570   4.218   3.407
 2158W        W 6209   4.124   2.565   0.771
 2159W        W 6210   8.279   3.692   1.881
 2160W        W 6211   0.544  10.346   1.830
 2161W        W 6212   7.862   4.100   9.340
 2162W        W 6213   0.782   3.682   9.051
 2163W        W 6214   7.062   3.360  11.049
 2164W        W 6215   1.619  10.545  10.392
 2165W        W 6216   6.601   4.573   0.869
 2166W        W 6217   5.253   1.162   9.551
 2167W        W 6218   0.106   7.083   1.246
 2168W        W 6219   2.133  11.340   2.329
 2169W        W 6220   7.040   0.390   9.430
 2170W        W 6221   2.739   5.656  11.777
 2171W        W 6222   5.557   9.457   2.282
 2172W        W 6223   0.808   4.829  10.939
 2173W        W 6224   1.746   8.060  10.067
 2174W        W 6225   2.515   9.023   1.562
 2175W        W 6226   9.624   8.461   1.645
 2176W        W 6227   8.402   2.333   3.225
 2177W        W 6228   7.034   9.717   0.729
 2178W        W 6229   9.588   7.454  11.654
 2179W        W 6230  11.242   6.075   1.489
 2180W        W 6231  10.585   6.135   2.074
 2181W        W 6232   7.696   0.669   9.284
 2182W        W 6233   1.530   9.498  10.993
 2183W        W 6234   9.964   1.714   2.117
 2184W        W 6235   3.222   6.068   1.278
 2185W        W 6236   3.790   9.260  11.248
 2186W        W 6237   5.089   5.562   0.250
 2187W        W 6238   8.646   3.748  10.385
 2188W        W 6239   0.919   9.766  11.414
 2189W        W 6240   9.900   8.886   2.389
 2190W        W 6241  11.062   3.161   0.966
 2191W        W 6242   9.790   7.495   9.050
 2192W        W 6243  10.827   7.544  10.912
 2193W        W 6244   5.486   4.096   9.526
 2194W        W 6245   7.099   7.471  11.272
 2195W        W 6246   1.792   0.514   1.723
 2196W        W 6247   9.251   0.759  10.728
 2197W        W 6248   3.714   3.270   1.021
 2198W        W 6249   8.382   6.331   0.799
 2199W        W 6250   1.787   9.033   9.790
 2200W        W 6251   3.142   0.233   0.022
 2201W        W 6252   1.371   7.102   0.067
 2202W        W 6253   2.837   7.951  10.954
 2203W        W 6254  10.443  11.347   2.991
 2204W        W 6255   0.790   9.884  10.033
 2205W        W 6256   6.470   9.988   1.821
 2206W        W 6257   6.560   0.862   3.387
 2207W        W 6258   7.675   6.338   1.191
 2208W        W 6259   7.905   5.589   0.203
 2209W        W 6260   9.405   3.765  10.802
 2210W        W 6261  10.405   7.002   2.716
 2211W        W 6262   2.285   8.465   0.195
 2212W        W 6263   5.107   7.028   1.858
 2213W        W 6264   8.468  11.328  11.205
 2214W        W 6265   5.535  10.240   3.427
 2215W        W 6266  10.452   2.753  11.892
 2216W        W 6267   6.634   0.921  11.058
 2217W        W 6268  10.994   1.352   2.930
 2218W        W 6269   7.629   3.059   3.280
 2219W        W 6270   8.904   4.235  11.650
 2220W        W 6271   1.588  10.250   0.158
 2221W        W 6272  10.634   3.549   1.836
 2222W        W 6273  11.121   9.947  10.872
 2223W        W 6274   7.535   6.252  11.519
 2224W        W 6275   4.585   9.322   0.739
 2225W        W 6276  10.287  11.131   9.257
 2226W        W 6277   5.424   3.729   3.062
 2227W        W 6278   5.607   4.837   0.812
 2228W        W 6279   0.491   0.772  10.035
 2229W        W 6280   1.479   8.648   0.556
 2230W        W 6281   7.404   5.774  11.515
 2231W        W 6282   0.436   3.563  11.628
 2232W        W 6283  10.212   3.669   3.367
 2233W        W 6284   1.405   3.551   8.968
 2234W        W 6285  10.631   7.485  10.320
 2235W        W 6286  10.826   9.073   9.585
 2236W        W 6287   3.539   4.662   0.151
 2237W        W 6288  10.554  10.563   2.316
 2238W        W 6289   6.626   6.321   9.532
 2239W        W 6290   6.198   0.652   0.452
 2240W        W 6291   6.497   7.512  10.522
 2241W        W 6292   5.182   3.542   9.130
 2242W        W 6293   4.645   2.452   1.420
 2243W        W 6294   4.053   4.783   0.290
 2244W        W 6295  10.926   6.909  11.472
 2245W        W 6296   8.105   5.928   1.559
 2246W        W 6297  10.479   4.085  11.395
 2247W        W 6298   6.743   9.811  10.079
 2248W        W 6299   8.410   3.527   9.974
 2249W        W 6300   3.318   9.311   1.326
 2250W        W 6301   8.238   1.187   9.971
 2251W        W 6302   9.762   6.045  10.347
 2252W        W 6303   2.678   1.190   3.239
 2253W        W 6304   4.252   7.203   0.235
 2254W        W 6305   3.717   1.831  10.968
 2255W        W 6306   1.782   3.734   2.621
 2256W        W 6307   7.947   9.793   0.870
 2257W        W 6308  11.275   7.267  10.971
 2258W        W 6309  10.502   7.844   2.696
 2259W        W 6310   9.411   8.508  10.435
 2260W        W 6311   6.682  10.299   9.972
 2261W        W 6312   7.095   5.151  11.816
 2262W        W 6313   2.362   9.452   2.171
 2263W        W 6314   4.294   8.544   2.901
 2264W        W 6315  10.414   7.999   0.053
 2265W        W 6316   5.552   7.123   2.212
 2266W        W 6317   2.904   7.254  10.289
 2267W        W 6318   3.826   4.590   9.045
 2268W        W 6319   0.357   0.988  10.521
 2269W        W 6320  11.213   3.672   9.977
 2270W        W 6321   6.241   3.164   2.739
 2271W        W 6322   1.197   8.772  11.944
 2272W        W 6323   3.546   8.494   2.255
 2273W        W 6324   0.075  10.094  11.102
 2274W        W 6325   0.383   6.395   9.273
 2275W        W 6326   3.742  10.522   2.460
 2276W        W 6327   1.942   4.317  11.920
 2277W        W 6328   7.945   1.467   2.599
 2278W        W 6329   2.223  10.799  10.075
 2279W        W 6330   1.235  10.949  11.856
 2280W        W 6331   7.550   4.510   0.964
 2281W        W 6332   4.585   0.684   8.967
 2282W        W 6333   7.718   8.481  10.862
 2283W        W 6334   3.412   1.767  10.453
 2284W        W 6335   8.540   8.173  10.436
 2285W        W 6336   3.368   0.287   8.362
 2286W        W 6337   6.210   7.005  11.411
 2287W        W 6338   0.447   8.130   1.708
 2288W        W 6339   4.469   0.376   3.346
 2289W        W 6340   6.308   6.962   2.682
 2290W        W 6341   2.443   6.608   0.181
 2291W        W 6342   2.968   5.123  10.007
 2292W        W 6343   5.945  10.930   0.947
 2293W        W 6344   9.004   9.100   0.041
 2294W        W 6345   0.561  11.480   2.321
 2295W        W 6346   8.710   0.416   3.275
 2296W        W 6347   4.599  10.398  10.837
 2297W        W 6348   4.240   7.624   2.741
 2298W        W 6349   1.682   9.006   8.736
 2299W        W 6350   5.492   0.193   0.892
 2300W        W 6351   5.310   6.866  11.290
 2301W        W 6352  10.267   9.890   2.648
 2302W        W 6353   2.596   8.568  11.502
 2303W        W 6354  10.917   4.335  11.348
 2304W        W 6355   1.430   2.839   0.863
 2305W        W 6356   3.126  11.366   9.681
 2306W        W 6357   7.543   7.544   9.386
 2307W        W 6358   6.635   1.970   0.046
 2308W        W 6359   8.389   5.535   1.696
 2309W        W 6360   2.181  10.005  10.383
 2310W        W 6361   2.787   7.073   0.175
 2311W        W 6362   2.347   7.620   2.776
 2312W        W 6363  11.429   7.706   2.227
 2313W        W 6364   2.741   6.035   9.539
 2314W        W 6365   6.124   0.914   2.492
 2315W        W 6366   0.062   2.697   1.317
 2316W        W 6367   7.333   0.357  11.965
 2317W        W 6368   4.530  10.440   9.815
 2318W        W 6369   9.468   5.563   1.597
 2319W        W 6370   5.614   9.941   9.980
 2320W        W 6371  10.914   0.264   8.930
 2321W        W 6372   6.201   8.460   2.651
 2322W        W 6373   6.972   5.997   1.733
 2323W        W 6374   8.462   9.456   9.041
 2324W        W 6375   6.737   8.974   8.296
 2325W        W 6376   8.361  11.200   1.162
 2326W        W 6377   6.487   3.635   0.719
 2327W        W 6378   5.590   6.905   3.112
 2328W        W 6379   8.037   6.578   2.263
 2329W        W 6380   9.447   0.050   2.428
 2330W        W 6381   1.956   4.601  11.451
 2331W        W 6382   6.522   2.742   1.154
 2332W        W 6383   1.931   7.616   1.453
 2333W        W 6384   4.551   8.085  11.266
 2334W        W 6385  10.609   9.189   0.979
 2335W        W 6386   6.446   4.345  11.415
 2336W        W 6387   3.240   1.818   0.412
 2337W        W 6388   8.992   6.741   3.785
 2338W        W 6389   1.752   8.660   1.360
 2339W        W 6390   7.467   4.683   0.490
 2340W        W 6391   3.014   0.460   1.999
 2341W        W 6392   0.739   6.748   3.515
 2342W        W 6393   8.002   5.099   0.956
 2343W        W 6394   3.709   3.080  10.095
 2344W        W 6395   9.695   6.194   0.663
 2345W        W 6396   7.800   3.770   8.963
 2346W        W 6397   2.988   9.701   9.595
 2347W        W 6398   8.135  10.886   0.224
 2348W        W 6399  10.411   5.740   1.328
 2349W        W 6400   6.092   0.437   0.916
 2350W        W 6401   0.050   2.301   0.988
 2351W        W 6402   5.703   0.892   0.030
 2352W        W 6403   9.807   4.256  11.990
 2353W        W 6404   0.207   6.770   2.954
 2354W        W 6405   0.192  10.961   9.463
 2355W        W 6406   5.471   3.240  10.780
 2356W        W 6407   2.160   6.828  11.272
 2357W        W 6408   4.102   0.496   2.978
 2358W        W 6409   2.758   5.556   2.309
 2359W        W 6410  10.902   6.490   2.273
 2360W        W 6411   8.388   2.405  10.561
 2361W        W 6412   6.283   5.207   0.530
 2362W        W 6413   8.950   7.941   1.274
 2363W        W 6414  10.847   7.249  11.965
 2364W        W 6415   5.089   2.251   8.604
 2365W        W 6416   5.851   6.766  11.985
 2366W        W 6417   3.642   5.594   1.197
 2367W        W 6418   2.800  10.045   2.501
 2368W        W 6419   7.646   9.948   1.340
 2369W        W 6420   8.136   5.794   2.089
 2370W        W 6421   7.615   2.901  10.422
 2371W        W 6422   9.106   4.096   1.358
 2372W        W 6423   6.200   4.137  10.967
 2373W        W 6424   7.765   3.457   2.945
 2374W        W 6425   6.065   9.631  11.313
 2375W        W 6426  10.404   1.165  10.833
 2376W        W 6427   7.757   4.418   3.377
 2377W        W 6428   6.259   6.514   1.263
 2378W        W 6429  10.965   2.794   3.061
 2379W        W 6430   7.246   6.604  11.872
 2380W        W 6431   7.941   2.119   3.428
 2381W        W 6432   0.371   3.170  10.269
 2382W        W 6433   0.063  11.323   2.368
 2383W        W 6434   1.569   1.805   8.539
 2384W        W 6435   4.086   3.976   0.091
 2385W        W 6436   8.510   4.680   1.872
 2386W        W 6437   9.849   1.922   3.045
 2387W        W 6438   0.887   5.538   0.947
 2388W        W 6439   7.923   3.264  10.632
 2389W        W 6440   3.234   7.931   2.750
 2390W        W 6441   1.797   5.521   1.956
 2391W        W 6442   2.932  10.498   2.354
 2392W        W 6443   5.484   3.735   9.994
 2393W        W 6444   0.080   6.986   0.401
 2394W        W 6445   1.637   7.517   8.650
 2395W        W 6446   6.663   2.406   3.194
 2396W        W 6447   8.508   1.289   0.217
 2397W        W 6448   1.850   2.760   1.724
 2398W        W 6449   3.625   1.791   0.840
 2399W        W 6450   4.579  11.290   1.868
 2400W        W 6451   0.935   5.523   1.958
 2401W        W 6452   5.283   7.079   2.683
 2402W        W 6453   7.100  10.848  11.706
 2403W        W 6454  10.735   8.514  11.404
 2404W        W 6455   9.821   7.086  11.080
 2405W        W 6456   4.670   1.713  11.078
 2406W        W 6457   9.980   6.568   0.875
 2407W        W 6458   2.922   5.083   9.059
 2408W        W 6459  10.764   4.617  10.472
 2409W        W 6460   0.304   6.285  10.269
 2410W        W 6461   3.258   6.920   0.301
 2411W        W 6462   6.185   1.457   0.648
 2412W        W 6463   1.827   7.153  11.781
 2413W        W 6464   0.750   9.374   1.689
 2414W        W 6465   4.049   1.804   9.741
 2415W        W 6466   7.394  10.816  10.925
 2416W        W 6467   0.691   0.437   0.375
 2417W        W 6468  11.145   6.929   2.191
 2418W        W 6469   5.232   2.618  11.280
 2419W        W 6470   6.551  10.524  11.818
 2420W        W 6471   9.874   6.923   8.463
 2421W        W 6472   3.349   3.623   0.948
 2422W        W 6473   7.938   1.866   9.563
 2423W        W 6474   1.302   9.926   2.389
 2424W        W 6475   9.868   7.115   9.964
 2425W        W 6476   5.379   1.202   0.321
 2426W        W 6477   6.970  10.836  11.185
 2427W        W 6478   5.443   4.322  10.399
 2428W        W 6479   1.851   7.069  10.777
 2429W        W 6480   2.256   8.058   3.481
 2430W        W 6481   5.397   2.307   0.272
 2431W        W 6482   8.967   0.060   0.508
 2432W        W 6483   8.992   5.556  11.075
 2433W        W 6484   1.865   1.192   2.896
 2434W        W 6485   2.806   5.943   0.947
 2435W        W 6486   4.342   3.910   1.863
 2436W        W 6487  10.527   9.323  10.895
 2437W        W 6488  10.070   1.401   3.061
 2438W        W 6489   8.856  10.795   9.962
 2439W        W 6490  10.914   9.950   9.533
 2440W        W 6491  10.062   4.805   1.854
 2441W        W 6492   0.557   0.422   2.795
 2442W        W 6493   8.166   9.744   2.773
 2443W        W 6494   2.223   6.687  10.051
 2444W        W 6495   0.908  10.829   1.456
 2445W        W 6496   2.711   1.443  10.006
 2446W        W 6497   9.940   9.224   8.631
 2447W        W 6498   6.519   7.852   1.448
 2448W        W 6499   0.270   4.764   3.343
 2449W        W 6500   8.366   9.181  10.607
 2450W        W 6501   3.210   3.141   0.895
 2451W        W 6502  10.928  11.491  10.027
 2452W        W 6503   8.567   5.519   9.535
 2453W        W 6504  10.589   8.976  10.005
 2454W        W 6505   1.283   1.483   0.942
 2455W        W 6506   8.509  10.387   2.331
 2456W        W 6507  11.188   5.632   3.200
 2457W        W 6508   5.998   6.695  10.219
 2458W        W 6509   7.323   3.233   1.080
 2459W        W 6510   9.538   4.642   9.254
 2460W        W 6511   3.589   5.064  11.404
 2461W        W 6512   2.931  10.553   0.507
 2462W        W 6513   6.177   1.045  11.272
 2463W        W 6514   5.690   8.761   3.288
 2464W        W 6515   2.731   0.475   0.704
 2465W        W 6516   8.484   7.648   1.419
 2466W        W 6517   3.172   4.259   1.709
 2467W        W 6518   0.083   0.398   3.021
 2468W        W 6519   8.266   5.530   4.058
 2469W        W 6520   1.631   9.457   2.849
 2470W        W 6521  10.715   1.260   0.130
 2471W        W 6522   6.608   5.081   0.916
 2472W        W 6523   2.201   9.493   9.663
 2473W        W 6524   1.327   6.150   3.006
 2474W        W 6525   1.952   4.616   2.891
 2475W        W 6526   8.991   5.919   9.829
 2476W        W 6527   2.217   6.659   2.638
 2477W        W 6528  11.025   8.703   3.177
 2478W        W 6529   8.503   4.146  11.328
 2479W        W 6530   3.169   5.003   2.991
 2480W        W 6531   3.634   9.834  10.284
 2481W        W 6532   7.790   0.287  11.778
 2482W        W 6533   6.200  10.806   9.457
 2483W        W 6534  10.567   8.186   2.318
 2484W        W 6535   5.215  11.460   2.229
 2485W        W 6536   0.531   5.030   0.245
 2486W        W 6537   3.323   4.217  11.845
 2487W        W 6538   3.884   1.724  10.279
 2488W        W 6539   3.665   0.246   0.857
 2489W        W 6540   3.230   9.761   0.843
 2490W        W 6541   7.471   8.918   9.682
 2491W        W 6542   5.265   8.764   1.166
 2492W        W 6543   2.299  11.437   2.817
 2493W        W 6544   9.022   3.118   2.311
 2494W        W 6545   1.410   0.749   1.394
 2495W        W 6546  10.856   0.024  11.320
 2496W        W 6547   8.011   1.800   2.986
 2497W        W 6548  11.279  11.240   9.279
 2498W        W 6549   9.914   5.222   0.375
 2499W        W 6550   5.519   5.343   0.040
 2500W        W 6551   3.124   9.195   9.634
 2501W        W 6552   3.636   4.908   2.236
 2502W        W 6553   1.803   7.661   9.148
 2503W        W 6554   9.336   8.468   9.888
 2504W        W 6555   8.957   6.377   0.114
 2505W        W 6556  10.591   8.957   1.895
 2506W        W 6557   3.259  11.435   0.476
 2507W        W 6558   1.090   9.367   1.319
 2508W        W 6559   5.252   0.466   3.505
 2509W        W 6560   7.136  10.833   2.629
 2510W        W 6561   2.103   7.233   3.289
 2511W        W 6562   1.713   5.056   3.093
 2512W        W 6563   5.687   5.664  10.046
 2513W        W 6564   0.073   3.606   2.057
 2514W        W 6565   0.905   7.173  11.855
 2515W        W 6566   9.677   7.972  10.946
 2516W        W 6567   1.323   3.612  11.194
 2517W        W 6568   8.280  10.926   2.303
 2518W        W 6569   1.800   4.704  10.561
 2519W        W 6570   9.824   5.683   1.988
 2520W        W 6571   3.473   8.046   9.333
 2521W        W 6572   2.614   4.138   3.116
 2522W        W 6573   6.258   1.143   9.985
 2523W        W 6574   5.512   3.773   2.570
 2524W        W 6575   3.108   8.603  11.414
 2525W        W 6576   9.506   5.733   1.118
 2526W        W 6577   8.337   4.175   9.516
 2527W        W 6578   2.265   0.277  11.963
 2528W        W 6579   6.501   4.024   3.677
 2529W        W 6580   4.718   9.736   0.988
 2530W        W 6581   2.758   6.225   1.397
 2531W        W 6582  10.984   6.576  10.690
 2532W        W 6583   1.718   4.079   0.353
 2533W        W 6584   2.923   0.309  10.716
 2534W        W 6585  10.426   9.459   1.868
 2535W        W 6586   2.744   7.561  11.296
 2536W        W 6587   0.421   3.100   1.380
 2537W        W 6588   4.651  10.400   3.173
 2538W        W 6589   0.044   9.621  10.897
 2539W        W 6590   5.648   6.204   1.810
 2540W        W 6591   6.236   8.073   9.490
 2541W        W 6592   2.636   5.108  11.271
 2542W        W 6593   6.072   2.004  11.380
 2543W        W 6594   1.370   4.201   0.013
 2544W        W 6595   6.570   7.619   1.928
 2545W        W 6596   3.619   9.424   3.850
 2546W        W 6597   0.905   7.224   9.052
 2547W        W 6598   7.539   2.297   2.185
 2548W        W 6599  11.325   7.009   3.167
 2549W        W 6600   7.121  10.517   9.853
 2550W        W 6601   8.915   9.195  10.722
 2551W        W 6602  10.344   2.775   0.870
 2552W        W 6603   8.728   6.835  11.940
 2553W        W 6604  11.079   8.990   1.003
 2554W        W 6605  10.437   0.793   9.864
 2555W        W 6606  10.389   3.672   0.707
 2556W        W 6607   1.848   5.837   9.870
 2557W        W 6608   9.778  10.616   2.826
 2558W        W 6609   9.787   0.924  11.917
 2559W        W 6610  10.865   3.484  10.849
 2560W        W 6611   8.821   5.624   9.087
 2561W        W 6612   5.736   3.645   3.450
 2562W        W 6613   3.789   9.851   8.315
 2563W        W 6614   7.495   9.193   0.242
 2564W        W 6615  10.182   5.288   3.946
 2565W        W 6616   0.197   5.654   3.253
 2566W        W 6617   1.680   5.070  11.499
 2567W        W 6618  10.394   8.110  11.464
 2568W        W 6619   6.812   7.184   3.604
 2569W        W 6620   9.652   5.068  10.367
 2570W        W 6621   0.258   1.915   0.331
 2571W        W 6622   7.070   9.491   0.278
 2572W        W 6623   3.039   4.677   9.621
 2573W        W 6624   6.379   4.664  10.017
 2574W        W 6625   4.752   0.485   9.412
 2575W        W 6626   4.911   4.383  10.341
 2576W        W 6627   7.067   1.811   3.182
 2577W        W 6628   8.919   6.307   9.499
 2578W        W 6629   9.839   9.602   2.602
 2579W        W 6630   4.614   8.367  10.523
 2580W        W 6631   4.849   5.711   1.551
 2581W        W 6632   2.239   2.051   9.608
 2582W        W 6633  11.250   5.265   8.933
 2583W        W 6634   6.479   2.701   2.175
 2584W        W 6635   9.341   8.527   0.745
 2585W        W 6636  10.312   3.154   3.712
 2586W        W 6637   2.900   2.481   9.980
 2587W        W 6638  10.535   3.676   2.961
 2588W        W 6639   3.618   7.566  10.243
 2589W        W 6640   1.760   8.435  10.467
 2590W        W 6641   4.988   3.505   0.931
 2591W        W 6642   0.977   2.643   1.750
 2592W        W 6643   3.827  10.920   9.481
 2593W        W 6644  11.401   2.146   3.474
 2594W        W 6645   8.926   5.103   9.795
 2595W        W 6646  11.488   5.567   3.740
 2596W        W 6647   7.387   6.428   0.763
 2597W        W 6648   1.245   0.932   3.276
 2598W        W 6649   3.133   0.195   2.420
 2599W        W 6650   2.727   6.900   9.909
 2600W        W 6651   8.042   3.826  11.026
 2601W        W 6652   9.711   5.223   2.556
 2602W        W 6653   7.225  10.036   8.977
 2603W        W 6654   2.277   5.741   9.607
 2604W        W 6655   3.594   1.766   9.354
 2605W        W 6656  10.966   4.810   9.359
 2606W        W 6657   8.543  11.138   3.626
 2607W        W 6658   3.914   9.342   1.350
 2608W        W 6659   8.041   9.195  10.180
 2609W        W 6660   0.913   5.350   9.080
 2610W        W 6661   0.381   7.678   1.972
 2611W        W 6662   1.627  11.326   2.414
 2612W        W 6663   9.315  10.394   1.339
 2613W        W 6664   0.842   4.841   9.085
 2614W        W 6665   3.270  10.294   0.856
 2615W        W 6666   7.197   2.252   9.160
 2616W        W 6667   9.507   1.500  10.334
 2617W        W 6668   3.784   5.065   1.234
 2618W        W 6669  10.346   7.919  10.300
 2619W        W 6670  10.988   9.345   2.072
 2620W        W 6671   1.806   0.432   0.665
 2621W        W 6672   2.839   9.924  11.952
 2622W        W 6673   0.501   3.220   2.727
 2623W        W 6674   3.903   5.613   1.634
 2624W        W 6675   9.208  10.613  11.712
 2625W        W 6676   2.201   1.748   0.870
 2626W        W 6677   2.220   6.174   2.467
 2627W        W 6678  10.965   7.520   3.495
 2628W        W 6679   7.253   5.669  10.728
 2629W        W 6680   2.744   9.060   2.970
 2630W        W 6681   1.370   5.457  11.123
 2631W        W 6682   5.650   0.732   8.923
 2632W        W 6683   0.386  11.016   2.129
 2633W        W 6684   9.463  10.607   9.377
 2634W        W 6685  10.342   2.268   1.660
 2635W        W 6686   3.146   1.652   0.902
 2636W        W 6687   4.529   3.687   9.943
 2637W        W 6688   7.914   7.121   1.678
 2638W        W 6689   2.095   4.230   8.882
 2639W        W 6690   0.413   4.782  10.278
 2640W        W 6691  10.737   8.632   0.885
 2641W        W 6692   5.406   2.834   1.914
 2642W        W 6693   3.156   7.538  11.001
 2643W        W 6694   5.574   4.092   1.263
 2644W        W 6695   4.568  11.325  10.587
 2645W        W 6696   0.979   9.765  11.941
 2646W        W 6697   3.937  10.610   1.526
 2647W        W 6698   5.070  10.320  11.022
 2648W        W 6699   4.174  10.634   3.435
 2649W        W 6700   4.724   4.278  10.814
 2650W        W 6701  10.799   1.192   2.073
 2651W        W 6702   2.493   7.586   3.292
 2652W        W 6703  10.416  10.384   9.130
 2653W        W 6704   4.700   8.856   1.430
 2654W        W 6705   4.717   3.924   1.510
 2655W        W 6706   7.716   3.992   2.802
 2656W        W 6707   6.994   3.817   0.746
 2657W        W 6708   4.249   3.282   2.272
 2658W        W 6709   5.758   7.117   0.696
 2659W        W 6710   9.498  10.569   0.495
 2660W        W 6711   9.547   0.995   0.825
 2661W        W 6712  10.327   8.359  10.580
 2662W        W 6713   0.432   6.922  11.235
 2663W        W 6714   7.980   1.704  10.053
 2664W        W 6715   8.413   5.036   8.630
 2665W        W 6716   9.848   7.636   9.908
 2666W        W 6717   1.502  10.441   3.219
 2667W        W 6718   0.849   1.009  10.326
 2668W        W 6719  10.351  11.374   3.520
 2669W        W 6720   6.203   9.924  10.047
 2670W        W 6721   9.109   8.913   1.061
 2671W        W 6722   9.815  10.366   1.235
 2672W        W 6723   6.136   2.949  11.239
 2673W        W 6724   8.900   1.019  11.005
 2674W        W 6725  11.209   0.223   2.246
 2675W        W 6726   2.804   5.088   2.668
 2676W        W 6727   8.488  11.243   2.647
 2677W        W 6728   3.202  10.996   1.800
 2678W        W 6729   1.424   3.307   9.459
 2679W        W 6730   9.532   3.648  11.634
 2680W        W 6731   9.817   2.162  10.503
 2681W        W 6732   7.310   8.933   2.169
 2682W        W 6733   7.585  11.205   8.982
 2683W        W 6734   5.784   7.771   3.269
 2684W        W 6735   7.977   0.487  10.461
 2685W        W 6736   6.969   0.477   2.258
 2686W        W 6737   1.013   9.246  11.876
 2687W        W 6738   4.760   0.971  11.457
 2688W        W 6739   7.439   0.063   2.678
 2689W        W 6740   6.990   6.704   0.846
 2690W        W 6741   6.079   7.425   2.713
 2691W        W 6742   6.622   2.671   0.652
 2692W        W 6743   6.718   3.052   2.964
 2693W        W 6744   7.165   8.923   2.656
 2694W        W 6745   6.581   8.360   1.414
 2695W        W 6746   4.781   2.911   8.686
 2696W        W 6747   8.507   6.070   0.204
 2697W        W 6748   3.845   9.881  10.759
 2698W        W 6749  10.408   1.585   1.377
 2699W        W 6750   2.376   6.050  10.455
 2700W        W 6751   0.303   4.511   8.891
 2701W        W 6752   8.427   7.136  11.654
 2702W        W 6753   1.437  10.049   1.897
 2703W        W 6754   5.634   1.462   9.398
 2704W        W 6755   3.747   0.835   9.463
 2705W        W 6756   9.796  11.269   1.389
 2706W        W 6757  10.587   2.636   9.590
 2707W        W 6758   8.133   0.509   0.862
 2708W        W 6759   8.699   3.141   3.547
 2709W        W 6760   9.930   2.369   1.322
 2710W        W 6761   7.629   9.816  10.276
 2711W        W 6762   3.318   0.693   2.321
 2712W        W 6763   6.155   1.809   1.807
 2713W        W 6764   3.293   7.851   3.250
 2714W        W 6765   5.050   9.146  10.263
 2715W        W 6766   2.424   5.183   9.026
 2716W        W 6767   7.711   5.458   3.944
 2717W        W 6768   4.089   5.731  10.439
 2718W        W 6769   2.235   4.639  10.837
 2719W        W 6770   0.651  10.239   9.458
 2720W        W 6771   8.162   6.814   9.056
 2721W        W 6772   6.086   9.578   9.219
 2722W        W 6773   5.895   3.903  10.266
 2723W        W 6774   8.997   8.167   2.760
 2724W        W 6775   0.201   6.047   2.672
 2725W        W 6776  11.144   8.816  10.514
 2726W        W 6777   5.397   0.358   1.834
 2727W        W 6778   0.417   7.855  10.488
 2728W        W 6779  10.965   9.630   3.606
 2729W        W 6780   0.425   3.887   1.800
 2730W        W 6781  11.348   9.864   9.827
 2731W        W 6782   0.716   5.532   1.476
 2732W        W 6783   0.515   8.435   9.585
 2733W        W 6784   0.623   1.917  10.686
 2734W        W 6785   7.199  10.064  10.078
 2735W        W 6786   4.537   5.801  10.161
 2736W        W 6787   7.845  10.901  10.161
 2737W        W 6788  10.071   6.569   3.315
 2738W        W 6789   7.414   0.816   1.103
 2739W        W 6790   5.606   5.162   9.708
 2740W        W 6791   9.902   3.959   2.593
 2741W        W 6792   5.584   8.441  10.457
 2742W        W 6793   8.486  10.184   1.851
 2743W        W 6794   5.209   4.949  11.125
 2744W        W 6795  10.912   8.194   9.045
 2745W        W 6796   7.472   3.478  11.903
 2746W        W 6797   7.156   5.151  10.850
 2747W        W 6798  11.326  10.274  11.521
 2748W        W 6799   0.972   1.155   1.858
 2749W        W 6800   2.208   6.470  10.912
 2750W        W 6801   5.220   4.124  10.833
 2751W        W 6802   8.902   2.308  10.482
 2752W        W 6803   2.914   7.110   2.237
 2753W        W 6804   7.803   3.090   0.079
 2754W        W 6805   8.082  11.361   0.402
 2755W        W 6806   7.534   1.192   9.471
 2756W        W 6807   4.329   8.278   2.037
 2757W        W 6808   2.656   6.725   1.386
 2758W        W 6809   6.488   3.195   1.418
 2759W        W 6810   2.397   4.705   8.836
 2760W        W 6811   7.089   9.920  11.990
 2761W        W 6812  11.129   5.722   0.724
 2762W        W 6813   5.939  10.095   1.847
 2763W        W 6814   9.592   7.957   2.348
 2764W        W 6815   5.248   4.765  10.222
 2765W        W 6816  10.020   1.327   9.033
 2766W        W 6817   5.578   0.394  11.990
 2767W        W 6818   4.804  10.378   0.309
 2768W        W 6819   7.637   8.137   1.084
 2769W        W 6820   2.242   6.132   0.353
 2770W        W 6821   2.841   9.029   1.955
 2771W        W 6822   2.250   0.420   1.501
 2772W        W 6823   2.197   4.684   2.371
 2773W        W 6824   4.029   2.061  11.892
 2774W        W 6825  10.528   1.237   2.719
 2775W        W 6826  10.220   5.117   9.073
 2776W        W 6827   7.729   4.510   2.865
 2777W        W 6828   2.128   5.053  11.225
 2778W        W 6829   3.952  10.692   0.358
 2779W        W 6830   8.666   7.858   3.200
 2780W        W 6831   2.902   9.627   1.254
 2781W        W 6832   5.625   1.215   2.470
 2782W        W 6833   7.683   4.670   8.453
 2783W        W 6834   2.555   4.211   9.403
 2784W        W 6835   6.990   7.563   0.791
 2785W        W 6836  10.281   4.563   0.931
 2786W        W 6837  10.390   8.663   2.294
 2787W        W 6838   4.637   2.763  11.876
 2788W        W 6839   6.491   2.197  10.229
 2789W        W 6840   8.315   3.175  11.963
 2790W        W 6841   8.221  10.519   8.915
 2791W        W 6842   5.780   9.859  10.919
 2792W        W 6843   8.516   9.125   0.257
 2793W        W 6844   5.315   2.272   1.741
 2794W        W 6845   8.496   4.647   1.369
 2795W        W 6846   5.519   8.939   2.336
 2796W        W 6847   5.896   1.211  10.784
 2797W        W 6848   9.762   4.494  11.222
 2798W        W 6849   6.516   0.596   2.748
 2799W        W 6850   2.907   3.258   1.297
 2800W        W 6851   7.196   9.350   3.409
 2801W        W 6852   3.215   6.285  10.253
 2802W        W 6853   5.066   6.478   1.817
 2803W        W 6854   4.481   7.948   9.338
 2804W        W 6855   5.711   7.477   9.415
 2805W        W 6856   9.417   3.371   9.749
 2806W        W 6857   9.533   1.220  11.313
 2807W        W 6858   3.737   4.602   2.620
 2808W        W 6859   5.522   3.687  10.534
 2809W        W 6860  10.094   7.631  11.774
 2810W        W 6861   0.776   6.938   1.752
 2811W        W 6862   0.430   7.920   0.730
 2812W        W 6863   5.668   0.778  11.506
 2813W        W 6864  10.969   8.199  10.255
 2814W        W 6865   9.903   0.223   2.265
 2815W        W 6866   9.836  11.320   9.047
 2816W        W 6867   8.620   9.295   1.912
 2817W        W 6868   7.175   1.875   8.806
 2818W        W 6869   4.691   9.091   8.955
 2819W        W 6870  10.087   4.698   9.379
 2820W        W 6871   1.334   4.127   1.473
 2821W        W 6872   7.147   0.404   3.437
 2822W        W 6873   2.430   0.977   2.232
 2823W        W 6874   1.418  11.422   3.449
 2824W        W 6875   3.003   7.065   8.104
 2825W        W 6876   8.487   0.214   9.019
 2826W        W 6877   0.634   5.798   9.058
 2827W        W 6878   9.988   9.798   8.786
 2828W        W 6879   6.625   1.260   2.439
 2829W        W 6880   4.540   1.806   9.032
 2830W        W 6881   0.272  11.273  11.631
 2831W        W 6882   9.000   6.845   0.377
 2832W        W 6883   6.236   8.993   0.770
 2833W        W 6884  10.647   7.022   2.229
 2834W        W 6885   8.965  10.021   1.957
 2835W        W 6886   3.695   0.633  11.150
 2836W        W 6887   7.872   1.653  11.959
 2837W        W 6888   3.115   1.124   2.523
 2838W        W 6889  11.367   1.265   8.788
 2839W        W 6890  10.246   6.160   2.736
 2840W        W 6891   0.436   3.561  11.117
 2841W        W 6892   8.590  10.174   3.904
 2842W        W 6893   5.244  10.603   1.874
 2843W        W 6894   6.618  10.940  11.531
 2844W        W 6895  10.905   6.837   2.675
 2845W        W 6896   7.486  10.502  11.813
 2846W        W 6897   5.641   6.117   9.375
 2847W        W 6898   1.779   6.012   2.739
 2848W        W 6899   2.397   7.050   2.313
 2849W        W 6900   0.246   9.923  11.573
 2850W        W 6901   2.260   3.884   2.801
 2851W        W 6902  11.463   8.488   3.293
 2852W        W 6903   7.145   6.374   9.618
 2853W        W 6904  10.454  10.572  11.526
 2854W        W 6905   1.066   7.431   2.234
 2855W        W 6906   3.982   3.711   2.173
 2856W        W 6907   8.963   6.360  10.467
 2857W        W 6908   6.571   8.530  11.657
 2858W        W 6909  10.443   1.895   2.365
 2859W        W 6910   1.262   3.337  10.326
 2860W        W 6911   6.062   7.133   2.254
 2861W        W 6912   4.521   3.946   9.505
 2862W        W 6913   0.851  10.733   1.986
 2863W        W 6914   0.393   8.840   0.456
 2864W        W 6915   3.758   2.189  10.088
 2865W        W 6916   7.093   0.414   9.958
 2866W        W 6917  11.060   3.802   1.969
 2867W        W 6918   7.123   0.337  10.996
 2868W        W 6919   7.539   6.657   3.833
 2869W        W 6920   9.625   7.820   0.034
 2870W        W 6921   5.036   8.185  11.162
 2871W        W 6922   4.894   7.998   2.553
 2872W        W 6923   1.603   5.907   8.532
 2873W        W 6924   6.115   9.668   2.060
 2874W        W 6925   1.745   4.157   1.799
 2875W        W 6926   1.078   7.383   8.588
 2876W        W 6927   5.332  10.321   0.406
 2877W        W 6928   0.505   9.944   0.026
 2878W        W 6929   8.353   8.648  11.958
 2879W        W 6930   8.681   5.613   3.125
 2880W        W 6931   5.586   4.716  11.434
 2881W        W 6932   0.765   1.883   0.450
 2882W        W 6933  10.136   4.270   0.406
 2883W        W 6934   6.624   1.934   0.554
 2884W        W 6935   5.302   7.390  11.354
 2885W        W 6936   5.455   9.139   9.447
 2886W        W 6937   5.645   0.785   3.264
 2887W        W 6938  10.337   4.230   2.560
 2888W        W 6939   2.081   8.794  10.843
 2889W        W 6940   6.076   7.098   1.356
 2890W        W 6941   4.801   3.858   3.695
 2891W        W 6942   5.953   2.365   2.734
 2892W        W 6943   9.336   3.766   9.042
 2893W        W 6944   1.710   4.655   1.984
 2894W        W 6945   4.747   2.252   9.120
 2895W        W 6946   2.201   6.633   1.152
 2896W        W 6947   0.031   7.530  10.579
 2897W        W 6948   3.926   9.325   2.873
 2898W        W 6949   2.002   4.168   2.403
 2899W        W 6950   5.173   2.338   4.025
 2900W        W 6951  10.079   2.211  10.043
 2901W        W 6952   3.400  10.262   2.188
 2902W        W 6953   3.746  10.811   3.161
 2903W        W 6954   7.049   9.134  10.545
 2904W        W 6955   7.980   2.800   2.260
 2905W        W 6956   7.077   3.797  10.795
 2906W        W 6957  10.849   2.629   0.234
 2907W        W 6958   7.176   9.575  10.325
 2908W        W 6959   2.304   9.959   2.316
 2909W        W 6960   4.091   6.487   2.030
 2910W        W 6961   7.599   4.712   1.866
 2911W        W 6962   0.390   1.363   8.952
 2912W        W 6963   0.908   3.761   2.015
 2913W        W 6964  11.338   6.251   2.356
 2914W        W 6965   6.758   8.924   2.270
 2915W        W 6966   2.106   0.728  10.850
 2916W        W 6967   2.894   4.679   8.684
 2917W        W 6968  11.025  10.410   9.800
 2918W        W 6969   7.556   3.626   9.937
 2919W        W 6970   0.716   3.086  11.888
 2920W        W 6971   7.564  10.271   3.182
 2921W        W 6972   4.213   3.403   1.758
 2922W        W 6973  10.892   9.463   9.973
 2923W        W 6974   9.550   8.370   3.163
 2924W        W 6975  11.036   4.542   8.873
 2925W        W 6976   8.352   9.507   1.016
 2926W        W 6977   0.944   0.159   9.704
 2927W        W 6978   9.043   4.761   0.273
 2928W        W 6979   6.721   3.820   1.425
 2929W        W 6980   5.176   5.979   1.890
 2930W        W 6981   0.802   3.055   3.090
 2931W        W 6982  10.368   5.566   8.425
 2932W        W 6983   0.994   7.947   0.072
 2933W        W 6984   7.561   3.645  10.950
 2934W        W 6985  11.254   0.252  10.536
 2935W        W 6986   1.934   8.363   2.653
 2936W        W 6987   1.821   3.683   1.576
 2937W        W 6988   8.404   4.770   0.012
 2938W        W 6989   4.748  11.206  11.136
 2939W        W 6990   0.928   3.115   1.506
 2940W        W 6991   7.304   9.979   2.778
 2941W        W 6992   6.920   4.142  11.503
 2942W        W 6993   3.299   2.742   9.620
 2943W        W 6994   1.124   1.923  10.852
 2944W        W 6995   0.653   9.314   9.487
 2945W        W 6996   1.817   8.310   0.353
 2946W        W 6997   7.411   4.847   1.406
 2947W        W 6998   5.407   7.049  11.757
 2948W        W 6999   4.681   3.459   1.337
 2949W        W 7000   0.766   5.104  10.447
 2950W        W 7001   9.923   3.239   3.355
 2951W        W 7002   1.761   8.144   9.380
 2952W        W 7003   3.031   4.791   3.424
 2953W        W 7004   9.707   1.973   0.705
 2954W        W 7005   0.746  10.114   0.877
 2955W        W 7006   2.750   8.358   9.627
 2956W        W 7007   3.777   7.973   9.955
 2957W        W 7008   8.694   3.025   2.716
 2958W        W 7009  10.580   8.182   9.929
 2959W        W 7010   0.435   1.854   3.302
 2960W        W 7011   1.720   9.966   9.793
 2961W        W 7012   2.765   4.754   3.888
 2962W        W 7013   9.921   9.921   9.863
 2963W        W 7014   0.013   0.190   1.359
 2964W        W 7015   6.627   4.541   1.946
 2965W        W 7016   1.711   0.003  11.560
 2966W        W 7017   5.032   4.333   9.461
 2967W        W 7018   5.186   8.969   3.564
 2968W        W 7019   8.208   3.066   3.651
 2969W        W 7020   7.673   6.612   8.982
 2970W        W 7021   7.168   7.555   2.771
 2971W        W 7022  10.261  10.409   2.736
 2972W        W 7023   7.179   4.218  11.039
 2973W        W 7024   9.724   3.716   3.531
 2974W        W 7025   2.778   0.738   1.658
 2975W        W 7026   8.589   9.030   0.807
 2976W        W 7027   5.024   3.156   1.826
 2977W        W 7028   3.121   0.748   1.275
 2978W        W 7029   4.811  10.691  11.226
 2979W        W 7030   2.262   5.231   4.222
 2980W        W 7031   7.129   0.488   0.804
 2981W        W 7032   2.804   6.115  11.497
 2982W        W 7033   2.126   0.746   9.973
 2983W        W 7034   1.825  10.001   8.873
 2984W        W 7035  10.712   8.624  10.359
 2985W        W 7036   0.489   4.994   8.365
 2986W        W 7037   4.156   2.673   9.517
 2987W        W 7038   7.160   6.349   3.999
 2988W        W 7039   7.466   9.054   1.673
 2989W        W 7040   3.214   6.589  10.730
 2990W        W 7041   0.982   4.412  11.208
 2991W        W 7042   2.275   3.780  10.262
 2992W        W 7043  11.301  10.945   3.309
 2993W        W 7044   9.864  10.886   3.312
 2994W        W 7045   5.964   0.934  10.340
 2995W        W 7046   1.262   7.665   0.858
 2996W        W 7047   6.920   7.019   1.572
 2997W        W 7048  10.785   6.039  10.322
 2998W        W 7049   8.665   0.446   9.454
 2999W        W 7050   4.728   4.768  11.000
 3000W        W 7051   9.645   3.617   1.683
 3001W        W 7052   9.389   6.450   2.100
 3002W        W 7053   5.761   9.933   2.389
 3003W        W 7054   8.473   7.829  10.982
 3004W        W 7055   4.667   3.646   0.541
 3005W        W 7056   3.725   3.531  10.413
 3006W        W 7057   9.136   2.761  10.342
 3007W        W 7058   4.271   7.762   0.416
 3008W        W 7059   0.686   1.580   9.489
 3009W        W 7060  10.470   0.401   0.533
 3010W        W 7061   0.286   5.889   9.453
 3011W        W 7062   1.095   8.227   8.901
 3012W        W 7063   9.085   1.722  11.459
 3013W        W 7064   8.915   9.100   1.517
 3014W        W 7065   4.590   0.238   0.862
 3015W        W 7066   1.345   3.699   0.190
 3016W        W 7067   9.259   5.637   3.270
 3017W        W 7068   8.417   9.003   9.869
 3018W        W 7069   4.018   7.442   0.747
 3019W        W 7070   9.041   2.252   1.151
 3020W        W 7071   8.394   4.363   2.248
 3021W        W 7072   6.027  10.488   0.657
 3022W        W 7073  11.289   1.814   1.657
 3023W        W 7074   7.145   4.834   2.129
 3024W        W 7075   2.110   4.223   3.167
 3025W        W 7076   3.264  10.842  10.366
 3026W        W 7077   0.851   5.339  11.350
 3027W        W 7078   5.542   2.794  10.011
 3028W        W 7079   1.795   1.695   3.055
 3029W        W 7080   4.474   7.603   0.914
 3030W        W 7081   1.773   6.033   9.391
 3031W        W 7082   4.181   7.578  11.878
 3032W        W 7083  11.087   9.175   3.374
 3033W        W 7084   4.015   6.665  10.374
 3034W        W 7085   6.171   7.914   2.669
 3035W        W 7086   5.427   1.877   8.526
 3036W        W 7087   0.605   3.414   1.778
 3037W        W 7088   3.534   1.234   3.349
 3038W        W 7089  11.023   1.055   2.505
 3039W        W 7090   4.658   8.094   0.240
 3040W        W 7091   7.442   4.030   9.657
 3041W        W 7092   7.058   6.725   3.631
 3042W        W 7093   8.698   6.478   3.186
 3043W        W 7094   5.965   5.950   0.381
 3044W        W 7095  10.476  10.789   1.856
 3045W        W 7096   4.796   1.969  11.519
 3046W        W 7097   1.457  10.348   9.075
 3047W        W 7098   8.036   3.277   1.602
 3048W        W 7099   6.342  10.733   2.315
 3049W        W 7100   5.515   8.386   9.074
 3050W        W 7101   3.278   9.647   4.176
 3051W        W 7102   2.107   5.578   3.892
 3052W        W 7103   3.986  11.031   1.209
 3053W        W 7104   7.024   3.228   0.072
 3054W        W 7105   7.875   0.783  10.062
 3055W        W 7106  10.110  10.293   8.616
 3056W        W 7107  11.474   4.134   2.040
 3057W        W 7108  10.042   3.468   2.893
 3058W        W 7109   6.729   7.344  11.935
 3059W        W 7110   2.620   0.866   9.019
 3060W        W 7111   2.567   9.617   2.624
 3061W        W 7112   0.867   6.824   2.730
 3062W        W 7113   1.403   1.242  11.954
 3063W        W 7114  11.366   1.315  11.529
 3064W        W 7115   2.079   4.843   9.843
 3065W        W 7116   3.257   5.060   8.657
 3066W        W 7117   5.103   3.911  10.380
 3067W        W 7118   1.193   1.214   1.393
 3068W        W 7119   9.959   2.247   9.052
 3069W        W 7120   7.467   4.990   9.659
 3070W        W 7121   8.949   9.139   3.016
 3071W        W 7122   2.212   9.982   9.864
 3072W        W 7123   4.601  11.092   2.361
 3073W        W 7124   6.660   7.813   0.111
 3074W        W 7125   1.718   8.671  11.405
 3075W        W 7126   8.559  10.719   1.931
 3076W        W 7127   9.959   1.474   1.633
 3077W        W 7128   7.858   3.687   2.411
 3078W        W 7129  10.834   3.107   0.027
 3079W        W 7130   1.618   7.402   3.472
 3080W        W 7131   7.549   6.579   2.441
 3081W        W 7132   9.594   6.589   3.093
 3082W        W 7133   8.437   0.644   1.700
 3083W        W 7134   8.329   0.131  10.383
 3084W        W 7135  11.366   8.070   8.818
 3085W        W 7136   3.062   7.029   2.909
 3086W        W 7137   9.889   0.920   2.996
 3087W        W 7138   2.117   1.277  10.005
 3088W        W 7139   1.697   4.583   2.470
 3089W        W 7140   3.714  10.027   9.796
 3090W        W 7141   0.732  10.563   0.576
 3091W        W 7142   5.178  11.049   3.484
 3092W        W 7143   0.046   8.549   1.771
 3093W        W 7144   8.012   1.951   1.225
 3094W        W 7145   1.189   3.210   0.074
 3095W        W 7146   7.572  11.485   0.654
 3096W        W 7147  11.202   2.243   1.367
 3097W        W 7148   6.774   8.624  10.696
 3098W        W 7149   3.804   3.698   0.741
 3099W        W 7150   8.709   1.397   9.276
 3100W        W 7151  10.937   5.059   3.216
 3101W        W 7152   9.386   8.401  10.973
 3102W        W 7153   4.735   1.687   2.871
 3103W        W 7154   6.289   7.246   3.588
 3104W        W 7155   5.989   6.212   2.215
 3105W        W 7156   0.297   8.801   8.789
 3106W        W 7157   2.942  10.923  10.778
 3107W        W 7158   6.855   2.352   0.319
 3108W        W 7159  11.224   0.803   3.687
 3109W        W 7160   4.071   7.076  11.726
 3110W        W 7161   9.765   1.434  11.980
 3111W        W 7162   1.497   7.792   3.109
 3112W        W 7163   3.845   2.758  10.852
 3113W        W 7164   3.301   4.708   9.048
 3114W        W 7165   2.233  10.447   3.070
 3115W        W 7166   5.530   3.594   3.919
 3116W        W 7167   9.469   3.329   9.251
 3117W        W 7168   6.212  10.729   8.944
 3118W        W 7169   1.325   3.637   2.333
 3119W        W 7170   1.007   3.208   9.139
 3120W        W 7171   6.269   8.771  10.828
 3121W        W 7172   5.504   5.558  11.398
 3122W        W 7173   1.821   2.835   2.268
 3123W        W 7174   1.021   8.456   0.730
 3124W        W 7175   3.806   9.486   2.421
 3125W        W 7176   5.199   2.559  10.289
 3126W        W 7177  10.648   4.403   0.256
 3127W        W 7178   4.034   4.937   8.185
 3128W        W 7179   2.784   4.616   9.183
 3129W        W 7180   1.660   5.123  10.301
 3130W        W 7181   8.904   9.617  11.908
 3131W        W 7182   9.983   0.768  10.563
 3132W        W 7183   2.900  10.907   2.631
 3133W        W 7184   8.901  10.993  10.871
 3134W        W 7185   7.102   8.430   2.873
 3135W        W 7186   4.347   8.052   1.388
 3136W        W 7187   4.196   9.778   2.279
 3137W        W 7188   0.960   9.349   9.920
 3138W        W 7189   1.226   8.788   8.830
 3139W        W 7190   9.831   3.614   9.930
 3140W        W 7191   4.209   3.580   9.223
 3141W        W 7192   9.366   9.986  10.378
 3142W        W 7193   8.875   9.432   8.720
 3143W        W 7194   7.656   8.119   2.530
 3144W        W 7195   1.353   8.386   1.487
 3145W        W 7196   8.632   2.626  11.016
 3146W        W 7197  11.327   9.348   1.286
 3147W        W 7198  10.693   6.081   0.959
 3148W        W 7199   1.903   7.911  10.540
 3149W        W 7200   1.919   0.843   2.148
 3150W        W 7201  10.367   9.390   2.746
 3151W        W 7202   2.758  11.295   9.319
 3152W        W 7203   4.180   0.936  11.837
 3153W        W 7204  10.240   8.600   0.973
 3154W        W 7205   6.637   7.663   2.800
 3155W        W 7206   3.595   0.484   1.328
 3156W        W 7207  10.751   4.818  11.235
 3157W        W 7208   3.194   6.408   0.304
 3158W        W 7209   6.713  11.423  11.353
 3159W        W 7210   1.103   1.570   8.454
 3160W        W 7211   3.846   8.813  11.460
 3161W        W 7212  10.446   4.709   1.403
 3162W        W 7213   5.390   6.526  11.798
 3163W        W 7214   5.179   0.755  11.256
 3164W        W 7215   1.310  11.044   0.369
 3165W        W 7216   3.196   3.867   1.369
 3166W        W 7217  11.295   5.768   8.708
 3167W        W 7218  10.458   3.185   9.033
 3168W        W 7219   1.367   0.105   2.973
 3169W        W 7220   6.277   7.646   3.165
 3170W        W 7221   7.880   4.155   0.710
 3171W        W 7222   6.716   3.692   3.285
 3172W        W 7223   3.856   6.595  11.793
 3173W        W 7224  10.688   5.663  11.433
 3174W        W 7225   4.740   9.935   9.714
 3175W        W 7226   4.063   0.932   1.212
 3176W        W 7227   9.585   4.301   3.309
 3177W        W 7228   8.515   8.693  10.556
 3178W        W 7229   0.077   8.989  10.253
 3179W        W 7230   0.741   6.379   0.857
 3180W        W 7231   4.269   9.024   3.112
 3181W        W 7232   6.276   0.152   0.511
 3182W        W 7233   5.861   3.330   3.067
 3183W        W 7234   2.233   5.298   2.986
 3184W        W 7235   6.451   5.881  10.530
 3185W        W 7236  10.364   7.174  10.007
 3186W        W 7237   9.823   5.738   0.513
 3187W        W 7238   3.539   8.459   0.631
 3188W        W 7239   8.376  10.031   0.704
 3189W        W 7240   9.185   6.501   3.378
 3190W        W 7241   9.181   8.024   8.545
 3191W        W 7242   1.968   2.707   0.214
 3192W        W 7243   1.671  10.021  10.316
 3193W        W 7244   4.484  10.948   1.264
 3194W        W 7245   6.228   5.734  10.077
 3195W        W 7246  10.569   3.667  11.802
 3196W        W 7247  10.002   1.793   8.771
 3197W        W 7248   9.942   6.158   3.606
 3198W        W 7249   6.956   1.307  10.978
 3199W        W 7250   0.331   2.938   3.260
 3200W        W 7251   8.488   5.846   0.679
 3201W        W 7252   8.870   5.454   1.465
 3202W        W 7253   3.325   2.732  10.153
 3203W        W 7254   4.642   6.684   9.130
 3204W        W 7255   8.479   7.433   9.789
 3205W        W 7256   3.677  10.184   8.955
 3206W        W 7257  10.693   9.492   9.316
 3207W        W 7258  11.335   8.377   0.241
 3208W        W 7259  10.893   7.006  10.332
 3209W        W 7260   3.585   1.377  11.167
 3210W        W 7261   2.102   4.454   3.625
 3211W        W 7262   3.138  10.373  11.136
 3212W        W 7263  11.238   9.381   0.200
 3213W        W 7264   8.061   7.947   0.322
 3214W        W 7265   5.780   0.555  10.643
 3215W        W 7266   0.429   8.159   1.176
 3216W        W 7267   1.281   4.336   1.928
 3217W        W 7268   2.084   5.101   8.083
 3218W        W 7269   4.018   7.931   2.359
 3219W        W 7270   7.029  10.819   1.697
 3220W        W 7271   9.426   9.859   1.758
 3221W        W 7272   3.392   4.282   2.439
 3222W        W 7273   1.636   0.551   9.103
 3223W        W 7274   0.319   3.453   8.880
 3224W        W 7275   8.074   7.664   9.993
 3225W        W 7276   9.171   1.451  11.031
 3226W        W 7277   0.796   1.263   1.038
 3227W        W 7278   3.784  11.023   2.592
 3228W        W 7279   7.372   2.433  11.335
 3229W        W 7280   4.117   4.701   2.307
 3230W        W 7281   2.839  10.319   3.410
 3231W        W 7282  10.910   9.603   1.136
 3232W        W 7283   3.092  10.446  10.637
 3233W        W 7284   5.830   1.710   2.441
 3234W        W 7285   2.838  10.078   1.016
 3235W        W 7286   9.747   4.781   3.205
 3236W        W 7287  10.842  11.309   2.671
 3237W        W 7288   6.723   1.258  11.455
 3238W        W 7289  11.047  10.377   2.317
 3239W        W 7290   0.992  11.276  10.447
 3240W        W 7291   9.301  11.325   1.396
 3241W        W 7292   0.922   6.986  11.375
 3242W        W 7293   9.343   1.952  10.536
 3243W        W 7294   5.460   1.413  10.970
 3244W        W 7295   1.712   2.058   2.688
 3245W        W 7296   7.807  10.108   2.770
 3246W        W 7297   3.262   7.289   9.064
 3247W        W 7298   4.850   8.222   2.098
 3248W        W 7299   2.815  10.587   1.020
 3249W        W 7300   8.653   2.114   1.828
 3250W        W 7301   5.696   5.107  11.057
 3251W        W 7302   0.658   3.287   0.970
 3252W        W 7303   6.578   1.247   1.938
 3253W        W 7304   0.826   4.022   9.457
 3254W        W 7305   6.987   9.988  10.546
 3255W        W 7306  10.888   8.567   2.202
 3256W        W 7307   3.618   7.546  10.763
 3257W        W 7308   0.292   2.639   0.544
 3258W        W 7309   9.005   1.890   1.499
 3259W        W 7310   0.463   9.483   9.928
 3260W        W 7311   0.713   5.784  11.575
 3261W        W 7312   1.445   1.947   0.257
 3262W        W 7313   9.492   2.862  11.980
 3263W        W 7314   4.897   9.567   1.435
 3264W        W 7315   2.506   7.573  10.231
 3265W        W 7316   6.559   6.719  10.763
 3266W        W 7317   0.386   4.786   9.345
 3267W        W 7318   8.928  10.014  10.639
 3268W        W 7319   2.881   7.208   1.413
 3269W        W 7320   7.080   3.603   1.772
 3270W        W 7321   1.012   0.943  11.785
 3271W        W 7322   9.963   1.254  11.570
 3272W        W 7323   1.718   5.693  10.841
 3273W        W 7324   5.420  11.313  10.345
 3274W        W 7325  10.539   4.629   9.107
 3275W        W 7326   0.315   7.158  10.803
 3276W        W 7327   5.433  10.397   9.773
 3277W        W 7328   1.412   0.799  11.511
 3278W        W 7329   9.858   9.375  10.128
 3279W        W 7330   2.700   2.642   9.130
 3280W        W 7331   4.986   5.361  11.322
 3281W        W 7332   1.719   4.789  11.927
 3282W        W 7333   8.890   2.919   0.792
 3283W        W 7334   4.517   7.849   2.219
 3284W        W 7335  11.458   0.739   1.400
 3285W        W 7336   6.700   7.975  10.461
 3286W        W 7337  11.276   1.562   9.793
 3287W        W 7338   4.857   9.351   9.844
 3288W        W 7339   1.843   8.990   2.824
 3289W        W 7340   8.195   8.510   1.401
 3290W        W 7341   4.142   4.703   1.296
 3291W        W 7342   0.846   9.779   9.531
 3292W        W 7343   0.931   6.429   2.407
 3293W        W 7344  10.363   8.357   2.766
 3294W        W 7345  10.919   5.705   1.210
 3295W        W 7346  10.083   5.241   2.187
 3296W        W 7347   5.779   1.211   2.975
 3297W        W 7348   9.554   8.874  11.812
 3298W        W 7349   1.217   6.712   9.214
 3299W        W 7350   5.202   5.093   0.992
 3300W        W 7351   1.303   2.457   3.392
 3301W        W 7352   5.292   2.557   2.806
 3302W        W 7353   2.317   4.790   0.667
 3303W        W 7354   1.964  10.878  10.782
 3304W        W 7355   2.215  11.253   0.750
 3305W        W 7356   0.301   9.015   9.755
 3306W        W 7357   1.206  11.276   9.980
 3307W        W 7358  11.220   6.287   8.895
 3308W        W 7359   3.645   1.781   3.191
 3309W        W 7360   3.230   8.492   9.404
 3310W        W 7361   0.061   2.924   9.486
 3311W        W 7362   6.446   3.323   0.327
 3312W        W 7363   5.050  10.836   2.467
 3313W        W 7364   2.793   0.243   9.566
 3314W        W 7365   0.823   5.817   0.072
 3315W        W 7366   1.997   8.004  11.057
 3316W        W 7367   8.829   0.762   9.824
 3317W        W 7368   2.355   1.405   2.901
 3318W        W 7369   9.493   7.095   0.335
 3319W        W 7370   7.361   8.914   8.379
 3320W        W 7371   0.069  10.530   1.895
 3321W        W 7372   1.789  10.300  10.789
 3322W        W 7373   0.792   7.303  10.977
 3323W        W 7374   8.135   4.261   2.664
 3324W        W 7375   0.460   2.726   2.351
 3325W        W 7376   8.253   6.687  11.882
 3326W        W 7377   6.922   2.732   1.778
 3327W        W 7378   5.736   5.607  10.936
 3328W        W 7379  11.252   0.723   8.824
 3329W        W 7380   4.769   7.960   9.771
 3330W        W 7381   4.368  10.856  11.093
 3331W        W 7382   3.234   0.941   9.590
 3332W        W 7383   2.428   2.803   0.043
 3333W        W 7384  10.436   3.125   9.535
 3334W        W 7385   3.411   4.656  11.630
 3335W        W 7386   3.944   8.777  10.960
 3336W        W 7387   2.683   7.249   2.671
 3337W        W 7388   3.537   5.509   8.713
 3338W        W 7389   9.461   8.027   9.074
 3339W        W 7390   8.055   0.830  10.861
 3340W        W 7391   8.243  10.503  10.327
 3341W        W 7392   5.144  11.462   8.980
 3342W        W 7393   9.107  10.904  10.391
 3343W        W 7394  10.810   7.972  11.199
 3344W        W 7395   0.716   2.592   9.813
 3345W        W 7396   1.873  10.521   1.309
 3346W        W 7397  11.039   4.407   3.649
 3347W        W 7398  11.359   3.117   3.150
 3348W        W 7399   2.428   7.143   8.967
 3349W        W 7400   6.498   4.331   9.582
 3350W        W 7401   1.900   3.818   0.858
 3351W        W 7402   9.528   4.593   1.395
 3352W        W 7403   7.958   9.796  11.784
 3353W        W 7404   7.538   7.710   0.441
 3354W        W 7405   5.044   6.487   0.260
 3355W        W 7406   6.424   4.143   8.625
 3356W        W 7407  10.252   9.093  10.366
 3357W        W 7408  11.287   6.550   0.299
 3358W        W 7409   6.507  10.933  10.345
 3359W        W 7410   5.071  11.331  10.755
 3360W        W 7411   4.714   4.160   9.920
 3361W        W 7412   4.655   9.235   1.789
 3362W        W 7413   8.855   6.580   0.804
 3363W        W 7414   2.482   3.224  11.737
 3364W        W 7415   8.762   8.009   9.482
 3365W        W 7416   6.470   2.757   8.958
 3366W        W 7417   3.722   5.685  10.816
 3367W        W 7418   3.192   1.414   9.800
 3368W        W 7419  10.120   7.915   2.374
 3369W        W 7420   9.876   7.012   3.108
 3370W        W 7421   7.423   5.730   1.792
 3371W        W 7422   2.679  10.443  10.930
 3372W        W 7423   2.185  10.479  11.063
 3373W        W 7424   5.175  10.218  11.931
 3374W        W 7425   8.989   6.611   2.429
 3375W        W 7426   1.967   8.928   3.658
 3376W        W 7427   9.570   2.637  11.526
 3377W        W 7428  11.439  10.268  10.108
 3378W        W 7429   3.138   1.822   2.977
 3379W        W 7430   4.914   5.684  10.527
 3380W        W 7431   4.661   3.440   9.492
 3381W        W 7432   8.042   1.062  11.335
 3382W        W 7433   0.815   9.280  11.393
 3383W        W 7434   7.364   3.622   2.688
 3384W        W 7435   1.695   6.691   8.940
 3385W        W 7436   3.785   9.773  11.265
 3386W        W 7437   5.255   0.674   9.376
 3387W        W 7438   5.704   5.094   9.205
 3388W        W 7439   7.526   9.431   9.502
 3389W        W 7440   3.018  10.388   1.869
 3390W        W 7441   9.779   0.453  10.898
 3391W        W 7442   3.709   3.332   2.718
 3392W        W 7443   8.186   5.872   9.429
 3393W        W 7444   6.941   6.422  10.952
 3394W        W 7445   2.567   8.814  11.947
 3395W        W 7446   3.749   5.050   8.809
 3396W        W 7447   2.262   1.372   0.504
 3397W        W 7448  11.093   0.839   1.778
 3398W        W 7449   7.957   0.789   0.474
 3399W        W 7450   9.450   5.514   0.253
 3400W        W 7451   5.720   7.657  11.495
 3401W        W 7452   6.834   9.488   8.029
 3402W        W 7453   4.498   8.127   0.749
 3403W        W 7454   8.866   6.198   2.733
 3404W        W 7455   0.433   4.539   0.166
 3405W        W 7456   6.250  10.259   9.218
 3406W        W 7457   8.426   7.067   2.566
 3407W        W 7458   2.671   9.223  10.406
 3408W        W 7459   1.923   7.083  10.253
 3409W        W 7460   3.604   3.794   2.510
 3410W        W 7461   3.376   5.432   0.467
 3411W        W 7462   6.076   5.420   1.919
 3412W        W 7463   3.894   0.871   1.684
 3413W        W 7464   7.390   2.176   3.461
 3414W        W 7465   5.746  10.920  10.973
 3415W        W 7466  11.346   8.126   9.842
 3416W        W 7467   0.722   6.005   2.623
 3417W        W 7468   5.789   8.500   2.318
 3418W        W 7469   0.732   3.366   2.278
 3419W        W 7470   7.474   3.337  11.381
 3420W        W 7471   6.037  11.476   3.150
 3421W        W 7472   5.215   1.217  10.574
 3422W        W 7473   7.438   8.536   0.287
 3423W        W 7474   1.772  10.051   0.984
 3424W        W 7475   3.764   7.017   3.256
 3425W        W 7476  11.115   8.474   1.184
 3426W        W 7477   4.611   6.202  11.751
 3427W        W 7478   1.663   4.294   0.820
 3428W        W 7479   8.012   4.626   1.176
 3429W        W 7480   6.785   4.035   2.706
 3430W        W 7481   9.054   3.248   1.422
 3431W        W 7482  10.660   7.978  10.695
 3432W        W 7483   0.107   1.091   9.879
 3433W        W 7484   9.237  10.287   9.023
 3434W        W 7485   7.953   8.218   9.279
 3435W        W 7486   8.042   0.937   1.819
 3436W        W 7487   6.142   6.746   3.119
 3437W        W 7488   4.521   1.267   0.869
 3438W        W 7489  11.433  10.772  10.025
 3439W        W 7490  11.303   6.507   2.807
 3440W        W 7491   4.531   1.604   8.540
 3441W        W 7492   2.288   3.844   9.167
 3442W        W 7493   8.933   9.892  11.478
 3443W        W 7494   1.908   5.941   0.691
 3444W        W 7495   2.920   9.064   0.320
 3445W        W 7496   2.320   1.042   9.566
 3446W        W 7497   5.059   0.790   1.194
 3447W        W 7498   9.315   1.316   1.181
 3448W        W 7499   8.344  10.888  10.910
 3449W        W 7500   0.310   5.734   0.073
 3450W        W 7501   6.689   4.222  10.933
 3451W        W 7502   2.342  11.369   1.416
 3452W        W 7503   3.718   1.407  10.661
 3453W        W 7504   3.996   1.434   3.409
 3454W        W 7505   8.901   9.951  10.106
 3455W        W 7506   7.150   2.379   8.652
 3456W        W 7507   0.989   2.602   9.382
 3457W        W 7508   9.377   4.397   8.516
 3458W        W 7509   3.780   1.281   9.132
 3459W        W 7510   4.647   3.366   3.667
 3460W        W 7511   8.442  10.339   9.441
 3461W        W 7512   0.749   7.097   3.149
 3462W        W 7513   4.489   0.140  11.012
 3463W        W 7514   4.376   6.624   2.453
 3464W        W 7515   5.613   8.023   1.316
 3465W        W 7516   4.962   3.931   3.205
 3466W        W 7517   6.229  10.209   2.241
 3467W        W 7518   5.613   3.077   1.228
 3468W        W 7519   0.396   2.199   2.476
 3469W        W 7520  10.911   2.145   0.394
 3470W        W 7521   6.999   6.500   1.647
 3471W        W 7522   4.598   0.942  10.595
 3472W        W 7523   5.202   2.086  10.034
 3473W        W 7524   8.087   7.871  11.318
 3474W        W 7525   6.389   7.672   4.085
 3475W        W 7526   8.144   6.180  11.851
 3476W        W 7527   8.799   4.760   3.497
 3477W        W 7528   1.889   1.688   0.339
 3478W        W 7529  11.185   3.354   1.803
 3479W        W 7530  11.036  10.854   9.016
 3480W        W 7531   3.746   7.934   1.465
 3481W        W 7532   9.103   1.685   2.447
 3482W        W 7533   0.250   1.862   9.375
 3483W        W 7534   0.375  10.871  11.274
 3484W        W 7535   5.543  10.682   0.681
 3485W        W 7536   8.807   4.055   2.191
 3486W        W 7537   2.075   6.115   8.434
 3487W        W 7538   9.580   1.470   8.762
 3488W        W 7539   0.541   5.585   2.852
 3489W        W 7540   2.340  10.857   2.312
 3490W        W 7541   8.788   5.821   1.839
 3491W        W 7542  10.506   4.674   2.797
 3492W        W 7543   1.327   6.100   2.484
 3493W        W 7544  10.377   1.354   9.911
 3494W        W 7545   7.609   8.063   0.103
 3495W        W 7546   6.565   8.973  10.370
 3496W        W 7547   8.025   7.712   9.144
 3497W        W 7548  10.407   9.822   9.613
 3498W        W 7549   6.467   1.928   9.788
 3499W        W 7550   8.894   0.826   2.984
 3500W        W 7551   7.172   2.080  10.023
 3501W        W 7552   8.296   0.237   8.515
 3502W        W 7553   3.239   7.030   9.986
 3503W        W 7554   0.968   3.748  10.377
 3504W        W 7555   5.731   6.487   8.607
 3505W        W 7556   8.941   6.038   3.218
 3506W        W 7557   6.521   6.664   0.678
 3507W        W 7558   9.355   4.381   0.970
 3508W        W 7559   6.707   0.405   0.493
 3509W        W 7560   2.403   3.717   0.844
 3510W        W 7561  11.448   0.417  11.634
 3511W        W 7562   7.614   7.574   1.777
 3512W        W 7563   1.661   1.317  10.328
 3513W        W 7564  11.038   9.443  10.880
 3514W        W 7565   6.366   9.849   8.870
 3515W        W 7566   4.186  10.515   1.046
 3516W        W 7567   2.735  10.469  11.942
 3517W        W 7568   5.601   2.212   3.092
 3518W        W 7569   5.626   0.681   1.004
 3519W        W 7570   5.304   1.371   3.069
 3520W        W 7571   3.298   8.032  10.715
 3521W        W 7572   4.323   5.069  10.821
 3522W        W 7573   2.211   2.495   3.322
 3523W        W 7574   7.284   4.591   3.496
 3524W        W 7575   1.921   9.862   0.280
 3525W        W 7576   6.076   3.685   9.143
 3526W        W 7577   7.218   7.487  11.780
 3527W        W 7578   3.730   2.623   0.266
 3528W        W 7579   6.005   8.245   3.556
 3529W        W 7580   9.514   0.504   0.954
 3530W        W 7581   5.658   3.146   3.573
 3531W        W 7582   9.439   7.039  10.213
 3532W        W 7583   3.767   4.086   9.645
 3533W        W 7584   1.689   3.092   0.432
 3534W        W 7585   3.344   5.996   8.724
 3535W        W 7586  10.730   9.037   2.412
 3536W        W 7587   1.929   1.650  10.586
 3537W        W 7588  11.336  10.417   9.007
 3538W        W 7589   4.384   4.400  10.338
 3539W        W 7590   3.376   2.828  11.583
 3540W        W 7591   4.095   7.428  11.350
 3541W        W 7592   3.809   4.498   9.996
 3542W        W 7593   1.646   0.403  11.272
 3543W        W 7594   4.826  11.352   1.336
 3544W        W 7595   9.307   9.136   8.478
 3545W        W 7596   2.006   1.999   8.766
 3546W        W 7597   3.013   4.105   0.811
 3547W        W 7598   2.862   3.673   1.025
 3548W        W 7599   6.183   9.941   2.678
 3549W        W 7600   2.181  10.832   9.152
 3550W        W 7601  10.870   6.990   9.471
 3551W        W 7602   5.212   8.540   9.473
 3552W        W 7603  11.095   3.751  10.482
 3553W        W 7604  11.195   8.297  11.210
 3554W        W 7605   0.235   7.554  11.987
 3555W        W 7606   0.345   8.129  10.029
 3556W        W 7607   4.299   5.131   2.078
 3557W        W 7608   6.099   3.660  11.917
 3558W        W 7609   6.573   2.074  11.534
 3559W        W 7610   7.173   3.190   2.502
 3560W        W 7611  10.010   4.392   1.556
 3561W        W 7612  10.235   6.577   0.420
 3562W        W 7613   8.476   3.783  11.929
 3563W        W 7614   4.929   8.434   0.873
 3564W        W 7615   9.973   1.326  11.062
 3565W        W 7616   3.539   6.211  11.992
 3566W        W 7617   2.587   7.073   3.138
 3567W        W 7618   1.485   1.210   8.381
 3568W        W 7619   0.398   5.585   1.055
 3569W        W 7620   5.999   8.396   0.752
 3570W        W 7621  10.313   4.730   2.321
 3571W        W 7622   7.694   6.673   1.579
 3572W        W 7623   6.441   8.568   3.611
 3573W        W 7624   1.718   8.361   0.922
 3574W        W 7625   0.529   7.053   8.703
 3575W        W 7626   1.396   1.392   8.842
 3576W        W 7627   9.536   6.102   8.514
 3577W        W 7628  11.351   1.566   9.218
 3578W        W 7629   5.871   5.071   2.722
 3579W        W 7630   7.603  11.467   0.153
 3580W        W 7631   1.404  10.746   1.321
 3581W        W 7632   7.952   1.500   1.011
 3582W        W 7633   2.359  10.457   3.555
 3583W        W 7634   0.419   8.503   3.539
 3584W        W 7635  11.200  11.331   8.798
 3585W        W 7636   6.127   7.641   2.223
 3586W        W 7637  11.047   2.280   0.877
 3587W        W 7638   9.490  11.177   1.848
 3588W        W 7639   9.653   6.626   3.611
 3589W        W 7640   3.348   0.429   0.496
 3590W        W 7641   6.589   5.323   1.365
 3591W        W 7642  10.142   6.939   2.258
 3592W        W 7643   6.760   1.203  10.078
 3593W        W 7644   4.493   9.561   8.909
 3594W        W 7645   3.301   0.061   3.449
 3595W        W 7646   2.840   6.703   0.519
 3596W        W 7647   1.319   1.695   2.279
 3597W        W 7648   0.771   7.110   9.972
 3598W        W 7649   2.966   7.051  10.794
 3599W        W 7650   3.817   2.598  11.349
 3600W        W 7651   8.955  10.477   9.435
 3601W        W 7652   0.291   3.421   3.146
 3602W        W 7653   2.119   8.566   0.662
 3603W        W 7654   5.229   9.876   1.151
 3604W        W 7655   3.760   8.414  10.242
 3605W        W 7656   5.335  11.328   1.251
 3606W        W 7657   3.332  10.058   3.188
 3607W        W 7658   3.820   4.368  11.821
 3608W        W 7659   2.431   7.969  11.301
 3609W        W 7660   5.494   7.018   9.563
 3610W        W 7661   6.233   5.846   8.637
 3611W        W 7662  10.276   9.408   8.996
 3612W        W 7663   4.672   6.431  10.826
 3613W        W 7664   2.897   5.276  10.861
 3614W        W 7665   3.066   2.119   3.363
 3615W        W 7666  10.031   5.684   9.680
 3616W        W 7667   3.659   4.346  10.963
 3617W        W 7668   6.582   1.218   0.885
 3618W        W 7669  10.328   1.075   1.299
 3619W        W 7670   2.112   8.097   9.011
 3620W        W 7671   2.184   7.146   2.788
 3621W        W 7672   0.729   4.679   2.457
 3622W        W 7673   3.177   5.778  11.504
 3623W        W 7674   7.547   1.530   2.905
 3624W        W 7675   3.727   7.749   2.783
 3625W        W 7676   6.240   0.062  11.251
 3626W        W 7677   1.940   6.302  11.329
 3627W        W 7678   5.249   4.251   0.534
 3628W        W 7679   5.453   3.353   0.807
 3629W        W 7680   4.044   0.664   3.455
 3630W        W 7681   7.692   6.964   2.114
 3631W        W 7682   2.649   9.358   9.417
 3632W        W 7683   2.713   3.777  11.451
 3633W        W 7684   8.438   5.296   9.061
 3634W        W 7685   5.748   6.548   9.676
 3635W        W 7686   8.393   4.183   1.791
 3636W        W 7687   8.085   8.144  10.880
 3637W        W 7688   2.336   8.633   9.801
 3638W        W 7689   4.819   1.722   0.960
 3639W        W 7690   5.332   9.897   8.888
 3640W        W 7691   3.690  10.146   1.646
 3641W        W 7692   5.474  10.188   2.047
 3642W        W 7693   9.752   6.121   2.604
 3643W        W 7694   6.905   9.380   1.506
 3644W        W 7695   0.305   4.125   0.871
 3645W        W 7696  10.697   6.616  11.114
 3646W        W 7697   6.560   1.981   8.007
 3647W        W 7698   1.936   1.393   8.869
 3648W        W 7699   7.436   4.002   2.369
 3649W        W 7700   3.182  10.038  10.369
 3650W        W 7701   4.821   2.004   0.415
 3651W        W 7702  10.140   5.705   2.982
 3652W        W 7703   4.132   0.485   0.907
 3653W        W 7704   7.876   6.241   1.908
 3654W        W 7705  10.950   6.688   8.590
 3655W        W 7706   0.661   9.285   0.291
 3656W        W 7707   6.159   3.207   9.877
 3657W        W 7708   0.938   0.139   3.270
 3658W        W 7709   2.102   2.396   1.388
 3659W        W 7710  10.835   0.322  10.828
 3660W        W 7711   8.568   4.143   1.321
 3661W        W 7712  10.566   4.984   0.923
 3662W        W 7713   5.890   7.999   9.061
 3663W        W 7714   1.743   7.375   1.879
 3664W        W 7715   1.148   3.306   1.930
 3665W        W 7716   3.575   1.376   2.402
 3666W        W 7717   8.189   2.169  10.138
 3667W        W 7718   4.594   4.832   1.509
 3668W        W 7719   0.296  10.554  10.368
 3669W        W 7720   1.041   3.286   2.673
 3670W        W 7721   9.900   7.643  11.282
 3671W        W 7722   8.640  10.383   3.140
 3672W        W 7723   6.516   4.837  11.477
 3673W        W 7724   8.109   3.612   3.326
 3674W        W 7725  10.568   2.746   3.481
 3675W        W 7726   5.548   6.159   0.136
 3676W        W 7727   1.874   6.166  10.265
 3677W        W 7728   7.362  11.020   0.870
 3678W        W 7729   1.904   9.811  10.812
 3679W        W 7730   5.168   8.856  11.233
 3680W        W 7731   3.875   9.937  11.743
 3681W        W 7732   7.036   4.406   3.930
 3682W        W 7733   2.596   1.688  10.887
 3683W        W 7734   6.858  11.326  10.448
 3684W        W 7735  11.239  10.332   1.147
 3685W        W 7736   5.501   4.072  11.258
 3686W        W 7737   7.116   9.654   9.314
 3687W        W 7738   4.390   4.317   2.152
 3688W        W 7739  10.246   5.303   2.673
 3689W        W 7740   2.253   0.728  11.710
 3690W        W 7741   8.087   9.633  10.437
 3691W        W 7742   1.777   2.251   3.181
 3692W        W 7743   6.041   3.221   1.680
 3693W        W 7744  10.867   1.733   9.253
 3694W        W 7745   2.252   6.167   1.467
 3695W        W 7746   0.190  11.367   0.995
 3696W        W 7747   9.591   5.359   0.761
 3697W        W 7748   4.228   1.889  11.220
 3698W        W 7749  10.107   3.863   1.629
 3699W        W 7750   3.183  10.454   1.370
 3700W        W 7751   4.889   8.625   9.080
 3701W        W 7752   8.723   8.291   3.485
 3702W        W 7753   3.045   3.096  10.431
 3703W        W 7754   5.318  11.168   0.337
 3704W        W 7755   8.436   6.724  11.339
 3705W        W 7756   6.719   7.131   0.794
 3706W        W 7757   6.093   1.608   9.953
 3707W        W 7758  10.105   8.476   1.460
 3708W        W 7759   7.972   0.971   9.584
 3709W        W 7760   1.169   1.481  10.322
 3710W        W 7761   5.941   9.391   1.653
 3711W        W 7762  11.412  11.496  11.354
 3712W        W 7763   1.155   4.260   2.691
 3713W        W 7764   3.122   1.288   0.535
 3714W        W 7765   9.463   3.896   0.889
 3715W        W 7766   3.118   8.490   1.950
 3716W        W 7767   3.767   4.708   3.117
 3717W        W 7768   6.190   0.801  10.818
 3718W        W 7769   4.402   1.830   2.132
 3719W        W 7770   1.331   6.577   2.695
 3720W        W 7771  10.976  10.775   2.011
 3721W        W 7772   3.035   4.637  11.988
 3722W        W 7773   6.466   9.559  10.974
 3723W        W 7774   4.069   8.667   9.895
 3724W        W 7775  10.285   3.234  11.872
 3725W        W 7776  10.115  11.474  11.838
 3726W        W 7777   4.187   8.289   0.387
 3727W        W 7778   9.929   2.201   0.314
 3728W        W 7779   1.185   4.060   9.828
 3729W        W 7780   9.465   6.757  11.262
 3730W        W 7781   1.275   7.114   1.859
 3731W        W 7782   2.837   2.307   9.494
 3732W        W 7783   3.002   0.566   9.905
 3733W        W 7784   4.262   7.246  10.882
 3734W        W 7785   0.825  10.959   2.928
 3735W        W 7786   5.499   6.573   2.676
 3736W        W 7787   6.080   4.653  11.722
 3737W        W 7788   7.173   3.684   0.287
 3738W        W 7789  10.201   6.672   9.983
 3739W        W 7790   9.004   9.571   2.721
 3740W        W 7791   0.317   2.448   1.962
 3741W        W 7792   3.746  10.002   2.547
 3742W        W 7793  11.498   5.202   9.419
 3743W        W 7794  11.479   5.290   0.999
 3744W        W 7795   4.962   5.205  10.311
 3745W        W 7796   7.113   2.905  10.315
 3746W        W 7797   9.828   0.534   2.656
 3747W        W 7798   3.521   1.329  11.693
 3748W        W 7799  11.036   8.588  11.857
 3749W        W 7800   4.162   2.342   1.283
 3750W        W 7801   9.936   6.579   9.536
 3751W        W 7802   0.359   1.381   3.175
 3752W        W 7803   4.110   3.097   0.749
 3753W        W 7804   9.967   6.687  11.952
 3754W        W 7805   1.657   1.458   1.330
 3755W        W 7806  10.698   4.033   1.626
 3756W        W 7807   0.335   7.501   1.010
 3757W        W 7808  11.444   0.446   1.823
 3758W        W 7809   0.192   3.050   0.912
 3759W        W 7810   3.709  11.117   1.677
 3760W        W 7811   2.031   6.876   0.315
 3761W        W 7812  11.448   3.911   9.574
 3762W        W 7813  10.277   6.089  10.347
 3763W        W 7814   1.450   7.831   1.415
 3764W        W 7815  11.085   1.707  11.329
 3765W        W 7816   2.277   8.136   1.675
 3766W        W 7817   3.690   7.443   2.386
 3767W        W 7818   8.005  10.258   1.033
 3768W        W 7819   1.361   5.586   2.263
 3769W        W 7820   7.353   8.531   0.902
 3770W        W 7821   5.271   9.025   2.785
 3771W        W 7822   6.044   3.099   8.125
 3772W        W 7823   6.755   3.671  10.423
 3773W        W 7824   5.995   4.199   8.937
 3774W        W 7825   9.445   1.894  11.917
 3775W        W 7826   6.444   8.112   3.830
 3776W        W 7827   9.143   3.338   0.931
 3777W        W 7828   4.217   9.279   2.180
 3778W        W 7829   4.770  10.884  10.754
 3779W        W 7830   0.840   4.630   1.469
 3780W        W 7831   4.274   2.323  11.488
 3781W        W 7832  10.007   6.392   8.515
 3782W        W 7833   1.025   7.508  11.383
 3783W        W 7834  10.122   9.739   2.181
 3784W        W 7835   6.767   6.443   1.209
 3785W        W 7836   6.153   6.542  11.185
 3786W        W 7837   2.422   9.371   1.199
 3787W        W 7838   5.541   9.419  10.794
 3788W        W 7839   1.834   0.827   9.545
 3789W        W 7840   5.711   8.851  10.813
 3790W        W 7841   6.156   0.942   9.095
 3791W        W 7842   7.000   9.564  10.836
 3792W        W 7843   5.638   1.829  10.558
 3793W        W 7844   1.778   3.559   9.906
 3794W        W 7845   4.750   1.133   1.680
 3795W        W 7846   7.424  10.221   8.536
 3796W        W 7847   4.675   7.112   1.033
 3797W        W 7848   6.543   2.875   9.901
 3798W        W 7849   9.959   6.648  11.329
 3799W        W 7850  10.808   4.680   2.272
 3800W        W 7851   5.493   4.610   1.441
 3801W        W 7852   0.172   6.043   8.963
 3802W        W 7853   7.531  10.805   9.308
 3803W        W 7854   7.980   9.519   2.343
 3804W        W 7855   2.292  10.918   3.341
 3805W        W 7856   3.639   4.157   0.236
 3806W        W 7857   0.376   8.846  10.640
 3807W        W 7858   8.608   2.730   0.029
 3808W        W 7859   9.850   6.599   1.367
 3809W        W 7860   5.134   0.174   9.496
 3810W        W 7861  11.473   8.182   1.404
 3811W        W 7862  10.022   7.093   1.394
 3812W        W 7863   7.720   5.899  10.633
 3813W        W 7864   6.259   3.591   8.179
 3814W        W 7865   5.113   6.726   3.024
 3815W        W 7866   0.641   1.297   1.506
 3816W        W 7867   4.188  10.470   2.894
 3817W        W 7868  10.924   7.725   0.100
 3818W        W 7869   1.852   1.481  11.881
 3819W        W 7870   7.219   1.241  10.487
 3820W        W 7871  10.057   8.410   3.242
 3821W        W 7872   7.947  11.470   9.505
 3822W        W 7873  10.308   8.484  11.095
 3823W        W 7874   2.399   8.924   0.437
 3824W        W 7875   1.227   4.619   3.500
 3825W        W 7876   5.475   0.843  10.353
 3826W        W 7877   1.966  10.284   0.562
 3827W        W 7878   9.269   7.120   0.804
 3828W        W 7879   2.390   1.962   1.338
 3829W        W 7880   2.713  10.605   1.528
 3830W        W 7881   2.317   7.636   9.027
 3831W        W 7882   4.848   9.030   0.401
 3832W        W 7883   1.662   3.163  10.601
 3833W        W 7884   6.030   9.249  10.917
 3834W        W 7885   8.378   2.932   1.776
 3835W        W 7886   3.443   3.386   2.249
 3836W        W 7887   0.883   0.482  11.916
 3837W        W 7888  10.754   4.545   3.243
 3838W        W 7889   1.766   7.891   1.843
 3839W        W 7890   4.638   9.818   1.781
 3840W        W 7891  11.135   5.099   0.043
 3841W        W 7892   1.652   1.770   9.079
 3842W        W 7893   5.038   2.514   9.829
 3843W        W 7894  10.404   0.980   8.769
 3844W        W 7895   2.705   1.409   2.334
 3845W        W 7896   4.754   3.272  11.762
 3846W        W 7897   5.116   8.166  10.643
 3847W        W 7898   7.721   4.294   0.260
 3848W        W 7899   8.980   8.377   0.377
 3849W        W 7900   9.573   0.284   9.869
 3850W        W 7901   4.208   7.322   1.747
 3851W        W 7902   8.740   8.540   9.047
 3852W        W 7903   3.856   7.085  10.625
 3853W        W 7904   5.102   6.020   0.490
 3854W        W 7905   6.755   8.038   9.911
 3855W        W 7906   9.703   7.661   1.818
 3856W        W 7907   6.537   1.906   3.264
 3857W        W 7908  11.047   9.396   2.593
 3858W        W 7909   2.385   1.460  10.415
 3859W        W 7910   0.910   1.405   0.572
 3860W        W 7911   4.187   0.003   3.115
 3861W        W 7912   0.081   8.946   3.571
 3862W        W 7913   0.471   6.486   2.635
 3863W        W 7914   5.668   1.366  10.342
 3864W        W 7915   3.162   3.721   3.277
 3865W        W 7916   7.125   3.569   9.579
 3866W        W 7917   8.643   1.849   2.312
 3867W        W 7918   1.797   2.573   2.741
 3868W        W 7919   3.246   0.980   1.721
 3869W        W 7920   2.589   2.713   2.908
 3870W        W 7921  10.355   6.997   1.788
 3871W        W 7922  10.009   4.331   2.163
 3872W        W 7923   0.934   5.973   2.169
 3873W        W 7924   0.845   1.068   9.493
 3874W        W 7925   5.634   5.098   1.261
 3875W        W 7926   6.815   2.405   1.422
 3876W        W 7927   7.054   6.686  10.520
 3877W        W 7928   0.083   7.202   2.154
 3878W        W 7929   2.650   9.644   0.794
 3879W        W 7930   4.227   5.226   0.030
 3880W        W 7931  11.052   2.830  11.260
 3881W        W 7932   1.206   5.637  11.581
 3882W        W 7933   5.150   7.738  10.998
 3883W        W 7934   4.415   2.084   1.667
 3884W        W 7935   5.713   8.540   2.826
 3885W        W 7936   9.422   5.656  10.830
 3886W        W 7937   4.108   7.076   9.759
 3887W        W 7938  11.280   3.529   8.679
 3888W        W 7939   8.667   2.830  10.509
 3889W        W 7940   8.453   8.561   8.589
 3890W        W 7941   4.922   2.485   0.209
 3891W        W 7942   3.951   7.954   9.424
 3892W        W 7943   3.231   2.880   2.218
 3893W        W 7944  10.785  10.146  10.526
 3894W        W 7945   2.887  10.015   9.176
 3895W        W 7946   1.219   6.611   3.225
 3896W        W 7947   7.704   0.262   3.389
 3897W        W 7948   3.373   6.658  11.213
 3898W        W 7949  10.893   1.772   3.211
 3899W        W 7950   4.073   1.305   2.359
 3900W        W 7951   6.649   2.258   8.445
 3901W        W 7952   3.777   7.207   1.489
 3902W        W 7953   1.114   6.985   1.368
 3903W        W 7954   3.708  11.478  10.512
 3904W        W 7955   2.255   4.616  10.305
 3905W        W 7956   3.866   1.363   1.436
 3906W        W 7957   7.867   8.569   0.889
 3907W        W 7958   5.426   1.147   1.145
 3908W        W 7959   0.032   3.635   1.555
 3909W        W 7960   0.457   5.385   9.331
 3910W        W 7961   5.217  10.934  11.057
 3911W        W 7962   7.032   9.488  11.724
 3912W        W 7963   1.841   0.298   2.203
 3913W        W 7964  11.266   2.513   9.302
 3914W        W 7965   0.800   1.772   0.969
 3915W        W 7966   7.102   2.131  11.878
 3916W        W 7967   5.303   5.139   0.475
 3917W        W 7968   1.827   3.882  10.982
 3918W        W 7969   0.263   1.315   9.444
 3919W        W 7970   5.871   9.639   1.195
 3920W        W 7971   5.053   3.050   2.703
 3921W        W 7972   1.219   2.297  11.191
 3922W        W 7973   7.963   4.663   0.674
 3923W        W 7974   9.628   2.367  11.940
 3924W        W 7975  11.410   6.592   3.478
 3925W        W 7976   2.764   0.747   9.486
 3926W        W 7977  10.805   3.609   8.910
 3927W        W 7978   8.562   3.852   3.188
 3928W        W 7979   5.271   2.752   0.485
 3929W        W 7980   2.171   1.308  11.517
 3930W        W 7981   2.442   8.357   2.558
 3931W        W 7982   0.238   0.785  11.457
 3932W        W 7983  11.130   1.626  10.821
 3933W        W 7984   1.471   1.876  10.461
 3934W        W 7985   2.898   6.936   9.037
 3935W        W 7986   3.075   8.303   2.424
 3936W        W 7987  10.618   7.883   3.472
 3937W        W 7988   3.493  10.591   1.785
 3938W        W 7989   2.404   9.866   1.210
 3939W        W 7990   0.745   1.174  10.801
 3940W        W 7991  11.219  10.587  11.946
 3941W        W 7992  11.241   7.871  11.484
 3942W        W 7993   5.298  10.001   2.678
 3943W        W 7994   6.108   4.760   0.727
 3944W        W 7995  11.478   4.899   1.312
 3945W        W 7996   6.542   0.834   8.761
 3946W        W 7997   3.609   6.170   0.492
 3947W        W 7998   8.478   4.021   9.965
 3948W        W 7999   2.855   9.120   1.201
 3949W        W 8000   9.809   2.889   8.445
 3950W        W 8001   8.413   4.282  11.826
 3951W        W 8002   8.925   2.635   2.177
 3952W        W 8003   7.621   0.748  11.124
 3953W        W 8004   8.241   6.452  10.077
 3954W        W 8005   9.143   1.276   9.011
 3955W        W 8006   8.322   6.970  10.774
 3956W        W 8007   9.102   6.940   8.067
 3957W        W 8008   2.918   0.432   3.582
 3958W        W 8009   9.516   6.251   9.056
 3959W        W 8010  10.337   9.423   1.380
 3960W        W 8011   8.953   8.090   8.997
 3961W        W 8012   4.999   4.701   1.233
 3962W        W 8013   2.829   5.937  10.183
 3963W        W 8014   6.256   4.284   0.486
 3964W        W 8015   5.606   3.875   9.060
 3965W        W 8016   3.650   2.525   2.074
 3966W        W 8017   2.582   9.524   3.129
 3967W        W 8018   0.533   9.845  11.062
 3968W        W 8019   7.856   2.420  10.488
 3969W        W 8020   4.195   9.984   8.865
 3970W        W 8021   2.681   0.571  10.333
 3971W        W 8022   3.449  10.135  11.475
 3972W        W 8023   9.488   1.626   0.356
 3973W        W 8024   7.734   1.259   9.956
 3974W        W 8025   3.604  10.310  10.951
 3975W        W 8026   7.729  11.079  10.661
 3976W        W 8027   4.183   3.469   0.397
 3977W        W 8028   7.518  10.354   9.559
 3978W        W 8029   1.626  10.493  11.692
 3979W        W 8030   7.598   6.122   3.783
 3980W        W 8031   9.924   2.779   2.286
 3981W        W 8032   6.668   9.933   1.348
 3982W        W 8033   6.669   3.363   9.789
 3983W        W 8034  11.320   9.023   9.598
 3984W        W 8035   2.798  10.070   1.524
 3985W        W 8036   7.213   8.463   2.385
 3986W        W 8037   9.160   5.495  10.082
 3987W        W 8038  10.704   2.352   1.267
 3988W        W 8039   5.638   4.860  11.923
 3989W        W 8040   6.111   2.330   3.229
 3990W        W 8041   0.653   5.865   9.944
 3991W        W 8042   4.637   6.813   0.206
 3992W        W 8043   2.214   3.918   1.843
 3993W        W 8044   4.519  10.789   8.806
 3994W        W 8045   0.972   6.651  10.401
 3995W        W 8046   9.253   9.005  10.344
 3996W        W 8047   0.433   0.059   0.585
 3997W        W 8048   8.573   7.963   2.261
 3998W        W 8049   1.452   9.338  10.069
 3999W        W 8050   4.327  10.396   0.544
 4000W        W 8051   4.564   0.859   1.274
 4001W        W 8052   0.310   0.693   8.682
 4002W        W 8053   7.608   9.054   1.152
 4003W        W 8054   5.416   0.403   3.007
 4004W        W 8055   0.037   5.269   2.313
 4005W        W 8056   0.836   6.264  10.892
 4006W        W 8057   9.704   9.600   0.227
 4007W        W 8058   5.247  11.396  11.272
 4008W        W 8059   0.798   4.628   1.967
 4009W        W 8060   7.650   7.562  10.418
 4010W        W 8061   8.198   0.437   3.490
 4011W        W 8062   4.465   7.114   9.355
 4012W        W 8063   4.170  10.075   1.863
 4013W        W 8064   3.117   3.646  10.057
 4014W        W 8065   9.511   0.721   3.550
 4015W        W 8066   3.361  10.985  11.687
 4016W        W 8067   1.033   5.132   0.314
 4017W        W 8068   7.854   2.401  11.489
 4018W        W 8069  10.863   5.005   0.481
 4019W        W 8070   5.034   0.448   2.177
 4020W        W 8071   6.318  11.266   1.136
 4021W        W 8072   1.912  10.867   9.694
 4022W        W 8073   3.752   4.996   1.745
 4023W        W 8074   8.768  10.620   3.549
 4024W        W 8075   6.037  10.010   0.861
 4025W        W 8076   3.544  10.651  11.340
 4026W        W 8077   5.029   3.424  10.553
 4027W        W 8078  10.868   7.715   3.036
 4028W        W 8079   3.121   7.414   0.369
 4029W        W 8080   9.581   4.929   4.373
 4030W        W 8081   4.795   7.972  10.274
 4031W        W 8082   3.312   2.707   3.234
 4032W        W 8083   0.564   0.857   1.727
 4033W        W 8084   7.467   9.762   3.221
 4034W        W 8085   2.885   4.525  10.429
 4035W        W 8086   5.110   8.986   2.024
 4036W        W 8087   5.215   3.217   8.726
 4037W        W 8088  10.306   6.939   9.556
 4038W        W 8089   9.123   3.711   9.491
 4039W        W 8090   8.816   1.309   1.292
 4040W        W 8091   2.795   1.269   9.499
 4041W        W 8092   2.129   2.902   3.012
 4042W        W 8093   5.825  10.599  10.501
 4043W        W 8094   3.745   2.638   9.831
 4044W        W 8095  10.892   3.279   9.888
 4045W        W 8096  11.084   5.080   2.425
 4046W        W 8097   7.997   1.046   3.486
 4047W        W 8098  11.008   3.132  10.395
 4048W        W 8099  11.411   2.320   0.402
 4049W        W 8100   3.324   9.346  11.063
 4050W        W 8101   5.135   1.588   9.240
 4051W        W 8102   9.551   7.540  10.328
 4052W        W 8103   4.225   2.847  11.528
 4053W        W 8104   6.592   0.437   1.374
 4054W        W 8105   0.116   8.561   1.076
 4055W        W 8106   0.047   2.344  10.398
 4056W        W 8107   0.507   3.840   3.376
 4057W        W 8108   2.644   6.183   3.319
 4058W        W 8109   2.855   2.025   1.161
 4059W        W 8110   2.872   3.333   3.519
 4060W        W 8111   8.847   0.377   1.849
 4061W        W 8112   0.496   9.330   3.499
 4062W        W 8113   8.930   5.130   2.281
 4063W        W 8114   6.162   3.079   3.736
 4064W        W 8115  11.282   5.641   9.697
 4065W        W 8116   9.154   8.089  11.938
 4066W        W 8117   7.656  11.253  11.139
 4067W        W 8118   1.778   2.470  10.891
 4068W        W 8119   2.319   0.011   3.326
 4069W        W 8120   3.312   9.639  11.477
 4070W        W 8121   6.656   7.012   0.307
 4071W        W 8122   1.300   7.642   1.847
 4072W        W 8123   9.497   8.657   8.534
 4073W        W 8124  10.036   4.858   2.781
 4074W        W 8125  10.153  11.427   0.655
 4075W        W 8126   9.637   4.076   1.343
 4076W        W 8127   4.606   2.115   8.626
 4077W        W 8128   6.702   0.406   3.193
 4078W        W 8129   9.702   1.475   0.802
 4079W        W 8130   4.638  11.483   9.548
 4080W        W 8131   6.060   1.315   2.168
 4081W        W 8132   9.826   7.487  10.776
 4082W        W 8133   7.936   5.002  11.542
 4083W        W 8134   7.917   9.468   0.193
 4084W        W 8135   5.638   5.694   1.898
 4085W        W 8136   8.232   2.276   0.895
 4086W        W 8137   2.895   9.807   3.420
 4087W        W 8138   6.734   8.972   0.805
 4088W        W 8139   6.421   9.902   3.141
 4089W        W 8140   5.443   5.898   1.468
 4090W        W 8141   8.495   8.216   0.206
 4091W        W 8142   6.389   2.266   1.874
 4092W        W 8143   0.754   3.277   0.404
 4093W        W 8144   9.570   8.940   8.972
 4094W        W 8145   8.323   3.039   9.937
 4095W        W 8146  11.068   2.886   9.596
 4096W        W 8147   4.692   2.966  11.367
 4097W        W 8148   6.584  11.339  11.846
 4098W        W 8149   9.920   2.389   8.573
 4099W        W 8150  10.417   0.362  11.689
 4100W        W 8151   0.768   4.331   9.986
 4101W        W 8152  11.267   4.849   0.810
 4102W        W 8153   8.422   2.075   2.769
 4103W        W 8154   5.505   9.745   3.249
 4104W        W 8155  10.528  10.884   1.360
 4105W        W 8156   9.001   8.662  10.743
 4106W        W 8157  11.368   8.744  11.375
 4107W        W 8158   7.065  10.086   9.576
 4108W        W 8159   0.181   0.747   3.429
 4109W        W 8160   4.929   1.863   8.278
 4110W        W 8161   7.863   1.152   2.228
 4111W        W 8162   8.029  11.287  11.894
 4112W        W 8163   6.440   6.399   9.036
 4113W        W 8164  10.610   9.528   3.222
 4114W        W 8165  11.017   4.705   2.802
 4115W        W 8166  11.495   9.814   2.239
 4116W        W 8167   8.978   2.183   9.552
 4117W        W 8168   4.583  10.992   0.404
 4118W        W 8169   7.100   2.303   2.486
 4119W        W 8170   5.746   1.276  11.363
 4120W        W 8171  10.450   0.831   3.743
 4121W        W 8172   0.016   6.169   3.166
 4122W        W 8173   5.239   5.497   1.273
 4123W        W 8174   2.662   6.970   1.830
 4124W        W 8175   5.090   7.620  10.015
 4125W        W 8176  10.895   5.448   8.590
 4126W        W 8177   0.825   5.632  10.440
 4127W        W 8178   5.576   9.559   2.768
 4128W        W 8179   3.102   8.468  10.908
 4129W        W 8180   5.560  10.209   0.904
 4130W        W 8181   1.391   1.905   1.203
 4131W        W 8182   4.154   7.566   1.316
 4132W        W 8183   3.816   0.007   1.285
 4133W        W 8184   6.143   0.851   2.999
 4134W        W 8185  11.142  10.520   1.607
 4135W        W 8186   0.937   0.556   3.686
 4136W        W 8187  10.004   3.287   0.351
 4137W        W 8188   4.276   9.076  11.217
 4138W        W 8189  11.127   3.917   0.129
 4139W        W 8190   3.798   3.131   0.304
 4140W        W 8191   0.138   3.149   1.800
 4141W        W 8192   6.490   7.355   2.412
 4142W        W 8193   4.786   6.948   3.348
 4143W        W 8194   4.537  10.300  10.329
 4144W        W 8195   9.540   2.458  10.178
 4145W        W 8196   0.792   8.731   3.234
 4146W        W 8197   9.465   6.221   1.476
 4147W        W 8198   7.001   1.788   9.288
 4148W        W 8199  11.248   3.044  11.676
 4149W        W 8200   8.116   8.118   0.806
 4150W        W 8201   6.631   1.578   2.875
 4151W        W 8202   9.030   2.247   9.046
 4152W        W 8203   8.755   4.602  11.315
 4153W        W 8204   2.292   1.795  10.056
 4154W        W 8205   1.933   5.326   9.909
 4155W        W 8206   1.066   2.313   0.229
 4156W        W 8207  11.208   6.910   9.853
 4157W        W 8208   2.108  10.919  11.309
 4158W        W 8209   7.930   4.046   1.680
 4159W        W 8210   0.934   8.443   2.795
 4160W        W 8211   8.584   1.849  11.487
 4161W        W 8212   6.957   4.684  10.238
 4162W        W 8213   7.022   1.295   9.435
 4163W        W 8214  11.240   1.338   1.895
 4164W        W 8215   4.364   5.613   1.871
 4165W        W 8216   9.105   8.515   1.794
 4166W        W 8217   5.111   9.529   2.946
 4167W        W 8218   6.013   2.892   3.275
 4168W        W 8219   2.202   7.487   0.507
 4169W        W 8220   8.266   2.705   2.707
 4170W        W 8221   9.025  11.252   2.704
 4171W        W 8222   2.538   8.995   8.549
 4172W        W 8223   4.922   2.929  10.521
 4173W        W 8224   8.867   9.513   9.784
 4174W        W 8225   5.236   7.502   9.558
 4175W        W 8226   9.225   6.089  11.767
 4176W        W 8227   8.007   8.715   9.997
 4177W        W 8228   5.521   8.085   0.261
 4178W        W 8229   9.534   1.528   9.811
 4179W        W 8230   6.101   3.809   1.005
 4180W        W 8231   1.152   7.441   3.166
 4181W        W 8232   3.756   9.007   3.237
 4182W        W 8233   4.848   1.004   0.385
 4183W        W 8234   2.467   7.995   9.378
 4184W        W 8235   2.191   8.428   1.151
 4185W        W 8236   2.048   4.251   9.386
 4186W        W 8237   4.680   5.268   0.255
 4187W        W 8238   1.482   8.627   2.813
 4188W        W 8239   4.384   9.452   2.645
 4189W        W 8240  11.312   7.777  10.990
 4190W        W 8241   6.109   5.905   1.818
 4191W        W 8242   0.354   8.046  11.766
 4192W        W 8243  10.873   8.128  11.718
 4193W        W 8244  10.846   1.502  10.108
 4194W        W 8245   8.413   9.405   9.562
 4195W        W 8246  11.433   4.389   0.653
 4196W        W 8247   5.929   4.630   9.198
 4197W        W 8248  10.479   5.069   1.793
 4198W        W 8249   5.205   3.957   0.935
 4199W        W 8250   4.674   6.949  10.891
 4200W        W 8251   1.147  10.652   3.577
 4201W        W 8252   5.414  10.349  10.275
 4202W        W 8253   7.687   2.728   9.509
 4203W        W 8254   6.650   0.921   0.467
 4204W        W 8255   8.119   8.683   1.978
 4205W        W 8256   0.804   1.060  11.302
 4206W        W 8257   1.573   0.865   0.586
 4207W        W 8258   8.536   5.587  11.402
 4208W        W 8259   4.554   7.534  10.561
 4209W        W 8260   1.480   3.054   9.040
 4210W        W 8261   2.559   8.619  11.002
 4211W        W 8262   6.345   2.345   0.356
 4212W        W 8263   9.285   4.193   9.359
 4213W        W 8264  11.236   5.359   1.438
 4214W        W 8265   4.359   6.658   9.983
 4215W        W 8266   9.642   1.025   1.693
 4216W        W 8267   9.133   8.068   0.808
 4217W        W 8268  10.463  10.327  11.022
 4218W        W 8269   9.831   9.570  11.638
 4219W        W 8270  10.481   8.493   9.092
 4220W        W 8271   3.022  10.956   1.321
 4221W        W 8272   0.755   3.825   9.922
 4222W        W 8273  10.199   7.635   1.119
 4223W        W 8274   9.105   1.726   8.751
 4224W        W 8275   9.490   8.432   2.151
 4225W        W 8276   7.409   7.575  10.871
 4226W        W 8277   0.873   9.586   2.161
 4227W        W 8278   1.956   9.584   1.205
 4228W        W 8279   4.185   6.238   9.751
 4229W        W 8280   0.528   2.604   1.514
 4230W        W 8281   5.904   5.722   2.316
 4231W        W 8282   5.058   0.482   8.942
 4232W        W 8283   7.727  10.565   0.248
 4233W        W 8284   7.672   9.026   2.589
 4234W        W 8285   7.429   2.778   0.894
 4235W        W 8286   8.232   1.327  11.756
 4236W        W 8287   2.333   8.491   9.309
 4237W        W 8288   7.974  11.336   2.508
 4238W        W 8289   4.228   6.968   1.219
 4239W        W 8290   8.536   0.179   1.483
 4240W        W 8291   9.282   4.499  11.421
 4241W        W 8292  11.340   1.217  11.016
 4242W        W 8293   3.669   1.317   9.636
 4243W        W 8294   9.096   5.783   8.636
 4244W        W 8295   9.987  10.556  11.310
 4245W        W 8296   2.285   7.251  11.551
 4246W        W 8297   4.846   2.130   1.919
 4247W        W 8298   5.237   1.201  10.061
 4248W        W 8299  11.439  10.446   3.275
 4249W        W 8300   1.767   8.406   1.826
 4250W        W 8301   6.043   3.726   3.851
 4251W        W 8302   4.136   4.752   8.653
 4252W        W 8303   8.128   9.425   1.818
 4253W        W 8304   5.850   8.971   0.019
 4254W        W 8305  11.168   4.296  10.352
 4255W        W 8306   4.047   1.477   0.952
 4256W        W 8307  11.382   7.650   1.189
 4257W        W 8308   5.252   8.447  11.534
 4258W        W 8309   4.722   4.307  11.841
 4259W        W 8310  10.003   1.668   0.352
 4260W        W 8311   8.387  10.352   1.388
 4261W        W 8312  10.527  10.833   8.914
 4262W        W 8313   0.466   9.588   3.006
 4263W        W 8314   7.397   4.111   9.139
 4264W        W 8315   1.734   5.995   3.256
 4265W        W 8316   4.304   0.250   0.416
 4266W        W 8317   6.166   7.494  11.272
 4267W        W 8318   7.167   9.135  10.050
 4268W        W 8319   2.914   0.953   2.105
 4269W        W 8320   9.390   8.920   3.559
 4270W        W 8321   2.255   2.785   2.536
 4271W        W 8322  11.224   0.035   0.882
 4272W        W 8323   6.603   3.652   1.910
 4273W        W 8324   6.161   2.498   0.841
 4274W        W 8325   2.010  10.730   0.847
 4275W        W 8326   7.969   4.043  11.907
 4276W        W 8327   7.430  10.918   9.876
 4277W        W 8328  10.941   1.242   9.114
 4278W        W 8329  10.725   6.545   1.788
 4279W        W 8330  10.364   6.038   9.517
 4280W        W 8331   8.343   2.317  11.428
 4281W        W 8332   8.430   1.557   2.700
 4282W        W 8333   3.111   2.125   2.589
 4283W        W 8334   7.564   2.557   3.175
 4284W        W 8335   7.898  10.409   8.531
 4285W        W 8336   4.950   8.990   9.474
 4286W        W 8337   5.053   8.820  11.860
 4287W        W 8338   2.742   2.217   2.972
 4288W        W 8339   6.516   5.904  11.897
 4289W        W 8340   7.559   6.892   0.803
 4290W        W 8341   5.334   0.347  11.510
 4291W        W 8342   9.153   2.804   2.842
 4292W        W 8343   1.737  11.259   2.968
 4293W        W 8344   4.233   9.546  11.990
 4294W        W 8345   9.007   4.102  11.176
 4295W        W 8346   1.800   9.168   2.326
 4296W        W 8347   6.879   9.412   2.450
 4297W        W 8348   8.375   1.589   1.365
 4298W        W 8349   7.035   6.941  11.013
 4299W        W 8350   9.098   3.101   3.245
 4300W        W 8351   3.552   9.333   0.885
 4301W        W 8352   8.392   1.117   2.156
 4302W        W 8353   6.965   4.664   1.235
 4303W        W 8354   1.808   8.881   0.891
 4304W        W 8355   3.620   1.743   1.734
 4305W        W 8356   5.621   1.760  11.465
 4306W        W 8357   4.228   3.183   9.584
 4307W        W 8358   8.525   2.837   8.638
 4308W        W 8359  10.680   2.287  10.532
 4309W        W 8360   6.352  10.665   8.406
 4310W        W 8361   9.358  10.816   9.850
 4311W        W 8362   1.728  10.889   0.014
 4312W        W 8363   2.743   5.642  11.255
 4313W        W 8364   0.134   2.416   9.634
 4314W        W 8365   4.428   8.645  10.932
 4315W        W 8366   9.095   2.408   1.686
 4316W        W 8367   0.575   2.926   1.901
 4317W        W 8368   2.373   2.543   9.616
 4318W        W 8369   2.828   0.042   3.231
 4319W        W 8370   3.632   0.756   0.854
 4320W        W 8371   1.878  10.003  11.774
 4321W        W 8372   1.835  10.606   8.777
 4322W        W 8373   0.979   0.677   9.869
 4323W        W 8374   8.562   5.350   0.806
 4324W        W 8375   6.776   7.488   8.655
 4325W        W 8376  10.415   5.525  11.890
 4326W        W 8377   5.121   7.369   2.285
 4327W        W 8378   1.223   2.640   9.882
 4328W        W 8379  10.046   6.795   4.394
 4329W        W 8380  10.739   5.133   9.009
 4330W        W 8381   4.164   6.436   4.237
 4331W        W 8382   0.665  11.113   8.574
 4332W        W 8383   5.594   8.005  10.716
 4333W        W 8384   8.690   7.125   2.125
 4334W        W 8385  10.963   0.827  10.927
 4335W        W 8386   6.821   6.134   0.242
 4336W        W 8387  10.344  11.478  11.378
 4337W        W 8388   8.489   1.641  10.017
 4338W        W 8389   3.276   3.041   2.692
 4339W        W 8390   3.553   9.048   0.051
 4340W        W 8391   8.596   9.633  10.618
 4341W        W 8392   9.992  11.315  10.520
 4342W        W 8393  10.895   5.069   9.818
 4343W        W 8394   7.140  11.407   9.945
 4344W        W 8395  10.490   6.549   0.864
 4345W        W 8396   5.494  10.963   2.135
 4346W        W 8397   9.895   9.196  12.000
 4347W        W 8398  10.190   7.997  10.939
 4348W        W 8399   0.938  10.605   9.035
 4349W        W 8400  11.397   2.262   2.354
 4350W        W 8401   5.186   1.756   1.753
 4351W        W 8402   0.390   8.502  11.022
 4352W        W 8403   0.495   8.123   2.694
 4353W        W 8404   8.484   7.193   8.894
 4354W        W 8405   8.407   5.166   1.335
 4355W        W 8406   0.321   7.467   0.490
 4356W        W 8407  10.024   7.041   3.577
 4357W        W 8408   3.078   2.584   2.786
 4358W        W 8409   5.620   7.168   0.217
 4359W        W 8410   2.319  10.899   2.823
 4360W        W 8411  11.318   9.081   2.929
 4361W        W 8412   9.340   9.363   1.294
 4362W        W 8413  11.480   4.141  10.741
 4363W        W 8414   0.980   7.989   1.496
 4364W        W 8415   1.564   9.702   3.294
 4365W        W 8416   6.562   3.420  11.833
 4366W        W 8417   4.260   0.360   9.343
 4367W        W 8418   4.148   0.023   1.706
 4368W        W 8419   8.375   4.207  10.424
 4369W        W 8420   7.592   8.571   2.812
 4370W        W 8421  10.361   1.013  10.310
 4371W        W 8422   7.586   6.688   2.938
 4372W        W 8423   6.032   4.580  10.795
 4373W        W 8424  11.463   2.213   2.857
 4374W        W 8425   9.285   6.469   0.558
 4375W        W 8426   9.882   7.910  10.490
 4376W        W 8427  10.610   1.754  11.435
 4377W        W 8428   6.263   6.582  11.682
 4378W        W 8429   6.199   1.398  10.434
 4379W        W 8430   4.532  10.920  11.581
 4380W        W 8431   9.883   8.132   1.962
 4381W        W 8432   6.124   9.192   1.213
 4382W        W 8433   5.535   7.052  10.859
 4383W        W 8434   0.539   7.375  11.418
 4384W        W 8435   0.624   4.236   2.681
 4385W        W 8436   2.039   5.672   8.659
 4386W        W 8437   3.558   1.778   9.865
 4387W        W 8438   5.444   5.649  10.498
 4388W        W 8439   6.402   9.535   1.513
 4389W        W 8440   0.865   4.606   0.976
 4390W        W 8441  10.433   7.415   3.621
 4391W        W 8442   6.274   4.143   2.748
 4392W        W 8443   2.441   2.644  11.031
 4393W        W 8444   1.698   7.404   0.733
 4394W        W 8445   1.689   3.275   0.999
 4395W        W 8446   0.036  10.933   8.943
 4396W        W 8447   7.400  10.050   0.914
 4397W        W 8448   9.342   1.041   2.131
 4398W        W 8449   1.251   4.271   0.503
 4399W        W 8450   5.605   4.355  11.800
 4400W        W 8451   8.466   2.346   9.569
 4401W        W 8452   1.834   1.028   1.579
 4402W        W 8453   8.704   2.140   0.768
 4403W        W 8454   4.511   2.202  10.925
 4404W        W 8455   1.504  11.274   9.042
 4405W        W 8456   9.897   9.159   2.844
 4406W        W 8457   8.455   4.859   0.907
 4407W        W 8458   0.443   0.259  11.755
 4408W        W 8459   5.168   7.732   1.357
 4409W        W 8460  10.434   1.729   2.891
 4410W        W 8461   7.910   6.516   0.783
 4411W        W 8462   5.989   5.247  10.054
 4412W        W 8463   4.671   5.301  11.738
 4413W        W 8464   8.677   2.114   9.976
 4414W        W 8465   1.700  11.311   9.877
 4415W        W 8466  11.471  10.327   9.574
 4416W        W 8467   2.837  11.148  10.311
 4417W        W 8468   4.484   0.285   2.014
 4418W        W 8469   5.701   9.401  10.310
 4419W        W 8470   5.630   0.274   1.373
 4420W        W 8471   7.866   0.993   0.942
 4421W        W 8472   7.740   9.926   8.786
 4422W        W 8473   1.814  10.952   1.603
 4423W        W 8474   1.261   7.986   9.877
 4424W        W 8475   4.478   9.330   3.558
 4425W        W 8476   6.041   6.627   0.826
 4426W        W 8477   8.187   7.055   2.113
 4427W        W 8478   0.322   4.841   2.154
 4428W        W 8479   4.640   9.789  10.258
 4429W        W 8480   0.430   0.267  10.090
 4430W        W 8481  11.223   0.848  11.378
 4431W        W 8482   7.596   9.885   2.349
 4432W        W 8483   5.202  10.005   8.395
 4433W        W 8484   4.078   9.273   8.986
 4434W        W 8485   5.072   2.981   0.063
 4435W        W 8486   3.501   5.988   3.050
 4436W        W 8487  10.365  10.083   0.766
 4437W        W 8488   3.121   5.269  11.344
 4438W        W 8489   0.441  10.853   9.886
 4439W        W 8490   2.293   5.518  11.066
 4440W        W 8491   6.644   0.546  10.698
 4441W        W 8492   1.199   0.513   0.454
 4442W        W 8493   3.332   7.956   1.830
 4443W        W 8494   0.970   2.911   2.210
 4444W        W 8495   2.728   5.578   9.784
 4445W        W 8496   3.504   0.578   1.854
 4446W        W 8497  10.435   1.776   3.458
 4447W        W 8498   7.651   0.395   0.945
 4448W        W 8499  10.764   2.967  10.851
 4449W        W 8500   8.305   1.441   8.967
 4450W        W 8501   7.946   8.693   9.487
 4451W        W 8502   3.371   9.976   9.358
 4452W        W 8503  10.907  10.922  10.516
 4453W        W 8504   0.225   1.944   1.912
 4454W        W 8505   0.525   9.346  10.867
 4455W        W 8506  10.420   2.550   8.638
 4456W        W 8507   6.967  10.395   2.881
 4457W        W 8508   4.580   4.795   0.987
 4458W        W 8509   8.516   3.967  10.853
 4459W        W 8510   8.344   2.157   0.382
 4460W        W 8511   0.823   7.326   2.677
 4461W        W 8512   8.192   3.757   8.635
 4462W        W 8513   3.519   7.592   0.640
 4463W        W 8514   1.627   1.054   9.136
 4464W        W 8515   6.157  10.286   8.697
 4465W        W 8516  11.287   3.793   2.427
 4466W        W 8517  10.416   0.005  10.247
 4467W        W 8518   8.466   8.097   1.167
 4468W        W 8519   0.051   9.495  11.780
 4469W        W 8520   5.263  10.367   1.391
 4470W        W 8521   5.597  10.451  11.730
 4471W        W 8522   2.881   9.579   0.334
 4472W        W 8523   8.150   2.768   0.312
 4473W        W 8524   1.419   4.657   2.885
 4474W        W 8525   2.847   6.407   9.926
 4475W        W 8526  10.821  10.882  11.842
 4476W        W 8527   8.413   9.451   8.506
 4477W        W 8528   9.442   5.341  11.253
 4478W        W 8529   8.972   5.209   3.282
 4479W        W 8530   3.414   2.208   1.715
 4480W        W 8531  10.490  10.880   2.731
 4481W        W 8532  10.405  11.282   9.765
 4482W        W 8533   1.306   4.732  10.332
 4483W        W 8534   2.656   0.046  11.277
 4484W        W 8535   8.145   2.740  11.777
 4485W        W 8536   1.336   7.001  11.047
 4486W        W 8537   1.488   6.292  11.685
 4487W        W 8538   2.172   5.781  11.877
 4488W        W 8539  11.343   9.010  11.798
 4489W        W 8540  10.033   2.956   2.792
 4490W        W 8541   4.498   2.986   3.101
 4491W        W 8542   9.960   3.175   9.233
 4492W        W 8543  10.894   3.138   1.472
 4493W        W 8544   9.209   3.632  11.244
 4494W        W 8545   3.495   2.307  11.070
 4495W        W 8546   7.981   0.303   9.914
 4496W        W 8547   2.107   0.861   9.112
 4497W        W 8548   1.910   3.128   9.621
 4498W        W 8549  10.266  11.276   1.151
 4499W        W 8550   6.668  11.353   1.977
 4500W        W 8551   4.070   2.996   9.123
 4501W        W 8552   3.962   0.984  10.834
 4502W        W 8553   1.689   2.211  11.381
 4503W        W 8554   3.189   0.706  11.841
 4504W        W 8555   3.351   6.549   9.817
 4505W        W 8556   8.733   9.049  10.263
 4506W        W 8557   5.683   4.055   8.166
 4507W        W 8558   5.864  11.001   0.452
 4508W        W 8559   0.138   0.345   2.502
 4509W        W 8560   5.570   9.728   0.720
 4510W        W 8561   1.204   3.737   3.384
 4511W        W 8562   9.019  10.573   0.239
 4512W        W 8563   2.876   1.345   8.982
 4513W        W 8564   9.521   0.981  10.343
 4514W        W 8565   6.988   1.807   1.167
 4515W        W 8566   1.206   0.222   9.112
 4516W        W 8567   8.943   7.184   1.663
 4517W        W 8568  11.223   9.355  10.390
 4518W        W 8569   9.135   9.550   3.242
 4519W        W 8570   3.905   6.937   2.435
 4520W        W 8571   3.756   7.097  10.116
 4521W        W 8572   4.645   6.388   4.006
 4522W        W 8573   4.725   7.504   9.557
 4523W        W 8574   7.034   8.748  11.580
 4524W        W 8575   1.296  10.493  10.866
 4525W        W 8576   5.692   8.461   8.585
 4526W        W 8577   9.389   1.095   0.238
 4527W        W 8578   1.986   6.982   0.835
 4528W        W 8579   1.125   7.118   9.533
 4529W        W 8580   5.823   5.283  10.553
 4530W        W 8581   6.865   8.561   1.053
 4531W        W 8582   4.057   7.550  10.522
 4532W        W 8583   6.038   2.801   1.324
 4533W        W 8584  11.468   5.137  11.593
 4534W        W 8585   6.690   9.542   1.953
 4535W        W 8586   6.862   8.155  11.796
 4536W        W 8587   4.286   6.986   2.107
 4537W        W 8588   6.089   7.391   1.777
 4538W        W 8589   6.203   0.477  10.324
 4539W        W 8590   9.634   7.977   0.780
 4540W        W 8591   9.921   3.824  10.787
 4541W        W 8592  11.213   1.331   0.052
 4542W        W 8593   5.981   2.684   9.083
 4543W        W 8594  11.365   2.491  11.541
 4544W        W 8595   3.113   6.631   2.045
 4545W        W 8596   6.251   9.059   9.093
 4546W        W 8597   6.834   0.258  11.999
 4547W        W 8598   2.297   0.948  10.404
 4548W        W 8599   7.128   0.271  10.479
 4549W        W 8600   8.086   8.426  10.444
 4550W        W 8601   7.952   3.336  10.137
 4551W        W 8602   9.636  10.418   3.318
 4552W        W 8603   2.606   8.078   8.886
 4553W        W 8604   7.905   3.208   9.637
 4554W        W 8605   9.840   6.134   1.138
 4555W        W 8606   2.464   6.544   9.625
 4556W        W 8607   4.600   9.499  11.219
 4557W        W 8608   5.972   4.402   8.452
 4558W        W 8609   7.749   7.939   9.647
 4559W        W 8610   1.213  11.440   0.955
 4560W        W 8611   6.609  10.813   9.794
 4561W        W 8612   4.671   6.301   8.781
 4562W        W 8613   8.553   9.442   2.906
 4563W        W 8614   5.022  11.045  11.554
 4564W        W 8615   4.599  11.232   0.854
 4565W        W 8616   0.032   9.938   3.142
 4566W        W 8617   4.553   3.357   2.745
 4567W        W 8618   3.327   7.146   0.754
 4568W        W 8619   2.999   9.802   2.900
 4569W        W 8620  10.730  10.323   1.852
 4570W        W 8621   7.513   7.195   2.943
 4571W        W 8622  10.459   6.509   9.336
 4572W        W 8623  11.470   6.800  10.976
 4573W        W 8624   1.301   8.784  10.546
 4574W        W 8625   3.415   9.302   8.757
 4575W        W 8626   8.839   3.051  10.027
 4576W        W 8627   9.576   5.761   9.892
 4577W        W 8628   9.456   6.083   3.445
 4578W        W 8629   2.675   2.309  11.355
 4579W        W 8630   1.474   2.652  11.496
 4580W        W 8631   9.885   8.378  10.309
 4581W        W 8632   9.702   4.768   9.717
 4582W        W 8633   8.108   2.263  11.936
 4583W        W 8634   9.835   4.123  10.038
 4584W        W 8635   2.361  10.146  11.904
 4585W        W 8636   1.335   5.548  10.521
 4586W        W 8637   7.462   1.198  10.951
 4587W        W 8638  10.049   2.714   3.292
 4588W        W 8639   2.152   6.777  11.790
 4589W        W 8640   1.709   3.943   3.320
 4590W        W 8641   5.957   9.126   2.105
 4591W        W 8642  10.469   2.723   2.954
 4592W        W 8643  10.873   8.664   0.375
 4593W        W 8644   6.493  10.660   3.276
 4594W        W 8645   9.384   0.825   1.307
 4595W        W 8646   9.287   3.984   3.591
 4596W        W 8647   4.556  10.802  10.182
 4597W        W 8648   6.421  10.750   0.901
 4598W        W 8649   9.540  11.141   8.448
 4599W        W 8650  10.894   4.030   3.300
 4600W        W 8651   0.749   8.609   8.932
 4601W        W 8652   0.395   5.672   2.365
 4602W        W 8653   4.633   3.194  10.861
 4603W        W 8654  10.277  10.112  10.571
 4604W        W 8655  11.380   4.408   1.163
 4605W        W 8656   8.004   9.934   1.869
 4606W        W 8657   9.917   4.378   2.902
 4607W        W 8658   2.219   4.855   1.696
 4608W        W 8659   6.522   0.702   9.981
 4609W        W 8660   8.622   6.654   9.222
 4610W        W 8661   5.916   3.392  10.309
 4611W        W 8662   7.189   6.162   1.214
 4612W        W 8663   4.243   6.672   9.478
 4613W        W 8664   8.622   2.076   3.601
 4614W        W 8665   7.450   4.268  11.495
 4615W        W 8666   4.245   0.571  10.887
 4616W        W 8667   9.284   3.375   0.008
 4617W        W 8668   0.307   2.676  10.086
 4618W        W 8669   3.777   2.206   9.563
 4619W        W 8670   7.428  11.284   9.477
 4620W        W 8671   0.157   2.249  11.928
 4621W        W 8672   8.028  11.291   2.002
 4622W        W 8673   1.446   8.427   9.687
 4623W        W 8674   2.340   7.677   9.748
 4624W        W 8675   4.984   2.809   2.258
 4625W        W 8676   5.580   7.087   1.202
 4626W        W 8677   5.704   4.245   2.717
 4627W        W 8678   8.850   9.476   1.161
 4628W        W 8679   8.321   0.218   2.492
 4629W        W 8680   2.791   4.732  10.909
 4630W        W 8681   5.190   9.275  11.531
 4631W        W 8682   6.039   0.372   2.806
 4632W        W 8683   4.202   7.521   9.531
 4633W        W 8684   2.351   3.455   9.482
 4634W        W 8685  11.283  11.242   1.309
 4635W        W 8686   8.373  10.808   3.266
 4636W        W 8687   1.234   2.642   8.910
 4637W        W 8688   2.681   8.618   2.212
 4638W        W 8689  10.102   9.788   0.455
 4639W        W 8690   1.856   2.019  11.919
 4640W        W 8691   5.772   1.235   8.951
 4641W        W 8692   1.842   3.734  10.502
 4642W        W 8693   4.600   3.190   9.958
 4643W        W 8694   5.667   3.662  11.018
 4644W        W 8695   6.435   8.262  10.852
 4645W        W 8696   9.375  10.803   3.101
 4646W        W 8697   1.190   3.150   8.640
 4647W        W 8698   7.710   8.578   2.298
 4648W        W 8699  10.985   8.623   9.348
 4649W        W 8700   3.123   0.806   0.762
 4650W        W 8701   4.729   9.059  10.964
 4651W        W 8702   3.149   0.863   9.092
 4652W        W 8703   6.317   8.861  11.911
 4653W        W 8704   5.141  10.568   3.321
 4654W        W 8705  11.316   2.605  10.017
 4655W        W 8706   8.069   0.975   9.072
 4656W        W 8707   6.745   7.709  11.573
 4657W        W 8708   2.159   9.814   0.752
 4658W        W 8709   0.371  10.958   2.637
 4659W        W 8710  11.050   2.613  10.471
 4660W        W 8711   7.536   5.971   0.854
 4661W        W 8712   3.178   4.350   1.207
 4662W        W 8713   2.334   4.114  11.611
 4663W        W 8714  10.021  10.236   2.322
 4664W        W 8715   7.184  10.333   2.422
 4665W        W 8716   8.199   8.498   3.393
 4666W        W 8717   1.304   9.289   8.947
 4667W        W 8718  10.931   0.873  11.846
 4668W        W 8719   6.493   0.097   2.863
 4669W        W 8720  10.362   9.005   0.071
 4670W        W 8721   2.686   1.175   0.306
 4671W        W 8722   7.838   7.712   0.864
 4672W        W 8723   7.513   4.630  10.033
 4673W        W 8724   5.671   3.594   0.262
 4674W        W 8725  10.484   3.648   1.311
 4675W        W 8726   8.255   2.445   1.950
 4676W        W 8727  11.486   9.043   9.125
 4677W        W 8728   3.241   3.356   9.437
 4678W        W 8729   1.675  10.688   0.459
 4679W        W 8730   2.284   4.367   1.461
 4680W        W 8731   0.550   7.071   0.228
 4681W        W 8732  11.015   7.192   9.016
 4682W        W 8733  10.115   9.095   0.932
 4683W        W 8734   1.481   3.229   3.591
 4684W        W 8735   4.811   0.467  11.504
 4685W        W 8736   0.838  10.909   0.209
 4686W        W 8737   9.530   2.385   0.976
 4687W        W 8738   2.870  10.938   8.478
 4688W        W 8739   4.992   9.432   3.448
 4689W        W 8740   8.073   8.461   0.395
 4690W        W 8741   0.555   2.309   0.259
 4691W        W 8742   0.829   7.415   3.568
 4692W        W 8743   8.050   2.061   8.537
 4693W        W 8744   8.550   8.480   2.516
 4694W        W 8745   6.141   6.206  10.273
 4695W        W 8746   0.299   5.270  10.260
 4696W        W 8747   9.820   9.445  11.133
 4697W        W 8748  10.312   0.766   2.765
 4698W        W 8749   2.882   5.048   2.178
 4699W        W 8750   4.975  11.066  10.324
 4700W        W 8751   4.058  10.534  10.261
 4701W        W 8752   9.605  10.988  10.340
 4702W        W 8753   2.937   4.976   1.686
 4703W        W 8754  10.122   3.766  11.246
 4704W        W 8755   5.110  10.938   1.511
 4705W        W 8756   7.513   0.581  10.656
 4706W        W 8757   6.736   6.289  10.511
 4707W        W 8758   6.235   7.087   0.877
 4708W        W 8759   0.122   4.139   2.617
 4709W        W 8760   7.032   1.444   2.133
 4710W        W 8761   2.949   6.891   0.986
 4711W        W 8762  10.596   0.785   1.847
 4712W        W 8763   9.611   1.673  11.504
 4713W        W 8764   2.445   7.034   0.564
 4714W        W 8765   3.178   9.605  10.078
 4715W        W 8766  10.469   8.988   9.239
 4716W        W 8767   5.130  10.552  11.571
 4717W        W 8768   4.777   5.237   1.272
 4718W        W 8769   8.097   0.658   2.249
 4719W        W 8770   0.585   8.683   0.916
 4720W        W 8771   3.502   4.621   3.562
 4721W        W 8772   6.108   5.188   1.041
 4722W        W 8773   2.018   9.081   1.336
 4723W        W 8774   4.829   0.987   9.313
 4724W        W 8775   0.897   2.408   0.703
 4725W        W 8776   8.619   4.625   9.516
 4726W        W 8777   7.259   9.972  11.081
 4727W        W 8778   4.270   7.132  10.280
 4728W        W 8779   7.389   0.839  10.223
 4729W        W 8780   2.578   4.251  10.727
 4730W        W 8781   0.440  10.821   1.670
 4731W        W 8782   9.746   6.622  10.855
 4732W        W 8783   5.883   6.886   3.552
 4733W        W 8784   5.619   4.540   3.482
 4734W        W 8785  10.788   9.583  11.309
 4735W        W 8786   1.559   6.916   0.522
 4736W        W 8787  10.324   3.675   2.475
 4737W        W 8788   8.859  10.886   3.072
 4738W        W 8789   6.323   0.710   9.523
 4739W        W 8790   9.871   0.434  11.803
 4740W        W 8791   6.037   2.669   9.948
 4741W        W 8792   3.152   1.024   3.036
 4742W        W 8793   1.612   0.682   9.976
 4743W        W 8794   4.730   5.243   1.786
 4744W        W 8795   1.818   0.466  11.750
 4745W        W 8796   1.692   3.366  11.944
 4746W        W 8797  11.418   6.161  10.936
 4747W        W 8798   0.707   9.598   1.043
 4748W        W 8799   6.111   7.896   1.777
 4749W        W 8800   1.276   8.298  10.690
 4750W        W 8801   2.721   0.367  11.733
 4751W        W 8802   5.558   6.694   0.893
 4752W        W 8803   0.246   6.166   0.991
 4753W        W 8804   1.706   9.561   9.102
 4754W        W 8805   7.758   6.568  11.878
 4755W        W 8806   9.959   8.006   9.159
 4756W        W 8807   1.910   7.175   8.978
 4757W        W 8808   7.361  11.275  10.379
 4758W        W 8809   4.846  10.843  11.996
 4759W        W 8810   1.373  10.673   2.769
 4760W        W 8811   8.485   9.901   3.139
 4761W        W 8812   8.140  11.438   3.466
 4762W        W 8813   8.038   0.221   1.323
 4763W        W 8814   4.700   2.217  10.062
 4764W        W 8815   2.245   5.697   2.227
 4765W        W 8816   4.334   1.894  10.168
 4766W        W 8817   9.474  10.109   9.447
 4767W        W 8818   1.405   1.472   0.430
 4768W        W 8819  10.447   5.564   8.916
 4769W        W 8820   5.716  11.397   2.303
 4770W        W 8821  10.296   5.238   1.306
 4771W        W 8822   3.680   8.246   2.711
 4772W        W 8823   2.647   9.076   2.442
 4773W        W 8824   5.014   6.201   1.408
 4774W        W 8825  11.456   4.742  10.080
 4775W        W 8826   2.507   7.179   3.644
 4776W        W 8827   0.701   7.574  10.198
 4777W        W 8828   8.031   0.472   8.916
 4778W        W 8829   1.910  11.231   3.467
 4779W        W 8830   1.040  10.527   1.019
 4780W        W 8831   0.170   9.350   0.486
 4781W        W 8832   9.041   3.427   1.894
 4782W        W 8833   9.674   3.735   0.104
 4783W        W 8834   5.972   1.673  11.815
 4784W        W 8835   9.974   5.287   1.692
 4785W        W 8836   6.104   6.407   1.758
 4786W        W 8837  10.428   5.807  10.982
 4787W        W 8838   6.584   4.330   1.390
 4788W        W 8839   8.189   3.729   2.822
 4789W        W 8840   0.964  11.194   3.548
 4790W        W 8841   3.884   9.810   3.559
 4791W        W 8842  11.252   1.205  10.248
 4792W        W 8843   5.327  10.715   0.069
 4793W        W 8844   6.256   1.525  11.415
 4794W        W 8845   3.210   7.210  11.864
 4795W        W 8846   5.939  11.080  10.399
 4796W        W 8847  11.088  11.229   2.206
 4797W        W 8848   6.080   7.545   0.759
 4798W        W 8849   6.524   9.848   0.847
 4799W        W 8850   1.918   3.311   2.371
 4800W        W 8851   2.895   2.251   1.709
 4801W        W 8852  10.027   9.932   1.372
 4802W        W 8853   2.024  10.482   0.070
 4803W        W 8854   6.168   8.675   9.449
 4804W        W 8855   0.837   2.802   2.673
 4805W        W 8856  10.825   2.236   9.276
 4806W        W 8857   4.215   1.077   3.699
 4807W        W 8858   2.222   3.134  11.294
 4808W        W 8859  10.702   0.083   2.253
 4809W        W 8860   2.540  11.367  11.780
 4810W        W 8861   0.986   1.375   2.803
 4811W        W 8862   1.291   1.050  10.081
 4812W        W 8863   3.108   1.179   0.006
 4813W        W 8864   8.547   3.581   0.403
 4814W        W 8865  11.485   3.873   0.511
 4815W        W 8866  10.439   5.300   9.914
 4816W        W 8867   2.254   5.230   8.549
 4817W        W 8868   2.666   5.081   3.174
 4818W        W 8869   6.544   3.951  11.803
 4819W        W 8870   8.467   9.352   2.418
 4820W        W 8871   8.177   2.368   1.445
 4821W        W 8872   0.194   9.522   0.967
 4822W        W 8873   3.213   1.605  10.907
 4823W        W 8874   1.980  11.465  10.444
 4824W        W 8875   7.063   9.316   8.464
 4825W        W 8876   7.259   4.282   2.758
 4826W        W 8877   9.964  11.453  11.020
 4827W        W 8878   8.394   0.829  11.685
 4828W        W 8879   4.690   3.742   9.074
 4829W        W 8880   5.995   9.615   3.036
 4830W        W 8881   9.002   1.717   9.782
 4831W        W 8882   5.738   6.410   3.100
 4832W        W 8883   6.922   2.183  10.489
 4833W        W 8884   5.447   4.507   8.294
 4834W        W 8885   2.730   7.068   8.556
 4835W        W 8886   4.667   4.818  10.496
 4836W        W 8887   7.932   6.223   9.748
 4837W        W 8888   3.569  11.271   2.159
 4838W        W 8889  11.270   2.010   9.485
 4839W        W 8890  10.276   0.496  10.237
 4840W        W 8891  10.405   8.341   0.486
 4841W        W 8892   4.526   2.395   0.510
 4842W        W 8893   6.962   8.949   1.781
 4843W        W 8894   5.108   2.597   8.985
 4844W        W 8895   6.975   2.755   2.285
 4845W        W 8896   2.592   0.951   0.765
 4846W        W 8897  10.557   3.517  11.279
 4847W        W 8898   9.644   4.101   0.446
 4848W        W 8899   6.098   8.170   1.339
 4849W        W 8900   3.133  11.306   0.956
 4850W        W 8901   0.253  10.027   0.892
 4851W        W 8902   5.706  10.500   1.628
 4852W        W 8903   6.935   2.945   0.952
 4853W        W 8904  10.439   4.863  10.828
 4854W        W 8905   3.516  10.847   1.300
 4855W        W 8906   8.036   2.317   2.418
 4856W        W 8907   8.345   0.229   1.980
 4857W        W 8908   2.414   5.108  10.801
 4858W        W 8909   1.852   9.624   2.059
 4859W        W 8910   2.263  10.502   9.621
 4860W        W 8911   3.026   9.354   2.668
 4861W        W 8912   6.766   2.597   2.723
 4862W        W 8913  10.691   5.499   3.190
 4863W        W 8914   6.843   8.038   1.089
 4864W        W 8915   3.912   8.772   0.447
 4865W        W 8916   8.561  10.865   9.052
 4866W        W 8917   9.923  10.953  10.879
 4867W        W 8918   0.279  11.390   8.793
 4868W        W 8919   9.403   7.496   2.544
 4869W        W 8920  11.418   6.556   1.345
 4870W        W 8921  10.444   3.202   3.211
 4871W        W 8922   4.884   1.781   2.304
 4872W        W 8923  10.335   4.630  11.908
 4873W        W 8924   7.571   2.039   3.023
 4874W        W 8925   6.112   8.419   1.783
 4875W        W 8926  10.833   0.605   2.307
 4876W        W 8927   3.913   1.384   2.875
 4877W        W 8928   1.444   6.102   0.570
 4878W        W 8929   6.164   5.051   0.023
 4879W        W 8930   7.055   5.165   1.172
 4880W        W 8931   2.323  10.309   1.419
 4881W        W 8932   8.880   1.299   2.229
 4882W        W 8933   8.569  10.375   9.935
 4883W        W 8934   0.718   0.585  11.437
 4884W        W 8935   1.495   4.118   2.332
 4885W        W 8936   4.091   6.332   8.071
 4886W        W 8937   8.844   2.102   3.136
 4887W        W 8938   2.175   2.320   2.295
 4888W        W 8939  10.570   0.294   9.830
 4889W        W 8940   0.775   9.490  10.400
 4890W        W 8941   3.591   7.477  11.258
 4891W        W 8942   7.712   5.079  11.057
 4892W        W 8943   3.143   6.759   8.498
 4893W        W 8944   0.930   7.965   0.562
 4894W        W 8945   5.973   2.582   3.663
 4895W        W 8946   3.189   7.598  10.503
 4896W        W 8947   8.368  10.885  10.018
 4897W        W 8948   9.569  10.888   8.941
 4898W        W 8949   3.509   8.897   9.521
 4899W        W 8950   7.784   3.617   1.895
 4900W        W 8951   2.948   1.160  10.916
 4901W        W 8952   2.310   7.426  11.068
 4902W        W 8953   7.961   5.523  10.318
 4903W        W 8954   5.194   8.618   1.659
 4904W        W 8955  11.459   2.060   9.955
 4905W        W 8956   6.619   1.449   0.373
 4906W        W 8957   2.602   5.756   0.261
 4907W        W 8958   0.860   3.582  11.945
 4908W        W 8959   3.689   6.294   8.998
 4909W        W 8960   0.882   9.546   9.076
 4910W        W 8961  10.141   6.608   3.844
 4911W        W 8962   4.676   7.498  11.062
 4912W        W 8963   7.120   8.057   0.239
 4913W        W 8964  10.002   5.188   9.547
 4914W        W 8965   0.320   1.657   2.320
 4915W        W 8966   2.874   1.416   2.846
 4916W        W 8967   1.505  10.421   2.294
 4917W        W 8968  11.423   6.979  11.448
 4918W        W 8969   9.495   3.443   2.159
 4919W        W 8970   8.961   0.883   9.338
 4920W        W 8971   3.664  10.355   1.177
 4921W        W 8972  10.895   2.215  11.439
 4922W        W 8973  10.447   0.102   9.345
 4923W        W 8974   9.272   6.076   2.438
 4924W        W 8975   6.874   7.482   3.199
 4925W        W 8976   6.257  11.320   1.653
 4926W        W 8977   6.453   5.837   9.627
 4927W        W 8978   7.230   2.733   1.357
 4928W        W 8979  10.232   6.510   1.928
 4929W        W 8980   0.776   5.762  11.039
 4930W        W 8981   5.473   2.841   2.423
 4931W        W 8982   7.531   0.475   0.448
 4932W        W 8983   1.109   6.025   0.948
 4933W        W 8984   3.618   8.531   3.155
 4934W        W 8985  10.226   1.147   0.021
 4935W        W 8986   2.779   1.901   0.662
 4936W        W 8987   3.205  10.476   9.538
 4937W        W 8988   3.917   6.974  11.152
 4938W        W 8989   7.429   1.971  10.518
 4939W        W 8990   4.239   2.389   8.855
 4940W        W 8991   3.389   9.874  11.937
 4941W        W 8992   8.750   3.832   1.711
 4942W        W 8993   8.027   6.465   2.772
 4943W        W 8994   1.159  10.455  11.974
 4944W        W 8995  10.433   7.484   0.152
 4945W        W 8996  10.854   1.561   2.443
 4946W        W 8997   9.937   8.963   0.452
 4947W        W 8998   9.630   4.205   8.981
 4948W        W 8999   2.623   1.355  11.260
 4949W        W 9000   4.199  11.011   1.690
 4950W        W 9001   7.011   0.809   3.130
 4951W        W 9002   8.520   8.826   1.718
 4952W        W 9003   1.687   3.080   2.787
 4953W        W 9004  11.478   2.879  10.442
 4954W        W 9005   8.877   7.822  10.626
 4955W        W 9006   5.932  10.447   1.173
 4956W        W 9007   2.817  11.398   2.703
 4957W        W 9008   2.602   2.439   1.289
 4958W        W 9009  10.330   7.426   2.415
 4959W        W 9010   9.326   4.813   2.287
 4960W        W 9011   2.903   5.088   1.201
 4961W        W 9012  10.368   1.659  10.961
 4962W        W 9013  10.877   6.111   3.238
 4963W        W 9014   1.262   4.303   9.396
 4964W        W 9015   1.369   0.375   1.995
 4965W        W 9016   7.210   7.924  11.505
 4966W        W 9017   3.819   8.162   1.943
 4967W        W 9018   1.696   8.123   2.281
 4968W        W 9019   5.876   7.258  11.778
 4969W        W 9020   0.634   3.271   3.500
 4970W        W 9021   2.187   5.811   3.265
 4971W        W 9022  10.285  11.399   2.503
 4972W        W 9023   6.463   0.947  10.426
 4973W        W 9024   6.510   6.208   2.036
 4974W        W 9025  10.132   5.100  11.913
 4975W        W 9026  10.997   4.974  10.795
 4976W        W 9027   8.835   6.513   8.249
 4977W        W 9028   1.745   4.987   0.784
 4978W        W 9029   6.439   5.714   0.395
 4979W        W 9030   6.653   4.938  11.957
 4980W        W 9031   6.243  10.446   1.638
 4981W        W 9032  11.061   0.504   9.913
 4982W        W 9033  10.156   3.771   0.231
 4983W        W 9034   5.224   6.728   2.266
 4984W        W 9035   9.350   5.959   9.456
 4985W        W 9036   0.403   9.028  11.600
 4986W        W 9037   2.311   3.712   0.338
 4987W        W 9038   4.925   9.964   9.216
 4988W        W 9039   9.087   5.514   9.538
 4989W        W 9040   1.737   6.747   9.899
 4990W        W 9041   4.733  11.469  11.559
 4991W        W 9042   7.052   5.544  11.200
 4992W        W 9043   2.495   4.146   2.269
 4993W        W 9044   6.690  11.053   3.561
 4994W        W 9045   7.909   5.908  11.439
 4995W        W 9046   6.727   7.974   0.592
 4996W        W 9047   3.511   7.939   2.314
 4997W        W 9048   8.384   6.070  11.394
 4998W        W 9049  11.419   6.433   9.827
 4999W        W 9050   1.952   2.688   9.321
 5000W        W 9051   7.326   9.723   8.585
 5001W        W 9052   5.795   6.651   1.399
 5002W        W 9053  11.230   2.089   8.985
 5003W        W 9054   8.271  10.548  11.446
 5004W        W 9055   0.179   8.075  11.280
 5005W        W 9056  10.005   5.097   3.503
 5006W        W 9057   0.914   9.043   3.640
 5007W        W 9058   2.873   6.532  11.935
 5008W        W 9059   7.296  10.453  11.330
 5009W        W 9060   4.021   0.178   3.574
 5010W        W 9061   8.050   6.860   1.239
 5011W        W 9062   8.610   4.046   2.718
 5012W        W 9063   3.631  11.230   0.868
 5013W        W 9064   0.691   7.745   2.414
 5014W        W 9065   5.460   9.428   3.674
 5015W        W 9066   1.001   9.620  10.902
 5016W        W 9067   7.412   2.612   9.931
 5017W        W 9068   4.167   6.070   1.672
 5018W        W 9069   7.580  11.074   2.719
 5019W        W 9070   8.558   7.418  10.707
 5020W        W 9071   6.545   6.115   8.188
 5021W        W 9072   2.679   6.456   0.937
 5022W        W 9073   3.254   2.611   0.008
 5023W        W 9074   6.539   8.456   9.176
 5024W        W 9075   2.618  11.105   1.061
 5025W        W 9076   6.680  10.316   2.461
 5026W        W 9077   3.125   1.197   1.068
 5027W        W 9078   8.712  10.323   9.008
 5028W        W 9079   5.470   3.142   9.295
 5029W        W 9080   5.943   5.786  10.499
 5030W        W 9081  10.048   3.691  11.736
 5031W        W 9082  10.009   5.612   9.176
 5032W        W 9083   8.483   2.585  10.071
 5033W        W 9084   5.286   2.143  11.483
 5034W        W 9085   0.549   2.310  10.377
 5035W        W 9086   1.361   9.502  11.553
 5036W        W 9087   6.676   8.389   2.311
 5037W        W 9088   8.154   9.483   3.247
 5038W        W 9089   9.864   8.652   2.836
 5039W        W 9090   2.536   6.674   3.461
 5040W        W 9091   1.372   1.451   1.812
 5041W        W 9092   9.810   9.335   2.162
 5042W        W 9093   5.323   5.114  11.599
 5043W        W 9094   6.700  11.439   1.441
 5044W        W 9095   8.928   8.259   8.126
 5045W        W 9096   2.757   7.912   9.887
 5046W        W 9097   1.688   1.543   2.582
 5047W        W 9098   5.789   9.130   0.532
 5048W        W 9099  10.932   5.541  11.875
 5049W        W 9100   1.444   4.546   8.992
 5050W        W 9101   5.604   6.151  10.649
 5051W        W 9102  11.221  10.777   9.503
 5052W        W 9103   9.361   1.829   1.046
 5053W        W 9104   5.269   1.377   8.600
 5054W        W 9105   9.635   3.788   9.474
 5055W        W 9106   2.459   2.938  10.520
 5056W        W 9107   3.752   8.467   9.233
 5057W        W 9108  11.150   1.492   0.955
 5058W        W 9109   8.618  10.835  10.468
 5059W        W 9110   5.595   7.641   8.253
 5060W        W 9111   1.374   5.674   2.758
 5061W        W 9112   7.552  10.930   1.332
 5062W        W 9113   0.478   1.466   0.314
 5063W        W 9114   4.515   1.271   0.004
 5064W        W 9115   0.268   7.500   2.535
 5065W        W 9116   2.471   5.300   0.512
 5066W        W 9117   7.820   5.501  11.711
 5067W        W 9118   7.591   8.913  10.180
 5068W        W 9119   3.101   1.834  10.061
 5069W        W 9120   4.008   0.460   1.959
 5070W        W 9121   7.504   0.686  11.606
 5071W        W 9122   4.090   4.817   0.803
 5072W        W 9123   9.583   1.343   2.934
 5073W        W 9124   6.656   7.546   9.150
 5074W        W 9125   3.263   7.799   8.925
 5075W        W 9126  11.472   0.771  10.806
 5076W        W 9127   1.401   5.086   8.980
 5077W        W 9128   7.139  10.458   3.345
 5078W        W 9129   1.331   2.305   2.906
 5079W        W 9130   8.770   3.147  10.925
 5080W        W 9131   1.765   7.645  11.858
 5081W        W 9132   4.067   2.202   2.196
 5082W        W 9133  10.102   1.721  11.400
 5083W        W 9134   3.351   8.626   2.728
 5084W        W 9135   7.844   7.457   3.266
 5085W        W 9136   4.614   4.405  11.348
 5086W        W 9137  11.326   9.259  11.295
 5087W        W 9138   8.562   7.183  10.248
 5088W        W 9139   3.454   7.085  10.961
 5089W        W 9140   1.934   0.260  10.001
 5090W        W 9141   2.926  10.053   0.508
 5091W        W 9142   0.527  10.988   9.055
 5092W        W 9143   1.776   6.446   2.456
 5093W        W 9144   3.596   8.859  10.020
 5094W        W 9145   8.519   2.836   3.166
 5095W        W 9146   7.000   0.709  11.777
 5096W        W 9147   9.340  11.157  11.696
 5097W        W 9148   9.322  11.114   9.350
 5098W        W 9149   2.665   5.570   9.264
 5099W        W 9150   1.372   7.891  10.404
 5100W        W 9151   4.368   9.095   8.555
 5101W        W 9152  11.110   9.598   3.081
 5102W        W 9153   0.775   6.613   0.283
 5103W        W 9154   3.804   7.990   0.509
 5104W        W 9155   2.461   9.597  11.135
 5105W        W 9156   9.024   6.292   1.773
 5106W        W 9157   4.345   7.118   2.628
 5107W        W 9158  10.775   8.235   3.141
 5108W        W 9159   6.615   9.417   0.551
 5109W        W 9160   1.369   0.457   0.948
 5110W        W 9161   4.543   3.025   1.906
 5111W        W 9162   8.604   3.647   8.355
 5112W        W 9163   4.490   5.979  10.658
 5113W        W 9164   4.501   1.467   3.328
 5114W        W 9165   3.464   9.121   2.779
 5115W        W 9166   0.824   5.324   3.183
 5116W        W 9167   0.292  11.047   3.642
 5117W        W 9168   0.241   9.455  10.428
 5118W        W 9169   1.837  10.894   2.608
 5119W        W 9170   1.979   3.181   3.416
 5120W        W 9171  11.446  10.799   2.331
 5121W        W 9172   0.388   5.408  11.660
 5122W        W 9173   1.744  11.358   1.920
 5123W        W 9174   3.749   7.620   1.896
 5124W        W 9175   7.988   6.934  11.514
 5125W        W 9176   4.598   4.374   1.705
 5126W        W 9177  10.839   0.990  10.065
 5127W        W 9178  10.615   2.238  11.870
 5128W        W 9179   5.476   5.218  10.193
 5129W        W 9180   7.444   8.856  10.667
 5130W        W 9181   4.035   3.115  10.509
 5131W        W 9182   0.755   4.332   9.062
 5132W        W 9183   3.255   6.718   9.345
 5133W        W 9184   4.505   3.736   2.327
 5134W        W 9185  10.863   2.139   3.563
 5135W        W 9186   6.543   9.821   2.335
 5136W        W 9187   0.922   1.617   3.284
 5137W        W 9188   0.950   1.886  11.481
 5138W        W 9189   1.383   9.915  11.245
 5139W        W 9190   2.643   3.776   9.936
 5140W        W 9191   3.384   3.197  11.968
 5141W        W 9192   0.981   7.933   2.835
 5142W        W 9193   8.168   4.631   3.138
 5143W        W 9194   6.039   2.850   8.590
 5144W        W 9195  10.387   7.004   3.238
 5145W        W 9196   6.203   1.788   0.266
 5146W        W 9197  11.477   9.208   1.773
 5147W        W 9198   0.411   9.566   2.473
 5148W        W 9199   5.032   4.325   3.614
 5149W        W 9200   1.573   1.896   1.696
 5150W        W 9201   2.233   0.778   1.150
 5151W        W 9202   5.252   1.253   1.613
 5152W        W 9203   3.065   5.361   3.371
 5153W        W 9204   6.051   7.443  10.755
 5154W        W 9205  10.837   2.794  10.036
 5155W        W 9206   6.176   2.137  11.868
 5156W        W 9207   4.595   4.834  11.958
 5157W        W 9208  10.552   1.360   3.215
 5158W        W 9209   0.894   8.426   1.236
 5159W        W 9210   5.707   0.941   9.400
 5160W        W 9211   6.902   4.083   1.842
 5161W        W 9212   3.609   5.209   8.306
 5162W        W 9213   8.842  11.359   1.186
 5163W        W 9214   3.710   7.465  11.741
 5164W        W 9215   9.072   2.268  10.975
 5165W        W 9216   9.970   9.834   9.320
 5166W        W 9217   4.207   5.172   1.577
 5167W        W 9218   2.445  10.413   2.597
 5168W        W 9219   1.299   4.740   0.722
 5169W        W 9220   1.273   8.139   1.052
 5170W        W 9221   1.909   4.100  10.112
 5171W        W 9222   2.708   4.634   2.450
 5172W        W 9223   7.913   8.810  11.574
 5173W        W 9224   8.559   5.743   2.641
 5174W        W 9225  10.272   7.015   0.946
 5175W        W 9226   0.940   4.168   3.551
 5176W        W 9227   0.915   5.534   2.508
 5177W        W 9228   8.778   6.091   1.011
 5178W        W 9229   1.683   4.188   2.835
 5179W        W 9230   2.068   9.551   3.129
 5180W        W 9231   5.111   7.019   0.205
 5181W        W 9232  10.752   2.677   1.663
 5182W        W 9233   9.489   5.738   8.974
 5183W        W 9234  10.852  10.429   8.766
 5184W        W 9235   3.609   4.200   1.451
 5185W        W 9236   0.440   5.487  10.751
 5186W        W 9237   6.097   7.640   1.275
 5187W        W 9238   9.658   1.211   3.426
 5188W        W 9239   3.358   4.294   9.835
 5189W        W 9240  10.922   1.099   3.397
 5190W        W 9241   8.100   1.914   9.064
 5191W        W 9242   6.071   0.948   3.489
 5192W        W 9243   0.716  10.855  10.320
 5193W        W 9244   6.914   9.610   8.860
 5194W        W 9245  11.008   2.467   2.642
 5195W        W 9246   9.228   5.314   9.084
 5196W        W 9247   0.944   4.157  10.757
 5197W        W 9248   9.517  10.386   2.390
 5198W        W 9249   3.840   6.475  11.286
 5199W        W 9250   1.836   7.550  10.941
 5200W        W 9251   3.715   6.116   2.007
 5201W        W 9252   2.686   1.764   9.295
 5202W        W 9253   8.894   4.169  10.195
 5203W        W 9254   4.983   3.068   9.155
 5204W        W 9255   6.384   6.205   0.510
 5205W        W 9256   8.635   1.877   9.025
 5206W        W 9257   9.413  10.864   2.234
 5207W        W 9258   9.102   5.213   0.030
 5208W        W 9259   4.662   9.493   0.263
 5209W        W 9260   3.399   7.030   2.328
 5210W        W 9261   2.002   6.330   9.749
 5211W        W 9262   6.781  11.131   0.893
 5212W        W 9263   4.001   1.005   9.937
 5213W        W 9264   6.128   0.510   8.800
 5214W        W 9265   9.106   6.599  11.661
 5215W        W 9266   9.539   1.461   1.947
 5216W        W 9267   8.971   8.512   8.571
 5217W        W 9268   6.550   6.771   3.449
 5218W        W 9269  10.413   5.227   0.432
 5219W        W 9270   0.789   7.126  10.502
 5220W        W 9271   2.270   5.559  10.580
 5221W        W 9272   1.512   4.997   9.829
 5222W        W 9273   0.237   2.141  11.427
 5223W        W 9274   9.399   0.031   2.952
 5224W        W 9275   7.984   1.198   0.179
 5225W        W 9276   3.342   7.048   1.272
 5226W        W 9277   3.557   8.472   1.121
 5227W        W 9278   8.939   7.320  11.538
 5228W        W 9279   2.461   4.239   0.099
 5229W        W 9280   0.867   0.312   1.349
 5230W        W 9281   5.288   1.096   9.051
 5231W        W 9282   7.953   9.348  10.874
 5232W        W 9283   1.252   8.654  11.082
 5233W        W 9284   2.632   0.100   2.210
 5234W        W 9285   3.167  10.841   0.147
 5235W        W 9286   0.645   5.487   0.426
 5236W        W 9287   1.114   1.848   9.493
 5237W        W 9288   2.048   2.916  10.836
 5238W        W 9289   8.467   4.924   2.324
 5239W        W 9290   6.661   0.429  11.221
 5240W        W 9291   9.380   9.875  11.980
 5241W        W 9292   9.651   8.540   1.145
 5242W        W 9293  11.140   8.170  10.719
 5243W        W 9294  11.020   3.976  10.957
 5244W        W 9295   9.322   2.174  11.503
 5245W        W 9296   3.205   4.780   2.510
 5246W        W 9297  11.230   0.475   0.078
 5247W        W 9298   1.464   2.767   9.453
 5248W        W 9299   9.818   2.146  11.483
 5249W        W 9300   7.592   4.135  10.168
 5250W        W 9301   0.684   7.606   3.079
 5251W        W 9302   0.948   2.777  11.370
 5252W        W 9303   6.078   2.068  10.853
 5253W        W 9304   7.226   1.492  11.347
 5254W        W 9305   1.806   8.197   3.114
 5255W        W 9306   3.919   2.796   1.155
 5256W        W 9307   8.523  10.002  11.818
 5257W        W 9308  10.387   1.258   1.787
 5258W        W 9309   1.721   0.020   0.942
 5259W        W 9310   9.259   7.617   1.541
 5260W        W 9311   9.563   8.955   9.891
 5261W        W 9312   9.125   5.409   1.916
 5262W        W 9313   3.702   3.110   9.577
 5263W        W 9314   1.735   0.744   3.138
 5264W        W 9315   7.079   6.311  10.131
 5265W        W 9316   5.160   0.747  10.749
 5266W        W 9317   2.867   2.809   1.489
 5267W        W 9318   1.350   8.898   9.498
 5268W        W 9319   4.390   9.950  11.665
 5269W        W 9320   9.364   3.862   9.924
 5270W        W 9321   2.802   0.038   1.251
 5271W        W 9322  10.777   5.393  11.004
 5272W        W 9323   1.346   7.584   0.354
 5273W        W 9324   0.033   4.776  11.054
 5274W        W 9325  11.076   3.517  11.796
 5275W        W 9326   1.221   4.656   2.325
 5276W        W 9327   4.960  10.395   9.542
 5277W        W 9328   4.294   7.117   3.157
 5278W        W 9329   3.428   6.663   0.726
 5279W        W 9330   5.708   8.530  11.334
 5280W        W 9331   9.634   5.128  11.939
 5281W        W 9332   3.399   0.243  10.937
 5282W        W 9333   6.446   3.602   2.398
 5283W        W 9334   9.107   2.446  11.881
 5284W        W 9335   2.748  10.307   9.650
 5285W        W 9336   4.850  10.073  11.456
 5286W        W 9337   8.900   2.932   1.775
 5287W        W 9338   2.871   9.439  10.862
 5288W        W 9339  11.414   1.207   3.348
 5289W        W 9340   3.460   8.843  11.072
 5290W        W 9341   0.393   4.491  10.743
 5291W        W 9342   6.213   8.647   1.167
 5292W        W 9343   2.294   5.652  10.096
 5293W        W 9344   0.475   1.778   1.398
 5294W        W 9345   0.798   6.584   9.540
 5295W        W 9346   0.899   1.377   2.308
 5296W        W 9347  10.786   4.142  11.825
 5297W        W 9348   1.218   9.761  10.315
 5298W        W 9349   4.342   6.520  11.311
 5299W        W 9350   9.143   7.108   2.347
 5300W        W 9351   1.228   6.253   9.449
 5301W        W 9352   3.340  11.292  10.142
 5302W        W 9353   5.133   0.299  10.994
 5303W        W 9354  11.415   1.716   3.186
 5304W        W 9355   1.417   3.146   2.360
 5305W        W 9356  10.827   7.412   0.482
 5306W        W 9357  10.750   6.579   0.404
 5307W        W 9358   5.180   9.944   1.692
 5308W        W 9359   9.481   4.875  11.085
 5309W        W 9360   7.028   0.980   0.797
 5310W        W 9361   2.106   1.586  11.048
 5311W        W 9362   6.186   0.873   1.928
 5312W        W 9363   7.953   1.358  10.908
 5313W        W 9364   1.586   4.210  10.545
 5314W        W 9365  10.815   8.613   2.711
 5315W        W 9366   5.268   0.696   0.277
 5316W        W 9367   3.594   9.645   1.597
 5317W        W 9368   3.344   6.687  11.842
 5318W        W 9369   8.379   1.678  10.832
 5319W        W 9370   1.480   4.514  11.305
 5320W        W 9371  10.372   1.592  11.851
 5321W        W 9372   5.223   0.343   9.981
 5322W        W 9373   9.850   2.668   9.855
 5323W        W 9374   6.616   4.060   0.963
 5324W        W 9375   1.322   6.063  10.361
 5325W        W 9376   7.676   2.155  10.087
 5326W        W 9377  10.595  11.073   2.262
 5327W        W 9378   9.745   5.250  10.839
 5328W        W 9379   0.041   5.560   2.774
 5329W        W 9380   5.825   6.065   2.700
 5330W        W 9381   6.860   9.762   3.663
 5331W        W 9382   3.901   4.213   2.299
 5332W        W 9383   9.845   0.011   2.726
 5333W        W 9384   4.672   7.357   1.992
 5334W        W 9385   3.882   0.569   0.451
 5335W        W 9386   8.704   7.376  11.988
 5336W        W 9387   5.147   3.506   0.019
 5337W        W 9388   1.425   7.533   9.501
 5338W        W 9389  11.370   5.587  10.227
 5339W        W 9390   2.370   2.977   9.347
 5340W        W 9391   9.007   1.471   0.237
 5341W        W 9392   8.008   7.436  11.568
 5342W        W 9393   8.060   8.791   2.986
 5343W        W 9394   7.669   1.520  10.522
 5344W        W 9395   5.707   2.353  11.268
 5345W        W 9396   7.970   1.884  11.065
 5346W        W 9397   1.418   0.046   0.495
 5347W        W 9398   6.643   5.000  10.557
 5348W        W 9399   0.989   1.968  10.351
 5349W        W 9400   1.744   3.499   3.082
 5350W        W 9401   0.049   9.000   0.819
 5351W        W 9402  10.127   4.232  11.003
 5352W        W 9403   3.058   7.878   8.040
 5353W        W 9404   2.028   5.109   0.362
 5354W        W 9405  10.366   1.423   2.267
 5355W        W 9406   1.393   0.271   2.495
 5356W        W 9407   0.041   5.223   8.500
 5357W        W 9408   2.696   0.871  11.892
 5358W        W 9409   2.728   0.579   2.398
 5359W        W 9410   4.695   7.950  10.801
 5360W        W 9411   0.455   4.547  11.259
 5361W        W 9412   0.968   5.806   3.040
 5362W        W 9413   9.052  10.885   1.857
 5363W        W 9414   3.746  11.472   2.828
 5364W        W 9415   6.442   1.512  11.894
 5365W        W 9416   6.637  10.436   8.923
 5366W        W 9417   4.325   4.684   9.137
 5367W        W 9418   7.260   3.365  10.544
 5368W        W 9419   9.440  10.244   0.872
 5369W        W 9420   9.069  10.789   9.038
 5370W        W 9421   1.902  11.265   9.378
 5371W        W 9422  10.235   9.610  11.985
 5372W        W 9423   0.402   4.645   0.717
 5373W        W 9424   6.092   4.617   2.703
 5374W        W 9425   8.035  10.048   9.578
 5375W        W 9426  11.429   0.145  10.071
 5376W        W 9427   4.418   2.792  10.586
 5377W        W 9428   2.839  10.805   9.423
 5378W        W 9429   5.520   4.629   9.587
 5379W        W 9430  10.319   2.857   9.970
 5380W        W 9431   5.064   0.348  11.948
 5381W        W 9432   7.520   4.020   1.069
 5382W        W 9433   6.801   7.114  10.391
 5383W        W 9434   4.609   4.631   2.514
 5384W        W 9435   7.130   5.294  10.354
 5385W        W 9436   6.246   3.880  11.405
 5386W        W 9437   2.919   6.619  11.423
 5387W        W 9438   9.910   9.600   1.729
 5388W        W 9439   9.034   8.951   8.875
 5389W        W 9440   8.959  11.482  11.960
 5390W        W 9441   7.537   9.677   0.492
 5391W        W 9442   2.676   1.441   0.850
 5392W        W 9443   1.186   8.377   0.244
 5393W        W 9444   8.107   2.363  10.977
 5394W        W 9445   1.156   9.152  11.033
 5395W        W 9446   5.722   1.447   1.420
 5396W        W 9447   6.188   3.837   3.320
 5397W        W 9448   4.137   8.253  10.743
 5398W        W 9449   8.078   6.788   9.570
 5399W        W 9450   3.862   8.671   1.849
 5400W        W 9451   8.965  11.442   3.204
 5401W        W 9452   4.165   8.875   1.239
 5402W        W 9453   6.101   1.901  10.376
 5403W        W 9454   8.650   9.503   3.390
 5404W        W 9455   3.663   7.527   9.713
 5405W        W 9456   3.555   0.966   2.688
 5406W        W 9457   1.223  10.842  10.310
 5407W        W 9458   8.840  10.414   1.150
 5408W        W 9459  11.314   4.697   2.158
 5409W        W 9460   5.237   2.733   8.492
 5410W        W 9461   4.285   5.197   1.074
 5411W        W 9462   1.732   6.459   3.032
 5412W        W 9463   0.258  11.429   9.293
 5413W        W 9464   3.253   1.276  10.505
 5414W        W 9465   9.994   8.619   0.067
 5415W        W 9466   3.399  10.982   8.397
 5416W        W 9467   5.432   9.511   1.435
 5417W        W 9468   5.505   8.926  10.340
 5418W        W 9469   6.026   4.542   9.682
 5419W        W 9470   2.879   8.123  11.478
 5420W        W 9471   8.474  11.270   8.725
 5421W        W 9472   0.837   2.357  10.806
 5422W        W 9473   9.447   4.549   0.496
 5423W        W 9474   2.429   3.221   2.288
 5424W        W 9475  10.053   2.238   2.298
 5425W        W 9476   7.242   6.133   8.710
 5426W        W 9477  10.696   0.301   2.750
 5427W        W 9478   7.557   0.442   1.444
 5428W        W 9479   7.615   9.929   9.284
 5429W        W 9480   3.661   2.695   2.849
 5430W        W 9481  10.363   6.065   9.017
 5431W        W 9482   0.393   3.709   9.419
 5432W        W 9483   8.743   6.361   9.994
 5433W        W 9484  10.977   4.582   9.950
 5434W        W 9485   5.040   4.747   0.676
 5435W        W 9486   3.814   9.894   3.058
 5436W        W 9487   9.009   3.800   2.906
 5437W        W 9488   2.170   0.857   2.645
 5438W        W 9489   7.040   5.508   1.553
 5439W        W 9490   0.009   6.138   0.525
 5440W        W 9491   4.635   9.868   3.120
 5441W        W 9492  10.670   3.095  11.542
 5442W        W 9493   9.890   2.249   9.559
 5443W        W 9494   3.162   4.241   8.844
 5444W        W 9495  10.038   0.366  11.330
 5445W        W 9496   8.037   2.669   3.349
 5446W        W 9497   3.925   5.254  11.076
 5447W        W 9498   1.150   4.237  10.299
 5448W        W 9499   0.462   1.208   2.096
 5449W        W 9500   4.309   0.261  11.507
 5450W        W 9501   3.351   0.339  10.414
 5451W        W 9502   5.881   0.516   1.754
 5452W        W 9503   5.270   7.899   2.219
 5453W        W 9504   4.657   8.497  11.907
 5454W        W 9505   8.437   7.192   1.147
 5455W        W 9506   9.472   6.547   2.597
 5456W        W 9507   8.307   3.813   9.138
 5457W        W 9508   3.276   8.015  11.205
 5458W        W 9509   8.162   3.200   8.530
 5459W        W 9510   7.413   6.125   2.146
 5460W        W 9511  10.915   5.677   9.061
 5461W        W 9512   5.964   9.164   9.494
 5462W        W 9513   5.726  11.013  11.954
 5463W        W 9514   8.943   9.989   9.585
 5464W        W 9515   5.239   1.631   9.750
 5465W        W 9516   8.995   6.437   1.298
 5466W        W 9517   4.768   9.931   0.019
 5467W        W 9518   7.710   7.580  11.956
 5468W        W 9519   0.679   2.215   1.203
 5469W        W 9520  10.944   4.296   9.317
 5470W        W 9521  10.832  11.063   8.556
 5471W        W 9522   1.293   5.258   0.762
 5472W        W 9523   7.020   9.847   1.724
 5473W        W 9524   8.081   5.406  11.276
 5474W        W 9525   1.177   5.201  10.168
 5475W        W 9526   2.694   3.287   0.748
 5476W        W 9527   7.486  10.552   1.699
 5477W        W 9528  10.001  10.449  10.819
 5478W        W 9529   6.286   6.649   2.205
 5479W        W 9530  10.276   9.181   2.267
 5480W        W 9531   2.404   2.299   1.806
 5481W        W 9532   8.854   7.636   0.783
 5482W        W 9533  10.956   4.705   1.195
 5483W        W 9534   9.811  10.985  11.794
 5484W        W 9535  11.130   2.234  11.926
 5485W        W 9536   3.904   1.600  11.487
 5486W        W 9537  11.440   4.234   8.556
 5487W        W 9538   7.574   7.083  11.791
 5488W        W 9539   5.948   2.757   1.878
 5489W        W 9540   1.818  10.884   2.104
 5490W        W 9541   6.118  10.545   3.674
 5491W        W 9542   8.761   8.927  11.591
 5492W        W 9543  10.506   4.076   3.640
 5493W        W 9544   4.597   0.458  10.429
 5494W        W 9545   5.238   0.853   2.444
 5495W        W 9546   7.361   7.621   3.228
 5496W        W 9547   9.643   2.639   2.833
 5497W        W 9548   1.815   0.422   8.485
 5498W        W 9549   8.061   6.834  10.378
 5499W        W 9550   9.309   1.099   8.539
 5500W        W 9551   6.911   2.471  11.523
 5501W        W 9552   8.628   0.746  10.677
 5502W        W 9553   0.811   7.737   8.870
 5503W        W 9554   2.176   3.630  11.818
 5504W        W 9555   9.424  10.823  10.815
 5505W        W 9556   8.877   4.339   1.746
 5506W        W 9557   4.848   7.116   8.940
 5507W        W 9558   5.308   8.302   2.618
 5508W        W 9559   0.502   3.193   9.282
 5509W        W 9560  10.524   6.138   0.341
 5510W        W 9561  10.915   6.651   9.101
 5511W        W 9562   0.958   6.167   0.433
 5512W        W 9563   5.854   1.382   0.242
 5513W        W 9564   1.339   8.951   1.517
 5514W        W 9565   7.702   2.468   1.270
 5515W        W 9566   2.720   3.014   8.777
 5516W        W 9567   9.465   9.164   0.344
 5517W        W 9568   3.676   0.867  11.835
 5518W        W 9569  10.097   5.179   0.846
 5519W        W 9570  11.084   7.401   2.012
 5520W        W 9571   1.601   8.065   8.886
 5521W        W 9572   1.567   2.886  11.948
 5522W        W 9573   4.154   1.267   9.497
 5523W        W 9574   6.084   3.248  11.625
 5524W        W 9575   6.147   6.696   9.359
 5525W        W 9576  11.356   8.899   0.319
 5526W        W 9577   4.091   9.300   0.880
 5527W        W 9578   8.031   5.216   2.357
 5528W        W 9579   6.886   1.672  11.704
 5529W        W 9580   5.295   7.146  10.415
 5530W        W 9581   9.143   8.056   3.242
 5531W        W 9582   7.224   3.780  11.323
 5532W        W 9583   7.116   8.954   1.283
 5533W        W 9584   0.360   5.039   9.793
 5534W        W 9585   9.598   8.890   1.969
 5535W        W 9586   8.440   0.291  10.881
 5536W        W 9587   3.680   4.577   1.070
 5537W        W 9588   6.130   0.320   9.817
 5538W        W 9589   1.512   5.686   0.938
 5539W        W 9590   4.405   0.822   9.597
 5540W        W 9591   3.713   3.634   0.257
 5541W        W 9592   8.790  10.333   0.644
 5542W        W 9593   0.735   4.631   8.627
 5543W        W 9594   2.659   6.448   1.859
 5544W        W 9595   0.700   6.530   8.446
 5545W        W 9596   3.178  11.497   1.907
 5546W        W 9597   9.451   9.762   0.723
 5547W        W 9598   4.487   4.326   1.224
 5548W        W 9599   8.205   3.231   2.634
 5549W        W 9600   7.806   9.075   2.089
 5550W        W 9601   8.567   8.657   0.443
 5551W        W 9602   0.799   8.349  11.825
 5552W        W 9603   9.582   5.556  10.367
 5553W        W 9604   1.287   8.314   3.179
 5554W        W 9605   5.586  10.830  10.100
 5555W        W 9606   5.065   7.613  10.518
 5556W        W 9607   2.063   2.444   8.517
 5557W        W 9608   7.680   8.582   1.362
 5558W        W 9609   5.077  10.467   2.820
 5559W        W 9610  10.979   6.646   0.842
 5560W        W 9611   2.315   2.268  11.981
 5561W        W 9612   9.985   7.651   2.797
 5562W        W 9613   3.667   1.708   8.852
 5563W        W 9614  10.341   7.117  11.073
 5564W        W 9615   2.327   0.957   1.674
 5565W        W 9616   2.589  11.068  11.351
 5566W        W 9617   5.598   0.887  11.008
 5567W        W 9618   4.417   9.845   9.318
 5568W        W 9619   6.451   6.560   0.154
 5569W        W 9620  10.835   3.059   2.014
 5570W        W 9621  10.439   1.117   9.321
 5571W        W 9622   5.945   5.720   9.170
 5572W        W 9623   2.243   2.321   2.815
 5573W        W 9624   8.097   7.836   2.565
 5574W        W 9625   7.519  10.993  11.980
 5575W        W 9626  11.379   8.552   2.786
 5576W        W 9627   4.858   3.974  11.224
 5577W        W 9628   5.613   1.933   1.489
 5578W        W 9629   0.354   2.694   2.833
 5579W        W 9630   7.650  11.374   9.937
 5580W        W 9631   7.746   8.931  11.093
 5581W        W 9632   5.983   3.969   2.377
 5582W        W 9633   5.226   7.444   0.476
 5583W        W 9634   8.177   1.934   1.727
 5584W        W 9635   8.653   8.080   8.590
 5585W        W 9636   5.058   9.335   0.011
 5586W        W 9637   6.984   4.133   3.486
 5587W        W 9638   6.522   7.342   1.495
 5588W        W 9639   6.203   0.449   3.322
 5589W        W 9640   0.397   3.578   0.173
 5590W        W 9641   7.775   7.123  10.710
 5591W        W 9642   0.076   9.788   0.267
 5592W        W 9643   9.055   2.798   0.298
 5593W        W 9644   8.158   1.654   0.382
 5594W        W 9645   2.175   3.864   9.726
 5595W        W 9646   9.567   9.566   8.581
 5596W        W 9647   3.357   8.291   8.420
 5597W        W 9648   5.481   4.388   9.120
 5598W        W 9649   0.787  10.583  11.145
 5599W        W 9650   8.946   8.589  10.232
 5600W        W 9651   5.633   7.545   1.426
 5601W        W 9652   4.261   4.060  10.729
 5602W        W 9653   4.807   1.732  10.012
 5603W        W 9654   8.565   6.699  10.357
 5604W        W 9655   4.046   9.098  10.177
 5605W        W 9656   3.833   5.288   0.787
 5606W        W 9657   8.848   9.996   3.498
 5607W        W 9658   3.673   5.889  11.646
 5608W        W 9659  10.946   3.132   3.471
 5609W        W 9660   4.758   2.623   2.750
 5610W        W 9661   4.058   0.906   2.685
 5611W        W 9662  10.315  10.503   1.054
 5612W        W 9663   3.855   4.892  11.820
 5613W        W 9664   8.619   4.465  10.829
 5614W        W 9665  10.860   0.351   1.857
 5615W        W 9666   3.704   9.455  11.755
 5616W        W 9667  10.249  10.744   9.577
 5617W        W 9668   7.874   5.117   8.650
 5618W        W 9669   9.547   1.181  10.808
 5619W        W 9670   0.362  11.359  11.121
 5620W        W 9671   9.548   0.278   1.414
 5621W        W 9672  11.367   8.157   9.322
 5622W        W 9673   6.017   8.979  10.427
 5623W        W 9674   0.385   0.848   1.137
 5624W        W 9675   6.907   1.654   9.810
 5625W        W 9676   1.321   4.082  11.527
 5626W        W 9677   9.817   7.488   0.802
 5627W        W 9678   7.891   2.784   9.976
 5628W        W 9679   2.670   8.309  10.628
 5629W        W 9680   9.371   6.539   8.245
 5630W        W 9681  11.307   0.016   2.759
 5631W        W 9682   3.750  11.296   3.335
 5632W        W 9683   3.017   7.832   2.236
 5633W        W 9684   3.714   2.942   2.396
 5634W        W 9685   3.667   6.211   3.560
 5635W        W 9686  11.451   9.862   1.279
 5636W        W 9687   7.728   5.177   0.487
 5637W        W 9688   3.150   2.417   1.307
 5638W        W 9689   0.762   7.958   9.768
 5639W        W 9690   0.511   5.803   1.888
 5640W        W 9691   9.549   3.176   1.339
 5641W        W 9692   5.981   8.287   0.220
 5642W        W 9693   2.308   8.956   2.020
 5643W        W 9694   4.585  10.316   9.039
 5644W        W 9695   7.884  11.426   3.011
 5645W        W 9696   9.435   8.166   0.361
 5646W        W 9697   4.196   6.094  11.073
 5647W        W 9698   1.398   6.984  10.532
 5648W        W 9699   8.454   6.233  10.524
 5649W        W 9700   9.307   4.984  11.590
 5650W        W 9701   0.945   3.721   0.940
 5651W        W 9702   8.002   9.035   3.435
 5652W        W 9703   0.427   9.303   9.014
 5653W        W 9704   8.630   1.274   3.101
 5654W        W 9705   8.542   4.710   9.013
 5655W        W 9706   6.465   6.232  10.944
 5656W        W 9707   2.938   4.703  11.435
 5657W        W 9708   2.273   0.545   9.520
 5658W        W 9709   6.574  11.223   2.494
 5659W        W 9710   5.646   5.144   1.769
 5660W        W 9711   6.044   6.231   8.100
 5661W        W 9712   9.808  10.609   2.013
 5662W        W 9713   3.246   3.777   9.116
 5663W        W 9714   1.170   3.261   1.075
 5664W        W 9715   9.092  11.250   9.977
 5665W        W 9716   9.609   2.895  10.480
 5666W        W 9717   5.074   3.255   0.485
 5667W        W 9718   3.364   9.297   2.286
 5668W        W 9719   5.083   7.799   0.123
 5669W        W 9720   3.074   4.123  10.800
 5670W        W 9721   3.621   1.261   0.710
 5671W        W 9722   6.571   4.168   3.166
 5672W        W 9723   7.547   0.347  10.177
 5673W        W 9724   3.610  10.516  11.821
 5674W        W 9725   9.063   2.753   1.268
 5675W        W 9726   3.836  10.838   2.081
 5676W        W 9727   6.157   9.990   1.400
 5677W        W 9728   5.253   7.929   0.896
 5678W        W 9729   7.848   1.460   9.192
 5679W        W 9730   3.370   7.685   0.037
 5680W        W 9731   7.702   1.163  11.738
 5681W        W 9732   9.926  10.732   0.279
 5682W        W 9733   7.274   8.026   9.443
 5683W        W 9734   7.600   9.747  10.776
 5684W        W 9735   3.324   5.227   1.969
 5685W        W 9736   8.445   4.713  10.411
 5686W        W 9737   3.090   0.606   2.757
 5687W        W 9738  10.504   2.332   2.593
 5688W        W 9739  10.038   0.877   9.599
 5689W        W 9740  10.231   9.359   9.507
 5690W        W 9741   9.465   2.712   3.331
 5691W        W 9742   7.389   9.086  11.444
 5692W        W 9743   8.055   3.349   9.149
 5693W        W 9744   5.825   5.540   1.441
 5694W        W 9745   2.198   5.324   3.478
 5695W        W 9746   0.698   5.733   3.468
 5696W        W 9747   4.085   1.446  11.024
 5697W        W 9748   2.666   4.139   1.766
 5698W        W 9749   5.564   8.249   3.237
 5699W        W 9750   6.628   9.987   8.126
 5700W        W 9751   3.348   1.901   1.307
 5701W        W 9752   1.001  10.976   0.794
 5702W        W 9753   6.668   6.695   2.939
 5703W        W 9754   3.880   4.383   0.616
 5704W        W 9755   2.308   0.038   9.533
 5705W        W 9756   0.028  11.415   3.263
 5706W        W 9757   9.165   6.641   9.997
 5707W        W 9758   7.915   4.159   2.186
 5708W        W 9759   9.091   4.252   3.154
 5709W        W 9760   3.232   9.914   1.832
 5710W        W 9761   2.690   6.624   2.370
 5711W        W 9762  10.399   7.057  10.524
 5712W        W 9763   6.750   2.072   2.830
 5713W        W 9764   2.720   9.069  11.485
 5714W        W 9765   4.474   6.761   8.634
 5715W        W 9766   2.116   8.635  11.747
 5716W        W 9767   7.701   3.772  11.527
 5717W        W 9768  10.417   7.627  11.237
 5718W        W 9769   4.417   0.725   1.746
 5719W        W 9770   3.895   4.385  10.506
 5720W        W 9771  10.228  10.431   1.569
 5721W        W 9772   0.086   0.961   1.852
 5722W        W 9773   2.138   7.466   1.007
 5723W        W 9774   1.150   0.246  10.686
 5724W        W 9775  11.304   1.231   1.396
 5725W        W 9776   3.466   9.630   2.800
 5726W        W 9777   3.579   2.314   2.514
 5727W        W 9778   7.646   0.187   9.154
 5728W        W 9779   1.792   1.284   3.401
 5729W        W 9780   3.186   5.712  10.994
 5730W        W 9781   6.974   4.665   0.260
 5731W        W 9782  11.060   0.246   3.135
 5732W        W 9783   4.331   8.713  11.570
 5733W        W 9784   1.209   0.627  10.348
 5734W        W 9785   9.963   1.898  11.894
 5735W        W 9786   5.636   3.251   9.821
 5736W        W 9787   2.503   8.538   8.313
 5737W        W 9788   1.309   1.062  10.598
 5738W        W 9789  10.907   3.297   2.948
 5739W        W 9790   3.966   8.394   1.375
 5740W        W 9791   8.683   7.874  11.909
 5741W        W 9792   9.369   1.803   2.865
 5742W        W 9793   9.424   4.914   0.986
 5743W        W 9794   1.913   3.642   8.867
 5744W        W 9795  11.375   8.855   1.414
 5745W        W 9796   4.222   9.972   0.870
 5746W        W 9797   2.778   1.668   0.193
 5747W        W 9798   7.216   3.837  10.290
 5748W        W 9799   7.711   8.039  11.619
 5749W        W 9800   3.145   3.672   1.843
 5750W        W 9801   5.206   9.032   9.014
 5751W        W 9802  10.627   7.691  11.695
 5752W        W 9803   2.716  10.249   8.735
 5753W        W 9804   0.048   7.478  11.358
 5754W        W 9805   0.304   1.204  11.215
 5755W        W 9806  10.833  11.318   3.353
 5756W        W 9807   5.766   1.481   8.507
 5757W        W 9808   3.283   1.354   9.295
 5758W        W 9809   6.032   6.531   2.662
 5759W        W 9810  10.947   6.250   0.052
 5760W        W 9811   3.861   3.872  10.964
 5761W        W 9812  11.357   7.178   9.396
 5762W        W 9813   0.206   1.398  10.276
 5763W        W 9814   0.790   0.820   2.186
 5764W        W 9815   1.060   6.082  11.343
 5765W        W 9816   3.172   4.945   0.397
 5766W        W 9817   0.682   8.407   0.341
 5767W        W 9818   6.706  11.384   0.366
 5768W        W 9819   8.998   0.948   0.954
 5769W        W 9820  11.282   1.129   9.484
 5770W        W 9821   0.902   4.210   2.248
 5771W        W 9822   8.092   9.245   2.780
 5772W        W 9823   9.473   2.158   1.439
 5773W        W 9824   1.255   7.559  11.849
 5774W        W 9825   2.241   6.130   1.964
 5775W        W 9826   9.462   9.338   1.791
 5776W        W 9827  10.581   6.243  10.758
 5777W        W 9828   9.410   7.025   3.334
 5778W        W 9829   8.600   6.144   1.472
 5779W        W 9830   7.074   6.056   8.222
 5780W        W 9831   0.953   5.330  10.850
 5781W        W 9832   8.891   9.589   2.221
 5782W        W 9833  11.319   7.434   0.301
 5783W        W 9834   8.752   0.381   2.757
 5784W        W 9835   6.679   3.181  10.272
 5785W        W 9836   5.974   9.975   3.416
 5786W        W 9837   5.961   4.579   0.213
 5787W        W 9838   5.725   7.378   3.613
 5788W        W 9839   6.344   8.094  11.840
 5789W        W 9840  11.372   5.756   2.338
 5790W        W 9841  10.816  10.869   0.353
 5791W        W 9842   7.010   3.714  11.807
 5792W        W 9843   6.862   2.296   2.036
 5793W        W 9844   8.155  10.448   0.490
 5794W        W 9845   2.795   1.277   1.738
 5795W        W 9846   8.536   6.669   1.188
 5796W        W 9847   8.037  10.540   2.544
 5797W        W 9848   5.622  10.994   1.633
 5798W        W 9849  11.414   4.706   9.587
 5799W        W 9850   2.882   0.387   9.087
 5800W        W 9851  10.736   4.104  10.530
 5801W        W 9852   3.119   7.153  11.354
 5802W        W 9853   4.626  10.266   2.681
 5803W        W 9854   1.250  10.075   0.919
 5804W        W 9855   5.490   3.662   8.568
 5805W        W 9856   2.305   7.216   0.064
 5806W        W 9857   6.136   9.817  11.833
 5807W        W 9858   4.071   7.530  10.020
 5808W        W 9859   5.296   8.614   4.149
 5809W        W 9860   7.421   0.991   2.894
 5810W        W 9861   0.252   1.353   1.179
 5811W        W 9862   7.143   9.612   9.818
 5812W        W 9863  10.527   2.765  10.446
 5813W        W 9864  11.349   0.726   2.243
 5814W        W 9865   1.315  10.960   3.197
 5815W        W 9866   2.486  10.795   0.695
 5816W        W 9867   0.947   9.573   8.574
 5817W        W 9868   6.735   2.304   8.958
 5818W        W 9869   2.638   0.768  10.797
 5819W        W 9870   4.586   6.192   0.287
 5820W        W 9871   3.428   0.902   0.326
 5821W        W 9872   0.562   9.484  11.801
 5822W        W 9873   5.905   2.284   1.706
 5823W        W 9874   2.793   3.335   9.745
 5824W        W 9875   2.843  10.094  11.448
 5825W        W 9876   5.132   3.302   9.616
 5826W        W 9877   0.348   3.995   8.966
 5827W        W 9878   8.204   3.661  11.494
 5828W        W 9879   6.617   0.142   0.934
 5829W        W 9880   1.787   1.367   0.759
 5830W        W 9881  11.409  10.710   3.751
 5831W        W 9882   0.059   3.866  10.298
 5832W        W 9883  10.243   4.626   3.238
 5833W        W 9884  10.420   8.000   8.935
 5834W        W 9885   5.307   8.035  10.199
 5835W        W 9886   6.976   6.614   0.327
 5836W        W 9887  10.405   6.737  11.527
 5837W        W 9888   6.150   4.561   1.700
 5838W        W 9889  10.523   7.866   1.432
 5839W        W 9890   6.284   7.956  10.039
 5840W        W 9891   4.054   6.440   1.322
 5841W        W 9892   6.710   5.602   0.822
 5842W        W 9893   0.380   0.885   2.978
 5843W        W 9894   3.093   6.225  11.080
 5844W        W 9895   7.270   4.169   0.431
 5845W        W 9896  10.136  10.266   0.283
 5846W        W 9897   6.896   2.180   9.594
 5847W        W 9898  11.022   3.793   2.848
 5848W        W 9899   6.674   0.276  10.247
 5849W        W 9900   1.812   4.382  10.966
 5850W        W 9901  10.840   1.878   9.744
 5851W        W 9902   9.114   7.701   9.273
 5852W        W 9903   0.070   0.063   0.045
 5853W        W 9904   8.281   5.693  11.823
 5854W        W 9905   0.328   9.038   1.239
 5855W        W 9906   4.367   1.750  11.691
 5856W        W 9907   4.200   8.648  10.406
 5857W        W 9908   0.821   4.847  11.471
 5858W        W 9909   6.471   7.191  10.961
 5859W        W 9910   1.755   5.313   8.427
 5860W        W 9911   7.595   0.937   1.567
 5861W        W 9912   7.148   0.149   0.391
 5862W        W 9913   3.515  10.470   9.954
 5863W        W 9914   2.366   0.340   9.070
 5864W        W 9915   9.859  10.103   2.880
 5865W        W 9916   8.242   7.627  11.962
 5866W        W 9917   4.762   6.743   0.684
 5867W        W 9918   9.405   9.282   2.800
 5868W        W 9919  11.076   4.988  10.284
 5869W        W 9920   2.859   4.221   9.817
 5870W        W 9921   3.525   3.065  10.567
 5871W        W 9922  10.917   2.658  11.727
 5872W        W 9923   7.552   1.864   0.339
 5873W        W 9924   7.561   6.677  10.463
 5874W        W 9925   1.904   5.233  10.762
 5875W        W 9926   4.679   9.514  11.721
 5876W        W 9927   7.025   4.323   2.277
 5877W        W 9928   7.094   3.403  10.071
 5878W        W 9929   5.640   5.786   1.002
 5879W        W 9930   2.808   2.843   9.586
 5880W        W 9931  10.599   7.448   1.871
 5881W        W 9932  10.498   4.995   9.496
 5882W        W 9933   7.612  10.422  10.063
 5883W        W 9934   6.295   7.558  11.765
 5884W        W 9935   5.580   8.108  11.745
 5885W        W 9936   9.140   4.157   0.511
 5886W        W 9937  11.369   3.195   9.085
 5887W        W 9938   2.816   8.365  10.144
 5888W        W 9939   7.169   9.234   0.853
 5889W        W 9940   4.207   2.315   9.889
 5890W        W 9941   3.854   6.637   9.886
 5891W        W 9942  11.058   2.718   1.223
 5892W        W 9943   0.224   7.787   2.959
 5893W        W 9944   4.014   1.464  11.965
 5894W        W 9945   5.136   4.651  10.711
 5895W        W 9946   0.292  10.718   0.314
 5896W        W 9947   7.026   7.926  10.912
 5897W        W 9948   1.729   1.789   9.589
 5898W        W 9949  10.165   1.260   3.558
 5899W        W 9950  10.864   9.143   0.529
 5900W        W 9951   8.098   1.575   3.482
 5901W        W 9952   3.627   4.697   8.469
 5902W        W 9953   7.939  10.103  10.585
 5903W        W 9954   5.192   8.074   1.740
 5904W        W 9955   1.799  10.009   2.423
 5905W        W 9956   2.343   1.916   0.393
 5906W        W 9957   6.597   8.177   2.812
 5907W        W 9958   9.812   1.205   1.236
 5908W        W 9959   2.670   3.236   2.735
 5909W        W 9960   8.950   6.860  11.264
 5910W        W 9961   6.147   0.552  11.265
 5911W        W 9962   2.867  10.489   2.908
 5912W        W 9963   9.935  10.790   8.561
 5913W        W 9964   4.638   3.892   0.995
 5914W        W 9965   9.389   9.893   9.890
 5915W        W 9966   5.213   3.738   0.480
 5916W        W 9967   3.280   2.898   0.411
 5917W        W 9968   3.242   1.314   3.841
 5918W        W 9969   0.769  11.214   1.860
 5919W        W 9970   3.723   8.396   0.161
 5920W        W 9971   4.763   8.553  11.374
 5921W        W 9972   9.961  11.435  10.031
 5922W        W 9973   3.773   0.157   8.660
 5923W        W 9974   2.174   9.397   1.696
 5924W        W 9975   9.913   3.783   2.128
 5925W        W 9976  10.909   4.064   9.781
 5926W        W 9977   5.204   7.248   3.182
 5927W        W 9978   5.100   9.476   1.889
 5928W        W 9979   9.054   3.640   2.379
 5929W        W 9980   1.099  10.405   1.688
 5930W        W 9981   1.379   1.440   9.356
 5931W        W 9982   3.337   6.620   3.672
 5932W        W 9983  10.528   7.372   9.439
 5933W        W 9984   6.241   5.596  10.892
 5934W        W 9985  11.327   6.989  11.968
 5935W        W 9986   6.098   5.633   0.774
 5936W        W 9987   4.136   7.911  11.478
 5937W        W 9988   1.267  10.894  11.225
 5938W        W 9989   0.793   3.285  10.540
 5939W        W 9990   4.199   7.827   1.817
 5940W        W 9991   2.960   8.956  11.048
 5941W        W 9992  10.927   1.637   0.439
 5942W        W 9993   4.177   0.190  10.527
 5943W        W 9994   6.393   3.656   2.892
 5944W        W 9995   0.822   7.870   1.040
 5945W        W 9996   1.725   8.945  10.309
 5946W        W 9997   7.319   6.049  11.084
 5947W        W 9998   6.829   7.184   2.748
 5948W        W 9999   8.877   2.234   0.294
 5949W        W10000   2.535   7.810   0.748
 5950W        W10001   6.763   5.484  10.677
 5951W        W10002   9.004   8.080  11.056
 5952W        W10003   3.399   1.813  11.383
 5953W        W10004   8.162   5.384   9.865
 5954W        W10005   0.854  10.701  11.634
 5955W        W10006   2.578   7.563   2.283
 5956W        W10007   2.429   2.892   3.573
 5957W        W10008   1.427   1.208   2.289
 5958W        W10009   4.694   1.969   3.303
 5959W        W10010   5.958   4.696   1.226
 5960W        W10011   8.546  10.400  10.736
 5961W        W10012   2.741   7.411  11.782
 5962W        W10013   8.658   2.815   9.618
 5963W        W10014   7.586   9.886   9.782
 5964W        W10015   4.613   4.288   3.932
 5965W        W10016   4.754   8.831   9.969
 5966W        W10017  11.159   4.315   2.474
 5967W        W10018   8.067  10.521   9.837
 5968W        W10019   1.579   9.971   2.878
 5969W        W10020   1.374  11.443   9.512
 5970W        W10021   2.579   4.112   0.574
 5971W        W10022   9.995   2.081  11.005
 5972W        W10023   4.114  11.206   0.301
 5973W        W10024   8.511   7.618  11.486
 5974W        W10025   7.683   9.586   2.789
 5975W        W10026   3.766   2.463   3.327
 5976W        W10027   7.745   1.498  11.371
 5977W        W10028   7.674   3.116   1.977
 5978W        W10029   9.870   5.403  11.558
 5979W        W10030   2.793   5.256   4.156
 5980W        W10031   8.898   0.506  11.033
 5981W        W10032   4.785   9.944   8.711
 5982W        W10033   6.305   7.039  11.923
 5983W        W10034   9.640   3.347   0.875
 5984W        W10035   0.266   6.918   9.166
 5985W        W10036   9.344   0.164   1.900
 5986W        W10037   8.524   4.658   8.283
 5987W        W10038   9.545   8.637   9.408
 5988W        W10039   2.405   0.517   3.443
 5989W        W10040   2.345   1.394   1.958
 5990W        W10041   6.986   5.651   0.327
 5991W        W10042  10.859   1.687   1.930
 5992W        W10043   0.374   4.251   9.415
 5993W        W10044   5.020  11.343  11.969
 5994W        W10045   6.225   5.281  11.304
 5995W        W10046   5.115  10.452   0.892
 5996W        W10047   9.357   8.012  10.564
 5997W        W10048   0.818  11.083  11.293
 5998W        W10049   6.023   6.948  10.908
 5999W        W10050   8.908   1.806  10.780
 6000W        W10051   8.134   9.102   9.192
 6001W        W10052   7.244   2.224   1.712
 6002W        W10053   0.005   3.829   3.037
 6003W        W10054   8.949   2.113   2.643
 6004W        W10055   3.246   6.206   2.326
 6005W        W10056   7.993   1.923  10.550
 6006W        W10057   8.427   0.831   3.258
 6007W        W10058   5.539   8.052  11.222
 6008W        W10059   3.363   4.496  10.586
 6009W        W10060   4.913   0.152   1.771
 6010W        W10061   8.085   4.933   9.066
 6011W        W10062   6.714   1.361  10.557
 6012W        W10063   6.590   8.951   1.368
 6013W        W10064   0.300   6.548   8.789
 6014W        W10065   7.744   7.085   9.202
 6015W        W10066   8.837   8.488   9.733
 6016W        W10067  10.038  10.712   9.067
 6017W        W10068   6.073   4.163  11.875
 6018W        W10069   7.979   6.825   3.614
 6019W        W10070   9.195   4.767   3.148
 6020W        W10071   9.084   2.844   3.698
 6021W        W10072   5.090   9.966   0.679
 6022W        W10073   3.605   6.575   2.241
 6023W        W10074   3.267   7.075   3.389
 6024W        W10075  10.932  10.982  11.014
 6025W        W10076   1.673  10.406   9.552
 6026W        W10077  10.829   0.610   3.469
 6027W        W10078   6.551   7.489   0.489
 6028W        W10079   5.093  10.973   2.982
 6029W        W10080   5.130   2.312   2.310
 6030W        W10081  10.627   4.132   8.933
 6031W        W10082   2.275   2.782   2.030
 6032W        W10083   9.588   6.943  11.706
 6033W        W10084   3.576   6.867   8.975
 6034W        W10085  11.292  11.204   9.790
 6035W        W10086   3.779   8.884   0.916
 6036W        W10087   6.269   6.815   3.889
 6037W        W10088   5.989   3.399   0.644
 6038W        W10089   7.841   0.780   8.549
 6039W        W10090   3.510   6.555   3.186
 6040W        W10091   2.172   9.139  10.475
 6041W        W10092   5.006   2.426   0.781
 6042W        W10093   8.915   6.205   3.698
 6043W        W10094   2.280   9.358   3.653
 6044W        W10095   6.680  11.358   9.040
 6045W        W10096   1.247   7.866   8.563
 6046W        W10097   7.670   8.198   0.583
 6047W        W10098   4.868  10.731   9.179
 6048W        W10099  10.818   4.559   0.729
 6049W        W10100   6.472   9.052   9.604
 6050W        W10101   7.292   6.682   1.260
 6051W        W10102   2.136   8.242   8.514
 6052W        W10103   0.925   4.552   3.065
 6053W        W10104   4.237   9.090  10.676
 6054W        W10105   0.870   8.736   2.333
 6055W        W10106   1.937   4.685   9.070
 6056W        W10107   2.965   4.289   2.165
 6057W        W10108  11.217   8.906   2.447
 6058W        W10109   3.900   1.054   0.257
 6059W        W10110   2.296   2.786   1.032
 6060W        W10111   7.185  11.252  11.393
 6061W        W10112   8.988   4.934   8.289
 6062W        W10113   9.326   5.802   0.641
 6063W        W10114   9.349   6.169   2.943
 6064W        W10115   6.524  10.317   0.629
 6065W        W10116  10.604   4.381  10.944
 6066W        W10117   1.370  10.279   9.954
 6067W        W10118   5.728   0.880   0.533
 6068W        W10119   8.016  10.966   9.137
 6069W        W10120   8.048   9.529  11.352
 6070W        W10121   9.923   2.925   1.669
 6071W        W10122   0.265  10.882   3.131
 6072W        W10123   8.117   3.133   3.128
 6073W        W10124  10.294   7.470   8.992
 6074W        W10125   6.986   8.010   1.592
 6075W        W10126  11.434   8.336  11.673
 6076W        W10127   5.495   6.937   8.756
 6077W        W10128   7.016  10.348  11.750
 6078W        W10129   4.272   7.957   9.817
 6079W        W10130   8.402   6.128   2.943
 6080W        W10131   4.263   8.958   2.590
 6081W        W10132  11.375   4.282   9.885
 6082W        W10133   0.772   1.745   9.963
 6083W        W10134   7.124   8.373   9.891
 6084W        W10135   6.163   7.619   9.232
 6085W        W10136   1.398   0.233   9.991
 6086W        W10137   5.007  11.180   9.374
 6087W        W10138   7.449   5.707  10.249
 6088W        W10139   6.236   1.925   2.774
 6089W        W10140   2.566   2.152   3.459
 6090W        W10141   7.120   8.147   8.440
 6091W        W10142   4.132   1.681   1.718
 6092W        W10143   1.553   9.240   1.141
 6093W        W10144   8.495   5.430   2.214
 6094W        W10145   0.309   8.358   9.088
 6095W        W10146   8.773   0.445  11.864
 6096W        W10147  10.337   3.704   9.081
 6097W        W10148   6.442  11.483   3.440
 6098W        W10149   1.284   3.787   9.402
 6099W        W10150   5.941   3.475   2.479
 6100W        W10151   9.899   9.573   3.628
 6101W        W10152   4.631   5.734   0.016
 6102W        W10153   9.018   3.735  11.704
 6103W        W10154   8.978   7.104   9.973
 6104W        W10155   9.156   9.995   2.461
 6105W        W10156   6.089   2.448  10.438
 6106W        W10157   2.898   8.460   8.625
 6107W        W10158   8.984   9.818   9.080
 6108W        W10159   8.048   5.967   1.012
 6109W        W10160   5.563   2.800   0.020
 6110W        W10161   0.449   2.238   3.002
 6111W        W10162   6.457   9.520   2.778
 6112W        W10163   5.593   3.308  11.822
 6113W        W10164   3.523   1.418   0.209
 6114W        W10165   8.817   6.176   2.219
 6115W        W10166   4.567   8.537   2.431
 6116W        W10167   0.737  10.030   3.053
 6117W        W10168   5.593   9.290   0.973
 6118W        W10169   3.750   6.119   4.064
 6119W        W10170  10.086  10.781   2.414
 6120W        W10171   0.264  11.357   9.799
 6121W        W10172   6.051   7.593   9.751
 6122W        W10173   2.757   5.179   8.591
 6123W        W10174   2.397   5.744   0.732
 6124W        W10175   5.640   1.813  10.009
 6125W        W10176   6.539   0.743   2.263
 6126W        W10177   1.274   9.193   8.447
 6127W        W10178   8.182   8.659  10.954
 6128W        W10179   3.662   4.826  10.359
 6129W        W10180  11.066   6.982   0.443
 6130W        W10181   2.500   5.247   1.499
 6131W        W10182   4.769   2.325   3.678
 6132W        W10183   9.490   3.131   0.423
 6133W        W10184   7.427   9.521   1.511
 6134W        W10185  10.491   4.054   9.435
 6135W        W10186   8.491   5.703   1.200
 6136W        W10187   4.666   9.546   2.204
 6137W        W10188   8.898  11.269  11.482
 6138W        W10189   6.604  10.014  11.871
 6139W        W10190   2.460   5.267   1.993
 6140W        W10191   7.472   1.676  10.097
 6141W        W10192   9.583   5.173   2.008
 6142W        W10193   7.129  11.342  11.921
 6143W        W10194   7.862   2.323   0.377
 6144W        W10195   0.387   2.604  11.558
 6145W        W10196   8.547   6.581   0.363
 6146W        W10197   0.755   1.824   2.839
 6147W        W10198   0.890   8.090  10.284
 6148W        W10199   1.817   0.982  11.791
 6149W        W10200   4.088   9.429   9.478
 6150W        W10201   4.344   9.839   1.355
 6151W        W10202   6.200  11.414   2.163
 6152W        W10203   1.697  10.646  11.169
 6153W        W10204  10.545   9.955   0.278
 6154W        W10205   3.997   6.580   3.388
 6155W        W10206  11.151   3.036   0.426
 6156W        W10207   1.701   6.198  10.759
 6157W        W10208  10.933   8.549   9.865
 6158W        W10209  10.630  10.502   3.086
 6159W        W10210   5.310   2.192   1.169
 6160W        W10211   4.387   4.406   0.727
 6161W        W10212   6.913   2.914  10.795
 6162W        W10213   9.541  11.091   2.699
 6163W        W10214   6.846   3.824   9.926
 6164W        W10215   9.865   3.902   3.089
 6165W        W10216   6.006   2.753   2.392
 6166W        W10217   4.787   0.487   0.371
 6167W        W10218   1.816   1.175   0.281
 6168W        W10219   9.087   4.806   1.827
 6169W        W10220  10.294   0.361   1.895
 6170W        W10221   7.972   7.206   0.862
 6171W        W10222   6.966  10.896   3.138
 6172W        W10223   6.189   7.930  10.545
 6173W        W10224   9.460   9.469  10.439
 6174W        W10225   3.873   9.861   9.321
 6175W        W10226   8.573   8.052   9.938
 6176W        W10227   3.378   0.930  11.405
 6177W        W10228   3.879   5.901   8.730
 6178W        W10229   8.523   8.994   8.855
 6179W        W10230   7.103   4.173   1.360
 6180W        W10231  11.436  11.036   1.858
 6181W        W10232   3.842   8.776   2.783
 6182W        W10233   0.852   0.543   9.367
 6183W        W10234   8.892   0.820   1.458
 6184W        W10235   4.174   1.856  10.693
 6185W        W10236   6.420  10.308   1.121
 6186W        W10237   0.946  10.152   2.109
 6187W        W10238   6.954  10.460  10.356
 6188W        W10239   7.781   2.270   1.749
 6189W        W10240   4.673   1.630   1.747
 6190W        W10241   0.925   8.938   1.877
 6191W        W10242   5.048   3.756   2.320
 6192W        W10243   4.649   0.151   9.046
 6193W        W10244   8.170   3.709  10.530
 6194W        W10245  10.788   6.416  11.586
 6195W        W10246  10.781   6.004   8.700
 6196W        W10247   1.864   9.358   0.323
 6197W        W10248   7.284  10.521   0.721
 6198W        W10249   7.360   6.621   1.969
 6199W        W10250  11.397   3.454   0.179
 6200W        W10251   9.170  10.735   2.653
 6201W        W10252   7.428   9.581  11.391
 6202W        W10253   2.330   8.083  10.241
 6203W        W10254  11.469   4.307  11.237
 6204W        W10255   4.489   3.713   3.291
 6205W        W10256   8.853   4.235   0.923
 6206W        W10257   9.083   1.754   9.266
 6207W        W10258   1.341   2.353  10.679
 6208W        W10259   3.069   0.787   3.997
 6209W        W10260  11.068   6.002   1.961
 6210W        W10261   8.052   4.557   1.679
 6211W        W10262   6.753  10.000   9.159
 6212W        W10263   2.162   0.454  10.416
 6213W        W10264   2.347   2.831   1.533
 6214W        W10265   3.356   9.870  11.006
 6215W        W10266   5.074  10.355   8.839
 6216W        W10267   5.603   7.424   2.927
 6217W        W10268  11.119   4.009   8.881
 6218W        W10269   8.950   7.077   9.059
 6219W        W10270   1.512   7.318   1.418
 6220W        W10271   9.475   0.546   2.254
 6221W        W10272  10.979   5.272   0.927
 6222W        W10273   7.459   4.150   3.718
 6223W        W10274   5.084   9.551  10.568
 6224W        W10275   9.520   7.108   8.813
 6225W        W10276   9.399   8.884   2.466
 6226W        W10277  10.105   7.640   9.467
 6227W        W10278   4.641  10.716   0.823
 6228W        W10279  11.319   1.764   2.171
 6229W        W10280   7.288   6.771  10.023
 6230W        W10281   5.485   1.959  11.015
 6231W        W10282   6.596   9.507   0.028
 6232W        W10283   8.129   8.806   2.473
 6233W        W10284   7.075   7.502   1.809
 6234W        W10285   4.180   6.137   0.658
 6235W        W10286  10.781   3.979   2.388
 6236W        W10287   4.759   3.471  11.285
 6237W        W10288   9.354   5.067   9.498
 6238W        W10289  11.045   8.389   1.702
 6239W        W10290   7.908   8.268   1.788
 6240W        W10291   3.002   6.657   3.264
 6241W        W10292   0.856   9.667   3.379
 6242W        W10293  10.740   9.754   2.783
 6243W        W10294   2.226   5.746   2.746
 6244W        W10295   1.248   3.327   0.573
 6245W        W10296   3.413   2.878   1.294
 6246W        W10297   9.568   6.605   8.713
 6247W        W10298   7.444   6.227   1.640
 6248W        W10299  10.394   9.968  11.372
 6249W        W10300   2.552  10.438   9.191
 6250W        W10301   0.651   7.883  11.367
 6251W        W10302  11.391  10.318  10.641
 6252W        W10303   8.906  10.971  11.921
 6253W        W10304   4.707   6.740   2.033
 6254W        W10305   3.650   0.116   1.756
 6255W        W10306   8.965   3.582   3.399
 6256W        W10307   7.065   1.189   0.327
 6257W        W10308   4.653   9.354   3.067
 6258W        W10309   3.200  10.880   9.860
 6259W        W10310   3.978   5.817   9.956
 6260W        W10311   5.885   4.146   1.913
 6261W        W10312   5.498   9.851  10.473
 6262W        W10313   3.641   8.897   1.435
 6263W        W10314  11.428   0.237   9.038
 6264W        W10315   2.834   7.912  10.396
 6265W        W10316  11.020   1.652   8.776
 6266W        W10317   2.165   4.408   1.955
 6267W        W10318   9.397   7.272   8.335
 6268W        W10319   4.211   4.172   9.893
 6269W        W10320   1.389   9.961  10.748
 6270W        W10321   7.668   3.764   0.335
 6271W        W10322   9.394   6.204  10.006
 6272W        W10323  11.135   8.873   1.901
 6273W        W10324   8.646  10.856  11.328
 6274W        W10325   4.813   1.273   9.784
 6275W        W10326   7.543   4.511   2.360
 6276W        W10327   4.953   4.559   0.218
 6277W        W10328   9.147   1.308   9.529
 6278W        W10329  10.758   9.148  10.464
 6279W        W10330   0.623   7.882   3.654
 6280W        W10331   0.670   3.169   8.605
 6281W        W10332   2.153   8.424  11.271
 6282W        W10333  11.429  10.833  10.623
 6283W        W10334   5.004   3.533  10.048
 6284W        W10335   7.682   5.980  11.942
 6285W        W10336   4.326  11.449   1.238
 6286W        W10337   0.358   7.650  10.978
 6287W        W10338   1.653   7.452  10.488
 6288W        W10339   6.256   7.620   8.711
 6289W        W10340   7.114   8.674  10.312
 6290W        W10341   5.621  11.459   9.906
 6291W        W10342   8.536   1.931  10.436
 6292W        W10343   3.036  11.404  11.628
 6293W        W10344  11.014   2.151  10.176
 6294W        W10345   1.737   6.891   1.734
 6295W        W10346   3.398   0.245   9.902
 6296W        W10347  10.944   3.130   8.805
 6297W        W10348   8.397   1.795  11.962
 6298W        W10349   1.905   8.554   8.940
 6299W        W10350   4.183   7.457   2.248
 6300W        W10351   7.234   1.245   9.921
 6301W        W10352   4.218  11.031   9.813
 6302W        W10353   5.768   6.724  11.493
 6303W        W10354   5.162   5.540   0.753
 6304W        W10355   6.784   3.427   1.071
 6305W        W10356   0.505   5.178   2.511
 6306W        W10357  10.862  11.351   9.550
 6307W        W10358   7.482   9.611  11.941
 6308W        W10359   8.903   6.927   3.310
 6309W        W10360   9.545   0.953   2.588
 6310W        W10361   2.184   7.142   1.866
 6311W        W10362  10.978   5.121   1.917
 6312W        W10363   4.541   0.799   2.854
 6313W        W10364   0.290  10.525   9.219
 6314W        W10365   2.943   6.739  10.339
 6315W        W10366   1.974   4.797   8.537
 6316W        W10367   0.995  10.509   3.129
 6317W        W10368   9.806  10.970   9.434
 6318W        W10369   1.892   9.587  10.072
 6319W        W10370  11.335   2.701   0.052
 6320W        W10371   8.409   6.386   9.600
 6321W        W10372   8.063  10.941   8.625
 6322W        W10373   8.361   8.019   1.776
 6323W        W10374   2.156   6.746   3.129
 6324W        W10375   1.152   5.816   9.160
 6325W        W10376   2.728   5.083   9.526
 6326W        W10377   3.147   0.391  11.446
 6327W        W10378   1.786   5.981   0.186
 6328W        W10379   6.207  11.254   0.172
 6329W        W10380   0.470   9.933   1.327
 6330W        W10381   1.225  10.404  11.384
 6331W        W10382   0.433   5.282   3.504
 6332W        W10383   6.259   1.100   0.215
 6333W        W10384  11.495   1.334   2.832
 6334W        W10385   3.158  10.985   8.910
 6335W        W10386   5.561  11.443  10.827
 6336W        W10387   3.751  10.735   0.844
 6337W        W10388   5.074   5.048   0.030
 6338W        W10389   0.915   6.271   9.020
 6339W        W10390   0.813  10.241   3.551
 6340W        W10391   9.164   2.117  10.071
 6341W        W10392   0.226   5.633  11.215
 6342W        W10393   9.895   2.879   0.644
 6343W        W10394   8.547   8.507   3.025
 6344W        W10395  10.451   1.469   0.516
 6345W        W10396   6.141   6.916   0.399
 6346W        W10397   4.642  10.591   2.257
 6347W        W10398   1.800   7.245   9.779
 6348W        W10399  10.275   9.140   3.195
 6349W        W10400   9.952   1.800   9.283
 6350W        W10401   4.614  11.301  10.048
 6351W        W10402   7.023   1.048   8.882
 6352W        W10403   8.829   5.297   2.750
 6353W        W10404   2.673   1.730   3.192
 6354W        W10405   3.117   3.344   8.857
 6355W        W10406   0.833   4.840   9.996
 6356W        W10407   9.858   5.674  11.117
 6357W        W10408   2.678   9.577   8.943
 6358W        W10409   2.750   7.525   8.288
 6359W        W10410   3.150   6.262   0.791
 6360W        W10411   4.070   5.145   2.547
 6361W        W10412  10.364   7.917   1.918
 6362W        W10413   8.996   4.707   0.781
 6363W        W10414   7.091  10.325   1.921
 6364W        W10415   5.202   1.677   0.272
 6365W        W10416   7.050   2.460   0.797
 6366W        W10417   4.410   9.586   9.842
 6367W        W10418   5.654   3.596   1.178
 6368W        W10419   3.245   2.135   0.872
 6369W        W10420   2.337   8.915   0.958
 6370W        W10421  10.871   1.767  11.906
 6371W        W10422   7.904   8.891   8.769
 6372W        W10423   4.113   6.162  11.603
 6373W        W10424   2.036   9.319  10.951
 6374W        W10425   0.687   8.840   0.029
 6375W        W10426   7.385   5.548  11.983
 6376W        W10427   3.322   5.779   0.853
 6377W        W10428   0.465   6.202   2.215
 6378W        W10429   0.465   6.095  11.259
 6379W        W10430   1.798   6.032   1.179
 6380W        W10431   8.624   3.750   9.551
 6381W        W10432   9.608   5.256   9.899
 6382W        W10433   0.340   7.503   3.422
 6383W        W10434  10.519   0.439  11.190
 6384W        W10435  11.095   6.962   1.263
 6385W        W10436   3.428  10.013   0.444
 6386W        W10437   0.455   2.166   0.741
 6387W        W10438   3.476   5.245  10.183
 6388W        W10439   1.826   1.870   2.200
 6389W        W10440  10.784   7.046   3.561
 6390W        W10441   6.352   3.644  10.110
 6391W        W10442   0.794  10.604   8.493
 6392W        W10443   7.184   8.458   1.428
 6393W        W10444   3.343   4.416   0.566
 6394W        W10445   4.537   6.725  10.445
 6395W        W10446   6.485   4.692  10.983
 6396W        W10447   9.344  11.400   8.912
 6397W        W10448   8.376   7.418   3.254
 6398W        W10449  10.812   0.819   2.909
 6399W        W10450   9.503   9.181  11.412
 6400W        W10451   9.910   5.753   1.471
 6401W        W10452  10.707   7.630   0.991
 6402W        W10453   8.925  10.397  11.326
 6403W        W10454   5.231   1.653  10.288
 6404W        W10455   6.838   3.217   3.447
 6405W        W10456   0.232   5.525   8.868
 6406W        W10457   1.667   5.795  11.737
 6407W        W10458   9.011   0.287   2.321
 6408W        W10459   2.144   5.674   1.203
 6409W        W10460   1.461   2.375   0.581
 6410W        W10461  10.396   8.085   9.452
 6411W        W10462   0.465   0.775  10.984
 6412W        W10463  11.071  11.075   0.749
 6413W        W10464   1.921   2.719   0.704
 6414W        W10465   7.121  11.289  10.891
 6415W        W10466  10.264   9.602   0.918
 6416W        W10467   7.855   2.778  10.855
 6417W        W10468   5.547   6.216   0.644
 6418W        W10469   9.412   3.079   1.812
 6419W        W10470   6.046   8.479   8.985
 6420W        W10471   0.002   6.089  11.455
 6421W        W10472  10.930   0.455  11.559
 6422W        W10473   9.233   9.319   0.788
 6423W        W10474   5.160   9.429   0.522
 6424W        W10475   6.245   8.669   3.126
 6425W        W10476   5.556   4.527  10.975
 6426W        W10477   5.469   0.754   1.495
 6427W        W10478   9.296   2.305   2.992
 6428W        W10479   1.276   8.420   2.375
 6429W        W10480   4.251   3.106  11.951
 6430W        W10481   1.004   2.187   9.859
 6431W        W10482   1.822   7.803   0.374
 6432W        W10483   4.075   2.237   0.373
 6433W        W10484   2.813   8.513   9.126
 6434W        W10485   8.577  10.813   1.426
 6435W        W10486   7.936   8.896  10.578
 6436W        W10487   8.620   8.090   0.677
 6437W        W10488   6.998   7.945   2.091
 6438W        W10489   7.201   1.921   2.146
 6439W        W10490  11.255   3.241   2.289
 6440W        W10491   8.488   2.901   2.271
 6441W        W10492   4.202   9.587   3.206
 6442W        W10493   3.078   4.230   9.352
 6443W        W10494  10.416   1.625   9.465
 6444W        W10495   9.910   2.599  10.796
 6445W        W10496   2.813   9.697  10.432
 6446W        W10497   0.601   8.177   8.699
 6447W        W10498   3.714   8.692   8.226
 6448W        W10499   2.309   5.929  11.414
 6449W        W10500  11.434   7.982  10.328
 6450W        W10501  10.564   2.635  11.350
 6451W        W10502   3.924   9.572   9.951
 6452W        W10503   2.374   4.363   2.729
 6453W        W10504  11.282   6.527  11.750
 6454W        W10505  10.739  10.236   2.680
 6455W        W10506   9.326   5.254   2.903
 6456W        W10507   0.282   6.978   3.456
 6457W        W10508   5.504   0.284   9.140
 6458W        W10509   3.207   7.631   9.465
 6459W        W10510  11.475  10.764  11.552
 6460W        W10511   8.124   9.894   8.462
 6461W        W10512   1.086   1.902   1.895
 6462W        W10513   5.155   4.138  11.605
 6463W        W10514   5.690   5.250   2.266
 6464W        W10515   1.324   2.667   2.513
 6465W        W10516   9.968   1.269  10.539
 6466W        W10517   9.838   0.701  10.053
 6467W        W10518   4.045   8.460   2.427
 6468W        W10519   8.829   0.532   0.354
 6469W        W10520   8.973   4.599  10.460
 6470W        W10521   4.960   2.147   2.778
 6471W        W10522   8.237  10.019  11.408
 6472W        W10523  10.705   9.476   0.166
 6473W        W10524   1.540   0.679  10.858
 6474W        W10525   7.424   6.574  10.944
 6475W        W10526   8.524   6.545   3.664
 6476W        W10527   3.891   3.029   3.165
 6477W        W10528   9.438   0.149  11.812
 6478W        W10529   8.384   8.609  11.441
 6479W        W10530   4.759   5.690   1.044
 6480W        W10531   0.646  10.461   2.771
 6481W        W10532  10.494   6.516   8.806
 6482W        W10533   0.465   3.664   0.681
 6483W        W10534   0.679   2.167   9.440
 6484W        W10535   1.255   0.741   2.361
 6485W        W10536  10.552   9.299  11.696
 6486W        W10537   4.897   8.364   3.390
 6487W        W10538   7.608   7.520   9.901
 6488W        W10539   1.681   1.963  10.923
 6489W        W10540   4.632   7.576   0.100
 6490W        W10541   0.811  10.192  11.651
 6491W        W10542   2.117   3.316   0.717
 6492W        W10543   0.472  11.425   1.449
 6493W        W10544   1.860   5.528  11.336
 6494W        W10545   4.925   4.086   1.952
 6495W        W10546   3.776   7.041   1.002
 6496W        W10547  10.638   5.855   2.850
 6497W        W10548   8.210   4.373   0.296
 6498W        W10549   0.812   8.881   9.722
 6499W        W10550   7.402  11.321   3.152
 6500W        W10551   9.103   1.858   0.608
 6501W        W10552   9.492  11.227   3.336
 6502W        W10553   2.733   7.664   1.194
 6503W        W10554   6.970   5.016   1.659
 6504W        W10555  11.402   3.407   0.685
 6505W        W10556   2.472   7.088   1.081
 6506W        W10557   0.311   0.662   0.639
 6507W        W10558   5.240   9.955   9.631
 6508W        W10559   3.602   3.038   1.905
 6509W        W10560   5.665   5.334   0.790
 6510W        W10561   7.396   9.409   2.405
 6511W        W10562   1.488   2.322  10.198
 6512W        W10563   3.624   6.553   8.567
 6513W        W10564   2.062   7.438   2.361
 6514W        W10565  11.270  10.034   2.714
 6515W        W10566   4.570   1.356   2.253
 6516W        W10567   6.966   4.191   0.015
 6517W        W10568   0.727   5.356   9.988
 6518W        W10569   6.682   1.700  11.194
 6519W        W10570   8.489  11.290   3.139
 6520W        W10571   7.135   1.998   0.624
 6521W        W10572   1.441   0.715   0.038
 6522W        W10573   7.771   9.927  11.219
 6523W        W10574   4.105   0.458  11.988
 6524W        W10575   8.082   8.195   9.966
 6525W        W10576   0.341   6.506   3.787
 6526W        W10577   4.541   5.738  11.497
 6527W        W10578   4.025  10.531   9.759
 6528W        W10579   5.660   2.342  10.742
 6529W        W10580   8.885   9.293   9.298
 6530W        W10581   1.872   6.956   2.242
 6531W        W10582   0.400  10.817  11.823
 6532W        W10583   3.058  10.864  11.273
 6533W        W10584   0.802   9.962  10.564
 6534W        W10585   2.548   5.361   8.143
 6535W        W10586   6.631   6.708  11.291
 6536W        W10587   3.192   3.283  10.927
 6537W        W10588  10.837  10.310  11.775
 6538W        W10589   1.259  11.171   2.730
 6539W        W10590   3.758  10.959  10.522
 6540W        W10591   7.579   1.974  11.398
 6541W        W10592   4.035  11.452  11.818
 6542W        W10593   0.871   0.823   1.293
 6543W        W10594   1.875   8.634   9.472
 6544W        W10595   3.636   6.176   0.987
 6545W        W10596   9.774   1.694  10.746
 6546W        W10597   3.281   5.601  11.966
 6547W        W10598   0.593   7.258   2.164
 6548W        W10599   5.795   7.002   2.665
 6549W        W10600   9.771  11.413  11.489
 6550W        W10601   5.279   6.687   1.365
 6551W        W10602   6.232   4.145   4.110
 6552W        W10603   1.558   5.960  11.260
 6553W        W10604   6.573   6.914   1.219
 6554W        W10605   7.141   7.651  10.430
 6555W        W10606   6.525   7.740  10.981
 6556W        W10607   4.198  10.993   2.966
 6557W        W10608   7.086   0.831  10.797
 6558W        W10609   5.948  11.493   9.466
 6559W        W10610   5.868   9.529   9.849
 6560W        W10611   3.801   8.959   2.311
 6561W        W10612   4.171   6.242   3.757
 6562W        W10613   1.275   2.793   0.367
 6563W        W10614  10.559   2.373  10.039
 6564W        W10615   0.318  11.450   2.811
 6565W        W10616   0.351   7.252   1.697
 6566W        W10617   3.179   2.114  11.959
 6567W        W10618   2.899   2.800  11.409
 6568W        W10619   5.472   9.233   3.200
 6569W        W10620   9.954   8.392   2.391
 6570W        W10621  10.862  11.141   1.658
 6571W        W10622   1.729   9.203   3.303
 6572W        W10623   2.329  11.090  10.464
 6573W        W10624   7.485   0.970   0.567
 6574W        W10625   1.638   1.315  11.431
 6575W        W10626   6.671   3.135   2.447
 6576W        W10627   2.144   6.565   8.671
 6577W        W10628   2.856   6.236  10.607
 6578W        W10629   4.186   3.542  10.750
 6579W        W10630   6.448   3.182   8.468
 6580W        W10631   2.300   2.462  10.555
 6581W        W10632   1.602   7.035   9.372
 6582W        W10633  11.251   7.625   2.700
 6583W        W10634   9.256   0.682   0.564
 6584W        W10635   1.742   8.653   2.282
 6585W        W10636   5.113  11.305   9.875
 6586W        W10637   2.212   9.469   9.144
 6587W        W10638  10.036   3.373   1.879
 6588W        W10639   8.778   3.358  11.964
 6589W        W10640   4.245   0.075   9.849
 6590W        W10641   9.873   2.448   1.842
 6591W        W10642  10.946   8.189   0.737
 6592W        W10643   9.717   0.687   0.348
 6593W        W10644   5.170   5.970   0.997
 6594W        W10645   7.741   4.550   9.021
 6595W        W10646   3.240   2.636   0.861
 6596W        W10647   5.214   6.079  10.326
 6597W        W10648  10.007   8.147  11.786
 6598W        W10649   6.122   0.959   0.862
 6599W        W10650   1.942   3.406  10.951
 6600W        W10651  10.203   6.100   0.746
 6601W        W10652   8.989   7.867  11.524
 6602W        W10653   1.379   1.929   3.285
 6603W        W10654   6.562   8.648   1.827
 6604W        W10655   6.300   7.179   8.962
 6605W        W10656  10.798   0.760   9.070
 6606W        W10657   2.754   8.854   9.531
 6607W        W10658  11.258   8.587   0.710
 6608W        W10659   3.548   4.100   0.941
 6609W        W10660   4.046   6.181   0.133
 6610W        W10661   4.398   1.777   0.701
 6611W        W10662   6.193   0.290  10.802
 6612W        W10663   4.098  11.455   0.784
 6613W        W10664   7.596   8.910   0.645
 6614W        W10665   2.009   3.010  11.734
 6615W        W10666   8.146   2.841  10.400
 6616W        W10667   1.304   3.606  11.698
 6617W        W10668   4.536   3.418  10.400
 6618W        W10669   4.875   7.142  11.387
 6619W        W10670   5.646   6.326  10.162
 6620W        W10671   7.469   3.875   1.581
 6621W        W10672   0.154   5.656   0.603
 6622W        W10673  10.290   8.573  10.089
 6623W        W10674   7.170   3.124   1.980
 6624W        W10675   6.009   2.370   9.492
 6625W        W10676   4.612   1.448   9.364
 6626W        W10677   4.482   4.702   3.251
 6627W        W10678  10.084   7.459  10.317
 6628W        W10679  10.064  10.922   0.790
 6629W        W10680  11.360   5.256  11.094
 6630W        W10681   4.799   1.325  10.305
 6631W        W10682   0.850   3.505   9.529
 6632W        W10683   5.764   4.368   0.683
 6633W        W10684  10.172   7.522   1.626
 6634W        W10685   8.705   1.256   9.771
 6635W        W10686   3.254   8.598   0.223
 6636W        W10687   5.915   1.641  11.042
 6637W        W10688   5.054   1.816   4.155
 6638W        W10689   7.001   1.297   1.192
 6639W        W10690   7.878   5.229   9.452
 6640W        W10691   0.450   3.769   2.812
 6641W        W10692   8.082  11.377  10.875
 6642W        W10693   1.913   5.239   8.944
 6643W        W10694   1.354   2.827  10.357
 6644W        W10695   8.149  11.326   9.980
 6645W        W10696   9.218   0.393   3.279
 6646W        W10697   0.430  11.222   0.174
 6647W        W10698   8.655  11.283  10.218
 6648W        W10699   2.697   6.561   8.748
 6649W        W10700  10.525   0.699  10.676
 6650W        W10701   5.760   7.704   4.069
 6651W        W10702   3.323   3.318  11.415
 6652W        W10703   4.091  10.361  10.805
 6653W        W10704   9.016   3.298   9.022
 6654W        W10705   6.196   5.694   2.737
 6655W        W10706   4.979   8.121   9.183
 6656W        W10707   9.256   5.937  10.420
 6657W        W10708  10.359   4.138   3.117
 6658W        W10709   3.421   7.392   2.998
 6659W        W10710   7.628   2.114  11.894
 6660W        W10711   3.116   1.381  11.366
 6661W        W10712  10.752  11.282   9.057
 6662W        W10713  10.432   0.868   3.241
 6663W        W10714   4.127   1.252  10.385
 6664W        W10715   5.896  10.914   2.457
 6665W        W10716   2.023  10.354   9.187
 6666W        W10717   1.373   3.716  10.689
 6667W        W10718   1.737   4.623   0.420
 6668W        W10719   4.251   1.214   1.859
 6669W        W10720   9.033   8.976   9.846
 6670W        W10721   1.294   4.570  10.818
 6671W        W10722   4.253   2.774   1.554
 6672W        W10723   0.726   4.145   1.211
 6673W        W10724   9.314  10.296   3.767
 6674W        W10725  10.723   6.065   1.568
 6675W        W10726   2.128  10.587   1.800
 6676W        W10727  11.234   0.742   3.179
 6677W        W10728   0.551   1.858  11.165
 6678W        W10729   1.889  10.009   1.476
 6679W        W10730   7.602   6.220  10.192
 6680W        W10731   4.373   6.657  11.798
 6681W        W10732   0.076   1.679  11.230
 6682W        W10733   7.611  10.328  10.956
 6683W        W10734   7.589   8.017  10.650
 6684W        W10735   3.800   5.022   9.321
 6685W        W10736   5.125   0.294   1.312
 6686W        W10737   1.237   5.932  10.858
 6687W        W10738   9.836   8.879   3.301
 6688W        W10739   7.645   5.484   0.914
 6689W        W10740   2.194   8.804   2.488
 6690W        W10741   7.559   1.894   9.221
 6691W        W10742   9.301   4.831  10.060
 6692W        W10743   7.161   7.457   9.042
 6693W        W10744  10.889  10.937   3.029
 6694W        W10745   7.975   2.358   9.717
 6695W        W10746   3.707   6.627  10.804
 6696W        W10747   7.897  10.998   3.350
 6697W        W10748   3.924  10.276  11.341
 6698W        W10749   5.402   8.470  10.939
 6699W        W10750   0.592   9.071  10.190
 6700W        W10751   0.256   3.188   2.291
 6701W        W10752   6.069   2.555  10.953
 6702W        W10753  10.619   8.402   1.349
 6703W        W10754   3.215  11.479   9.182
 6704W        W10755  10.137   4.244   9.115
 6705W        W10756   6.803   1.774   2.433
 6706W        W10757   0.831   4.583  10.479
 6707W        W10758   5.774   2.856   2.835
 6708W        W10759   9.964   2.727   0.167
 6709W        W10760   3.897   7.261   2.827
 6710W        W10761  10.115   0.330   3.450
 6711W        W10762   7.388   1.049   2.389
 6712W        W10763   7.954   3.308  11.127
 6713W        W10764   0.807   7.393   0.808
 6714W        W10765   1.874   3.108  10.140
 6715W        W10766   1.800   6.434   0.407
 6716W        W10767   5.565   1.893  11.993
 6717W        W10768   2.361   9.583  10.650
 6718W        W10769   6.175   2.501  11.498
 6719W        W10770   4.521   6.114   1.287
 6720W        W10771   4.759  11.477   0.396
 6721W        W10772   9.040   7.386  10.393
 6722W        W10773   1.651  11.004  11.541
 6723W        W10774   4.168   9.511  11.492
 6724W        W10775   6.257   8.727   2.216
 6725W        W10776   3.640   0.895  10.408
 6726W        W10777   0.945   6.277  11.822
 6727W        W10778   8.826   7.609   8.837
 6728W        W10779   5.356   4.449   0.982
 6729W        W10780  10.025   3.254   8.737
 6730W        W10781   8.058   1.912  11.571
 6731W        W10782   9.614   9.357   3.258
 6732W        W10783   5.633   4.606   1.930
 6733W        W10784   5.834   7.062   9.159
 6734W        W10785   3.406   1.940   2.169
 6735W        W10786   8.436   5.944   9.877
 6736W        W10787   8.369   8.395   9.553
 6737W        W10788   0.224   4.060   1.359
 6738W        W10789   6.125   1.602   9.058
 6739W        W10790   4.785   7.974   1.138
 6740W        W10791   8.953   9.168   3.590
 6741W        W10792   9.993   7.969   1.507
 6742W        W10793   6.829  10.894   2.202
 6743W        W10794   9.462   3.367   8.725
 6744W        W10795   8.657   0.135   3.691
 6745W        W10796   2.951   0.714   0.297
 6746W        W10797   6.026   2.148   9.944
 6747W        W10798   4.939   2.638   1.787
 6748W        W10799   7.045   8.672   9.500
 6749W        W10800   7.801  10.381  11.437
 6750W        W10801   5.691   0.754   2.729
 6751W        W10802  11.378   5.198   9.912
 6752W        W10803   7.436  10.035  11.608
 6753W        W10804   7.112  11.185   1.309
 6754W        W10805  11.418   3.819  11.373
 6755W        W10806   9.873   9.997  11.927
 6756W        W10807   7.119   8.904   0.469
 6757W        W10808   2.168   4.974  11.733
 6758W        W10809   4.738   8.928   2.795
 6759W        W10810   2.689   9.496   1.709
 6760W        W10811  10.756   7.712   2.272
 6761W        W10812   1.752   2.681   9.873
 6762W        W10813   5.379   9.381   9.887
 6763W        W10814   2.314  10.004  11.414
 6764W        W10815  11.431   8.104   0.910
 6765W        W10816   8.212   1.217   0.640
 6766W        W10817   9.965   7.596   0.324
 6767W        W10818   5.079   7.240  10.887
 6768W        W10819   3.543   6.897   2.804
 6769W        W10820   8.632   3.035   1.245
 6770W        W10821   7.781   3.609   1.263
 6771W        W10822   1.373   7.165  11.543
 6772W        W10823   0.897   3.784   0.416
 6773W        W10824   2.793   2.851   0.987
 6774W        W10825  10.315  11.004  11.847
 6775W        W10826   6.503   2.352  10.757
 6776W        W10827   9.450   6.954   9.690
 6777W        W10828   4.770   9.901  10.964
 6778W        W10829   6.669   0.833   3.897
 6779W        W10830  10.528   7.276   1.347
 6780W        W10831  11.367   0.164   9.559
 6781W        W10832   5.203   9.010  10.743
 6782W        W10833   2.342   1.952  10.531
 6783W        W10834   5.081   9.336   2.429
 6784W        W10835   3.161   5.105   3.806
 6785W        W10836  11.303   5.278   0.507
 6786W        W10837   8.164   5.985   8.455
 6787W        W10838   9.762   0.490   1.817
 6788W        W10839  10.480   3.859  10.888
 6789W        W10840   1.173   6.677   8.696
 6790W        W10841   2.126   7.591   3.671
 6791W        W10842   4.497   1.450  10.686
 6792W        W10843   6.054   7.520  10.244
 6793W        W10844   2.711   7.526   9.334
 6794W        W10845   4.367  10.727   9.393
 6795W        W10846   4.797   7.152  10.345
 6796W        W10847   7.917  10.337   1.560
 6797W        W10848   7.983   1.238   1.424
 6798W        W10849   7.137   6.778   2.705
 6799W        W10850   9.160   8.432   1.278
 6800W        W10851   5.774   2.634   0.455
 6801W        W10852   1.885   2.162  10.491
 6802W        W10853   3.019   2.504  11.019
 6803W        W10854  10.418   7.449   2.999
 6804W        W10855  11.058   0.413   1.402
 6805W        W10856   5.928   4.312  11.369
 6806W        W10857   7.505   5.353   1.376
 6807W        W10858   7.167   9.469   2.888
 6808W        W10859   9.364   8.877   1.510
 6809W        W10860   5.669  10.739   3.448
 6810W        W10861   7.916   2.369   9.209
 6811W        W10862   3.671   7.052   0.027
 6812W        W10863   2.267  11.076   1.846
 6813W        W10864  11.432   0.502   0.951
 6814W        W10865   3.278   8.889   1.033
 6815W        W10866   7.352   7.004   8.821
 6816W        W10867   8.903   7.629   9.963
 6817W        W10868  10.515   9.064   8.712
 6818W        W10869   4.830   6.649  11.280
 6819W        W10870   0.392   4.876   1.632
 6820W        W10871   2.423   6.449  11.492
 6821W        W10872   9.447   9.787   2.876
 6822W        W10873   8.818   5.748  11.911
 6823W        W10874  10.888   0.348   9.433
 6824W        W10875   4.995   7.488   0.950
 6825W        W10876   2.376  10.300   0.885
 6826W        W10877  10.318   6.272   1.270
 6827W        W10878   5.302   9.818   0.229
 6828W        W10879  11.271   4.690   3.283
 6829W        W10880   5.225   0.799  11.768
 6830W        W10881   5.159   2.650   3.626
 6831W        W10882   5.747   4.116  10.745
 6832W        W10883   9.368  10.299   2.869
 6833W        W10884   1.844   7.804   2.702
 6834W        W10885  10.777   7.122   0.899
 6835W        W10886   9.873   4.724   0.206
 6836W        W10887   9.950   1.200   2.070
 6837W        W10888   3.197   4.756   0.920
 6838W        W10889   2.955   3.430  11.747
 6839W        W10890   0.661  10.442   0.072
 6840W        W10891   6.678   8.671   2.728
 6841W        W10892   8.477   9.476  10.131
 6842W        W10893   1.805   5.556   3.005
 6843W        W10894  11.380   2.842   2.705
 6844W        W10895   5.482  11.316   9.401
 6845W        W10896   8.968   9.876   0.817
 6846W        W10897   8.398   3.481  10.916
 6847W        W10898   6.546   1.672  10.198
 6848W        W10899   0.827   5.318  11.884
 6849W        W10900   2.694   8.163   1.289
 6850W        W10901   9.377   4.236  10.356
 6851W        W10902   7.492   6.694   0.320
 6852W        W10903  10.002   3.780   1.117
 6853W        W10904   2.174   7.414  10.579
 6854W        W10905   9.232   7.924   9.733
 6855W        W10906   8.469   9.889   9.828
 6856W        W10907   2.674   3.783  11.978
 6857W        W10908   1.002   0.735  10.850
 6858W        W10909  10.534  10.314   9.621
 6859W        W10910   6.240   1.284   8.669
 6860W        W10911   0.509   6.026   3.091
 6861W        W10912   0.814   4.553   9.531
 6862W        W10913   7.485   1.416   1.419
 6863W        W10914   9.405   5.828  11.320
 6864W        W10915  10.852   1.330  11.623
 6865W        W10916   8.869   4.784  11.781
 6866W        W10917   2.457   3.304  10.882
 6867W        W10918   6.375   1.368  10.931
 6868W        W10919   7.467   7.384   0.815
 6869W        W10920   1.332  10.917   2.294
 6870W        W10921   8.926   7.427   3.316
 6871W        W10922   5.489  10.541   2.467
 6872W        W10923   4.129  10.368  11.814
 6873W        W10924   1.330   1.820   9.964
 6874W        W10925   3.801   4.145   2.803
 6875W        W10926   5.045   6.042  11.981
 6876W        W10927   9.446   8.403   2.655
 6877W        W10928   7.627   5.524   2.214
 6878W        W10929   1.197  10.046   3.283
 6879W        W10930   5.522   7.506   0.919
 6880W        W10931  10.418  10.024   3.115
 6881W        W10932   4.263   5.226   0.541
 6882W        W10933   4.237   2.190   9.329
 6883W        W10934   8.898   7.143   2.811
 6884W        W10935   5.800   3.678  11.499
 6885W        W10936   7.915   2.757   1.703
 6886W        W10937   3.189   2.336  11.493
 6887W        W10938   7.497  10.027   1.830
 6888W        W10939   2.341   6.651   9.133
 6889W        W10940   9.016   9.554   1.707
 6890W        W10941   4.147  10.289   9.293
 6891W        W10942   3.194   6.173   1.797
 6892W        W10943   1.678   8.134  11.470
 6893W        W10944   6.136   0.223   1.379
 6894W        W10945   2.940   3.320   2.284
 6895W        W10946   4.179  11.458   8.905
 6896W        W10947   8.952   8.717   3.289
 6897W        W10948   7.165   8.151  10.349
 6898W        W10949   7.251   2.234   1.197
 6899W        W10950  10.077   8.094   9.880
 6900W        W10951   5.668   1.774   0.491
 6901W        W10952   0.805  11.366  10.894
 6902W        W10953   0.694  10.734   9.458
 6903W        W10954   3.313  11.236   2.605
 6904W        W10955   0.301   7.847   9.003
 6905W        W10956   2.012   7.598  10.132
 6906W        W10957   4.701   1.908  10.518
 6907W        W10958   7.565  10.453   1.186
 6908W        W10959   5.268   8.870   9.873
 6909W        W10960   7.159   5.344   0.714
 6910W        W10961   8.020   7.448   0.417
 6911W        W10962   5.599   3.117   0.404
 6912W        W10963  10.937   8.947  10.977
 6913W        W10964   3.677  10.399   9.421
 6914W        W10965   8.031   6.348   9.255
 6915W        W10966  10.286   1.984  10.575
 6916W        W10967   2.875   5.655   3.807
 6917W        W10968   6.090   0.261   0.055
 6918W        W10969   2.375   0.915  11.253
 6919W        W10970   8.124  10.318  11.008
 6920W        W10971   2.672  10.175  10.485
 6921W        W10972   1.436   1.509  10.812
 6922W        W10973   9.531   0.331  11.331
 6923W        W10974   7.149   9.193   9.081
 6924W        W10975   3.341   5.243   0.940
 6925W        W10976   9.896   7.204   0.020
 6926W        W10977   7.478   1.800   0.961
 6927W        W10978   6.907   7.412  10.811
 6928W        W10979  11.218   4.727  11.438
 6929W        W10980   9.237   7.605   2.054
 6930W        W10981   2.866   9.957  10.909
 6931W        W10982   7.371  10.082   3.626
 6932W        W10983  10.817   5.525   0.373
 6933W        W10984  10.451   8.837  10.755
 6934W        W10985   0.847  11.476   2.769
 6935W        W10986  11.051   3.351  11.298
 6936W        W10987  10.717   5.141   2.773
 6937W        W10988   4.263  10.026   0.168
 6938W        W10989   8.087  11.060  11.404
 6939W        W10990   0.291   6.744   9.646
 6940W        W10991   9.750   9.471   9.636
 6941W        W10992   7.341   2.450  10.394
 6942W        W10993   5.264   4.348   3.161
 6943W        W10994   2.664  11.339   9.867
 6944W        W10995   3.454   0.997  10.875
 6945W        W10996   1.642   5.697   9.006
 6946W        W10997   1.658   4.040   9.131
 6947W        W10998   8.422   9.242   1.434
 6948W        W10999   3.391   4.704   1.500
 6949W        W11000   1.602   6.868   1.198
 6950W        W11001   6.799   8.817   9.927
 6951W        W11002   9.841   9.476   1.204
 6952W        W11003   9.019   9.982   1.426
 6953W        W11004   3.128   3.830   2.331
 6954W        W11005   7.358   2.660  10.853
 6955W        W11006   8.447   5.230  10.448
 6956W        W11007   8.359   8.546   0.891
 6957W        W11008   7.483   5.652   0.465
 6958W        W11009  11.363   0.353   3.520
 6959W        W11010   8.036   0.729   1.343
 6960W        W11011   0.469   4.016  10.892
 6961W        W11012  10.902   2.462  10.959
 6962W        W11013   6.529   7.653   9.633
 6963W        W11014   4.292   1.348   8.947
 6964W        W11015   6.083   5.035   9.573
 6965W        W11016   5.255   1.653   1.236
 6966W        W11017   5.806  10.006   9.084
 6967W        W11018   6.353  11.426  10.440
 6968W        W11019   4.373   5.612   1.368
 6969W        W11020   8.859   0.963  11.940
 6970W        W11021   3.344   2.196   8.765
 6971W        W11022   9.913   5.975   8.822
 6972W        W11023   7.502   1.711  10.964
 6973W        W11024   3.799  11.423   9.997
 6974W        W11025  10.247   5.328  10.992
 6975W        W11026   7.481   1.296   1.920
 6976W        W11027   9.834   7.502   2.281
 6977W        W11028   5.535   8.547  11.992
 6978W        W11029   5.794  11.024   9.680
 6979W        W11030   6.190   4.116   9.925
 6980W        W11031   5.495  11.422  11.748
 6981W        W11032   8.530   0.800   0.704
 6982W        W11033   5.730   8.900   9.067
 6983W        W11034   9.556  11.274   9.776
 6984W        W11035   2.783   0.704   3.172
 6985W        W11036   4.526   9.273  10.231
 6986W        W11037   6.654   5.174  11.054
 6987W        W11038   4.777   3.281   2.300
 6988W        W11039   2.457   5.180   9.946
 6989W        W11040  11.254   6.520   1.861
 6990W        W11041   2.866   1.940   2.174
 6991W        W11042   3.724   6.235  10.185
 6992W        W11043  11.278   7.368  10.135
 6993W        W11044   4.692  11.400   3.456
 6994W        W11045  10.312   2.049   1.190
 6995W        W11046   9.527   0.436   8.981
 6996W        W11047   8.319   0.689   9.826
 6997W        W11048   4.029  10.225   3.820
 6998W        W11049   1.215   4.568  11.704
 6999W        W11050   5.112   7.116   9.930
 7000W        W11051   6.330  11.162   0.642
 7001W        W11052   2.670   1.378  11.766
 7002W        W11053  10.332   9.531   8.485
 7003W        W11054   9.018   2.791   8.869
 7004W        W11055   1.898   0.114   8.983
 7005W        W11056   7.563   1.017   8.927
 7006W        W11057   3.801   2.883  11.839
 7007W        W11058   6.940   4.063   9.467
 7008W        W11059   2.708   2.956  10.077
 7009W        W11060   0.322   4.046   9.894
 7010W        W11061  10.222   1.917   0.714
 7011W        W11062   1.843  10.797   3.123
 7012W        W11063   8.987   4.131  10.684
 7013W        W11064   2.091   6.346   3.470
 7014W        W11065   2.760  11.228   1.682
 7015W        W11066  10.299   5.703   0.378
 7016W        W11067  10.830   1.338   1.548
 7017W        W11068   9.884   1.171   0.413
 7018W        W11069   1.032   7.045   0.456
 7019W        W11070   0.912   5.023   2.776
 7020W        W11071   7.288   7.151  10.574
 7021W        W11072  11.427   1.033   0.910
 7022W        W11073   2.910  11.295   0.126
 7023W        W11074   5.776   6.671   2.251
 7024W        W11075   1.870   0.868  11.290
 7025W        W11076   4.113   8.371  11.235
 7026W        W11077   7.357   2.355   0.297
 7027W        W11078   0.850   4.654   0.466
 7028W        W11079   1.330   9.804   8.850
 7029W        W11080   8.603   2.957   9.134
 7030W        W11081   6.681   8.994   3.382
 7031W        W11082   4.292   5.648   0.845
 7032W        W11083   6.047   3.705  10.707
 7033W        W11084   5.531   6.280   1.161
 7034W        W11085   4.979   3.667   8.670
 7035W        W11086   5.989   9.966   9.578
 7036W        W11087   6.490  10.897   1.811
 7037W        W11088  11.278   1.764   2.674
 7038W        W11089   7.625   2.777   0.431
 7039W        W11090   0.317   8.118   2.216
 7040W        W11091   9.045   4.637   9.103
 7041W        W11092   1.364  10.815   8.864
 7042W        W11093   7.826   0.229   2.218
 7043W        W11094   3.403   8.972   0.541
 7044W        W11095   7.968   3.656   0.786
 7045W        W11096   5.127   9.765  10.100
 7046W        W11097   8.839   0.887   1.955
 7047W        W11098  10.036  11.058   2.859
 7048W        W11099   5.642   1.277   3.493
 7049W        W11100   5.990   8.926  11.491
 7050W        W11101   5.646   4.688   2.432
 7051W        W11102   8.398   0.770   0.197
 7052W        W11103   8.012   5.806   3.657
 7053W        W11104   0.630   0.909   9.054
 7054W        W11105   2.839   4.215  11.711
 7055W        W11106  11.208   5.987   2.819
 7056W        W11107   7.500   8.065   1.566
 7057W        W11108   5.354   0.319  10.501
 7058W        W11109   5.684   6.576   9.138
 7059W        W11110   7.889   7.860   2.106
 7060W        W11111   8.884  10.421  10.337
 7061W        W11112   7.924  10.764  11.780
 7062W        W11113  10.986   0.305   0.511
 7063W        W11114   3.539   4.001  10.595
 7064W        W11115  10.191   1.457   0.946
 7065W        W11116   9.993   6.509  10.417
 7066W        W11117   4.181   2.737   3.494
 7067W        W11118   6.610   1.790   8.928
 7068W        W11119   5.718   8.184   9.502
 7069W        W11120   3.199   9.380   1.810
 7070W        W11121   7.551  11.452   1.195
 7071W        W11122   1.797   8.690   3.235
 7072W        W11123   7.330   8.352  11.789
 7073W        W11124   6.800  10.374  11.296
 7074W        W11125   0.851   8.529  10.779
 7075W        W11126   5.725  11.449   0.229
 7076W        W11127   6.736   6.344  11.761
 7077W        W11128   9.715   8.221   3.673
 7078W        W11129   5.767   8.811   0.950
 7079W        W11130  10.530   5.542   0.849
 7080W        W11131   9.128  10.400   3.297
 7081W        W11132   7.887  10.981   9.649
 7082W        W11133   6.642  10.887   9.235
 7083W        W11134   2.452   7.053  10.333
 7084W        W11135  10.756   0.330   0.051
 7085W        W11136   6.664   9.107  10.858
 7086W        W11137   4.067   2.839   2.032
 7087W        W11138   8.143   9.887   1.366
 7088W        W11139   5.089   4.502   2.233
 7089W        W11140   0.858   4.160   1.704
 7090W        W11141   6.906   2.508   9.994
 7091W        W11142   2.657   4.964  10.392
 7092W        W11143   8.278   0.361  11.858
 7093W        W11144   7.635   9.028   9.211
 7094W        W11145   3.719   5.752   0.184
 7095W        W11146  10.357   6.096   3.254
 7096W        W11147   0.011  10.804   1.395
 7097W        W11148   4.709   0.331   9.921
 7098W        W11149   5.993   3.383   8.552
 7099W        W11150   8.403  10.538   0.914
 7100W        W11151   4.738   4.137   0.443
 7101W        W11152  11.495   1.816   1.186
 7102W        W11153  10.810   7.349   2.616
 7103W        W11154   5.551   9.417   8.991
 7104W        W11155   1.428   9.154   0.166
 7105W        W11156   9.370   0.455  10.344
 7106W        W11157   2.641   7.049  11.224
 7107W        W11158   2.849  10.934  11.754
 7108W        W11159   2.146   7.350   9.407
 7109W        W11160   1.680   9.597   0.760
 7110W        W11161   0.964  10.125  11.025
 7111W        W11162   9.985   2.867  11.683
 7112W        W11163   2.360   1.545   9.622
 7113W        W11164   8.585   3.364   1.626
 7114W        W11165   0.137  10.518   2.789
 7115W        W11166  11.411   8.458   2.258
 7116W        W11167   8.457   7.096   9.404
 7117W        W11168   5.228   1.705   2.668
 7118W        W11169   9.855   6.133   3.101
 7119W        W11170   7.957   6.974   3.124
 7120W        W11171   6.990   6.591   8.778
 7121W        W11172   1.755   6.469   0.908
 7122W        W11173   6.522   1.831  10.691
 7123W        W11174   2.726   5.751  10.736
 7124W        W11175   6.070  11.297  10.847
 7125W        W11176   1.136   5.702  10.039
 7126W        W11177   1.275   8.856  10.005
 7127W        W11178   5.065   2.969   0.908
 7128W        W11179   0.748   6.502  11.344
 7129W        W11180   8.476   1.144   1.633
 7130W        W11181   7.848   7.402   2.346
 7131W        W11182   2.806   2.582   3.343
 7132W        W11183   5.559   1.336  11.837
 7133W        W11184   2.022   7.668  11.427
 7134W        W11185   8.446   0.746  11.158
 7135W        W11186   0.456   6.731  10.526
 7136W        W11187   1.945  11.130   1.157
 7137W        W11188   0.263  11.107  10.280
 7138W        W11189   4.021   4.541   9.532
 7139W        W11190  10.878   9.032   0.019
 7140W        W11191   5.133   5.572  11.761
 7141W        W11192   9.854   5.272   3.043
 7142W        W11193   6.591   9.595   8.470
 7143W        W11194  10.041   1.788   9.779
 7144W        W11195   4.690   5.710   0.533
 7145W        W11196   1.341   8.383  10.192
 7146W        W11197   8.381  11.295   9.279
 7147W        W11198   3.141   1.012  10.092
 7148W        W11199   8.649   5.805   8.226
 7149W        W11200   3.561   4.182   9.200
 7150W        W11201   2.354  10.042  10.881
 7151W        W11202   1.754   5.031   9.388
 7152W        W11203   8.069   6.005  10.235
 7153W        W11204   6.978   0.955   2.122
 7154W        W11205   5.243   0.887   2.947
 7155W        W11206   4.604   3.207   0.811
 7156W        W11207   3.496   0.036  11.409
 7157W        W11208   8.047   0.061  11.394
 7158W        W11209   4.598   0.327   8.559
 7159W        W11210   8.511   7.648   0.395
 7160W        W11211  10.320   2.702   1.386
 7161W        W11212   8.574   1.182  11.368
 7162W        W11213   5.355  11.424   3.190
 7163W        W11214   4.873   0.672   3.217
 7164W        W11215  10.052   8.479   9.371
 7165W        W11216   4.127   1.869   8.743
 7166W        W11217   5.187   8.273   1.276
 7167W        W11218   3.335  10.810   2.258
 7168W        W11219   5.126   9.114   1.515
 7169W        W11220   6.772  10.929   0.096
 7170W        W11221   1.622   8.997  10.876
 7171W        W11222  11.417   1.839  11.693
 7172W        W11223   2.611   5.731   1.362
 7173W        W11224   8.605   4.087   0.492
 7174W        W11225   3.350   5.215   1.462
 7175W        W11226   6.896   4.572  11.240
 7176W        W11227  10.832   2.738   0.739
 7177W        W11228   6.523  11.145   3.067
 7178W        W11229   5.096   3.079  11.061
 7179W        W11230   9.419  10.877   0.112
 7180W        W11231   3.772   7.978  10.503
 7181W        W11232   7.133   7.056   0.057
 7182W        W11233   1.460   8.497   9.173
 7183W        W11234   3.866   1.863   1.299
 7184W        W11235   1.192   6.732  11.745
 7185W        W11236   5.186   1.426   0.755
 7186W        W11237   4.732   8.680   1.932
 7187W        W11238   3.319   8.790   8.634
 7188W        W11239   1.284   4.676   0.197
 7189W        W11240   7.226   8.398  10.792
 7190W        W11241   0.675   1.499  10.406
 7191W        W11242   2.638   8.656   1.235
 7192W        W11243   7.029   1.692  10.333
 7193W        W11244   5.048  10.781   0.507
 7194W        W11245   2.661   2.345   2.462
 7195W        W11246  10.777   4.239   2.830
 7196W        W11247   4.670   6.099   1.831
 7197W        W11248   8.804   3.666   1.229
 7198W        W11249   5.517   3.285   2.691
 7199W        W11250   1.805   5.527   9.456
 7200W        W11251   4.444   2.166   2.864
 7201W        W11252   6.166   3.172   8.969
 7202W        W11253   6.564   5.667   1.739
 7203W        W11254   3.595  11.253  10.959
 7204W        W11255   3.371   7.138  10.469
 7205W        W11256   3.808   2.641  10.353
 7206W        W11257  11.431   4.289   9.176
 7207W        W11258   9.456   5.025   0.397
 7208W        W11259   6.556   5.695  11.267
 7209W        W11260   8.683   6.639   8.726
 7210W        W11261   0.607   1.258   9.918
 7211W        W11262   4.284   4.565  10.815
 7212W        W11263   1.056   7.885   3.373
 7213W        W11264   4.163   2.546  11.950
 7214W        W11265   5.768   7.513   8.894
 7215W        W11266   8.100   3.702   9.597
 7216W        W11267   0.393   4.887  11.754
 7217W        W11268   0.855   9.030  10.627
 7218W        W11269   6.969   0.843   2.622
 7219W        W11270   0.204   7.644  10.077
 7220W        W11271   3.811   2.093  11.423
 7221W        W11272   7.029  11.469   2.326
 7222W        W11273   9.116   3.319   2.785
 7223W        W11274   4.078   1.712   9.234
 7224W        W11275   9.417   2.423   9.695
 7225W        W11276   5.184   6.728   9.118
 7226W        W11277   6.148   6.182   9.406
 7227W        W11278   0.234   6.611   0.045
 7228W        W11279   2.269   0.209   1.025
 7229W        W11280   5.504  10.282  10.759
 7230W        W11281   4.940   0.189   3.137
 7231W        W11282   2.205   1.952   3.180
 7232W        W11283   0.763  11.199  11.779
 7233W        W11284   8.071  10.970   2.850
 7234W        W11285   8.687   1.348   0.760
 7235W        W11286   0.536   9.725   0.554
 7236W        W11287   7.030   7.564   9.546
 7237W        W11288   0.111   5.268   0.084
 7238W        W11289   4.686   6.157  11.240
 7239W        W11290   3.846  10.967  11.917
 7240W        W11291   4.574   7.557  10.052
 7241W        W11292   8.325   9.824   3.623
 7242W        W11293   3.602   1.323  10.137
 7243W        W11294   2.758   9.928   2.016
 7244W        W11295   2.161   5.116  10.340
 7245W        W11296   1.776   3.553  11.451
 7246W        W11297   8.549   8.882   9.391
 7247W        W11298   6.513   7.103   1.965
 7248W        W11299   2.622   0.929   9.962
 7249W        W11300   2.664   1.834   2.648
 7250W        W11301   0.236   0.002   1.903
 7251W        W11302   4.161   3.772  10.304
 7252W        W11303   3.688   6.116   8.318
 7253W        W11304   3.244   4.705  10.097
 7254W        W11305   0.389   6.656   1.118
 7255W        W11306   0.759   3.166  11.024
 7256W        W11307   8.623   8.911  11.019
 7257W        W11308   1.724   8.977  11.810
 7258W        W11309   8.371   1.108   1.114
 7259W        W11310   2.550   5.626   8.742
 7260W        W11311   7.430   0.477   3.000
 7261W        W11312   2.712   8.857  10.047
 7262W        W11313   4.771   2.466  11.463
 7263W        W11314  10.902   2.967   2.544
 7264W        W11315   3.466  10.551   0.454
 7265W        W11316   6.226   5.506  11.760
 7266W        W11317   7.516   8.095  11.139
 7267W        W11318   8.853   8.510   0.866
 7268W        W11319   8.158   6.371   1.328
 7269W        W11320  10.000   0.304   9.185
 7270W        W11321   9.774   7.921   3.260
 7271W        W11322   5.110   8.276  11.984
 7272W        W11323   1.750   2.695   8.826
 7273W        W11324  10.326   8.884   2.735
 7274W        W11325   3.697   4.234   8.702
 7275W        W11326  10.350   2.176  11.390
 7276W        W11327   6.257  10.384   9.727
 7277W        W11328   2.343   3.836   8.631
 7278W        W11329   3.803   9.723   0.201
 7279W        W11330   4.111   0.403   2.469
 7280W        W11331  10.375   1.788   1.842
 7281W        W11332  10.965   2.581   2.135
 7282W        W11333   1.854   7.742   9.661
 7283W        W11334   0.406   0.420   1.564
 7284W        W11335   9.112   2.699  11.335
 7285W        W11336  10.825   6.160   9.213
 7286W        W11337   2.218   6.671   1.653
 7287W        W11338  10.268   7.955   3.128
 7288W        W11339  10.892   4.645  11.826
 7289W        W11340   6.777   5.838   1.277
 7290W        W11341   0.810   2.894  10.201
 7291W        W11342   2.731   9.925   9.989
 7292W        W11343  11.258   9.507   9.019
 7293W        W11344   8.956   2.579   3.285
 7294W        W11345   0.959   2.825  10.693
 7295W        W11346   7.515  11.311   2.232
 7296W        W11347   5.706   4.058   4.084
 7297W        W11348   0.906  11.384   0.506
 7298W        W11349   1.196   4.169   0.995
 7299W        W11350   8.460   0.959   9.425
 7300W        W11351  11.173   1.680   3.666
 7301W        W11352   3.715   1.281   1.923
 7302W        W11353   2.290   9.369  11.544
 7303W        W11354   7.075   1.996  11.351
 7304W        W11355   1.734   7.838   0.994
 7305W        W11356   9.086  10.857   1.337
 7306W        W11357  10.119  11.038  11.370
 7307W        W11358   1.370   4.100  11.024
 7308W        W11359   4.189   4.693   1.808
 7309W        W11360  10.518   8.420   1.847
 7310W        W11361   2.344   3.422   3.691
 7311W        W11362   6.728   1.365   3.337
 7312W        W11363   1.547  10.495   0.904
 7313W        W11364   5.467   8.391   0.855
 7314W        W11365   0.372  10.396  11.427
 7315W        W11366   4.999  11.044   2.011
 7316W        W11367   1.040   7.490   1.290
 7317W        W11368   2.024   5.147   1.242
 7318W        W11369   0.485   2.644   1.003
 7319W        W11370   5.640   4.676   2.977
 7320W        W11371   4.529   3.239   9.019
 7321W        W11372   9.872   4.246   0.896
 7322W        W11373   3.912   8.355  11.696
 7323W        W11374   4.241  10.568   1.955
 7324W        W11375   8.843   2.277  11.420
 7325W        W11376   6.210   9.251   0.273
 7326W        W11377   0.319   5.172   0.670
 7327W        W11378   5.674   2.804  10.503
 7328W        W11379   0.456  10.982  10.760
 7329W        W11380   0.470   2.151   9.901
 7330W        W11381   0.499   6.718   2.128
 7331W        W11382  10.411   1.958   9.075
 7332W        W11383   6.910   6.042  11.385
 7333W        W11384   9.038   0.319   1.365
 7334W        W11385   2.737   6.207   0.459
 7335W        W11386  11.361  10.240   0.283
 7336W        W11387   9.058   2.145   2.144
 7337W        W11388   1.184   7.912   2.353
 7338W        W11389   3.327   5.085  11.912
 7339W        W11390   6.497   4.511  10.510
 7340W        W11391   9.270   0.566   0.067
 7341W        W11392   1.759   9.083   9.253
 7342W        W11393   3.334   1.752   8.478
 7343W        W11394  10.054   0.979   0.854
 7344W        W11395  10.020   2.387   0.800
 7345W        W11396   0.704  11.238   9.511
 7346W        W11397   8.670   6.093   8.656
 7347W        W11398   7.902   4.283   9.806
 7348W        W11399   8.987  10.165  11.930
 7349W        W11400   6.958   0.846   9.740
 7350W        W11401   7.960   4.507  10.265
 7351W        W11402   9.536   2.903   8.949
 7352W        W11403  10.431   0.928   2.305
 7353W        W11404  11.308   6.122   9.429
 7354W        W11405   5.822   2.297   1.182
 7355W        W11406   6.553   0.223   2.366
 7356W        W11407   8.258   7.885   9.569
 7357W        W11408   8.037   7.148  11.995
 7358W        W11409   7.952  11.229   1.445
 7359W        W11410   2.785   4.979   0.727
 7360W        W11411   4.968   7.051   9.446
 7361W        W11412   4.678   4.773   2.025
 7362W        W11413   1.786   2.317   0.973
 7363W        W11414   0.335   5.769  10.325
 7364W        W11415   2.865   3.695   0.482
 7365W        W11416   4.981   1.772   8.775
 7366W        W11417  10.691   6.793   9.910
 7367W        W11418   2.262   0.274   0.513
 7368W        W11419   4.156   4.861  10.400
 7369W        W11420   1.980   5.429   0.794
 7370W        W11421   6.069   6.492  10.682
 7371W        W11422   8.774   9.444   0.609
 7372W        W11423   9.945   5.665   2.493
 7373W        W11424  10.340   7.441   0.668
 7374W        W11425   1.476  11.385  10.409
 7375W        W11426  10.713   9.635   0.666
 7376W        W11427   8.620   2.564   1.044
 7377W        W11428   4.280   9.945  11.167
 7378W        W11429   8.768   5.926  10.278
 7379W        W11430   8.429   3.842   0.903
 7380W        W11431   2.098   8.067   0.737
 7381W        W11432  11.162   3.574   3.297
 7382W        W11433   7.555  10.547   2.701
 7383W        W11434   9.009   8.587   2.288
 7384W        W11435   0.968   6.918   2.237
 7385W        W11436   7.602  11.353  11.637
 7386W        W11437  10.365   8.909   1.377
 7387W        W11438   3.760   7.102   1.980
 7388W        W11439   0.570   3.667   1.335
 7389W        W11440   3.549   0.737   9.929
 7390W        W11441   0.583   9.141   2.225
 7391W        W11442  11.419   8.619  10.882
 7392W        W11443   7.243   2.787   2.801
 7393W        W11444   8.693   8.376   1.511
 7394W        W11445   3.699   3.632   9.364
 7395W        W11446   4.729   5.700  11.010
 7396W        W11447   5.337   7.255   9.123
 7397W        W11448   7.422   0.542   2.490
 7398W        W11449   3.242   3.170   9.917
 7399W        W11450   9.716   0.424   3.134
 7400W        W11451   2.383   9.936   3.403
 7401W        W11452   7.824  10.593  10.582
 7402W        W11453   7.209   1.316   3.213
 7403W        W11454   1.384   0.244   1.430
 7404W        W11455   4.486   8.484   1.131
 7405W        W11456   5.735   2.802  11.544
 7406W        W11457   1.156   1.019   0.349
 7407W        W11458   6.562   8.135   1.880
 7408W        W11459   2.817   2.698   0.352
 7409W        W11460   9.474   1.946   9.527
 7410W        W11461   3.584   7.012  11.523
 7411W        W11462   0.766   6.071   9.470
 7412W        W11463  10.274   2.923  11.015
 7413W        W11464   3.583   3.193   9.079
 7414W        W11465   2.086   0.925   3.633
 7415W        W11466   5.487   7.572  11.937
 7416W        W11467  11.338   2.714   0.782
 7417W        W11468   6.529   6.652  10.226
 7418W        W11469   7.432  10.236  10.501
 7419W        W11470   6.104   5.083   1.542
 7420W        W11471   3.601   1.804  11.857
 7421W        W11472   1.807   3.585   0.397
 7422W        W11473   5.079   4.228   1.363
 7423W        W11474   3.228   4.694   1.998
 7424W        W11475   6.095   7.742   3.669
 7425W        W11476   7.557   4.507   9.503
 7426W        W11477   5.397   9.037   0.205
 7427W        W11478  10.853   5.583   1.699
 7428W        W11479   8.580   8.889   2.219
 7429W        W11480   9.329   3.647   1.299
 7430W        W11481   8.218   8.128  11.773
 7431W        W11482   2.410   7.418   1.494
 7432W        W11483   9.099   2.705   9.384
 7433W        W11484   2.356   9.985   9.016
 7434W        W11485   6.756   4.250   0.480
 7435W        W11486   8.904   1.023   0.440
 7436W        W11487   9.891  11.242   0.234
 7437W        W11488   5.925  10.663  11.419
 7438W        W11489   4.252   1.366   0.435
 7439W        W11490   9.972  10.333   9.459
 7440W        W11491   2.849   4.539   0.472
 7441W        W11492   8.633   2.555   1.545
 7442W        W11493   8.672   7.570   1.894
 7443W        W11494   3.774   8.048   3.196
 7444W        W11495   9.939   3.310   2.405
 7445W        W11496   0.374   5.030   8.882
 7446W        W11497   0.365   8.580   2.495
 7447W        W11498   9.377  10.376   1.857
 7448W        W11499  11.116   4.594   0.300
 7449W        W11500   2.141   3.228   0.186
 7450W        W11501   5.242   1.221  11.448
 7451W        W11502   9.806   2.245   3.476
 7452W        W11503   4.658  10.406  11.805
 7453W        W11504   5.646   4.791  10.545
 7454W        W11505   7.142   3.882   3.062
 7455W        W11506   4.297   4.700   9.945
 7456W        W11507   0.490   2.675   9.376
 7457W        W11508   9.604   5.704   2.878
 7458W        W11509  10.012   7.481   3.317
 7459W        W11510   2.054   8.755   8.470
 7460W        W11511   1.795   6.462   1.438
 7461W        W11512   4.040   5.942   1.172
 7462W        W11513   5.191   7.842  11.554
 7463W        W11514   2.186  11.304   9.998
 7464W        W11515   1.985   2.664  11.294
 7465W        W11516   8.567   1.589   1.872
 7466W        W11517   0.154   9.430   9.452
 7467W        W11518   9.998   6.149   0.204
 7468W        W11519   3.625   8.422  10.766
 7469W        W11520   6.340  10.747   0.324
 7470W        W11521  10.340   9.966   1.772
 7471W        W11522   7.655   0.024   1.719
 7472W        W11523   5.098   8.617  10.377
 7473W        W11524   8.154   3.877   0.358
 7474W        W11525   8.963   3.212  11.381
 7475W        W11526   7.637   5.609  11.073
 7476W        W11527   6.715   3.663  11.384
 7477W        W11528   8.148   0.447   9.412
 7478W        W11529   4.621   2.492   3.223
 7479W        W11530  10.062   6.164  10.812
 7480W        W11531   2.380   3.381   8.932
 7481W        W11532   8.463   4.999   9.993
 7482W        W11533  11.447   4.744   8.612
 7483W        W11534   8.565   8.329  10.914
 7484W        W11535   0.766   4.877   3.473
 7485W        W11536  10.193   5.804  11.481
 7486W        W11537   0.468   4.697   2.881
 7487W        W11538   0.380   8.520   3.002
 7488W        W11539   8.424  11.224   1.686
 7489W        W11540   8.999   5.047  11.187
 7490W        W11541   7.853   4.523  11.758
 7491W        W11542   7.500   6.950   3.397
 7492W        W11543   8.949   9.125   2.490
 7493W        W11544   5.116   4.036   9.027
 7494W        W11545   8.940   5.677   2.311
 7495W        W11546  11.223  10.125   1.922
 7496W        W11547   5.013  10.065  10.535
 7497W        W11548   4.616   7.018   1.583
 7498W        W11549   1.690   3.078  11.252
 7499W        W11550   0.871  10.401   9.995
 7500W        W11551   6.042   4.922   2.058
 7501W        W11552   2.258   1.158   0.016
 7502W        W11553   2.717   5.457  10.314
 7503W        W11554  10.976  10.100   3.146
 7504W        W11555   7.222   8.378   3.375
 7505W        W11556  11.490   0.273   0.496
 7506W        W11557   6.394   0.233   9.281
 7507W        W11558   3.759   2.643   1.602
 7508W        W11559   6.957   7.982   3.124
 7509W        W11560   9.845   1.016   8.646
 7510W        W11561   5.251   3.585  11.495
 7511W        W11562   6.462   0.981   1.340
 7512W        W11563   2.001   5.088   2.131
 7513W        W11564   4.476   6.518   1.619
 7514W        W11565   0.917   2.130   3.222
 7515W        W11566   2.812   6.470   9.262
 7516W        W11567   5.023   1.232  11.947
 7517W        W11568   6.954   5.665  11.731
 7518W        W11569   9.981   1.359   9.539
 7519W        W11570   0.823   2.398   2.180
 7520W        W11571   6.468   8.094   3.320
 7521W        W11572   5.029   3.491   3.998
 7522W        W11573   8.305   2.992  10.851
 7523W        W11574   9.433   7.617   0.470
 7524W        W11575   7.477  10.789   3.142
 7525W        W11576   6.482   6.147   1.532
 7526W        W11577   6.092   0.681  11.777
 7527W        W11578   8.117   3.298   0.437
 7528W        W11579   8.538   6.588   2.705
 7529W        W11580  11.333   2.313   1.854
 7530W        W11581   9.092   5.213   0.685
 7531W        W11582   5.514  10.955  11.490
 7532W        W11583   0.272   8.540   0.032
 7533W        W11584   9.519   8.670   0.294
 7534W        W11585   6.455   5.895   9.106
 7535W        W11586   5.303   7.455   8.650
 7536W        W11587   4.232   6.213  10.268
 7537W        W11588   5.120   3.141   3.625
 7538W        W11589   8.290   3.721   1.388
 7539W        W11590   8.423   9.752   2.110
 7540W        W11591   6.188  10.865  11.820
 7541W        W11592   4.295   9.125   0.338
 7542W        W11593   1.254  11.421   1.806
 7543W        W11594   1.726   3.194   8.611
 7544W        W11595   3.758   9.296   1.922
 7545W        W11596   3.154   4.122  10.266
 7546W        W11597   2.645   9.003   9.051
 7547W        W11598   4.108  11.356   9.405
 7548W        W11599   6.387  10.077  11.408
 7549W        W11600   4.745   0.068   2.413
 7550W        W11601   1.289   7.032   2.927
 7551W        W11602   7.651   9.550   1.959
 7552W        W11603   7.378  10.754  10.398
 7553W        W11604  10.344   0.417   2.406
 7554W        W11605   0.016   4.675   2.637
 7555W        W11606   5.428   6.030  11.649
 7556W        W11607   7.384   1.653   9.612
 7557W        W11608   8.185   3.313   1.107
 7558W        W11609   6.161   1.311   1.654
 7559W        W11610   5.238   0.922   0.730
 7560W        W11611   2.560   7.027   9.444
 7561W        W11612   3.001   5.826   3.133
 7562W        W11613   2.653  10.686  10.436
 7563W        W11614   6.263   2.869   9.471
 7564W        W11615   0.468   6.174   0.278
 7565W        W11616   5.010   8.381   9.943
 7566W        W11617   5.765   9.561   0.250
 7567W        W11618   7.921   7.654  10.862
 7568W        W11619   2.623   4.231   8.875
 7569W        W11620   8.556  11.282   0.672
 7570W        W11621   3.153   5.889   0.396
 7571W        W11622   2.499  10.363   2.064
 7572W        W11623   9.993   4.176  11.525
 7573W        W11624   6.745   8.506   3.213
 7574W        W11625  11.288   1.724  10.314
 7575W        W11626   0.825  11.018   2.418
 7576W        W11627   6.982  10.940  10.129
 7577W        W11628   6.638   4.243  10.093
 7578W        W11629  10.234   4.593  10.403
 7579W        W11630   8.124   4.799   2.672
 7580W        W11631   1.298   7.549   2.698
 7581W        W11632   9.834   4.285  10.577
 7582W        W11633   2.833   3.668  10.945
 7583W        W11634   0.478   5.051   1.152
 7584W        W11635   9.031   6.863  10.444
 7585W        W11636   8.967   3.216   9.532
 7586W        W11637   9.307   4.105  11.997
 7587W        W11638  11.262   4.236  11.707
 7588W        W11639   5.034   3.818   9.570
 7589W        W11640   4.046   2.073   0.872
 7590W        W11641   8.980   7.865   0.349
 7591W        W11642   3.436   5.241  10.887
 7592W        W11643   7.435   3.256   0.403
 7593W        W11644   2.229   7.670   1.914
 7594W        W11645   3.888   1.736   0.407
 7595W        W11646   4.216   6.692  10.849
 7596W        W11647   3.602   6.602   1.739
 7597W        W11648  10.599   9.561   2.331
 7598W        W11649   9.610   6.431  11.662
 7599W        W11650   6.110   4.421   3.182
 7600W        W11651   9.428   7.017   2.791
 7601W        W11652   0.369  10.217   0.438
 7602W        W11653   2.306   7.966   0.285
 7603W        W11654   9.125   6.864   8.589
 7604W        W11655  10.769   1.977  10.988
 7605W        W11656   2.758   3.278  11.294
 7606W        W11657   6.007  10.441   3.183
 7607W        W11658   2.273   8.087   2.945
 7608W        W11659   1.272   1.803   2.791
 7609W        W11660   2.899   6.007   9.038
 7610W        W11661  10.970   3.536   0.442
 7611W        W11662   9.525   4.797   2.760
 7612W        W11663  10.902   4.240   8.459
 7613W        W11664   2.697  11.355  10.789
 7614W        W11665   4.714   8.412   9.531
 7615W        W11666   1.689   6.740  11.496
 7616W        W11667   9.774   5.671   3.381
 7617W        W11668   6.657   2.876   0.173
 7618W        W11669   7.395   4.557  11.990
 7619W        W11670  10.095   3.558  10.372
 7620W        W11671   6.100  10.881   1.432
 7621W        W11672   8.833   5.070   9.304
 7622W        W11673   9.975   0.727   2.214
 7623W        W11674  11.258   9.916  11.867
 7624W        W11675   7.697   3.220   2.482
 7625W        W11676   8.885   8.009   1.797
 7626W        W11677   8.234   8.600   9.070
 7627W        W11678   6.914  10.206   0.958
 7628W        W11679  10.303   4.124  11.919
 7629W        W11680   3.402   2.852  11.088
 7630W        W11681  10.992   9.969   9.016
 7631W        W11682   3.684  11.271   9.072
 7632W        W11683   8.517   5.073  11.399
 7633W        W11684   3.355   7.509   1.555
 7634W        W11685   5.044   8.706   2.444
 7635W        W11686   9.283   9.624   9.458
 7636W        W11687   2.493   9.109  10.887
 7637W        W11688   4.296   4.817  11.269
 7638W        W11689  11.352   7.220   3.631
 7639W        W11690   2.846   2.159   8.994
 7640W        W11691   0.291   0.333  11.260
 7641W        W11692  11.340   3.403   9.554
 7642W        W11693   5.580   2.354   8.728
 7643W        W11694  10.341   7.542  10.741
 7644W        W11695   1.305  10.920   1.787
 7645W        W11696   7.627   3.610   9.418
 7646W        W11697  10.977  10.559   3.448
 7647W        W11698   5.943   0.920   1.370
 7648W        W11699  11.316   9.855  10.393
 7649W        W11700   5.159   4.074   2.745
 7650W        W11701   6.580   0.681   0.915
 7651W        W11702   9.313   0.257  10.846
 7652W        W11703   6.102   1.869   1.294
 7653W        W11704   3.332   4.514   2.928
 7654W        W11705   7.597   7.620  11.349
 7655W        W11706  10.716  10.872   9.431
 7656W        W11707   4.361   9.085   9.765
 7657W        W11708   5.422   3.244  10.277
 7658W        W11709   4.371   1.815   1.234
 7659W        W11710  11.344   1.904   0.694
 7660W        W11711   1.304   8.825   3.343
 7661W        W11712   8.819   4.631   9.991
 7662W        W11713   0.505   7.924   0.232
 7663W        W11714   7.638   5.845   1.340
 7664W        W11715   5.155   7.593   2.747
 7665W        W11716   3.815   7.931  11.994
 7666W        W11717   3.164   4.982  10.527
 7667W        W11718   4.699   3.549   1.870
 7668W        W11719   0.096   3.606   3.575
 7669W        W11720   5.400   4.144   1.751
 7670W        W11721   5.697   7.637   0.430
 7671W        W11722   7.055  10.903   9.534
 7672W        W11723   1.632   8.494  11.915
 7673W        W11724  10.435   8.627   8.449
 7674W        W11725   8.349   5.047   9.503
 7675W        W11726   7.179   6.095  11.860
 7676W        W11727   6.151   4.444   2.225
 7677W        W11728   6.980   3.261  11.561
 7678W        W11729   0.454   0.292   9.595
 7679W        W11730   8.091   4.935   8.225
 7680W        W11731   3.188   7.646  11.554
 7681W        W11732   4.977   0.782  10.274
 7682W        W11733   1.822   5.617  10.339
 7683W        W11734   8.902   5.057   8.790
 7684W        W11735  11.373  11.007   2.800
 7685W        W11736   4.402   8.105   2.659
 7686W        W11737   1.404   3.811   0.680
 7687W        W11738   7.875  10.760  11.067
 7688W        W11739   5.532   5.170   3.108
 7689W        W11740   1.390   7.121   8.916
 7690W        W11741   9.863   6.076   9.381
 7691W        W11742   7.321   4.402   8.711
 7692W        W11743   5.598   3.105   8.416
 7693W        W11744   0.865   2.482   3.730
 7694W        W11745   5.002   1.502   3.465
 7695W        W11746   6.532   4.084   2.259
 7696W        W11747   8.334   2.941   0.790
 7697W        W11748   3.113   9.389   3.182
 7698W        W11749   8.637   4.883   3.014
 7699W        W11750   4.111   3.700   2.685
 7700W        W11751  11.065  10.513  10.309
 7701W        W11752   8.190   9.805  10.920
 7702W        W11753   2.437  10.420   0.365
 7703W        W11754   7.941   8.940   0.109
 7704W        W11755   4.092   3.705   9.698
 7705W        W11756   1.166   7.421  10.353
 7706W        W11757   2.671   0.523   1.207
 7707W        W11758   9.958   4.993  11.263
 7708W        W11759   6.116  11.335   9.978
 7709W        W11760   7.477   2.216   9.604
 7710W        W11761   7.193   0.675   1.741
 7711W        W11762  11.443  11.054  11.095
 7712W        W11763   5.657   0.016   2.794
 7713W        W11764   5.189   5.043   1.540
 7714W        W11765   6.073   2.654  11.989
 7715W        W11766   0.533   0.004  10.501
 7716W        W11767   3.122   0.771  10.541
 7717W        W11768   7.083  10.677   1.174
 7718W        W11769   4.327   4.029  11.634
 7719W        W11770  11.460   9.385   9.943
 7720W        W11771   0.229   8.378   0.590
 7721W        W11772   2.393   2.934   0.542
 7722W        W11773   4.775   2.414  10.534
 7723W        W11774   0.399   4.349   2.231
 7724W        W11775   7.048   8.008   2.592
 7725W        W11776   5.740  10.075   2.931
 7726W        W11777   6.523   1.617   9.413
 7727W        W11778   1.451  10.782   9.856
 7728W        W11779   1.231   2.168   2.406
 7729W        W11780   0.994   6.254   9.926
 7730W        W11781  10.921   3.835  11.438
 7731W        W11782   4.743   8.880   3.319
 7732W        W11783   6.429   2.303   3.631
 7733W        W11784  10.680   1.255   0.954
 7734W        W11785   6.433   3.130   0.826
 7735W        W11786   5.565   7.340   9.993
 7736W        W11787   4.200   8.657   0.053
 7737W        W11788   2.179  10.504  10.509
 7738W        W11789  10.499   3.146   1.178
 7739W        W11790   1.091   2.706  11.874
 7740W        W11791  10.262   5.546   3.469
 7741W        W11792   5.163   5.624  10.060
 7742W        W11793   9.864   3.127  10.083
 7743W        W11794   5.241   2.088   9.063
 7744W        W11795   0.119   0.944   9.111
 7745W        W11796  10.001   6.468   9.033
 7746W        W11797  11.368   6.644   9.357
 7747W        W11798   2.566   4.578   3.410
 7748W        W11799   9.909   0.677   1.249
 7749W        W11800   6.938   7.915   8.916
 7750W        W11801   2.660   3.810   3.516
 7751W        W11802   2.090   9.305   0.789
 7752W        W11803   0.180   4.346  10.293
 7753W        W11804   0.552  11.295   3.245
 7754W        W11805   0.744   2.594   3.230
 7755W        W11806   5.288   0.857   1.950
 7756W        W11807   7.999  10.512   3.073
 7757W        W11808   5.153   7.544   1.816
 7758W        W11809  10.402  10.869  10.063
 7759W        W11810   1.836   0.180   0.213
 7760W        W11811   5.021   7.393  11.810
 7761W        W11812  10.859   9.260   8.382
 7762W        W11813   1.282   4.794   1.717
 7763W        W11814   8.334   4.511   9.924
 7764W        W11815   1.840   5.345  11.937
 7765W        W11816  11.030   5.528   2.702
 7766W        W11817   8.567  11.323  10.706
 7767W        W11818   2.268   0.362   2.480
 7768W        W11819   9.870   8.463  10.817
 7769W        W11820   8.345   7.643   0.899
 7770W        W11821   5.522   9.201   1.853
 7771W        W11822  10.232   6.040   1.724
 7772W        W11823   9.783   8.888  10.354
 7773W        W11824   0.408   3.613  10.577
 7774W        W11825   0.340   6.564   0.578
 7775W        W11826   5.477   0.362   2.450
 7776W        W11827  10.838   7.285   9.891
 7777W        W11828   4.479   2.826   2.375
 7778W        W11829   2.252   6.557   0.652
 7779W        W11830   5.813   8.038  10.228
 7780W        W11831   1.967   3.200   1.463
 7781W        W11832   6.900   2.110   3.571
 7782W        W11833   3.109   1.787   1.747
 7783W        W11834   6.472   3.500   3.698
 7784W        W11835   1.710   8.428  10.967
 7785W        W11836   4.044   5.692  11.340
 7786W        W11837   2.143   1.352   2.433
 7787W        W11838   8.243   1.430   9.522
 7788W        W11839  11.094   9.000  10.049
 7789W        W11840  10.620  10.410  10.109
 7790W        W11841  11.004   3.788   9.349
 7791W        W11842  11.453   3.706   9.124
 7792W        W11843   2.796   7.352   0.765
 7793W        W11844   7.457   8.081   3.002
 7794W        W11845   3.282  11.125   3.120
 7795W        W11846   0.405   7.047   0.786
 7796W        W11847   0.890   0.318   0.825
 7797W        W11848   9.642  10.380   9.855
 7798W        W11849   8.635   3.540   2.645
 7799W        W11850   0.488   8.358  10.484
 7800W        W11851   5.602   9.141  11.216
 7801W        W11852   3.117   1.643  11.799
 7802W        W11853   9.688  10.086   0.417
 7803W        W11854   3.509   6.688  10.304
 7804W        W11855   6.913   4.094   8.909
 7805W        W11856   1.299   5.496   0.061
 7806W        W11857   5.849   0.283  11.574
 7807W        W11858   9.578  10.778   1.548
 7808W        W11859   5.243   2.745   9.461
 7809W        W11860   8.464   8.533  10.075
 7810W        W11861   7.728   4.905   3.614
 7811W        W11862   1.370   2.816   1.453
 7812W        W11863  10.622  11.051  11.404
 7813W        W11864  10.299  11.459   8.854
 7814W        W11865   8.021   7.390   9.542
 7815W        W11866  11.301   1.830   0.180
 7816W        W11867   8.023   5.506   1.263
 7817W        W11868   9.577   7.440   3.025
 7818W        W11869   5.502  11.170   0.808
 7819W        W11870   7.440   4.781  11.534
 7820W        W11871   7.658   2.857  11.324
 7821W        W11872   3.613   8.914   3.722
 7822W        W11873   4.762   2.910   9.584
 7823W        W11874   8.957   3.790   0.205
 7824W        W11875   0.848   4.775  11.968
 7825W        W11876   6.241   1.340   3.193
 7826W        W11877  10.547   2.302   0.770
 7827W        W11878  10.138  10.462   3.227
 7828W        W11879   0.697  11.299  10.035
 7829W        W11880   4.772   4.163   2.439
 7830W        W11881  10.315   9.334   0.477
 7831W        W11882   8.068   6.314   3.701
 7832W        W11883   6.759   9.132   2.886
 7833W        W11884   1.479  11.245   1.353
 7834W        W11885   5.327   5.164  10.678
 7835W        W11886  11.499   1.226   2.331
 7836W        W11887   8.509   7.684  10.278
 7837W        W11888   3.364   3.763  11.044
 7838W        W11889   0.655   5.418   8.594
 7839W        W11890   6.797   9.900   2.762
 7840W        W11891   0.627   8.079  10.896
 7841W        W11892   5.947   6.096   1.376
 7842W        W11893   8.583   4.095   8.741
 7843W        W11894   9.620   9.892   2.237
 7844W        W11895   8.646   5.487  10.048
 7845W        W11896   9.099   2.781  10.840
 7846W        W11897   8.064   5.321  10.776
 7847W        W11898  10.402   2.466   9.142
 7848W        W11899   2.696   1.927   9.794
 7849W        W11900   1.124   1.390  11.550
 7850W        W11901   3.617  10.733   9.015
 7851W        W11902   6.374   0.316   1.856
 7852W        W11903   7.091  10.404  10.856
 7853W        W11904   0.749   2.309  11.797
 7854W        W11905   7.951   6.909   0.433
 7855W        W11906   9.984   0.495   0.725
 7856W        W11907   7.036   6.998   3.174
 7857W        W11908   0.366   6.489  10.962
 7858W        W11909   4.082   6.692   8.985
 7859W        W11910   3.352   0.386   8.884
 7860W        W11911   8.171   5.599   3.196
 7861W        W11912   0.018   7.906   0.440
 7862W        W11913   2.316   3.333   9.984
 7863W        W11914   7.475   0.767   9.741
 7864W        W11915   9.152   1.218   1.679
 7865W        W11916  11.312   2.136  11.146
 7866W        W11917   5.659   6.528  11.026
 7867W        W11918   4.930   6.766  11.774
 7868W        W11919   5.640   9.028   1.402
 7869W        W11920   7.020   8.339  11.267
 7870W        W11921   0.586   4.076  10.387
 7871W        W11922   2.653   4.690   9.957
 7872W        W11923   8.630   1.179   3.599
 7873W        W11924   3.728   8.861  10.511
 7874W        W11925   9.002   0.279  10.013
 7875W        W11926   5.883   2.182   0.270
 7876W        W11927   2.471   6.559  10.480
 7877W        W11928   5.864   0.080  10.433
 7878W        W11929   0.331   9.886   9.641
 7879W        W11930   0.869   2.286   8.977
 7880W        W11931  11.434   3.620  10.893
 7881W        W11932   5.619   2.431   2.145
 7882W        W11933   5.959   3.137  10.788
 7883W        W11934   9.380  10.145  11.565
 7884W        W11935   9.902   8.249  11.302
 7885W        W11936   0.409   0.809   9.516
 7886W        W11937   4.673   9.046   2.293
 7887W        W11938   2.326   3.779  10.771
 7888W        W11939   7.756   1.029  10.512
 7889W        W11940  10.930  10.493  10.859
 7890W        W11941   0.186   9.968   1.763
 7891W        W11942   7.908   6.000   0.506
 7892W        W11943   3.075  10.491   9.045
 7893W        W11944  10.136   3.268   0.855
 7894W        W11945   3.332  10.994   9.381
 7895W        W11946   4.542   1.901   9.614
 7896W        W11947  10.976   5.886  10.770
 7897W        W11948   5.361   8.498   3.634
 7898W        W11949   0.532   2.718  11.065
 7899W        W11950   5.550   2.858   8.886
 7900W        W11951  10.242   0.825  11.599
 7901W        W11952  10.519   1.471   8.914
 7902W        W11953   8.189   5.085   1.884
 7903W        W11954   6.012   8.067  11.474
 7904W        W11955   7.594   9.395   9.992
 7905W        W11956   6.665   3.149   1.910
 7906W        W11957  10.682   3.587   3.501
 7907W        W11958   9.632   1.975  10.031
 7908W        W11959   8.900   0.009  11.023
 7909W        W11960   9.566   3.126   2.997
 7910W        W11961   4.156   9.563   8.534
 7911W        W11962   4.349   1.822   0.206
 7912W        W11963  10.432  11.081  10.536
 7913W        W11964   7.668   7.663   2.786
 7914W        W11965   6.366   6.133  11.447
 7915W        W11966   7.626   7.059   9.697
 7916W        W11967   3.588   6.612   1.225
 7917W        W11968  10.974   7.572   9.508
 7918W        W11969   8.627   2.747  11.522
 7919W        W11970   8.862  11.295   9.081
 7920W        W11971  10.290   4.591  11.356
 7921W        W11972   5.356   3.223   3.165
 7922W        W11973   8.913  11.382   1.715
 7923W        W11974   4.067   6.828   1.668
 7924W        W11975   9.809   6.163  11.264
 7925W        W11976   4.219   1.044   3.166
 7926W        W11977   4.062   9.095  11.833
 7927W        W11978   3.771   9.745   0.712
 7928W        W11979  10.993   2.373   9.725
 7929W        W11980   9.269   8.509   8.975
 7930W        W11981  10.039   7.137  11.537
 7931W        W11982   5.277   9.862  10.950
 7932W        W11983   2.649   4.920   0.217
 7933W        W11984   9.517  10.308  10.737
 7934W        W11985   6.572   7.196   4.053
 7935W        W11986   5.916   8.379  10.866
 7936W        W11987   1.315   4.227   3.189
 7937W        W11988   1.700   0.670   2.617
 7938W        W11989   8.656   1.222  10.299
 7939W        W11990   4.273   6.025   2.177
 7940W        W11991   3.294   9.573  10.589
 7941W        W11992  10.977   4.292   1.988
 7942W        W11993   9.002   0.819   3.503
 7943W        W11994   9.709   5.128   9.105
 7944W        W11995   6.686   1.791   1.934
 7945W        W11996   9.128   1.240   2.707
 7946W        W11997   2.795   8.081   0.385
 7947W        W11998   1.283   7.156   0.910
 7948W        W11999   4.949  10.727   8.516
 7949W        W12000  11.288   5.715   0.221
 7950W        W12001   1.260   2.227  11.710
 7951W        W12002   5.306   8.070   8.169
 7952W        W12003   5.797   9.068   2.821
 7953W        W12004   9.329   7.235  11.213
 7954W        W12005   3.529   4.628   9.501
 7955W        W12006  10.996   5.328   9.407
 7956W        W12007  11.361   6.826   8.872
 7957W        W12008   9.147  10.870  11.283
 7958W        W12009  10.582  10.932   0.852
 7959W        W12010  10.568   6.297   9.920
 7960W        W12011  10.424   8.850   0.558
 7961W        W12012   6.593   7.661   3.588
 7962W        W12013   5.048  10.965   1.001
 7963W        W12014   2.270   4.198   0.981
 7964W        W12015   8.120   3.281   2.134
 7965W        W12016  10.124   2.379  11.816
 7966W        W12017   9.096   1.247  10.565
 7967W        W12018   9.017   0.295   9.092
 7968W        W12019   4.683   7.487   2.503
 7969W        W12020   3.373  10.740   2.761
 7970W        W12021   7.561   1.916   1.457
 7971W        W12022   5.760  11.363  11.284
 7972W        W12023   5.634   2.287  10.245
 7973W        W12024   9.886   7.010  10.497
 7974W        W12025   5.938   3.277   9.414
 7975W        W12026   8.870   7.550   2.396
 7976W        W12027   9.407   7.163   1.328
 7977W        W12028   2.173   0.463   2.987
 7978W        W12029   2.854   1.560   1.330
 7979W        W12030   2.333   4.712   9.411
 7980W        W12031   9.175   8.293   9.411
 7981W        W12032   4.136   4.308   3.147
 7982W        W12033   9.542  11.312  10.750
 7983W        W12034   7.955   4.876   9.858
 7984W        W12035   1.285   6.494  10.764
 7985W        W12036   7.896   4.775   0.191
 7986W        W12037   2.028   7.095   1.364
 7987W        W12038   1.011   2.460  10.308
 7988W        W12039   0.832   0.883   2.704
 7989W        W12040   6.117   1.987   0.750
 7990W        W12041   2.715   6.105   2.301
 7991W        W12042  10.459   5.687   2.390
 7992W        W12043   9.933  10.431   0.726
 7993W        W12044   7.481   8.574  11.353
 7994W        W12045   4.459   2.506   1.950
 7995W        W12046  11.219  11.496   1.760
 7996W        W12047   9.563   0.985   9.094
 7997W        W12048   8.916   0.442   0.870
 7998W        W12049   1.384   6.134   1.453
 7999W        W12050   2.249   9.012   9.448
 8000W        W12051  10.495   8.111   0.963
 8001W        W12052   9.376  11.359   0.237
 8002W        W12053   6.615  10.450   1.989
 8003W        W12054   0.388   4.024  11.389
 8004W        W12055  10.290   5.453   7.922
 8005W        W12056  11.292   0.635   9.348
 8006W        W12057   1.810   7.193  11.278
 8007W        W12058   8.694   5.143   1.822
 8008W        W12059  10.037   5.516  10.151
 8009W        W12060   2.239   5.661   1.711
 8010W        W12061   4.111   4.573   4.065
 8011W        W12062   0.704   9.868   1.765
 8012W        W12063   9.334   6.711   1.564
 8013W        W12064   8.160   4.338  10.969
 8014W        W12065   6.015   5.386   3.112
 8015W        W12066   9.838   8.970   1.346
 8016W        W12067  10.153   0.801  11.071
 8017W        W12068   2.415   6.124   9.939
 8018W        W12069   6.088  10.323  11.751
 8019W        W12070   7.657   7.107  10.207
 8020W        W12071   9.397   0.857   3.077
 8021W        W12072   6.437   2.415   9.767
 8022W        W12073   7.641  10.371   2.202
 8023W        W12074   9.053   8.791   9.365
 8024W        W12075   8.626   3.358   0.847
 8025W        W12076   3.592   6.050  11.152
 8026W        W12077   7.040   2.762   3.271
 8027W        W12078   7.924   9.430   1.314
 8028W        W12079   0.314  10.025   2.715
 8029W        W12080   8.273  10.350   3.520
 8030W        W12081   1.821   1.169  10.853
 8031W        W12082   1.795   0.844  10.433
 8032W        W12083   5.139   4.452   8.724
 8033W        W12084   8.858  10.348   2.687
 8034W        W12085   0.881   6.233   3.421
 8035W        W12086   7.492   8.829  11.867
 8036W        W12087   5.987   2.049   3.706
 8037W        W12088   4.213  10.040   9.734
 8038W        W12089  11.336   0.764   0.471
 8039W        W12090   1.825   5.981   1.692
 8040W        W12091   6.407   2.884  10.788
 8041W        W12092   1.747   0.973   1.072
 8042W        W12093   0.334   7.206  10.293
 8043W        W12094   0.807   9.888   2.571
 8044W        W12095   8.410   5.527   0.287
 8045W        W12096   0.807   5.067   0.759
 8046W        W12097   6.421  10.342   2.889
 8047W        W12098   1.773   5.036   3.597
 8048W        W12099  11.086   2.628   3.556
 8049W        W12100   7.888   4.123  10.588
 8050W        W12101   9.399   5.323   8.618
 8051W        W12102   1.165   4.036   8.965
 8052W        W12103   9.439   5.589   2.344
 8053W        W12104   6.063  11.352  11.704
 8054W        W12105   0.862   6.863   0.929
 8055W        W12106   6.059   1.179  11.757
 8056W        W12107   8.179   1.425  10.434
 8057W        W12108   4.754   1.496   0.458
 8058W        W12109   3.694   2.182  10.590
 8059W        W12110   6.993   3.175   1.482
 8060W        W12111  11.034   2.288   3.122
 8061W        W12112   1.325   0.317  11.709
 8062W        W12113   0.879   4.258   0.150
 8063W        W12114   7.505   3.119   9.971
 8064W        W12115   9.857   7.181   9.456
 8065W        W12116  10.551   3.350  10.467
 8066W        W12117   0.830   7.506   0.295
 8067W        W12118   6.888   0.272   1.791
 8068W        W12119  11.077   8.092   2.209
 8069W        W12120   4.906   4.628   9.876
 8070W        W12121   4.316   1.286  11.496
 8071W        W12122  10.462   1.864  10.085
 8072W        W12123   1.189   7.051   3.466
 8073W        W12124   9.856   4.701  11.685
 8074W        W12125   3.129  10.510  11.632
 8075W        W12126   0.061   3.839  11.867
 8076W        W12127   3.815   6.606   3.879
 8077W        W12128   8.594   4.625   0.482
 8078W        W12129   1.902   1.767  11.469
 8079W        W12130   0.019  11.245   0.501
 8080W        W12131   1.226   3.245  10.847
 8081W        W12132   7.935   0.750  11.932
 8082W        W12133   9.592   7.679   9.465
 8083W        W12134   9.251   4.332   2.095
 8084W        W12135   6.104   1.288   9.491
 8085W        W12136   8.757   7.115   0.762
 8086W        W12137   4.943   1.221  11.020
 8087W        W12138   8.212   4.303   9.032
 8088W        W12139   8.890   0.332  10.548
 8089W        W12140   1.922  10.391  10.014
 8090W        W12141   5.497  10.530  11.200
 8091W        W12142   9.012   7.349   0.384
 8092W        W12143   8.287   9.538   0.525
 8093W        W12144   8.966   1.670  10.284
 8094W        W12145   0.394   5.094  11.249
 8095W        W12146   6.644  10.774   2.734
 8096W        W12147   5.986   5.481   0.230
 8097W        W12148   2.356   1.450   1.451
 8098W        W12149   0.775   2.763   0.298
 8099W        W12150   5.961   3.679   9.766
 8100W        W12151   3.600   5.071   2.741
 8101W        W12152   9.505   2.428   9.195
 8102W        W12153  11.380   7.113   2.653
 8103W        W12154   7.529   0.081  10.772
 8104W        W12155   0.263   1.780   2.813
 8105W        W12156   8.893   1.653   3.446
 8106W        W12157   7.037   1.172   1.672
 8107W        W12158   8.348   6.187   2.431
 8108W        W12159   6.957   8.581   0.069
 8109W        W12160  10.506  10.578  10.567
 8110W        W12161   9.130  10.352   9.889
 8111W        W12162   1.505   5.097   1.227
 8112W        W12163   6.855   5.929  10.881
 8113W        W12164   6.936   4.202  10.493
 8114W        W12165   1.836   2.670  10.413
 8115W        W12166   4.659   2.711  10.120
 8116W        W12167   6.482   9.991  10.481
 8117W        W12168   2.457   0.331   9.946
 8118W        W12169   3.740  10.311   3.417
 8119W        W12170   3.044   9.296   0.763
 8120W        W12171  11.106   0.744  10.436
 8121W        W12172   0.438   5.307   1.975
 8122W        W12173   3.593   5.749  10.303
 8123W        W12174   1.741   5.567   3.534
 8124W        W12175   5.211   2.122  10.558
 8125W        W12176   0.241   8.983  11.132
 8126W        W12177   8.120   7.369  10.431
 8127W        W12178   5.805  11.497   1.797
 8128W        W12179   5.939   0.787   9.836
 8129W        W12180   2.372   1.203  10.841
 8130W        W12181   1.721   3.863  11.873
 8131W        W12182   4.615   9.937   0.518
 8132W        W12183   9.410   3.329  10.253
 8133W        W12184   3.675   6.122   1.501
 8134W        W12185   2.914  11.055   0.580
 8135W        W12186   2.706   7.478  10.720
 8136W        W12187   6.042   1.815   3.248
 8137W        W12188   6.191   1.802   8.546
 8138W        W12189   2.025  10.463   2.316
 8139W        W12190   9.407   9.958   3.373
 8140W        W12191  10.453   9.882   9.083
 8141W        W12192   5.687   2.343  11.791
 8142W        W12193   6.815  10.364   0.218
 8143W        W12194   3.071   4.272   3.301
 8144W        W12195  10.012  11.005   1.783
 8145W        W12196   7.357   0.272   2.029
 8146W        W12197   7.792   6.219  11.041
 8147W        W12198   4.284   8.105  11.920
 8148W        W12199   6.411  11.268   9.543
 8149W        W12200   3.180   5.595   9.998
 8150W        W12201   5.375  10.288   9.251
 8151W        W12202   5.783   7.952   0.836
 8152W        W12203   0.624   6.633  10.042
 8153W        W12204   2.803   7.523   8.824
 8154W        W12205   2.123  10.464  11.569
 8155W        W12206   1.517   2.243   9.709
 8156W        W12207   1.460   3.846  10.196
 8157W        W12208   3.771   4.973   9.838
 8158W        W12209   7.984   3.555  11.976
 8159W        W12210   5.463  11.061   2.646
 8160W        W12211   7.919   6.735  11.019
 8161W        W12212   6.634  11.307   9.993
 8162W        W12213   8.395   6.218   1.919
 8163W        W12214  10.502   3.049   8.548
 8164W        W12215  10.816   5.794   9.568
 8165W        W12216  10.424   3.114   1.678
 8166W        W12217   7.777   3.165   0.806
 8167W        W12218   5.187   7.032   0.804
 8168W        W12219   0.455   9.845   9.147
 8169W        W12220   5.013   0.464   2.707
 8170W        W12221   1.810   1.861   3.549
 8171W        W12222   6.054   4.801  11.248
 8172W        W12223   3.732   9.320  10.741
 8173W        W12224   1.235   4.965  11.214
 8174W        W12225   9.828  11.204   2.271
 8175W        W12226   5.338  10.796   9.475
 8176W        W12227   9.883   9.949   0.892
 8177W        W12228   7.615  11.029   1.818
 8178W        W12229   3.784   0.860   2.225
 8179W        W12230   4.167   9.577   1.765
 8180W        W12231   4.093  10.492   8.823
 8181W        W12232   5.836  11.307   1.294
 8182W        W12233  10.112   0.835   1.707
 8183W        W12234   1.050   0.019   0.044
 8184W        W12235  11.482  10.424   0.723
 8185W        W12236   2.336   5.421  11.546
 8186W        W12237  10.387   9.952  10.110
 8187W        W12238   0.974  10.899  10.791
 8188W        W12239  10.494   8.614   9.608
 8189W        W12240   4.281   3.167   1.229
 8190W        W12241   9.069   6.051  10.891
 8191W        W12242   9.387   4.841   8.791
 8192W        W12243  10.966   7.776   9.978
 8193W        W12244   8.920   4.127   8.357
 8194W        W12245   1.321   6.614   1.648
 8195W        W12246   6.031   8.375   9.865
 8196W        W12247   9.119   4.643   9.591
 8197W        W12248   8.184   2.791   9.467
 8198W        W12249   7.705   2.988   1.295
 8199W        W12250   3.332   1.414   1.483
 8200W        W12251   6.997   9.187   9.566
 8201W        W12252   0.813   9.087   8.708
 8202W        W12253   6.162   8.726   0.365
 8203W        W12254   1.475  10.975  10.741
 8204W        W12255   1.794   3.745   2.105
 8205W        W12256   4.861   3.357   3.201
 8206W        W12257  11.455   9.330   2.281
 8207W        W12258   2.679  11.481   0.710
 8208W        W12259   1.434   8.071   0.577
 8209W        W12260   6.860   3.523   2.760
 8210W        W12261   5.641   2.229   0.722
 8211W        W12262   9.799   4.275   9.519
 8212W        W12263   3.313   6.272  11.542
 8213W        W12264   4.002   2.271  10.973
 8214W        W12265   9.368   3.628   0.483
 8215W        W12266   7.521   7.152  11.154
 8216W        W12267   2.032   9.575   2.556
 8217W        W12268   2.936   7.951   8.529
 8218W        W12269   6.671   5.299  11.555
 8219W        W12270  10.922   8.988  11.497
 8220W        W12271   2.686   3.714   2.544
 8221W        W12272   5.090   9.351   1.024
 8222W        W12273   4.570   6.405   8.277
 8223W        W12274  10.105   3.268  11.389
 8224W        W12275   7.919   2.659   0.831
 8225W        W12276   9.409   9.684  11.341
 8226W        W12277  10.471   1.910   0.253
 8227W        W12278   9.647   3.796  10.365
 8228W        W12279   8.433   3.206  11.363
 8229W        W12280  10.863   1.837   1.362
 8230W        W12281   2.526   6.149  11.923
 8231W        W12282   4.269   8.786   2.110
 8232W        W12283   0.381   4.542   1.224
 8233W        W12284   0.709   7.642  11.809
 8234W        W12285   4.535   0.271   2.839
 8235W        W12286   9.075   5.912   1.407
 8236W        W12287   0.431  10.385   3.228
 8237W        W12288   0.750   2.802   8.955
 8238W        W12289   9.129   0.757   8.876
 8239W        W12290   5.320   8.427   2.117
 8240W        W12291  10.319   2.697   1.945
 8241W        W12292  10.472  10.580   0.061
 8242W        W12293   4.992   6.707   8.633
 8243W        W12294   1.263   9.312  10.556
 8244W        W12295   2.642   6.054   2.808
 8245W        W12296   6.381   4.089   1.787
 8246W        W12297   1.640   0.365  10.432
 8247W        W12298   9.591   4.641   1.888
 8248W        W12299   5.711   0.444  10.129
 8249W        W12300   7.124  11.488   0.880
 8250W        W12301   1.460   6.547  10.270
 8251W        W12302   5.942   2.105   9.054
 8252W        W12303   9.029   2.945  11.799
 8253W        W12304   4.332   8.582   1.637
 8254W        W12305  10.392   0.965   0.478
 8255W        W12306   3.142   0.930   3.526
 8256W        W12307   4.385   3.598  11.943
 8257W        W12308   3.698   4.113  11.398
 8258W        W12309   0.182  10.343  11.905
 8259W        W12310   8.483  11.428  11.710
 8260W        W12311   6.531   4.826   1.451
 8261W        W12312   2.420   0.301  10.844
 8262W        W12313  10.561   6.587   3.500
 8263W        W12314   1.533   5.100   0.308
 8264W        W12315  10.990   7.988   1.249
 8265W        W12316   2.663   0.965   2.739
 8266W        W12317   6.607   1.074   2.915
 8267W        W12318   5.581   7.584  10.448
 8268W        W12319   8.382   5.718  10.538
 8269W        W12320   9.409   9.138   9.439
 8270W        W12321   5.206   4.181   9.948
 8271W        W12322   4.097   0.975   0.720
 8272W        W12323  10.612   5.122  10.408
 8273W        W12324  10.432  11.488   0.224
 8274W        W12325   8.989   0.812  10.305
 8275W        W12326   2.270   6.158   0.971
 8276W        W12327   1.831   4.102  11.434
 8277W        W12328   6.952   7.488   2.315
 8278W        W12329   1.050   7.517   9.848
 8279W        W12330   2.631   6.916  11.719
 8280W        W12331   3.096   6.284   2.893
 8281W        W12332  11.019  10.816   1.198
 8282W        W12333   9.829   3.649   9.011
 8283W        W12334   8.783   6.363  11.218
 8284W        W12335   6.045   4.137   1.423
 8285W        W12336   0.293   6.026   3.603
 8286W        W12337   5.008   2.174  11.041
 8287W        W12338  10.764   0.391  10.319
 8288W        W12339   8.331   5.770   8.893
 8289W        W12340   4.820   4.882  11.484
 8290W        W12341   4.677   7.500   1.386
 8291W        W12342   2.245   4.173  11.110
 8292W        W12343   7.261   5.107   0.289
 8293W        W12344   9.372   7.256   9.283
 8294W        W12345   6.858  10.059   8.609
 8295W        W12346   7.129   2.881  11.264
 8296W        W12347   1.872   0.050   1.464
 8297W        W12348   9.647  11.223   0.682
 8298W        W12349   4.399   7.017  11.334
 8299W        W12350   8.904   5.603   0.412
 8300W        W12351  11.229   6.218   0.988
 8301W        W12352   5.505   8.898  11.646
 8302W        W12353   7.458   5.281  11.449
 8303W        W12354   7.404   9.288  10.960
 8304W        W12355   1.006   9.042   0.919
 8305W        W12356   0.171   3.537   1.080
 8306W        W12357   8.116   5.190  11.988
 8307W        W12358  10.333   4.743   0.458
 8308W        W12359   5.929  11.442   0.802
 8309W        W12360   5.656   4.686   8.748
 8310W        W12361   5.507   3.851  11.856
 8311W        W12362   2.832   8.778  10.563
 8312W        W12363   5.188   4.591   2.717
 8313W        W12364  10.394   2.928   0.372
 8314W        W12365   3.830   5.372   2.104
 8315W        W12366  10.353  10.137  11.840
 8316W        W12367   3.347   3.888   0.520
 8317W        W12368   6.637   0.262   9.732
 8318W        W12369  10.910   8.099   9.552
 8319W        W12370   2.380  11.028   9.572
 8320W        W12371   6.487   8.508   0.723
 8321W        W12372   5.068   6.089  10.844
 8322W        W12373   8.261   4.867  10.987
 8323W        W12374   9.283   6.167   0.982
 8324W        W12375   7.558  10.774   8.700
 8325W        W12376   3.344   5.485   2.953
 8326W        W12377   9.887   1.217  10.032
 8327W        W12378   2.776   2.844   2.445
 8328W        W12379   4.400  10.362   1.497
 8329W        W12380   9.503   8.034   1.291
 8330W        W12381   3.920   6.582   0.761
 8331W        W12382   3.379   5.699   8.274
 8332W        W12383   6.938   6.132   0.759
 8333W        W12384   0.825   5.081   9.541
 8334W        W12385   9.773   6.193   1.879
 8335W        W12386   1.346   0.474   9.541
 8336W        W12387   5.084   8.156   0.492
 8337W        W12388  10.453   4.459   1.881
 8338W        W12389   9.474  11.465  10.255
 8339W        W12390   8.894  10.441   1.655
 8340W        W12391   1.925   6.629  10.504
 8341W        W12392   8.972   2.555   9.910
 8342W        W12393   8.527   9.855   9.325
 8343W        W12394  10.698   3.739  10.135
 8344W        W12395   3.271   0.546   3.228
 8345W        W12396   0.855   2.307   2.711
 8346W        W12397   9.248   8.428   3.583
 8347W        W12398   6.171   9.322  11.751
 8348W        W12399   1.099  11.416   2.283
 8349W        W12400   5.214   3.615   3.513
 8350W        W12401   0.233   9.084   2.623
 8351W        W12402   5.714   1.251   9.851
 8352W        W12403   1.719   4.569  10.079
 8353W        W12404   5.720   0.274   3.418
 8354W        W12405   4.547   2.728   9.147
 8355W        W12406   1.750   9.423  10.525
 8356W        W12407   7.679   6.462   3.382
 8357W        W12408   9.295   9.377   8.992
 8358W        W12409   5.073   4.581   1.737
 8359W        W12410   3.287   6.200   9.329
 8360W        W12411   7.823   4.608  11.243
 8361W        W12412   3.815   5.772   0.705
 8362W        W12413   1.272   5.903   3.491
 8363W        W12414   7.087   2.658  11.968
 8364W        W12415   1.782   7.382   3.984
 8365W        W12416   4.672   8.871  10.497
 8366W        W12417   9.078   1.674   1.941
 8367W        W12418   8.348   4.357   0.865
 8368W        W12419   2.672   0.228   1.704
 8369W        W12420  10.506   8.674   3.166
 8370W        W12421   1.419   7.122   2.435
 8371W        W12422   2.385   4.856   2.812
 8372W        W12423  10.450   5.803   9.963
 8373W        W12424   4.228   4.269   8.802
 8374W        W12425   1.993   4.621   1.035
 8375W        W12426   5.096   7.184   1.361
 8376W        W12427   2.357   1.842   2.208
 8377W        W12428   8.915   5.083  10.299
 8378W        W12429   4.095   5.297  10.097
 8379W        W12430   8.337   3.856   2.344
 8380W        W12431   9.369   9.332  10.930
 8381W        W12432   4.806   7.744   0.565
 8382W        W12433   1.332   4.605   1.232
 8383W        W12434   8.530   9.561  11.537
 8384W        W12435   2.272   1.481   3.434
 8385W        W12436   3.247   0.129   2.931
 8386W        W12437   7.499   8.490   9.341
 8387W        W12438   1.356   7.091  10.015
 8388W        W12439   8.538   0.315  11.395
 8389W        W12440   7.168  11.316   1.821
 8390W        W12441  11.427   4.811   9.100
 8391W        W12442   0.281   9.897  10.150
 8392W        W12443   5.072   1.674  10.762
 8393W        W12444   1.932   6.138   8.922
 8394W        W12445   7.170   0.021   9.079
 8395W        W12446   7.419   4.359  10.599
 8396W        W12447   2.779   3.265   9.235
 8397W        W12448   6.216   2.868   0.439
 8398W        W12449   8.491   0.169   0.976
 8399W        W12450   2.169   0.419  11.298
 8400W        W12451   3.297   3.843   9.621
 8401W        W12452   6.389   3.358  10.629
 8402W        W12453   0.344   9.525   1.976
 8403W        W12454   0.936   6.000   1.663
 8404W        W12455   1.340   0.975   9.576
 8405W        W12456   1.369   5.073  10.715
 8406W        W12457   7.507   0.271   9.644
 8407W        W12458   3.750   8.525   8.719
 8408W        W12459   4.193  10.946   0.743
 8409W        W12460   9.203   1.360   0.695
 8410W        W12461   2.354   5.271   2.494
 8411W        W12462   2.735   8.038   3.165
 8412W        W12463   6.147   3.455  11.147
 8413W        W12464   4.147   0.884   9.146
 8414W        W12465   5.983   7.229   3.181
 8415W        W12466  10.553   6.008  11.809
 8416W        W12467   3.356  11.392   8.699
 8417W        W12468   7.504   8.586   1.835
 8418W        W12469   1.223  10.457   0.502
 8419W        W12470   6.550   9.592  11.510
 8420W        W12471   9.104   2.463   0.693
 8421W        W12472   3.113   0.674  11.036
 8422W        W12473   8.592   0.714   8.995
 8423W        W12474   1.587   7.613   2.288
 8424W        W12475  11.471   6.520  10.558
 8425W        W12476   7.671   1.803   1.963
 8426W        W12477   7.174   1.206  11.776
 8427W        W12478   4.681   2.859   3.571
 8428W        W12479   6.791   0.376   8.962
 8429W        W12480   2.755   7.397   9.821
 8430W        W12481   0.362   4.994  10.740
 8431W        W12482  10.837  11.419  10.519
 8432W        W12483   1.282   3.283   3.123
 8433W        W12484  10.855   0.846   9.567
 8434W        W12485   8.436   2.453   9.060
 8435W        W12486   1.345   6.221   1.985
 8436W        W12487   7.779   6.124   8.820
 8437W        W12488   9.901   7.195   1.889
 8438W        W12489   9.534   3.881   8.583
 8439W        W12490   6.390   2.058   4.080
 8440W        W12491   2.903   8.415  11.897
 8441W        W12492   9.411   1.679   3.367
 8442W        W12493  10.842  10.085   0.927
 8443W        W12494   3.156   6.659   2.563
 8444W        W12495   4.825  10.311   1.826
 8445W        W12496   3.210  10.069   9.851
 8446W        W12497   6.007  10.990   1.958
 8447W        W12498   3.163   0.323   0.986
 8448ION    NA+12499   2.203   0.080   1.880
 8449ION    NA+12500   3.682   7.547   1.127
 8450ION    NA+12501   9.645   3.929  11.230
 8451ION    NA+12502   3.110   8.858   1.558
 8452ION    NA+12503   9.451   4.684  10.604
 8453ION    NA+12504   2.235   6.602   2.144
 8454ION    NA+12505   4.805   3.789  11.720
 8455ION    NA+12506   7.474   1.276   3.646
 8456ION    NA+12507   0.008   8.478  10.395
 8457ION    NA+12508   6.176   8.184   2.222
 8458ION    NA+12509   9.561   8.367  11.881
 8459ION    NA+12510   9.463   6.090   0.217
 8460ION    NA+12511   3.382   5.701   1.655
 8461ION    NA+12512   9.324   0.923  11.705
 8462ION    NA+12513   5.258   4.968   2.074
 8463ION    NA+12514  11.427   5.201  10.588
 8464ION    NA+12515   7.394   3.526   2.184
 8465ION    NA+12516   7.961  10.506   9.349
 8466ION    NA+12517   0.106   7.344   8.936
 8467ION    NA+12518   9.417   6.456   9.551
 8468ION    NA+12519   2.142   8.170   9.740
 8469ION    NA+12520   7.610   2.171   8.816
 8470ION    NA+12521   8.097   2.592   3.873
 8471ION    NA+12522   8.852  10.970   9.484
 8472ION    NA+12523   5.243   6.348  11.282
 8473ION    NA+12524   0.534   7.515   9.716
 8474ION    NA+12525   9.138  10.668   0.822
 8475ION    NA+12526   3.780   4.017  10.146
 8476ION    NA+12527   9.376   7.732  11.260
 8477ION    NA+12528   3.918   2.171   1.712
 8478ION    NA+12529   4.799   0.908   2.125
 8479ION    NA+12530   1.269   5.059  11.813
 8480ION    NA+12531   0.989  11.189   8.974
 8481ION    NA+12532   8.777   8.379  11.732
 8482ION    NA+12533   0.874   4.012   3.056
 8483ION    NA+12534   7.076   1.359   2.692
 8484ION    NA+12535   5.079   2.095  11.946
 8485ION    NA+12536   4.145   0.736  10.401
 8486ION    NA+12537  10.592   0.099   1.476
 8487ION    NA+12538   5.601   7.577   2.446
 8488ION    NA+12539  11.165   0.502   2.691
 8489ION    NA+12540   4.226   3.958   0.585
 8490ION    NA+12541   6.021   9.450   2.523
 8491ION    NA+12542   3.197   2.358   0.432
 8492ION    NA+12543   1.539   2.229   8.875
 8493ION    NA+12544   3.054   8.907  11.853
 8494ION    NA+12545   4.173   1.775   2.595
 8495ION    NA+12546   8.540   6.838   9.847
 8496ION    NA+12547   7.519   9.559   1.006
 8497ION    NA+12548   7.432   0.857   0.080
 8498ION    NA+12549   1.830   4.126   1.281
 8499ION    NA+12550   7.957   6.373  10.579
 8500ION    NA+12551   3.081   5.816   2.627
 8501ION    NA+12552   5.375   1.588   2.200
 8502ION    NA+12553   0.248   4.379  11.712
 8503ION    NA+12554   3.056   8.291   0.892
 8504ION    NA+12555   7.124   1.696   1.670
 8505ION    NA+12556   3.073  11.038   7.998
 8506ION    NA+12557   8.180   1.104   2.897
 8507ION    NA+12558   4.044   8.439   0.856
 8508ION    NA+12559   9.272   0.059   0.941
 8509ION    NA+12560   3.578   2.076   3.649
 8510ION    NA+12561   5.366  10.101  11.420
 8511ION    NA+12562   7.985   5.106   3.210
 8512ION    NA+12563  11.368   7.934  11.968
 8513ION    NA+12564   9.335   0.749   9.928
 8514ION    NA+12565  11.441  11.061  11.991
 8515ION    NA+12566  11.043   6.508  10.177
 8516ION    NA+12567   5.755   2.810   9.544
 8517ION    NA+12568   6.652   9.170   8.775
 8518ION    NA+12569   0.996   5.108   1.244
 8519ION    NA+12570   7.553   0.248  11.297
 8520ION    NA+12571   0.420   0.399   9.109
 8521ION    NA+12572   2.347   7.758   8.540
 8522ION    NA+12573   8.985   3.300   0.440
 8523ION    NA+12574   9.576   1.507   2.444
 8524ION    NA+12575  10.450   7.677   9.855
 8525ION    NA+12576  10.518   4.151   0.742
 8526ION    NA+12577   7.402   8.716   8.886
 8527ION    NA+12578   0.586   1.496  11.500
 8528ION    NA+12579   9.752  10.124  11.159
 8529ION    NA+12580  10.341  11.016   0.373
 8530ION    NA+12581   9.551   1.482   9.277
 8531ION    NA+12582   0.060   1.867  10.735
 8532ION    NA+12583   8.597   4.535   2.662
 8533ION    NA+12584   1.812  11.205   0.431
 8534ION    NA+12585   2.649   3.416  10.388
 8535ION    NA+12586   8.492   0.183   9.867
 8536ION    NA+12587   5.120   3.419   8.249
 8537ION    CL-12588   2.822   4.614   2.957
 8538ION    CL-12589   4.684   3.273   8.257
 8539ION    CL-12590   0.377   2.369   3.516
 8540ION    CL-12591   1.216  11.342  11.531
 8541ION    CL-12592  10.023   4.142   3.512
 8542ION    CL-12593  11.145  11.428  10.920
 8543ION    CL-12594   5.811  10.107  11.374
 8544ION    CL-12595   9.144   3.758  10.371
 8545ION    CL-12596   9.472  10.482  11.214
 8546ION    CL-12597   0.095   0.589  10.320
 8547ION    CL-12598   2.813   5.119  11.760
 8548ION    CL-12599   5.056   1.282   2.105
 8549ION    CL-12600   3.526  10.734   3.641
 8550ION    CL-12601  11.245   4.082   1.551
 8551ION    CL-12602   1.514   7.646  11.357
 8552ION    CL-12603   0.355   1.524  10.842
 8553ION    CL-12604   6.392   9.315   2.313
 8554ION    CL-12605   0.323  10.500  10.897
 8555ION    CL-12606   4.600   3.956  10.368
 8556ION    CL-12607   6.232   9.343  10.151
 8557ION    CL-12608   0.714   0.047   9.093
 8558ION    CL-12609   2.655   2.202  10.848
 8559ION    CL-12610   7.710   1.725   8.772
 8560ION    CL-12611   9.504   1.891   2.220
 8561ION    CL-12612   9.061   1.191  11.463
 8562ION    CL-12613   0.858   8.789  11.562
 8563ION    CL-12614   8.307   0.700   2.748
 8564ION    CL-12615   9.397  10.780   3.609
 8565ION    CL-12616  11.439   0.848   2.731
 8566ION    CL-12617   8.277   4.617  11.469
 8567ION    CL-12618   2.515   9.860   9.483
 8568ION    CL-12619   8.602   3.081   0.385
 8569ION    CL-12620   9.380   2.894   9.926
 8570ION    CL-12621   4.772   7.229   2.921
 8571ION    CL-12622   9.146   8.589  11.938
 8572ION    CL-12623   8.575   8.126  11.404
 8573ION    CL-12624   6.109   7.403   0.237
 8574ION    CL-12625  10.513   2.191   3.085
 8575ION    CL-12626  11.225   9.428   0.748
 8576ION    CL-12627   1.816   4.955   4.099
 8577ION    CL-12628   0.503   1.840  11.779
 8578ION    CL-12629   8.611  11.269   9.722
 8579ION    CL-12630   1.917  10.181   3.403
 8580ION    CL-12631   8.563   2.122  10.990
 8581ION    CL-12632  11.458   1.439   0.515
 8582ION    CL-12633   2.751  11.048   3.092
 8583ION    CL-12634   8.069   7.908  10.432
 8584ION    CL-12635  10.069   9.858  10.965
 8585ION    CL-12636   4.174   0.059   8.363
 8586ION    CL-12637   0.308   6.752   1.625
 8587ION    CL-12638   5.783   7.979   2.327
 8588ION    CL-12639   7.402   7.095   1.706
 8589ION    CL-12640   1.316   2.243   9.261
 8590ION    CL-12641   9.697   3.489  11.160
 8591ION    CL-12642   5.870  10.376  10.038
 8592ION    CL-12643   2.069  11.074   8.694
 8593ION    CL-12644   4.081   4.072   0.994
 8594ION    CL-12645   0.411  10.522   0.965
 8595ION    CL-12646   3.094   8.489   1.299
 8596ION    CL-12647   9.203  11.111   0.903
 8597ION    CL-12648  10.389   3.970   2.056
 8598ION    CL-12649  10.832   1.191  10.557
 8599ION    CL-12650   4.719   7.853   1.744
 8600ION    CL-12651   5.643   3.238  11.293
 8601ION    CL-12652  10.516   7.013   0.462
 8602ION    CL-12653   2.770   3.837  10.462
 8603ION    CL-12654   4.829   1.305   8.902
 8604ION    CL-12655  11.458   7.725   8.437
 8605ION    CL-12656   6.928   9.286  11.264
 8606ION    CL-12657   9.850   8.554   9.830
 8607ION    CL-12658   5.946   7.037   9.840
 8608ION    CL-12659   4.249   0.547  10.011
 8609ION    CL-12660   9.551   8.001  11.582
 8610ION    CL-12661   0.306   7.445   9.331
 8611ION    CL-12662   8.081   7.369   2.815
 8612ION    CL-12663   1.658   6.528   9.428
 8613ION    CL-12664   6.977   8.848   8.766
 8614ION    CL-12665   2.130  10.904   0.342
 8615ION    CL-12666   9.587   4.386   2.482
 8616ION    CL-12667   5.504   6.017  11.135
 8617ION    CL-12668   4.837   5.233  10.821
 8618ION    CL-12669   7.082   0.680   0.293
 8619ION    CL-12670   0.611   8.098   3.179
 8620ION    CL-12671  11.185   2.121  10.662
 8621ION    CL-12672   4.219   9.616   0.498
 8622ION    CL-12673   0.984  10.076   9.113
 8623ION    CL-12674   6.510   4.445  11.952
 8624ION    CL-12675   0.455   8.577   1.464
 8625ION    CL-12676   6.759   7.565  10.088
  11.50000  11.50000  12.00000
