Protein in INSANE! Membrane UpperLeaflet>POPC=1.0 LowerLeaflet>POPC=1.0
11125
    1AU     AUC    1   6.760   7.393   6.593 -0.0002 -0.0981  0.0423
    1AU     AUC    2   6.759   7.366   6.741  0.0705  0.0292  0.0691
    1AU     AUC    3   6.885   7.314   6.648  0.0363  0.0443 -0.0316
    1AU     AUC    4   6.586   7.452   6.523  0.0233  0.0384 -0.1295
    1AU     AUC    5   6.739   7.391   6.396 -0.0833 -0.0525 -0.0062
    1AU     AUC    6   6.623   7.284   6.500  0.0413 -0.0385  0.0174
    1AU     AUC    7   6.720   7.226   6.648  0.0032  0.0357  0.0692
    1AU     AUC    8   6.751   7.547   6.518 -0.0849  0.0026 -0.0112
    1AU     AUC    9   6.834   7.491   6.635 -0.0175 -0.1350 -0.0297
    1AU     AUC   10   6.858   7.435   6.488  0.0122 -0.0387 -0.0408
    1AU     AUC   11   6.799   7.251   6.475  0.0741 -0.0680 -0.1042
    1AU     AUC   12   6.693   7.493   6.704  0.0654  0.0584 -0.0649
    1AU     AUC   13   6.601   7.340   6.668 -0.0970 -0.0385  0.0003
    1AU     AUC   14   6.761   7.319   6.908  0.0641  0.0260  0.0776
    1AU     AUC   15   6.925   7.305   6.818  0.0625 -0.0368  0.0304
    1AU     AUC   16   7.011   7.259   6.675  0.0083  0.0024  0.0970
    1AU     AUC   17   6.470   7.515   6.481 -0.0126  0.0101 -0.0436
    1AU     AUC   18   6.554   7.513   6.340 -0.0186  0.0723  0.1188
    1AU     AUC   19   6.710   7.408   6.264 -0.0398  0.0432  0.0779
    1AU     AUC   20   6.519   7.206   6.441 -0.0023  0.0399  0.0122
    1AU     AUC   21   6.574   7.091   6.530  0.0590  0.0343  0.0150
    1AU     AUC   22   6.727   7.071   6.695  0.0191 -0.1371  0.0415
    1AU     AUC   23   6.737   7.688   6.469 -0.0560 -0.0251  0.0148
    1AU     AUC   24   6.845   7.692   6.609  0.0789 -0.0348 -0.0718
    1AU     AUC   25   6.967   7.582   6.721 -0.0502  0.0102  0.0206
    1AU     AUC   26   7.009   7.452   6.413 -0.0722 -0.0476 -0.0207
    1AU     AUC   27   6.998   7.286   6.396 -0.0435 -0.0422 -0.0448
    1AU     AUC   28   6.860   7.141   6.421  0.0721  0.0421 -0.0932
    1AU     AUC   29   6.622   7.610   6.792  0.1137 -0.0678 -0.0175
    1AU     AUC   30   6.510   7.466   6.799  0.0890 -0.0072  0.0327
    1AU     AUC   31   6.474   7.315   6.747 -0.0220 -0.0869 -0.0656
    1AU     AUC   32   7.047   7.360   6.524 -0.0432  0.1121  0.0562
    1AU     AUC   33   6.964   7.167   6.537 -0.0481  0.0226  0.0639
    1AU     AUC   34   6.710   7.486   6.883 -0.0313 -0.0491  0.0845
    1AU     AUC   35   6.557   7.310   6.868  0.0150  0.0363  0.0177
    1AU     AUC   36   6.862   7.454   6.287 -0.0236 -0.0752  0.0018
    1AU     AUC   37   6.763   7.307   6.257  0.0094 -0.0154 -0.0185
    1AU     AUC   38   6.510   7.600   6.633  0.0159  0.0480 -0.0769
    1AU     AUC   39   6.429   7.452   6.621 -0.0071  0.0207  0.0324
    1AU     AUC   40   6.744   7.204   6.878  0.0113 -0.0846  0.0520
    1AU     AUC   41   6.907   7.145   6.720  0.0310 -0.0089 -0.0657
    1AU     AUC   42   6.460   7.384   6.426  0.1160 -0.0296  0.0140
    1AU     AUC   43   6.560   7.269   6.302  0.0128  0.0114 -0.0364
    1AU     AUC   44   6.936   7.467   6.875 -0.0834  0.0327 -0.0572
    1AU     AUC   45   7.048   7.443   6.685  0.1242  0.1526  0.0010
    1AU     AUC   46   6.606   7.626   6.481  0.1094 -0.0752  0.0205
    1AU     AUC   47   6.734   7.631   6.344 -0.0865  0.0135 -0.0221
    1AU     AUC   48   6.673   7.118   6.332  0.0177  0.0572  0.0321
    1AU     AUC   49   6.781   7.065   6.554 -0.0005  0.0094  0.0475
    1AU     AUC   50   6.946   7.582   6.396  0.0571 -0.0611  0.0696
    1AU     AUC   51   7.014   7.554   6.581 -0.0075  0.0005 -0.0525
    1AU     AUC   52   6.432   7.236   6.623 -0.1012 -0.0018  0.0401
    1AU     AUC   53   6.559   7.155   6.731  0.0102  0.0370  0.0043
    1AU     AUC   54   6.643   7.702   6.638  0.0353  0.0046  0.0197
    1AU     AUC   55   6.820   7.622   6.802  0.0579 -0.0224  0.0612
    1AU    AUSL   56   7.352   7.237   6.556 -0.0396 -0.0587  0.0720
    1AU    AUSL   57   7.306   7.525   6.539  0.0438 -0.0733  0.0120
    1AU     AUL   58   7.394   7.319   6.273  0.0854  0.0264 -0.0186
    1AU       S   59   7.704   7.749   6.503 -0.0447 -0.0090 -0.1738
    1AU     LIG   60   8.200   7.772   6.654 -0.0304 -0.2963 -0.0334
    1AU     LIG   61   8.481   8.011   6.706 -0.1094 -0.0338 -0.4369
    1AU     LIG   62   8.666   8.295   6.952  0.1425 -0.0385  0.1182
    1AU     LIG   63   8.923   8.353   7.268 -0.1920 -0.1157  0.2855
    1AU       S   64   7.761   7.058   6.577 -0.5282 -0.0750 -0.1739
    1AU     LIG   65   8.065   6.727   6.668  0.1442  0.0208  0.2494
    1AU     LIG   66   8.370   6.506   6.489 -0.2053 -0.1269 -0.0798
    1AU     LIG   67   8.658   6.298   6.633  0.0160  0.1139  0.2917
    1AU     LIG   68   9.067   6.332   6.606 -0.2848 -0.4595 -0.0765
    1AU    AUSL   69   7.134   7.355   6.412  0.0996 -0.0201 -0.0269
    1AU    AUSL   70   6.932   7.205   6.226 -0.0526 -0.0146 -0.0559
    1AU     AUL   71   6.964   7.131   6.152 -0.0174 -0.0226  0.0791
    1AU       S   72   7.847   7.153   6.422  0.2669 -0.0752  0.0458
    1AU     LIG   73   8.113   7.427   6.222  0.0603 -0.2121 -0.3879
    1AU     LIG   74   8.659   7.579   6.421  0.3177 -0.0893 -0.0063
    1AU     LIG   75   8.898   7.948   6.469 -0.1675  0.1635  0.2483
    1AU     LIG   76   9.112   8.289   6.645 -0.0621 -0.5216  0.0881
    1AU       S   77   7.180   7.085   5.623  0.1612 -0.4550 -0.1675
    1AU     LIG   78   7.494   6.679   5.639  0.0840 -0.1331  0.4970
    1AU     LIG   79   7.702   6.306   5.888 -0.0637  0.2174 -0.3339
    1AU     LIG   80   7.447   6.055   6.170  0.1324 -0.3627 -0.4649
    1AU     LIG   81   7.184   5.793   5.893  0.1661 -0.0814  0.0254
    1AU    AUSL   82   7.199   7.100   6.366 -0.0510 -0.0078  0.0231
    1AU    AUSL   83   7.117   7.098   6.626  0.0227  0.0789  0.0716
    1AU     AUL   84   7.219   7.082   6.229 -0.0480 -0.0032 -0.0360
    1AU       S   85   7.608   6.818   6.130 -0.3272 -0.0398  0.0226
    1AU     LIG   86   7.969   6.647   6.144  0.0067  0.0366 -0.1225
    1AU     LIG   87   8.379   6.967   6.377 -0.0309 -0.1182  0.1402
    1AU     LIG   88   8.744   7.058   6.488  0.0156  0.1141  0.1998
    1AU     LIG   89   9.069   7.379   6.462 -0.6702  0.0762 -0.1374
    1AU       S   90   7.465   6.655   6.648  0.0167  0.0754 -0.4048
    1AU     LIG   91   7.796   6.471   6.918 -0.0133 -0.0544  0.1411
    1AU     LIG   92   8.140   6.204   6.912 -0.1828 -0.0357 -0.1937
    1AU     LIG   93   8.495   5.888   6.946 -0.3804 -0.0973  0.1815
    1AU     LIG   94   8.716   5.552   7.166  0.1767  0.0663  0.3585
    1AU    AUSL   95   6.539   7.293   7.177 -0.0461  0.0421  0.0379
    1AU    AUSL   96   6.385   7.104   7.005  0.0554 -0.0804 -0.0896
    1AU     AUL   97   6.722   7.076   7.202 -0.0902 -0.0628  0.0333
    1AU       S   98   6.393   7.253   7.569  0.3222 -0.0340  0.4043
    1AU     LIG   99   6.629   7.095   7.911  0.1519  0.1755  0.2321
    1AU     LIG  100   7.037   7.109   8.108 -0.1887  0.0706  0.0488
    1AU     LIG  101   7.342   7.477   8.278 -0.3398 -0.2758  0.1292
    1AU     LIG  102   7.546   7.777   8.546 -0.2377  0.0734  0.2055
    1AU       S  103   6.177   6.823   7.300 -0.3138 -0.3763 -0.6689
    1AU     LIG  104   5.794   6.654   7.310  0.0377  0.0053  0.1852
    1AU     LIG  105   5.365   6.458   7.197 -0.3054  0.1318  0.0108
    1AU     LIG  106   4.985   6.158   7.268  0.1111 -0.3275 -0.1893
    1AU     LIG  107   4.730   6.255   7.388 -0.3281 -0.3044 -0.0714
    1AU    AUSL  108   6.470   7.574   7.120  0.0348 -0.0502  0.0231
    1AU    AUSL  109   6.708   7.472   7.024  0.0176  0.0758 -0.0486
    1AU     AUL  110   6.796   7.415   7.203 -0.0938  0.1920  0.1132
    1AU       S  111   6.729   7.850   7.515 -0.2128  0.2567  0.0422
    1AU     LIG  112   6.304   8.011   7.627 -0.2361 -0.3725  0.1130
    1AU     LIG  113   5.798   8.015   7.486  0.0894 -0.1507 -0.2211
    1AU     LIG  114   5.461   8.284   7.562 -0.2699  0.0636  0.1148
    1AU     LIG  115   5.102   8.677   7.628  0.1768 -0.0137  0.2353
    1AU       S  116   6.235   7.549   7.492 -0.6203  0.3134  0.1872
    1AU     LIG  117   5.921   7.639   7.752 -0.3903  0.0257  0.1814
    1AU     LIG  118   5.714   7.495   8.097 -0.0547 -0.4488 -0.2151
    1AU     LIG  119   5.492   7.139   8.213 -0.0458 -0.0566 -0.0012
    1AU     LIG  120   5.223   6.898   8.420  0.1120  0.3921 -0.0676
    1AU    AUSL  121   6.473   7.347   6.908  0.0148 -0.0358 -0.0933
    1AU    AUSL  122   6.468   7.610   6.842 -0.0411  0.0414 -0.0593
    1AU     AUL  123   6.349   7.707   6.830 -0.0568  0.0625 -0.0640
    1AU       S  124   5.917   7.926   6.942  0.1700  0.0317  0.1767
    1AU     LIG  125   5.762   8.284   7.091  0.1357 -0.2504 -0.1144
    1AU     LIG  126   5.706   8.651   7.037 -0.3566 -0.1466 -0.2631
    1AU     LIG  127   5.959   8.924   7.217 -0.3252  0.0650  0.2133
    1AU     LIG  128   6.343   9.105   7.306  0.1836  0.1179 -0.0898
    1AU       S  129   6.101   7.282   7.428  0.2051 -0.5009  0.3061
    1AU     LIG  130   5.764   7.198   7.520 -0.0129  0.1571 -0.0956
    1AU     LIG  131   5.322   6.921   7.483 -0.0984 -0.3012 -0.0217
    1AU     LIG  132   4.962   6.653   7.492  0.0356  0.0238 -0.0029
    1AU     LIG  133   5.025   6.263   7.785 -0.1980 -0.1040 -0.1400
    1AU    AUSL  134   6.925   7.346   5.978 -0.0571 -0.0639 -0.0830
    1AU    AUSL  135   6.711   7.033   6.285 -0.0492  0.0146 -0.0340
    1AU     AUL  136   7.039   6.884   6.061 -0.0200  0.1013 -0.1109
    1AU       S  137   7.050   7.336   5.602 -0.2608  0.5595  0.0729
    1AU     LIG  138   6.911   7.065   5.243  0.1860  0.0117  0.0290
    1AU     LIG  139   6.930   7.215   4.836  0.1961  0.0567 -0.0206
    1AU     LIG  140   6.558   7.383   4.701  0.3176  0.4325  0.2115
    1AU     LIG  141   6.399   7.608   5.038 -0.0829 -0.3108  0.2451
    1AU       S  142   6.591   6.614   5.814 -0.3072 -0.3734 -0.1340
    1AU     LIG  143   6.406   6.646   5.410  0.0976  0.0503 -0.1310
    1AU     LIG  144   5.974   6.897   5.173 -0.5319 -0.0527 -0.0923
    1AU     LIG  145   5.487   7.106   5.091  0.1626 -0.0166  0.1393
    1AU     LIG  146   5.275   7.379   5.278 -0.3074  0.2422  0.3485
    1AU    AUSL  147   7.171   7.341   6.130  0.0316 -0.0259  0.0638
    1AU    AUSL  148   6.796   7.629   6.020 -0.0037  0.0273  0.0737
    1AU     AUL  149   7.046   7.758   6.164  0.0027  0.0968 -0.0608
    1AU       S  150   6.815   7.902   5.672  0.3033  0.1370  0.3511
    1AU     LIG  151   6.398   7.813   5.454  0.1579 -0.4826 -0.2826
    1AU     LIG  152   6.004   7.881   5.296  0.3349 -0.1040 -0.2356
    1AU     LIG  153   5.902   8.133   4.928  0.3201 -0.5121  0.0549
    1AU     LIG  154   5.781   8.528   4.752 -0.1270  0.0510 -0.0321
    1AU       S  155   7.362   7.360   5.723 -0.1580 -0.0490 -0.0485
    1AU     LIG  156   7.730   7.114   5.720 -0.0368  0.1872  0.2563
    1AU     LIG  157   8.186   7.096   5.858  0.0085 -0.1960 -0.0435
    1AU     LIG  158   8.583   7.216   6.019  0.1862  0.1636  0.0247
    1AU     LIG  159   8.972   7.166   6.018  0.1578  0.0010  0.2549
    1AU    AUSL  160   6.352   7.586   6.594  0.0817  0.0256 -0.0244
    1AU    AUSL  161   6.608   7.792   6.703 -0.0850  0.0140 -0.0719
    1AU     AUL  162   6.369   7.870   7.048 -0.0490 -0.0149 -0.1458
    1AU       S  163   5.822   7.877   6.660 -0.1568  0.0760 -0.1927
    1AU     LIG  164   5.401   8.231   6.713 -0.1167 -0.5335 -0.0351
    1AU     LIG  165   4.903   8.367   6.668 -0.0480 -0.0576 -0.2355
    1AU     LIG  166   4.466   8.321   6.423 -0.1725 -0.0728 -0.1761
    1AU     LIG  167   4.021   8.109   6.581  0.2052  0.1621 -0.1645
    1AU       S  168   6.294   8.317   6.753  0.0405  0.0267 -0.3230
    1AU     LIG  169   6.172   8.717   6.797  0.1642  0.1102 -0.0586
    1AU     LIG  170   6.266   9.149   6.774 -0.2357  0.0933 -0.2207
    1AU     LIG  171   6.501   9.291   6.462  0.0133  0.0368 -0.0589
    1AU     LIG  172   6.823   9.487   6.149 -0.1390 -0.5438 -0.0766
    1AU    AUSL  173   6.176   7.490   6.800 -0.1076 -0.0928  0.0375
    1AU    AUSL  174   6.115   7.461   6.526 -0.0370 -0.0048  0.0744
    1AU     AUL  175   6.239   7.480   6.963 -0.0125  0.0685  0.0404
    1AU       S  176   5.670   7.488   6.460 -0.1893  0.0413  0.1076
    1AU     LIG  177   5.248   7.718   6.669 -0.3315 -0.1916  0.0163
    1AU     LIG  178   4.865   7.811   6.812  0.1653 -0.3098  0.1431
    1AU     LIG  179   4.525   8.055   6.818  0.2561  0.3429  0.0463
    1AU     LIG  180   4.312   8.342   6.965  0.1205  0.1633  0.0504
    1AU       S  181   5.750   7.712   6.918  0.0369 -0.0109  0.0579
    1AU     LIG  182   5.373   7.910   7.104  0.0443 -0.0599 -0.3220
    1AU     LIG  183   5.041   8.204   7.139  0.0673  0.0235 -0.5278
    1AU     LIG  184   4.741   8.518   7.102  0.0027  0.3247  0.1854
    1AU     LIG  185   4.571   8.773   6.737  0.0769  0.2191 -0.1413
    1AU    AUSL  186   6.891   6.969   7.011 -0.1386  0.0959  0.0891
    1AU    AUSL  187   6.731   7.196   6.964 -0.0004 -0.0214 -0.0012
    1AU     AUL  188   6.723   6.773   6.742  0.0181  0.0949  0.0653
    1AU       S  189   6.422   6.759   7.425 -0.1284 -0.2472  0.1369
    1AU     LIG  190   6.118   6.352   7.541 -0.2481  0.4786  0.3390
    1AU     LIG  191   5.649   6.210   7.549 -0.1315 -0.1686 -0.0694
    1AU     LIG  192   5.502   5.884   7.263  0.4423  0.2087  0.0563
    1AU     LIG  193   5.641   5.589   7.006 -0.1017  0.1449  0.2014
    1AU       S  194   7.131   6.692   7.277  0.2908 -0.0350  0.2290
    1AU     LIG  195   7.289   6.322   7.156 -0.1123 -0.2190 -0.0318
    1AU     LIG  196   7.495   5.858   7.165  0.1777 -0.0827 -0.6346
    1AU     LIG  197   7.308   5.452   7.011 -0.4411 -0.1377  0.0931
    1AU     LIG  198   7.133   5.211   6.826  0.1480  0.3048 -0.2109
    1AU    AUSL  199   6.964   7.210   7.136 -0.0324 -0.0642 -0.0240
    1AU    AUSL  200   7.223   7.309   7.005  0.1203  0.0747  0.0348
    1AU     AUL  201   7.122   6.938   6.851  0.0125  0.0985 -0.0100
    1AU       S  202   7.245   7.032   7.459 -0.1421  0.3312  0.0549
    1AU     LIG  203   7.462   7.234   7.749  0.0056 -0.0035  0.1449
    1AU     LIG  204   7.716   7.633   7.885 -0.0570  0.3630 -0.0906
    1AU     LIG  205   7.764   8.016   8.121  0.5128  0.1259  0.2513
    1AU     LIG  206   8.030   7.960   8.404  0.2912 -0.0229  0.0993
    1AU       S  207   7.610   7.365   7.207 -0.2672  0.5113 -0.2745
    1AU     LIG  208   7.834   6.972   7.081  0.1896  0.2207  0.3012
    1AU     LIG  209   8.191   6.715   7.146  0.1858  0.1827 -0.1328
    1AU     LIG  210   8.548   6.425   7.118 -0.3949 -0.0914 -0.1659
    1AU     LIG  211   8.895   6.185   7.051 -0.0703 -0.3154  0.0544
    1AU    AUSL  212   7.015   7.193   6.862  0.0374  0.0148 -0.0360
    1AU    AUSL  213   6.879   6.999   6.736 -0.0233  0.0743 -0.0156
    1AU     AUL  214   6.963   6.848   6.631  0.0493  0.0307 -0.0424
    1AU       S  215   7.189   6.441   6.726  0.0205  0.3589 -0.2223
    1AU     LIG  216   7.309   6.067   6.715 -0.4751  0.2281 -0.0499
    1AU     LIG  217   7.664   5.966   6.704  0.0017  0.0806 -0.0513
    1AU     LIG  218   8.062   5.797   6.574 -0.0295 -0.1047 -0.1686
    1AU     LIG  219   8.288   5.426   6.797 -0.0802 -0.4985  0.1593
    1AU       S  220   7.405   6.914   7.264 -0.1441 -0.2330  0.0866
    1AU     LIG  221   7.677   6.576   7.383  0.1811 -0.2742  0.0711
    1AU     LIG  222   8.039   6.342   7.488  0.0433  0.2124 -0.0205
    1AU     LIG  223   8.512   6.429   7.755  0.1995 -0.2915  0.2428
    1AU     LIG  224   8.800   6.743   7.792  0.0828 -0.1182 -0.1585
    1AU    AUSL  225   6.252   7.191   6.221 -0.0276  0.0448 -0.0280
    1AU    AUSL  226   6.698   7.143   6.027 -0.0497  0.0027  0.0041
    1AU     AUL  227   6.394   7.379   5.928  0.0382  0.0206  0.0375
    1AU       S  228   6.652   6.929   5.694  0.2367 -0.0641  0.2427
    1AU     LIG  229   6.917   6.605   5.432 -0.2778 -0.0854 -0.0164
    1AU     LIG  230   6.934   6.283   5.250 -0.0539  0.1657  0.1902
    1AU     LIG  231   6.867   5.894   4.990  0.1238  0.1022  0.0828
    1AU     LIG  232   6.928   5.443   5.191  0.0442  0.7188  0.0794
    1AU       S  233   5.848   7.114   6.045  0.0725 -0.1971  0.3438
    1AU     LIG  234   5.435   7.186   6.167  0.1757 -0.0624  0.2927
    1AU     LIG  235   5.145   7.475   6.273 -0.0688  0.2213  0.2329
    1AU     LIG  236   4.781   7.409   6.516 -0.3485  0.0360  0.1434
    1AU     LIG  237   4.357   7.629   6.582 -0.1475 -0.2310 -0.0165
    1AU    AUSL  238   6.330   7.416   6.360  0.0644  0.0259 -0.0163
    1AU    AUSL  239   6.168   7.191   6.477 -0.0954  0.0404 -0.0490
    1AU     AUL  240   6.306   7.500   6.170  0.0778  0.0409 -0.1089
    1AU       S  241   5.838   7.578   6.006 -0.0926 -0.0526  0.3517
    1AU     LIG  242   5.511   7.892   6.219  0.2068 -0.0079 -0.0493
    1AU     LIG  243   5.658   8.249   6.172  0.2547 -0.1375  0.0390
    1AU     LIG  244   5.477   8.543   6.233  0.1702 -0.1277  0.1674
    1AU     LIG  245   5.147   8.905   6.455  0.2392  0.4381  0.1546
    1AU       S  246   5.740   7.053   6.568 -0.1379 -0.0225  0.5596
    1AU     LIG  247   5.244   7.188   6.641  0.2064 -0.1001  0.0256
    1AU     LIG  248   5.115   7.383   6.920 -0.1832  0.0954 -0.0901
    1AU     LIG  249   5.344   7.447   7.344 -0.0928  0.0634 -0.0717
    1AU     LIG  250   5.384   7.350   7.756  0.0167  0.0591 -0.1098
    1AU    AUSL  251   6.501   7.282   6.163 -0.1293 -0.0050 -0.0016
    1AU    AUSL  252   6.442   7.689   6.367 -0.0032 -0.1038 -0.0073
    1AU     AUL  253   6.480   7.634   5.984  0.1712 -0.0083  0.0493
    1AU       S  254   6.140   8.124   6.133  0.0628  0.1073  0.8160
    1AU     LIG  255   6.004   8.525   5.989  0.3050  0.2288  0.0813
    1AU     LIG  256   5.701   8.660   5.754  0.1279 -0.0895 -0.0112
    1AU     LIG  257   5.101   8.694   5.970  0.1633  0.0424 -0.3303
    1AU     LIG  258   4.709   8.709   6.247 -0.3055  0.1036  0.1381
    1AU       S  259   6.153   7.046   5.664 -0.0600  0.0973 -0.3023
    1AU     LIG  260   5.665   6.958   5.558 -0.1008 -0.5366 -0.0922
    1AU     LIG  261   5.375   6.904   5.789  0.1029  0.0829 -0.1378
    1AU     LIG  262   5.202   6.723   6.136  0.0142  0.0625  0.1217
    1AU     LIG  263   5.393   6.318   6.340  0.0634 -0.1504 -0.2625
    1AU    AUSL  264   7.293   7.546   6.876 -0.0175  0.0921 -0.0571
    1AU    AUSL  265   7.167   7.358   6.707  0.0146  0.0539  0.0479
    1AU     AUL  266   7.315   7.141   6.816  0.0082  0.1488  0.0148
    1AU       S  267   7.637   7.689   7.236 -0.3219  0.4509 -0.1072
    1AU     LIG  268   8.048   7.620   7.155  0.0944  0.0155 -0.0941
    1AU     LIG  269   8.476   7.657   7.093  0.1185 -0.0199 -0.4465
    1AU     LIG  270   8.799   7.824   7.128 -0.0692 -0.0913  0.6742
    1AU     LIG  271   9.243   7.685   7.124  0.4291 -0.0697 -0.0592
    1AU       S  272   7.777   7.539   6.746 -0.3014  0.1083 -0.2207
    1AU     LIG  273   8.219   7.225   6.801 -0.1643  0.1038  0.3056
    1AU     LIG  274   8.526   6.904   6.863  0.1682  0.2030 -0.0253
    1AU     LIG  275   8.854   6.682   6.851 -0.1363 -0.0308  0.0679
    1AU     LIG  276   9.022   6.672   7.306 -0.3154  0.0757  0.3353
    1AU    AUSL  277   6.998   7.467   6.963 -0.0300  0.1038 -0.0364
    1AU    AUSL  278   7.113   7.744   6.948  0.0472  0.0267  0.0728
    1AU     AUL  279   7.084   7.472   7.190 -0.0327  0.0557 -0.0169
    1AU       S  280   7.484   7.639   7.399 -0.1585 -0.2146 -0.1636
    1AU     LIG  281   7.927   7.306   7.537  0.0373 -0.0512  0.2844
    1AU     LIG  282   8.305   7.188   7.328 -0.4929  0.0191  0.0746
    1AU     LIG  283   8.791   7.301   7.213  0.3142 -0.0163 -0.1933
    1AU     LIG  284   8.989   7.262   6.938 -0.2334 -0.1333  0.1146
    1AU       S  285   7.145   8.039   7.388  0.3623 -0.3152 -0.0082
    1AU     LIG  286   7.245   8.476   7.360  0.3384 -0.4523 -0.0003
    1AU     LIG  287   7.239   8.847   7.548 -0.2937  0.1170  0.1858
    1AU     LIG  288   6.941   9.176   7.598 -0.1579  0.3836 -0.0640
    1AU     LIG  289   6.625   9.426   7.551  0.0809 -0.0324 -0.2854
    1AU    AUSL  290   6.582   7.817   6.172  0.0250 -0.0153  0.0133
    1AU    AUSL  291   6.371   7.866   6.573  0.0170  0.0617 -0.0211
    1AU     AUL  292   6.215   7.688   6.371 -0.0498 -0.0210  0.0554
    1AU       S  293   6.201   8.238   6.607 -0.2355 -0.4422  0.0757
    1AU     LIG  294   5.874   8.502   6.560  0.1519 -0.0346  0.2902
    1AU     LIG  295   5.691   8.867   6.606  0.0695 -0.1066 -0.0435
    1AU     LIG  296   5.344   8.956   6.909 -0.2463 -0.2875  0.2417
    1AU     LIG  297   4.909   9.096   7.037  0.1885  0.3523  0.0212
    1AU       S  298   6.414   8.131   5.973  0.0273 -0.1153  0.1731
    1AU     LIG  299   6.564   8.593   5.917  0.0964  0.0442 -0.0942
    1AU     LIG  300   6.242   8.904   5.782  0.0350  0.1841  0.0613
    1AU     LIG  301   5.849   9.112   5.650  0.0697  0.0745  0.0665
    1AU     LIG  302   5.449   9.067   5.882 -0.2864  0.3820 -0.0918
    1AU    AUSL  303   6.598   7.539   6.211 -0.0076 -0.0215  0.0788
    1AU    AUSL  304   6.801   7.712   6.294 -0.0064 -0.0218 -0.0310
    1AU     AUL  305   6.666   7.431   5.985 -0.0365  0.0527  0.0322
    1AU       S  306   6.937   8.132   5.879 -0.2218 -0.1448 -0.2028
    1AU     LIG  307   7.228   8.495   6.017 -0.2821 -0.4585 -0.1916
    1AU     LIG  308   7.394   8.705   6.336  0.1567  0.1130 -0.2222
    1AU     LIG  309   7.822   8.804   6.388  0.4076 -0.6303 -0.1905
    1AU     LIG  310   8.260   8.804   6.520  0.1406  0.0247 -0.3096
    1AU       S  311   6.211   8.010   5.871 -0.3129  0.1747  0.4221
    1AU     LIG  312   5.747   8.076   5.699  0.1352 -0.0602 -0.0595
    1AU     LIG  313   5.597   8.212   5.279  0.1392  0.1906  0.2539
    1AU     LIG  314   5.480   8.565   5.324  0.2148  0.1203 -0.0229
    1AU     LIG  315   5.121   8.762   5.496 -0.2603 -0.0580 -0.0436
    1AU    AUSL  316   6.798   6.765   6.428 -0.0363  0.0665 -0.0501
    1AU    AUSL  317   6.460   7.013   6.179 -0.0506  0.0448  0.0506
    1AU     AUL  318   6.784   6.908   6.170  0.0416 -0.0211 -0.0746
    1AU       S  319   6.278   6.642   5.920 -0.3222  0.0997  0.2230
    1AU     LIG  320   6.010   6.448   5.664  0.1634  0.2644  0.0738
    1AU     LIG  321   6.050   6.080   5.773  0.1695  0.3652 -0.0861
    1AU     LIG  322   6.295   5.709   5.921  0.2082 -0.1567  0.3164
    1AU     LIG  323   6.545   5.371   5.754 -0.1561  0.5319 -0.1268
    1AU       S  324   6.728   6.359   6.347  0.0717  0.3755 -0.1287
    1AU     LIG  325   6.944   5.968   6.393  0.1704 -0.0318  0.0544
    1AU     LIG  326   7.217   5.650   6.494 -0.0272 -0.0214  0.3082
    1AU     LIG  327   7.648   5.515   6.524  0.2296  0.2895  0.5798
    1AU     LIG  328   8.002   5.157   6.480  0.1646 -0.3962  0.0538
    1AU    AUSL  329   6.530   6.819   6.372  0.0328 -0.0492  0.0009
    1AU    AUSL  330   6.448   6.842   6.642 -0.0086  0.0179  0.0175
    1AU     AUL  331   6.231   6.935   6.352 -0.0944  0.0299  0.0478
    1AU       S  332   6.431   6.397   6.292 -0.2711 -0.4276 -0.5238
    1AU     LIG  333   6.065   6.092   6.380  0.1127  0.0037  0.1151
    1AU     LIG  334   5.677   6.100   6.663  0.4380  0.1160  0.0786
    1AU     LIG  335   5.319   5.942   6.709  0.2763  0.3185 -0.0479
    1AU     LIG  336   4.908   5.927   6.594 -0.1637 -0.1088 -0.1129
    1AU       S  337   6.193   6.450   6.776 -0.0599 -0.2584 -0.0665
    1AU     LIG  338   6.289   6.018   6.823  0.5922  0.0402 -0.2821
    1AU     LIG  339   6.263   5.631   6.737 -0.2789 -0.4172  0.2646
    1AU     LIG  340   6.079   5.172   6.871 -0.0514 -0.0335  0.3866
    1AU     LIG  341   5.812   4.977   7.112 -0.0420 -0.0453  0.2089
    1AU    AUSL  342   6.679   6.967   6.553  0.0001  0.0025 -0.0369
    1AU    AUSL  343   6.930   7.023   6.436  0.0400 -0.0015 -0.0585
    1AU     AUL  344   6.997   6.904   6.353  0.0490 -0.0715  0.0487
    1AU       S  345   7.304   6.504   6.455 -0.3155 -0.2966  0.3721
    1AU     LIG  346   7.743   6.372   6.425  0.0061 -0.2056  0.2528
    1AU     LIG  347   8.039   6.179   6.229  0.0069 -0.0937 -0.2650
    1AU     LIG  348   7.856   5.789   6.110 -0.1574 -0.3159  0.0113
    1AU     LIG  349   7.959   5.426   6.043  0.4347 -0.1099 -0.2238
    1AU       S  350   6.657   6.306   6.607  0.0685  0.3169 -0.3035
    1AU     LIG  351   6.503   5.850   6.373  0.1408  0.0484 -0.2246
    1AU     LIG  352   6.794   5.578   6.133 -0.0323 -0.1387  0.2507
    1AU     LIG  353   7.050   5.163   6.247 -0.0725  0.2777 -0.0973
    1AU     LIG  354   6.946   4.751   6.536  0.0377 -0.0984  0.4368
    1AU    AUSL  355   7.039   7.645   6.426 -0.1458 -0.0713  0.1783
    1AU    AUSL  356   7.098   7.623   6.703 -0.0799 -0.0221 -0.0894
    1AU     AUL  357   7.245   7.584   6.287  0.0205  0.0344  0.0256
    1AU       S  358   7.392   8.213   6.415  0.2304  0.0037 -0.2227
    1AU     LIG  359   7.796   8.221   6.470 -0.5010  0.1324  0.1781
    1AU     LIG  360   8.126   8.388   6.703 -0.1912  0.2951  0.1836
    1AU     LIG  361   8.147   8.642   7.088  0.0018  0.3476  0.1581
    1AU     LIG  362   8.061   8.547   7.530  0.0719 -0.2285 -0.0494
    1AU       S  363   7.626   7.856   6.751  0.1049 -0.2739 -0.1438
    1AU     LIG  364   7.743   8.196   7.025 -0.3263  0.5545  0.4481
    1AU     LIG  365   8.136   8.094   7.119  0.2451  0.2792  0.0824
    1AU     LIG  366   8.466   8.127   7.354 -0.0051  0.3312  0.3394
    1AU     LIG  367   8.632   7.897   7.662 -0.2072 -0.3350  0.1287
    1AU    AUSL  368   6.871   7.818   6.553  0.0289 -0.0248 -0.0277
    1AU    AUSL  369   6.967   7.496   6.210  0.1084 -0.0445  0.0810
    1AU     AUL  370   7.156   7.784   6.470  0.0575  0.1050  0.0322
    1AU       S  371   7.116   8.357   6.487 -0.0595  0.1328  0.3883
    1AU     LIG  372   6.900   8.755   6.479  0.2740 -0.5075 -0.0020
    1AU     LIG  373   7.037   9.037   6.183  0.1083 -0.1776  0.1679
    1AU     LIG  374   7.064   8.908   5.731 -0.0407 -0.0568  0.0148
    1AU     LIG  375   7.027   8.702   5.313 -0.2417 -0.0527  0.5767
    1AU       S  376   7.158   7.836   5.697 -0.2383 -0.4222  0.2469
    1AU     LIG  377   7.517   8.091   5.880 -0.3747  0.2739 -0.1972
    1AU     LIG  378   7.920   7.925   6.031  0.1327 -0.0910 -0.1570
    1AU     LIG  379   8.282   8.099   6.241 -0.1394 -0.1423 -0.0314
    1AU     LIG  380   8.595   8.389   6.402 -0.1115 -0.0145 -0.2521
    1AU    AUSL  381   7.088   7.899   6.713 -0.0771 -0.0083  0.0050
    1AU    AUSL  382   6.750   8.051   6.617 -0.0303  0.0591  0.0384
    1AU     AUL  383   6.932   7.924   6.392  0.0399 -0.1073 -0.0455
    1AU       S  384   6.756   8.432   6.878  0.1084  0.1089 -0.3150
    1AU     LIG  385   6.648   8.851   6.929 -0.2465 -0.0500 -0.0350
    1AU     LIG  386   6.796   9.132   6.999 -0.0518  0.2892 -0.0295
    1AU     LIG  387   6.591   9.499   7.071 -0.0862  0.1332  0.2519
    1AU     LIG  388   6.474   9.800   6.792  0.0287  0.3343  0.1619
    1AU       S  389   7.252   8.270   6.772  0.1244 -0.2345  0.4063
    1AU     LIG  390   7.571   8.645   6.792  0.1506  0.0920  0.4372
    1AU     LIG  391   7.714   9.052   6.845  0.2180 -0.0362  0.2304
    1AU     LIG  392   7.553   9.447   6.748  0.1027  0.4881 -0.1328
    1AU     LIG  393   7.812   9.743   6.582 -0.1092  0.2467  0.4343
    1AU    AUSL  394   6.295   7.049   6.727  0.0155  0.0198  0.0084
    1AU    AUSL  395   6.566   7.044   6.798 -0.0686 -0.0886 -0.0195
    1AU     AUL  396   6.634   6.937   6.944  0.0779 -0.0104  0.0738
    1AU       S  397   5.956   6.705   6.799  0.4436 -0.1978  0.1255
    1AU     LIG  398   5.546   6.646   6.706 -0.3207 -0.0267 -0.1093
    1AU     LIG  399   5.126   6.415   6.793 -0.0433  0.0516  0.1406
    1AU     LIG  400   4.737   6.561   6.953  0.2550  0.4713 -0.0482
    1AU     LIG  401   4.555   6.749   7.223  0.2378  0.2270 -0.2203
    1AU       S  402   6.358   6.620   7.169 -0.1748 -0.0344 -0.4623
    1AU     LIG  403   6.672   6.340   7.103 -0.1127 -0.0333 -0.3233
    1AU     LIG  404   6.950   5.891   6.959  0.2055  0.0060 -0.2409
    1AU     LIG  405   6.791   5.525   6.664  0.2478  0.2125  0.0295
    1AU     LIG  406   6.528   5.071   6.687 -0.2993 -0.3487 -0.0304
    1AU    AUSL  407   6.425   7.075   6.484 -0.0157 -0.0400 -0.0836
    1AU    AUSL  408   6.329   7.309   6.654 -0.0066 -0.0108 -0.0016
    1AU     AUL  409   6.202   7.218   6.837 -0.0345 -0.0344  0.1213
    1AU       S  410   5.985   6.591   6.601 -0.1983 -0.4391 -0.2686
    1AU     LIG  411   5.745   6.670   6.167  0.1282 -0.0360 -0.2750
    1AU     LIG  412   5.582   6.437   5.952  0.2234  0.3115  0.0112
    1AU     LIG  413   5.671   5.959   6.047  0.0943 -0.1808 -0.1867
    1AU     LIG  414   5.869   5.641   6.245 -0.0527  0.2552 -0.1506
    1AU       S  415   5.709   7.280   6.718  0.2806  0.0360  0.0035
    1AU     LIG  416   5.513   7.099   7.061 -0.0906 -0.0368  0.0067
    1AU     LIG  417   5.059   6.907   7.031  0.1068 -0.0234 -0.2668
    1AU     LIG  418   4.534   7.116   6.850  0.2035 -0.1525 -0.0042
    1AU     LIG  419   4.151   7.071   7.160  0.2770  0.0888 -0.1940
    1AU    AUSL  420   6.641   7.756   7.001  0.0080 -0.0434  0.0243
    1AU    AUSL  421   6.623   7.891   6.437 -0.0212  0.0369  0.0462
    1AU     AUL  422   6.528   7.901   6.830  0.0241  0.0979  0.0447
    1AU       S  423   6.442   8.397   6.461 -0.0127 -0.0020  0.3017
    1AU     LIG  424   6.320   8.749   6.311 -0.0457  0.2961 -0.0396
    1AU     LIG  425   5.921   8.973   6.135  0.1886 -0.5137 -0.5195
    1AU     LIG  426   5.905   9.453   6.212 -0.1790  0.1108  0.1301
    1AU     LIG  427   5.985   9.600   6.568 -0.3811 -0.0156  0.3639
    1AU       S  428   6.671   8.293   7.160  0.0876 -0.2501 -0.2790
    1AU     LIG  429   6.771   8.665   7.422 -0.0364  0.0130 -0.0691
    1AU     LIG  430   6.682   8.810   7.731 -0.3525 -0.2858 -0.2618
    1AU     LIG  431   6.624   9.113   8.050  0.0513  0.2317  0.1244
    1AU     LIG  432   6.830   9.358   8.304  0.0270  0.3826  0.2369
    1AU    AUSL  433   6.860   7.732   6.822  0.0009  0.1067  0.0619
    1AU    AUSL  434   6.882   7.671   7.092 -0.0560  0.1069 -0.0578
    1AU     AUL  435   6.821   7.900   6.833  0.1019  0.0867 -0.1185
    1AU       S  436   6.893   8.311   7.116 -0.2174 -0.0439  0.0263
    1AU     LIG  437   7.125   8.711   6.959 -0.0002 -0.0572  0.0373
    1AU     LIG  438   7.197   9.078   6.647 -0.0951  0.0404 -0.4184
    1AU     LIG  439   7.272   9.474   6.399  0.1524 -0.0486  0.4312
    1AU     LIG  440   7.406   9.818   6.210 -0.1580 -0.3770  0.3332
    1AU       S  441   6.949   7.867   7.464  0.0114  0.1815 -0.1281
    1AU     LIG  442   6.878   8.254   7.711 -0.5333 -0.1586 -0.1839
    1AU     LIG  443   7.045   8.549   7.885 -0.0616 -0.1069 -0.3946
    1AU     LIG  444   7.114   8.949   8.028  0.0962 -0.0101  0.4884
    1AU     LIG  445   7.451   9.170   7.809  0.1226  0.3143 -0.1183
    2POPC   NC3  446   8.386   8.341   9.718  0.1170  0.3774 -0.0303
    2POPC   PO4  447   8.623   8.430   9.453 -0.0638 -0.1164  0.3277
    2POPC   GL1  448   8.461   8.347   9.060  0.0629  0.0344 -0.0629
    2POPC   GL2  449   8.636   8.493   8.830 -0.0516 -0.1413 -0.0322
    2POPC   C1A  450   8.208   8.051   8.884 -0.0941 -0.1656 -0.1376
    2POPC   D2A  451   7.808   8.060   8.817 -0.0105  0.2739 -0.0760
    2POPC   C3A  452   7.470   7.928   9.080 -0.1900 -0.2469  0.2214
    2POPC   C4A  453   7.095   7.975   9.267 -0.3657 -0.0749 -0.0363
    2POPC   C1B  454   8.941   8.276   8.473 -0.1889  0.0546 -0.0476
    2POPC   C2B  455   9.243   8.401   8.113  0.1847 -0.3323  0.5913
    2POPC   C3B  456   9.358   8.510   7.719  0.2420  0.0099  0.1466
    2POPC   C4B  457   9.609   8.563   7.395 -0.0162  0.4358  0.1451
    3POPC   NC3  458   4.561   9.730   8.993  0.1432 -0.2533 -0.1953
    3POPC   PO4  459   4.159   9.875   8.862  0.1502  0.0220 -0.1447
    3POPC   GL1  460   4.010   9.815   8.494 -0.1529  0.0347 -0.1304
    3POPC   GL2  461   4.031  10.128   8.242 -0.0665 -0.1160  0.1804
    3POPC   C1A  462   4.021   9.600   8.137 -0.2185  0.3096  0.4717
    3POPC   D2A  463   4.005   9.222   7.809 -0.0148  0.2646 -0.3714
    3POPC   C3A  464   4.359   8.976   7.951  0.0321  0.0456  0.0299
    3POPC   C4A  465   4.636   8.719   7.768 -0.0264 -0.0249 -0.2074
    3POPC   C1B  466   4.094  10.375   7.861 -0.0308  0.1281  0.2616
    3POPC   C2B  467   3.746  10.407   7.565  0.2527 -0.0040  0.0955
    3POPC   C3B  468   3.536  10.664   7.405 -0.1283  0.0622 -0.0115
    3POPC   C4B  469   3.193  10.849   7.085 -0.1441 -0.0503 -0.3930
    4POPC   NC3  470   1.751   3.268   8.963  0.0204  0.0464 -0.0936
    4POPC   PO4  471   1.810   2.903   8.650 -0.1018  0.0982  0.0232
    4POPC   GL1  472   1.700   3.005   8.156 -0.1194 -0.1182 -0.0566
    4POPC   GL2  473   2.035   3.126   7.893  0.2494  0.0968 -0.0570
    4POPC   C1A  474   1.534   2.893   7.833  0.1547 -0.0713 -0.1658
    4POPC   D2A  475   1.426   3.092   7.503  0.1319 -0.0193  0.1235
    4POPC   C3A  476   1.552   3.544   7.445 -0.0695 -0.1951  0.0159
    4POPC   C4A  477   1.888   3.694   7.269 -0.3121  0.1241  0.0780
    4POPC   C1B  478   1.926   3.097   7.408 -0.0684  0.1216  0.1495
    4POPC   C2B  479   1.668   3.205   7.079  0.2176 -0.1606 -0.0270
    4POPC   C3B  480   1.705   3.508   6.774  0.0179  0.1635  0.0069
    4POPC   C4B  481   1.692   3.849   6.487 -0.1582 -0.0673 -0.0037
    5POPC   NC3  482   3.725   1.453   9.073  0.1951 -0.5591  0.1829
    5POPC   PO4  483   3.501   1.506   8.619 -0.0988 -0.5261 -0.0277
    5POPC   GL1  484   3.592   1.316   8.208  0.2036  0.3146 -0.0796
    5POPC   GL2  485   3.617   1.536   7.827  0.0130  0.1457  0.2758
    5POPC   C1A  486   3.659   0.958   7.841 -0.0166 -0.0763 -0.3159
    5POPC   D2A  487   4.095   0.902   7.659 -0.5083 -0.2266  0.0976
    5POPC   C3A  488   4.068   0.712   7.230 -0.0294 -0.0776  0.1192
    5POPC   C4A  489   3.821   0.442   6.974 -0.0484 -0.1297  0.1921
    5POPC   C1B  490   3.637   1.745   7.410  0.0300  0.1213 -0.1070
    5POPC   C2B  491   3.892   1.644   7.013 -0.3576  0.3120 -0.0113
    5POPC   C3B  492   3.881   1.417   6.496  0.0598 -0.0879 -0.0772
    5POPC   C4B  493   3.884   1.046   6.201  0.1351  0.1889 -0.0661
    6POPC   NC3  494   8.977   3.593   8.385  0.0245 -0.2657 -0.0083
    6POPC   PO4  495   9.215   3.784   8.616 -0.3035 -0.2104  0.0721
    6POPC   GL1  496   9.146   3.949   8.085  0.3118 -0.0493 -0.0866
    6POPC   GL2  497   8.940   4.221   7.868 -0.0177 -0.0016  0.0800
    6POPC   C1A  498   9.518   3.855   7.759  0.0005 -0.2992  0.3252
    6POPC   D2A  499   9.822   3.706   7.490  0.0954  0.1134 -0.1189
    6POPC   C3A  500   9.782   3.627   7.032  0.1585 -0.4470 -0.0391
    6POPC   C4A  501   9.598   3.373   6.623  0.1516 -0.0590 -0.3987
    6POPC   C1B  502   8.858   4.592   7.540  0.1705 -0.0509 -0.0892
    6POPC   C2B  503   8.800   4.886   7.212  0.0940  0.0965 -0.2746
    6POPC   C3B  504   8.718   5.139   6.833  0.1954 -0.0635 -0.1637
    6POPC   C4B  505   8.840   5.473   6.724 -0.2823  0.0165  0.0488
    7POPC   NC3  506   2.239   3.098   8.313 -0.0887  0.2085 -0.0848
    7POPC   PO4  507   1.908   3.373   8.401  0.1023  0.2018  0.1703
    7POPC   GL1  508   1.427   3.477   8.194 -0.2476 -0.2179  0.0731
    7POPC   GL2  509   1.182   3.777   8.273  0.0431 -0.2038  0.4065
    7POPC   C1A  510   1.208   3.366   7.925  0.3091 -0.2053  0.1019
    7POPC   D2A  511   0.929   3.355   7.536  0.0368  0.3192  0.2026
    7POPC   C3A  512   0.678   3.122   7.125  0.1174  0.1315  0.0278
    7POPC   C4A  513   0.719   2.817   6.797 -0.0272  0.2567  0.0131
    7POPC   C1B  514   1.077   3.837   7.912 -0.0993  0.0505 -0.2326
    7POPC   C2B  515   1.147   3.771   7.437  0.0675  0.0832  0.0130
    7POPC   C3B  516   1.099   3.512   7.059 -0.2571  0.1306 -0.1330
    7POPC   C4B  517   1.145   3.068   7.059  0.2180 -0.3806  0.2481
    8POPC   NC3  518   1.113   8.317   8.993 -0.0234  0.1353  0.0802
    8POPC   PO4  519   1.187   7.910   8.854  0.2665 -0.0419  0.1730
    8POPC   GL1  520   1.078   7.792   8.382 -0.0949  0.0863  0.2392
    8POPC   GL2  521   1.014   7.469   8.266  0.0456  0.1029 -0.1394
    8POPC   C1A  522   0.958   8.067   8.055  0.0693 -0.2600  0.4731
    8POPC   D2A  523   1.003   8.111   7.569  0.3277 -0.1359 -0.0198
    8POPC   C3A  524   0.945   8.419   7.318  0.1909 -0.3479 -0.0527
    8POPC   C4A  525   0.547   8.489   7.083  0.1300 -0.1269 -0.1251
    8POPC   C1B  526   0.944   7.593   7.901  0.4543  0.1788 -0.1691
    8POPC   C2B  527   0.848   7.632   7.439 -0.0181 -0.0842 -0.1822
    8POPC   C3B  528   0.672   7.689   7.018  0.1099 -0.1647 -0.1268
    8POPC   C4B  529   0.381   7.989   6.983  0.2159  0.2577 -0.2412
    9POPC   NC3  530   9.752   8.212   8.888  0.1509  0.0580  0.1295
    9POPC   PO4  531   9.545   8.607   8.790  0.0235  0.1274 -0.1843
    9POPC   GL1  532   9.474   8.798   8.403  0.1709  0.2790 -0.0436
    9POPC   GL2  533   9.194   9.034   8.358 -0.1115  0.4864 -0.0176
    9POPC   C1A  534   9.452   8.919   7.920 -0.2757  0.1399 -0.0502
    9POPC   D2A  535   9.661   9.178   7.628  0.0152  0.2075  0.1126
    9POPC   C3A  536   9.450   9.293   7.256 -0.4019 -0.1607  0.2767
    9POPC   C4A  537   9.160   9.362   6.919  0.0192  0.0075 -0.2379
    9POPC   C1B  538   8.858   8.740   8.273 -0.0521  0.2035 -0.0623
    9POPC   C2B  539   8.416   8.778   8.279  0.0443 -0.0407 -0.0729
    9POPC   C3B  540   8.082   8.607   8.378  0.1362 -0.1824 -0.0749
    9POPC   C4B  541   7.705   8.431   8.453  0.1156 -0.1735  0.2045
   10POPC   NC3  542   7.526   7.451  10.288  0.1729 -0.1313 -0.0916
   10POPC   PO4  543   7.852   7.468   9.896  0.1887 -0.1021  0.1393
   10POPC   GL1  544   7.672   7.133   9.496 -0.2111  0.1930  0.0897
   10POPC   GL2  545   7.512   6.875   9.511 -0.0751 -0.0674  0.1668
   10POPC   C1A  546   7.583   7.012   8.991 -0.3794  0.1182  0.1761
   10POPC   D2A  547   7.377   6.916   8.690  0.0038  0.0071 -0.2098
   10POPC   C3A  548   7.615   6.963   8.341  0.1949  0.0425 -0.3117
   10POPC   C4A  549   7.832   7.229   8.092 -0.0619 -0.2429 -0.1448
   10POPC   C1B  550   7.232   6.849   9.256  0.2270 -0.0829 -0.1657
   10POPC   C2B  551   6.956   7.063   9.004  0.1081 -0.1116  0.1256
   10POPC   C3B  552   6.649   6.935   8.773 -0.0143  0.0092  0.0075
   10POPC   C4B  553   6.332   6.891   8.530  0.0888  0.2537  0.0870
   11POPC   NC3  554   2.677   9.742   8.799 -0.0129  0.0683 -0.1785
   11POPC   PO4  555   2.252   9.676   8.766  0.1984 -0.3300 -0.1679
   11POPC   GL1  556   2.313   9.724   8.393  0.3204  0.0165  0.1732
   11POPC   GL2  557   2.041   9.537   8.216 -0.1424  0.0598 -0.1800
   11POPC   C1A  558   2.541   9.614   8.033 -0.0520 -0.0601  0.0062
   11POPC   D2A  559   2.716   9.678   7.648  0.0133  0.0891  0.1087
   11POPC   C3A  560   2.853   9.498   7.341  0.3454  0.0149 -0.3815
   11POPC   C4A  561   2.954   9.168   7.149  0.1590  0.0305 -0.0303
   11POPC   C1B  562   2.092   9.804   7.874 -0.0250  0.1234 -0.1692
   11POPC   C2B  563   2.320   9.950   7.525 -0.0939 -0.2515 -0.1041
   11POPC   C3B  564   2.332   9.622   7.182  0.0801 -0.1185 -0.2346
   11POPC   C4B  565   2.431   9.165   7.225 -0.1431 -0.0169 -0.0334
   12POPC   NC3  566   4.740   6.515   9.554  0.0082 -0.2046  0.0613
   12POPC   PO4  567   4.983   6.859   9.492  0.2232  0.2648 -0.0191
   12POPC   GL1  568   5.239   7.146   9.354 -0.1569 -0.0185 -0.0179
   12POPC   GL2  569   5.177   7.387   9.430  0.0024  0.0741  0.0394
   12POPC   C1A  570   5.496   7.211   9.072  0.0917 -0.0397  0.1024
   12POPC   D2A  571   5.850   7.116   8.853  0.2535  0.0552  0.1078
   12POPC   C3A  572   5.960   7.241   8.427 -0.0411  0.1722 -0.1124
   12POPC   C4A  573   6.149   7.239   7.962 -0.1179  0.1866  0.0074
   12POPC   C1B  574   5.075   7.615   9.121 -0.1182  0.4215 -0.6292
   12POPC   C2B  575   5.149   7.815   8.818  0.1791 -0.1509 -0.1176
   12POPC   C3B  576   5.266   7.831   8.347  0.0943  0.1844  0.2398
   12POPC   C4B  577   5.508   7.852   7.866 -0.1918 -0.2366 -0.1937
   13POPC   NC3  578   0.713   0.447   8.766  0.2799  0.0511 -0.1203
   13POPC   PO4  579   0.671   0.915   8.828  0.2427 -0.0344 -0.3564
   13POPC   GL1  580   0.779   0.962   8.401  0.2225 -0.2582  0.1779
   13POPC   GL2  581   1.013   1.100   8.313 -0.1389  0.1621  0.0635
   13POPC   C1A  582   0.771   0.563   8.137 -0.1069 -0.0862 -0.0765
   13POPC   D2A  583   1.123   0.571   7.732  0.2978 -0.0518  0.2915
   13POPC   C3A  584   1.276   0.145   7.752  0.0174  0.4536  0.2823
   13POPC   C4A  585   1.433  -0.180   7.793 -0.0309 -0.0613  0.3878
   13POPC   C1B  586   0.804   1.323   8.037 -0.1189 -0.3147 -0.0513
   13POPC   C2B  587   0.582   1.375   7.642  0.0098 -0.1542  0.1678
   13POPC   C3B  588   0.517   1.500   7.228  0.0906  0.0463 -0.0176
   13POPC   C4B  589   0.589   1.373   6.805 -0.1793  0.3911  0.2689
   14POPC   NC3  590   2.007   4.879   8.830 -0.0768  0.0201 -0.1724
   14POPC   PO4  591   2.286   5.105   8.478 -0.0892 -0.3093 -0.0664
   14POPC   GL1  592   2.327   5.312   8.062 -0.1002 -0.0493 -0.0873
   14POPC   GL2  593   2.624   5.247   7.939 -0.0682  0.1556  0.1437
   14POPC   C1A  594   2.118   5.302   7.571 -0.0035  0.0584  0.1108
   14POPC   D2A  595   2.053   5.138   7.220 -0.2561 -0.1177  0.1460
   14POPC   C3A  596   1.876   5.226   6.765 -0.1200  0.0197  0.3421
   14POPC   C4A  597   1.721   5.054   6.430  0.2755 -0.2184  0.2590
   14POPC   C1B  598   2.608   5.062   7.562 -0.2472  0.0735 -0.1476
   14POPC   C2B  599   2.527   4.986   7.158 -0.0120  0.0457  0.1588
   14POPC   C3B  600   2.750   5.022   6.766 -0.4459  0.1107  0.2036
   14POPC   C4B  601   2.669   5.015   6.312  0.3359 -0.0375  0.0149
   15POPC   NC3  602   1.185   2.773   9.119 -0.1950  0.3690  0.0413
   15POPC   PO4  603   1.408   2.619   8.797 -0.4906 -0.0259 -0.1158
   15POPC   GL1  604   1.437   2.571   8.384  0.0344 -0.0731  0.0237
   15POPC   GL2  605   1.686   2.423   8.157  0.1515  0.0223  0.2836
   15POPC   C1A  606   1.215   2.491   7.978 -0.0648 -0.0705  0.2722
   15POPC   D2A  607   0.814   2.405   7.724  0.0442  0.0317  0.1015
   15POPC   C3A  608   0.741   2.316   7.274  0.0469 -0.2533  0.3200
   15POPC   C4A  609   0.533   2.271   6.852  0.0799 -0.1370  0.0832
   15POPC   C1B  610   1.620   2.246   7.697  0.0143 -0.1463  0.0800
   15POPC   C2B  611   1.687   1.968   7.355  0.0852  0.1200  0.1617
   15POPC   C3B  612   1.458   1.873   6.982  0.1872  0.0914 -0.2350
   15POPC   C4B  613   1.311   1.976   6.580 -0.1063 -0.0852  0.3382
   16POPC   NC3  614   8.648   1.956   8.997  0.0868  0.0236 -0.0467
   16POPC   PO4  615   8.732   2.146   8.548  0.0885  0.1714 -0.2106
   16POPC   GL1  616   8.651   2.175   8.088 -0.2254 -0.3123  0.3406
   16POPC   GL2  617   8.975   2.287   7.961  0.2130 -0.0994  0.1065
   16POPC   C1A  618   8.375   2.283   7.717  0.3447  0.1532  0.0779
   16POPC   D2A  619   8.003   2.291   7.594  0.1129 -0.0597  0.3125
   16POPC   C3A  620   7.741   1.889   7.389  0.2005 -0.1931 -0.0143
   16POPC   C4A  621   7.347   1.983   7.220 -0.1751  0.1263  0.0801
   16POPC   C1B  622   9.194   2.285   7.505  0.0186 -0.2689 -0.2852
   16POPC   C2B  623   9.346   2.442   7.208  0.1512 -0.0054 -0.0234
   16POPC   C3B  624   9.605   2.471   6.808 -0.0983 -0.0855  0.1500
   16POPC   C4B  625   9.637   2.781   6.612  0.2086  0.2988 -0.0084
   17POPC   NC3  626   3.477   8.692   8.454 -0.0506  0.2372 -0.1008
   17POPC   PO4  627   3.513   8.403   8.757  0.2373 -0.0819  0.1263
   17POPC   GL1  628   3.602   8.170   8.307  0.2489  0.0788 -0.0104
   17POPC   GL2  629   3.770   7.996   8.426  0.2888  0.0602 -0.0415
   17POPC   C1A  630   3.662   8.032   7.866  0.2174  0.1846  0.0586
   17POPC   D2A  631   3.716   7.678   7.699 -0.1549 -0.1029 -0.0909
   17POPC   C3A  632   4.126   7.552   7.321  0.1242 -0.0197  0.3009
   17POPC   C4A  633   4.511   7.552   7.069  0.0197  0.2823 -0.0554
   17POPC   C1B  634   4.100   8.155   8.235 -0.1230 -0.2617 -0.1782
   17POPC   C2B  635   4.228   8.451   7.879 -0.2430  0.2754 -0.1260
   17POPC   C3B  636   4.271   8.612   7.426 -0.0000  0.0793  0.0991
   17POPC   C4B  637   4.474   8.941   7.263 -0.1073 -0.0474 -0.4416
   18POPC   NC3  638   1.062   7.376   8.848 -0.0008 -0.1212 -0.0229
   18POPC   PO4  639   0.701   7.572   8.775  0.0129  0.5823  0.0913
   18POPC   GL1  640   0.471   7.770   8.461 -0.0451 -0.2899  0.1112
   18POPC   GL2  641   0.180   7.954   8.518 -0.3194  0.1938 -0.0212
   18POPC   C1A  642   0.483   7.685   7.978  0.1084 -0.0713  0.1303
   18POPC   D2A  643   0.372   7.812   7.520 -0.2298 -0.1203 -0.0157
   18POPC   C3A  644   0.329   7.429   7.259  0.2536 -0.0706 -0.1943
   18POPC   C4A  645   0.485   7.204   6.925 -0.2472  0.0136 -0.0999
   18POPC   C1B  646  -0.022   7.780   8.173  0.3377  0.2236  0.2872
   18POPC   C2B  647  -0.382   7.593   7.950  0.0426  0.2591  0.3751
   18POPC   C3B  648  -0.386   7.373   7.552  0.0140 -0.1988  0.0641
   18POPC   C4B  649  -0.444   7.196   7.227  0.0860  0.0179 -0.0645
   19POPC   NC3  650   7.110   4.199   8.924 -0.0316 -0.1366  0.0204
   19POPC   PO4  651   7.244   3.999   8.525  0.1442 -0.0435  0.0327
   19POPC   GL1  652   7.291   4.032   7.972  0.0440  0.2795  0.1535
   19POPC   GL2  653   7.514   4.121   7.784  0.2315  0.1360  0.3011
   19POPC   C1A  654   7.452   3.642   7.711 -0.2798  0.1471  0.0656
   19POPC   D2A  655   7.675   3.616   7.381 -0.2658 -0.1390  0.1567
   19POPC   C3A  656   7.566   3.643   6.947 -0.0769 -0.1673 -0.2732
   19POPC   C4A  657   7.498   3.639   6.523  0.3338 -0.0285  0.2581
   19POPC   C1B  658   7.545   4.413   7.623  0.3135  0.1436 -0.0566
   19POPC   C2B  659   7.436   4.505   7.205 -0.0913  0.1721  0.1033
   19POPC   C3B  660   7.112   4.602   6.993  0.3669  0.0381  0.2710
   19POPC   C4B  661   6.674   4.514   6.855  0.1465  0.2953  0.2326
   20POPC   NC3  662   5.379   6.914   9.764 -0.0568 -0.2119 -0.3700
   20POPC   PO4  663   5.497   7.372   9.832 -0.1689 -0.3091  0.0562
   20POPC   GL1  664   5.793   7.141   9.472 -0.0646  0.0728  0.4034
   20POPC   GL2  665   5.657   6.813   9.326 -0.2225  0.0033  0.0695
   20POPC   C1A  666   6.145   7.207   9.276  0.2603 -0.0497  0.0709
   20POPC   D2A  667   6.607   7.304   9.283 -0.3306  0.0822 -0.0013
   20POPC   C3A  668   6.807   7.557   8.977  0.0920  0.2986 -0.2425
   20POPC   C4A  669   7.023   7.880   8.844 -0.0630 -0.0617  0.2653
   20POPC   C1B  670   5.548   6.740   8.847 -0.3341 -0.1052 -0.2356
   20POPC   C2B  671   5.699   6.778   8.485 -0.3830  0.0844  0.0277
   20POPC   C3B  672   5.920   6.779   8.132 -0.1916  0.0711 -0.2794
   20POPC   C4B  673   5.887   6.809   7.759 -0.0478  0.0722 -0.1460
   21POPC   NC3  674   9.341   4.636   8.817 -0.1054  0.0664  0.1180
   21POPC   PO4  675   9.001   4.962   8.630  0.3712  0.1557  0.3100
   21POPC   GL1  676   9.171   4.797   8.342 -0.1028 -0.1380 -0.0290
   21POPC   GL2  677   8.834   4.879   8.115  0.0222 -0.0175 -0.0959
   21POPC   C1A  678   9.205   4.574   8.074 -0.2175  0.1324 -0.1460
   21POPC   D2A  679   9.314   4.426   7.649  0.2235  0.3571 -0.0393
   21POPC   C3A  680   9.290   4.680   7.314  0.1185  0.0416 -0.3950
   21POPC   C4A  681   9.195   5.038   7.054  0.0049  0.1613  0.0825
   21POPC   C1B  682   8.648   5.261   7.880  0.0126  0.2821  0.2387
   21POPC   C2B  683   8.405   5.488   7.566 -0.3803 -0.1475 -0.0381
   21POPC   C3B  684   8.110   5.705   7.251  0.1162  0.0730  0.1029
   21POPC   C4B  685   7.843   5.602   6.953  0.3798 -0.0972 -0.1099
   22POPC   NC3  686   5.474   0.910   8.220 -0.1530 -0.3970  0.1445
   22POPC   PO4  687   5.679   1.166   8.022 -0.0127  0.0776  0.1787
   22POPC   GL1  688   5.735   0.862   7.710  0.3203 -0.4510  0.1455
   22POPC   GL2  689   5.928   0.592   7.897  0.0102  0.1635  0.3194
   22POPC   C1A  690   5.892   0.983   7.336 -0.4995 -0.1709  0.1200
   22POPC   D2A  691   6.042   0.949   6.901  0.1219 -0.0150 -0.0609
   22POPC   C3A  692   6.274   0.656   6.699 -0.0328 -0.2668 -0.0554
   22POPC   C4A  693   6.339   0.243   6.442  0.1084 -0.1139  0.0037
   22POPC   C1B  694   6.136   0.381   7.454 -0.0952 -0.0087  0.1802
   22POPC   C2B  695   6.026   0.321   7.089  0.2084  0.1272  0.0828
   22POPC   C3B  696   5.774   0.212   6.695  0.1850 -0.2382  0.0025
   22POPC   C4B  697   5.639  -0.016   6.282 -0.1273 -0.2451 -0.1243
   23POPC   NC3  698   0.578   5.228   9.498  0.3714 -0.0186 -0.2063
   23POPC   PO4  699   0.675   5.210   9.060  0.2185  0.2311 -0.2551
   23POPC   GL1  700   0.717   4.917   8.568 -0.0792 -0.4202  0.1726
   23POPC   GL2  701   0.804   4.633   8.469 -0.0785  0.0872 -0.0830
   23POPC   C1A  702   0.352   5.048   8.158  0.1775  0.1583  0.1554
   23POPC   D2A  703   0.301   5.433   7.810 -0.1714  0.1443 -0.2766
   23POPC   C3A  704   0.091   5.248   7.483 -0.1191  0.1689  0.0389
   23POPC   C4A  705  -0.166   5.005   7.182  0.0102 -0.0821  0.0673
   23POPC   C1B  706   0.814   4.851   8.059  0.2555  0.0588  0.1643
   23POPC   C2B  707   0.930   4.768   7.691 -0.0612  0.1745  0.2683
   23POPC   C3B  708   1.125   5.068   7.351 -0.0677 -0.2371  0.0202
   23POPC   C4B  709   0.986   5.455   7.113  0.2718 -0.2167  0.0880
   24POPC   NC3  710   2.218   0.379   8.508  0.0030 -0.5142 -0.0587
   24POPC   PO4  711   2.450   0.735   8.422 -0.0124  0.0193  0.2415
   24POPC   GL1  712   2.259   0.686   8.098 -0.0829  0.2066 -0.1588
   24POPC   GL2  713   1.907   0.776   8.083 -0.0437 -0.1229  0.0599
   24POPC   C1A  714   2.117   0.530   7.650 -0.1278  0.0550 -0.2257
   24POPC   D2A  715   2.339   0.498   7.305 -0.3586 -0.2038  0.3316
   24POPC   C3A  716   2.576   0.184   7.126 -0.2960  0.1021  0.0292
   24POPC   C4A  717   2.635  -0.124   6.807 -0.1784 -0.0256  0.0584
   24POPC   C1B  718   1.856   1.080   7.842 -0.4337 -0.1504  0.1031
   24POPC   C2B  719   1.706   1.330   7.553  0.0271 -0.1353  0.2146
   24POPC   C3B  720   1.681   1.426   7.141  0.0816 -0.0691 -0.0379
   24POPC   C4B  721   1.680   1.465   6.746  0.2573  0.0405  0.1513
   25POPC   NC3  722   9.564   6.545   9.763  0.1833 -0.4166  0.0491
   25POPC   PO4  723   9.329   6.756   9.285 -0.0517 -0.2178 -0.1125
   25POPC   GL1  724   9.291   6.540   8.811 -0.0313 -0.1839 -0.0579
   25POPC   GL2  725   9.499   6.779   8.742  0.1409 -0.1750 -0.2981
   25POPC   C1A  726   9.330   6.421   8.373  0.0348  0.1971 -0.1197
   25POPC   D2A  727   8.929   6.293   8.016  0.0778  0.0558  0.0817
   25POPC   C3A  728   8.985   6.190   7.611  0.0922 -0.0797  0.1807
   25POPC   C4A  729   8.606   5.980   7.401 -0.1017 -0.2372  0.3684
   25POPC   C1B  730   9.600   6.830   8.297  0.2160 -0.0329 -0.1466
   25POPC   C2B  731   9.529   7.099   8.017 -0.1671 -0.1286  0.0277
   25POPC   C3B  732   9.178   7.053   7.719  0.0055  0.3112 -0.0589
   25POPC   C4B  733   9.020   7.445   7.609  0.5804  0.0451  0.0097
   26POPC   NC3  734   1.050   4.370   8.879 -0.0249  0.0403  0.1507
   26POPC   PO4  735   1.426   4.569   8.785 -0.0445  0.0096 -0.0029
   26POPC   GL1  736   1.758   4.632   8.404 -0.2118 -0.1104  0.1052
   26POPC   GL2  737   1.837   4.847   8.390  0.1536 -0.1452 -0.2393
   26POPC   C1A  738   1.847   4.435   8.011  0.0107 -0.0167  0.2362
   26POPC   D2A  739   1.837   4.323   7.615 -0.2136  0.0794 -0.2801
   26POPC   C3A  740   1.565   4.027   7.429  0.1760  0.3747  0.3337
   26POPC   C4A  741   1.453   3.850   7.071 -0.2268  0.2066 -0.0608
   26POPC   C1B  742   1.860   5.031   7.940  0.1485  0.1875 -0.1037
   26POPC   C2B  743   1.519   5.192   7.764  0.3353  0.0640 -0.0569
   26POPC   C3B  744   1.170   5.500   7.672  0.1622  0.0082  0.1977
   26POPC   C4B  745   0.744   5.303   7.629  0.2298 -0.2442  0.0677
   27POPC   NC3  746   8.643   6.225   9.400 -0.4025 -0.0664 -0.2137
   27POPC   PO4  747   8.584   5.871   9.034 -0.3238 -0.0807  0.0519
   27POPC   GL1  748   8.793   6.057   8.722 -0.0247 -0.1870 -0.2189
   27POPC   GL2  749   8.754   5.899   8.509 -0.0068 -0.4040  0.1212
   27POPC   C1A  750   8.754   6.495   8.428 -0.3342  0.0163 -0.2562
   27POPC   D2A  751   9.049   6.831   8.196  0.4194 -0.1536  0.0197
   27POPC   C3A  752   9.382   6.650   7.848 -0.2665  0.3199 -0.0442
   27POPC   C4A  753   9.579   6.754   7.458 -0.1426  0.1887  0.0958
   27POPC   C1B  754   9.156   5.871   8.358 -0.1399 -0.1656  0.2529
   27POPC   C2B  755   9.424   5.945   8.039 -0.2845 -0.3806 -0.0216
   27POPC   C3B  756   9.533   6.114   7.623 -0.0597 -0.0212 -0.1342
   27POPC   C4B  757   9.396   6.313   7.274 -0.2279  0.1119  0.0391
   28POPC   NC3  758   5.192   7.911   9.697 -0.0903  0.0197  0.0551
   28POPC   PO4  759   4.973   8.263   9.640  0.2211  0.1195 -0.1958
   28POPC   GL1  760   5.130   8.130   9.218  0.0874 -0.3783 -0.0621
   28POPC   GL2  761   5.456   8.209   9.156 -0.4146 -0.1421  0.0532
   28POPC   C1A  762   5.102   8.392   8.861 -0.2152 -0.3697  0.2547
   28POPC   D2A  763   4.989   8.402   8.449 -0.0604 -0.0513 -0.0256
   28POPC   C3A  764   5.176   8.766   8.228 -0.2526 -0.0726  0.0144
   28POPC   C4A  765   5.294   9.016   7.900  0.0169 -0.0887 -0.0932
   28POPC   C1B  766   5.500   8.155   8.646 -0.0794  0.3767  0.1160
   28POPC   C2B  767   5.775   8.025   8.348 -0.3187 -0.0387  0.0115
   28POPC   C3B  768   6.048   8.208   8.042  0.1799  0.2903  0.4693
   28POPC   C4B  769   6.212   8.538   7.894  0.1260 -0.1529 -0.2581
   29POPC   NC3  770   3.679   0.370   8.622  0.0152 -0.2685 -0.0545
   29POPC   PO4  771   3.833   0.738   8.352 -0.2003 -0.0415 -0.1301
   29POPC   GL1  772   3.625   0.433   8.102 -0.3386 -0.2573 -0.2905
   29POPC   GL2  773   3.402   0.447   7.989  0.2654 -0.1357  0.0178
   29POPC   C1A  774   3.788   0.074   7.832  0.0764 -0.4039  0.1847
   29POPC   D2A  775   3.897  -0.270   7.510 -0.3807 -0.0079 -0.1062
   29POPC   C3A  776   3.710  -0.359   7.111 -0.1063  0.2169  0.0591
   29POPC   C4A  777   3.257  -0.336   7.081 -0.1946  0.0905  0.2146
   29POPC   C1B  778   3.300   0.300   7.664  0.2132 -0.1050  0.0959
   29POPC   C2B  779   3.594   0.070   7.281  0.3735  0.1427 -0.1149
   29POPC   C3B  780   3.649  -0.005   6.806 -0.2468  0.0001  0.0657
   29POPC   C4B  781   3.468   0.139   6.436  0.1029  0.1543 -0.1107
   30POPC   NC3  782   9.608   0.482   8.831 -0.0664 -0.2207  0.1269
   30POPC   PO4  783   9.783  -0.002   8.970  0.1597 -0.1310 -0.1052
   30POPC   GL1  784   9.512   0.138   8.506  0.2213 -0.1875 -0.0620
   30POPC   GL2  785   9.740   0.008   8.288  0.1662  0.0916  0.1572
   30POPC   C1A  786   9.311   0.419   8.188 -0.1829  0.3982 -0.0814
   30POPC   D2A  787   9.399   0.605   7.755  0.0683  0.3328  0.1179
   30POPC   C3A  788   9.104   0.453   7.429  0.0085  0.0217 -0.4102
   30POPC   C4A  789   8.861   0.274   7.209 -0.1042 -0.1151  0.2450
   30POPC   C1B  790   9.783   0.259   7.843  0.0159  0.0856 -0.1327
   30POPC   C2B  791   9.784   0.304   7.434 -0.2282 -0.2982 -0.2121
   30POPC   C3B  792   9.487   0.367   7.106  0.1077 -0.0608 -0.1122
   30POPC   C4B  793   9.346   0.096   6.793 -0.1765 -0.1436 -0.0156
   31POPC   NC3  794   2.209   3.621   8.127 -0.3675 -0.1761 -0.2867
   31POPC   PO4  795   2.658   3.666   7.997 -0.0466 -0.1138 -0.2297
   31POPC   GL1  796   3.049   3.446   7.786  0.0610  0.3522 -0.1699
   31POPC   GL2  797   2.846   3.168   7.778  0.4611  0.1021 -0.0418
   31POPC   C1A  798   3.168   3.286   7.331  0.2333  0.1027 -0.0861
   31POPC   D2A  799   3.480   3.410   6.984 -0.0540  0.1836  0.0438
   31POPC   C3A  800   3.722   3.794   7.042  0.0118  0.0683  0.0409
   31POPC   C4A  801   4.122   3.817   6.853  0.1298  0.1321 -0.2835
   31POPC   C1B  802   2.803   2.867   7.478 -0.3093 -0.2846  0.1093
   31POPC   C2B  803   2.832   2.575   7.306  0.0673  0.1630 -0.1190
   31POPC   C3B  804   3.044   2.429   6.913 -0.2760  0.0506 -0.1048
   31POPC   C4B  805   3.263   2.571   6.561  0.2015 -0.0269 -0.1272
   32POPC   NC3  806   3.773   7.747   9.310  0.2732 -0.0769  0.2018
   32POPC   PO4  807   3.351   7.467   9.207  0.1147  0.1240 -0.0308
   32POPC   GL1  808   3.665   7.420   8.768  0.0083  0.0094 -0.0034
   32POPC   GL2  809   3.921   7.613   8.880  0.1537 -0.1157  0.0872
   32POPC   C1A  810   3.949   7.345   8.433 -0.0557 -0.2668 -0.0794
   32POPC   D2A  811   4.068   7.590   8.050  0.1820 -0.0174  0.2853
   32POPC   C3A  812   4.161   7.250   7.724 -0.2318  0.0670  0.0974
   32POPC   C4A  813   4.032   6.909   7.725 -0.1237  0.0661 -0.0763
   32POPC   C1B  814   4.282   7.328   8.880 -0.0407  0.0404 -0.1376
   32POPC   C2B  815   4.496   6.941   8.666 -0.0514 -0.0002  0.0109
   32POPC   C3B  816   4.773   7.031   8.344  0.2175 -0.0492 -0.1323
   32POPC   C4B  817   5.032   7.295   8.280  0.0200 -0.1666 -0.1498
   33POPC   NC3  818   8.788   9.736   8.706 -0.0067  0.0749 -0.1448
   33POPC   PO4  819   8.572   9.905   8.542 -0.0525  0.2460  0.2277
   33POPC   GL1  820   8.827   9.954   8.168  0.0605  0.0368 -0.2031
   33POPC   GL2  821   9.128   9.900   8.218  0.0929  0.2832 -0.2207
   33POPC   C1A  822   8.789   9.881   7.720  0.0188  0.1700 -0.0235
   33POPC   D2A  823   8.743   9.462   7.594  0.1369 -0.1169  0.1674
   33POPC   C3A  824   8.810   9.310   7.240 -0.3400 -0.2343 -0.3376
   33POPC   C4A  825   8.562   9.132   6.838  0.3212  0.2032  0.0151
   33POPC   C1B  826   9.282   9.985   7.782 -0.2129  0.1011 -0.0161
   33POPC   C2B  827   9.188   9.827   7.384  0.2159  0.0832 -0.0076
   33POPC   C3B  828   8.908   9.782   7.011 -0.3335 -0.2119  0.0119
   33POPC   C4B  829   8.621  10.030   6.752  0.0317 -0.1749 -0.0326
   34POPC   NC3  830   7.179   8.876   9.080 -0.0794  0.0111  0.0452
   34POPC   PO4  831   7.429   9.332   8.953  0.0009  0.0053  0.0716
   34POPC   GL1  832   7.344   9.214   8.582  0.1045 -0.1962 -0.0041
   34POPC   GL2  833   7.293   9.407   8.338  0.1700 -0.0047 -0.0133
   34POPC   C1A  834   7.710   9.089   8.233  0.0190  0.2448 -0.2896
   34POPC   D2A  835   7.922   8.920   7.955  0.1178  0.2285 -0.2613
   34POPC   C3A  836   7.783   8.963   7.532  0.1273 -0.2000  0.0222
   34POPC   C4A  837   7.651   8.741   7.249 -0.1908  0.1628  0.2055
   34POPC   C1B  838   7.106   9.542   7.971 -0.3922 -0.0285  0.2217
   34POPC   C2B  839   7.219   9.566   7.550 -0.1073  0.0086 -0.0746
   34POPC   C3B  840   7.086   9.544   7.115 -0.2226  0.2073  0.0119
   34POPC   C4B  841   6.928   9.542   6.710  0.0325  0.0425 -0.1913
   35POPC   NC3  842   2.333   7.349   8.785  0.1665 -0.3007 -0.1542
   35POPC   PO4  843   1.854   7.191   8.726  0.2286 -0.0436 -0.0893
   35POPC   GL1  844   2.036   7.073   8.352  0.0475  0.2776  0.0465
   35POPC   GL2  845   2.172   7.177   8.155 -0.3926 -0.0141 -0.0838
   35POPC   C1A  846   2.165   6.672   8.069 -0.0550 -0.5597 -0.0477
   35POPC   D2A  847   2.080   6.514   7.581  0.1460 -0.0487  0.1327
   35POPC   C3A  848   1.701   6.704   7.313 -0.1388 -0.0045 -0.3393
   35POPC   C4A  849   1.361   6.929   7.346  0.0256  0.3538 -0.0516
   35POPC   C1B  850   2.201   7.033   7.655  0.1936  0.1278  0.0800
   35POPC   C2B  851   2.245   6.993   7.323 -0.1779  0.2199 -0.4031
   35POPC   C3B  852   2.174   6.906   6.971 -0.0116  0.2186 -0.0085
   35POPC   C4B  853   1.998   6.515   6.896 -0.4712  0.2737  0.0351
   36POPC   NC3  854   5.076   3.321   8.115  0.0541 -0.0127 -0.2533
   36POPC   PO4  855   5.359   2.954   8.132 -0.0383 -0.2010 -0.0586
   36POPC   GL1  856   5.539   3.153   7.739  0.1546 -0.0786 -0.0073
   36POPC   GL2  857   5.547   3.450   7.743 -0.2787 -0.0349  0.2237
   36POPC   C1A  858   5.412   3.168   7.309 -0.2214  0.2689 -0.0318
   36POPC   D2A  859   5.646   3.223   7.011 -0.2209 -0.2042  0.2015
   36POPC   C3A  860   6.101   3.168   7.034  0.1474 -0.0316 -0.1409
   36POPC   C4A  861   6.434   2.880   7.106  0.1999  0.2305 -0.1675
   36POPC   C1B  862   5.664   3.659   7.232 -0.1895  0.3895  0.1775
   36POPC   C2B  863   5.370   3.708   6.823  0.0646 -0.1463  0.3574
   36POPC   C3B  864   5.172   3.634   6.472 -0.0453 -0.1006  0.2709
   36POPC   C4B  865   4.739   3.699   6.252  0.3460 -0.1163  0.1466
   37POPC   NC3  866   5.062   0.345   8.314  0.1861 -0.0015  0.0276
   37POPC   PO4  867   4.995   0.762   8.246  0.1460 -0.0926  0.1413
   37POPC   GL1  868   5.036   0.660   7.846 -0.0773  0.0039  0.2020
   37POPC   GL2  869   5.292   0.524   7.817 -0.3591  0.1531 -0.0322
   37POPC   C1A  870   5.003   0.237   7.579 -0.3028  0.3455  0.2386
   37POPC   D2A  871   5.260  -0.133   7.374 -0.1744  0.1572 -0.0166
   37POPC   C3A  872   5.211  -0.372   7.089  0.0107 -0.1371 -0.0640
   37POPC   C4A  873   4.968  -0.345   6.624  0.1246  0.0375 -0.1698
   37POPC   C1B  874   5.579   0.448   7.361  0.1122  0.0015  0.0249
   37POPC   C2B  875   5.524   0.584   6.931  0.1246 -0.1041 -0.0676
   37POPC   C3B  876   5.417   0.503   6.545 -0.1446 -0.0912  0.1181
   37POPC   C4B  877   5.318   0.890   6.219 -0.0025  0.0399  0.0753
   38POPC   NC3  878   7.683   6.059   9.885 -0.2069  0.1596 -0.0416
   38POPC   PO4  879   7.417   6.439   9.827  0.1968 -0.0095  0.2263
   38POPC   GL1  880   7.114   6.355   9.421 -0.1721  0.1017  0.3672
   38POPC   GL2  881   6.963   6.005   9.283  0.0880  0.1857 -0.0433
   38POPC   C1A  882   6.905   6.560   9.038  0.2132 -0.1115  0.0962
   38POPC   D2A  883   6.958   6.617   8.587 -0.3304 -0.0199 -0.1467
   38POPC   C3A  884   6.693   6.752   8.278 -0.0463 -0.3199  0.1417
   38POPC   C4A  885   6.392   6.693   7.932 -0.1452 -0.1237  0.0990
   38POPC   C1B  886   7.303   6.190   9.002  0.0431  0.0586  0.0883
   38POPC   C2B  887   7.491   6.419   8.604  0.3772 -0.0231  0.1281
   38POPC   C3B  888   7.257   6.670   8.221 -0.1579 -0.2433  0.1992
   38POPC   C4B  889   7.452   6.679   7.844  0.2373 -0.1490  0.0360
   39POPC   NC3  890   6.102   1.364   8.788 -0.0522 -0.0571  0.2258
   39POPC   PO4  891   6.068   1.197   8.286 -0.3444  0.3025 -0.1904
   39POPC   GL1  892   6.195   1.249   7.796  0.0838 -0.1271 -0.3069
   39POPC   GL2  893   6.394   0.910   7.710  0.0118  0.2576  0.1242
   39POPC   C1A  894   6.303   1.303   7.331 -0.1526  0.2357 -0.1737
   39POPC   D2A  895   6.175   1.426   6.962  0.1384  0.0406  0.0507
   39POPC   C3A  896   6.402   1.717   6.658 -0.0294  0.3045 -0.2884
   39POPC   C4A  897   6.602   2.061   6.612 -0.0339  0.1868  0.1031
   39POPC   C1B  898   6.669   1.005   7.354 -0.1864 -0.0462 -0.0959
   39POPC   C2B  899   6.617   1.016   6.927 -0.0371  0.0342  0.1693
   39POPC   C3B  900   6.414   1.170   6.577 -0.2073  0.1915 -0.2405
   39POPC   C4B  901   5.980   1.268   6.423 -0.2187 -0.0152 -0.0509
   40POPC   NC3  902   1.170   5.441   8.871 -0.3378  0.1793 -0.0360
   40POPC   PO4  903   1.523   5.526   8.879 -0.2114  0.2519 -0.0917
   40POPC   GL1  904   1.474   5.635   8.469  0.1978 -0.1445 -0.0178
   40POPC   GL2  905   1.341   5.921   8.186  0.2375 -0.0830  0.0440
   40POPC   C1A  906   1.701   5.593   8.047  0.0850 -0.0552  0.1249
   40POPC   D2A  907   1.732   5.685   7.562 -0.0841  0.0531 -0.1089
   40POPC   C3A  908   2.083   5.696   7.321  0.0214  0.0620 -0.3915
   40POPC   C4A  909   2.286   6.104   7.089 -0.3351  0.0421  0.1116
   40POPC   C1B  910   1.298   6.038   7.734 -0.0034 -0.0750 -0.1529
   40POPC   C2B  911   1.269   5.889   7.279 -0.1106  0.0865  0.1146
   40POPC   C3B  912   1.660   5.737   7.050  0.3146  0.3029  0.0294
   40POPC   C4B  913   2.054   5.708   6.808  0.1998 -0.1070  0.4988
   41POPC   NC3  914   1.326   4.568   9.255  0.2763  0.2745  0.0049
   41POPC   PO4  915   1.474   4.239   9.109 -0.2103 -0.1297  0.2153
   41POPC   GL1  916   1.423   4.047   8.670 -0.0529  0.1862 -0.1817
   41POPC   GL2  917   1.316   4.242   8.389 -0.0311  0.0705 -0.2198
   41POPC   C1A  918   1.685   4.034   8.239  0.0243 -0.1884  0.0488
   41POPC   D2A  919   1.861   3.780   7.819  0.3578  0.0549 -0.2090
   41POPC   C3A  920   2.232   4.000   7.656 -0.0120 -0.1294  0.0743
   41POPC   C4A  921   2.399   3.962   7.266 -0.1381  0.4192 -0.1081
   41POPC   C1B  922   1.212   4.318   7.950  0.0496  0.0773 -0.4950
   41POPC   C2B  923   1.123   4.252   7.518  0.1830  0.0384  0.0296
   41POPC   C3B  924   1.062   4.175   7.013  0.0012 -0.1641 -0.1283
   41POPC   C4B  925   1.036   3.880   6.709  0.1651 -0.1896  0.0134
   42POPC   NC3  926   8.584   7.195  10.123 -0.0030 -0.1194 -0.2421
   42POPC   PO4  927   8.674   7.337   9.762 -0.0464 -0.1872  0.0315
   42POPC   GL1  928   8.461   7.412   9.392 -0.1624  0.1028  0.1305
   42POPC   GL2  929   8.283   7.328   9.040 -0.4335  0.0709  0.0185
   42POPC   C1A  930   8.564   7.685   9.122  0.0665  0.0881 -0.1230
   42POPC   D2A  931   8.717   7.963   8.746 -0.2874 -0.0551 -0.0031
   42POPC   C3A  932   8.456   8.208   8.460 -0.0844 -0.2613 -0.0990
   42POPC   C4A  933   8.234   8.235   8.102  0.1914 -0.2755  0.1001
   42POPC   C1B  934   8.205   7.571   8.711  0.0993 -0.0182 -0.0477
   42POPC   C2B  935   8.286   7.455   8.261 -0.1421  0.2628  0.1427
   42POPC   C3B  936   8.225   7.587   7.881 -0.2772  0.0344 -0.1225
   42POPC   C4B  937   8.080   7.876   7.588  0.3069  0.1104  0.2090
   43POPC   NC3  938   3.133   3.889   7.961  0.1681  0.4045  0.1825
   43POPC   PO4  939   3.036   4.300   8.080 -0.0627  0.0721  0.3341
   43POPC   GL1  940   3.254   4.300   7.687 -0.3757  0.0686 -0.1859
   43POPC   GL2  941   3.609   4.330   7.572 -0.0756  0.0245 -0.0938
   43POPC   C1A  942   3.177   4.279   7.218 -0.3417  0.2691  0.2953
   43POPC   D2A  943   3.121   4.273   6.737  0.0104 -0.1232  0.0269
   43POPC   C3A  944   2.816   4.570   6.539  0.0750  0.0555 -0.1654
   43POPC   C4A  945   2.453   4.557   6.328  0.0052 -0.3642  0.0460
   43POPC   C1B  946   3.551   3.931   7.443  0.0923 -0.0889 -0.1360
   43POPC   C2B  947   3.189   3.796   7.243 -0.0462  0.2176  0.1224
   43POPC   C3B  948   2.826   3.639   7.321  0.3028 -0.1394  0.1561
   43POPC   C4B  949   2.537   3.306   7.146  0.1201  0.5696 -0.1553
   44POPC   NC3  950   3.854   1.770   8.261 -0.1483  0.0414 -0.1100
   44POPC   PO4  951   3.424   1.815   8.182 -0.1540  0.2251 -0.2065
   44POPC   GL1  952   3.157   1.687   7.926 -0.2068 -0.1175 -0.0915
   44POPC   GL2  953   3.166   1.300   7.881  0.0716 -0.1791 -0.0539
   44POPC   C1A  954   3.142   1.634   7.418 -0.0736 -0.1856  0.0971
   44POPC   D2A  955   3.262   1.653   6.931  0.1046  0.0835 -0.0770
   44POPC   C3A  956   3.521   1.302   6.806  0.0128 -0.1859 -0.4807
   44POPC   C4A  957   3.666   0.893   6.849 -0.3419 -0.2567 -0.1122
   44POPC   C1B  958   3.467   1.249   7.483  0.0601 -0.1926  0.1645
   44POPC   C2B  959   3.891   1.200   7.298  0.0599  0.1212  0.0597
   44POPC   C3B  960   4.296   1.154   7.176 -0.4757  0.3312 -0.1334
   44POPC   C4B  961   4.619   0.905   6.892 -0.0768 -0.3252  0.4238
   45POPC   NC3  962   0.527   3.384   8.590 -0.1974 -0.1605 -0.1635
   45POPC   PO4  963   0.963   3.443   8.607  0.0444  0.1295 -0.3988
   45POPC   GL1  964   0.735   3.473   8.141  0.0578  0.0808  0.1525
   45POPC   GL2  965   0.655   3.715   8.171  0.1250 -0.0409  0.1464
   45POPC   C1A  966   0.412   3.271   7.848 -0.2225  0.3222  0.0976
   45POPC   D2A  967   0.341   3.424   7.438 -0.1855  0.0618  0.0970
   45POPC   C3A  968   0.218   3.205   7.080  0.0449  0.2761 -0.2597
   45POPC   C4A  969   0.118   3.203   6.713  0.4318 -0.0649  0.3246
   45POPC   C1B  970   0.618   3.726   7.683 -0.2500  0.1620  0.0584
   45POPC   C2B  971   0.647   3.807   7.269  0.1222 -0.2664  0.1414
   45POPC   C3B  972   0.575   3.633   6.934 -0.0904  0.1274  0.0813
   45POPC   C4B  973   0.591   3.244   6.558 -0.0142 -0.1572 -0.0106
   46POPC   NC3  974   4.561   2.096   8.329  0.1910  0.3907  0.2583
   46POPC   PO4  975   4.944   2.290   8.233 -0.2254  0.0428 -0.0169
   46POPC   GL1  976   4.677   2.339   7.841  0.0475 -0.0184 -0.0291
   46POPC   GL2  977   4.390   2.063   7.821 -0.1168  0.3068 -0.1817
   46POPC   C1A  978   4.618   2.622   7.490  0.5430  0.1298 -0.2815
   46POPC   D2A  979   4.650   3.017   7.384 -0.0297  0.3189  0.1422
   46POPC   C3A  980   4.782   3.093   7.041  0.1082 -0.0955  0.0430
   46POPC   C4A  981   5.166   3.213   6.782  0.0927  0.0467  0.1554
   46POPC   C1B  982   4.453   2.161   7.393 -0.1436  0.1491 -0.1268
   46POPC   C2B  983   4.005   2.115   7.188 -0.0514 -0.3506  0.1734
   46POPC   C3B  984   3.753   2.417   7.073 -0.0011 -0.1135 -0.0769
   46POPC   C4B  985   3.754   2.840   6.883  0.4488  0.2240  0.3692
   47POPC   NC3  986   0.220   1.103   8.807 -0.2414 -0.0410 -0.0001
   47POPC   PO4  987  -0.233   0.944   8.692  0.0245  0.1303  0.0061
   47POPC   GL1  988   0.055   1.120   8.329 -0.1084  0.2195  0.0262
   47POPC   GL2  989  -0.157   1.070   7.912 -0.1816  0.0448 -0.2390
   47POPC   C1A  990   0.265   0.871   8.064 -0.2904 -0.1451  0.2553
   47POPC   D2A  991   0.586   0.828   7.703  0.1799  0.3164  0.2394
   47POPC   C3A  992   0.943   0.965   7.461 -0.0131 -0.5631 -0.2773
   47POPC   C4A  993   0.919   0.986   6.982 -0.0636  0.3832  0.0985
   47POPC   C1B  994  -0.033   0.730   7.642 -0.1372  0.0508 -0.1379
   47POPC   C2B  995   0.308   0.505   7.457 -0.0478  0.2235  0.0894
   47POPC   C3B  996   0.205   0.268   7.085  0.2190 -0.2998 -0.0904
   47POPC   C4B  997  -0.001   0.326   6.758 -0.1307 -0.3928  0.0351
   48POPC   NC3  998   4.656   9.222   8.850 -0.2211  0.1137  0.1915
   48POPC   PO4  999   5.081   9.133   8.916  0.0281 -0.3286 -0.0748
   48POPC   GL1 1000   5.157   9.194   8.439  0.1778 -0.1513 -0.1524
   48POPC   GL2 1001   4.934   9.435   8.302  0.2286 -0.1424  0.4031
   48POPC   C1A 1002   5.456   9.447   8.129 -0.2133  0.1208  0.2846
   48POPC   D2A 1003   5.637   9.480   7.737  0.1352  0.2578 -0.1529
   48POPC   C3A 1004   5.797   9.132   7.756  0.0070  0.0905 -0.0498
   48POPC   C4A 1005   6.207   9.058   7.800 -0.5593  0.2195  0.4365
   48POPC   C1B 1006   4.502   9.455   8.037  0.0696 -0.4655  0.0561
   48POPC   C2B 1007   4.414   9.354   7.655  0.0904 -0.2601  0.0290
   48POPC   C3B 1008   4.387   9.563   7.312  0.1779  0.0342  0.3101
   48POPC   C4B 1009   4.624   9.597   6.986  0.0116 -0.1824 -0.0814
   49POPC   NC3 1010   4.269   0.424   8.625  0.1631 -0.1478  0.0558
   49POPC   PO4 1011   4.538   0.140   8.631  0.3722 -0.1189  0.0664
   49POPC   GL1 1012   4.537   0.096   8.132  0.3600  0.0448  0.4167
   49POPC   GL2 1013   4.547   0.383   8.005 -0.1449 -0.1192 -0.1079
   49POPC   C1A 1014   4.310   0.047   7.684 -0.0718  0.1335  0.0186
   49POPC   D2A 1015   4.069   0.200   7.332  0.0781 -0.0459  0.0808
   49POPC   C3A 1016   4.109  -0.067   7.062 -0.3121  0.1144  0.3109
   49POPC   C4A 1017   4.262  -0.162   6.712 -0.0397 -0.2393 -0.0866
   49POPC   C1B 1018   4.622   0.526   7.569 -0.0181 -0.0354 -0.1469
   49POPC   C2B 1019   4.791   0.919   7.411  0.2516  0.0408 -0.1698
   49POPC   C3B 1020   4.777   1.302   7.207  0.0528  0.4973  0.2058
   49POPC   C4B 1021   5.115   1.487   6.960  0.2405  0.0407 -0.1553
   50POPC   NC3 1022   1.023   6.056   8.586 -0.1209 -0.3532  0.1028
   50POPC   PO4 1023   1.314   6.412   8.454 -0.1725  0.0711  0.1463
   50POPC   GL1 1024   0.886   6.422   8.130  0.1167 -0.1325 -0.1687
   50POPC   GL2 1025   0.724   6.358   8.317 -0.0533  0.2886  0.1431
   50POPC   C1A 1026   0.798   6.226   7.731 -0.1003 -0.4028 -0.3094
   50POPC   D2A 1027   0.597   6.307   7.269 -0.0246  0.1780  0.1785
   50POPC   C3A 1028   0.751   6.654   7.125 -0.3676  0.1216  0.3409
   50POPC   C4A 1029   1.130   6.763   6.962  0.1343  0.0976 -0.1703
   50POPC   C1B 1030   0.349   6.394   7.987  0.0222  0.1758 -0.0387
   50POPC   C2B 1031   0.058   6.348   7.658 -0.0729  0.3842 -0.1537
   50POPC   C3B 1032  -0.007   6.309   7.266 -0.3830  0.5360 -0.0674
   50POPC   C4B 1033  -0.061   6.398   6.928 -0.2736 -0.3104 -0.0315
   51POPC   NC3 1034   3.946   8.549   9.070 -0.0985 -0.1596 -0.2979
   51POPC   PO4 1035   4.258   8.878   9.085  0.0817  0.0642 -0.1953
   51POPC   GL1 1036   4.388   8.519   8.761  0.2619  0.1379 -0.1960
   51POPC   GL2 1037   4.739   8.710   8.698  0.0350  0.2314  0.4977
   51POPC   C1A 1038   4.484   8.496   8.338  0.2939 -0.2018  0.1083
   51POPC   D2A 1039   4.696   8.233   8.006  0.1198  0.1262  0.0139
   51POPC   C3A 1040   4.652   8.210   7.621 -0.0872 -0.3166 -0.1457
   51POPC   C4A 1041   4.589   7.997   7.274  0.1593  0.0833  0.1617
   51POPC   C1B 1042   4.726   8.930   8.246  0.1142  0.2429 -0.0193
   51POPC   C2B 1043   4.860   9.153   7.861  0.1022 -0.4997 -0.2343
   51POPC   C3B 1044   5.112   9.305   7.533  0.0597 -0.0721  0.1760
   51POPC   C4B 1045   5.518   9.116   7.363 -0.0037  0.2843  0.2519
   52POPC   NC3 1046   9.456   2.813   8.731 -0.2533  0.0433 -0.1141
   52POPC   PO4 1047   9.074   3.016   8.509 -0.0282  0.2740  0.2640
   52POPC   GL1 1048   9.086   2.814   8.139 -0.0820  0.0887 -0.2615
   52POPC   GL2 1049   8.816   2.612   8.300  0.1134  0.6109 -0.2324
   52POPC   C1A 1050   9.173   2.686   7.741 -0.1562  0.0991 -0.4470
   52POPC   D2A 1051   9.587   2.624   7.615  0.0018  0.3046  0.1077
   52POPC   C3A 1052   9.687   2.733   7.276 -0.1615 -0.1555  0.4757
   52POPC   C4A 1053   9.650   3.021   6.999  0.0293 -0.1065 -0.0279
   52POPC   C1B 1054   8.683   2.705   7.887 -0.1788 -0.0643  0.1460
   52POPC   C2B 1055   8.703   2.549   7.511 -0.0266  0.0664  0.0605
   52POPC   C3B 1056   8.752   2.638   7.066  0.4346 -0.1294  0.2357
   52POPC   C4B 1057   9.085   2.548   6.770 -0.2502  0.1707 -0.0106
   53POPC   NC3 1058   3.739   3.141   8.192  0.1442 -0.1138  0.1295
   53POPC   PO4 1059   3.795   2.730   8.017 -0.3312  0.1122  0.0439
   53POPC   GL1 1060   3.699   2.505   7.615 -0.1810 -0.1683 -0.1332
   53POPC   GL2 1061   3.919   2.409   7.539 -0.2366  0.2476  0.0655
   53POPC   C1A 1062   3.320   2.650   7.270 -0.1591 -0.0888  0.0272
   53POPC   D2A 1063   3.224   2.967   6.926  0.1694  0.0616  0.0406
   53POPC   C3A 1064   2.815   2.887   6.959  0.0016 -0.0860 -0.1066
   53POPC   C4A 1065   2.367   2.822   7.120 -0.3571 -0.0755 -0.2178
   53POPC   C1B 1066   4.204   2.576   7.217  0.0434  0.0576 -0.0034
   53POPC   C2B 1067   4.315   2.880   6.926 -0.2262 -0.1383  0.1195
   53POPC   C3B 1068   4.035   3.258   6.784  0.1096  0.3213  0.0379
   53POPC   C4B 1069   3.775   3.623   6.582 -0.0768  0.0273  0.2999
   54POPC   NC3 1070   0.145   9.715   8.636 -0.4709  0.1453 -0.2246
   54POPC   PO4 1071   0.439   9.348   8.600 -0.1850  0.2022  0.0359
   54POPC   GL1 1072   0.409   9.575   8.221  0.0422  0.2304  0.2252
   54POPC   GL2 1073   0.275   9.765   8.114 -0.1053 -0.1565  0.1570
   54POPC   C1A 1074   0.457   9.411   7.827  0.0601 -0.2858 -0.2302
   54POPC   D2A 1075   0.746   9.179   7.637 -0.2192 -0.0908  0.3271
   54POPC   C3A 1076   0.603   8.735   7.520  0.1355  0.2840  0.0874
   54POPC   C4A 1077   0.501   8.449   7.785 -0.1741 -0.1198  0.0895
   54POPC   C1B 1078   0.316   9.960   7.674  0.0848 -0.0656  0.0375
   54POPC   C2B 1079   0.242   9.692   7.294  0.3659 -0.0231 -0.1442
   54POPC   C3B 1080   0.106   9.400   6.876  0.2296  0.0161  0.1702
   54POPC   C4B 1081  -0.148   9.165   6.851  0.2168  0.0565 -0.1332
   55POPC   NC3 1082   9.824   1.951   8.865  0.1732 -0.1233  0.0307
   55POPC   PO4 1083   9.667   2.292   8.740 -0.2914  0.3896 -0.0084
   55POPC   GL1 1084   9.843   2.166   8.246 -0.1730  0.0576 -0.0367
   55POPC   GL2 1085   9.852   2.370   8.008  0.0144 -0.2171  0.1227
   55POPC   C1A 1086  10.008   1.886   7.991 -0.1305 -0.1152  0.2107
   55POPC   D2A 1087  10.164   1.454   8.012 -0.0807  0.2324 -0.1224
   55POPC   C3A 1088  10.055   1.216   7.555  0.1013  0.0994  0.1063
   55POPC   C4A 1089  10.297   0.997   7.284  0.0407  0.1701 -0.0160
   55POPC   C1B 1090   9.671   2.138   7.654 -0.0422 -0.0452  0.1346
   55POPC   C2B 1091   9.419   1.858   7.366  0.0318 -0.0890 -0.1584
   55POPC   C3B 1092   9.502   1.431   7.098  0.1766  0.2052  0.2333
   55POPC   C4B 1093   9.816   1.206   6.974 -0.1043  0.0168  0.2946
   56POPC   NC3 1094   6.574   1.098   8.218  0.1990 -0.0706 -0.0001
   56POPC   PO4 1095   6.504   1.441   8.424 -0.3448 -0.0473 -0.0670
   56POPC   GL1 1096   6.538   1.573   7.963  0.1065 -0.1549 -0.0043
   56POPC   GL2 1097   6.872   1.630   7.987  0.0157  0.0210 -0.1108
   56POPC   C1A 1098   6.751   1.524   7.507 -0.3559  0.2079 -0.3002
   56POPC   D2A 1099   6.651   1.574   7.050  0.0037  0.0216 -0.3280
   56POPC   C3A 1100   6.915   1.670   6.747 -0.1571 -0.2679  0.0610
   56POPC   C4A 1101   7.139   1.984   6.619 -0.0472 -0.1443  0.3615
   56POPC   C1B 1102   7.194   1.399   7.930 -0.0654 -0.0764  0.3600
   56POPC   C2B 1103   7.271   1.090   7.550  0.0691  0.0781  0.1127
   56POPC   C3B 1104   7.470   0.998   7.110  0.2025 -0.1604 -0.2039
   56POPC   C4B 1105   7.838   0.771   6.768  0.0606  0.6315 -0.1918
   57POPC   NC3 1106   5.834   0.056   8.897  0.1628 -0.1197  0.1442
   57POPC   PO4 1107   6.069   0.212   8.500  0.0281 -0.0186  0.0129
   57POPC   GL1 1108   6.093  -0.079   8.223  0.0295  0.2285  0.2072
   57POPC   GL2 1109   6.383  -0.311   8.225 -0.0877  0.1610  0.1436
   57POPC   C1A 1110   5.948  -0.536   8.122  0.2374  0.1953 -0.3626
   57POPC   D2A 1111   6.152  -0.958   8.244 -0.0700  0.1054  0.1561
   57POPC   C3A 1112   6.549  -1.288   8.170 -0.3330 -0.0307 -0.1965
   57POPC   C4A 1113   6.561  -1.742   8.076  0.1171 -0.0667  0.0149
   57POPC   C1B 1114   6.676  -0.107   7.964 -0.2529  0.0852 -0.1936
   57POPC   C2B 1115   6.797  -0.062   7.524 -0.0249 -0.0184 -0.0587
   57POPC   C3B 1116   6.473   0.005   7.284 -0.1297  0.1198 -0.2633
   57POPC   C4B 1117   6.128  -0.121   7.104 -0.0668  0.2299 -0.0674
   58POPC   NC3 1118   9.779   3.630   8.712  0.3205  0.2977  0.1612
   58POPC   PO4 1119   9.951   3.288   8.673  0.1366  0.0318  0.1666
   58POPC   GL1 1120   9.961   3.397   8.291  0.2194  0.1755 -0.4091
   58POPC   GL2 1121  10.109   3.611   8.298  0.0247 -0.1631 -0.0714
   58POPC   C1A 1122   9.823   3.365   7.871 -0.0636  0.0583  0.2521
   58POPC   D2A 1123   9.717   3.256   7.432  0.1886  0.0567  0.1476
   58POPC   C3A 1124   9.369   3.526   7.222  0.4474  0.1073  0.0027
   58POPC   C4A 1125   8.963   3.601   7.206 -0.1508  0.0818 -0.1215
   58POPC   C1B 1126  10.073   3.785   7.928 -0.3568  0.2426 -0.0074
   58POPC   C2B 1127  10.176   4.005   7.505  0.0505  0.0563 -0.1925
   58POPC   C3B 1128  10.084   4.016   7.099  0.2966  0.0803  0.1202
   58POPC   C4B 1129  10.030   4.288   6.699  0.1754  0.0605  0.2135
   59POPC   NC3 1130   8.791   7.100   9.164  0.0216  0.0085 -0.2109
   59POPC   PO4 1131   8.956   7.099   9.446  0.2754 -0.0938 -0.3086
   59POPC   GL1 1132   9.208   7.282   8.947  0.4065  0.0251 -0.3445
   59POPC   GL2 1133   9.122   7.621   8.915 -0.0283  0.2931 -0.2975
   59POPC   C1A 1134   9.302   7.254   8.479 -0.0972 -0.2192  0.0519
   59POPC   D2A 1135   9.007   7.353   8.227 -0.0906 -0.1988 -0.1145
   59POPC   C3A 1136   8.710   7.326   7.975  0.1174 -0.0630  0.1364
   59POPC   C4A 1137   8.404   7.027   7.808 -0.2710  0.0487 -0.1388
   59POPC   C1B 1138   8.710   7.471   8.607  0.0297 -0.1647  0.0898
   59POPC   C2B 1139   8.646   7.823   8.223  0.2510  0.1544  0.0763
   59POPC   C3B 1140   8.741   8.245   7.979  0.1223 -0.1001 -0.0923
   59POPC   C4B 1141   8.853   8.560   7.818  0.0031  0.0544  0.0250
   60POPC   NC3 1142   2.561   6.466   8.547  0.1116 -0.0434 -0.0443
   60POPC   PO4 1143   2.445   6.062   8.607  0.4110 -0.1979  0.0131
   60POPC   GL1 1144   2.382   6.220   8.169 -0.0206  0.2158 -0.0406
   60POPC   GL2 1145   2.797   6.461   8.117  0.0188  0.1076  0.0694
   60POPC   C1A 1146   2.577   6.466   7.677 -0.0269  0.2633  0.3217
   60POPC   D2A 1147   2.501   6.491   7.247  0.1288 -0.2266 -0.1179
   60POPC   C3A 1148   2.801   6.208   6.949  0.0902 -0.3166 -0.0378
   60POPC   C4A 1149   2.972   6.175   6.667 -0.0648 -0.0148  0.0833
   60POPC   C1B 1150   3.035   6.491   7.771 -0.3897 -0.1518 -0.1736
   60POPC   C2B 1151   2.970   6.582   7.282  0.0701  0.2031 -0.1995
   60POPC   C3B 1152   3.213   6.533   6.903 -0.1161  0.0764  0.0967
   60POPC   C4B 1153   3.438   6.282   6.610  0.2485  0.1910 -0.1468
   61POPC   NC3 1154   2.117   1.590   8.585 -0.2332  0.4377  0.0831
   61POPC   PO4 1155   2.186   2.022   8.659  0.0423 -0.5062 -0.0634
   61POPC   GL1 1156   1.861   1.923   8.306  0.3662  0.1952 -0.0779
   61POPC   GL2 1157   1.541   2.048   8.419  0.3045  0.1309  0.0197
   61POPC   C1A 1158   1.764   1.806   7.910  0.0455 -0.0370  0.0753
   61POPC   D2A 1159   2.169   1.597   7.803  0.1335  0.0149  0.3255
   61POPC   C3A 1160   2.160   1.458   7.421  0.1142  0.0867  0.0731
   61POPC   C4A 1161   2.203   1.348   7.016  0.1716 -0.1674 -0.0575
   61POPC   C1B 1162   1.278   1.997   8.015  0.5437 -0.0329 -0.0927
   61POPC   C2B 1163   1.178   2.127   7.562  0.0574  0.1511  0.0758
   61POPC   C3B 1164   1.272   2.433   7.373 -0.0138  0.1571 -0.0528
   61POPC   C4B 1165   1.591   2.364   6.973 -0.1740  0.2083 -0.0997
   62POPC   NC3 1166   7.488   9.789   8.759  0.0799  0.1219 -0.1208
   62POPC   PO4 1167   7.165  10.020   8.590  0.2912  0.1548  0.1906
   62POPC   GL1 1168   7.044  10.199   8.183  0.1126  0.2611 -0.2059
   62POPC   GL2 1169   7.209  10.632   8.148 -0.2034 -0.3489  0.1947
   62POPC   C1A 1170   7.147  10.073   7.836  0.2685  0.0117  0.0698
   62POPC   D2A 1171   7.364  10.147   7.499 -0.1268  0.0572  0.0670
   62POPC   C3A 1172   7.060  10.127   7.056 -0.1818 -0.1507 -0.0539
   62POPC   C4A 1173   7.218   9.971   6.635 -0.2929 -0.2483 -0.1486
   62POPC   C1B 1174   7.206  10.541   7.770  0.1428 -0.0753 -0.1129
   62POPC   C2B 1175   7.078  10.537   7.378  0.0803 -0.1173 -0.0926
   62POPC   C3B 1176   7.002  10.657   6.890 -0.4774 -0.2319 -0.1863
   62POPC   C4B 1177   6.797  10.662   6.456  0.1640 -0.1540 -0.1779
   63POPC   NC3 1178   4.683   5.609   8.694 -0.0778 -0.2557 -0.0524
   63POPC   PO4 1179   4.906   5.857   8.877 -0.1181 -0.0635  0.0894
   63POPC   GL1 1180   4.944   5.931   8.442 -0.0472 -0.0507  0.1599
   63POPC   GL2 1181   4.635   5.835   8.202 -0.1287 -0.1606  0.0227
   63POPC   C1A 1182   5.102   5.909   8.057  0.0241 -0.0755  0.0801
   63POPC   D2A 1183   5.295   5.794   7.709 -0.1146  0.0081  0.0873
   63POPC   C3A 1184   5.088   5.555   7.435 -0.0802 -0.3085 -0.5410
   63POPC   C4A 1185   5.023   5.601   6.992  0.0388  0.1696 -0.0743
   63POPC   C1B 1186   4.717   5.800   7.688 -0.0793 -0.0551  0.0734
   63POPC   C2B 1187   4.615   5.767   7.229  0.2981 -0.1622  0.0156
   63POPC   C3B 1188   4.367   5.683   6.855 -0.0068  0.2838 -0.2341
   63POPC   C4B 1189   4.323   5.435   6.514 -0.3094 -0.0815 -0.0658
   64POPC   NC3 1190   7.318   5.520   9.434  0.1278 -0.0551  0.3065
   64POPC   PO4 1191   7.683   5.377   9.163  0.1142  0.0406  0.2801
   64POPC   GL1 1192   7.471   5.610   8.858 -0.1335 -0.1652 -0.1724
   64POPC   GL2 1193   7.207   5.597   8.882  0.0420 -0.1409  0.1028
   64POPC   C1A 1194   7.541   5.743   8.481 -0.0935 -0.1591  0.1648
   64POPC   D2A 1195   7.549   6.094   8.189  0.0754 -0.0345  0.0349
   64POPC   C3A 1196   7.802   6.363   7.942 -0.2733 -0.1308  0.0708
   64POPC   C4A 1197   7.969   6.776   7.756  0.1550 -0.2893 -0.4073
   64POPC   C1B 1198   7.262   5.351   8.473 -0.1519 -0.0794  0.0016
   64POPC   C2B 1199   7.242   5.183   8.011 -0.1013 -0.0340 -0.0304
   64POPC   C3B 1200   7.118   5.376   7.541  0.1040  0.0478 -0.0694
   64POPC   C4B 1201   6.879   5.406   7.180 -0.0752 -0.0170  0.0734
   65POPC   NC3 1202   5.517   2.225   8.560  0.5069 -0.2458 -0.3160
   65POPC   PO4 1203   5.344   2.010   8.283 -0.2911  0.1340 -0.3326
   65POPC   GL1 1204   5.274   1.968   7.847 -0.3320  0.0976  0.0388
   65POPC   GL2 1205   5.620   2.104   7.696 -0.1174 -0.1320 -0.0812
   65POPC   C1A 1206   5.051   2.216   7.438  0.1218  0.0571 -0.1898
   65POPC   D2A 1207   5.139   2.291   7.037  0.2752 -0.1390 -0.0770
   65POPC   C3A 1208   5.112   1.951   6.736  0.0123 -0.2187 -0.0974
   65POPC   C4A 1209   5.215   1.992   6.290 -0.0071  0.0930  0.0988
   65POPC   C1B 1210   5.676   2.239   7.248  0.0305 -0.0497  0.3156
   65POPC   C2B 1211   5.617   2.152   6.823 -0.1342  0.1181 -0.2028
   65POPC   C3B 1212   5.354   2.381   6.546 -0.0640 -0.0997  0.2115
   65POPC   C4B 1213   5.021   2.467   6.258 -0.0085  0.2419  0.3411
   66POPC   NC3 1214   0.491   7.157   8.778 -0.1524  0.3359  0.3230
   66POPC   PO4 1215   0.434   6.621   8.896 -0.2941 -0.2278 -0.0606
   66POPC   GL1 1216   0.569   6.822   8.438  0.1073  0.2226 -0.0523
   66POPC   GL2 1217   0.318   6.920   8.351 -0.2695 -0.1072 -0.2484
   66POPC   C1A 1218   0.825   6.925   8.000  0.0499 -0.1918 -0.2335
   66POPC   D2A 1219   1.048   7.183   7.651  0.2034  0.1544  0.1665
   66POPC   C3A 1220   1.315   7.490   7.330 -0.0434  0.1425  0.2150
   66POPC   C4A 1221   1.219   7.554   6.935  0.3223 -0.0770  0.2665
   66POPC   C1B 1222   0.446   7.237   8.081  0.0159 -0.2651  0.4772
   66POPC   C2B 1223   0.577   7.314   7.737  0.1582  0.2159 -0.0463
   66POPC   C3B 1224   0.638   7.089   7.419  0.0230 -0.0125  0.2242
   66POPC   C4B 1225   0.905   7.205   7.186 -0.3576 -0.1556 -0.0335
   67POPC   NC3 1226   4.688   7.978   9.388  0.2214  0.2287  0.1481
   67POPC   PO4 1227   4.254   7.856   9.232  0.0974 -0.1114  0.3563
   67POPC   GL1 1228   4.410   7.798   8.859  0.0151 -0.3540 -0.1240
   67POPC   GL2 1229   4.629   8.053   8.914 -0.0901 -0.1756 -0.1150
   67POPC   C1A 1230   4.327   7.702   8.441 -0.1299  0.3268  0.1628
   67POPC   D2A 1231   4.403   7.330   8.222 -0.0447 -0.0556  0.1087
   67POPC   C3A 1232   4.678   7.248   7.918 -0.1580  0.2960  0.3726
   67POPC   C4A 1233   4.874   7.389   7.500  0.3371 -0.0374 -0.2678
   67POPC   C1B 1234   4.796   7.969   8.504  0.0230  0.1493  0.2104
   67POPC   C2B 1235   4.769   7.732   8.127  0.3610  0.0996 -0.2463
   67POPC   C3B 1236   4.489   7.667   7.714 -0.0769 -0.0359 -0.0227
   67POPC   C4B 1237   4.136   7.951   7.634 -0.0211  0.1644  0.0602
   68POPC   NC3 1238   7.465   3.470   8.370  0.1670  0.0127 -0.0192
   68POPC   PO4 1239   7.563   3.004   8.225  0.0696  0.0884  0.2220
   68POPC   GL1 1240   7.454   2.774   7.833 -0.0325 -0.1229 -0.0898
   68POPC   GL2 1241   7.128   2.666   7.860 -0.1357  0.0823  0.4627
   68POPC   C1A 1242   7.651   2.587   7.465  0.0910 -0.0802 -0.1248
   68POPC   D2A 1243   7.772   2.384   7.166  0.0077 -0.0686 -0.0447
   68POPC   C3A 1244   7.645   2.460   6.678  0.0953 -0.1632 -0.0548
   68POPC   C4A 1245   7.418   2.273   6.216 -0.0555  0.2671  0.1047
   68POPC   C1B 1246   7.097   2.824   7.388 -0.2733  0.0718  0.1322
   68POPC   C2B 1247   7.026   3.073   7.066 -0.1836  0.1572  0.0799
   68POPC   C3B 1248   7.382   3.199   6.742  0.0225 -0.3688  0.4047
   68POPC   C4B 1249   7.437   3.227   6.281 -0.5341 -0.0515  0.1677
   69POPC   NC3 1250   8.508   5.005   8.733  0.1951 -0.2964 -0.3066
   69POPC   PO4 1251   8.578   4.589   8.502  0.1635 -0.2306  0.2067
   69POPC   GL1 1252   8.365   4.664   8.132  0.2149 -0.0449 -0.2057
   69POPC   GL2 1253   8.437   4.404   8.015  0.0477 -0.0501 -0.0391
   69POPC   C1A 1254   8.478   4.829   7.722  0.0281 -0.0338 -0.0494
   69POPC   D2A 1255   8.398   4.572   7.262  0.0796 -0.0502 -0.3625
   69POPC   C3A 1256   8.246   4.279   6.896 -0.1419 -0.2328  0.0479
   69POPC   C4A 1257   8.595   3.959   6.800 -0.2578  0.0091 -0.0038
   69POPC   C1B 1258   8.490   4.218   7.602 -0.0426  0.1149  0.2374
   69POPC   C2B 1259   8.597   4.073   7.291  0.1888 -0.0288 -0.0851
   69POPC   C3B 1260   8.974   4.313   7.116 -0.0143 -0.2091  0.0525
   69POPC   C4B 1261   9.174   4.523   6.842  0.1220  0.0900 -0.2056
   70POPC   NC3 1262   3.673   4.383   8.451 -0.4544  0.0178  0.3236
   70POPC   PO4 1263   3.629   4.546   8.041  0.1700 -0.1828  0.0595
   70POPC   GL1 1264   3.640   4.952   7.718  0.0427  0.1206 -0.1672
   70POPC   GL2 1265   3.609   5.280   7.824 -0.0738  0.2913 -0.4337
   70POPC   C1A 1266   3.926   5.240   7.484  0.1081 -0.1510  0.0794
   70POPC   D2A 1267   3.980   5.630   7.293  0.0432 -0.0251 -0.1510
   70POPC   C3A 1268   3.856   5.676   6.850 -0.1567 -0.0304  0.1341
   70POPC   C4A 1269   3.916   5.618   6.345  0.1181 -0.0075  0.0721
   70POPC   C1B 1270   3.493   5.595   7.456  0.1903  0.0655  0.1545
   70POPC   C2B 1271   3.471   5.354   7.034  0.1598 -0.1631 -0.1528
   70POPC   C3B 1272   3.493   5.299   6.545  0.0941 -0.0056 -0.1942
   70POPC   C4B 1273   3.338   5.493   6.166  0.1906  0.0318 -0.1762
   71POPC   NC3 1274   1.733   8.446   8.358  0.0264 -0.2997  0.3372
   71POPC   PO4 1275   2.078   8.208   8.527 -0.2534 -0.0236 -0.0356
   71POPC   GL1 1276   1.959   8.066   8.101  0.2983  0.0505  0.0729
   71POPC   GL2 1277   2.021   7.734   8.033  0.0521 -0.0652 -0.1022
   71POPC   C1A 1278   1.903   8.120   7.693  0.0393  0.1591  0.1659
   71POPC   D2A 1279   1.536   8.027   7.402 -0.0683  0.1164  0.0768
   71POPC   C3A 1280   1.218   7.981   7.188  0.0829  0.1593  0.1908
   71POPC   C4A 1281   0.852   8.142   6.868 -0.0588  0.1295  0.1182
   71POPC   C1B 1282   2.155   7.555   7.668  0.1702 -0.2769  0.2598
   71POPC   C2B 1283   2.391   7.428   7.403  0.1182 -0.0694  0.1975
   71POPC   C3B 1284   2.479   7.411   6.953  0.0433  0.0195 -0.3307
   71POPC   C4B 1285   2.510   7.153   6.659 -0.1320 -0.1248 -0.1056
   72POPC   NC3 1286   6.946   8.487   9.756 -0.0751 -0.0454 -0.0083
   72POPC   PO4 1287   7.189   8.577   9.473  0.0443 -0.2200 -0.0048
   72POPC   GL1 1288   6.869   8.493   9.238  0.1590 -0.0660 -0.0368
   72POPC   GL2 1289   7.069   8.408   8.976  0.1081  0.3297  0.2267
   72POPC   C1A 1290   6.627   8.131   9.008  0.1442 -0.0139  0.1831
   72POPC   D2A 1291   6.313   7.788   9.172  0.2620 -0.0394  0.2387
   72POPC   C3A 1292   5.858   7.621   9.038 -0.2009 -0.0884 -0.0449
   72POPC   C4A 1293   5.539   7.513   8.672 -0.0322 -0.1338 -0.3342
   72POPC   C1B 1294   7.347   8.223   8.678 -0.0027  0.0116 -0.2354
   72POPC   C2B 1295   7.292   8.130   8.255  0.0271 -0.1815  0.0279
   72POPC   C3B 1296   7.302   8.082   7.859  0.0814 -0.0758  0.0423
   72POPC   C4B 1297   7.570   8.122   7.547  0.0276 -0.2975 -0.0520
   73POPC   NC3 1298   1.713   9.494   8.611  0.0459 -0.0222  0.1389
   73POPC   PO4 1299   1.293   9.267   8.710  0.0860  0.3038  0.3623
   73POPC   GL1 1300   1.260   9.326   8.244 -0.1726  0.1416 -0.2335
   73POPC   GL2 1301   1.576   9.444   8.126 -0.0940 -0.0828  0.1040
   73POPC   C1A 1302   1.187   9.319   7.829 -0.0814 -0.1331 -0.0706
   73POPC   D2A 1303   1.336   9.320   7.431 -0.0830 -0.2302 -0.2222
   73POPC   C3A 1304   1.306   9.364   6.991 -0.1345 -0.1345  0.0034
   73POPC   C4A 1305   1.068   9.678   6.772  0.0680  0.0585  0.3914
   73POPC   C1B 1306   1.795   9.295   7.799  0.0523 -0.5013 -0.0918
   73POPC   C2B 1307   2.180   9.389   7.675 -0.1602  0.1288  0.2200
   73POPC   C3B 1308   2.573   9.176   7.704 -0.0779  0.0590  0.0004
   73POPC   C4B 1309   2.911   8.912   7.568 -0.2366  0.0585  0.2123
   74POPC   NC3 1310   5.862   2.118   8.227 -0.0752  0.0115 -0.1444
   74POPC   PO4 1311   5.761   2.620   8.273  0.0317 -0.1129 -0.0278
   74POPC   GL1 1312   5.845   2.742   7.869  0.3147 -0.1488  0.4079
   74POPC   GL2 1313   6.064   2.997   7.763  0.0319 -0.1452  0.2228
   74POPC   C1A 1314   5.490   2.648   7.542  0.4640 -0.0166 -0.2360
   74POPC   D2A 1315   5.081   2.746   7.233  0.0080 -0.1678  0.2023
   74POPC   C3A 1316   4.726   2.562   6.958  0.6447  0.3316 -0.1438
   74POPC   C4A 1317   5.019   2.707   6.716  0.2728 -0.1377  0.2003
   74POPC   C1B 1318   5.923   2.792   7.360  0.1621 -0.0875 -0.3886
   74POPC   C2B 1319   5.607   2.727   7.002 -0.0144  0.1423 -0.1366
   74POPC   C3B 1320   5.521   2.854   6.610 -0.0860  0.1548 -0.0538
   74POPC   C4B 1321   5.331   2.859   6.178  0.8373 -0.0185 -0.2744
   75POPC   NC3 1322   3.025   1.936   8.441 -0.2035 -0.0641 -0.2280
   75POPC   PO4 1323   3.250   2.320   8.307 -0.0445 -0.0414 -0.1343
   75POPC   GL1 1324   3.055   2.195   7.975 -0.2691  0.1762  0.1921
   75POPC   GL2 1325   3.402   2.124   7.757  0.1389  0.2309  0.0464
   75POPC   C1A 1326   2.807   1.961   7.576  0.0460 -0.1513 -0.0807
   75POPC   D2A 1327   2.861   1.989   7.168  0.1211 -0.2635 -0.0330
   75POPC   C3A 1328   2.445   1.902   6.904 -0.0362  0.0119  0.3394
   75POPC   C4A 1329   1.975   1.804   7.000  0.1919 -0.3198 -0.1758
   75POPC   C1B 1330   3.402   2.145   7.332 -0.0229 -0.0274  0.2008
   75POPC   C2B 1331   3.442   2.099   6.824 -0.0218  0.0166 -0.0254
   75POPC   C3B 1332   3.730   1.879   6.586 -0.0910 -0.0377 -0.2830
   75POPC   C4B 1333   3.863   1.855   6.265  0.0752 -0.0379 -0.0202
   76POPC   NC3 1334   8.494   3.038   8.446 -0.2460 -0.0844 -0.0306
   76POPC   PO4 1335   8.478   3.536   8.341  0.1481 -0.0829 -0.0341
   76POPC   GL1 1336   8.795   3.471   7.964 -0.4459  0.2737  0.0893
   76POPC   GL2 1337   8.789   3.222   8.081 -0.1228 -0.2277  0.1148
   76POPC   C1A 1338   9.000   3.619   7.702  0.0605 -0.1410  0.1525
   76POPC   D2A 1339   9.093   4.007   7.493 -0.0807 -0.0838  0.1195
   76POPC   C3A 1340   9.436   4.104   7.189 -0.0906  0.2150  0.1813
   76POPC   C4A 1341   9.613   4.362   7.014  0.1686 -0.4249  0.1115
   76POPC   C1B 1342   8.800   3.107   7.625 -0.2252  0.2622 -0.4192
   76POPC   C2B 1343   8.588   3.129   7.246 -0.0362 -0.0348 -0.2988
   76POPC   C3B 1344   8.452   3.494   6.996 -0.0278  0.0036  0.1534
   76POPC   C4B 1345   8.181   3.820   7.108 -0.1996 -0.0256  0.1634
   77POPC   NC3 1346   9.465   9.551   9.215 -0.2145  0.2825 -0.0011
   77POPC   PO4 1347   9.630   9.473   8.772 -0.1008 -0.0508  0.0560
   77POPC   GL1 1348   9.694   9.389   8.367 -0.0267 -0.0642  0.0969
   77POPC   GL2 1349   9.905   9.320   8.357  0.0679  0.0179 -0.2724
   77POPC   C1A 1350   9.542   9.552   7.958  0.2256 -0.1079 -0.0330
   77POPC   D2A 1351   9.756   9.632   7.539 -0.2948 -0.2766  0.0927
   77POPC   C3A 1352   9.616   9.750   7.079 -0.2571 -0.1452 -0.2075
   77POPC   C4A 1353   9.562   9.572   6.629  0.0323 -0.3571  0.0387
   77POPC   C1B 1354   9.976   9.169   7.978  0.2053 -0.0741  0.3876
   77POPC   C2B 1355  10.120   9.220   7.482  0.0180 -0.0376  0.0470
   77POPC   C3B 1356  10.441   9.135   7.035  0.1659 -0.0689 -0.1810
   77POPC   C4B 1357  10.803   9.415   7.147  0.2422  0.1620 -0.1648
   78POPC   NC3 1358   4.445   1.282   8.446 -0.1657  0.2794 -0.2327
   78POPC   PO4 1359   4.340   1.639   8.412 -0.4679  0.0660  0.0988
   78POPC   GL1 1360   4.421   1.586   7.998  0.1148 -0.2574 -0.3098
   78POPC   GL2 1361   4.188   1.462   7.799 -0.0721 -0.1468 -0.1453
   78POPC   C1A 1362   4.575   1.608   7.548 -0.0195  0.0481 -0.2417
   78POPC   D2A 1363   4.811   1.894   7.199 -0.0561  0.5081 -0.2004
   78POPC   C3A 1364   4.471   2.107   6.871 -0.1356  0.0333 -0.3622
   78POPC   C4A 1365   4.165   2.333   6.730  0.2923  0.2502  0.2130
   78POPC   C1B 1366   4.125   1.628   7.448  0.3342  0.0276  0.2839
   78POPC   C2B 1367   4.344   1.652   7.153  0.1742  0.0515 -0.3901
   78POPC   C3B 1368   4.642   1.624   6.789 -0.1741 -0.0832  0.1763
   78POPC   C4B 1369   4.937   1.607   6.422 -0.2328  0.1207  0.0626
   79POPC   NC3 1370   9.214   2.013   8.395  0.3164 -0.0673 -0.3688
   79POPC   PO4 1371   9.463   1.806   8.529 -0.1255 -0.3231  0.5070
   79POPC   GL1 1372   9.632   1.652   8.163  0.2197  0.1202 -0.1697
   79POPC   GL2 1373   9.435   1.941   7.997 -0.1249  0.2060 -0.2071
   79POPC   C1A 1374   9.705   1.638   7.697  0.0283  0.1610  0.0695
   79POPC   D2A 1375   9.937   1.599   7.251 -0.1632 -0.0018  0.2651
   79POPC   C3A 1376  10.039   1.815   6.917 -0.0969  0.0589 -0.1055
   79POPC   C4A 1377  10.209   1.589   6.491  0.3020 -0.1959 -0.6155
   79POPC   C1B 1378   9.144   1.814   7.753  0.1869 -0.1247 -0.0389
   79POPC   C2B 1379   8.959   1.543   7.491 -0.0490 -0.0256  0.2445
   79POPC   C3B 1380   8.893   1.241   7.254 -0.0813 -0.3437  0.1567
   79POPC   C4B 1381   8.609   0.835   7.382 -0.1275 -0.2709 -0.1057
   80POPC   NC3 1382   2.928   0.887   8.666  0.0969  0.1436  0.0034
   80POPC   PO4 1383   3.280   0.551   8.809  0.1538 -0.0877 -0.1626
   80POPC   GL1 1384   3.200   0.564   8.400  0.0014  0.0972 -0.2461
   80POPC   GL2 1385   3.244   0.886   8.214  0.0691  0.0336 -0.1030
   80POPC   C1A 1386   2.915   0.463   8.075 -0.1637 -0.1661 -0.1773
   80POPC   D2A 1387   2.591   0.581   7.750 -0.1147 -0.0891 -0.0194
   80POPC   C3A 1388   2.782   0.215   7.654  0.1771 -0.1461 -0.1580
   80POPC   C4A 1389   3.057  -0.065   8.024  0.1671 -0.2267 -0.1117
   80POPC   C1B 1390   3.084   0.830   7.779  0.0057  0.2586  0.0780
   80POPC   C2B 1391   2.872   1.034   7.511  0.0972  0.0427 -0.3341
   80POPC   C3B 1392   2.584   0.939   7.321 -0.2352  0.1481  0.0525
   80POPC   C4B 1393   2.412   0.802   6.883 -0.3108 -0.0315  0.1687
   81POPC   NC3 1394   3.940   6.162   8.858 -0.1523 -0.1178 -0.3593
   81POPC   PO4 1395   3.647   6.119   8.566 -0.1770 -0.0662 -0.1329
   81POPC   GL1 1396   3.874   6.226   8.299  0.3059 -0.0434 -0.1818
   81POPC   GL2 1397   3.529   6.088   8.076 -0.1001  0.0435 -0.0991
   81POPC   C1A 1398   3.982   6.308   7.935  0.3501  0.1335  0.1553
   81POPC   D2A 1399   4.247   6.026   7.598 -0.2085 -0.1932 -0.1568
   81POPC   C3A 1400   4.266   6.145   7.215 -0.1797  0.3099  0.0662
   81POPC   C4A 1401   4.467   6.141   6.761  0.0944 -0.2832 -0.0048
   81POPC   C1B 1402   3.767   5.825   7.767 -0.1451 -0.0425  0.2138
   81POPC   C2B 1403   3.709   6.114   7.492  0.1843 -0.2926 -0.2500
   81POPC   C3B 1404   3.732   6.297   7.080 -0.0590  0.0868 -0.0541
   81POPC   C4B 1405   4.139   6.593   6.897  0.3386  0.4161 -0.3789
   82POPC   NC3 1406   2.569   8.287   8.816  0.0660  0.0834 -0.0279
   82POPC   PO4 1407   2.525   8.779   8.821  0.0695 -0.1333 -0.2540
   82POPC   GL1 1408   2.320   8.615   8.377  0.0310  0.1351 -0.4005
   82POPC   GL2 1409   2.489   8.788   8.260 -0.0655 -0.0372 -0.0374
   82POPC   C1A 1410   2.310   8.449   7.905 -0.4115  0.1723 -0.1594
   82POPC   D2A 1411   2.721   8.398   7.645 -0.0605  0.4310 -0.1028
   82POPC   C3A 1412   2.840   8.233   7.241  0.1058  0.1625  0.0640
   82POPC   C4A 1413   2.669   7.924   7.006  0.1082 -0.0976  0.0024
   82POPC   C1B 1414   2.705   8.720   8.039 -0.0593 -0.2052  0.1994
   82POPC   C2B 1415   2.908   8.349   8.129  0.0872 -0.1168  0.1108
   82POPC   C3B 1416   3.029   7.924   8.140 -0.2876 -0.1316 -0.0106
   82POPC   C4B 1417   3.432   7.624   8.216 -0.3121 -0.2036  0.3143
   83POPC   NC3 1418   9.578   4.131   8.757 -0.0528  0.2054  0.4807
   83POPC   PO4 1419   9.972   4.075   8.483  0.2875 -0.0203  0.1561
   83POPC   GL1 1420  10.293   4.204   8.238  0.0138 -0.2730 -0.5874
   83POPC   GL2 1421  10.347   4.482   8.160  0.3979 -0.1081 -0.3536
   83POPC   C1A 1422  10.667   4.232   7.870  0.2026 -0.2807  0.0647
   83POPC   D2A 1423  10.570   4.332   7.326 -0.0121  0.1295  0.3124
   83POPC   C3A 1424  10.854   4.625   7.159 -0.2524  0.1997 -0.1254
   83POPC   C4A 1425  10.950   4.875   6.878  0.0950  0.1798 -0.1201
   83POPC   C1B 1426  10.210   4.450   7.763 -0.1745  0.0972 -0.1410
   83POPC   C2B 1427  10.408   4.833   7.609 -0.1982  0.0935  0.3140
   83POPC   C3B 1428  10.552   5.049   7.245 -0.3018  0.2774  0.2658
   83POPC   C4B 1429  10.426   5.249   6.919  0.1382  0.1291 -0.1455
   84POPC   NC3 1430   2.752   5.441   8.389  0.2651 -0.1321  0.2128
   84POPC   PO4 1431   3.230   5.202   8.411  0.0321  0.0216  0.0066
   84POPC   GL1 1432   3.115   5.088   7.961 -0.0296  0.2058  0.2010
   84POPC   GL2 1433   3.213   4.789   7.816 -0.1428  0.1910  0.0940
   84POPC   C1A 1434   3.226   5.190   7.465 -0.1379  0.2749 -0.1528
   84POPC   D2A 1435   2.935   5.277   7.215 -0.2291  0.1790  0.2998
   84POPC   C3A 1436   3.051   5.457   6.785  0.3054  0.0104 -0.2370
   84POPC   C4A 1437   2.797   5.478   6.385 -0.0681 -0.3174  0.0036
   84POPC   C1B 1438   3.024   4.778   7.331 -0.4816  0.0499  0.0367
   84POPC   C2B 1439   2.760   4.499   7.039  0.2794 -0.1050  0.0899
   84POPC   C3B 1440   2.388   4.253   6.831 -0.0989 -0.0053  0.3576
   84POPC   C4B 1441   1.922   4.123   6.930 -0.3207 -0.2819 -0.1457
   85POPC   NC3 1442   1.439   7.504   8.577 -0.1327 -0.0827  0.0438
   85POPC   PO4 1443   1.573   7.306   8.331 -0.5039  0.0729  0.1417
   85POPC   GL1 1444   1.356   7.081   8.067 -0.2593  0.0462 -0.1008
   85POPC   GL2 1445   1.616   6.783   8.022  0.0234 -0.2338  0.3725
   85POPC   C1A 1446   1.215   6.597   7.826 -0.0779  0.3364  0.0495
   85POPC   D2A 1447   1.157   6.433   7.358 -0.0870  0.1775  0.1432
   85POPC   C3A 1448   1.073   6.284   6.894 -0.2091  0.1999  0.0823
   85POPC   C4A 1449   0.844   6.554   6.565 -0.2227 -0.3114 -0.0131
   85POPC   C1B 1450   1.660   7.019   7.720 -0.0399  0.1043 -0.0348
   85POPC   C2B 1451   1.785   7.233   7.366 -0.1162  0.1735  0.1400
   85POPC   C3B 1452   1.996   7.309   6.908  0.0078 -0.1165 -0.1359
   85POPC   C4B 1453   2.081   7.352   6.500 -0.1521  0.1745 -0.0369
   86POPC   NC3 1454   0.103   7.395   9.431  0.1724 -0.1146 -0.0258
   86POPC   PO4 1455   0.265   7.610   9.066  0.1834 -0.5245  0.1693
   86POPC   GL1 1456   0.057   7.426   8.679  0.2265  0.4794 -0.3853
   86POPC   GL2 1457  -0.306   7.602   8.546 -0.4418  0.0864 -0.0175
   86POPC   C1A 1458  -0.028   7.284   8.218  0.0163 -0.2283  0.2049
   86POPC   D2A 1459   0.094   7.374   7.772 -0.3309  0.2891  0.0588
   86POPC   C3A 1460   0.043   7.020   7.435  0.0584  0.0034  0.1307
   86POPC   C4A 1461   0.189   6.722   7.223 -0.0507 -0.3555 -0.2263
   86POPC   C1B 1462  -0.659   7.830   8.369  0.0034 -0.0049  0.3877
   86POPC   C2B 1463  -0.853   7.813   7.984  0.0826 -0.1135 -0.1154
   86POPC   C3B 1464  -0.750   7.984   7.579 -0.0015 -0.0951  0.1492
   86POPC   C4B 1465  -0.385   8.104   7.289  0.3334  0.0588  0.1519
   87POPC   NC3 1466   2.958   2.642   8.489 -0.1324 -0.2484  0.1099
   87POPC   PO4 1467   2.541   2.827   8.560 -0.1357 -0.0969 -0.0849
   87POPC   GL1 1468   2.332   2.532   8.314 -0.1226 -0.1832 -0.1326
   87POPC   GL2 1469   2.302   2.747   7.993  0.2277  0.2173 -0.2083
   87POPC   C1A 1470   2.161   2.208   7.985 -0.1371 -0.2003  0.0534
   87POPC   D2A 1471   2.277   2.056   7.525  0.0822  0.0194 -0.4333
   87POPC   C3A 1472   2.229   2.311   7.105  0.1312  0.3538 -0.5086
   87POPC   C4A 1473   2.062   2.378   6.680  0.2824  0.2552 -0.1411
   87POPC   C1B 1474   1.968   2.640   7.826 -0.0840  0.2331 -0.5289
   87POPC   C2B 1475   1.847   2.549   7.410  0.2984 -0.0402 -0.1898
   87POPC   C3B 1476   1.928   2.740   6.967 -0.1797 -0.0951  0.1257
   87POPC   C4B 1477   1.451   2.863   6.740 -0.1233 -0.1476  0.2121
   88POPC   NC3 1478   3.167   6.147   8.371  0.4005 -0.1700 -0.1608
   88POPC   PO4 1479   3.065   6.553   8.637  0.2753 -0.0239  0.4591
   88POPC   GL1 1480   3.089   6.839   8.203  0.1548 -0.1887 -0.3109
   88POPC   GL2 1481   3.337   6.740   8.080  0.0591 -0.2211 -0.0354
   88POPC   C1A 1482   3.214   7.028   7.759  0.2417  0.1045  0.1113
   88POPC   D2A 1483   3.147   7.300   7.342 -0.0228 -0.5617 -0.0347
   88POPC   C3A 1484   3.222   7.005   7.021  0.1632 -0.3795 -0.1695
   88POPC   C4A 1485   3.096   7.080   6.594  0.1797  0.2667  0.0426
   88POPC   C1B 1486   3.550   6.605   7.794 -0.1531 -0.3167 -0.0259
   88POPC   C2B 1487   3.497   6.591   7.371 -0.1841  0.2149 -0.2866
   88POPC   C3B 1488   3.698   6.858   7.024 -0.3536 -0.1415  0.1933
   88POPC   C4B 1489   3.617   6.990   6.630  0.1811 -0.1076  0.0336
   89POPC   NC3 1490   6.219   3.885   8.313  0.1181  0.0868 -0.0019
   89POPC   PO4 1491   6.140   4.239   8.440 -0.1042  0.1467 -0.3196
   89POPC   GL1 1492   5.961   4.207   8.032  0.2736 -0.0639 -0.0809
   89POPC   GL2 1493   6.213   4.367   7.962 -0.1005  0.0445 -0.5413
   89POPC   C1A 1494   5.714   4.537   7.887  0.0141  0.2708  0.1846
   89POPC   D2A 1495   5.427   4.761   7.647  0.3448 -0.2090  0.0713
   89POPC   C3A 1496   5.457   4.662   7.205 -0.1056 -0.2295 -0.2760
   89POPC   C4A 1497   5.808   4.479   7.009 -0.1093  0.4340  0.0607
   89POPC   C1B 1498   6.272   4.144   7.631 -0.1949 -0.2272  0.2081
   89POPC   C2B 1499   6.348   4.191   7.151 -0.0086  0.2628  0.0557
   89POPC   C3B 1500   6.208   4.416   6.752  0.3671  0.0644  0.1670
   89POPC   C4B 1501   6.039   4.784   6.563  0.0485  0.2496  0.3071
   90POPC   NC3 1502   6.895   3.300   8.806 -0.1172  0.1080  0.3396
   90POPC   PO4 1503   6.732   3.529   8.468 -0.1341  0.0219 -0.0942
   90POPC   GL1 1504   6.786   3.756   8.020  0.2097  0.0388 -0.0921
   90POPC   GL2 1505   6.556   3.759   7.917 -0.0505 -0.0792  0.0462
   90POPC   C1A 1506   6.997   3.832   7.628  0.1598 -0.2191 -0.0592
   90POPC   D2A 1507   7.286   4.013   7.361 -0.1190 -0.1485  0.2774
   90POPC   C3A 1508   7.172   3.961   6.918  0.3328 -0.0396 -0.0342
   90POPC   C4A 1509   7.251   4.248   6.652  0.2602 -0.2408 -0.2265
   90POPC   C1B 1510   6.570   3.812   7.410  0.0254  0.0581  0.0838
   90POPC   C2B 1511   6.673   3.819   6.996  0.3280 -0.0269 -0.1542
   90POPC   C3B 1512   6.659   3.998   6.619 -0.2626  0.0614 -0.1046
   90POPC   C4B 1513   6.814   4.301   6.293 -0.1454 -0.4201 -0.0755
   91POPC   NC3 1514   3.754   6.802   9.549 -0.0710  0.1166 -0.1620
   91POPC   PO4 1515   4.045   6.759   9.150  0.1055 -0.2944  0.4951
   91POPC   GL1 1516   3.980   6.884   8.760 -0.0485  0.0049 -0.0298
   91POPC   GL2 1517   4.082   6.562   8.650  0.0170 -0.0256  0.1648
   91POPC   C1A 1518   3.807   6.818   8.243  0.1841 -0.3293  0.0184
   91POPC   D2A 1519   3.640   7.217   7.913  0.1658  0.2085  0.1470
   91POPC   C3A 1520   3.682   7.215   7.450 -0.0201 -0.0376  0.2802
   91POPC   C4A 1521   3.620   7.432   7.052 -0.2124  0.0048 -0.1703
   91POPC   C1B 1522   4.265   6.617   8.235  0.1335 -0.2285  0.2007
   91POPC   C2B 1523   4.585   6.684   8.015 -0.0408 -0.3369  0.2780
   91POPC   C3B 1524   5.032   6.772   7.967  0.4221  0.0133  0.0443
   91POPC   C4B 1525   5.451   6.650   7.914 -0.0044 -0.0036  0.0096
   92POPC   NC3 1526   8.591   0.468   8.331  0.0356 -0.3753 -0.0518
   92POPC   PO4 1527   8.124   0.622   8.467  0.1057  0.0650  0.2711
   92POPC   GL1 1528   8.050   0.479   8.113  0.2951 -0.0534 -0.2134
   92POPC   GL2 1529   8.129   0.200   8.013  0.0745 -0.3332  0.0681
   92POPC   C1A 1530   7.914   0.381   7.593  0.0003  0.2435  0.3133
   92POPC   D2A 1531   7.968   0.411   7.124 -0.0277  0.2433  0.0607
   92POPC   C3A 1532   8.344   0.562   6.988  0.2990 -0.1746 -0.0112
   92POPC   C4A 1533   8.590   0.646   6.952  0.1045 -0.0187  0.1326
   92POPC   C1B 1534   8.253  -0.118   7.650  0.1631 -0.0170 -0.2958
   92POPC   C2B 1535   8.364  -0.345   7.296  0.0303  0.0537 -0.2054
   92POPC   C3B 1536   8.460  -0.329   6.915  0.0306  0.4079 -0.1013
   92POPC   C4B 1537   8.790  -0.393   6.564 -0.1295 -0.1458  0.2940
   93POPC   NC3 1538   7.808   2.394   8.482  0.1163 -0.4083 -0.0112
   93POPC   PO4 1539   8.107   2.733   8.308 -0.0748 -0.1569  0.3632
   93POPC   GL1 1540   7.970   2.962   7.978 -0.0564  0.1333  0.0166
   93POPC   GL2 1541   8.305   3.215   7.920  0.0761  0.0485 -0.0773
   93POPC   C1A 1542   7.763   3.163   7.615 -0.0896 -0.2793  0.0137
   93POPC   D2A 1543   7.514   3.098   7.360 -0.0554 -0.1489 -0.2894
   93POPC   C3A 1544   7.497   2.836   7.046 -0.0498  0.1338  0.0932
   93POPC   C4A 1545   7.233   2.408   7.012 -0.2406  0.1161 -0.1669
   93POPC   C1B 1546   8.301   2.992   7.602 -0.1055  0.0958 -0.0422
   93POPC   C2B 1547   8.107   2.798   7.253 -0.0652  0.0069  0.2379
   93POPC   C3B 1548   8.098   2.708   6.759 -0.2145 -0.1884  0.0940
   93POPC   C4B 1549   8.189   2.558   6.416  0.0205 -0.0425  0.0333
   94POPC   NC3 1550   1.066   1.162   8.930 -0.3494 -0.0041  0.2828
   94POPC   PO4 1551   0.894   1.618   8.961 -0.0092  0.2882 -0.0865
   94POPC   GL1 1552   1.085   1.638   8.465 -0.0905  0.0736 -0.1362
   94POPC   GL2 1553   0.747   1.769   8.272  0.1278 -0.0923 -0.1054
   94POPC   C1A 1554   1.334   1.549   8.153  0.2107  0.1173  0.0207
   94POPC   D2A 1555   1.350   1.616   7.718 -0.3249  0.3183 -0.3598
   94POPC   C3A 1556   1.264   1.379   7.379  0.3061 -0.1364 -0.2202
   94POPC   C4A 1557   1.172   1.492   6.988 -0.3097  0.3282  0.0368
   94POPC   C1B 1558   0.702   1.942   7.885  0.0262  0.3456  0.0260
   94POPC   C2B 1559   0.785   1.904   7.508 -0.1238  0.0725 -0.0135
   94POPC   C3B 1560   0.852   1.930   7.050  0.0351 -0.1843  0.1110
   94POPC   C4B 1561   0.852   1.920   6.624  0.0675 -0.2324 -0.0977
   95POPC   NC3 1562   8.997   1.134   9.148 -0.2390 -0.4381  0.2337
   95POPC   PO4 1563   8.693   1.205   8.747 -0.0928 -0.2797 -0.0379
   95POPC   GL1 1564   8.857   1.268   8.314 -0.0972  0.2349 -0.0904
   95POPC   GL2 1565   9.191   1.414   8.380  0.0330  0.2624 -0.0945
   95POPC   C1A 1566   8.764   1.377   7.918  0.2515 -0.0534  0.1605
   95POPC   D2A 1567   8.627   1.793   7.730  0.1204 -0.2693  0.0601
   95POPC   C3A 1568   8.773   2.070   7.449 -0.2619  0.1387 -0.3522
   95POPC   C4A 1569   8.848   2.132   7.027 -0.2342 -0.0747  0.0220
   95POPC   C1B 1570   9.258   1.359   7.918 -0.0123  0.0433  0.1718
   95POPC   C2B 1571   9.470   1.129   7.509 -0.0636  0.0009 -0.1109
   95POPC   C3B 1572   9.633   0.801   7.265 -0.0507  0.0705 -0.2391
   95POPC   C4B 1573   9.943   0.716   7.080 -0.4506  0.1108  0.1039
   96POPC   NC3 1574   0.904   9.579   8.556 -0.0719 -0.1307  0.2750
   96POPC   PO4 1575   1.004   9.986   8.610 -0.1036 -0.0240  0.1137
   96POPC   GL1 1576   0.968   9.982   8.190 -0.0116  0.0837  0.0391
   96POPC   GL2 1577   0.894   9.683   7.994 -0.0283 -0.1755  0.2231
   96POPC   C1A 1578   0.750  10.134   7.768  0.0007  0.1882  0.0414
   96POPC   D2A 1579   0.929  10.312   7.334 -0.0340 -0.0924  0.1105
   96POPC   C3A 1580   0.620  10.496   7.032 -0.1365 -0.1070  0.0876
   96POPC   C4A 1581   0.484  10.774   6.780 -0.0885  0.1607 -0.0122
   96POPC   C1B 1582   0.950   9.693   7.535  0.0073 -0.2007 -0.2226
   96POPC   C2B 1583   1.261   9.888   7.249  0.1900  0.1765  0.1400
   96POPC   C3B 1584   1.555  10.286   7.106  0.2762  0.0499  0.2672
   96POPC   C4B 1585   1.743  10.491   6.949 -0.1010  0.1387  0.1063
   97POPC   NC3 1586   7.100   3.011   8.273  0.1980 -0.1497  0.0746
   97POPC   PO4 1587   6.715   2.689   8.258  0.0222  0.0851  0.1729
   97POPC   GL1 1588   6.624   3.009   7.911  0.0397 -0.0745 -0.1761
   97POPC   GL2 1589   6.745   3.244   7.891 -0.1385 -0.1964  0.0811
   97POPC   C1A 1590   6.477   3.258   7.423  0.3918  0.0532 -0.0729
   97POPC   D2A 1591   6.538   3.324   6.931  0.0271  0.0128 -0.0242
   97POPC   C3A 1592   6.167   3.474   6.644  0.4831  0.0690  0.2173
   97POPC   C4A 1593   6.161   3.837   6.573  0.4824  0.1431  0.1135
   97POPC   C1B 1594   7.052   3.299   7.478  0.1580 -0.0937  0.0458
   97POPC   C2B 1595   7.081   3.584   7.186 -0.4053  0.0346 -0.0317
   97POPC   C3B 1596   6.969   3.508   6.758 -0.0237  0.2458  0.1176
   97POPC   C4B 1597   6.624   3.489   6.449  0.0164  0.1388  0.1359
   98POPC   NC3 1598   3.083   7.507   8.798 -0.1300  0.2694 -0.2495
   98POPC   PO4 1599   2.703   7.674   8.846 -0.4107 -0.2093  0.1813
   98POPC   GL1 1600   2.505   7.729   8.443  0.0401 -0.0300  0.2563
   98POPC   GL2 1601   2.529   8.013   8.341 -0.1495  0.1185  0.1602
   98POPC   C1A 1602   2.501   7.546   8.064  0.1302 -0.0040  0.0349
   98POPC   D2A 1603   2.739   7.504   7.753 -0.4199  0.1958 -0.0671
   98POPC   C3A 1604   2.926   7.736   7.408  0.1368 -0.0188 -0.0618
   98POPC   C4A 1605   3.382   7.799   7.267  0.2473 -0.1603  0.0086
   98POPC   C1B 1606   2.590   7.986   7.814  0.1644  0.0023 -0.3928
   98POPC   C2B 1607   2.349   8.041   7.419  0.1378 -0.1594  0.2650
   98POPC   C3B 1608   2.093   8.421   7.332 -0.0374  0.1166  0.3569
   98POPC   C4B 1609   2.008   8.663   6.999  0.1430 -0.0489  0.2865
   99POPC   NC3 1610   4.736   6.278  10.038 -0.1426  0.0313 -0.1686
   99POPC   PO4 1611   4.482   6.080   9.666 -0.2249 -0.1810 -0.0570
   99POPC   GL1 1612   4.805   6.111   9.275  0.2084  0.1636  0.3349
   99POPC   GL2 1613   5.064   6.170   9.222  0.3140  0.2038 -0.1205
   99POPC   C1A 1614   4.646   6.419   8.882  0.1448  0.2053 -0.2979
   99POPC   D2A 1615   4.755   6.557   8.426  0.0941  0.0868  0.0535
   99POPC   C3A 1616   5.176   6.403   8.337  0.0418  0.0989 -0.0504
   99POPC   C4A 1617   5.487   6.176   8.087 -0.2766 -0.0908 -0.1272
   99POPC   C1B 1618   5.261   6.336   8.859 -0.4594  0.0953 -0.2312
   99POPC   C2B 1619   5.057   6.648   8.831  0.2651  0.0101  0.0547
   99POPC   C3B 1620   5.009   7.171   8.857 -0.0567 -0.1460 -0.2217
   99POPC   C4B 1621   4.743   7.462   8.731 -0.0689 -0.1269  0.0976
  100POPC   NC3 1622   2.181   9.210   8.566  0.1006  0.1956  0.2439
  100POPC   PO4 1623   2.553   9.265   8.544 -0.5648 -0.1275  0.1401
  100POPC   GL1 1624   2.783   9.221   8.180 -0.0749 -0.0137 -0.2715
  100POPC   GL2 1625   3.012   9.067   8.244  0.0572  0.3096 -0.1059
  100POPC   C1A 1626   3.057   9.401   7.875 -0.0335  0.4106 -0.2114
  100POPC   D2A 1627   3.255   9.706   7.594 -0.2760  0.0457 -0.1912
  100POPC   C3A 1628   3.061   9.983   7.303 -0.2421 -0.0642  0.2027
  100POPC   C4A 1629   2.876  10.473   7.342  0.1456  0.1083 -0.2070
  100POPC   C1B 1630   3.247   8.941   7.900 -0.1951 -0.0024 -0.0090
  100POPC   C2B 1631   3.440   8.801   7.477 -0.0964  0.0029 -0.1319
  100POPC   C3B 1632   3.470   8.664   7.160 -0.1349 -0.1031 -0.3341
  100POPC   C4B 1633   3.841   8.475   7.020 -0.0999  0.2807  0.1523
  101POPC   NC3 1634   5.531   8.353   9.620  0.2092  0.3684 -0.4055
  101POPC   PO4 1635   5.760   8.571   9.366 -0.0854  0.0246 -0.0788
  101POPC   GL1 1636   5.886   8.473   8.878  0.0113 -0.1599  0.0526
  101POPC   GL2 1637   5.995   8.702   8.688  0.1031 -0.2350  0.2748
  101POPC   C1A 1638   5.968   8.066   8.914 -0.3053 -0.0474  0.2624
  101POPC   D2A 1639   5.970   7.677   8.600  0.0513  0.1457 -0.0530
  101POPC   C3A 1640   6.189   7.765   8.213 -0.3025 -0.3001  0.0564
  101POPC   C4A 1641   6.561   7.640   7.958  0.4000  0.0714  0.1016
  101POPC   C1B 1642   6.147   8.485   8.438  0.0721  0.0375  0.1365
  101POPC   C2B 1643   6.356   8.142   8.571  0.2792 -0.0821  0.2185
  101POPC   C3B 1644   6.524   7.751   8.612  0.0144  0.0747 -0.1847
  101POPC   C4B 1645   6.346   7.410   8.766 -0.1476 -0.1545 -0.1467
  102POPC   NC3 1646   2.757   4.494   8.487  0.0156  0.2173 -0.3824
  102POPC   PO4 1647   2.319   4.592   8.533 -0.1594  0.0233  0.0748
  102POPC   GL1 1648   2.321   4.795   8.079 -0.2464  0.0590 -0.1889
  102POPC   GL2 1649   2.621   4.727   7.931  0.2426 -0.0433 -0.1401
  102POPC   C1A 1650   2.175   4.751   7.659 -0.2260 -0.0972 -0.0958
  102POPC   D2A 1651   1.776   4.844   7.441  0.2642  0.2234 -0.3237
  102POPC   C3A 1652   1.571   5.305   7.261 -0.1546 -0.1575 -0.0304
  102POPC   C4A 1653   1.406   5.317   6.840 -0.3578 -0.1054 -0.2341
  102POPC   C1B 1654   2.574   4.496   7.519 -0.0046 -0.0843  0.3031
  102POPC   C2B 1655   2.235   4.525   7.186 -0.0786 -0.0297  0.0057
  102POPC   C3B 1656   1.896   4.668   6.927  0.1330 -0.0558 -0.0135
  102POPC   C4B 1657   1.554   4.870   6.881 -0.0859  0.0576  0.0373
  103POPC   NC3 1658   5.215   5.528   8.730 -0.2233  0.3866  0.2070
  103POPC   PO4 1659   4.943   5.146   8.651  0.0111 -0.2576  0.0303
  103POPC   GL1 1660   4.933   5.425   8.303  0.2776  0.0692  0.2001
  103POPC   GL2 1661   5.284   5.499   8.189 -0.3077  0.3459 -0.1997
  103POPC   C1A 1662   4.663   5.331   7.990  0.1801 -0.0758  0.2603
  103POPC   D2A 1663   4.223   5.059   7.891  0.1155  0.0906 -0.1323
  103POPC   C3A 1664   4.059   4.744   7.594 -0.1056  0.1135 -0.0145
  103POPC   C4A 1665   3.968   4.792   7.188 -0.1647  0.0760  0.2322
  103POPC   C1B 1666   5.437   5.325   7.811 -0.3023  0.1737  0.1567
  103POPC   C2B 1667   5.576   5.285   7.420 -0.1059  0.0736 -0.1646
  103POPC   C3B 1668   6.032   5.411   7.284  0.1699 -0.0038 -0.0210
  103POPC   C4B 1669   6.392   5.208   7.266 -0.0669  0.1605 -0.3074
  104POPC   NC3 1670   3.071   1.360   8.377 -0.0264  0.4066  0.1183
  104POPC   PO4 1671   2.698   1.323   8.599  0.0368 -0.2380  0.2097
  104POPC   GL1 1672   2.544   1.675   8.295 -0.0624  0.0433  0.0039
  104POPC   GL2 1673   2.632   1.973   8.093  0.1981 -0.1839  0.0052
  104POPC   C1A 1674   2.651   1.515   7.867 -0.1125  0.1573 -0.2659
  104POPC   D2A 1675   2.630   1.510   7.392 -0.0338  0.0615 -0.0385
  104POPC   C3A 1676   2.860   1.303   6.994 -0.0040 -0.0052 -0.1438
  104POPC   C4A 1677   2.986   1.009   6.678 -0.3428 -0.2763  0.2162
  104POPC   C1B 1678   2.632   2.391   7.754  0.0137  0.0236 -0.0284
  104POPC   C2B 1679   2.371   2.553   7.565 -0.2596  0.0340  0.1244
  104POPC   C3B 1680   2.356   3.004   7.616 -0.0592 -0.0757 -0.1560
  104POPC   C4B 1681   2.299   3.435   7.544 -0.1766 -0.0830 -0.1933
  105POPC   NC3 1682   5.332   1.514   8.131 -0.1680  0.0666 -0.2610
  105POPC   PO4 1683   4.833   1.235   8.185 -0.2421  0.1328 -0.0073
  105POPC   GL1 1684   4.939   1.321   7.783 -0.1239  0.0825  0.1847
  105POPC   GL2 1685   5.160   1.163   7.819 -0.0912 -0.1104  0.2579
  105POPC   C1A 1686   5.076   1.634   7.510  0.2150 -0.1442 -0.2489
  105POPC   D2A 1687   5.282   1.858   7.212  0.1834  0.2051 -0.0336
  105POPC   C3A 1688   5.584   1.640   6.864  0.0805 -0.0799  0.0483
  105POPC   C4A 1689   5.843   1.741   6.661  0.0163  0.1865 -0.2451
  105POPC   C1B 1690   5.318   0.875   7.476  0.0872  0.2028  0.3803
  105POPC   C2B 1691   5.265   0.976   7.115  0.3260 -0.3264 -0.0291
  105POPC   C3B 1692   5.132   0.984   6.718  0.2494 -0.0902  0.0173
  105POPC   C4B 1693   4.852   1.103   6.410 -0.3245  0.1117 -0.0558
  106POPC   NC3 1694   7.616   4.847   8.767 -0.0235  0.0254  0.1855
  106POPC   PO4 1695   7.633   4.348   8.623 -0.2598  0.0112 -0.0118
  106POPC   GL1 1696   7.596   4.496   8.182  0.3117  0.0836 -0.1750
  106POPC   GL2 1697   7.922   4.366   7.944  0.0796 -0.1409  0.0325
  106POPC   C1A 1698   7.170   4.680   8.014 -0.2922 -0.0158  0.0803
  106POPC   D2A 1699   6.947   4.843   7.698 -0.1811 -0.1832 -0.3823
  106POPC   C3A 1700   7.001   4.495   7.552  0.0377  0.0763 -0.0375
  106POPC   C4A 1701   6.819   4.232   7.255 -0.1098  0.0406  0.0508
  106POPC   C1B 1702   8.008   4.577   7.628 -0.1121  0.2721  0.2686
  106POPC   C2B 1703   7.914   4.695   7.340  0.0969 -0.1336  0.2049
  106POPC   C3B 1704   7.864   4.623   6.904 -0.1963  0.1576  0.0099
  106POPC   C4B 1705   7.971   4.603   6.495 -0.1339  0.0802 -0.0563
  107POPC   NC3 1706   4.832   2.836   8.179  0.1216 -0.1544 -0.3042
  107POPC   PO4 1707   4.631   3.162   7.897  0.1524 -0.4951  0.1236
  107POPC   GL1 1708   4.682   3.529   7.445 -0.1505  0.2069 -0.1105
  107POPC   GL2 1709   4.564   3.929   7.486 -0.0879  0.0301 -0.2480
  107POPC   C1A 1710   4.418   3.404   7.147  0.0538 -0.0569  0.1426
  107POPC   D2A 1711   4.510   3.358   6.709  0.1806 -0.0880 -0.1817
  107POPC   C3A 1712   4.607   2.972   6.562 -0.1114  0.2375 -0.1092
  107POPC   C4A 1713   4.552   2.544   6.443 -0.3332 -0.0834 -0.1979
  107POPC   C1B 1714   4.399   4.171   7.093 -0.0723 -0.1298  0.1454
  107POPC   C2B 1715   3.818   4.262   7.088 -0.2386 -0.2875 -0.0606
  107POPC   C3B 1716   3.493   4.551   6.985  0.1158  0.0520 -0.0971
  107POPC   C4B 1717   3.190   4.836   6.833  0.0027  0.2333  0.0764
  108POPC   NC3 1718   3.156   5.770   9.138 -0.3059 -0.3492 -0.1124
  108POPC   PO4 1719   2.879   5.865   8.736 -0.0245 -0.5111  0.3476
  108POPC   GL1 1720   2.777   5.891   8.199  0.1998 -0.0317 -0.0104
  108POPC   GL2 1721   2.573   5.783   8.020 -0.1007 -0.2265  0.1777
  108POPC   C1A 1722   3.072   5.968   7.790 -0.2625  0.0555  0.0917
  108POPC   D2A 1723   3.278   6.177   7.411  0.3394 -0.0701  0.1320
  108POPC   C3A 1724   3.408   5.890   7.038  0.3048  0.0732  0.1573
  108POPC   C4A 1725   3.385   5.780   6.658 -0.1706 -0.2382  0.2319
  108POPC   C1B 1726   2.610   5.585   7.498 -0.2312 -0.0796 -0.1293
  108POPC   C2B 1727   2.539   5.473   7.023  0.0092  0.1309  0.1711
  108POPC   C3B 1728   2.350   5.327   6.605 -0.3230  0.0950 -0.0526
  108POPC   C4B 1729   2.237   4.895   6.612  0.3228  0.3570 -0.1697
  109POPC   NC3 1730   7.368   1.949   8.950  0.0307 -0.0240 -0.1296
  109POPC   PO4 1731   7.334   2.084   8.518  0.0799 -0.0433  0.0221
  109POPC   GL1 1732   7.094   2.053   8.097 -0.0983 -0.2407  0.1618
  109POPC   GL2 1733   6.880   2.201   7.894 -0.0238  0.1548 -0.0898
  109POPC   C1A 1734   7.212   1.842   7.711 -0.0142  0.0655  0.1512
  109POPC   D2A 1735   7.307   1.556   7.408  0.0475  0.0722  0.1395
  109POPC   C3A 1736   7.058   1.292   7.056 -0.0063  0.0280 -0.0286
  109POPC   C4A 1737   6.963   1.191   6.616 -0.1456 -0.0164  0.0871
  109POPC   C1B 1738   6.554   2.034   7.650  0.0664  0.0670  0.1816
  109POPC   C2B 1739   6.211   1.823   7.570 -0.2805  0.0059  0.1119
  109POPC   C3B 1740   5.876   1.738   7.244 -0.0314  0.0139  0.1817
  109POPC   C4B 1741   5.572   1.325   7.258 -0.0392 -0.4392 -0.3655
  110POPC   NC3 1742   1.959   5.824   8.791 -0.1409 -0.2089  0.0208
  110POPC   PO4 1743   1.624   6.054   8.758 -0.2743 -0.2070  0.1129
  110POPC   GL1 1744   1.885   6.064   8.334 -0.1247  0.2464  0.1659
  110POPC   GL2 1745   1.815   6.308   8.197 -0.1970 -0.0167 -0.1226
  110POPC   C1A 1746   2.099   5.838   7.930 -0.0696  0.2045 -0.0617
  110POPC   D2A 1747   2.301   6.076   7.546 -0.1568  0.3230 -0.2590
  110POPC   C3A 1748   2.720   6.054   7.408 -0.2230  0.0239 -0.1798
  110POPC   C4A 1749   2.947   5.764   7.147  0.0292  0.1007 -0.0569
  110POPC   C1B 1750   1.717   6.275   7.847  0.3184  0.1921  0.1889
  110POPC   C2B 1751   1.706   6.147   7.427 -0.2763 -0.1007  0.1784
  110POPC   C3B 1752   1.539   6.214   7.026 -0.1418 -0.2214  0.1222
  110POPC   C4B 1753   1.511   6.560   6.742 -0.3080  0.0421  0.1967
  111POPC   NC3 1754   9.859   6.399   8.822 -0.0475  0.0574  0.2586
  111POPC   PO4 1755   9.810   5.941   8.922  0.1564 -0.3299 -0.1020
  111POPC   GL1 1756   9.713   6.059   8.471 -0.2358  0.1918  0.2824
  111POPC   GL2 1757   9.912   5.889   8.359  0.0818  0.2554 -0.0350
  111POPC   C1A 1758   9.777   6.338   8.125  0.3226 -0.3169  0.0806
  111POPC   D2A 1759   9.939   6.803   7.962 -0.0217 -0.3517  0.2115
  111POPC   C3A 1760  10.340   6.777   7.713 -0.1068 -0.0393 -0.0807
  111POPC   C4A 1761  10.744   6.687   7.588  0.1285  0.0893 -0.1150
  111POPC   C1B 1762   9.964   5.879   7.895 -0.1868 -0.0047  0.1151
  111POPC   C2B 1763   9.882   5.790   7.457  0.1602  0.1819  0.1392
  111POPC   C3B 1764   9.704   5.841   7.041 -0.0228  0.1213 -0.1134
  111POPC   C4B 1765   9.531   6.144   6.703  0.1114  0.0290 -0.2064
  112POPC   NC3 1766   6.608   2.009   8.265 -0.4043  0.1696 -0.0308
  112POPC   PO4 1767   6.377   2.291   8.332  0.2003  0.1789  0.1445
  112POPC   GL1 1768   6.182   2.292   7.903 -0.1546  0.1916 -0.2464
  112POPC   GL2 1769   6.493   2.560   7.717 -0.0622  0.2370 -0.0690
  112POPC   C1A 1770   6.082   2.356   7.486  0.0917  0.0305  0.1305
  112POPC   D2A 1771   6.118   2.440   7.044  0.1070 -0.2617 -0.0113
  112POPC   C3A 1772   6.151   2.138   6.684  0.1208 -0.1656 -0.3145
  112POPC   C4A 1773   6.123   1.915   6.282  0.2843  0.3709 -0.0917
  112POPC   C1B 1774   6.619   2.409   7.352 -0.1293 -0.0597  0.3398
  112POPC   C2B 1775   6.688   2.407   6.976  0.2930  0.0590 -0.3653
  112POPC   C3B 1776   6.483   2.588   6.632  0.0514  0.0300  0.2273
  112POPC   C4B 1777   6.631   2.755   6.244  0.2925  0.0409 -0.1193
  113POPC   NC3 1778   1.528   1.267   9.146  0.1187 -0.2977 -0.1008
  113POPC   PO4 1779   1.537   1.077   8.720  0.0452 -0.1038  0.1769
  113POPC   GL1 1780   1.511   0.980   8.224 -0.0474  0.0098 -0.1947
  113POPC   GL2 1781   1.341   0.737   8.162 -0.0344 -0.2288 -0.1681
  113POPC   C1A 1782   1.292   1.062   7.793  0.2893 -0.0872 -0.2474
  113POPC   D2A 1783   1.469   0.944   7.330  0.0270  0.0645 -0.0862
  113POPC   C3A 1784   1.990   0.964   7.315 -0.0257  0.2921 -0.0935
  113POPC   C4A 1785   2.335   1.038   7.689 -0.1031 -0.1197  0.1407
  113POPC   C1B 1786   1.615   0.581   7.687  0.1217 -0.3253  0.1507
  113POPC   C2B 1787   1.773   0.117   7.590  0.0292  0.2632  0.2888
  113POPC   C3B 1788   1.761  -0.281   7.441 -0.0921 -0.1781 -0.1136
  113POPC   C4B 1789   1.799  -0.428   6.995  0.3638  0.1843 -0.2780
  114POPC   NC3 1790   6.784   0.261   8.879 -0.0804  0.1370 -0.1120
  114POPC   PO4 1791   6.713   0.529   8.469 -0.0216 -0.2880 -0.0844
  114POPC   GL1 1792   6.598   0.456   8.100  0.2022 -0.0652  0.3003
  114POPC   GL2 1793   6.304   0.305   8.008  0.3746  0.0395 -0.0346
  114POPC   C1A 1794   6.675   0.379   7.625  0.0513 -0.0305 -0.0761
  114POPC   D2A 1795   6.631   0.489   7.206 -0.0758  0.1218  0.3032
  114POPC   C3A 1796   6.743   0.328   6.728 -0.1879  0.0242  0.2644
  114POPC   C4A 1797   6.742   0.029   6.405 -0.0459  0.2778 -0.0750
  114POPC   C1B 1798   6.205  -0.021   7.726  0.0307  0.1482  0.4002
  114POPC   C2B 1799   6.117  -0.413   7.600 -0.2948 -0.1865 -0.4271
  114POPC   C3B 1800   5.845  -0.479   7.264  0.2225 -0.2611 -0.0568
  114POPC   C4B 1801   5.716  -0.637   6.903  0.1594 -0.0647  0.3006
  115POPC   NC3 1802   5.798   3.126   8.229 -0.0119 -0.1483 -0.0338
  115POPC   PO4 1803   5.951   3.504   8.389  0.0150  0.2422 -0.0641
  115POPC   GL1 1804   5.989   3.644   7.945  0.3579  0.2310 -0.1072
  115POPC   GL2 1805   6.160   3.536   7.699  0.2108  0.2660 -0.0634
  115POPC   C1A 1806   5.848   3.870   7.628 -0.2682 -0.1623  0.0335
  115POPC   D2A 1807   5.577   4.175   7.420  0.2360 -0.3168  0.0078
  115POPC   C3A 1808   5.428   4.176   6.956  0.0943 -0.0238 -0.0447
  115POPC   C4A 1809   5.282   4.425   6.665 -0.2721  0.1439 -0.0466
  115POPC   C1B 1810   5.934   3.334   7.473  0.0387 -0.2590 -0.0939
  115POPC   C2B 1811   6.200   3.652   7.148  0.2839 -0.0462 -0.0518
  115POPC   C3B 1812   5.914   3.967   6.980  0.3508  0.0781 -0.0440
  115POPC   C4B 1813   5.789   4.242   6.588 -0.2871  0.0165 -0.2122
  116POPC   NC3 1814   5.442   5.199   9.430 -0.3294  0.0516  0.1680
  116POPC   PO4 1815   5.469   5.194   9.038  0.0772  0.1058  0.0826
  116POPC   GL1 1816   5.721   5.360   8.691 -0.2343  0.2007  0.1754
  116POPC   GL2 1817   5.819   5.648   8.508  0.0154  0.0057 -0.1026
  116POPC   C1A 1818   5.799   5.223   8.233 -0.0779  0.4368  0.0970
  116POPC   D2A 1819   5.993   5.285   7.819  0.1577  0.1135  0.1365
  116POPC   C3A 1820   6.118   4.919   7.598 -0.1202  0.2121  0.1368
  116POPC   C4A 1821   5.995   4.510   7.441  0.1432  0.2656  0.0972
  116POPC   C1B 1822   5.765   5.705   8.014 -0.2284 -0.0009  0.0246
  116POPC   C2B 1823   5.839   5.724   7.613  0.1421 -0.0577 -0.0122
  116POPC   C3B 1824   5.979   5.933   7.269  0.2251  0.1579  0.0979
  116POPC   C4B 1825   5.826   6.246   7.104 -0.2343  0.0677 -0.0896
  117POPC   NC3 1826   9.212   1.059   8.699  0.1964  0.1500 -0.1020
  117POPC   PO4 1827   8.941   0.793   8.590 -0.2468 -0.0792 -0.0215
  117POPC   GL1 1828   9.018   0.805   8.066  0.1244  0.2221 -0.0462
  117POPC   GL2 1829   8.934   0.547   7.888  0.0310 -0.0445  0.2735
  117POPC   C1A 1830   9.000   0.960   7.664 -0.0219 -0.2585 -0.1333
  117POPC   D2A 1831   9.176   0.824   7.142 -0.1127 -0.5465  0.2021
  117POPC   C3A 1832   9.124   0.527   6.845  0.1019  0.2542  0.1118
  117POPC   C4A 1833   8.779   0.491   6.514  0.0103 -0.2156  0.1602
  117POPC   C1B 1834   8.526   0.365   7.579  0.1849  0.0485  0.0809
  117POPC   C2B 1835   8.361   0.155   7.219 -0.0443  0.1824 -0.0412
  117POPC   C3B 1836   7.994  -0.101   7.074  0.0028 -0.1230 -0.0032
  117POPC   C4B 1837   7.557  -0.034   6.997  0.3268 -0.4635 -0.2406
  118POPC   NC3 1838   6.112   9.032   9.149  0.1557  0.1662 -0.0576
  118POPC   PO4 1839   6.371   9.400   9.069 -0.1553  0.1338 -0.1087
  118POPC   GL1 1840   6.469   9.052   8.780 -0.1154 -0.1631 -0.0267
  118POPC   GL2 1841   6.647   8.865   8.974 -0.0612  0.1265 -0.2606
  118POPC   C1A 1842   6.860   8.937   8.502  0.1641  0.0875  0.0044
  118POPC   D2A 1843   7.159   8.728   8.520 -0.1371  0.0468  0.0288
  118POPC   C3A 1844   7.474   8.628   8.088  0.2404 -0.3541 -0.0115
  118POPC   C4A 1845   7.825   8.455   7.932  0.2547 -0.0318  0.0194
  118POPC   C1B 1846   6.574   8.555   8.651 -0.2613  0.0894 -0.0469
  118POPC   C2B 1847   6.811   8.242   8.528 -0.1650 -0.0845  0.1319
  118POPC   C3B 1848   6.919   7.844   8.301  0.2893  0.2302  0.1839
  118POPC   C4B 1849   7.038   7.651   7.866 -0.0318 -0.1806 -0.2109
  119POPC   NC3 1850   8.157   1.153   8.460 -0.0308 -0.1065  0.0671
  119POPC   PO4 1851   8.053   1.005   8.112 -0.0447  0.0582  0.2441
  119POPC   GL1 1852   8.208   1.055   7.783  0.0209  0.3387 -0.1121
  119POPC   GL2 1853   8.221   0.782   7.706 -0.1450 -0.0610 -0.1664
  119POPC   C1A 1854   8.391   1.250   7.483 -0.3487  0.0820 -0.0927
  119POPC   D2A 1855   8.491   1.583   7.192 -0.1024  0.5120 -0.0331
  119POPC   C3A 1856   8.758   1.671   6.903  0.3425 -0.0221 -0.1136
  119POPC   C4A 1857   8.982   1.953   6.594 -0.0511  0.1616 -0.4623
  119POPC   C1B 1858   8.031   0.856   7.336 -0.0416  0.1467 -0.0318
  119POPC   C2B 1859   8.153   1.083   6.978  0.2324  0.2369  0.1320
  119POPC   C3B 1860   8.223   1.099   6.510  0.1299 -0.1407  0.0517
  119POPC   C4B 1861   8.245   1.452   6.206  0.0505 -0.1642  0.0526
  120POPC   NC3 1862   3.682   4.996   8.259  0.1256 -0.4738 -0.0666
  120POPC   PO4 1863   4.095   4.693   8.270 -0.2734  0.1108  0.1967
  120POPC   GL1 1864   4.076   4.349   7.978 -0.1491  0.4840 -0.1136
  120POPC   GL2 1865   4.339   4.126   7.959 -0.1203 -0.1229 -0.0496
  120POPC   C1A 1866   4.098   4.146   7.555 -0.1423 -0.2343 -0.0585
  120POPC   D2A 1867   4.040   3.786   7.459  0.1099 -0.1115  0.2450
  120POPC   C3A 1868   3.863   3.373   7.312  0.1472 -0.3681 -0.0657
  120POPC   C4A 1869   3.858   2.954   7.366 -0.2359 -0.1817 -0.0609
  120POPC   C1B 1870   4.480   4.441   7.699 -0.1860  0.2090  0.0944
  120POPC   C2B 1871   4.504   4.868   7.447  0.0228 -0.4098 -0.1249
  120POPC   C3B 1872   4.481   4.792   7.047  0.2607  0.0992  0.0346
  120POPC   C4B 1873   4.263   4.843   6.657  0.1462 -0.2427  0.0889
  121POPC   NC3 1874   4.504   4.855   8.485 -0.2933  0.1333  0.0598
  121POPC   PO4 1875   4.275   5.323   8.504  0.0683  0.2932 -0.2866
  121POPC   GL1 1876   4.193   5.502   8.103  0.1365  0.2017 -0.2828
  121POPC   GL2 1877   4.170   5.598   7.779  0.0853 -0.0120 -0.2721
  121POPC   C1A 1878   4.180   5.923   8.112  0.0273  0.0858  0.2256
  121POPC   D2A 1879   4.528   6.228   7.940 -0.1998  0.1726  0.2176
  121POPC   C3A 1880   4.393   6.512   7.621 -0.0014  0.0003 -0.1357
  121POPC   C4A 1881   4.020   6.525   7.388 -0.1652  0.0037  0.2756
  121POPC   C1B 1882   4.449   5.335   7.548 -0.2112  0.1098 -0.0983
  121POPC   C2B 1883   4.351   5.260   7.113 -0.0706  0.0045  0.0403
  121POPC   C3B 1884   4.059   5.227   6.943  0.1789 -0.1257 -0.3743
  121POPC   C4B 1885   3.748   4.984   6.799 -0.0368 -0.0105  0.1176
  122POPC   NC3 1886   1.996   7.685   8.507 -0.2048  0.4264 -0.0674
  122POPC   PO4 1887   1.622   7.951   8.469  0.0371 -0.2069  0.0517
  122POPC   GL1 1888   1.479   8.045   8.087  0.2640  0.1286 -0.1946
  122POPC   GL2 1889   1.455   7.787   8.050  0.0573  0.4376  0.2032
  122POPC   C1A 1890   1.415   8.336   7.738  0.0232 -0.2923 -0.1075
  122POPC   D2A 1891   1.527   8.547   7.345 -0.3269 -0.0496 -0.0707
  122POPC   C3A 1892   1.763   8.162   6.966 -0.0017 -0.1806  0.4413
  122POPC   C4A 1893   1.704   7.766   6.712 -0.0479  0.0361 -0.2123
  122POPC   C1B 1894   1.641   7.596   7.689 -0.2028  0.2438  0.1561
  122POPC   C2B 1895   1.839   7.743   7.238 -0.0444  0.2681  0.1790
  122POPC   C3B 1896   2.135   7.806   7.027  0.6080 -0.3829 -0.1289
  122POPC   C4B 1897   2.365   7.772   6.572  0.1431 -0.0173 -0.0983
  123POPC   NC3 1898   7.880   1.525   8.360 -0.0510  0.2771  0.0129
  123POPC   PO4 1899   7.771   1.866   8.590 -0.0291  0.0613 -0.1214
  123POPC   GL1 1900   7.694   1.981   8.064 -0.2742 -0.2220 -0.2089
  123POPC   GL2 1901   7.736   1.693   7.836 -0.0574 -0.0697  0.1591
  123POPC   C1A 1902   7.516   2.175   7.752 -0.2166  0.0291 -0.0245
  123POPC   D2A 1903   7.128   2.329   7.505  0.1965  0.4207  0.0460
  123POPC   C3A 1904   6.873   1.981   7.243  0.0475 -0.3253  0.0149
  123POPC   C4A 1905   6.377   1.945   7.131  0.2575 -0.3350  0.0417
  123POPC   C1B 1906   8.120   1.802   7.750  0.0338 -0.0562 -0.2540
  123POPC   C2B 1907   8.251   1.933   7.359 -0.0828 -0.2016  0.2523
  123POPC   C3B 1908   8.323   2.083   6.884 -0.0104  0.0709  0.0699
  123POPC   C4B 1909   8.495   2.001   6.519  0.2244  0.0594  0.0468
  124POPC   NC3 1910   0.775   9.133   9.393 -0.1084 -0.1151  0.1209
  124POPC   PO4 1911   0.447   9.076   9.057 -0.0182 -0.1152  0.0867
  124POPC   GL1 1912   0.380   8.866   8.489  0.0668  0.4095  0.0216
  124POPC   GL2 1913   0.013   8.680   8.327 -0.0487  0.0571  0.4218
  124POPC   C1A 1914   0.444   8.874   8.007 -0.2190  0.0920  0.0100
  124POPC   D2A 1915   0.030   8.785   7.684 -0.0708  0.3353  0.2352
  124POPC   C3A 1916   0.098   8.829   7.208 -0.0081 -0.0681 -0.2042
  124POPC   C4A 1917   0.266   8.826   6.737 -0.0464  0.1896  0.1435
  124POPC   C1B 1918  -0.204   8.531   8.032  0.2358  0.2121 -0.2463
  124POPC   C2B 1919  -0.296   8.083   7.797  0.0488 -0.0463  0.3800
  124POPC   C3B 1920  -0.100   7.766   7.556  0.1689 -0.1623 -0.0632
  124POPC   C4B 1921  -0.179   7.636   7.122 -0.1744  0.1589 -0.0034
  125POPC   NC3 1922   9.224   3.256   9.287  0.0945  0.1528  0.0639
  125POPC   PO4 1923   9.330   3.335   8.869  0.0146  0.2028  0.0828
  125POPC   GL1 1924   9.511   3.151   8.359 -0.0543  0.3879  0.0101
  125POPC   GL2 1925   9.338   3.302   8.114 -0.2551 -0.0790  0.1593
  125POPC   C1A 1926   9.733   2.910   8.079  0.2111  0.0856  0.0421
  125POPC   D2A 1927   9.968   2.900   7.636 -0.0007 -0.1481 -0.1346
  125POPC   C3A 1928  10.031   2.427   7.569 -0.0766 -0.1174 -0.1413
  125POPC   C4A 1929  10.202   2.022   7.494 -0.1742  0.1203  0.1153
  125POPC   C1B 1930   9.365   3.202   7.752  0.1552 -0.4636  0.0500
  125POPC   C2B 1931   9.278   3.023   7.405  0.2937  0.0282 -0.2874
  125POPC   C3B 1932   9.089   3.136   6.939 -0.4057  0.2023 -0.4398
  125POPC   C4B 1933   9.124   2.989   6.548  0.0220 -0.0923 -0.0921
  126POPC   NC3 1934   8.803   8.951   9.087  0.2138 -0.2196  0.2771
  126POPC   PO4 1935   8.759   9.218   8.665 -0.1263 -0.1574 -0.0384
  126POPC   GL1 1936   8.710   9.209   8.144 -0.0050  0.0294  0.1491
  126POPC   GL2 1937   8.605   9.516   8.200 -0.0214  0.2630 -0.0082
  126POPC   C1A 1938   8.716   9.032   7.776 -0.0712  0.0090 -0.0072
  126POPC   D2A 1939   8.548   8.696   7.407 -0.1121 -0.3504 -0.2512
  126POPC   C3A 1940   8.773   8.816   7.064 -0.2552  0.2506  0.3328
  126POPC   C4A 1941   8.923   8.823   6.656 -0.1335  0.0897 -0.3116
  126POPC   C1B 1942   9.041   9.463   8.002 -0.3916  0.1031  0.1686
  126POPC   C2B 1943   9.168   9.326   7.630 -0.4031 -0.1825 -0.0099
  126POPC   C3B 1944   9.119   8.902   7.438  0.0848 -0.0658 -0.1428
  126POPC   C4B 1945   9.257   8.691   7.046  0.0696 -0.0393  0.0345
  127POPC   NC3 1946   8.113   4.307   8.494  0.0943  0.0556 -0.0349
  127POPC   PO4 1947   8.136   4.679   8.779 -0.1700 -0.1999 -0.1101
  127POPC   GL1 1948   8.075   4.989   8.438 -0.2644 -0.1141 -0.0122
  127POPC   GL2 1949   7.914   4.834   8.327 -0.3830 -0.2314  0.2347
  127POPC   C1A 1950   8.200   5.114   8.010  0.0695 -0.0450  0.0241
  127POPC   D2A 1951   8.088   5.062   7.599  0.0566 -0.0038 -0.1627
  127POPC   C3A 1952   8.322   5.088   7.249  0.2153 -0.0132  0.0657
  127POPC   C4A 1953   8.333   4.835   6.816  0.0549  0.4078 -0.1342
  127POPC   C1B 1954   7.716   4.836   7.894 -0.2089  0.0636  0.1046
  127POPC   C2B 1955   7.450   4.907   7.596  0.2277 -0.2144 -0.1834
  127POPC   C3B 1956   7.208   4.961   7.302 -0.4119  0.1281 -0.1807
  127POPC   C4B 1957   6.784   4.912   7.150 -0.1993 -0.2546 -0.1187
  128POPC   NC3 1958   8.584   4.107   8.372 -0.0454  0.0066  0.1499
  128POPC   PO4 1959   8.146   3.810   8.534 -0.1877 -0.0597 -0.2467
  128POPC   GL1 1960   8.198   3.942   8.108  0.1056 -0.0394  0.0988
  128POPC   GL2 1961   8.536   3.901   7.946  0.1102 -0.1504  0.0622
  128POPC   C1A 1962   8.053   3.949   7.641 -0.0336  0.0143 -0.0164
  128POPC   D2A 1963   7.826   4.089   7.290 -0.1707 -0.1670 -0.4153
  128POPC   C3A 1964   7.777   4.064   6.844 -0.1028  0.0509  0.0562
  128POPC   C4A 1965   7.775   4.053   6.299 -0.1356 -0.1592  0.2079
  128POPC   C1B 1966   8.527   3.649   7.566  0.4513  0.3237 -0.0377
  128POPC   C2B 1967   8.151   3.468   7.482  0.0186 -0.0456 -0.2777
  128POPC   C3B 1968   7.964   3.324   7.143 -0.3492  0.2023  0.1030
  128POPC   C4B 1969   7.952   3.451   6.707  0.1094  0.3494  0.2433
  129POPC   NC3 1970   0.764   8.108   8.695  0.0865  0.0488 -0.1027
  129POPC   PO4 1971   0.818   8.553   8.609 -0.0117  0.2029 -0.5000
  129POPC   GL1 1972   0.750   8.559   8.243  0.4033 -0.2257 -0.0772
  129POPC   GL2 1973   0.491   8.274   8.258  0.2010 -0.1296 -0.3975
  129POPC   C1A 1974   0.964   8.641   7.854  0.1662 -0.2860 -0.0237
  129POPC   D2A 1975   1.161   8.870   7.477  0.1820  0.0362 -0.1188
  129POPC   C3A 1976   0.996   8.949   7.100  0.0392  0.2330 -0.2219
  129POPC   C4A 1977   0.922   8.727   6.774  0.1399  0.3042 -0.0489
  129POPC   C1B 1978   0.232   8.096   7.940 -0.1172  0.2889  0.0468
  129POPC   C2B 1979   0.124   8.271   7.486 -0.2417  0.0143 -0.1178
  129POPC   C3B 1980   0.085   8.372   7.003  0.3871 -0.2472 -0.1274
  129POPC   C4B 1981  -0.254   8.299   6.777  0.0958  0.2460 -0.0646
  130POPC   NC3 1982   1.938   8.734   8.773  0.1701  0.1587  0.0500
  130POPC   PO4 1983   1.732   8.997   8.438  0.1217 -0.1286 -0.0547
  130POPC   GL1 1984   1.952   8.801   8.118  0.0640  0.1712  0.2802
  130POPC   GL2 1985   2.153   8.950   7.939  0.0309 -0.4943 -0.3006
  130POPC   C1A 1986   1.855   8.710   7.660 -0.2380  0.0110  0.0310
  130POPC   D2A 1987   1.941   9.047   7.398  0.0325 -0.2792  0.2347
  130POPC   C3A 1988   1.564   8.897   7.027  0.1747  0.2104 -0.0173
  130POPC   C4A 1989   1.403   9.031   6.669 -0.0699  0.0523  0.1732
  130POPC   C1B 1990   2.403   8.784   7.529  0.1227 -0.1724  0.0028
  130POPC   C2B 1991   2.649   8.686   7.210 -0.1248 -0.0467 -0.2165
  130POPC   C3B 1992   2.998   8.689   6.958 -0.0999  0.0949  0.3120
  130POPC   C4B 1993   3.230   8.415   6.763 -0.0033 -0.1820  0.3151
  131POPC   NC3 1994   5.820   5.495   9.205 -0.3132  0.1210  0.2072
  131POPC   PO4 1995   6.269   5.628   9.362  0.3485 -0.0028  0.0544
  131POPC   GL1 1996   6.474   5.614   8.986 -0.1165  0.1662  0.4576
  131POPC   GL2 1997   6.239   5.508   8.854 -0.0032  0.3615 -0.1588
  131POPC   C1A 1998   6.805   5.951   8.737 -0.1441 -0.0061  0.0360
  131POPC   D2A 1999   7.173   6.057   8.541  0.0249  0.0552 -0.0063
  131POPC   C3A 2000   7.130   5.865   8.241 -0.2644  0.1334  0.4712
  131POPC   C4A 2001   7.292   5.678   7.930 -0.1806  0.0519  0.2368
  131POPC   C1B 2002   6.298   5.884   8.618 -0.0669 -0.1650 -0.0256
  131POPC   C2B 2003   6.637   6.009   8.288  0.2124 -0.2172  0.2158
  131POPC   C3B 2004   6.829   6.299   8.089 -0.0029  0.1514  0.2251
  131POPC   C4B 2005   6.930   6.694   7.790 -0.3503  0.1050  0.2529
  132POPC   NC3 2006   6.012   4.680   9.273  0.0995 -0.3845  0.0711
  132POPC   PO4 2007   5.871   4.898   8.875 -0.2661 -0.2359 -0.2323
  132POPC   GL1 2008   6.097   4.769   8.534  0.4428 -0.2298  0.1321
  132POPC   GL2 2009   6.354   5.053   8.645  0.0491 -0.2321  0.2297
  132POPC   C1A 2010   6.177   4.827   8.097  0.1802  0.0742 -0.1959
  132POPC   D2A 2011   6.552   5.091   7.828  0.0238  0.2028 -0.2535
  132POPC   C3A 2012   6.390   5.499   7.628 -0.2279  0.0463 -0.0045
  132POPC   C4A 2013   6.514   5.748   7.272 -0.0729  0.0881  0.1380
  132POPC   C1B 2014   6.326   5.236   8.288 -0.1383 -0.2038 -0.1985
  132POPC   C2B 2015   6.263   5.702   8.080 -0.2212 -0.0194 -0.4347
  132POPC   C3B 2016   6.369   5.995   7.819  0.3170 -0.0050  0.1376
  132POPC   C4B 2017   6.572   6.318   7.602  0.6341  0.2613 -0.0296
  133POPC   NC3 2018   9.379   5.664   9.038 -0.1288  0.0230  0.1491
  133POPC   PO4 2019   9.300   5.240   8.925  0.3339 -0.2750 -0.2632
  133POPC   GL1 2020   9.337   5.460   8.573 -0.1044 -0.0706 -0.3168
  133POPC   GL2 2021   9.013   5.381   8.344  0.0835 -0.0384 -0.1344
  133POPC   C1A 2022   9.477   5.486   8.215 -0.0793  0.0479  0.0584
  133POPC   D2A 2023   9.617   5.357   7.791 -0.2757 -0.2852 -0.2985
  133POPC   C3A 2024   9.475   5.399   7.368  0.1734 -0.0528  0.2792
  133POPC   C4A 2025   9.439   5.479   6.825  0.2111  0.3998 -0.0497
  133POPC   C1B 2026   9.001   5.634   8.000 -0.1490 -0.0453  0.0579
  133POPC   C2B 2027   9.146   5.718   7.591  0.2572  0.1805  0.0659
  133POPC   C3B 2028   9.250   5.780   7.138  0.2322  0.0438 -0.0814
  133POPC   C4B 2029   9.166   5.831   6.668  0.1590 -0.2051 -0.2765
  134POPC   NC3 2030   5.064   8.959   9.348  0.0244  0.2457  0.0854
  134POPC   PO4 2031   5.266   8.653   9.355  0.2299 -0.2736  0.2552
  134POPC   GL1 2032   5.429   8.793   8.936 -0.0676 -0.0504  0.5308
  134POPC   GL2 2033   5.658   9.030   8.892  0.3368 -0.0546 -0.2841
  134POPC   C1A 2034   5.525   8.611   8.485  0.0026 -0.1811 -0.0348
  134POPC   D2A 2035   5.448   8.325   8.102 -0.2299 -0.0392 -0.2537
  134POPC   C3A 2036   5.160   8.202   7.971  0.1823  0.0597  0.0588
  134POPC   C4A 2037   5.015   7.854   7.674 -0.2188  0.2521 -0.0226
  134POPC   C1B 2038   5.712   9.056   8.461  0.2115  0.0081 -0.0512
  134POPC   C2B 2039   5.680   8.779   8.023  0.2839  0.4300  0.2756
  134POPC   C3B 2040   5.789   8.616   7.610  0.0494  0.0810  0.2545
  134POPC   C4B 2041   6.150   8.412   7.336  0.0145  0.0101  0.1151
  135POPC   NC3 2042   5.197   4.385   8.230  0.2231 -0.1348  0.1908
  135POPC   PO4 2043   4.970   4.677   8.444 -0.1250 -0.0987 -0.0897
  135POPC   GL1 2044   4.879   4.747   7.966 -0.1980 -0.1930  0.2363
  135POPC   GL2 2045   4.997   4.568   7.774 -0.1741  0.2009  0.4183
  135POPC   C1A 2046   4.914   5.107   7.647  0.3999  0.1882  0.0585
  135POPC   D2A 2047   4.872   5.151   7.229 -0.0047 -0.0060  0.1414
  135POPC   C3A 2048   5.254   5.139   6.987 -0.2971 -0.0674  0.0648
  135POPC   C4A 2049   5.481   5.405   6.567  0.1901 -0.0067  0.0501
  135POPC   C1B 2050   5.012   4.628   7.357  0.4442 -0.2425 -0.3085
  135POPC   C2B 2051   4.970   4.775   6.931  0.1220  0.2736  0.1835
  135POPC   C3B 2052   4.729   4.608   6.644  0.1776 -0.2062 -0.0719
  135POPC   C4B 2053   4.468   4.574   6.228  0.0530 -0.0473 -0.0482
  136POPC   NC3 2054   2.719   6.832   8.937 -0.0637 -0.1764 -0.0388
  136POPC   PO4 2055   2.761   7.204   9.019 -0.1335  0.0238  0.1500
  136POPC   GL1 2056   2.774   7.187   8.524 -0.0840  0.1321  0.0468
  136POPC   GL2 2057   2.597   6.916   8.356 -0.3154  0.2494  0.1956
  136POPC   C1A 2058   3.048   7.360   8.127  0.0607  0.1812  0.2159
  136POPC   D2A 2059   3.249   7.590   7.737 -0.1105  0.0384 -0.1001
  136POPC   C3A 2060   3.189   7.955   7.715  0.0009 -0.2416 -0.1027
  136POPC   C4A 2061   3.283   8.333   7.527 -0.1482 -0.1058 -0.1953
  136POPC   C1B 2062   2.609   6.896   7.970  0.1941 -0.3641 -0.2589
  136POPC   C2B 2063   2.701   7.059   7.551 -0.0929  0.2046  0.3104
  136POPC   C3B 2064   2.735   7.044   7.139 -0.0376 -0.1194 -0.1155
  136POPC   C4B 2065   2.742   6.746   6.865  0.1252 -0.2897 -0.2687
  137POPC   NC3 2066   8.364   5.643   8.659  0.2194 -0.0339 -0.1821
  137POPC   PO4 2067   7.960   5.313   8.769  0.1259  0.4588 -0.0831
  137POPC   GL1 2068   7.987   5.477   8.386  0.3845  0.0038  0.1870
  137POPC   GL2 2069   7.749   5.319   8.232  0.1422 -0.3644  0.0553
  137POPC   C1A 2070   7.981   5.813   7.915 -0.1963  0.2655 -0.0839
  137POPC   D2A 2071   7.765   5.827   7.589  0.0872 -0.1497 -0.0398
  137POPC   C3A 2072   7.477   6.096   7.677 -0.2622  0.2553 -0.2888
  137POPC   C4A 2073   7.204   6.270   7.734 -0.1652  0.1104  0.0433
  137POPC   C1B 2074   7.674   5.367   7.864 -0.2436 -0.1453  0.1676
  137POPC   C2B 2075   7.697   5.316   7.415 -0.0943  0.3012  0.3161
  137POPC   C3B 2076   7.625   5.036   7.009 -0.1344 -0.1573 -0.1954
  137POPC   C4B 2077   7.436   4.784   6.676 -0.2406 -0.3787  0.0880
  138POPC   NC3 2078   0.339   5.611   9.071 -0.1960 -0.1171 -0.1836
  138POPC   PO4 2079   0.756   5.687   8.866 -0.1497  0.0336 -0.1040
  138POPC   GL1 2080   0.891   5.548   8.454  0.6701 -0.0859  0.1891
  138POPC   GL2 2081   0.711   5.438   8.204 -0.4272  0.1763  0.2378
  138POPC   C1A 2082   1.170   5.230   8.205  0.1868 -0.0547 -0.2093
  138POPC   D2A 2083   1.394   4.818   8.132  0.4280  0.0689  0.3130
  138POPC   C3A 2084   1.429   4.597   7.674 -0.3453 -0.2166 -0.0012
  138POPC   C4A 2085   1.526   4.489   7.232  0.0913  0.1143  0.0391
  138POPC   C1B 2086   0.750   5.764   7.870  0.2973 -0.2568 -0.0519
  138POPC   C2B 2087   0.443   5.892   7.536  0.1356  0.0433 -0.0174
  138POPC   C3B 2088   0.285   5.783   7.143  0.1571  0.1208  0.4392
  138POPC   C4B 2089   0.015   5.423   6.905  0.1331 -0.1827  0.0488
  139POPC   NC3 2090   0.382   4.454   8.710  0.2956  0.0026  0.2019
  139POPC   PO4 2091  -0.023   4.540   8.793 -0.0696 -0.2381  0.1884
  139POPC   GL1 2092  -0.237   4.542   8.470 -0.0771  0.2524 -0.1201
  139POPC   GL2 2093  -0.366   4.352   8.285 -0.2324 -0.0410  0.0546
  139POPC   C1A 2094  -0.107   4.807   8.138  0.2571 -0.3204  0.2058
  139POPC   D2A 2095  -0.173   4.807   7.737  0.0106 -0.2660  0.3920
  139POPC   C3A 2096  -0.637   5.028   7.671 -0.0000  0.0446 -0.2351
  139POPC   C4A 2097  -0.954   5.265   7.462  0.0878 -0.2614 -0.0073
  139POPC   C1B 2098  -0.127   4.264   7.909 -0.0489  0.0367  0.2523
  139POPC   C2B 2099  -0.121   4.363   7.443  0.2088 -0.0644 -0.1993
  139POPC   C3B 2100   0.151   4.605   7.233 -0.2533  0.2565 -0.0688
  139POPC   C4B 2101   0.482   4.611   6.960  0.2462  0.1268 -0.0688
  140POPC   NC3 2102   8.091   0.168   8.728  0.2903 -0.0413 -0.0605
  140POPC   PO4 2103   7.664   0.258   8.544  0.3142 -0.2058  0.0210
  140POPC   GL1 2104   7.691  -0.100   8.288  0.1335 -0.0603 -0.0934
  140POPC   GL2 2105   8.036  -0.223   8.241  0.1847 -0.4745 -0.1176
  140POPC   C1A 2106   7.591  -0.263   7.932 -0.3156  0.1360  0.3151
  140POPC   D2A 2107   7.789  -0.100   7.496  0.2694 -0.0324  0.0555
  140POPC   C3A 2108   7.676  -0.487   7.276 -0.0879 -0.1056 -0.0782
  140POPC   C4A 2109   7.332  -0.804   7.155 -0.0523  0.1832 -0.2681
  140POPC   C1B 2110   8.081  -0.501   8.055 -0.1077 -0.3160 -0.2517
  140POPC   C2B 2111   8.204  -0.656   7.680  0.0775  0.6225 -0.0874
  140POPC   C3B 2112   8.147  -0.749   7.201 -0.2774 -0.0835  0.0939
  140POPC   C4B 2113   8.094  -0.606   6.704  0.0488 -0.0024 -0.1587
  141POPC   NC3 2114   8.277   7.707   9.763  0.1685  0.2422  0.2210
  141POPC   PO4 2115   7.999   7.954   9.737 -0.2395  0.1221  0.0827
  141POPC   GL1 2116   7.908   7.688   9.423  0.5770 -0.2545 -0.0816
  141POPC   GL2 2117   7.482   7.630   9.533 -0.0819  0.1206 -0.1656
  141POPC   C1A 2118   7.782   7.513   9.036 -0.2630  0.0649  0.0365
  141POPC   D2A 2119   7.749   7.329   8.630 -0.0763  0.0446 -0.0717
  141POPC   C3A 2120   8.109   7.062   8.573  0.0239 -0.0431 -0.2051
  141POPC   C4A 2121   8.533   6.961   8.337  0.1928 -0.1660  0.1480
  141POPC   C1B 2122   7.221   7.395   9.294  0.1572  0.3141  0.1573
  141POPC   C2B 2123   7.307   7.437   8.831 -0.1203 -0.0511 -0.1429
  141POPC   C3B 2124   6.920   7.441   8.540 -0.0075  0.0102 -0.1956
  141POPC   C4B 2125   6.575   7.315   8.364  0.0142  0.1866  0.1963
  142POPC   NC3 2126   7.630   0.736   8.424 -0.2406 -0.0230  0.0333
  142POPC   PO4 2127   7.610   1.099   8.308  0.0048  0.0133  0.1930
  142POPC   GL1 2128   7.550   1.045   7.952  0.3535 -0.3102 -0.0298
  142POPC   GL2 2129   7.692   0.802   7.864  0.1126 -0.1626 -0.3432
  142POPC   C1A 2130   7.714   1.195   7.536  0.2015 -0.1797  0.0057
  142POPC   D2A 2131   7.828   1.388   7.296  0.0870 -0.0585  0.0725
  142POPC   C3A 2132   7.955   1.564   6.964  0.0247 -0.1329 -0.3813
  142POPC   C4A 2133   8.240   1.611   6.703 -0.0604 -0.0133  0.3149
  142POPC   C1B 2134   7.584   0.678   7.437 -0.1412  0.2108  0.0942
  142POPC   C2B 2135   7.506   0.495   6.997  0.0483 -0.0649  0.0916
  142POPC   C3B 2136   7.643   0.284   6.635  0.0806  0.4206  0.1444
  142POPC   C4B 2137   7.892   0.226   6.234  0.3917  0.0892  0.1540
  143POPC   NC3 2138   4.948   3.912   8.813  0.0727  0.0266 -0.1298
  143POPC   PO4 2139   5.145   3.925   8.349  0.2219 -0.0884  0.3003
  143POPC   GL1 2140   5.058   3.727   7.836 -0.3854 -0.2271 -0.0981
  143POPC   GL2 2141   5.077   3.321   7.665  0.0523  0.1014  0.2469
  143POPC   C1A 2142   5.205   3.871   7.506  0.1329 -0.0043  0.3591
  143POPC   D2A 2143   4.955   4.146   7.376  0.1803 -0.0243 -0.3440
  143POPC   C3A 2144   4.863   4.267   6.975 -0.2890  0.2303 -0.0118
  143POPC   C4A 2145   4.922   4.115   6.523 -0.2685  0.0731 -0.0536
  143POPC   C1B 2146   5.057   3.512   7.176  0.2047  0.2507 -0.0358
  143POPC   C2B 2147   4.821   3.701   6.896 -0.0394  0.0586 -0.2331
  143POPC   C3B 2148   4.515   3.960   6.682  0.1385  0.1212  0.3672
  143POPC   C4B 2149   4.259   4.313   6.616 -0.1955 -0.0082  0.0742
  144POPC   NC3 2150   2.976   9.109   8.730 -0.2697 -0.2263 -0.1937
  144POPC   PO4 2151   3.333   9.326   8.436 -0.4009 -0.2324 -0.2428
  144POPC   GL1 2152   3.560   9.267   8.079 -0.0416 -0.0998 -0.2504
  144POPC   GL2 2153   3.875   9.135   8.274  0.2358  0.1800  0.2640
  144POPC   C1A 2154   3.505   9.292   7.581 -0.1981  0.1587  0.2767
  144POPC   D2A 2155   3.875   9.068   7.320 -0.1084 -0.4427 -0.1112
  144POPC   C3A 2156   4.155   9.285   6.950 -0.0493 -0.0400 -0.2079
  144POPC   C4A 2157   4.578   9.244   6.656  0.0956  0.2954  0.1901
  144POPC   C1B 2158   3.836   8.766   8.006 -0.1311 -0.0212  0.1699
  144POPC   C2B 2159   3.796   8.454   7.647  0.1696 -0.2561  0.0762
  144POPC   C3B 2160   3.710   8.149   7.396  0.0937  0.0541  0.1758
  144POPC   C4B 2161   3.789   7.970   7.009 -0.0743 -0.0399 -0.2397
  145POPC   NC3 2162   6.806   5.080   9.198 -0.1615  0.1134  0.3424
  145POPC   PO4 2163   6.913   4.758   9.048 -0.2102 -0.1380  0.0640
  145POPC   GL1 2164   6.936   4.914   8.661 -0.1797  0.3468  0.1579
  145POPC   GL2 2165   6.858   5.233   8.720  0.0693 -0.1900 -0.2759
  145POPC   C1A 2166   6.782   4.917   8.234 -0.2600  0.2879 -0.2270
  145POPC   D2A 2167   6.607   4.619   7.964 -0.1716 -0.3183  0.0702
  145POPC   C3A 2168   6.527   4.627   7.551 -0.0701  0.0632  0.0580
  145POPC   C4A 2169   6.328   4.728   7.128 -0.0265 -0.0345 -0.0427
  145POPC   C1B 2170   6.654   5.521   8.481  0.2455  0.0490  0.0422
  145POPC   C2B 2171   6.707   5.550   8.056  0.1404 -0.0746  0.1615
  145POPC   C3B 2172   6.832   5.835   7.727  0.0970 -0.1109  0.0998
  145POPC   C4B 2173   6.992   5.985   7.428  0.2207 -0.1312 -0.1180
  146POPC   NC3 2174   0.658   1.951   8.720 -0.0150 -0.2439  0.1013
  146POPC   PO4 2175   0.336   2.214   8.814  0.1908  0.2058 -0.2524
  146POPC   GL1 2176   0.503   2.343   8.471  0.3126 -0.0349 -0.2069
  146POPC   GL2 2177   0.433   2.311   8.200  0.1332  0.0917  0.1339
  146POPC   C1A 2178   0.768   2.614   8.267 -0.1611 -0.3195 -0.0768
  146POPC   D2A 2179   0.990   3.031   8.193 -0.2238  0.0198 -0.0221
  146POPC   C3A 2180   0.837   2.974   7.800  0.2142 -0.0328 -0.3480
  146POPC   C4A 2181   0.987   2.834   7.470 -0.1219  0.1577  0.0473
  146POPC   C1B 2182   0.444   2.664   7.855 -0.1698 -0.3578  0.0087
  146POPC   C2B 2183   0.490   2.784   7.444  0.1098 -0.2269  0.1223
  146POPC   C3B 2184   0.251   2.660   7.070 -0.2447 -0.3913 -0.0917
  146POPC   C4B 2185  -0.046   2.265   7.089 -0.1708  0.2534 -0.2885
  147POPC   NC3 2186   8.025   5.378   9.527 -0.0509 -0.2885 -0.0685
  147POPC   PO4 2187   7.795   5.791   9.522  0.1290 -0.1289 -0.1680
  147POPC   GL1 2188   7.652   6.056   9.290  0.0872  0.0745 -0.1891
  147POPC   GL2 2189   7.638   6.337   9.395  0.1329  0.1193 -0.1247
  147POPC   C1A 2190   7.824   6.172   8.914  0.5125 -0.3381 -0.0256
  147POPC   D2A 2191   7.931   5.976   8.523  0.0701  0.2073 -0.0851
  147POPC   C3A 2192   8.221   6.047   8.226 -0.1692 -0.1053 -0.1729
  147POPC   C4A 2193   8.552   5.828   7.979 -0.3551 -0.3757  0.0869
  147POPC   C1B 2194   7.714   6.574   9.127  0.3179 -0.1094 -0.3519
  147POPC   C2B 2195   7.887   6.681   8.790  0.0291 -0.1727  0.1539
  147POPC   C3B 2196   8.018   6.590   8.446  0.1503  0.0002 -0.0615
  147POPC   C4B 2197   8.275   6.563   8.170  0.0990 -0.0324  0.0628
  148POPC   NC3 2198   5.007   0.205   9.079 -0.0481 -0.0922 -0.2765
  148POPC   PO4 2199   5.324   0.171   8.687 -0.0834 -0.1532 -0.1414
  148POPC   GL1 2200   5.388   0.000   8.161 -0.0080  0.1580  0.2462
  148POPC   GL2 2201   5.595   0.016   7.974  0.1794  0.0618 -0.0868
  148POPC   C1A 2202   5.155  -0.206   7.824 -0.3005  0.0870 -0.0465
  148POPC   D2A 2203   4.763  -0.181   7.551 -0.2503 -0.0195  0.0284
  148POPC   C3A 2204   4.597   0.108   7.207 -0.2618  0.2540  0.1012
  148POPC   C4A 2205   4.330   0.423   6.966 -0.1751 -0.0091  0.3727
  148POPC   C1B 2206   5.701   0.006   7.558  0.1989 -0.2584  0.1018
  148POPC   C2B 2207   5.675  -0.047   7.129  0.0668  0.2235 -0.0132
  148POPC   C3B 2208   5.497  -0.274   6.699  0.4404  0.0691  0.2860
  148POPC   C4B 2209   5.428  -0.500   6.451 -0.1254  0.1124 -0.0662
  149POPC   NC3 2210   6.868   5.590   9.952 -0.1630 -0.1616  0.3507
  149POPC   PO4 2211   6.720   6.019   9.770  0.1475 -0.0369  0.0449
  149POPC   GL1 2212   6.608   6.275   9.454 -0.1334  0.1151  0.1659
  149POPC   GL2 2213   6.743   6.579   9.604  0.0280  0.2561  0.2035
  149POPC   C1A 2214   6.493   6.247   9.041  0.2068 -0.2551  0.2447
  149POPC   D2A 2215   6.453   6.386   8.647  0.3464  0.3861  0.1535
  149POPC   C3A 2216   6.272   6.337   8.257 -0.0365 -0.1792 -0.0355
  149POPC   C4A 2217   5.960   6.296   8.019  0.1003 -0.0208  0.0127
  149POPC   C1B 2218   6.488   6.785   9.302 -0.0355  0.1666 -0.1749
  149POPC   C2B 2219   6.255   6.753   8.987  0.0538  0.1249 -0.0134
  149POPC   C3B 2220   5.918   6.435   8.838  0.1311  0.1514  0.0974
  149POPC   C4B 2221   5.787   6.143   8.527  0.1848 -0.1113  0.0872
  150POPC   NC3 2222   6.966   5.260   3.410  0.2235 -0.1238  0.2704
  150POPC   PO4 2223   7.326   5.558   3.423  0.0663 -0.1235  0.1361
  150POPC   GL1 2224   7.393   5.671   3.994  0.2295 -0.3278  0.3668
  150POPC   GL2 2225   7.495   5.422   4.262  0.0257  0.0009 -0.0606
  150POPC   C1A 2226   7.329   5.846   4.368  0.1462 -0.1020 -0.3387
  150POPC   D2A 2227   7.598   6.092   4.581  0.0819  0.0582 -0.1945
  150POPC   C3A 2228   7.828   5.946   4.873 -0.1463  0.0866  0.1963
  150POPC   C4A 2229   8.137   5.951   5.112 -0.2199 -0.1721 -0.0423
  150POPC   C1B 2230   7.552   5.543   4.697 -0.0346 -0.0068 -0.2994
  150POPC   C2B 2231   7.695   5.539   5.163 -0.1677 -0.3507 -0.0734
  150POPC   C3B 2232   7.686   5.370   5.608  0.1116  0.0815 -0.0441
  150POPC   C4B 2233   7.458   5.409   6.025 -0.1425  0.0701 -0.3206
  151POPC   NC3 2234   7.624   3.048   4.617 -0.0706  0.1559  0.1021
  151POPC   PO4 2235   7.939   2.825   4.660  0.1313 -0.0862  0.0921
  151POPC   GL1 2236   7.940   2.635   5.099  0.4019 -0.3013  0.0256
  151POPC   GL2 2237   8.110   2.896   5.211  0.0285 -0.0846  0.2293
  151POPC   C1A 2238   7.753   2.450   5.424  0.1974  0.2517 -0.2079
  151POPC   D2A 2239   7.471   2.232   5.701  0.1987 -0.0748 -0.3470
  151POPC   C3A 2240   7.149   2.357   5.775 -0.1357 -0.0079  0.3194
  151POPC   C4A 2241   7.125   2.545   5.446  0.0353 -0.0375 -0.1526
  151POPC   C1B 2242   8.422   3.100   5.491  0.2284 -0.0904 -0.0305
  151POPC   C2B 2243   8.244   3.185   5.818 -0.0277  0.2274 -0.1610
  151POPC   C3B 2244   8.140   3.131   6.273 -0.2764 -0.1977  0.4614
  151POPC   C4B 2245   7.840   2.994   6.511  0.2740 -0.1547  0.1195
  152POPC   NC3 2246   8.775   6.790   3.767 -0.2654  0.2969  0.2552
  152POPC   PO4 2247   8.517   7.115   4.070  0.0851 -0.0426 -0.4769
  152POPC   GL1 2248   8.536   7.160   4.539  0.0765 -0.4427 -0.0320
  152POPC   GL2 2249   8.233   6.951   4.560 -0.1813 -0.2712 -0.0433
  152POPC   C1A 2250   8.419   7.329   4.874 -0.0707  0.0679 -0.1775
  152POPC   D2A 2251   8.493   7.729   5.092  0.1125  0.0452 -0.0165
  152POPC   C3A 2252   8.475   7.820   5.475  0.3409 -0.0029  0.0429
  152POPC   C4A 2253   8.479   7.789   5.943 -0.5843  0.0910  0.1941
  152POPC   C1B 2254   8.337   6.749   4.920  0.1041  0.0036 -0.0653
  152POPC   C2B 2255   8.641   6.810   5.213  0.1087  0.0859  0.0452
  152POPC   C3B 2256   8.521   6.675   5.559  0.1221 -0.0170 -0.0772
  152POPC   C4B 2257   8.554   6.720   5.986 -0.0043 -0.0782  0.0838
  153POPC   NC3 2258   4.094   1.508   4.689 -0.1187  0.0782 -0.1348
  153POPC   PO4 2259   4.512   1.325   4.655 -0.2625  0.0721  0.3114
  153POPC   GL1 2260   4.622   1.313   5.040 -0.0892  0.1686 -0.0084
  153POPC   GL2 2261   4.346   1.430   5.098 -0.2618  0.1575  0.2791
  153POPC   C1A 2262   4.676   1.382   5.506  0.1034  0.0804 -0.2064
  153POPC   D2A 2263   4.720   1.566   5.903  0.2647 -0.2832 -0.0751
  153POPC   C3A 2264   4.421   1.844   6.167  0.1488  0.0254 -0.0603
  153POPC   C4A 2265   4.315   1.794   6.497 -0.1784 -0.0787 -0.0168
  153POPC   C1B 2266   4.193   1.509   5.475 -0.1957 -0.2302 -0.2340
  153POPC   C2B 2267   4.264   1.396   5.975 -0.1469 -0.2721  0.0500
  153POPC   C3B 2268   4.325   1.209   6.452 -0.1248  0.0781  0.3229
  153POPC   C4B 2269   4.156   0.841   6.730 -0.0860 -0.0711 -0.0817
  154POPC   NC3 2270   1.016   1.280   4.736  0.1465 -0.3322  0.1745
  154POPC   PO4 2271   1.016   0.905   4.635 -0.1298 -0.3546  0.1009
  154POPC   GL1 2272   0.749   0.947   4.953  0.0542  0.2306 -0.3983
  154POPC   GL2 2273   0.896   1.035   5.240 -0.0988  0.0748 -0.0478
  154POPC   C1A 2274   0.493   0.763   5.224 -0.2255  0.2186 -0.0095
  154POPC   D2A 2275   0.402   0.711   5.581 -0.0215  0.2442 -0.4612
  154POPC   C3A 2276  -0.033   0.489   5.785  0.3042  0.0513 -0.4805
  154POPC   C4A 2277  -0.030   0.453   6.234 -0.2064 -0.0280  0.0056
  154POPC   C1B 2278   0.825   0.905   5.731 -0.0615 -0.0342  0.0382
  154POPC   C2B 2279   0.727   0.720   6.068  0.2637  0.1202  0.2123
  154POPC   C3B 2280   0.438   0.569   6.359 -0.1111 -0.3437  0.0153
  154POPC   C4B 2281   0.616   0.286   6.669  0.0084 -0.0620  0.1518
  155POPC   NC3 2282   6.663   0.661   4.054 -0.2222 -0.1417  0.1808
  155POPC   PO4 2283   6.548   0.224   3.929  0.3197  0.1333 -0.1580
  155POPC   GL1 2284   6.595   0.364   4.439  0.0363  0.3357 -0.0124
  155POPC   GL2 2285   6.597   0.621   4.624  0.1454  0.0798 -0.2336
  155POPC   C1A 2286   6.554   0.166   4.839 -0.0650  0.1747 -0.0983
  155POPC   D2A 2287   6.452   0.072   5.280 -0.2729  0.2166  0.5055
  155POPC   C3A 2288   6.230   0.383   5.428  0.2272 -0.0533  0.2266
  155POPC   C4A 2289   6.146   0.436   5.895 -0.3399  0.1064  0.1623
  155POPC   C1B 2290   6.306   0.687   4.989  0.2635  0.0019 -0.0289
  155POPC   C2B 2291   6.413   0.833   5.340  0.0599 -0.0988  0.0342
  155POPC   C3B 2292   6.511   0.815   5.807  0.0735  0.0432 -0.1045
  155POPC   C4B 2293   6.340   0.755   6.229 -0.1758 -0.0788 -0.4891
  156POPC   NC3 2294   1.020   5.545   4.690 -0.2464  0.1174 -0.2535
  156POPC   PO4 2295   1.037   5.985   4.723 -0.0450 -0.1669 -0.1148
  156POPC   GL1 2296   0.970   6.119   5.159  0.0151  0.0383  0.3723
  156POPC   GL2 2297   1.005   6.413   5.157 -0.3337 -0.0052  0.2232
  156POPC   C1A 2298   0.820   5.865   5.449  0.1879 -0.1439 -0.0001
  156POPC   D2A 2299   0.926   5.745   5.834 -0.0000  0.2614  0.0573
  156POPC   C3A 2300   1.250   5.619   5.968 -0.1117  0.2853 -0.1700
  156POPC   C4A 2301   1.469   5.562   6.362 -0.2403 -0.1199 -0.0106
  156POPC   C1B 2302   1.016   6.353   5.534  0.2101 -0.0721  0.3116
  156POPC   C2B 2303   1.139   6.181   5.884  0.1132 -0.0691  0.0069
  156POPC   C3B 2304   1.438   6.153   6.263 -0.0640  0.0943 -0.0197
  156POPC   C4B 2305   1.765   6.047   6.555  0.0646 -0.0243  0.0788
  157POPC   NC3 2306   0.528   1.749   4.163  0.2099 -0.0490  0.0306
  157POPC   PO4 2307   0.838   1.710   4.576  0.0038  0.2612 -0.1974
  157POPC   GL1 2308   0.607   1.618   4.937  0.0734 -0.2799  0.1341
  157POPC   GL2 2309   0.336   1.822   5.187  0.1362  0.2204 -0.0261
  157POPC   C1A 2310   0.466   1.321   5.202  0.0580  0.1347 -0.0057
  157POPC   D2A 2311   0.141   1.074   5.350 -0.1837  0.1256  0.0462
  157POPC   C3A 2312  -0.078   1.242   5.691 -0.1884  0.2639 -0.0378
  157POPC   C4A 2313  -0.418   1.466   5.985 -0.1286  0.0317 -0.2571
  157POPC   C1B 2314   0.098   1.882   5.586 -0.0770 -0.1056  0.3117
  157POPC   C2B 2315   0.243   2.122   5.964 -0.0585 -0.1405  0.0648
  157POPC   C3B 2316   0.335   2.583   6.006 -0.0456 -0.1281  0.4565
  157POPC   C4B 2317   0.677   2.674   6.330  0.0050 -0.1846 -0.0292
  158POPC   NC3 2318   0.422   6.336   4.298 -0.0877  0.0688  0.2245
  158POPC   PO4 2319   0.157   6.327   4.632 -0.1377  0.0796  0.1219
  158POPC   GL1 2320   0.258   6.070   4.988  0.0205  0.1927 -0.0577
  158POPC   GL2 2321  -0.048   6.231   5.203 -0.1151 -0.3774 -0.1962
  158POPC   C1A 2322   0.293   5.930   5.498  0.0668 -0.1513 -0.1993
  158POPC   D2A 2323   0.395   5.614   5.766 -0.3553 -0.2185  0.1447
  158POPC   C3A 2324   0.112   5.509   6.076  0.0335  0.1173  0.0950
  158POPC   C4A 2325  -0.133   5.294   6.414  0.1246 -0.1314 -0.2560
  158POPC   C1B 2326  -0.135   6.348   5.577  0.1619  0.2245 -0.1005
  158POPC   C2B 2327  -0.453   6.156   5.971 -0.2172 -0.2934  0.0358
  158POPC   C3B 2328  -0.830   5.982   6.226 -0.0737 -0.2092 -0.0403
  158POPC   C4B 2329  -1.157   5.815   6.393  0.1108  0.1288 -0.1661
  159POPC   NC3 2330   1.270   0.490   4.542  0.1606 -0.1983  0.0085
  159POPC   PO4 2331   1.533   0.321   4.721 -0.1949 -0.1251 -0.1612
  159POPC   GL1 2332   1.545   0.492   5.108 -0.1381 -0.0575  0.2858
  159POPC   GL2 2333   1.193   0.652   5.102  0.3860 -0.0299  0.0962
  159POPC   C1A 2334   1.488   0.406   5.400  0.3378 -0.1356 -0.3255
  159POPC   D2A 2335   1.438   0.065   5.629  0.0620  0.2262 -0.1261
  159POPC   C3A 2336   1.065  -0.123   5.934 -0.0975 -0.0867 -0.2475
  159POPC   C4A 2337   1.060  -0.396   6.265  0.0495  0.2756  0.1358
  159POPC   C1B 2338   0.940   0.487   5.494  0.1832 -0.0535  0.3602
  159POPC   C2B 2339   1.051   0.360   5.831 -0.0074  0.0249 -0.1538
  159POPC   C3B 2340   1.446   0.310   6.021  0.1891 -0.2851  0.0083
  159POPC   C4B 2341   1.496  -0.046   6.131  0.0519  0.2458 -0.0146
  160POPC   NC3 2342   4.493   3.445   4.508 -0.0132  0.1820  0.0620
  160POPC   PO4 2343   4.441   3.852   4.739  0.0667 -0.1298 -0.0152
  160POPC   GL1 2344   4.621   3.896   5.269  0.2799 -0.0258 -0.2205
  160POPC   GL2 2345   4.690   3.720   5.595  0.0582 -0.2114  0.1359
  160POPC   C1A 2346   4.900   4.189   5.549  0.2321 -0.1039 -0.1721
  160POPC   D2A 2347   4.884   4.348   6.054  0.3447 -0.2873 -0.1399
  160POPC   C3A 2348   5.138   4.612   6.233  0.1219 -0.2450  0.1309
  160POPC   C4A 2349   5.101   4.939   6.468 -0.0403 -0.1550 -0.1491
  160POPC   C1B 2350   4.569   4.011   5.899 -0.0600  0.1751 -0.1835
  160POPC   C2B 2351   4.280   4.136   6.161  0.0102  0.0970 -0.0160
  160POPC   C3B 2352   3.888   4.082   6.368  0.1486  0.0127  0.0647
  160POPC   C4B 2353   3.476   4.117   6.259 -0.1445  0.1161  0.1655
  161POPC   NC3 2354   8.715   2.750   4.525 -0.0721  0.1290  0.0208
  161POPC   PO4 2355   8.660   3.043   4.740 -0.1248  0.1702  0.1450
  161POPC   GL1 2356   8.699   2.811   5.168  0.1567 -0.1502  0.2906
  161POPC   GL2 2357   9.052   2.813   5.128 -0.0867 -0.1582 -0.0683
  161POPC   C1A 2358   8.914   2.813   5.590  0.0384 -0.1656 -0.2598
  161POPC   D2A 2359   8.965   2.750   6.002 -0.1497 -0.4972 -0.0560
  161POPC   C3A 2360   9.341   2.716   6.218  0.1482 -0.1011 -0.2071
  161POPC   C4A 2361   9.663   3.089   6.154 -0.2730 -0.1219 -0.1102
  161POPC   C1B 2362   9.134   3.269   5.316 -0.0684  0.0184  0.0194
  161POPC   C2B 2363   9.194   3.631   5.545  0.1131 -0.1761 -0.0319
  161POPC   C3B 2364   9.102   3.864   6.055 -0.2078 -0.0504  0.0629
  161POPC   C4B 2365   8.758   3.682   6.295  0.1343 -0.0557  0.1349
  162POPC   NC3 2366   9.329   6.710   4.335  0.0616  0.1433  0.1047
  162POPC   PO4 2367   9.809   6.718   4.366 -0.0330  0.4939 -0.2528
  162POPC   GL1 2368   9.559   6.796   4.786  0.1066 -0.0686 -0.4185
  162POPC   GL2 2369   9.456   6.563   5.004 -0.0736  0.1678 -0.1237
  162POPC   C1A 2370   9.214   7.040   5.023 -0.0642 -0.2419  0.0219
  162POPC   D2A 2371   9.064   6.988   5.466  0.0529  0.0007 -0.0193
  162POPC   C3A 2372   8.688   7.183   5.540  0.0277 -0.2800  0.2283
  162POPC   C4A 2373   8.311   7.277   5.415  0.3203 -0.0365 -0.2216
  162POPC   C1B 2374   9.610   6.752   5.439 -0.1069  0.0584 -0.0060
  162POPC   C2B 2375   9.518   6.641   5.853 -0.1060 -0.2669 -0.1337
  162POPC   C3B 2376   9.566   6.572   6.333 -0.1113  0.0780  0.1233
  162POPC   C4B 2377   9.829   6.870   6.680  0.1692  0.3376  0.0604
  163POPC   NC3 2378   2.189   3.507   5.030  0.5163  0.0609  0.1936
  163POPC   PO4 2379   2.370   3.802   4.751 -0.0444 -0.2012  0.0040
  163POPC   GL1 2380   2.613   3.781   5.184  0.0238 -0.0247  0.0978
  163POPC   GL2 2381   2.458   3.542   5.444  0.0712  0.3302  0.0509
  163POPC   C1A 2382   2.840   3.844   5.723 -0.1424 -0.0440 -0.2162
  163POPC   D2A 2383   3.085   3.867   5.989  0.0172 -0.2998 -0.1141
  163POPC   C3A 2384   2.865   3.932   6.455  0.0182  0.2263  0.1811
  163POPC   C4A 2385   2.729   3.857   6.803 -0.1421  0.2136 -0.1555
  163POPC   C1B 2386   2.454   3.525   5.869 -0.0889  0.0846  0.1413
  163POPC   C2B 2387   2.551   3.652   6.164  0.1780  0.0196 -0.1673
  163POPC   C3B 2388   2.332   3.753   6.507  0.2951 -0.2729  0.0964
  163POPC   C4B 2389   2.257   3.694   6.903  0.2836  0.1414 -0.2873
  164POPC   NC3 2390   6.368   5.675   3.812  0.1922  0.0323  0.0084
  164POPC   PO4 2391   6.315   5.310   4.078  0.0916 -0.0925  0.2121
  164POPC   GL1 2392   6.346   5.306   4.490 -0.0950 -0.1722 -0.2110
  164POPC   GL2 2393   6.276   4.993   4.746  0.1160  0.1337 -0.1331
  164POPC   C1A 2394   6.512   5.604   4.891 -0.0730  0.0305 -0.0220
  164POPC   D2A 2395   6.493   5.607   5.335 -0.2103 -0.3923 -0.0036
  164POPC   C3A 2396   6.756   5.775   5.600 -0.0582  0.0630 -0.2549
  164POPC   C4A 2397   6.664   6.028   5.923 -0.1699 -0.0108 -0.1805
  164POPC   C1B 2398   6.197   5.265   5.067  0.2332 -0.2288 -0.3435
  164POPC   C2B 2399   5.942   5.412   5.474 -0.1713  0.2125 -0.0700
  164POPC   C3B 2400   6.070   5.260   5.987 -0.1801 -0.0992  0.0361
  164POPC   C4B 2401   6.154   5.246   6.392  0.1976 -0.0343 -0.0728
  165POPC   NC3 2402   2.429   2.802   4.867  0.1550 -0.2205  0.2486
  165POPC   PO4 2403   2.140   2.984   5.173 -0.0660  0.3097  0.1816
  165POPC   GL1 2404   1.823   2.831   5.419 -0.0944  0.0628  0.2858
  165POPC   GL2 2405   1.508   3.024   5.506  0.2116 -0.1137  0.3985
  165POPC   C1A 2406   1.885   2.748   5.876  0.3188  0.0018  0.3410
  165POPC   D2A 2407   2.090   2.532   6.220  0.0020  0.2084  0.3814
  165POPC   C3A 2408   2.152   2.810   6.496  0.1031 -0.1240 -0.1730
  165POPC   C4A 2409   2.153   3.199   6.821 -0.0228  0.0200  0.0314
  165POPC   C1B 2410   1.418   3.044   5.963 -0.0108  0.1508 -0.1789
  165POPC   C2B 2411   1.484   2.725   6.240 -0.2458  0.0822  0.1997
  165POPC   C3B 2412   1.603   2.364   6.466 -0.1337  0.2597  0.0729
  165POPC   C4B 2413   1.866   1.901   6.483  0.2128 -0.0841  0.3165
  166POPC   NC3 2414   6.036   2.319   4.285  0.4527 -0.2532  0.1361
  166POPC   PO4 2415   6.211   2.004   4.454 -0.3644 -0.1374  0.1004
  166POPC   GL1 2416   5.915   1.990   4.788  0.1008  0.2529 -0.3079
  166POPC   GL2 2417   5.714   1.749   4.796 -0.2312  0.4691 -0.1660
  166POPC   C1A 2418   5.940   1.893   5.346 -0.6918 -0.3346  0.3550
  166POPC   D2A 2419   5.971   2.180   5.749 -0.0961  0.3465 -0.1234
  166POPC   C3A 2420   5.788   2.596   5.674  0.3189 -0.0803 -0.4575
  166POPC   C4A 2421   5.295   2.756   5.505 -0.2585  0.1038  0.0007
  166POPC   C1B 2422   5.946   1.407   5.159  0.2367 -0.0660 -0.3581
  166POPC   C2B 2423   6.134   1.345   5.586  0.2607 -0.0784  0.0757
  166POPC   C3B 2424   6.298   1.234   6.042 -0.3329 -0.1016 -0.2813
  166POPC   C4B 2425   6.731   1.107   6.181  0.2258 -0.0651 -0.2778
  167POPC   NC3 2426   4.426   6.005   3.778 -0.2117  0.0569 -0.0023
  167POPC   PO4 2427   4.408   5.658   4.224 -0.0244  0.0936  0.0638
  167POPC   GL1 2428   4.502   5.819   4.572 -0.0617  0.2131  0.1023
  167POPC   GL2 2429   4.284   6.036   4.803 -0.1733  0.2498 -0.0348
  167POPC   C1A 2430   4.474   5.668   5.075 -0.1259  0.0607 -0.2261
  167POPC   D2A 2431   4.417   5.781   5.630  0.4960 -0.0081  0.2739
  167POPC   C3A 2432   4.039   5.779   5.802  0.0081 -0.0290  0.1574
  167POPC   C4A 2433   3.737   5.569   5.847  0.0647  0.0226 -0.1569
  167POPC   C1B 2434   4.682   6.276   4.886  0.2226  0.1246  0.2109
  167POPC   C2B 2435   4.726   6.588   5.307 -0.1143 -0.2958  0.1012
  167POPC   C3B 2436   4.804   6.780   5.775 -0.0875  0.0631 -0.2726
  167POPC   C4B 2437   4.700   7.042   6.111  0.2105  0.1979  0.0045
  168POPC   NC3 2438   0.687   2.888   4.964  0.0496  0.1927 -0.1159
  168POPC   PO4 2439   1.082   2.877   4.753  0.1674 -0.0233  0.2806
  168POPC   GL1 2440   1.039   2.625   5.191 -0.1522  0.0880 -0.2367
  168POPC   GL2 2441   1.300   2.556   5.349  0.0801 -0.0899  0.0741
  168POPC   C1A 2442   0.873   2.340   5.381  0.2694  0.2116  0.0650
  168POPC   D2A 2443   0.726   2.373   5.885 -0.1921  0.0953  0.0287
  168POPC   C3A 2444   0.665   2.205   6.188 -0.0842 -0.0517 -0.1011
  168POPC   C4A 2445   0.487   2.006   6.396 -0.1445 -0.2872 -0.2365
  168POPC   C1B 2446   1.210   2.549   5.786 -0.2158 -0.2603  0.0833
  168POPC   C2B 2447   0.999   2.826   6.062 -0.0140  0.3234  0.2086
  168POPC   C3B 2448   1.032   3.005   6.493 -0.0759  0.1844 -0.3152
  168POPC   C4B 2449   1.187   3.435   6.574  0.3233 -0.0076 -0.1020
  169POPC   NC3 2450   4.597   4.245   4.831  0.1830 -0.2395  0.0528
  169POPC   PO4 2451   4.754   4.007   4.443 -0.2865  0.1238 -0.0169
  169POPC   GL1 2452   5.008   3.786   4.660 -0.1833 -0.2294 -0.0934
  169POPC   GL2 2453   5.116   4.138   4.786 -0.0722 -0.0732  0.0240
  169POPC   C1A 2454   5.019   3.777   5.085 -0.1868  0.1124 -0.1988
  169POPC   D2A 2455   5.237   3.829   5.373  0.1117 -0.2278 -0.1826
  169POPC   C3A 2456   5.166   3.910   5.850  0.0423 -0.1288  0.0660
  169POPC   C4A 2457   5.359   4.123   6.207 -0.0839 -0.0304  0.1386
  169POPC   C1B 2458   5.193   4.376   5.132 -0.0083 -0.0125  0.0528
  169POPC   C2B 2459   5.349   4.561   5.516 -0.2209 -0.1337  0.0280
  169POPC   C3B 2460   5.544   4.535   5.949  0.1304 -0.2838  0.0705
  169POPC   C4B 2461   6.012   4.754   6.046  0.0788 -0.2741  0.2092
  170POPC   NC3 2462   9.560   1.468   4.074 -0.0895  0.1338 -0.0142
  170POPC   PO4 2463   9.715   1.302   4.496  0.2113 -0.1326 -0.1327
  170POPC   GL1 2464   9.579   1.437   4.900  0.1170 -0.0926  0.3817
  170POPC   GL2 2465   9.447   1.202   5.099 -0.1297 -0.2223 -0.4759
  170POPC   C1A 2466   9.636   1.661   5.335  0.1032  0.3075 -0.0110
  170POPC   D2A 2467   9.533   1.872   5.723  0.3960 -0.0365 -0.0556
  170POPC   C3A 2468   9.760   1.901   6.106 -0.2327 -0.3126 -0.0123
  170POPC   C4A 2469   9.893   2.133   6.537  0.0367 -0.0146  0.0340
  170POPC   C1B 2470   9.257   1.212   5.499 -0.0470  0.0381 -0.0005
  170POPC   C2B 2471   9.126   1.141   5.880  0.0530 -0.0530  0.0939
  170POPC   C3B 2472   9.160   0.967   6.291 -0.0464 -0.0617 -0.2403
  170POPC   C4B 2473   9.085   0.993   6.668  0.0865 -0.2919 -0.1768
  171POPC   NC3 2474   8.898   0.959   4.406  0.1378  0.1754  0.3804
  171POPC   PO4 2475   9.098   0.827   4.807 -0.1192 -0.2482  0.4055
  171POPC   GL1 2476   8.901   0.907   5.251 -0.1087 -0.0893 -0.0383
  171POPC   GL2 2477   8.590   0.912   5.283  0.3763  0.1129 -0.2130
  171POPC   C1A 2478   8.674   0.958   5.777  0.1670 -0.0533 -0.1196
  171POPC   D2A 2479   8.555   0.618   6.063  0.0267  0.3089  0.1581
  171POPC   C3A 2480   8.662   0.948   6.445 -0.0475 -0.1430  0.4398
  171POPC   C4A 2481   8.603   1.164   6.827 -0.2288  0.0797  0.0326
  171POPC   C1B 2482   8.236   0.824   5.465  0.1129 -0.0528  0.2136
  171POPC   C2B 2483   7.760   0.766   5.665 -0.0787 -0.0173 -0.1460
  171POPC   C3B 2484   7.633   0.685   6.095  0.0262  0.1932  0.0868
  171POPC   C4B 2485   7.314   0.375   6.211 -0.0728 -0.0354 -0.0112
  172POPC   NC3 2486   1.443   3.265   4.746  0.0660  0.2803 -0.0530
  172POPC   PO4 2487   1.825   3.577   4.739  0.0906 -0.1057 -0.1561
  172POPC   GL1 2488   1.821   3.836   5.129 -0.1016 -0.4179  0.1282
  172POPC   GL2 2489   1.996   4.168   5.078  0.0865  0.3860  0.1494
  172POPC   C1A 2490   1.831   3.921   5.496 -0.0422  0.1630  0.0522
  172POPC   D2A 2491   1.641   3.871   5.897 -0.0334 -0.1534  0.1059
  172POPC   C3A 2492   1.613   3.488   6.142 -0.0690  0.0798  0.1247
  172POPC   C4A 2493   1.637   3.175   6.416  0.2959  0.1823  0.0435
  172POPC   C1B 2494   2.264   4.125   5.343 -0.0184 -0.1341 -0.0241
  172POPC   C2B 2495   2.350   4.015   5.683 -0.1391  0.0719  0.0846
  172POPC   C3B 2496   2.610   4.123   6.031 -0.0327 -0.0470  0.1962
  172POPC   C4B 2497   3.046   4.353   6.160  0.1531 -0.2144 -0.1904
  173POPC   NC3 2498   5.993   0.299   4.051 -0.1274  0.2835  0.2836
  173POPC   PO4 2499   6.217   0.651   4.269  0.0352  0.2368 -0.1017
  173POPC   GL1 2500   6.119   0.431   4.612  0.3026 -0.3957  0.1250
  173POPC   GL2 2501   5.849   0.532   4.902  0.1115  0.4854 -0.2253
  173POPC   C1A 2502   6.020   0.083   4.943 -0.2545 -0.0763  0.0095
  173POPC   D2A 2503   5.725   0.217   5.312 -0.0572 -0.0630  0.1412
  173POPC   C3A 2504   5.500   0.054   5.603 -0.0073  0.1186  0.0074
  173POPC   C4A 2505   5.879  -0.010   5.870 -0.2240 -0.2262 -0.0902
  173POPC   C1B 2506   5.880   0.744   5.306 -0.0962 -0.1106 -0.1052
  173POPC   C2B 2507   5.667   1.026   5.497  0.0905 -0.0650  0.1233
  173POPC   C3B 2508   5.382   1.041   5.722 -0.3305  0.1366  0.0769
  173POPC   C4B 2509   4.975   1.101   5.916 -0.0431  0.3747 -0.4735
  174POPC   NC3 2510   6.882   2.536   4.467  0.3135 -0.1181  0.4555
  174POPC   PO4 2511   7.092   2.998   4.652 -0.0071 -0.2476 -0.1537
  174POPC   GL1 2512   7.308   3.118   5.081 -0.1457  0.3492  0.0425
  174POPC   GL2 2513   7.483   2.906   5.189 -0.0029  0.2024 -0.0600
  174POPC   C1A 2514   7.004   3.145   5.393 -0.1054 -0.0777 -0.1222
  174POPC   D2A 2515   6.661   3.081   5.725  0.0268 -0.0188  0.0837
  174POPC   C3A 2516   6.569   3.545   5.870 -0.3501  0.0428  0.0037
  174POPC   C4A 2517   6.649   3.818   6.094  0.2330 -0.0839  0.3165
  174POPC   C1B 2518   7.492   2.920   5.619 -0.0101  0.1956  0.2461
  174POPC   C2B 2519   7.131   2.923   5.821 -0.2257  0.0298 -0.0407
  174POPC   C3B 2520   7.087   2.601   6.198  0.3850 -0.1121  0.2175
  174POPC   C4B 2521   6.990   2.508   6.585 -0.1391  0.3207  0.0485
  175POPC   NC3 2522   4.827   0.430   4.865 -0.1224 -0.0698  0.1102
  175POPC   PO4 2523   4.820   0.886   4.808  0.1401  0.3859  0.0619
  175POPC   GL1 2524   4.497   0.721   5.082 -0.1060  0.1466  0.0377
  175POPC   GL2 2525   4.089   0.507   5.046 -0.0216  0.1494  0.4708
  175POPC   C1A 2526   4.157   0.954   5.272 -0.0243  0.1449  0.0536
  175POPC   D2A 2527   3.980   0.861   5.610  0.2500 -0.1013 -0.0080
  175POPC   C3A 2528   3.770   1.224   5.730 -0.0016  0.0817 -0.0750
  175POPC   C4A 2529   3.834   1.576   5.863  0.2160  0.1159  0.0668
  175POPC   C1B 2530   3.851   0.467   5.348 -0.0906  0.3537  0.0591
  175POPC   C2B 2531   3.640   0.577   5.707 -0.0728  0.0104  0.3680
  175POPC   C3B 2532   3.390   0.781   6.039  0.3644  0.2076 -0.1188
  175POPC   C4B 2533   3.314   1.153   6.227 -0.0715  0.3224  0.1551
  176POPC   NC3 2534   8.290   2.206   4.664  0.1360 -0.0287 -0.0149
  176POPC   PO4 2535   7.859   2.269   4.822 -0.3614  0.1203  0.1175
  176POPC   GL1 2536   7.880   1.867   5.052 -0.1433  0.4545  0.3085
  176POPC   GL2 2537   8.226   1.774   5.046 -0.0274  0.1475 -0.2248
  176POPC   C1A 2538   7.875   1.617   5.519 -0.2584  0.0712 -0.0884
  176POPC   D2A 2539   7.681   1.604   5.939  0.1807  0.0142  0.0033
  176POPC   C3A 2540   7.703   1.687   6.421 -0.0603 -0.2221  0.0217
  176POPC   C4A 2541   7.488   1.497   6.892  0.2054 -0.0534 -0.2276
  176POPC   C1B 2542   8.326   1.720   5.435 -0.0490 -0.1329  0.1907
  176POPC   C2B 2543   8.383   1.862   5.860 -0.0360 -0.2771 -0.1696
  176POPC   C3B 2544   8.413   2.239   6.020 -0.3459 -0.1697 -0.1269
  176POPC   C4B 2545   8.448   2.742   6.006  0.3320 -0.1594 -0.0276
  177POPC   NC3 2546   6.644   2.001   3.896 -0.2039  0.1304  0.0889
  177POPC   PO4 2547   6.813   2.055   4.291  0.0900 -0.0055 -0.0064
  177POPC   GL1 2548   6.611   2.094   4.695  0.1957 -0.1652  0.2333
  177POPC   GL2 2549   7.001   2.175   4.795 -0.0653 -0.0886  0.1153
  177POPC   C1A 2550   6.386   1.998   5.059  0.0066  0.3204 -0.1965
  177POPC   D2A 2551   6.400   1.744   5.554  0.0997 -0.1052 -0.0221
  177POPC   C3A 2552   6.071   1.702   5.866  0.0298 -0.3562 -0.2589
  177POPC   C4A 2553   5.696   1.922   6.074  0.2630  0.1310  0.0448
  177POPC   C1B 2554   6.882   2.429   5.051 -0.3334  0.0404 -0.0490
  177POPC   C2B 2555   6.621   2.732   5.301  0.2720  0.0891 -0.1237
  177POPC   C3B 2556   6.485   3.139   5.206  0.1439 -0.1817 -0.2062
  177POPC   C4B 2557   6.410   3.467   4.863  0.0663 -0.4201 -0.0506
  178POPC   NC3 2558   3.478   9.360   4.757 -0.0385 -0.0398  0.1858
  178POPC   PO4 2559   3.294   9.726   4.880  0.0412  0.0359 -0.0013
  178POPC   GL1 2560   3.429   9.561   5.187  0.1653  0.0182  0.0520
  178POPC   GL2 2561   3.428   9.193   5.262  0.0637 -0.0212 -0.1170
  178POPC   C1A 2562   3.636   9.519   5.635  0.1983  0.2186  0.1704
  178POPC   D2A 2563   3.962   9.614   5.975  0.0235  0.3846 -0.2074
  178POPC   C3A 2564   3.895   9.913   6.261  0.1648 -0.0055 -0.1883
  178POPC   C4A 2565   4.031  10.173   6.558  0.2428  0.0164 -0.1669
  178POPC   C1B 2566   3.450   9.057   5.674 -0.1466  0.0605 -0.0802
  178POPC   C2B 2567   3.595   9.125   6.059  0.1635 -0.0514 -0.0990
  178POPC   C3B 2568   3.858   9.253   6.338  0.1438  0.1795  0.1781
  178POPC   C4B 2569   3.876   9.496   6.621 -0.0714  0.0242  0.0539
  179POPC   NC3 2570   5.214   9.738   4.252  0.1935 -0.0714 -0.0213
  179POPC   PO4 2571   5.562   9.753   4.003 -0.0457  0.2131 -0.0597
  179POPC   GL1 2572   5.803   9.646   4.370  0.2161  0.1246 -0.1562
  179POPC   GL2 2573   5.556   9.608   4.575  0.2422 -0.0818 -0.0894
  179POPC   C1A 2574   6.119   9.573   4.709  0.2765 -0.0199 -0.0312
  179POPC   D2A 2575   6.439   9.572   4.970  0.1159  0.0264 -0.1555
  179POPC   C3A 2576   6.360   9.540   5.426 -0.0852 -0.1477  0.1525
  179POPC   C4A 2577   6.173   9.424   5.805 -0.0556  0.0041  0.2388
  179POPC   C1B 2578   5.654   9.415   4.989 -0.0737  0.0465 -0.1598
  179POPC   C2B 2579   5.865   9.569   5.377 -0.0759 -0.0320  0.0874
  179POPC   C3B 2580   5.575   9.485   5.711 -0.3462 -0.1822  0.1881
  179POPC   C4B 2581   5.366   9.644   5.973 -0.1761 -0.1714 -0.2370
  180POPC   NC3 2582   2.436   0.648   4.870 -0.1030  0.0429 -0.0820
  180POPC   PO4 2583   1.990   0.594   4.878 -0.0780 -0.2193 -0.0465
  180POPC   GL1 2584   1.927   0.897   5.179 -0.0372 -0.0622 -0.0683
  180POPC   GL2 2585   1.953   1.273   5.109  0.0241 -0.0008 -0.2539
  180POPC   C1A 2586   1.973   0.951   5.657  0.0574  0.0733  0.1915
  180POPC   D2A 2587   1.755   0.829   6.003 -0.1945 -0.1836  0.1162
  180POPC   C3A 2588   1.559   1.029   6.280  0.1891 -0.1446  0.0544
  180POPC   C4A 2589   1.437   0.946   6.704 -0.0973 -0.0698 -0.1291
  180POPC   C1B 2590   1.798   1.409   5.414 -0.0294  0.3016  0.3417
  180POPC   C2B 2591   1.546   1.338   5.808 -0.0327 -0.0977 -0.1805
  180POPC   C3B 2592   1.090   1.232   6.002  0.1299  0.1327 -0.1494
  180POPC   C4B 2593   0.629   1.132   6.266  0.2293 -0.1321 -0.0654
  181POPC   NC3 2594   1.909   4.022   4.570  0.2178  0.1758 -0.0564
  181POPC   PO4 2595   1.537   4.237   4.709  0.2057  0.3151  0.1982
  181POPC   GL1 2596   1.552   4.579   5.021  0.1401 -0.1584 -0.0224
  181POPC   GL2 2597   1.813   4.724   4.988  0.0673  0.1808 -0.1823
  181POPC   C1A 2598   1.409   4.939   5.324 -0.1901 -0.4447  0.0311
  181POPC   D2A 2599   1.627   5.289   5.347  0.0979  0.1353 -0.0020
  181POPC   C3A 2600   1.427   5.620   5.556 -0.1621 -0.0061  0.2620
  181POPC   C4A 2601   1.465   6.034   5.519 -0.0738 -0.4553  0.0878
  181POPC   C1B 2602   2.016   4.992   5.217 -0.1886 -0.3051  0.2636
  181POPC   C2B 2603   2.002   4.963   5.710 -0.3863  0.4019  0.1658
  181POPC   C3B 2604   2.103   4.910   6.153  0.0295  0.0822  0.0101
  181POPC   C4B 2605   1.865   4.536   6.428 -0.0961  0.0348  0.0010
  182POPC   NC3 2606   1.875   7.079   4.970  0.2299 -0.0467  0.2488
  182POPC   PO4 2607   2.172   6.705   4.880  0.3694 -0.0859  0.1250
  182POPC   GL1 2608   2.230   6.911   5.325 -0.1045  0.0658  0.0475
  182POPC   GL2 2609   1.973   6.759   5.355 -0.1809 -0.0926  0.3491
  182POPC   C1A 2610   2.601   6.908   5.650  0.0711 -0.3130 -0.1254
  182POPC   D2A 2611   2.780   6.598   5.869 -0.1212 -0.1384  0.0675
  182POPC   C3A 2612   2.552   6.244   6.214 -0.1188 -0.2404 -0.3620
  182POPC   C4A 2613   2.445   6.366   6.657 -0.1921  0.1404 -0.0921
  182POPC   C1B 2614   1.745   7.045   5.671 -0.1025  0.2590 -0.3519
  182POPC   C2B 2615   1.696   7.161   6.177  0.0722 -0.0207 -0.1957
  182POPC   C3B 2616   1.607   7.313   6.521 -0.1081 -0.0021  0.3314
  182POPC   C4B 2617   1.522   7.079   6.853  0.0681 -0.1707  0.2296
  183POPC   NC3 2618   6.756   4.528   3.619 -0.0509 -0.0206 -0.3403
  183POPC   PO4 2619   7.159   4.381   3.889  0.0533 -0.3663 -0.2330
  183POPC   GL1 2620   6.981   4.754   4.133 -0.2383  0.1279 -0.1817
  183POPC   GL2 2621   7.207   5.000   4.207  0.0341 -0.0512 -0.0889
  183POPC   C1A 2622   6.967   4.618   4.658  0.5309 -0.2285  0.1427
  183POPC   D2A 2623   6.764   4.436   4.964  0.0695  0.0156 -0.3654
  183POPC   C3A 2624   6.997   4.312   5.259  0.3759  0.2403  0.0839
  183POPC   C4A 2625   7.386   4.121   5.244  0.1951 -0.0302 -0.0077
  183POPC   C1B 2626   7.175   5.118   4.686  0.0307 -0.1862  0.0177
  183POPC   C2B 2627   7.102   4.923   5.058 -0.1593  0.0993 -0.1039
  183POPC   C3B 2628   6.931   4.781   5.512  0.0605 -0.1126  0.1591
  183POPC   C4B 2629   6.589   4.863   5.800 -0.2612 -0.1690 -0.2344
  184POPC   NC3 2630   8.580   0.895   4.798 -0.2963  0.1192 -0.1779
  184POPC   PO4 2631   8.539   1.359   4.707 -0.2474  0.1103 -0.2819
  184POPC   GL1 2632   8.829   1.473   5.089  0.1226 -0.0377 -0.0227
  184POPC   GL2 2633   8.731   1.728   5.175 -0.0894 -0.1239 -0.0175
  184POPC   C1A 2634   8.768   1.388   5.563  0.2364 -0.3611  0.1004
  184POPC   D2A 2635   8.695   1.419   5.990  0.1527 -0.1936 -0.1022
  184POPC   C3A 2636   8.869   1.477   6.322 -0.2305  0.0033  0.0613
  184POPC   C4A 2637   9.210   1.468   6.660 -0.2547 -0.2458  0.0228
  184POPC   C1B 2638   8.688   2.042   5.567 -0.0021  0.0313 -0.2675
  184POPC   C2B 2639   8.893   2.200   5.879 -0.3401  0.0963 -0.0869
  184POPC   C3B 2640   8.840   2.357   6.271  0.1080 -0.0590  0.1061
  184POPC   C4B 2641   8.703   2.710   6.545  0.1205 -0.0574  0.0436
  185POPC   NC3 2642   8.241   0.053   4.391  0.0669 -0.0057 -0.2887
  185POPC   PO4 2643   8.312   0.362   4.575 -0.2409  0.0101  0.0837
  185POPC   GL1 2644   8.259   0.405   5.014  0.0081 -0.0736  0.1837
  185POPC   GL2 2645   7.888   0.573   5.158  0.1998 -0.1826  0.1989
  185POPC   C1A 2646   8.151   0.131   5.362  0.0131  0.1086 -0.4724
  185POPC   D2A 2647   8.270  -0.175   5.685 -0.0487 -0.0396 -0.1387
  185POPC   C3A 2648   8.094  -0.534   5.790  0.0410 -0.1847 -0.2143
  185POPC   C4A 2649   8.224  -0.789   6.144 -0.0810  0.1439  0.0878
  185POPC   C1B 2650   7.676   0.258   5.476  0.1128 -0.1150  0.0561
  185POPC   C2B 2651   7.703   0.043   5.782  0.1010 -0.0185  0.1213
  185POPC   C3B 2652   7.839  -0.266   6.107 -0.0241 -0.1635  0.0304
  185POPC   C4B 2653   7.778  -0.607   6.292  0.0749  0.0704  0.0906
  186POPC   NC3 2654   2.303   9.711   4.565  0.0101 -0.1695 -0.2526
  186POPC   PO4 2655   2.549  10.064   4.819  0.0632  0.2038  0.1240
  186POPC   GL1 2656   2.445  10.106   5.241  0.0317  0.0479 -0.0337
  186POPC   GL2 2657   2.705  10.359   5.234 -0.2619  0.2095 -0.0007
  186POPC   C1A 2658   2.360  10.007   5.635 -0.2236 -0.2000  0.3947
  186POPC   D2A 2659   2.621   9.891   5.935  0.2796  0.0662  0.2494
  186POPC   C3A 2660   2.439  10.056   6.327 -0.1552 -0.0269 -0.0870
  186POPC   C4A 2661   2.338  10.249   6.679 -0.1136 -0.0449  0.0209
  186POPC   C1B 2662   2.809  10.244   5.638  0.1645 -0.3329 -0.0691
  186POPC   C2B 2663   3.078  10.122   6.006  0.0096  0.2138 -0.1157
  186POPC   C3B 2664   2.951  10.070   6.383  0.1120  0.1926  0.0214
  186POPC   C4B 2665   3.173   9.975   6.798  0.1611  0.3122  0.2254
  187POPC   NC3 2666   3.158   2.163   4.767  0.1486  0.2859  0.3163
  187POPC   PO4 2667   3.309   2.617   4.736  0.3555  0.1645 -0.0338
  187POPC   GL1 2668   3.350   2.445   5.136  0.0140 -0.1615  0.0568
  187POPC   GL2 2669   3.252   2.342   5.351 -0.1798  0.0807 -0.2220
  187POPC   C1A 2670   3.540   2.675   5.503 -0.1053  0.1400 -0.0040
  187POPC   D2A 2671   3.820   3.012   5.460 -0.1920  0.1945  0.1155
  187POPC   C3A 2672   4.072   3.262   5.719 -0.3052  0.0517 -0.1148
  187POPC   C4A 2673   4.149   3.664   5.821  0.0848 -0.2208 -0.2956
  187POPC   C1B 2674   3.346   2.195   5.703 -0.1494  0.1312 -0.3185
  187POPC   C2B 2675   3.645   2.001   5.733 -0.1531  0.2703  0.0528
  187POPC   C3B 2676   4.082   2.000   5.697  0.3093  0.0016 -0.1430
  187POPC   C4B 2677   4.481   1.903   5.591 -0.4727  0.1619  0.0012
  188POPC   NC3 2678   5.450   4.898   4.406 -0.0518  0.0226  0.1954
  188POPC   PO4 2679   5.229   5.147   4.555 -0.4262 -0.0818 -0.2274
  188POPC   GL1 2680   5.147   5.037   4.871 -0.2074  0.1356  0.1194
  188POPC   GL2 2681   4.820   5.166   4.943 -0.1754 -0.0763  0.1619
  188POPC   C1A 2682   5.158   4.960   5.328  0.1314  0.1721 -0.1079
  188POPC   D2A 2683   5.127   5.006   5.847 -0.4150 -0.1207 -0.1803
  188POPC   C3A 2684   5.213   5.357   6.127 -0.1767 -0.2009  0.0846
  188POPC   C4A 2685   5.245   5.717   6.156  0.1576 -0.2363  0.2573
  188POPC   C1B 2686   4.676   5.246   5.359 -0.1040 -0.1916 -0.0799
  188POPC   C2B 2687   4.843   5.422   5.705  0.0021 -0.0947 -0.1568
  188POPC   C3B 2688   4.768   5.832   5.977 -0.4796 -0.1242  0.0202
  188POPC   C4B 2689   4.371   5.906   6.369 -0.0521  0.2361  0.2021
  189POPC   NC3 2690   2.942   9.396   5.035  0.1328  0.0295 -0.1644
  189POPC   PO4 2691   2.635   9.643   5.027  0.1427 -0.0997  0.2069
  189POPC   GL1 2692   2.798   9.710   5.440  0.1323 -0.0415 -0.3600
  189POPC   GL2 2693   2.495   9.543   5.531  0.0411  0.0661 -0.1869
  189POPC   C1A 2694   3.166   9.596   5.767 -0.2844 -0.2183  0.0812
  189POPC   D2A 2695   3.131   9.271   6.205  0.0408  0.3152  0.2434
  189POPC   C3A 2696   2.803   9.109   6.553 -0.2898 -0.0232 -0.2200
  189POPC   C4A 2697   2.472   8.941   6.730 -0.0831  0.1477 -0.1132
  189POPC   C1B 2698   2.118   9.714   5.890  0.0108  0.2861  0.1982
  189POPC   C2B 2699   2.030   9.717   6.311  0.1844 -0.0420  0.3352
  189POPC   C3B 2700   2.019   9.850   6.723  0.1629 -0.2008 -0.1243
  189POPC   C4B 2701   2.074  10.083   7.110 -0.3131  0.0254  0.3063
  190POPC   NC3 2702   2.154   7.884   4.900  0.1731  0.1538  0.0494
  190POPC   PO4 2703   2.495   8.186   4.960  0.1475 -0.4297  0.0657
  190POPC   GL1 2704   2.281   8.175   5.419  0.1889 -0.0589  0.3587
  190POPC   GL2 2705   1.999   8.369   5.371 -0.0395 -0.3576 -0.2241
  190POPC   C1A 2706   2.313   8.277   5.755 -0.1273 -0.0702 -0.0561
  190POPC   D2A 2707   2.143   8.566   6.090  0.2112 -0.1618 -0.0916
  190POPC   C3A 2708   2.206   8.558   6.521 -0.2887 -0.2268  0.3552
  190POPC   C4A 2709   2.312   8.200   6.815 -0.3419 -0.3360  0.1496
  190POPC   C1B 2710   1.810   8.082   5.807  0.2058 -0.0625  0.0099
  190POPC   C2B 2711   1.438   7.830   6.160 -0.0561 -0.0413  0.2235
  190POPC   C3B 2712   1.250   7.768   6.485 -0.0362 -0.0931  0.0465
  190POPC   C4B 2713   0.868   7.569   6.598 -0.2647 -0.0200 -0.1517
  191POPC   NC3 2714   4.687   7.193   4.335  0.2747  0.1427 -0.1468
  191POPC   PO4 2715   4.630   7.628   4.104 -0.1020 -0.3317 -0.0691
  191POPC   GL1 2716   4.608   7.745   4.466 -0.1355 -0.0093  0.2190
  191POPC   GL2 2717   4.679   7.564   4.705 -0.1299  0.0639 -0.0581
  191POPC   C1A 2718   4.640   7.997   4.835 -0.0949 -0.0197  0.2616
  191POPC   D2A 2719   4.896   8.289   4.980  0.1233 -0.3736 -0.0714
  191POPC   C3A 2720   5.027   8.303   5.326 -0.2513 -0.0583  0.2593
  191POPC   C4A 2721   5.297   8.331   5.761 -0.2632  0.0014  0.0127
  191POPC   C1B 2722   4.857   7.591   5.124  0.0486  0.3953 -0.2615
  191POPC   C2B 2723   4.905   7.792   5.437 -0.3074 -0.0511 -0.1977
  191POPC   C3B 2724   5.137   7.829   5.906 -0.0656  0.0052  0.2460
  191POPC   C4B 2725   5.111   8.165   6.258 -0.0999 -0.2971 -0.2536
  192POPC   NC3 2726   3.034   0.292   4.694 -0.2463  0.0071 -0.1075
  192POPC   PO4 2727   3.183   0.729   4.977 -0.1241  0.2278 -0.0051
  192POPC   GL1 2728   3.279   0.594   5.363  0.2334 -0.1202  0.0518
  192POPC   GL2 2729   3.046   0.725   5.486 -0.0563 -0.1724  0.1242
  192POPC   C1A 2730   3.402   0.166   5.494  0.1822 -0.2024  0.0869
  192POPC   D2A 2731   3.542   0.042   5.879  0.0266  0.0607 -0.2768
  192POPC   C3A 2732   3.478  -0.318   6.188  0.0716  0.3251  0.0614
  192POPC   C4A 2733   3.323  -0.384   6.583  0.1802  0.2511 -0.1051
  192POPC   C1B 2734   2.923   0.685   5.919 -0.2404 -0.0141 -0.0247
  192POPC   C2B 2735   3.016   0.696   6.291  0.1417  0.1792 -0.1969
  192POPC   C3B 2736   3.259   0.562   6.584  0.1072 -0.0671  0.0791
  192POPC   C4B 2737   3.322   0.458   7.063  0.1596 -0.3139  0.0638
  193POPC   NC3 2738   2.996   3.682   4.862  0.1126 -0.0613 -0.0368
  193POPC   PO4 2739   2.670   3.365   4.862 -0.0606  0.0605  0.2144
  193POPC   GL1 2740   2.750   3.170   5.205 -0.0589  0.0690 -0.1077
  193POPC   GL2 2741   2.927   3.382   5.312 -0.0149  0.0648 -0.1435
  193POPC   C1A 2742   2.620   3.031   5.596  0.1402  0.2155 -0.2636
  193POPC   D2A 2743   2.256   3.082   5.688 -0.1661 -0.1216  0.1130
  193POPC   C3A 2744   1.970   3.162   6.026  0.1630 -0.0553  0.1388
  193POPC   C4A 2745   2.070   3.252   6.345 -0.2370 -0.0563  0.1611
  193POPC   C1B 2746   2.968   3.356   5.825 -0.2063 -0.0081 -0.0994
  193POPC   C2B 2747   3.087   3.408   6.207  0.1301 -0.0825  0.0048
  193POPC   C3B 2748   3.319   3.635   6.405 -0.0280 -0.1101 -0.1908
  193POPC   C4B 2749   3.292   3.798   6.771 -0.3290  0.1611  0.2511
  194POPC   NC3 2750   6.986   1.551   4.069  0.2713 -0.0193 -0.1037
  194POPC   PO4 2751   6.553   1.543   4.133  0.0758 -0.1782  0.0907
  194POPC   GL1 2752   6.694   1.583   4.513 -0.0149 -0.0968  0.3419
  194POPC   GL2 2753   7.104   1.629   4.567 -0.0392  0.1566  0.0761
  194POPC   C1A 2754   6.605   1.449   4.950  0.0616 -0.4811 -0.0623
  194POPC   D2A 2755   6.664   1.237   5.402 -0.0827  0.1386 -0.0456
  194POPC   C3A 2756   6.663   1.465   5.828 -0.1129 -0.1660 -0.0844
  194POPC   C4A 2757   6.704   1.723   6.159  0.0742 -0.1220 -0.0133
  194POPC   C1B 2758   7.156   1.714   5.003  0.0901 -0.2090 -0.1022
  194POPC   C2B 2759   6.889   1.718   5.292  0.2089  0.1701 -0.3619
  194POPC   C3B 2760   6.890   1.922   5.737 -0.0699  0.1367 -0.0939
  194POPC   C4B 2761   6.792   2.215   6.171  0.2025  0.1041 -0.3978
  195POPC   NC3 2762   3.696   6.282   4.881 -0.2006 -0.0415  0.2012
  195POPC   PO4 2763   3.802   6.776   4.906 -0.4009  0.1920  0.1084
  195POPC   GL1 2764   3.834   6.581   5.276  0.1498  0.0773 -0.1420
  195POPC   GL2 2765   4.080   6.371   5.178  0.0073  0.0414  0.1110
  195POPC   C1A 2766   3.768   6.629   5.678  0.1172  0.0812  0.1722
  195POPC   D2A 2767   3.854   6.775   6.181  0.0501  0.2123  0.3453
  195POPC   C3A 2768   3.918   6.510   6.470  0.2222 -0.0232 -0.0425
  195POPC   C4A 2769   4.000   6.133   6.680  0.1920 -0.1384 -0.0252
  195POPC   C1B 2770   4.451   6.180   5.284  0.1169 -0.3374  0.1230
  195POPC   C2B 2771   4.816   5.903   5.443 -0.0233  0.0661 -0.0477
  195POPC   C3B 2772   5.178   5.852   5.660 -0.0309  0.1073 -0.0532
  195POPC   C4B 2773   5.638   5.824   5.574 -0.0161  0.2639 -0.1931
  196POPC   NC3 2774   6.855   7.904   3.561  0.2667  0.4889 -0.2322
  196POPC   PO4 2775   6.649   7.560   3.445  0.2256  0.1116  0.0112
  196POPC   GL1 2776   6.327   7.553   3.764 -0.0185 -0.3177 -0.1296
  196POPC   GL2 2777   6.004   7.511   3.658 -0.0229  0.2195  0.0165
  196POPC   C1A 2778   6.317   7.542   4.267 -0.0977  0.2277  0.0490
  196POPC   D2A 2779   6.277   7.124   4.393  0.0295  0.1926  0.2760
  196POPC   C3A 2780   6.359   6.770   4.179  0.0901 -0.1474  0.0041
  196POPC   C4A 2781   6.585   6.422   4.326 -0.4056 -0.0273 -0.0179
  196POPC   C1B 2782   5.872   7.626   4.090 -0.1040  0.1003  0.2034
  196POPC   C2B 2783   5.663   7.799   4.543  0.0829  0.2275 -0.2975
  196POPC   C3B 2784   5.718   7.611   5.002  0.1208 -0.0062 -0.0250
  196POPC   C4B 2785   5.981   7.371   5.289  0.0001  0.0906  0.0849
  197POPC   NC3 2786   1.353   8.152   4.225  0.0976  0.3781 -0.4168
  197POPC   PO4 2787   1.380   7.871   4.672 -0.0171  0.1415  0.1462
  197POPC   GL1 2788   1.290   7.700   5.085  0.2171 -0.0813  0.0369
  197POPC   GL2 2789   0.994   7.720   5.252  0.0862 -0.0465 -0.1406
  197POPC   C1A 2790   1.362   7.307   5.285 -0.0685  0.1896  0.2100
  197POPC   D2A 2791   1.267   7.213   5.718 -0.0516 -0.1595  0.4045
  197POPC   C3A 2792   1.371   6.894   5.981 -0.0894  0.1484 -0.1329
  197POPC   C4A 2793   1.285   6.747   6.360  0.1647  0.3917  0.0188
  197POPC   C1B 2794   0.682   7.534   5.543  0.3763 -0.3663 -0.1925
  197POPC   C2B 2795   0.414   7.519   5.829 -0.2007 -0.3472  0.2597
  197POPC   C3B 2796   0.435   7.407   6.263 -0.4996 -0.0639 -0.3582
  197POPC   C4B 2797   0.346   7.580   6.697  0.1148  0.1927 -0.3571
  198POPC   NC3 2798   8.092   4.825   3.889  0.2008 -0.2711 -0.1932
  198POPC   PO4 2799   7.931   5.236   3.969  0.1121  0.0542 -0.1864
  198POPC   GL1 2800   7.955   5.011   4.362  0.2053  0.1426 -0.0968
  198POPC   GL2 2801   7.611   4.955   4.502  0.1043 -0.1544  0.2893
  198POPC   C1A 2802   8.232   4.858   4.683 -0.2427 -0.2366  0.3895
  198POPC   D2A 2803   8.572   4.937   5.033 -0.1990  0.2985  0.1287
  198POPC   C3A 2804   8.364   4.913   5.445  0.0457  0.0078 -0.3209
  198POPC   C4A 2805   8.173   4.966   5.808 -0.1338  0.0594 -0.2081
  198POPC   C1B 2806   7.776   5.039   4.846 -0.1061 -0.1727 -0.0715
  198POPC   C2B 2807   7.794   4.994   5.255 -0.1311 -0.0139 -0.1307
  198POPC   C3B 2808   7.823   4.659   5.716 -0.0581  0.0514 -0.0878
  198POPC   C4B 2809   7.675   4.607   6.129 -0.0943  0.0165  0.1422
  199POPC   NC3 2810   8.399   7.421   3.657 -0.0328 -0.3481 -0.0658
  199POPC   PO4 2811   8.264   7.809   3.935  0.4420  0.2237 -0.3764
  199POPC   GL1 2812   8.015   7.894   4.380 -0.3201  0.0892  0.0381
  199POPC   GL2 2813   8.218   7.694   4.640 -0.2140  0.0302 -0.0928
  199POPC   C1A 2814   7.810   7.931   4.794 -0.0784  0.0433  0.0212
  199POPC   D2A 2815   7.643   8.136   5.050 -0.1014  0.2642 -0.1525
  199POPC   C3A 2816   7.519   7.867   5.327 -0.1107 -0.1148  0.5590
  199POPC   C4A 2817   7.739   7.625   5.725 -0.2140 -0.2082  0.0405
  199POPC   C1B 2818   8.505   8.091   4.713  0.1465 -0.0152 -0.1285
  199POPC   C2B 2819   8.873   8.381   4.837 -0.1730 -0.3026  0.1282
  199POPC   C3B 2820   8.762   8.412   5.235 -0.3271 -0.0550 -0.1931
  199POPC   C4B 2821   8.915   8.625   5.672 -0.3075 -0.0490  0.1748
  200POPC   NC3 2822   3.393   5.820   4.164  0.0723  0.1312 -0.2163
  200POPC   PO4 2823   3.621   5.776   4.593  0.2718 -0.0902 -0.2601
  200POPC   GL1 2824   3.810   5.630   4.992 -0.0195  0.0707 -0.0118
  200POPC   GL2 2825   4.047   5.356   4.934 -0.0266  0.0573  0.0906
  200POPC   C1A 2826   3.989   5.900   5.356 -0.3711 -0.1786 -0.1583
  200POPC   D2A 2827   4.111   6.265   5.634  0.2405  0.2485  0.4741
  200POPC   C3A 2828   4.510   6.231   5.862  0.2795 -0.0987  0.0617
  200POPC   C4A 2829   4.735   6.389   6.289  0.1511 -0.2391  0.0369
  200POPC   C1B 2830   3.985   5.386   5.392 -0.1003  0.3492 -0.0147
  200POPC   C2B 2831   4.180   5.295   5.801 -0.0482 -0.0998 -0.1315
  200POPC   C3B 2832   4.412   5.460   6.029 -0.2631  0.2406  0.1781
  200POPC   C4B 2833   4.762   5.525   6.344 -0.3911 -0.0985  0.1224
  201POPC   NC3 2834   7.283   3.434   4.426  0.1824 -0.2016  0.2387
  201POPC   PO4 2835   7.575   3.697   4.588  0.0332 -0.5037  0.0907
  201POPC   GL1 2836   7.505   3.473   4.898 -0.1342 -0.0369  0.0252
  201POPC   GL2 2837   7.830   3.350   4.906 -0.3941  0.3226 -0.2860
  201POPC   C1A 2838   7.258   3.590   5.327 -0.0675  0.0938 -0.1795
  201POPC   D2A 2839   7.105   3.868   5.536 -0.0683 -0.3243 -0.2131
  201POPC   C3A 2840   7.008   4.267   5.727  0.0992 -0.3225  0.1221
  201POPC   C4A 2841   7.198   4.698   5.934  0.0543 -0.1347  0.1798
  201POPC   C1B 2842   7.698   3.293   5.366  0.0503  0.0561  0.2806
  201POPC   C2B 2843   7.721   3.348   5.812 -0.1120 -0.0541  0.4815
  201POPC   C3B 2844   7.926   3.584   6.153  0.0227  0.0652  0.0663
  201POPC   C4B 2845   8.203   3.705   6.399  0.1979 -0.4047 -0.1274
  202POPC   NC3 2846   3.053   1.141   4.239  0.1624 -0.0180 -0.1410
  202POPC   PO4 2847   2.826   0.938   4.531 -0.0815 -0.3733  0.2430
  202POPC   GL1 2848   2.818   1.097   4.990 -0.0287 -0.0172  0.0693
  202POPC   GL2 2849   3.075   1.185   5.253  0.4896 -0.1172 -0.0097
  202POPC   C1A 2850   2.612   0.932   5.393 -0.1009  0.0513 -0.0136
  202POPC   D2A 2851   2.523   0.994   5.746 -0.1916 -0.1747  0.1551
  202POPC   C3A 2852   2.279   0.948   6.039  0.0134 -0.3379 -0.4309
  202POPC   C4A 2853   2.164   1.057   6.399  0.1269 -0.0677  0.4248
  202POPC   C1B 2854   3.445   1.524   5.520 -0.0407 -0.0638  0.1511
  202POPC   C2B 2855   3.394   1.662   6.052 -0.0926 -0.0502 -0.0372
  202POPC   C3B 2856   2.989   1.585   6.360 -0.1493  0.4123  0.1404
  202POPC   C4B 2857   2.571   1.503   6.611 -0.0397 -0.1391 -0.1695
  203POPC   NC3 2858   8.125   9.318   4.370 -0.0985 -0.0293 -0.0478
  203POPC   PO4 2859   7.843   9.761   4.187  0.0864  0.1409  0.1202
  203POPC   GL1 2860   7.844   9.692   4.655  0.2537 -0.2805  0.0559
  203POPC   GL2 2861   8.168   9.553   4.819  0.2283 -0.0625 -0.0059
  203POPC   C1A 2862   7.779   9.788   5.069 -0.0500  0.1819 -0.0136
  203POPC   D2A 2863   7.825   9.622   5.399  0.4272  0.0256  0.2408
  203POPC   C3A 2864   7.634   9.477   5.649 -0.0500  0.0486 -0.2249
  203POPC   C4A 2865   7.586   9.040   5.892 -0.2273 -0.0697  0.3543
  203POPC   C1B 2866   8.371   9.441   5.233  0.1720  0.1237  0.0067
  203POPC   C2B 2867   8.565   9.376   5.554  0.2860  0.2519 -0.2407
  203POPC   C3B 2868   8.484   9.014   5.732  0.1028 -0.1671 -0.1545
  203POPC   C4B 2869   8.510   8.689   6.031  0.1001 -0.0874 -0.3069
  204POPC   NC3 2870   4.371   0.202   4.313  0.0407 -0.1888  0.1442
  204POPC   PO4 2871   4.524   0.000   4.746 -0.1342  0.3067  0.2963
  204POPC   GL1 2872   4.468   0.219   5.120  0.0768  0.2859  0.1406
  204POPC   GL2 2873   4.765   0.063   5.305 -0.1018  0.2582 -0.2270
  204POPC   C1A 2874   4.434   0.384   5.470 -0.2080  0.1207 -0.4533
  204POPC   D2A 2875   4.522   0.267   5.857  0.2535  0.1787 -0.0149
  204POPC   C3A 2876   4.331   0.013   6.100  0.1902 -0.0775 -0.0923
  204POPC   C4A 2877   4.354  -0.429   6.273 -0.0492 -0.1363  0.0098
  204POPC   C1B 2878   5.038   0.165   5.701  0.1408  0.0411 -0.0324
  204POPC   C2B 2879   5.212   0.271   6.068  0.3740  0.0479 -0.0175
  204POPC   C3B 2880   5.162   0.051   6.475  0.0962  0.1693  0.0078
  204POPC   C4B 2881   5.217   0.134   6.913 -0.0768  0.0742  0.1147
  205POPC   NC3 2882   7.906   6.570   3.896  0.0273  0.1848  0.1552
  205POPC   PO4 2883   7.530   6.554   3.681 -0.3253  0.0305  0.2247
  205POPC   GL1 2884   7.344   6.580   4.152 -0.1105 -0.3671 -0.0427
  205POPC   GL2 2885   7.168   6.305   4.249 -0.0265 -0.2224 -0.2620
  205POPC   C1A 2886   7.058   6.760   4.446  0.0023 -0.1355  0.2168
  205POPC   D2A 2887   6.660   6.843   4.551 -0.3436  0.2321 -0.3642
  205POPC   C3A 2888   6.465   6.972   5.003  0.0736  0.1620  0.1854
  205POPC   C4A 2889   6.494   7.271   5.377  0.1691  0.0689 -0.1973
  205POPC   C1B 2890   7.003   6.135   4.602 -0.0952  0.1037  0.3072
  205POPC   C2B 2891   7.314   5.943   5.034 -0.1607  0.0379  0.0739
  205POPC   C3B 2892   7.276   5.686   5.426 -0.0707  0.1225  0.2371
  205POPC   C4B 2893   7.618   5.825   5.603  0.1229 -0.0805 -0.1355
  206POPC   NC3 2894   7.806   1.475   4.570 -0.1262 -0.1917  0.1685
  206POPC   PO4 2895   8.109   1.234   4.470  0.3729 -0.0180  0.1930
  206POPC   GL1 2896   8.133   1.153   4.928 -0.1721  0.0783 -0.0044
  206POPC   GL2 2897   8.339   1.295   5.201 -0.1428  0.1163  0.0014
  206POPC   C1A 2898   7.862   1.154   5.326 -0.1669  0.0840  0.2837
  206POPC   D2A 2899   7.587   1.256   5.605 -0.0031  0.0427 -0.2347
  206POPC   C3A 2900   7.718   1.144   5.999  0.2022  0.2238  0.1034
  206POPC   C4A 2901   7.723   1.178   6.469  0.2997  0.0559  0.2803
  206POPC   C1B 2902   8.270   1.296   5.658  0.0194  0.3305 -0.0570
  206POPC   C2B 2903   8.219   0.966   6.003 -0.1298  0.1653  0.0905
  206POPC   C3B 2904   8.128   0.584   6.372  0.0233 -0.1331  0.2783
  206POPC   C4B 2905   8.177   0.185   6.650  0.2330 -0.2395  0.0660
  207POPC   NC3 2906   9.742   8.961   4.737  0.3021 -0.1622  0.0173
  207POPC   PO4 2907   9.409   9.117   4.547 -0.2195  0.0781  0.1871
  207POPC   GL1 2908   9.389   9.264   4.987  0.0213 -0.2141 -0.2080
  207POPC   GL2 2909   9.376   9.618   5.028 -0.1221 -0.5830  0.0758
  207POPC   C1A 2910   9.628   9.288   5.398  0.6124  0.0497 -0.1639
  207POPC   D2A 2911   9.935   9.273   5.553 -0.0388 -0.1153  0.1573
  207POPC   C3A 2912   9.919   9.447   5.995  0.0656  0.0157 -0.2813
  207POPC   C4A 2913   9.819   9.245   6.321 -0.2498 -0.2371  0.0663
  207POPC   C1B 2914   9.172   9.804   5.406 -0.0977 -0.1471 -0.0691
  207POPC   C2B 2915   9.112   9.651   5.778 -0.0468  0.0040 -0.1445
  207POPC   C3B 2916   9.118   9.494   6.206 -0.2128  0.1004 -0.2261
  207POPC   C4B 2917   9.241   9.219   6.450 -0.0224  0.0014 -0.3280
  208POPC   NC3 2918   4.650   4.465   4.327 -0.0784  0.2379 -0.2776
  208POPC   PO4 2919   4.429   4.748   4.700 -0.1312 -0.0700 -0.1127
  208POPC   GL1 2920   4.529   4.798   5.164 -0.2881 -0.0889 -0.0107
  208POPC   GL2 2921   4.673   4.584   5.211 -0.2529  0.2030  0.1792
  208POPC   C1A 2922   4.254   4.943   5.465  0.2953  0.3280  0.0139
  208POPC   D2A 2923   3.784   5.013   5.622  0.0028 -0.0342  0.0357
  208POPC   C3A 2924   3.678   5.093   6.014 -0.3827  0.0900 -0.0768
  208POPC   C4A 2925   4.022   5.125   6.330 -0.1183 -0.1295 -0.1249
  208POPC   C1B 2926   4.804   4.690   5.649  0.2486  0.1919 -0.0915
  208POPC   C2B 2927   4.612   4.895   5.870 -0.2023 -0.1104 -0.0039
  208POPC   C3B 2928   4.673   5.018   6.326 -0.3560  0.2974  0.1195
  208POPC   C4B 2929   4.718   5.202   6.730 -0.2150  0.0944  0.1650
  209POPC   NC3 2930   9.516   4.605   4.445 -0.0485 -0.0369  0.2584
  209POPC   PO4 2931   9.241   4.873   4.668 -0.1005 -0.1672 -0.2545
  209POPC   GL1 2932   9.469   4.955   5.032  0.0685 -0.0212 -0.0946
  209POPC   GL2 2933   9.780   5.152   5.034 -0.1907 -0.1456  0.0323
  209POPC   C1A 2934   9.416   5.124   5.459  0.0154 -0.1410  0.0010
  209POPC   D2A 2935   9.569   5.174   5.903 -0.0396  0.3532 -0.3330
  209POPC   C3A 2936   9.735   4.732   6.087 -0.0085  0.0118  0.1097
  209POPC   C4A 2937  10.086   4.566   6.291 -0.5093  0.1410  0.2187
  209POPC   C1B 2938   9.930   5.101   5.367 -0.0116 -0.4102 -0.1951
  209POPC   C2B 2939  10.019   5.086   5.811 -0.0260  0.1261  0.2981
  209POPC   C3B 2940  10.154   5.041   6.189 -0.0505 -0.0215 -0.0124
  209POPC   C4B 2941  10.160   4.998   6.636 -0.0039  0.0731  0.0302
  210POPC   NC3 2942   5.712   1.847   4.339  0.0855 -0.2026 -0.2526
  210POPC   PO4 2943   5.586   2.216   4.463 -0.0145  0.1590  0.1712
  210POPC   GL1 2944   5.407   2.420   4.876 -0.0463 -0.0996  0.0137
  210POPC   GL2 2945   5.620   2.237   5.120  0.1665  0.1135 -0.1633
  210POPC   C1A 2946   5.636   2.731   5.113 -0.2102 -0.2470 -0.2689
  210POPC   D2A 2947   5.641   3.118   5.388 -0.0422 -0.0690  0.2194
  210POPC   C3A 2948   5.726   3.054   5.836 -0.0912  0.0241 -0.0559
  210POPC   C4A 2949   5.932   2.802   6.109 -0.0556  0.0121 -0.0658
  210POPC   C1B 2950   5.507   2.228   5.525  0.3843  0.0937  0.1829
  210POPC   C2B 2951   5.493   2.411   6.030  0.0304 -0.0479  0.1371
  210POPC   C3B 2952   5.789   2.354   6.292 -0.0422 -0.0641 -0.1980
  210POPC   C4B 2953   5.977   2.735   6.631  0.0276 -0.0924 -0.3239
  211POPC   NC3 2954   9.436   2.529   4.954  0.0194  0.3459 -0.0844
  211POPC   PO4 2955   9.851   2.616   4.962  0.0331  0.1650 -0.2150
  211POPC   GL1 2956   9.912   2.754   5.379  0.0588 -0.3007  0.0919
  211POPC   GL2 2957   9.587   2.734   5.394  0.4709  0.0967 -0.2189
  211POPC   C1A 2958   9.985   2.893   5.756  0.2586  0.3921 -0.1773
  211POPC   D2A 2959  10.076   3.319   5.853  0.1787  0.2055  0.2778
  211POPC   C3A 2960  10.227   3.495   6.230  0.1446 -0.0319  0.2121
  211POPC   C4A 2961  10.589   3.691   6.377  0.1839 -0.1846  0.1860
  211POPC   C1B 2962   9.443   3.042   5.725  0.1451 -0.0151  0.0174
  211POPC   C2B 2963   9.259   3.357   6.140  0.1475  0.2750  0.1183
  211POPC   C3B 2964   9.109   3.491   6.622 -0.0477  0.2995  0.1078
  211POPC   C4B 2965   9.086   3.861   6.808  0.1722 -0.1862  0.1801
  212POPC   NC3 2966   4.250   7.388   4.270  0.0505  0.1363  0.1017
  212POPC   PO4 2967   4.266   7.359   4.673 -0.0003 -0.0575  0.4460
  212POPC   GL1 2968   4.493   7.104   4.961 -0.1831  0.1077  0.2930
  212POPC   GL2 2969   4.256   6.858   5.137 -0.1147 -0.1044  0.2145
  212POPC   C1A 2970   4.696   7.085   5.408  0.0859  0.2833  0.0330
  212POPC   D2A 2971   4.961   7.259   5.741 -0.0996 -0.1129 -0.0553
  212POPC   C3A 2972   5.392   7.431   5.750  0.0390 -0.1480 -0.1641
  212POPC   C4A 2973   5.640   7.621   5.534  0.1470 -0.3731 -0.1667
  212POPC   C1B 2974   4.249   6.743   5.540 -0.0319  0.0250  0.0808
  212POPC   C2B 2975   4.305   6.681   5.968  0.0060  0.1025 -0.1259
  212POPC   C3B 2976   4.410   6.763   6.348 -0.1463  0.0210 -0.0166
  212POPC   C4B 2977   4.885   6.817   6.547  0.1387  0.2358 -0.0962
  213POPC   NC3 2978   7.879   3.948   4.251  0.3524 -0.0869 -0.1793
  213POPC   PO4 2979   8.293   4.105   4.433 -0.5881 -0.0308 -0.2245
  213POPC   GL1 2980   8.348   4.371   4.837  0.2960  0.5268 -0.1453
  213POPC   GL2 2981   8.551   4.128   4.918  0.1665 -0.4348 -0.1406
  213POPC   C1A 2982   8.054   4.501   5.249 -0.0203 -0.0637 -0.0777
  213POPC   D2A 2983   7.844   4.252   5.426 -0.0929 -0.2555 -0.0050
  213POPC   C3A 2984   7.508   4.264   5.754 -0.0658 -0.1572  0.1752
  213POPC   C4A 2985   7.272   4.209   6.119 -0.1615  0.0513  0.2978
  213POPC   C1B 2986   8.364   4.094   5.443  0.1888 -0.0673 -0.1153
  213POPC   C2B 2987   8.377   4.372   5.806 -0.1504  0.0837  0.0883
  213POPC   C3B 2988   8.256   4.619   6.135 -0.0994  0.0702  0.1475
  213POPC   C4B 2989   8.434   4.916   6.325 -0.2201 -0.1522 -0.1016
  214POPC   NC3 2990   9.560   9.660   4.269 -0.0587 -0.0399 -0.1359
  214POPC   PO4 2991   9.563   9.993   4.624  0.2702 -0.0289  0.0115
  214POPC   GL1 2992   9.501  10.096   5.005  0.3005 -0.1647  0.0330
  214POPC   GL2 2993   9.498  10.484   5.002 -0.2935 -0.0918 -0.0145
  214POPC   C1A 2994   9.549  10.161   5.397  0.1017 -0.0829 -0.2400
  214POPC   D2A 2995   9.371  10.214   5.831 -0.0011  0.1579  0.4764
  214POPC   C3A 2996   9.068  10.015   6.134 -0.0270 -0.1264  0.0981
  214POPC   C4A 2997   9.013   9.948   6.421 -0.1022  0.0694 -0.3486
  214POPC   C1B 2998   9.621  10.608   5.313  0.0495  0.0133  0.3847
  214POPC   C2B 2999   9.489  10.735   5.802 -0.0663  0.4151  0.1713
  214POPC   C3B 3000   9.610  10.781   6.211 -0.1021 -0.1220 -0.0567
  214POPC   C4B 3001   9.972  10.843   6.553  0.1175 -0.2019  0.3692
  215POPC   NC3 3002   3.610   4.558   4.535 -0.1411 -0.0245 -0.2210
  215POPC   PO4 3003   3.281   4.860   4.371  0.4569 -0.1848 -0.2721
  215POPC   GL1 3004   3.478   4.968   4.814 -0.2032 -0.0155  0.0791
  215POPC   GL2 3005   3.524   5.278   4.791  0.4731 -0.1576  0.0164
  215POPC   C1A 3006   3.840   4.918   5.046 -0.0253 -0.0227 -0.0636
  215POPC   D2A 3007   4.062   4.573   5.186 -0.1261  0.0267  0.1842
  215POPC   C3A 3008   3.840   4.489   5.449 -0.1345  0.0880  0.1572
  215POPC   C4A 3009   3.383   4.316   5.555 -0.1652  0.2947  0.1613
  215POPC   C1B 3010   3.428   5.287   5.254  0.2174  0.1273 -0.0016
  215POPC   C2B 3011   3.337   5.208   5.648  0.1205 -0.2234  0.0732
  215POPC   C3B 3012   3.006   5.175   6.011  0.0646  0.3723  0.0295
  215POPC   C4B 3013   3.100   5.050   6.413 -0.0344 -0.2445  0.3000
  216POPC   NC3 3014   2.848   2.959   4.720  0.2188  0.1575  0.1057
  216POPC   PO4 3015   3.119   3.349   4.537 -0.1306  0.3079 -0.0555
  216POPC   GL1 3016   3.228   3.239   4.943 -0.2013  0.0582  0.2419
  216POPC   GL2 3017   3.589   3.094   4.879 -0.0015  0.1253 -0.0413
  216POPC   C1A 3018   3.316   3.062   5.279 -0.0411 -0.0798 -0.0440
  216POPC   D2A 3019   3.430   3.097   5.779 -0.1307  0.0127 -0.1005
  216POPC   C3A 3020   3.496   2.761   6.107  0.1244 -0.1213  0.2563
  216POPC   C4A 3021   3.549   2.305   6.130 -0.0771  0.2553  0.0960
  216POPC   C1B 3022   3.661   3.483   5.171 -0.1037 -0.1121  0.2400
  216POPC   C2B 3023   4.033   3.664   5.306 -0.2341 -0.0453 -0.1625
  216POPC   C3B 3024   4.129   4.058   5.553  0.0173  0.0762 -0.2537
  216POPC   C4B 3025   4.319   4.430   5.598 -0.3668 -0.3172 -0.0503
  217POPC   NC3 3026   6.521   9.474   4.106  0.2227  0.0962 -0.2021
  217POPC   PO4 3027   6.764   9.212   3.841  0.1714  0.0798 -0.1869
  217POPC   GL1 3028   6.377   8.903   4.040 -0.3171 -0.1412 -0.1799
  217POPC   GL2 3029   6.358   8.607   3.837  0.1060  0.1031 -0.0690
  217POPC   C1A 3030   5.995   8.759   4.214 -0.2051 -0.0844 -0.1028
  217POPC   D2A 3031   5.548   8.688   4.247  0.5555 -0.0658  0.1763
  217POPC   C3A 3032   5.284   8.710   4.684  0.0242 -0.3151  0.0812
  217POPC   C4A 3033   5.063   8.788   5.027  0.2459  0.5971  0.0370
  217POPC   C1B 3034   6.382   8.416   4.205 -0.0082  0.0443 -0.3148
  217POPC   C2B 3035   6.296   8.523   4.620 -0.1080 -0.3675 -0.0888
  217POPC   C3B 3036   6.328   8.754   4.962  0.1388 -0.1144  0.0984
  217POPC   C4B 3037   6.129   9.209   5.084  0.0636 -0.4318 -0.0304
  218POPC   NC3 3038   3.829   7.266   4.901 -0.0140 -0.0271  0.0435
  218POPC   PO4 3039   3.394   7.081   5.050  0.0533 -0.0052  0.0817
  218POPC   GL1 3040   3.573   7.069   5.412  0.0901  0.0535 -0.0101
  218POPC   GL2 3041   3.412   7.211   5.613 -0.0895  0.0961  0.1322
  218POPC   C1A 3042   3.945   7.080   5.710 -0.0159  0.0730 -0.2463
  218POPC   D2A 3043   4.380   7.200   5.794  0.1465  0.1306 -0.2374
  218POPC   C3A 3044   4.567   7.484   5.988 -0.2920 -0.0385 -0.0058
  218POPC   C4A 3045   4.733   7.861   6.247  0.1317  0.1069 -0.2863
  218POPC   C1B 3046   3.158   7.010   5.965 -0.0702 -0.0457 -0.0356
  218POPC   C2B 3047   2.683   7.055   6.119 -0.4118  0.2425  0.0664
  218POPC   C3B 3048   2.261   6.878   6.387 -0.1506  0.0916 -0.1277
  218POPC   C4B 3049   1.879   6.878   6.538 -0.1180 -0.1950 -0.0585
  219POPC   NC3 3050   0.531   7.188   4.750  0.1594  0.4580  0.0039
  219POPC   PO4 3051   0.638   6.718   5.070  0.0120 -0.0891 -0.5231
  219POPC   GL1 3052   0.439   6.472   5.325  0.0939  0.0956  0.1994
  219POPC   GL2 3053   0.269   6.645   5.537 -0.0019 -0.1558 -0.3103
  219POPC   C1A 3054   0.525   6.298   5.701 -0.1487 -0.2730  0.0281
  219POPC   D2A 3055   0.681   6.227   6.105  0.1366 -0.1030  0.0302
  219POPC   C3A 3056   0.942   5.927   6.326  0.1192  0.1585 -0.0238
  219POPC   C4A 3057   1.252   5.852   6.710  0.0824  0.0882  0.1673
  219POPC   C1B 3058   0.054   6.623   6.047  0.0937  0.1946 -0.0102
  219POPC   C2B 3059   0.188   6.434   6.466 -0.0166  0.2321  0.2251
  219POPC   C3B 3060   0.612   6.139   6.666  0.3187  0.0001 -0.0847
  219POPC   C4B 3061   0.775   5.933   7.048  0.0772  0.1392 -0.1077
  220POPC   NC3 3062   7.775   1.052   4.082  0.2864  0.2085  0.2584
  220POPC   PO4 3063   7.345   1.249   4.280  0.1220 -0.0034  0.2709
  220POPC   GL1 3064   7.554   0.917   4.535 -0.0021  0.3084  0.0804
  220POPC   GL2 3065   7.552   1.126   4.875 -0.1872  0.0333  0.1090
  220POPC   C1A 3066   7.393   0.576   4.896 -0.1504 -0.1286 -0.0716
  220POPC   D2A 3067   7.395   0.759   5.278 -0.3164 -0.0143  0.1619
  220POPC   C3A 3068   7.277   0.523   5.681 -0.1734 -0.1885  0.0605
  220POPC   C4A 3069   7.143   0.077   5.837  0.1387  0.1110 -0.2509
  220POPC   C1B 3070   7.553   1.467   5.152 -0.0637 -0.0419 -0.1492
  220POPC   C2B 3071   7.318   1.754   5.534  0.2150 -0.0550  0.0859
  220POPC   C3B 3072   7.156   1.471   5.906  0.0729 -0.0823  0.0965
  220POPC   C4B 3073   7.296   1.464   6.336  0.0447 -0.0872  0.1469
  221POPC   NC3 3074   1.605   9.034   4.736  0.1111 -0.3127  0.1433
  221POPC   PO4 3075   1.212   8.788   4.893  0.0714 -0.2005 -0.2413
  221POPC   GL1 3076   1.272   8.562   5.333  0.1649 -0.3972 -0.0459
  221POPC   GL2 3077   1.592   8.537   5.527 -0.0474  0.0892  0.1443
  221POPC   C1A 3078   1.128   8.382   5.888 -0.4059 -0.1139  0.1600
  221POPC   D2A 3079   1.483   8.347   6.116  0.0643 -0.2305 -0.3118
  221POPC   C3A 3080   1.450   8.242   6.561 -0.0380 -0.2098 -0.0229
  221POPC   C4A 3081   1.317   8.394   6.890  0.3142  0.1584 -0.1480
  221POPC   C1B 3082   1.439   8.070   5.546  0.0821 -0.1955 -0.0157
  221POPC   C2B 3083   1.347   7.701   5.656 -0.0830 -0.0548  0.2393
  221POPC   C3B 3084   1.696   7.515   5.798  0.1571 -0.0439 -0.1287
  221POPC   C4B 3085   1.864   7.648   6.177 -0.1397  0.1900 -0.3187
  222POPC   NC3 3086   1.272   6.497   4.715 -0.0389 -0.0340 -0.2747
  222POPC   PO4 3087   0.963   6.925   4.636 -0.2699  0.0614 -0.1594
  222POPC   GL1 3088   1.169   6.860   5.048 -0.0512 -0.0174  0.0655
  222POPC   GL2 3089   0.915   7.031   5.311  0.1236 -0.2735  0.0444
  222POPC   C1A 3090   1.348   6.783   5.469 -0.0462  0.0196 -0.1944
  222POPC   D2A 3091   1.532   6.522   5.711 -0.0560  0.0410  0.1279
  222POPC   C3A 3092   1.727   6.551   6.123  0.5563 -0.5774 -0.1886
  222POPC   C4A 3093   2.045   6.423   6.406  0.3560  0.0743  0.2642
  222POPC   C1B 3094   0.670   7.011   5.720  0.1782 -0.1337  0.0333
  222POPC   C2B 3095   0.493   6.899   6.016  0.1661  0.2755 -0.2263
  222POPC   C3B 3096   0.601   6.976   6.476 -0.0490  0.0011  0.0789
  222POPC   C4B 3097   0.949   7.122   6.696  0.2919 -0.1615 -0.2419
  223POPC   NC3 3098   9.905   7.602   4.606 -0.1284 -0.1357  0.0315
  223POPC   PO4 3099   9.706   7.961   4.552 -0.2659  0.0193  0.1005
  223POPC   GL1 3100   9.530   7.878   4.957 -0.1769 -0.2406  0.2157
  223POPC   GL2 3101   9.582   7.517   4.976  0.1476 -0.1319 -0.1064
  223POPC   C1A 3102   9.724   8.118   5.353  0.1319  0.1030 -0.3097
  223POPC   D2A 3103   9.817   8.471   5.561  0.1438 -0.1981 -0.0686
  223POPC   C3A 3104   9.865   8.408   6.053 -0.0098  0.3049  0.0216
  223POPC   C4A 3105  10.056   8.217   6.486  0.0084 -0.0298 -0.0088
  223POPC   C1B 3106   9.417   7.738   5.469 -0.0783 -0.2718  0.1502
  223POPC   C2B 3107   9.538   8.037   5.791 -0.0233  0.0457  0.3278
  223POPC   C3B 3108   9.466   8.156   6.299 -0.1413 -0.2918 -0.4861
  223POPC   C4B 3109   9.374   7.920   6.728  0.0217  0.0136 -0.2713
  224POPC   NC3 3110   9.347   7.612   4.522 -0.1832 -0.0767 -0.1746
  224POPC   PO4 3111   9.070   7.648   4.369  0.0285 -0.2135 -0.0154
  224POPC   GL1 3112   8.879   7.750   4.691  0.1000 -0.2316 -0.0316
  224POPC   GL2 3113   8.877   7.468   4.798  0.0238  0.0207  0.0324
  224POPC   C1A 3114   8.989   7.973   5.108 -0.0610  0.0363  0.1893
  224POPC   D2A 3115   8.987   8.004   5.490  0.2151 -0.3620 -0.1627
  224POPC   C3A 3116   8.581   8.219   5.714  0.2034 -0.4224 -0.2366
  224POPC   C4A 3117   8.350   8.569   5.511 -0.0193  0.3253 -0.0245
  224POPC   C1B 3118   8.966   7.496   5.248 -0.0733 -0.1299  0.0317
  224POPC   C2B 3119   8.983   7.555   5.662  0.4716 -0.1283 -0.5169
  224POPC   C3B 3120   9.083   7.787   5.942 -0.1378  0.0232 -0.1780
  224POPC   C4B 3121   9.017   8.229   6.061 -0.0532  0.2166  0.0424
  225POPC   NC3 3122   8.032   6.066   3.690  0.1448 -0.1898 -0.2491
  225POPC   PO4 3123   8.142   6.123   4.064 -0.1333  0.0538  0.1731
  225POPC   GL1 3124   8.102   6.237   4.441 -0.1679 -0.2272 -0.0426
  225POPC   GL2 3125   7.786   6.514   4.424 -0.0528 -0.0517 -0.2126
  225POPC   C1A 3126   7.908   6.415   4.887 -0.0448  0.1362  0.1380
  225POPC   D2A 3127   7.902   6.294   5.350 -0.1819 -0.1225  0.0655
  225POPC   C3A 3128   8.168   5.872   5.640  0.0270 -0.1442  0.1935
  225POPC   C4A 3129   8.329   5.865   5.990  0.3125  0.1573 -0.4129
  225POPC   C1B 3130   7.438   6.513   4.732 -0.1555 -0.0471 -0.3718
  225POPC   C2B 3131   7.410   6.454   5.137  0.0581 -0.0774  0.0622
  225POPC   C3B 3132   7.388   6.229   5.461 -0.1361  0.0717  0.2158
  225POPC   C4B 3133   7.116   6.306   5.844  0.1001  0.1022  0.1986
  226POPC   NC3 3134   9.711   0.802   4.646  0.0764 -0.0041  0.2392
  226POPC   PO4 3135   9.889   0.473   4.428  0.2805  0.0312 -0.0573
  226POPC   GL1 3136   9.984   0.420   4.917 -0.0308 -0.0575 -0.0147
  226POPC   GL2 3137  10.018   0.018   4.913  0.2334  0.3055  0.1532
  226POPC   C1A 3138  10.153   0.310   5.339  0.0907 -0.1584  0.1697
  226POPC   D2A 3139  10.102  -0.033   5.643  0.1024 -0.1762  0.0741
  226POPC   C3A 3140  10.060   0.030   5.998  0.1560 -0.1678 -0.0277
  226POPC   C4A 3141   9.992  -0.156   6.460 -0.5117  0.4751  0.2116
  226POPC   C1B 3142   9.857  -0.138   5.254  0.1877 -0.1736  0.1056
  226POPC   C2B 3143   9.608  -0.220   5.687 -0.0099 -0.0878 -0.0772
  226POPC   C3B 3144   9.569  -0.160   6.024 -0.1738 -0.0702 -0.1769
  226POPC   C4B 3145   9.575   0.070   6.339 -0.0930 -0.0508  0.3555
  227POPC   NC3 3146   1.400   9.813   4.942 -0.5049  0.3073  0.1634
  227POPC   PO4 3147   1.652   9.697   5.239  0.0134 -0.2303  0.0640
  227POPC   GL1 3148   1.882   9.923   5.492 -0.1718 -0.1637  0.0725
  227POPC   GL2 3149   1.993  10.366   5.358  0.0244  0.2149 -0.2943
  227POPC   C1A 3150   1.889  10.138   5.810 -0.1047 -0.0659  0.0033
  227POPC   D2A 3151   1.882  10.170   6.259 -0.1672  0.1677  0.2798
  227POPC   C3A 3152   1.990  10.554   6.517 -0.2524 -0.1327  0.1943
  227POPC   C4A 3153   1.952  10.939   6.829  0.2533 -0.1149 -0.1487
  227POPC   C1B 3154   2.288  10.493   5.630  0.3820  0.1532 -0.2677
  227POPC   C2B 3155   2.333  10.367   5.961 -0.1975  0.0201  0.1158
  227POPC   C3B 3156   2.555  10.534   6.371 -0.2261  0.0397  0.2116
  227POPC   C4B 3157   2.818  10.440   6.789 -0.1055 -0.0038  0.2461
  228POPC   NC3 3158   3.674   1.011   3.988  0.4851  0.1097 -0.0996
  228POPC   PO4 3159   3.762   1.181   4.491  0.1243  0.0643 -0.0997
  228POPC   GL1 3160   3.709   1.045   4.932 -0.2144  0.2014  0.2004
  228POPC   GL2 3161   3.873   1.329   5.127  0.3009  0.3655 -0.0336
  228POPC   C1A 3162   3.565   0.989   5.372  0.0584 -0.3603  0.5590
  228POPC   D2A 3163   3.205   1.155   5.752  0.2288  0.2231  0.0006
  228POPC   C3A 3164   2.783   1.453   5.789  0.2557 -0.1743 -0.3117
  228POPC   C4A 3165   2.477   1.797   5.683 -0.1754 -0.0623  0.3312
  228POPC   C1B 3166   3.834   1.836   5.282 -0.0093  0.2020 -0.0442
  228POPC   C2B 3167   3.851   2.305   5.349  0.0554 -0.2527  0.2622
  228POPC   C3B 3168   3.875   2.458   5.791  0.0677  0.0294  0.2206
  228POPC   C4B 3169   3.923   2.879   5.990  0.1095 -0.1252 -0.2744
  229POPC   NC3 3170   8.752   0.005   4.364 -0.1853 -0.1217  0.1522
  229POPC   PO4 3171   8.629  -0.441   4.480  0.1117  0.3126 -0.1843
  229POPC   GL1 3172   8.674  -0.323   4.882  0.3404 -0.0001  0.1654
  229POPC   GL2 3173   8.553  -0.030   4.829  0.2249 -0.2863  0.3265
  229POPC   C1A 3174   8.863  -0.411   5.185  0.0197 -0.0070  0.0352
  229POPC   D2A 3175   9.107  -0.663   5.409 -0.0726  0.0731  0.0747
  229POPC   C3A 3176   9.083  -0.887   5.813 -0.0569  0.1736 -0.1964
  229POPC   C4A 3177   9.000  -1.134   6.167 -0.3950 -0.2318  0.0043
  229POPC   C1B 3178   8.607   0.024   5.329  0.1804 -0.1052  0.2040
  229POPC   C2B 3179   8.764   0.043   5.700  0.3684  0.0413  0.1803
  229POPC   C3B 3180   8.654  -0.257   6.010  0.0510  0.4104 -0.0252
  229POPC   C4B 3181   8.700  -0.722   6.192 -0.4255 -0.0720 -0.2901
  230POPC   NC3 3182   4.351   2.549   4.053 -0.2541 -0.0661 -0.0281
  230POPC   PO4 3183   4.670   2.508   4.348 -0.1039  0.0267 -0.1008
  230POPC   GL1 3184   4.687   2.290   4.838 -0.1510 -0.0341 -0.0740
  230POPC   GL2 3185   4.872   2.572   4.802  0.2185 -0.1049 -0.1204
  230POPC   C1A 3186   4.997   2.301   5.188 -0.0394  0.1902  0.1670
  230POPC   D2A 3187   4.965   2.389   5.652 -0.1201 -0.0817  0.0005
  230POPC   C3A 3188   4.810   2.067   5.968  0.1497  0.2229  0.0050
  230POPC   C4A 3189   4.777   2.100   6.419  0.2410  0.4025  0.0081
  230POPC   C1B 3190   4.641   2.722   5.073 -0.2274 -0.2819  0.1363
  230POPC   C2B 3191   4.776   2.817   5.465 -0.3663  0.1738  0.0948
  230POPC   C3B 3192   4.827   2.796   5.934  0.1480 -0.1489 -0.2965
  230POPC   C4B 3193   4.960   3.171   6.284  0.0821 -0.2071 -0.0871
  231POPC   NC3 3194   8.857   3.866   4.301 -0.2129  0.1055  0.1217
  231POPC   PO4 3195   9.034   4.333   4.447 -0.1188 -0.0120  0.0135
  231POPC   GL1 3196   8.826   4.552   4.839  0.2312 -0.1149  0.2611
  231POPC   GL2 3197   8.989   4.700   5.062  0.0342 -0.2603  0.1205
  231POPC   C1A 3198   8.601   4.496   5.316  0.3664  0.0649  0.2285
  231POPC   D2A 3199   8.903   4.435   5.682 -0.2830  0.1253 -0.2232
  231POPC   C3A 3200   8.806   4.630   6.085  0.1331 -0.1783  0.0584
  231POPC   C4A 3201   8.908   4.820   6.484 -0.1828 -0.0031 -0.1193
  231POPC   C1B 3202   8.933   4.887   5.449 -0.0287 -0.0116 -0.0970
  231POPC   C2B 3203   8.831   5.076   5.778 -0.1907 -0.0075 -0.2926
  231POPC   C3B 3204   8.858   5.239   6.139 -0.0226  0.0374 -0.1933
  231POPC   C4B 3205   9.184   5.371   6.403 -0.2515  0.0459 -0.0793
  232POPC   NC3 3206   8.347   3.140   4.315 -0.0771 -0.1369 -0.0095
  232POPC   PO4 3207   8.375   3.490   4.468  0.1476 -0.3023 -0.1890
  232POPC   GL1 3208   8.329   3.344   4.948 -0.0061  0.0399 -0.2265
  232POPC   GL2 3209   8.576   3.338   5.104 -0.1090  0.1814 -0.2922
  232POPC   C1A 3210   8.229   3.639   5.267  0.1858  0.1804 -0.2777
  232POPC   D2A 3211   8.242   3.647   5.683  0.2560 -0.2451 -0.1730
  232POPC   C3A 3212   8.115   3.997   5.966 -0.1443  0.0217  0.1653
  232POPC   C4A 3213   8.284   4.186   6.360 -0.1339 -0.1052 -0.3258
  232POPC   C1B 3214   8.703   3.447   5.498  0.0317 -0.0631  0.1273
  232POPC   C2B 3215   8.888   3.296   5.851 -0.0235  0.5369  0.1040
  232POPC   C3B 3216   8.745   3.110   6.231  0.0980 -0.1483  0.1294
  232POPC   C4B 3217   8.617   3.140   6.653 -0.0891 -0.4205 -0.1448
  233POPC   NC3 3218   0.071   2.089   4.876  0.1179 -0.2763  0.1517
  233POPC   PO4 3219  -0.350   2.080   4.695 -0.2112 -0.1174 -0.0450
  233POPC   GL1 3220  -0.609   1.842   4.987 -0.0185 -0.2864  0.1015
  233POPC   GL2 3221  -0.815   2.103   5.179 -0.4927 -0.0723 -0.0911
  233POPC   C1A 3222  -0.768   1.684   5.446  0.1986  0.0022 -0.0598
  233POPC   D2A 3223  -0.832   1.683   5.885  0.1129 -0.1535 -0.4016
  233POPC   C3A 3224  -0.593   1.778   6.268  0.2567 -0.0822  0.1273
  233POPC   C4A 3225  -0.296   1.699   6.525 -0.0838  0.2006  0.2545
  233POPC   C1B 3226  -0.659   2.392   5.619 -0.1138  0.1605 -0.0766
  233POPC   C2B 3227  -0.570   2.271   6.051  0.1133 -0.1511  0.1063
  233POPC   C3B 3228  -0.580   2.230   6.421 -0.0430  0.2522 -0.0144
  233POPC   C4B 3229  -0.526   2.003   6.845 -0.4348  0.1158  0.0874
  234POPC   NC3 3230   7.099   7.310   3.491  0.0607  0.1568 -0.0217
  234POPC   PO4 3231   7.363   7.630   3.642 -0.4310 -0.0221  0.3053
  234POPC   GL1 3232   7.255   7.381   4.044  0.0002  0.0412  0.1620
  234POPC   GL2 3233   7.135   7.110   4.009  0.1730  0.2338 -0.2483
  234POPC   C1A 3234   7.365   7.288   4.433 -0.0142 -0.1705  0.2825
  234POPC   D2A 3235   7.568   6.987   4.678 -0.2126  0.4356 -0.1465
  234POPC   C3A 3236   7.922   7.001   4.980 -0.1314 -0.5879 -0.1487
  234POPC   C4A 3237   8.079   6.782   5.322 -0.0115  0.1002  0.2143
  234POPC   C1B 3238   6.810   7.295   4.299 -0.1078  0.0317  0.2005
  234POPC   C2B 3239   6.969   7.622   4.535  0.1310  0.1042  0.0187
  234POPC   C3B 3240   6.673   7.932   4.774  0.1761 -0.2993  0.0784
  234POPC   C4B 3241   6.339   8.179   5.028 -0.1958 -0.1336  0.0313
  235POPC   NC3 3242   3.302   1.194   4.732 -0.1519  0.0843  0.1797
  235POPC   PO4 3243   3.217   1.662   4.691 -0.1418  0.0481  0.0449
  235POPC   GL1 3244   3.156   1.661   5.067 -0.4241  0.1009 -0.0120
  235POPC   GL2 3245   3.342   1.852   5.214  0.1050  0.1459  0.6034
  235POPC   C1A 3246   2.745   1.483   5.289  0.0073  0.1557  0.1175
  235POPC   D2A 3247   2.341   1.351   5.472 -0.2102  0.0745 -0.3502
  235POPC   C3A 3248   2.048   1.390   5.832 -0.2391  0.0735 -0.0726
  235POPC   C4A 3249   1.894   1.426   6.257  0.1273 -0.1323  0.0271
  235POPC   C1B 3250   3.026   1.871   5.444 -0.0238 -0.2206 -0.2797
  235POPC   C2B 3251   3.001   1.879   5.897  0.2046 -0.4168  0.0371
  235POPC   C3B 3252   2.668   1.967   6.123 -0.0828  0.0678 -0.3529
  235POPC   C4B 3253   2.360   2.153   6.371 -0.1495 -0.0830 -0.1259
  236POPC   NC3 3254   4.785   1.787   4.657 -0.3014  0.1846  0.1811
  236POPC   PO4 3255   4.385   1.909   4.680  0.2164  0.2707  0.1284
  236POPC   GL1 3256   4.380   2.006   5.132 -0.1008 -0.1002  0.4789
  236POPC   GL2 3257   4.697   1.803   5.172 -0.4068 -0.0955  0.1399
  236POPC   C1A 3258   4.500   2.334   5.427 -0.1768  0.1066 -0.0452
  236POPC   D2A 3259   4.474   2.414   5.937 -0.3219 -0.1090 -0.1631
  236POPC   C3A 3260   4.078   2.385   6.224 -0.0265  0.0091  0.0643
  236POPC   C4A 3261   3.714   2.430   6.550  0.1917  0.1076  0.2086
  236POPC   C1B 3262   4.954   1.940   5.459 -0.2102 -0.1038 -0.1104
  236POPC   C2B 3263   5.225   1.912   5.827  0.1393  0.0159 -0.2270
  236POPC   C3B 3264   5.321   1.534   6.117 -0.1628  0.0025 -0.0493
  236POPC   C4B 3265   5.448   1.368   6.397  0.0020  0.0308 -0.4164
  237POPC   NC3 3266   5.548   6.224   3.678  0.0237  0.0942 -0.0605
  237POPC   PO4 3267   5.625   6.680   3.602  0.0131  0.1356  0.4097
  237POPC   GL1 3268   5.789   6.615   4.005 -0.0093  0.0660 -0.0575
  237POPC   GL2 3269   5.707   6.295   4.140 -0.2214  0.1501  0.3332
  237POPC   C1A 3270   5.870   6.707   4.407  0.0821 -0.3174 -0.3900
  237POPC   D2A 3271   6.176   6.629   4.702 -0.0309 -0.2260  0.4160
  237POPC   C3A 3272   6.003   6.385   5.115 -0.2775  0.0823 -0.2454
  237POPC   C4A 3273   5.610   6.370   5.317 -0.2525 -0.0870  0.1394
  237POPC   C1B 3274   5.361   6.401   4.386  0.2591 -0.1396  0.2232
  237POPC   C2B 3275   5.050   6.130   4.603 -0.0743  0.1742  0.3262
  237POPC   C3B 3276   4.925   5.796   4.958  0.7719 -0.0012 -0.2986
  237POPC   C4B 3277   5.091   5.506   5.154  0.0294  0.1139 -0.1315
  238POPC   NC3 3278   7.420   9.003   3.966 -0.1325 -0.1291  0.0697
  238POPC   PO4 3279   7.099   9.202   4.203  0.2539 -0.0546 -0.1781
  238POPC   GL1 3280   7.230   9.313   4.650  0.2930  0.1079 -0.0350
  238POPC   GL2 3281   7.389   9.660   4.815  0.2168 -0.2026  0.0856
  238POPC   C1A 3282   6.923   9.263   5.065  0.1336  0.0784  0.2857
  238POPC   D2A 3283   6.575   9.050   5.236  0.0619 -0.0164 -0.0496
  238POPC   C3A 3284   6.530   8.678   5.405 -0.1821  0.0546 -0.2692
  238POPC   C4A 3285   6.662   8.314   5.466  0.2660  0.2874  0.0113
  238POPC   C1B 3286   7.453   9.350   5.112  0.0452  0.0619  0.1576
  238POPC   C2B 3287   7.553   9.016   5.401  0.2094 -0.2034  0.1536
  238POPC   C3B 3288   7.478   8.648   5.596  0.1252 -0.3371 -0.4835
  238POPC   C4B 3289   7.295   8.299   5.487 -0.1530  0.1721 -0.2574
  239POPC   NC3 3290   2.029   8.824   5.548 -0.0785  0.0496 -0.1043
  239POPC   PO4 3291   1.979   9.048   5.259 -0.2192  0.1184 -0.0185
  239POPC   GL1 3292   2.042   9.320   5.624 -0.1169  0.2166 -0.0016
  239POPC   GL2 3293   1.808   9.393   5.612 -0.0613  0.2191  0.0738
  239POPC   C1A 3294   2.093   9.276   6.063 -0.1500  0.0181 -0.2129
  239POPC   D2A 3295   2.196   8.996   6.307  0.2800  0.0112 -0.1446
  239POPC   C3A 3296   2.595   8.816   6.220 -0.0726  0.2682 -0.1090
  239POPC   C4A 3297   2.774   8.439   6.014 -0.4004 -0.2840 -0.2315
  239POPC   C1B 3298   1.458   9.385   5.992  0.1955  0.3564 -0.0760
  239POPC   C2B 3299   1.532   9.475   6.460  0.1535 -0.2126 -0.0879
  239POPC   C3B 3300   1.549   9.906   6.713 -0.1573  0.0109 -0.3128
  239POPC   C4B 3301   1.454  10.378   6.516 -0.0183  0.1365 -0.0886
  240POPC   NC3 3302   2.803   4.996   4.038  0.2417  0.0318  0.0357
  240POPC   PO4 3303   3.067   5.297   4.096 -0.1511  0.0277 -0.0391
  240POPC   GL1 3304   2.954   5.381   4.518 -0.1439  0.0671 -0.0572
  240POPC   GL2 3305   2.858   5.094   4.571 -0.0727 -0.4202 -0.0212
  240POPC   C1A 3306   3.024   5.403   4.899  0.0838 -0.1449  0.1960
  240POPC   D2A 3307   3.151   5.757   5.193 -0.0224  0.1913 -0.4817
  240POPC   C3A 3308   3.502   5.742   5.429  0.0793  0.1585  0.3411
  240POPC   C4A 3309   3.646   6.126   5.588  0.3040 -0.0319 -0.0707
  240POPC   C1B 3310   3.047   4.973   5.045  0.1517 -0.1478 -0.1875
  240POPC   C2B 3311   2.968   4.880   5.426  0.1910  0.1989  0.0716
  240POPC   C3B 3312   2.629   5.108   5.736 -0.2217 -0.1091 -0.1021
  240POPC   C4B 3313   2.366   5.336   6.001  0.0527 -0.0608 -0.3573
  241POPC   NC3 3314   2.284   2.017   4.841 -0.2320  0.3860 -0.1733
  241POPC   PO4 3315   2.572   2.333   4.872  0.3400 -0.0680 -0.3061
  241POPC   GL1 3316   2.809   2.421   5.186  0.1364  0.0743  0.3467
  241POPC   GL2 3317   2.903   2.710   5.169 -0.1690 -0.0978  0.2079
  241POPC   C1A 3318   2.782   2.281   5.643 -0.1516  0.0195 -0.0470
  241POPC   D2A 3319   3.056   2.420   6.062 -0.2281  0.2307 -0.0570
  241POPC   C3A 3320   3.130   2.058   6.349  0.0846 -0.0984  0.1481
  241POPC   C4A 3321   2.864   2.031   6.643  0.1080 -0.2340 -0.0126
  241POPC   C1B 3322   3.047   2.753   5.590  0.1072 -0.0444  0.0589
  241POPC   C2B 3323   3.025   2.915   6.033 -0.1503 -0.0818 -0.0101
  241POPC   C3B 3324   2.778   2.711   6.391  0.0804  0.3511 -0.5702
  241POPC   C4B 3325   2.692   2.524   6.583  0.1905  0.1098 -0.2567
  242POPC   NC3 3326   5.475   3.755   4.421  0.0031  0.3650  0.0737
  242POPC   PO4 3327   5.619   4.122   4.532 -0.2990 -0.0437  0.3107
  242POPC   GL1 3328   5.626   4.107   4.894 -0.2117  0.1616 -0.1672
  242POPC   GL2 3329   5.468   3.872   4.933 -0.0880 -0.1261 -0.1590
  242POPC   C1A 3330   5.662   4.223   5.324 -0.2983  0.0646 -0.0983
  242POPC   D2A 3331   5.685   4.104   5.717 -0.1744 -0.2718 -0.0020
  242POPC   C3A 3332   5.959   4.243   5.954 -0.1602 -0.1221  0.1803
  242POPC   C4A 3333   6.204   4.308   6.288 -0.1516  0.0968  0.1216
  242POPC   C1B 3334   5.779   3.768   5.359 -0.1500  0.2916 -0.0964
  242POPC   C2B 3335   5.684   3.508   5.707  0.0857  0.1194  0.1011
  242POPC   C3B 3336   5.547   3.401   6.152  0.1276  0.1916  0.1372
  242POPC   C4B 3337   5.832   3.207   6.415 -0.4354 -0.2629 -0.4138
  243POPC   NC3 3338   8.071   8.407   3.701  0.1545 -0.1895 -0.0979
  243POPC   PO4 3339   7.606   8.571   3.671 -0.1082 -0.1544  0.1631
  243POPC   GL1 3340   7.586   8.561   4.141  0.2128 -0.0803  0.0650
  243POPC   GL2 3341   7.840   8.377   4.222  0.1882 -0.3864  0.1549
  243POPC   C1A 3342   7.245   8.610   4.445  0.3998 -0.0957 -0.0156
  243POPC   D2A 3343   6.996   8.785   4.787  0.4046  0.1651 -0.3945
  243POPC   C3A 3344   6.641   8.938   4.624 -0.0352 -0.2142  0.0213
  243POPC   C4A 3345   6.183   9.088   4.588  0.0472  0.1042 -0.0777
  243POPC   C1B 3346   7.701   8.399   4.642  0.1061  0.0733 -0.1687
  243POPC   C2B 3347   7.211   8.298   4.937 -0.3009 -0.1539  0.0725
  243POPC   C3B 3348   7.060   8.003   5.200  0.0214  0.3412 -0.0279
  243POPC   C4B 3349   6.836   7.674   5.196 -0.0779  0.1187  0.3145
  244POPC   NC3 3350   2.648   7.264   4.392 -0.0074 -0.0321  0.1239
  244POPC   PO4 3351   2.375   7.311   4.908 -0.0666 -0.1631 -0.0019
  244POPC   GL1 3352   2.599   7.544   5.193 -0.2437 -0.0480  0.0591
  244POPC   GL2 3353   2.741   7.295   5.284 -0.3208  0.1053 -0.0121
  244POPC   C1A 3354   2.603   7.811   5.566 -0.2550  0.0969 -0.0929
  244POPC   D2A 3355   2.729   7.883   6.095 -0.0566 -0.2634 -0.0646
  244POPC   C3A 3356   2.409   8.166   6.231 -0.0183  0.1793  0.0376
  244POPC   C4A 3357   1.966   8.167   6.279  0.0343 -0.3946  0.0038
  244POPC   C1B 3358   2.878   7.425   5.746  0.2592  0.0244 -0.0759
  244POPC   C2B 3359   3.104   7.488   6.071 -0.0400  0.2313  0.1189
  244POPC   C3B 3360   3.317   7.526   6.486  0.1010 -0.0716 -0.1574
  244POPC   C4B 3361   3.329   7.845   6.739  0.3025  0.1740 -0.0117
  245POPC   NC3 3362   6.439   1.102   4.389  0.4468 -0.2905 -0.0141
  245POPC   PO4 3363   6.842   1.122   4.321 -0.3199  0.3300  0.0642
  245POPC   GL1 3364   6.810   1.066   4.757  0.0904 -0.1750  0.1636
  245POPC   GL2 3365   7.090   1.249   4.862  0.3697  0.0254 -0.3211
  245POPC   C1A 3366   6.888   0.864   5.114 -0.0137 -0.0165 -0.2123
  245POPC   D2A 3367   6.754   0.463   5.160 -0.1571  0.2350 -0.2351
  245POPC   C3A 3368   6.803   0.375   5.597 -0.1699 -0.3798  0.0783
  245POPC   C4A 3369   6.777   0.385   6.045  0.0492  0.1211 -0.3382
  245POPC   C1B 3370   7.110   1.295   5.250 -0.0405 -0.1096 -0.0278
  245POPC   C2B 3371   7.078   0.936   5.559 -0.0437  0.0122  0.0250
  245POPC   C3B 3372   7.186   0.908   6.137 -0.1399 -0.4591 -0.3493
  245POPC   C4B 3373   7.364   0.795   6.561  0.0096 -0.1082  0.2432
  246POPC   NC3 3374   1.989   5.082   4.593  0.2289 -0.2241  0.2083
  246POPC   PO4 3375   1.723   5.413   4.777  0.0477 -0.1156 -0.0175
  246POPC   GL1 3376   2.081   5.439   4.935 -0.2475  0.3178 -0.0360
  246POPC   GL2 3377   2.320   5.465   4.814  0.1143  0.0790  0.0431
  246POPC   C1A 3378   2.177   5.536   5.285 -0.0433 -0.0556 -0.0178
  246POPC   D2A 3379   1.992   5.500   5.664 -0.1380  0.0030  0.0648
  246POPC   C3A 3380   1.661   5.326   5.867  0.2099 -0.2108 -0.1388
  246POPC   C4A 3381   1.550   4.879   5.827  0.1345 -0.2669  0.0838
  246POPC   C1B 3382   2.595   5.701   5.071  0.1092 -0.0507  0.1264
  246POPC   C2B 3383   2.733   6.022   5.210  0.3076  0.1446 -0.0001
  246POPC   C3B 3384   2.761   6.484   5.314  0.3806  0.2666  0.1235
  246POPC   C4B 3385   2.771   6.800   5.195  0.0788 -0.0397  0.0650
  247POPC   NC3 3386   5.362   0.956   4.826 -0.1664  0.4042 -0.0404
  247POPC   PO4 3387   5.269   0.581   4.912  0.1400 -0.2425  0.1446
  247POPC   GL1 3388   5.295   0.541   5.269  0.0081 -0.1221 -0.1654
  247POPC   GL2 3389   4.993   0.458   5.319  0.2653 -0.1818 -0.1412
  247POPC   C1A 3390   5.540   0.589   5.680  0.0964 -0.1020 -0.0706
  247POPC   D2A 3391   5.647   0.501   6.048 -0.0934 -0.3744 -0.2563
  247POPC   C3A 3392   5.783   0.803   6.371 -0.1507  0.0711  0.3002
  247POPC   C4A 3393   5.599   1.128   6.814 -0.0645  0.4067 -0.0075
  247POPC   C1B 3394   5.034   0.644   5.739  0.4525  0.0232 -0.1561
  247POPC   C2B 3395   4.854   0.599   6.204 -0.2910  0.1160  0.2799
  247POPC   C3B 3396   4.920   0.522   6.730  0.3031  0.2086  0.0595
  247POPC   C4B 3397   4.989   0.557   7.208  0.5482  0.3601 -0.1125
  248POPC   NC3 3398   7.021   8.755   3.694  0.2441 -0.0817  0.1426
  248POPC   PO4 3399   6.895   8.386   3.805  0.0996  0.2846 -0.2535
  248POPC   GL1 3400   7.131   8.271   4.107  0.1334 -0.2246  0.1418
  248POPC   GL2 3401   7.200   7.866   4.084  0.1035  0.1863  0.0484
  248POPC   C1A 3402   7.229   8.029   4.582 -0.0200 -0.2640  0.1101
  248POPC   D2A 3403   7.363   7.693   4.837  0.0611  0.1022 -0.1081
  248POPC   C3A 3404   7.323   7.431   5.164  0.1196 -0.2579 -0.1815
  248POPC   C4A 3405   7.449   6.993   5.215 -0.1660 -0.0702 -0.3241
  248POPC   C1B 3406   7.575   7.718   4.301  0.5343 -0.0641  0.1722
  248POPC   C2B 3407   7.826   7.447   4.755  0.2619 -0.1719  0.1713
  248POPC   C3B 3408   7.801   7.440   5.243 -0.1351  0.1854  0.0025
  248POPC   C4B 3409   7.993   7.705   5.236  0.0728  0.0381 -0.0247
  249POPC   NC3 3410   0.892   2.419   4.633  0.0608 -0.1167 -0.6958
  249POPC   PO4 3411   1.312   2.366   4.847  0.1877  0.1596 -0.0672
  249POPC   GL1 3412   0.955   1.995   5.027 -0.3202 -0.4707 -0.0522
  249POPC   GL2 3413   1.059   1.636   5.046  0.1110  0.0657 -0.1083
  249POPC   C1A 3414   0.766   1.838   5.357  0.0455 -0.2954  0.1078
  249POPC   D2A 3415   0.577   1.866   5.805 -0.2117 -0.0593 -0.1112
  249POPC   C3A 3416   0.285   1.535   5.978  0.1447 -0.1235 -0.0029
  249POPC   C4A 3417  -0.031   1.323   6.217 -0.1453 -0.1926 -0.0708
  249POPC   C1B 3418   1.051   1.471   5.491  0.0335 -0.0722 -0.0508
  249POPC   C2B 3419   0.687   1.409   5.683 -0.2585  0.2136  0.0186
  249POPC   C3B 3420   0.381   1.117   5.768 -0.2772 -0.0041 -0.1056
  249POPC   C4B 3421   0.203   0.902   6.010 -0.2266 -0.1229  0.2639
  250POPC   NC3 3422   3.938   2.792   4.377 -0.0519 -0.0186 -0.0750
  250POPC   PO4 3423   3.970   3.287   4.568 -0.0116  0.2307 -0.3902
  250POPC   GL1 3424   4.285   3.195   4.874  0.1276  0.4151  0.1451
  250POPC   GL2 3425   4.420   3.468   5.016 -0.1421 -0.2553  0.3983
  250POPC   C1A 3426   4.310   3.014   5.224  0.0355 -0.1873  0.0687
  250POPC   D2A 3427   4.295   2.784   5.630 -0.1306  0.1246  0.0385
  250POPC   C3A 3428   4.364   2.876   6.105 -0.1486 -0.1170  0.0968
  250POPC   C4A 3429   4.138   2.826   6.453  0.0623 -0.0596  0.0930
  250POPC   C1B 3430   4.649   3.360   5.294  0.0311  0.1481 -0.2324
  250POPC   C2B 3431   4.586   3.188   5.681 -0.1962 -0.1941 -0.1309
  250POPC   C3B 3432   4.467   3.337   6.115  0.0730  0.0541  0.4086
  250POPC   C4B 3433   4.222   3.556   6.358  0.2505  0.3428 -0.1026
  251POPC   NC3 3434   1.814   1.526   4.293 -0.1710 -0.1153  0.1672
  251POPC   PO4 3435   2.019   1.594   4.691 -0.0158 -0.0947 -0.2103
  251POPC   GL1 3436   1.938   1.770   5.089  0.0559  0.1864 -0.1214
  251POPC   GL2 3437   1.773   2.051   5.055  0.3043  0.1399 -0.0805
  251POPC   C1A 3438   1.971   1.892   5.572 -0.3185  0.0876 -0.0476
  251POPC   D2A 3439   2.077   1.843   6.029  0.2002 -0.2622  0.1318
  251POPC   C3A 3440   2.392   1.497   6.181 -0.2137  0.2291 -0.0043
  251POPC   C4A 3441   2.695   1.134   6.236 -0.1715  0.3270 -0.1400
  251POPC   C1B 3442   1.528   2.182   5.490 -0.0684  0.0829  0.1389
  251POPC   C2B 3443   1.173   2.058   5.599 -0.1111  0.0635  0.3095
  251POPC   C3B 3444   1.024   1.737   5.935  0.1269  0.2355  0.2944
  251POPC   C4B 3445   0.734   1.613   6.197 -0.0402 -0.2223 -0.0608
  252POPC   NC3 3446   6.993   9.755   3.765  0.1129 -0.0387 -0.1454
  252POPC   PO4 3447   6.897   9.761   4.244 -0.2574 -0.1345  0.0123
  252POPC   GL1 3448   6.973   9.870   4.591 -0.0924 -0.0070 -0.0061
  252POPC   GL2 3449   7.038  10.201   4.741 -0.0715 -0.1842  0.0872
  252POPC   C1A 3450   6.888   9.759   5.016  0.0958 -0.0255 -0.0428
  252POPC   D2A 3451   6.866   9.712   5.386  0.2682  0.0571 -0.1250
  252POPC   C3A 3452   6.592   9.817   5.760  0.1833 -0.0380  0.0186
  252POPC   C4A 3453   6.329   9.744   6.174 -0.0096 -0.1264 -0.0508
  252POPC   C1B 3454   7.218  10.099   5.151  0.2315 -0.1496  0.2324
  252POPC   C2B 3455   7.352   9.764   5.361  0.0080  0.2949  0.0564
  252POPC   C3B 3456   7.115   9.447   5.742  0.2186  0.2306 -0.1301
  252POPC   C4B 3457   6.650   9.204   5.685  0.0883  0.0301 -0.0680
  253POPC   NC3 3458   2.905   8.509   4.983  0.1332  0.2121  0.0425
  253POPC   PO4 3459   2.814   8.897   5.010 -0.0330 -0.4248  0.2203
  253POPC   GL1 3460   2.988   8.922   5.423 -0.2835  0.1449  0.0186
  253POPC   GL2 3461   2.941   9.240   5.539  0.4118  0.0578 -0.0944
  253POPC   C1A 3462   3.013   8.829   5.872  0.0396  0.2937 -0.0215
  253POPC   D2A 3463   3.098   8.784   6.239  0.0920  0.0976  0.1105
  253POPC   C3A 3464   3.276   9.005   6.582  0.0803 -0.1014 -0.0063
  253POPC   C4A 3465   3.410   9.103   6.998 -0.0997 -0.0725 -0.2984
  253POPC   C1B 3466   2.608   9.270   5.894 -0.2772  0.1548  0.0375
  253POPC   C2B 3467   2.480   9.435   6.301  0.2364  0.0853  0.2616
  253POPC   C3B 3468   2.250   9.400   6.705  0.2077 -0.1867 -0.4953
  253POPC   C4B 3469   1.897   9.145   6.663 -0.0138  0.2060  0.2689
  254POPC   NC3 3470   1.943   2.541   4.733  0.0832  0.1554 -0.1657
  254POPC   PO4 3471   2.070   2.454   5.086  0.1228 -0.2036  0.0504
  254POPC   GL1 3472   1.951   2.405   5.546 -0.1548  0.1708 -0.0019
  254POPC   GL2 3473   2.300   2.307   5.801  0.2355  0.0281 -0.0693
  254POPC   C1A 3474   1.700   2.293   5.978 -0.0829  0.1584 -0.2531
  254POPC   D2A 3475   1.250   2.152   6.080 -0.0368 -0.1528 -0.3003
  254POPC   C3A 3476   1.099   2.448   6.493  0.2286 -0.0803 -0.0099
  254POPC   C4A 3477   1.065   2.450   6.817  0.2394  0.1837 -0.1074
  254POPC   C1B 3478   2.514   2.690   5.950  0.1927  0.2901 -0.1051
  254POPC   C2B 3479   2.574   3.088   6.135  0.0023  0.0155  0.3435
  254POPC   C3B 3480   2.645   3.281   6.502 -0.0300 -0.3633 -0.1108
  254POPC   C4B 3481   2.960   3.411   6.843  0.2148 -0.0327  0.0334
  255POPC   NC3 3482   3.072   6.471   4.558  0.0202  0.2572 -0.3821
  255POPC   PO4 3483   3.112   5.961   4.548  0.2666  0.0884  0.0023
  255POPC   GL1 3484   3.147   6.241   4.966 -0.0741 -0.0018  0.1059
  255POPC   GL2 3485   3.228   6.529   5.034 -0.0586  0.2162  0.0145
  255POPC   C1A 3486   3.170   6.160   5.458 -0.3202  0.1619  0.1033
  255POPC   D2A 3487   3.260   5.831   5.832 -0.0990  0.0055 -0.1693
  255POPC   C3A 3488   3.590   5.980   6.078 -0.0243  0.0435 -0.6091
  255POPC   C4A 3489   4.026   6.178   6.115  0.1748  0.1128 -0.0316
  255POPC   C1B 3490   3.233   6.660   5.531 -0.3637  0.1529  0.0711
  255POPC   C2B 3491   3.252   6.413   5.905 -0.0230  0.3348 -0.1245
  255POPC   C3B 3492   3.141   6.197   6.174 -0.5001  0.1300 -0.0286
  255POPC   C4B 3493   2.963   5.891   6.195 -0.1766  0.1624 -0.1509
  256POPC   NC3 3494   5.652   2.670   4.249 -0.0938 -0.2521 -0.1580
  256POPC   PO4 3495   5.943   2.836   4.131 -0.1402  0.0904 -0.1974
  256POPC   GL1 3496   6.032   2.867   4.539 -0.0240  0.0103  0.0152
  256POPC   GL2 3497   5.893   2.588   4.694 -0.0123  0.2361 -0.0229
  256POPC   C1A 3498   6.130   2.952   4.899 -0.0261  0.1847  0.2263
  256POPC   D2A 3499   6.055   2.847   5.361  0.4280 -0.0978  0.1298
  256POPC   C3A 3500   6.268   2.644   5.663  0.2309  0.0252  0.1001
  256POPC   C4A 3501   6.723   2.535   5.777 -0.3522  0.4217 -0.0756
  256POPC   C1B 3502   6.238   2.445   5.093 -0.2062  0.1487  0.2779
  256POPC   C2B 3503   6.480   2.208   5.450  0.2000 -0.1465 -0.0850
  256POPC   C3B 3504   6.442   2.112   5.834  0.0554 -0.1152 -0.1475
  256POPC   C4B 3505   6.261   2.366   6.147  0.1887 -0.4082 -0.4567
  257POPC   NC3 3506   0.636   9.170   4.925  0.0331 -0.0009 -0.1175
  257POPC   PO4 3507   0.178   9.156   5.067 -0.0672  0.1068  0.2313
  257POPC   GL1 3508   0.285   8.850   5.381  0.0556 -0.5105 -0.0867
  257POPC   GL2 3509   0.639   8.769   5.242  0.3378  0.0930  0.0495
  257POPC   C1A 3510   0.394   9.056   5.861  0.0459 -0.2700 -0.2239
  257POPC   D2A 3511   0.249   8.826   6.190  0.1718 -0.0927  0.0741
  257POPC   C3A 3512  -0.106   8.705   6.463 -0.1519  0.1285  0.1065
  257POPC   C4A 3513  -0.495   8.644   6.526  0.4732  0.0103 -0.1344
  257POPC   C1B 3514   0.763   8.676   5.645  0.1053  0.0012 -0.0842
  257POPC   C2B 3515   0.750   8.771   6.092  0.1101 -0.1011  0.2437
  257POPC   C3B 3516   0.662   9.120   6.336 -0.0208 -0.1772 -0.0981
  257POPC   C4B 3517   0.907   9.184   6.647  0.3756 -0.2085  0.1224
  258POPC   NC3 3518   4.771   1.086   4.337  0.0914  0.0586 -0.0072
  258POPC   PO4 3519   5.043   1.245   4.619 -0.1211 -0.0316  0.0693
  258POPC   GL1 3520   5.097   1.295   5.057 -0.1301 -0.0765  0.0693
  258POPC   GL2 3521   4.997   0.940   5.222 -0.0366 -0.0111 -0.1587
  258POPC   C1A 3522   5.273   1.585   5.400  0.4349  0.2907  0.1027
  258POPC   D2A 3523   5.607   1.560   5.642 -0.2262 -0.0112 -0.0137
  258POPC   C3A 3524   5.724   1.235   5.983  0.0169  0.1007  0.1473
  258POPC   C4A 3525   5.944   0.903   5.887 -0.0272 -0.0113  0.0591
  258POPC   C1B 3526   4.625   0.882   5.545  0.3093 -0.0207 -0.0382
  258POPC   C2B 3527   4.387   0.879   5.967 -0.0804 -0.0190 -0.0481
  258POPC   C3B 3528   4.355   0.626   6.312 -0.2455  0.1352  0.2572
  258POPC   C4B 3529   4.495   0.235   6.486 -0.1281  0.1527 -0.2580
  259POPC   NC3 3530   6.168   3.380   4.261 -0.0189 -0.4621 -0.0751
  259POPC   PO4 3531   5.977   3.674   4.384  0.1203 -0.0331  0.5170
  259POPC   GL1 3532   5.876   3.544   4.696  0.0403  0.1742 -0.0742
  259POPC   GL2 3533   5.966   3.697   4.879 -0.2435 -0.0529 -0.0768
  259POPC   C1A 3534   5.478   3.249   4.933  0.2870 -0.1962  0.3327
  259POPC   D2A 3535   5.128   3.126   5.273  0.0973  0.3502 -0.0146
  259POPC   C3A 3536   5.164   3.207   5.718 -0.0471 -0.3625 -0.2163
  259POPC   C4A 3537   5.007   3.466   5.880 -0.1974 -0.3655  0.1522
  259POPC   C1B 3538   6.058   3.387   5.225 -0.0183  0.1528 -0.0809
  259POPC   C2B 3539   6.181   3.275   5.602  0.0070 -0.0837 -0.1012
  259POPC   C3B 3540   6.167   3.221   6.072  0.2971 -0.3441  0.1872
  259POPC   C4B 3541   6.354   3.070   6.592  0.1921  0.0311  0.1048
  260POPC   NC3 3542   0.495   4.392   4.876 -0.2937 -0.2171  0.2998
  260POPC   PO4 3543   0.837   4.762   4.691  0.0076  0.3325  0.2504
  260POPC   GL1 3544   0.826   4.772   5.131  0.0056  0.1028 -0.1298
  260POPC   GL2 3545   0.884   4.907   5.246  0.0100 -0.2415 -0.4481
  260POPC   C1A 3546   0.447   4.760   5.401 -0.0100 -0.1917 -0.2208
  260POPC   D2A 3547   0.340   4.660   5.763  0.0605 -0.0179  0.2269
  260POPC   C3A 3548   0.614   4.646   6.147  0.2931  0.0099 -0.2363
  260POPC   C4A 3549   0.706   4.942   6.384 -0.0853  0.3055  0.2084
  260POPC   C1B 3550   0.949   4.675   5.650 -0.1619  0.0413 -0.1642
  260POPC   C2B 3551   1.060   4.748   6.002  0.2321 -0.0824  0.0027
  260POPC   C3B 3552   1.440   4.560   6.217  0.0347  0.0614 -0.0949
  260POPC   C4B 3553   1.433   4.293   6.647  0.3321  0.2778  0.0405
  261POPC   NC3 3554   0.171   3.177   4.300 -0.2343  0.1108 -0.0579
  261POPC   PO4 3555   0.201   3.114   4.822  0.2085 -0.0285 -0.2267
  261POPC   GL1 3556   0.348   3.110   5.255 -0.2159 -0.2094 -0.0733
  261POPC   GL2 3557   0.647   3.343   5.439 -0.1842  0.0953 -0.1621
  261POPC   C1A 3558   0.518   2.824   5.557  0.1941 -0.0077 -0.3471
  261POPC   D2A 3559   0.313   2.389   5.563 -0.1365 -0.0463  0.2345
  261POPC   C3A 3560  -0.067   2.375   5.760  0.2624 -0.1804  0.1809
  261POPC   C4A 3561  -0.122   2.588   6.148  0.2601 -0.0640  0.0308
  261POPC   C1B 3562   0.775   3.482   5.880 -0.1069 -0.0989 -0.0607
  261POPC   C2B 3563   1.143   3.697   6.090 -0.1716 -0.0742  0.0169
  261POPC   C3B 3564   1.137   4.094   6.246 -0.3057  0.2540 -0.3095
  261POPC   C4B 3565   0.924   4.456   6.541  0.0305  0.1746  0.1027
  262POPC   NC3 3566   1.117   8.234   4.961  0.2650 -0.4392 -0.0451
  262POPC   PO4 3567   0.851   7.924   4.800 -0.2185 -0.2652 -0.0688
  262POPC   GL1 3568   0.648   8.206   5.185 -0.1672  0.2814  0.0818
  262POPC   GL2 3569   0.907   8.225   5.450 -0.0152 -0.0922  0.1209
  262POPC   C1A 3570   0.296   8.365   5.314 -0.3141 -0.1927  0.0273
  262POPC   D2A 3571   0.356   8.424   5.725  0.0314  0.1106  0.1854
  262POPC   C3A 3572   0.622   8.299   6.094 -0.1161 -0.2828 -0.0255
  262POPC   C4A 3573   0.584   8.502   6.500 -0.1276  0.0080 -0.3095
  262POPC   C1B 3574   0.825   7.962   5.755 -0.3909  0.2226  0.0868
  262POPC   C2B 3575   0.912   7.597   6.106  0.0138 -0.0949  0.1830
  262POPC   C3B 3576   0.921   7.147   6.120 -0.2871  0.1596  0.2130
  262POPC   C4B 3577   0.910   6.659   6.013 -0.0244  0.0970 -0.1851
  263POPC   NC3 3578   0.112   6.732   4.987 -0.0680 -0.1513 -0.1967
  263POPC   PO4 3579   0.032   7.142   4.827 -0.1634 -0.2225  0.0759
  263POPC   GL1 3580  -0.098   7.158   5.226  0.0614  0.1127  0.1336
  263POPC   GL2 3581  -0.410   7.278   5.384  0.1164 -0.1831  0.1680
  263POPC   C1A 3582   0.018   7.123   5.673 -0.2640 -0.1680 -0.0073
  263POPC   D2A 3583   0.054   7.143   6.045 -0.0504 -0.0786 -0.0515
  263POPC   C3A 3584   0.017   7.302   6.475  0.0751 -0.0313  0.2935
  263POPC   C4A 3585  -0.378   7.365   6.742 -0.3592  0.0053  0.1225
  263POPC   C1B 3586  -0.455   7.211   5.864 -0.2761  0.0828 -0.1721
  263POPC   C2B 3587  -0.456   7.066   6.245  0.1080  0.2179  0.0025
  263POPC   C3B 3588  -0.692   6.889   6.602 -0.0072 -0.0134 -0.1085
  263POPC   C4B 3589  -0.495   6.766   6.932 -0.0475  0.2050  0.2694
  264POPC   NC3 3590   3.308   7.880   4.569  0.1730 -0.1792 -0.2380
  264POPC   PO4 3591   3.610   7.752   4.840 -0.2129 -0.1008 -0.2486
  264POPC   GL1 3592   3.905   7.940   5.197 -0.0518 -0.0915  0.1116
  264POPC   GL2 3593   3.859   8.226   5.259  0.1465 -0.2025  0.1153
  264POPC   C1A 3594   4.082   7.804   5.668 -0.1450 -0.0384 -0.3260
  264POPC   D2A 3595   3.995   7.598   6.000 -0.2243 -0.3577 -0.0736
  264POPC   C3A 3596   4.209   7.254   6.292  0.0269  0.3397  0.3141
  264POPC   C4A 3597   4.085   6.954   6.624 -0.3692 -0.0979 -0.0499
  264POPC   C1B 3598   3.783   8.261   5.650  0.3339  0.0070  0.0598
  264POPC   C2B 3599   3.680   8.006   5.988 -0.1347  0.1078  0.4589
  264POPC   C3B 3600   3.697   7.803   6.360 -0.3019 -0.2089 -0.5006
  264POPC   C4B 3601   3.856   7.460   6.569  0.0015 -0.1682  0.2237
  265POPC   NC3 3602   9.522   5.423   4.737 -0.1217  0.2624 -0.2186
  265POPC   PO4 3603   9.841   5.794   4.778 -0.5162  0.2489 -0.5194
  265POPC   GL1 3604   9.738   5.699   5.153  0.1008 -0.3061 -0.1017
  265POPC   GL2 3605   9.537   5.519   5.202  0.5815  0.3594 -0.0819
  265POPC   C1A 3606   9.753   5.792   5.617 -0.1130 -0.0193 -0.1829
  265POPC   D2A 3607   9.987   6.050   5.973 -0.1966  0.1500 -0.3765
  265POPC   C3A 3608  10.358   5.859   6.201  0.1494  0.0134  0.0105
  265POPC   C4A 3609  10.356   5.560   6.507  0.1837  0.0675 -0.1327
  265POPC   C1B 3610   9.281   5.541   5.539 -0.0557 -0.0994  0.0816
  265POPC   C2B 3611   9.382   5.610   5.952  0.2570  0.1528 -0.1621
  265POPC   C3B 3612   9.561   5.807   6.363  0.3826  0.3806 -0.1466
  265POPC   C4B 3613   9.907   5.794   6.563  0.0234  0.0182 -0.1660
  266POPC   NC3 3614   3.491   0.415   4.530  0.0672  0.1559 -0.0942
  266POPC   PO4 3615   3.981   0.242   4.661  0.1891  0.3835  0.1172
  266POPC   GL1 3616   4.078  -0.063   4.975  0.2329  0.0162  0.1371
  266POPC   GL2 3617   3.911  -0.331   5.028  0.0932  0.3571 -0.1757
  266POPC   C1A 3618   4.330  -0.259   5.279 -0.0765 -0.0104  0.0610
  266POPC   D2A 3619   4.414  -0.537   5.654  0.3287  0.1983 -0.1438
  266POPC   C3A 3620   4.637  -0.255   5.787  0.2489 -0.1831  0.0046
  266POPC   C4A 3621   4.881  -0.203   6.091  0.2282  0.1659  0.1419
  266POPC   C1B 3622   3.832  -0.061   5.369 -0.2194  0.1579 -0.1118
  266POPC   C2B 3623   4.015   0.152   5.712 -0.0158  0.0976 -0.2466
  266POPC   C3B 3624   4.005   0.426   6.024  0.0438  0.0169 -0.2529
  266POPC   C4B 3625   3.728   0.633   6.361 -0.1182  0.2032  0.2671
  267POPC   NC3 3626   9.052   0.126   4.790  0.3921  0.6643 -0.0476
  267POPC   PO4 3627   8.778   0.501   4.537  0.2322  0.3410 -0.0280
  267POPC   GL1 3628   8.760   0.473   5.024  0.0277  0.1236 -0.2735
  267POPC   GL2 3629   8.998   0.347   5.279 -0.2097 -0.1845  0.1706
  267POPC   C1A 3630   8.584   0.485   5.541 -0.1735  0.0853  0.3504
  267POPC   D2A 3631   8.203   0.414   5.810  0.1014  0.0102  0.4309
  267POPC   C3A 3632   8.372   0.085   6.123  0.0472 -0.0929  0.2690
  267POPC   C4A 3633   8.272  -0.239   6.392  0.1092  0.0276 -0.2853
  267POPC   C1B 3634   9.084   0.651   5.565 -0.0155 -0.1236 -0.0465
  267POPC   C2B 3635   9.055   0.620   6.010  0.1251  0.0313 -0.1373
  267POPC   C3B 3636   9.326   0.471   6.386  0.1052  0.3615  0.2702
  267POPC   C4B 3637   9.535   0.687   6.705  0.1436  0.0553  0.1184
  268POPC   NC3 3638   4.834   7.392   2.874 -0.1370  0.1272 -0.0359
  268POPC   PO4 3639   5.001   7.266   3.312  0.2427 -0.3383  0.0927
  268POPC   GL1 3640   5.161   7.540   3.690 -0.1356 -0.0950  0.2189
  268POPC   GL2 3641   5.428   7.763   3.686  0.3987 -0.0856 -0.3799
  268POPC   C1A 3642   5.253   7.570   4.162  0.0204  0.2410  0.0111
  268POPC   D2A 3643   5.490   7.281   4.373  0.2139 -0.2286  0.2952
  268POPC   C3A 3644   5.379   6.995   4.593  0.1485  0.1470 -0.1632
  268POPC   C4A 3645   5.637   6.696   4.828  0.1015  0.0536  0.2664
  268POPC   C1B 3646   5.506   7.997   4.023  0.0664  0.2892 -0.0275
  268POPC   C2B 3647   5.414   8.218   4.373 -0.4063 -0.0349  0.1592
  268POPC   C3B 3648   5.392   8.197   4.779  0.2253  0.1586 -0.0151
  268POPC   C4B 3649   5.253   7.901   5.087  0.0101 -0.1620 -0.1360
  269POPC   NC3 3650   2.048   6.013   4.642 -0.1512  0.2397  0.1119
  269POPC   PO4 3651   1.722   6.339   4.648  0.0216  0.2236 -0.0251
  269POPC   GL1 3652   2.010   6.295   5.087 -0.0491 -0.2832 -0.0456
  269POPC   GL2 3653   2.171   6.046   5.124 -0.4499  0.1020 -0.0054
  269POPC   C1A 3654   1.956   6.252   5.535  0.1741  0.1999 -0.3637
  269POPC   D2A 3655   1.889   6.124   5.846  0.1924 -0.3690 -0.1837
  269POPC   C3A 3656   1.776   5.796   6.023  0.0945 -0.0386  0.0694
  269POPC   C4A 3657   1.954   5.481   6.224 -0.1745  0.2625 -0.0565
  269POPC   C1B 3658   2.360   5.892   5.501  0.1164 -0.1397  0.0581
  269POPC   C2B 3659   2.363   5.802   5.918  0.0487  0.1188  0.0165
  269POPC   C3B 3660   2.200   5.880   6.333  0.2125 -0.1771  0.3985
  269POPC   C4B 3661   2.533   5.860   6.624  0.2369  0.0325  0.2450
  270POPC   NC3 3662   7.628   4.251   3.918 -0.1170 -0.0905 -0.3530
  270POPC   PO4 3663   7.891   4.467   4.252  0.1008 -0.1427  0.1124
  270POPC   GL1 3664   7.857   4.424   4.675  0.0262 -0.2211  0.3819
  270POPC   GL2 3665   7.742   4.106   4.791  0.2279 -0.3619 -0.3782
  270POPC   C1A 3666   7.434   4.526   4.955 -0.1286  0.0911  0.1652
  270POPC   D2A 3667   7.419   4.627   5.313  0.0576 -0.2984  0.0681
  270POPC   C3A 3668   7.412   4.931   5.584 -0.3831  0.0348 -0.3936
  270POPC   C4A 3669   7.077   5.260   5.741 -0.2324  0.1987  0.2089
  270POPC   C1B 3670   7.791   3.806   5.195  0.3002  0.2214 -0.3715
  270POPC   C2B 3671   7.773   3.791   5.618  0.1866  0.0090  0.1949
  270POPC   C3B 3672   7.421   3.754   5.907  0.1522  0.0290  0.2594
  270POPC   C4B 3673   7.088   3.766   6.271  0.1348 -0.1792  0.1025
  271POPC   NC3 3674   9.812   4.945   4.561 -0.7449  0.3126 -0.4159
  271POPC   PO4 3675  10.047   5.306   4.657  0.0508 -0.0932  0.1568
  271POPC   GL1 3676  10.216   5.449   5.027  0.1461 -0.0574  0.1361
  271POPC   GL2 3677  10.564   5.683   5.031  0.0809 -0.2872  0.3817
  271POPC   C1A 3678  10.400   5.268   5.405 -0.2898 -0.1555  0.0241
  271POPC   D2A 3679  10.577   5.151   5.865 -0.1224 -0.2167  0.0792
  271POPC   C3A 3680  10.679   5.373   6.190  0.0511  0.1907 -0.3074
  271POPC   C4A 3681  10.910   5.351   6.612  0.0399  0.0904  0.0724
  271POPC   C1B 3682  10.896   5.400   5.348 -0.0043 -0.1439  0.0335
  271POPC   C2B 3683  11.059   5.129   5.698  0.0464  0.2411 -0.1054
  271POPC   C3B 3684  11.185   5.183   6.118 -0.0618  0.1071  0.0613
  271POPC   C4B 3685  11.172   4.902   6.473  0.1810  0.2063 -0.0832
  272POPC   NC3 3686   6.097   4.181   4.415 -0.2161 -0.0386 -0.1816
  272POPC   PO4 3687   5.859   4.685   4.476  0.0157  0.0932 -0.1413
  272POPC   GL1 3688   6.045   4.534   4.774 -0.0260  0.0613 -0.0586
  272POPC   GL2 3689   6.145   4.201   4.973  0.0900  0.2680  0.1286
  272POPC   C1A 3690   6.179   4.638   5.168 -0.1966 -0.1407 -0.2917
  272POPC   D2A 3691   6.516   4.557   5.418 -0.1102 -0.1075  0.1077
  272POPC   C3A 3692   6.443   4.410   5.830 -0.2258 -0.0327  0.2132
  272POPC   C4A 3693   6.500   4.734   6.309 -0.0840  0.3208  0.0506
  272POPC   C1B 3694   6.308   3.814   5.206  0.1798 -0.0306 -0.0032
  272POPC   C2B 3695   6.136   3.768   5.743  0.0946  0.0032  0.4782
  272POPC   C3B 3696   5.950   3.715   6.118 -0.2503  0.1345  0.0836
  272POPC   C4B 3697   5.683   3.799   6.443  0.0823  0.0268 -0.2045
  273POPC   NC3 3698   5.625   4.911   3.854 -0.0713 -0.3746 -0.3378
  273POPC   PO4 3699   5.572   5.317   4.143 -0.0203  0.2474 -0.0194
  273POPC   GL1 3700   5.833   5.223   4.480  0.2231  0.0047  0.1510
  273POPC   GL2 3701   5.773   5.042   4.800 -0.0717 -0.0305 -0.0069
  273POPC   C1A 3702   5.930   5.580   4.690 -0.3897 -0.1370  0.0163
  273POPC   D2A 3703   5.836   5.861   5.097 -0.0955  0.0706 -0.1066
  273POPC   C3A 3704   6.142   5.916   5.337  0.0872 -0.0602 -0.2279
  273POPC   C4A 3705   6.432   6.158   5.464  0.4943 -0.0460 -0.1669
  273POPC   C1B 3706   5.662   4.929   5.263 -0.0832 -0.1406 -0.1609
  273POPC   C2B 3707   5.704   5.007   5.738 -0.1655  0.0215  0.2723
  273POPC   C3B 3708   5.633   4.898   6.244 -0.0429  0.1672  0.0673
  273POPC   C4B 3709   5.603   4.829   6.702  0.4055  0.0292  0.0572
  274POPC   NC3 3710   0.242   3.693   4.467 -0.0027  0.4335 -0.2653
  274POPC   PO4 3711   0.221   4.012   4.695 -0.1663 -0.0908 -0.1179
  274POPC   GL1 3712   0.007   4.053   5.021 -0.1499  0.2707  0.1078
  274POPC   GL2 3713   0.142   4.296   5.219 -0.0668 -0.0504  0.1388
  274POPC   C1A 3714  -0.164   3.962   5.473  0.0168 -0.0209  0.3100
  274POPC   D2A 3715  -0.253   3.614   5.680 -0.2159  0.1379 -0.1579
  274POPC   C3A 3716  -0.217   3.615   6.070 -0.0067 -0.0608  0.1029
  274POPC   C4A 3717  -0.369   4.023   6.202 -0.1252 -0.0254 -0.2160
  274POPC   C1B 3718   0.457   4.144   5.509 -0.0163 -0.0099  0.2076
  274POPC   C2B 3719   0.605   4.000   5.934  0.0735 -0.0748 -0.1090
  274POPC   C3B 3720   0.582   4.203   6.399 -0.2062  0.0446  0.1270
  274POPC   C4B 3721   0.547   4.113   6.855  0.1501 -0.0830 -0.2582
  275POPC   NC3 3722   0.588   3.393   4.862 -0.1721 -0.0195 -0.2568
  275POPC   PO4 3723   0.972   3.644   4.997  0.3250  0.1079 -0.0640
  275POPC   GL1 3724   1.229   3.483   5.169 -0.0091 -0.1229 -0.1471
  275POPC   GL2 3725   1.191   3.142   5.152  0.0701 -0.3220 -0.3011
  275POPC   C1A 3726   1.462   3.549   5.577 -0.0747 -0.1991 -0.1783
  275POPC   D2A 3727   1.967   3.502   5.675 -0.2908  0.3702  0.0838
  275POPC   C3A 3728   2.071   3.759   6.068 -0.1274 -0.1413  0.0509
  275POPC   C4A 3729   2.167   4.177   6.285  0.0789 -0.0099  0.0074
  275POPC   C1B 3730   0.982   3.067   5.576  0.2021  0.2349 -0.5125
  275POPC   C2B 3731   0.565   3.108   5.985  0.2266  0.1333 -0.2337
  275POPC   C3B 3732   0.284   2.989   6.272  0.1329 -0.2932 -0.3253
  275POPC   C4B 3733   0.210   2.633   6.592 -0.3210  0.0986 -0.0179
  276POPC   NC3 3734   1.301   1.905   4.693  0.0482  0.0548 -0.2408
  276POPC   PO4 3735   1.421   1.398   4.562  0.1839 -0.1528 -0.0908
  276POPC   GL1 3736   1.544   1.575   4.941  0.0949  0.0450  0.0167
  276POPC   GL2 3737   1.431   1.260   5.162 -0.0991  0.0067  0.0818
  276POPC   C1A 3738   1.462   1.733   5.337 -0.0089  0.1561 -0.1099
  276POPC   D2A 3739   1.544   1.838   5.840  0.2787  0.2052  0.0873
  276POPC   C3A 3740   1.415   1.603   6.265  0.0417  0.2030 -0.0216
  276POPC   C4A 3741   1.082   1.288   6.481  0.2641  0.0365  0.1825
  276POPC   C1B 3742   1.334   0.978   5.497  0.0881 -0.0426 -0.1867
  276POPC   C2B 3743   1.289   0.791   5.904 -0.0707  0.0154  0.1934
  276POPC   C3B 3744   1.119   0.821   6.315 -0.3729  0.3271 -0.0203
  276POPC   C4B 3745   0.902   0.718   6.540 -0.0506  0.0908 -0.0037
  277POPC   NC3 3746   9.265   8.675   4.379  0.4812  0.2641 -0.2260
  277POPC   PO4 3747   9.619   8.484   4.510 -0.0135  0.1856 -0.0018
  277POPC   GL1 3748   9.338   8.589   4.862 -0.4551  0.0230  0.0536
  277POPC   GL2 3749   9.358   8.322   5.066  0.0692  0.1106 -0.2285
  277POPC   C1A 3750   9.117   8.836   5.148 -0.2157  0.2752  0.2789
  277POPC   D2A 3751   8.617   8.976   5.209  0.0382 -0.0254 -0.0176
  277POPC   C3A 3752   8.260   8.694   4.964  0.0155 -0.0051 -0.2767
  277POPC   C4A 3753   8.150   8.180   5.079  0.0548  0.0370 -0.0775
  277POPC   C1B 3754   9.297   8.468   5.455 -0.3054  0.0616  0.3151
  277POPC   C2B 3755   9.410   8.525   5.834 -0.0618 -0.0303 -0.2538
  277POPC   C3B 3756   9.626   8.843   5.933  0.2312 -0.1938 -0.2851
  277POPC   C4B 3757   9.510   9.252   5.912 -0.0164  0.0299  0.3232
  278POPC   NC3 3758   8.370   2.640   4.843 -0.0177 -0.0489 -0.2031
  278POPC   PO4 3759   8.721   2.398   4.860  0.1648  0.0598  0.1082
  278POPC   GL1 3760   8.487   2.246   5.132  0.4907 -0.2109  0.0343
  278POPC   GL2 3761   8.146   2.204   5.275  0.0140  0.0233 -0.1673
  278POPC   C1A 3762   8.453   2.469   5.528  0.0506 -0.1440  0.0852
  278POPC   D2A 3763   8.127   2.681   5.663  0.0869 -0.0243  0.3235
  278POPC   C3A 3764   7.838   2.501   5.925  0.0101  0.0508  0.2776
  278POPC   C4A 3765   7.556   2.738   6.141 -0.4830 -0.0613 -0.1759
  278POPC   C1B 3766   7.952   2.062   5.633  0.1984 -0.0425 -0.1551
  278POPC   C2B 3767   7.961   2.021   6.024  0.3380 -0.1751 -0.3399
  278POPC   C3B 3768   7.937   2.129   6.386  0.0560  0.1830 -0.2389
  278POPC   C4B 3769   7.863   2.021   6.768  0.5090  0.1354 -0.2839
  279POPC   NC3 3770   3.997   3.790   4.567 -0.0263 -0.1436  0.0867
  279POPC   PO4 3771   3.762   4.056   4.401  0.1276  0.0818 -0.2105
  279POPC   GL1 3772   3.706   4.171   4.956  0.3139  0.1104 -0.3054
  279POPC   GL2 3773   3.565   4.472   5.014 -0.1775 -0.0555 -0.1763
  279POPC   C1A 3774   3.653   4.026   5.298 -0.1413 -0.1046  0.0127
  279POPC   D2A 3775   3.742   4.090   5.850  0.1291  0.0211  0.0803
  279POPC   C3A 3776   3.732   4.567   5.996 -0.0914  0.4146  0.0300
  279POPC   C4A 3777   4.111   4.792   5.975 -0.1890 -0.0328  0.2606
  279POPC   C1B 3778   3.412   4.766   5.357 -0.2701 -0.3862 -0.1381
  279POPC   C2B 3779   3.278   4.738   5.845 -0.2929 -0.0805  0.1657
  279POPC   C3B 3780   3.378   4.673   6.338  0.1279 -0.0816  0.0288
  279POPC   C4B 3781   3.780   4.542   6.547  0.0619 -0.0917  0.0985
  280POPC   NC3 3782   3.248   7.542   5.188  0.2931  0.1693 -0.2871
  280POPC   PO4 3783   2.968   7.891   4.983 -0.0219  0.0872  0.1537
  280POPC   GL1 3784   3.096   8.000   5.396  0.0491 -0.0248 -0.0626
  280POPC   GL2 3785   3.486   7.938   5.433 -0.2033 -0.0238 -0.1570
  280POPC   C1A 3786   3.141   8.037   5.833  0.2895  0.3083 -0.2710
  280POPC   D2A 3787   3.168   7.969   6.287 -0.1229  0.0288 -0.0840
  280POPC   C3A 3788   2.878   8.097   6.566  0.1149  0.2192 -0.1527
  280POPC   C4A 3789   2.723   8.473   6.556 -0.3584 -0.2346  0.0631
  280POPC   C1B 3790   3.570   7.601   5.788 -0.2637 -0.3721  0.1699
  280POPC   C2B 3791   3.551   7.186   6.097  0.2695 -0.0101  0.0783
  280POPC   C3B 3792   3.390   6.670   6.298  0.1805  0.0295  0.0950
  280POPC   C4B 3793   3.002   6.562   6.405  0.3602 -0.0805  0.0140
  281POPC   NC3 3794   8.771   5.123   3.995  0.0796 -0.2544  0.0178
  281POPC   PO4 3795   8.453   5.210   4.191  0.0066  0.1255  0.2436
  281POPC   GL1 3796   8.375   5.381   4.599 -0.0691 -0.1639 -0.0034
  281POPC   GL2 3797   8.025   5.463   4.660 -0.4057  0.1630  0.1620
  281POPC   C1A 3798   8.351   5.808   4.707  0.0946  0.0552 -0.0156
  281POPC   D2A 3799   8.448   6.191   4.842  0.0379  0.1359 -0.1069
  281POPC   C3A 3800   8.560   6.454   4.537  0.2470  0.1602 -0.1531
  281POPC   C4A 3801   8.873   6.783   4.778  0.0967  0.3766 -0.1587
  281POPC   C1B 3802   8.179   5.352   5.043  0.1600  0.0661 -0.1388
  281POPC   C2B 3803   8.256   5.466   5.460 -0.1365  0.1667  0.1326
  281POPC   C3B 3804   8.428   5.394   5.884  0.3129 -0.1270 -0.1660
  281POPC   C4B 3805   8.411   5.434   6.330  0.0342  0.0571 -0.0360
  282POPC   NC3 3806   6.209   8.849   3.278 -0.4372  0.4693  0.1971
  282POPC   PO4 3807   5.805   8.797   3.586 -0.0312  0.3057 -0.3757
  282POPC   GL1 3808   5.881   8.379   3.868  0.2698 -0.1669  0.1686
  282POPC   GL2 3809   6.018   8.073   3.840 -0.0224 -0.3007 -0.0300
  282POPC   C1A 3810   5.946   8.248   4.355  0.2413  0.0866 -0.2448
  282POPC   D2A 3811   6.177   7.934   4.464  0.0950 -0.0787  0.0706
  282POPC   C3A 3812   6.057   7.486   4.655  0.0600 -0.1284 -0.2151
  282POPC   C4A 3813   5.833   7.156   4.714  0.1591 -0.1667  0.1186
  282POPC   C1B 3814   6.364   7.961   4.016 -0.2708  0.1133  0.2278
  282POPC   C2B 3815   6.734   8.015   4.276 -0.0794  0.0493  0.0295
  282POPC   C3B 3816   6.827   8.365   4.556 -0.0395  0.2396 -0.0039
  282POPC   C4B 3817   6.749   8.423   5.022  0.0552 -0.1322 -0.0505
  283POPC   NC3 3818   6.842   3.958   3.950 -0.1084  0.2370 -0.1911
  283POPC   PO4 3819   6.839   3.790   4.332 -0.6034  0.0404 -0.2495
  283POPC   GL1 3820   6.893   3.648   4.723 -0.0122  0.1681 -0.3433
  283POPC   GL2 3821   6.873   3.340   4.899  0.1301 -0.0742 -0.3134
  283POPC   C1A 3822   6.820   3.896   5.076 -0.3089 -0.1796 -0.4097
  283POPC   D2A 3823   6.627   4.062   5.437 -0.0848  0.0249  0.0132
  283POPC   C3A 3824   6.161   4.215   5.448  0.0375 -0.1960  0.1292
  283POPC   C4A 3825   5.866   4.568   5.559 -0.0779  0.5314  0.0629
  283POPC   C1B 3826   6.749   3.545   5.381 -0.1888  0.0422 -0.0704
  283POPC   C2B 3827   7.010   3.428   5.788  0.2073  0.1626  0.0153
  283POPC   C3B 3828   6.944   3.174   6.226  0.0123 -0.1413 -0.1492
  283POPC   C4B 3829   6.907   3.024   6.617  0.2406  0.0401 -0.0518
  284POPC   NC3 3830   5.254   5.605   3.853  0.1121 -0.1775  0.0234
  284POPC   PO4 3831   5.599   5.750   3.572 -0.0565  0.3563  0.0848
  284POPC   GL1 3832   5.730   5.787   4.001 -0.4144  0.1954 -0.1534
  284POPC   GL2 3833   5.973   5.663   4.190 -0.2438  0.1062  0.1993
  284POPC   C1A 3834   5.573   5.848   4.410  0.1819 -0.2295 -0.0765
  284POPC   D2A 3835   5.410   5.678   4.733 -0.5203  0.0371 -0.3036
  284POPC   C3A 3836   5.577   5.420   5.078 -0.0056 -0.0082  0.1874
  284POPC   C4A 3837   5.474   5.378   5.547  0.3222  0.0410 -0.0248
  284POPC   C1B 3838   6.058   6.050   4.414  0.0615  0.0864  0.0290
  284POPC   C2B 3839   5.811   6.234   4.640  0.2018  0.2901 -0.0448
  284POPC   C3B 3840   5.527   6.188   4.869  0.0411  0.0782 -0.2855
  284POPC   C4B 3841   5.353   5.915   5.198  0.1866 -0.0062  0.0137
  285POPC   NC3 3842   0.420   8.128   4.349 -0.0743  0.1187 -0.0975
  285POPC   PO4 3843   0.453   7.667   4.555 -0.1752  0.1027  0.1638
  285POPC   GL1 3844   0.477   7.668   4.989 -0.1526  0.0721  0.2324
  285POPC   GL2 3845   0.136   7.554   5.086 -0.2130 -0.1119  0.0088
  285POPC   C1A 3846   0.368   7.890   5.408  0.0210 -0.2595  0.0626
  285POPC   D2A 3847   0.122   8.015   5.819  0.2420  0.1228 -0.1979
  285POPC   C3A 3848   0.248   7.894   6.164  0.1902 -0.1691  0.3166
  285POPC   C4A 3849   0.570   7.988   6.480 -0.1774  0.4380 -0.1999
  285POPC   C1B 3850  -0.019   7.567   5.505  0.0197  0.1610 -0.3824
  285POPC   C2B 3851  -0.175   7.618   5.937 -0.0071 -0.4811 -0.2753
  285POPC   C3B 3852  -0.303   7.671   6.348 -0.0468 -0.4407  0.4803
  285POPC   C4B 3853  -0.043   7.825   6.728  0.0454 -0.1347  0.1799
  286POPC   NC3 3854   2.736   4.590   4.522  0.3436  0.2052  0.0004
  286POPC   PO4 3855   2.445   4.858   4.454  0.2455  0.1654 -0.2817
  286POPC   GL1 3856   2.397   4.910   4.888 -0.0256 -0.0553  0.0211
  286POPC   GL2 3857   2.660   4.703   5.049  0.3574  0.0192  0.1988
  286POPC   C1A 3858   2.541   5.151   5.187  0.2367 -0.3029 -0.0955
  286POPC   D2A 3859   2.884   5.383   5.378  0.1138  0.1841 -0.0292
  286POPC   C3A 3860   2.791   5.650   5.707  0.0136  0.2303 -0.0121
  286POPC   C4A 3861   2.795   6.066   5.750  0.1485  0.3386  0.0835
  286POPC   C1B 3862   2.388   4.678   5.404  0.4975 -0.0644 -0.0216
  286POPC   C2B 3863   1.851   4.555   5.436  0.0589 -0.0591  0.1111
  286POPC   C3B 3864   1.550   4.422   5.603  0.0727  0.1613  0.0025
  286POPC   C4B 3865   1.057   4.216   5.773  0.1053  0.4928 -0.6712
  287POPC   NC3 3866   8.722   3.654   4.750 -0.1415 -0.0700 -0.3047
  287POPC   PO4 3867   9.137   3.900   4.803  0.2524  0.2183  0.1063
  287POPC   GL1 3868   9.290   4.039   5.263 -0.0283  0.4164 -0.1131
  287POPC   GL2 3869   9.051   4.163   5.213 -0.0476  0.0830 -0.0110
  287POPC   C1A 3870   9.344   4.081   5.730 -0.2506  0.1085 -0.2736
  287POPC   D2A 3871   9.303   4.405   6.159 -0.1235  0.0222 -0.2439
  287POPC   C3A 3872   9.523   4.356   6.574 -0.2546  0.0678  0.0831
  287POPC   C4A 3873   9.610   3.930   6.700 -0.0474  0.1125  0.4672
  287POPC   C1B 3874   8.776   3.943   5.660  0.1126 -0.3411  0.1072
  287POPC   C2B 3875   8.708   4.130   6.094 -0.1707 -0.0218 -0.1647
  287POPC   C3B 3876   8.826   4.277   6.457 -0.0376 -0.1163 -0.2823
  287POPC   C4B 3877   8.669   4.457   6.704  0.1728 -0.0755  0.0738
  288POPC   NC3 3878   0.915   9.576   5.148 -0.2835 -0.0382  0.5426
  288POPC   PO4 3879   1.265   9.339   4.990 -0.0785  0.1755  0.1138
  288POPC   GL1 3880   1.004   9.112   5.356 -0.0550 -0.0533  0.5279
  288POPC   GL2 3881   0.690   9.223   5.456  0.0427 -0.1255 -0.0277
  288POPC   C1A 3882   1.216   8.880   5.692  0.2021 -0.0869  0.0282
  288POPC   D2A 3883   1.630   8.916   5.883 -0.2484 -0.3731 -0.0780
  288POPC   C3A 3884   1.696   8.826   6.295 -0.1283  0.0265  0.1540
  288POPC   C4A 3885   1.718   8.624   6.535  0.1359 -0.0401  0.1522
  288POPC   C1B 3886   0.957   9.232   5.865 -0.2084 -0.3614 -0.1148
  288POPC   C2B 3887   1.193   9.027   6.232  0.0925  0.2498  0.2643
  288POPC   C3B 3888   1.204   8.671   6.362  0.1464 -0.0818  0.4703
  288POPC   C4B 3889   0.988   8.233   6.399  0.2744  0.1029 -0.2360
  289POPC   NC3 3890   0.392   0.321   4.593 -0.1256  0.0276  0.0634
  289POPC   PO4 3891   0.588   0.002   4.888  0.1101  0.0443  0.1465
  289POPC   GL1 3892   0.642   0.086   5.340 -0.0788  0.1849 -0.0181
  289POPC   GL2 3893   0.761  -0.186   5.599 -0.0856 -0.1420  0.2161
  289POPC   C1A 3894   0.578   0.303   5.736  0.0535  0.0260 -0.2662
  289POPC   D2A 3895   0.607   0.191   6.144 -0.0455  0.0629  0.1784
  289POPC   C3A 3896   1.024   0.189   6.424  0.0417  0.1153 -0.0477
  289POPC   C4A 3897   1.071   0.277   6.865 -0.1444 -0.0388  0.1851
  289POPC   C1B 3898   0.487  -0.379   5.909 -0.1329 -0.2405  0.0447
  289POPC   C2B 3899   0.519  -0.327   6.312  0.1601  0.0270  0.0728
  289POPC   C3B 3900   0.546  -0.282   6.760  0.0668 -0.0909 -0.2294
  289POPC   C4B 3901   0.737  -0.029   7.111 -0.0941  0.2762  0.0312
  290POPC   NC3 3902   8.151   9.371   3.846 -0.0390 -0.4290 -0.2236
  290POPC   PO4 3903   7.741   9.328   4.075 -0.0790 -0.0419 -0.1853
  290POPC   GL1 3904   7.619   9.034   4.448 -0.1046  0.3205  0.2379
  290POPC   GL2 3905   7.789   9.207   4.741  0.3296 -0.2278  0.0320
  290POPC   C1A 3906   7.459   8.851   4.837  0.0425 -0.1223  0.0469
  290POPC   D2A 3907   7.757   8.720   5.032 -0.0976  0.3374  0.2830
  290POPC   C3A 3908   7.908   8.481   5.349  0.0639  0.2057  0.3510
  290POPC   C4A 3909   7.976   8.110   5.532 -0.2250  0.0355 -0.0704
  290POPC   C1B 3910   7.930   9.170   5.062 -0.1029  0.0386 -0.1160
  290POPC   C2B 3911   8.104   9.057   5.405 -0.0370 -0.2944  0.0313
  290POPC   C3B 3912   7.999   8.811   5.784  0.0006 -0.0482 -0.3281
  290POPC   C4B 3913   7.901   8.510   5.911  0.0862 -0.2886  0.0526
  291POPC   NC3 3914   9.595   6.282   4.475 -0.0718  0.0375  0.0480
  291POPC   PO4 3915   9.337   5.835   4.398 -0.1272  0.0242  0.0146
  291POPC   GL1 3916   9.327   5.881   4.871  0.2604  0.1039 -0.1720
  291POPC   GL2 3917   9.432   6.064   4.910  0.0853  0.1635  0.1844
  291POPC   C1A 3918   8.990   5.834   5.186 -0.2494  0.2094  0.1688
  291POPC   D2A 3919   8.593   5.798   5.308  0.2184 -0.3016  0.4719
  291POPC   C3A 3920   8.400   6.227   5.418  0.0771 -0.2312 -0.2772
  291POPC   C4A 3921   8.207   6.369   5.807 -0.1661  0.0435  0.0468
  291POPC   C1B 3922   9.419   6.147   5.323 -0.0560  0.0115  0.0396
  291POPC   C2B 3923   9.120   6.049   5.655 -0.4415 -0.0819  0.0225
  291POPC   C3B 3924   8.718   6.061   5.818 -0.1848 -0.4185  0.1112
  291POPC   C4B 3925   8.655   6.273   6.144 -0.1240 -0.0590  0.0979
  292POPC   NC3 3926   9.063   5.936   4.000  0.4106 -0.1133  0.1026
  292POPC   PO4 3927   9.104   6.406   4.042 -0.1630 -0.0607 -0.0431
  292POPC   GL1 3928   9.017   6.240   4.451 -0.1962  0.1241  0.0102
  292POPC   GL2 3929   8.801   5.987   4.507 -0.0791 -0.1752  0.1418
  292POPC   C1A 3930   8.897   6.286   4.868 -0.3053  0.1714 -0.1560
  292POPC   D2A 3931   8.923   6.393   5.276  0.1776  0.0830 -0.2046
  292POPC   C3A 3932   8.989   6.509   5.730  0.0537 -0.4018  0.1078
  292POPC   C4A 3933   9.098   6.718   6.202 -0.2288  0.1930  0.1434
  292POPC   C1B 3934   8.786   5.632   4.764 -0.2759 -0.0279 -0.3262
  292POPC   C2B 3935   8.852   5.370   5.030  0.1404 -0.1485 -0.0162
  292POPC   C3B 3936   8.806   5.366   5.406  0.1970 -0.0670  0.0474
  292POPC   C4B 3937   8.832   5.620   5.787 -0.0197 -0.1788  0.0965
  293POPC   NC3 3938   6.345   6.216   3.224  0.0210  0.2100 -0.1581
  293POPC   PO4 3939   6.571   6.128   3.701 -0.0499 -0.0423  0.1672
  293POPC   GL1 3940   6.642   5.956   4.104  0.0224  0.1904  0.0927
  293POPC   GL2 3941   6.838   5.822   4.223  0.0094 -0.1973  0.0127
  293POPC   C1A 3942   6.563   5.956   4.582 -0.0072  0.2034 -0.0398
  293POPC   D2A 3943   6.388   6.070   4.904  0.1163 -0.0058 -0.2822
  293POPC   C3A 3944   6.567   6.477   4.927  0.0517  0.2083 -0.1556
  293POPC   C4A 3945   6.956   6.650   4.920 -0.2046  0.0997 -0.3546
  293POPC   C1B 3946   6.893   5.636   4.610 -0.1438  0.1625  0.0439
  293POPC   C2B 3947   6.711   5.171   4.833 -0.0573 -0.3024 -0.2677
  293POPC   C3B 3948   6.595   5.035   5.296 -0.2563 -0.2270  0.0861
  293POPC   C4B 3949   6.159   4.967   5.550 -0.2658  0.1765 -0.1500
  294POPC   NC3 3950   9.323   4.426   4.874  0.0040 -0.1028  0.2948
  294POPC   PO4 3951   9.776   4.517   4.856  0.3110 -0.1861 -0.1164
  294POPC   GL1 3952   9.658   4.659   5.360  0.1047  0.0050 -0.2119
  294POPC   GL2 3953   9.420   4.487   5.332  0.1560  0.6289 -0.1209
  294POPC   C1A 3954   9.311   4.735   5.729 -0.1293 -0.0865  0.2488
  294POPC   D2A 3955   9.241   4.919   6.100  0.0517 -0.0587  0.0119
  294POPC   C3A 3956   9.456   4.930   6.479 -0.1724  0.0953 -0.0121
  294POPC   C4A 3957   9.771   4.740   6.773 -0.0145 -0.0550 -0.3142
  294POPC   C1B 3958   9.800   4.370   5.705 -0.2433 -0.1768 -0.3342
  294POPC   C2B 3959   9.991   4.054   5.995 -0.1147 -0.0907  0.3381
  294POPC   C3B 3960  10.055   3.989   6.293 -0.0271 -0.0894  0.2963
  294POPC   C4B 3961  10.124   3.730   6.639  0.0691 -0.0775  0.0273
  295POPC   NC3 3962   1.410   7.213   4.655 -0.0612 -0.1561 -0.1080
  295POPC   PO4 3963   1.817   7.540   4.677  0.2512 -0.1194 -0.3737
  295POPC   GL1 3964   1.819   7.578   5.096  0.0270 -0.0945  0.0084
  295POPC   GL2 3965   1.874   7.808   5.412  0.0062  0.1549  0.3407
  295POPC   C1A 3966   2.193   7.422   5.508  0.2726 -0.0781 -0.0175
  295POPC   D2A 3967   2.201   7.136   5.883 -0.0787 -0.0760  0.2113
  295POPC   C3A 3968   2.123   6.658   5.862 -0.0584  0.0277  0.2239
  295POPC   C4A 3969   2.378   6.402   5.661 -0.2042 -0.0524  0.1442
  295POPC   C1B 3970   2.178   7.814   5.856 -0.3395 -0.1963 -0.2079
  295POPC   C2B 3971   2.434   7.530   6.120  0.0192 -0.2634  0.1210
  295POPC   C3B 3972   2.799   7.486   6.451  0.0650 -0.2005  0.2166
  295POPC   C4B 3973   2.939   7.504   6.909 -0.0644  0.2100 -0.2962
  296POPC   NC3 3974   4.164   8.682   4.049 -0.2251 -0.2193 -0.1585
  296POPC   PO4 3975   4.124   8.396   4.352 -0.0577  0.2225 -0.4722
  296POPC   GL1 3976   4.403   8.372   4.676  0.0242 -0.1445 -0.0638
  296POPC   GL2 3977   4.533   8.590   4.805  0.0659  0.1481  0.1310
  296POPC   C1A 3978   4.327   8.301   5.119 -0.2127 -0.3860  0.0035
  296POPC   D2A 3979   4.541   8.186   5.420  0.1414 -0.3383 -0.0125
  296POPC   C3A 3980   4.571   7.922   5.783  0.3797 -0.1666 -0.0755
  296POPC   C4A 3981   4.282   7.956   6.106  0.3765  0.1152  0.1840
  296POPC   C1B 3982   4.700   8.667   5.308  0.1710 -0.0752  0.0472
  296POPC   C2B 3983   4.670   8.929   5.697 -0.2464  0.0005 -0.0370
  296POPC   C3B 3984   4.387   9.027   6.058  0.0222 -0.2348 -0.0996
  296POPC   C4B 3985   4.231   8.954   6.338 -0.2226  0.1474  0.0054
  297POPC   NC3 3986   2.730   3.672   4.373  0.2712  0.0415  0.1114
  297POPC   PO4 3987   2.763   4.088   4.587 -0.1265  0.0446  0.3170
  297POPC   GL1 3988   2.853   4.203   4.939  0.0625 -0.1690  0.2620
  297POPC   GL2 3989   3.207   4.017   5.082 -0.2234 -0.4623 -0.0229
  297POPC   C1A 3990   2.840   4.325   5.427 -0.1274 -0.0680 -0.0982
  297POPC   D2A 3991   2.725   4.549   5.763  0.0283  0.1750 -0.1993
  297POPC   C3A 3992   2.262   4.528   5.877  0.1207  0.1927 -0.0179
  297POPC   C4A 3993   1.880   4.517   5.932 -0.3162  0.2368  0.0698
  297POPC   C1B 3994   3.234   3.804   5.439  0.0266 -0.1872  0.2597
  297POPC   C2B 3995   3.563   3.600   5.777  0.2608 -0.0512  0.0445
  297POPC   C3B 3996   3.701   3.363   6.139  0.0345 -0.1799 -0.0293
  297POPC   C4B 3997   3.483   3.145   6.448 -0.2436  0.2369 -0.0906
  298POPC   NC3 3998   3.770   8.760   4.479 -0.2346  0.2999 -0.2128
  298POPC   PO4 3999   3.396   8.833   4.770  0.0849 -0.0692 -0.0399
  298POPC   GL1 4000   3.480   8.689   5.102  0.0534 -0.0956  0.0439
  298POPC   GL2 4001   3.321   8.503   5.426 -0.0534 -0.0355  0.1033
  298POPC   C1A 4002   3.749   8.734   5.463  0.0525  0.0612  0.0042
  298POPC   D2A 4003   4.176   8.596   5.528  0.0130 -0.0358 -0.2386
  298POPC   C3A 4004   4.384   8.459   5.870  0.0202  0.1797 -0.0126
  298POPC   C4A 4005   4.832   8.294   5.885  0.1639 -0.2440 -0.1454
  298POPC   C1B 4006   3.355   8.514   5.906 -0.2150  0.1921  0.1284
  298POPC   C2B 4007   3.446   8.431   6.297  0.1855  0.0980  0.0713
  298POPC   C3B 4008   3.662   8.721   6.448 -0.2939  0.0059  0.0762
  298POPC   C4B 4009   3.844   8.942   6.691  0.1291  0.0884 -0.0185
  299POPC   NC3 4010   4.139   9.689   4.490  0.1674 -0.1088  0.1357
  299POPC   PO4 4011   3.917   9.264   4.466 -0.0827 -0.0913  0.2891
  299POPC   GL1 4012   3.835   9.023   4.890 -0.0120 -0.2514  0.1429
  299POPC   GL2 4013   4.017   8.716   5.018 -0.2579 -0.2524  0.1875
  299POPC   C1A 4014   4.004   9.163   5.391  0.2589 -0.0063 -0.2282
  299POPC   D2A 4015   3.994   9.084   5.744 -0.0511 -0.1069 -0.0073
  299POPC   C3A 4016   3.886   8.713   5.955 -0.0206  0.1496  0.1537
  299POPC   C4A 4017   3.974   8.362   6.159 -0.0770 -0.1552  0.1871
  299POPC   C1B 4018   4.304   8.989   5.089  0.2793 -0.2147  0.0524
  299POPC   C2B 4019   4.607   9.132   5.242 -0.2928  0.0338  0.1211
  299POPC   C3B 4020   4.839   9.417   5.207  0.1103  0.0263 -0.0327
  299POPC   C4B 4021   5.181   9.738   5.329 -0.1104  0.0823 -0.0574
  300POPC   NC3 4022   5.166   9.260   3.855 -0.0735 -0.0486 -0.2796
  300POPC   PO4 4023   4.789   9.287   4.111 -0.1502  0.2280 -0.2058
  300POPC   GL1 4024   5.135   9.214   4.411 -0.1468  0.0128  0.0357
  300POPC   GL2 4025   5.467   9.233   4.340 -0.0402  0.3884 -0.0758
  300POPC   C1A 4026   5.197   9.232   4.894  0.0844 -0.2079 -0.0209
  300POPC   D2A 4027   5.303   9.200   5.337 -0.0264 -0.3201  0.2550
  300POPC   C3A 4028   5.022   9.382   5.679  0.3693  0.1297  0.0613
  300POPC   C4A 4029   4.897   9.194   6.094  0.1895 -0.0289  0.1336
  300POPC   C1B 4030   5.709   9.025   4.609  0.0716 -0.0051  0.2277
  300POPC   C2B 4031   5.703   8.948   5.063 -0.2485 -0.0129  0.0752
  300POPC   C3B 4032   6.003   8.802   5.319  0.1571  0.2657 -0.4404
  300POPC   C4B 4033   6.033   8.415   5.472 -0.2101  0.0456  0.0543
  301POPC   NC3 4034   5.158   7.012   3.746  0.2035 -0.0375  0.3158
  301POPC   PO4 4035   4.896   6.829   4.057 -0.0802 -0.0672  0.0541
  301POPC   GL1 4036   4.950   6.726   4.477  0.1793 -0.1490  0.1711
  301POPC   GL2 4037   4.768   6.734   4.754  0.1006  0.4381  0.1827
  301POPC   C1A 4038   5.171   6.573   4.905  0.0399 -0.0910 -0.2790
  301POPC   D2A 4039   5.218   6.731   5.339  0.1418 -0.0898 -0.1274
  301POPC   C3A 4040   5.210   6.377   5.643 -0.0033 -0.0937  0.1672
  301POPC   C4A 4041   5.067   6.290   5.915  0.4621  0.0513 -0.1587
  301POPC   C1B 4042   5.016   7.109   4.855  0.1652 -0.1396 -0.1889
  301POPC   C2B 4043   5.172   7.482   4.738  0.0904 -0.0752  0.3023
  301POPC   C3B 4044   5.064   7.914   4.467 -0.0509  0.0660  0.0096
  301POPC   C4B 4045   4.842   8.304   4.382  0.2408 -0.1495 -0.1565
  302W        W 4046   3.054   0.793  11.926 -0.1341 -0.1040  0.1896
  303W        W 4047   3.639   7.894  10.960  0.0752 -0.0246  0.1917
  304W        W 4048   3.531   9.099   3.243  0.3687 -0.0559  0.0236
  305W        W 4049   4.751   2.875   0.132 -0.1882 -0.1942 -0.0949
  306W        W 4050   8.701   7.059   3.110 -0.2169  0.0811 -0.2087
  307W        W 4051   2.633   8.090   2.236 -0.2647 -0.0124  0.1289
  308W        W 4052   3.135   7.360   1.137  0.1883 -0.0585 -0.1498
  309W        W 4053   5.379   6.187  10.831 -0.2101 -0.2836  0.1873
  310W        W 4054   8.982   3.226  10.427 -0.1760  0.1381 -0.1604
  311W        W 4055   1.570   8.123   9.267 -0.0609  0.1652 -0.0480
  312W        W 4056   9.501   5.238   1.866 -0.0725  0.1261  0.0696
  313W        W 4057   0.551   9.291   1.358  0.0429 -0.2450 -0.0505
  314W        W 4058   8.827   3.386   3.004 -0.1482  0.1426  0.0092
  315W        W 4059   3.514   9.898   3.862 -0.2050 -0.1548 -0.0915
  316W        W 4060   1.072   2.661  10.447  0.0297 -0.2846 -0.1254
  317W        W 4061   1.539   6.927   2.508 -0.0606  0.1624  0.0224
  318W        W 4062   7.596   2.286   3.012 -0.0266 -0.0342  0.0715
  319W        W 4063   2.319   1.414   9.884 -0.1544 -0.1497  0.2154
  320W        W 4064   0.623   3.901   2.585  0.0488 -0.0768  0.0326
  321W        W 4065   2.123   3.958  11.616  0.5726  0.3685  0.0071
  322W        W 4066   8.834   6.729   4.297 -0.0830 -0.2612 -0.2518
  323W        W 4067   8.761   5.576   3.789  0.1805 -0.5023 -0.1014
  324W        W 4068   8.303   6.219   8.749  0.0315  0.1973  0.0960
  325W        W 4069   3.061   4.922  12.347  0.2466  0.0873  0.0692
  326W        W 4070   2.780   1.021   8.185 -0.0242 -0.4163 -0.1649
  327W        W 4071   2.462   9.102   5.347 -0.1973 -0.1231  0.0851
  328W        W 4072   1.519   6.161  10.728  0.0158  0.3230  0.3121
  329W        W 4073   2.024   8.334   4.846  0.0149 -0.2000  0.2572
  330W        W 4074   4.235   9.103   3.624 -0.1959 -0.1492 -0.2799
  331W        W 4075   2.423   6.351   0.351 -0.0034 -0.0440  0.1529
  332W        W 4076   6.095   2.512   1.453  0.1377  0.0967 -0.0626
  333W        W 4077   5.393   0.214   1.064  0.1261 -0.2543  0.1577
  334W        W 4078   6.603   0.245  10.136  0.1806  0.0610  0.1093
  335W        W 4079   6.713   3.151   1.367  0.4503 -0.1865  0.1909
  336W        W 4080   3.337   6.692   1.347 -0.1545  0.2198  0.2738
  337W        W 4081   3.259   3.505   8.307  0.0986  0.0679 -0.2138
  338W        W 4082   1.174   0.585  11.397 -0.1919  0.1220 -0.1117
  339W        W 4083   8.263   8.040   9.341  0.2760  0.0424 -0.1928
  340W        W 4084   7.549   1.308   9.527  0.2184  0.1586  0.1855
  341W        W 4085   1.116   6.209  11.126  0.1731  0.0099 -0.0719
  342W        W 4086   8.433   3.316   0.732  0.1609 -0.2223 -0.0888
  343W        W 4087   8.069   7.130   2.148 -0.0498 -0.0721  0.0188
  344W        W 4088   4.520   7.112   3.132 -0.0690 -0.1831  0.0589
  345W        W 4089   8.218   3.450   8.945  0.0030 -0.2854  0.1832
  346W        W 4090   1.305   5.092   0.282  0.1193  0.3909  0.1668
  347W        W 4091   2.236   9.201   2.081  0.1611  0.1222  0.0102
  348W        W 4092   2.834   8.757   1.120  0.0344  0.1315  0.2922
  349W        W 4093   1.826   0.749   9.005  0.1653 -0.0121  0.0917
  350W        W 4094   0.264   0.895  10.705  0.0748 -0.0632  0.0837
  351W        W 4095   0.993   6.206  10.614  0.1460 -0.3245 -0.5818
  352W        W 4096   3.571   2.688   8.456 -0.1441 -0.4686  0.3271
  353W        W 4097   4.291   7.524   9.627  0.3175  0.0053 -0.2504
  354W        W 4098   4.293   7.508   0.332 -0.1176  0.0510  0.2151
  355W        W 4099   6.574   9.096   9.437  0.2184 -0.2478  0.0041
  356W        W 4100   6.897   1.984   3.245  0.0630  0.2027 -0.1395
  357W        W 4101   0.314   0.102   3.691  0.0713 -0.1885 -0.0214
  358W        W 4102   8.213   3.694   1.454 -0.1285  0.0621 -0.2007
  359W        W 4103   7.535   6.119  12.400  0.1636 -0.0451 -0.1146
  360W        W 4104   0.952   6.893   3.601  0.1085 -0.2635  0.0204
  361W        W 4105   7.016   4.511  11.445  0.1952  0.0296 -0.2064
  362W        W 4106   8.328   3.573   3.004 -0.2591 -0.1510 -0.1474
  363W        W 4107   0.160   8.543  11.912 -0.0747  0.1251 -0.0121
  364W        W 4108   8.089   2.023  11.093  0.2496 -0.0038  0.0212
  365W        W 4109   8.532   4.102   3.588  0.1596 -0.0872 -0.0439
  366W        W 4110   9.135   4.527  11.784 -0.1480 -0.1085 -0.2462
  367W        W 4111   8.207   4.821   3.173 -0.2465  0.0635  0.3533
  368W        W 4112   1.973   2.716   1.016 -0.1364  0.3592  0.1118
  369W        W 4113   6.432   8.840  11.808  0.0034 -0.2056 -0.1413
  370W        W 4114   0.068   3.866   9.933 -0.0023  0.0744  0.0524
  371W        W 4115   6.073   3.888  12.490 -0.1324  0.1635 -0.1340
  372W        W 4116   8.431   6.241  12.090  0.1724  0.1066  0.0092
  373W        W 4117   3.237   4.722   8.307  0.0749  0.1790 -0.2573
  374W        W 4118   0.299   0.997   0.285 -0.3127  0.0884 -0.0224
  375W        W 4119   4.173   8.754  11.642  0.0574 -0.0501  0.2451
  376W        W 4120   2.792   1.137   2.703 -0.1779 -0.1514  0.2306
  377W        W 4121   4.339   0.283  12.354 -0.1612  0.2973 -0.1001
  378W        W 4122   5.877   3.143   2.092 -0.0446 -0.0715 -0.1286
  379W        W 4123   5.302   2.186   9.502 -0.0228 -0.0534 -0.0911
  380W        W 4124   6.706   0.904   2.947 -0.0685  0.1482 -0.1543
  381W        W 4125   7.904   2.706   2.838 -0.0855 -0.2347 -0.0973
  382W        W 4126   8.825   9.894   3.127 -0.0502  0.0889 -0.0402
  383W        W 4127   3.823   3.404  12.049 -0.1673  0.1521 -0.1804
  384W        W 4128   7.898   9.524   1.115  0.0986 -0.0231 -0.4508
  385W        W 4129   4.408   9.644   9.444 -0.1995 -0.0415  0.1323
  386W        W 4130   7.093   8.466  11.273  0.0348 -0.0922  0.1493
  387W        W 4131   4.089   1.121   3.628  0.0398 -0.1099 -0.0834
  388W        W 4132   5.200   7.728  10.145  0.0734 -0.0127  0.0226
  389W        W 4133   0.304   0.705   8.515  0.1934  0.1698  0.0716
  390W        W 4134   3.213   2.628   3.462  0.1148 -0.2665  0.2037
  391W        W 4135   0.537   3.842   0.852  0.0374 -0.3114  0.0211
  392W        W 4136   0.858   6.295   2.521 -0.1241 -0.1947  0.0413
  393W        W 4137   0.891   6.633   0.093  0.3441 -0.2386 -0.3599
  394W        W 4138   0.531   0.000   9.745 -0.0116  0.1901  0.1955
  395W        W 4139   7.086   8.374   2.820  0.0829  0.2463 -0.0036
  396W        W 4140   8.257   4.135   0.728 -0.3101  0.4189 -0.0324
  397W        W 4141   6.867   8.666   0.209 -0.1935 -0.4030 -0.1133
  398W        W 4142   2.208   0.015   0.718  0.1699 -0.1758  0.2640
  399W        W 4143   2.369   7.049  11.874 -0.1820  0.0527  0.1136
  400W        W 4144   7.354   4.353   2.409  0.0735  0.0545  0.0055
  401W        W 4145   7.538   2.519   3.873 -0.4178  0.0437  0.0536
  402W        W 4146   4.357   1.310  10.555 -0.0725 -0.0404  0.0631
  403W        W 4147   6.833   1.280   8.831 -0.0776 -0.1703  0.0987
  404W        W 4148   4.467   0.743   8.311 -0.5048  0.2015 -0.4216
  405W        W 4149   1.308   1.634   0.211  0.1010  0.0540  0.0791
  406W        W 4150   4.426   6.713  12.207 -0.0036  0.0805 -0.3866
  407W        W 4151   8.122   1.100   2.899  0.4703 -0.0044 -0.0233
  408W        W 4152   5.637   9.237   3.699 -0.0919 -0.1245 -0.2104
  409W        W 4153   5.627   1.788   9.824 -0.2374  0.1145 -0.0453
  410W        W 4154   3.201   6.141  12.367 -0.0214 -0.0669  0.0974
  411W        W 4155   2.724   5.479   2.542 -0.2286 -0.2411 -0.3419
  412W        W 4156   2.137   7.538   1.214 -0.1499 -0.2436 -0.0210
  413W        W 4157   0.857   0.036   2.528  0.0853  0.0281 -0.1856
  414W        W 4158   3.623   8.592   2.723 -0.3889 -0.1899  0.3066
  415W        W 4159   6.385   3.024  10.477 -0.1270 -0.0219  0.0078
  416W        W 4160   6.716   0.556   0.602 -0.0111  0.2023 -0.1072
  417W        W 4161   1.189   2.123   8.817  0.0776  0.2351 -0.1574
  418W        W 4162   8.634   3.142   3.392  0.0799 -0.0414 -0.1909
  419W        W 4163   6.261   4.349   1.587  0.1281  0.2567 -0.0446
  420W        W 4164   1.246   5.341  11.876  0.0712  0.0804 -0.3166
  421W        W 4165   9.112   1.391   2.063  0.1661  0.1240  0.2289
  422W        W 4166   2.466   8.196   0.256  0.1562  0.1817 -0.2514
  423W        W 4167   7.727   2.582   0.588  0.3458 -0.0772  0.0604
  424W        W 4168   5.564   9.318   2.461 -0.0459 -0.1971 -0.1012
  425W        W 4169   4.246   9.897  12.740 -0.2334 -0.0163  0.1104
  426W        W 4170   7.506   2.188   0.854  0.0365 -0.0825  0.2019
  427W        W 4171   4.126   6.028   1.293 -0.1643  0.0340  0.0657
  428W        W 4172   9.585   4.991   8.578  0.1523 -0.0685  0.2880
  429W        W 4173   0.623   7.592   1.035 -0.1666  0.1850 -0.1283
  430W        W 4174   4.320   1.371   1.792  0.2158  0.1346  0.1187
  431W        W 4175   1.564   5.086   3.426 -0.1404 -0.0230  0.1197
  432W        W 4176   0.894   4.703   0.042  0.0043  0.0677  0.0079
  433W        W 4177   6.584   5.460  11.460  0.0916 -0.0159  0.2941
  434W        W 4178   1.384   6.978   8.838  0.0279 -0.1462  0.0887
  435W        W 4179   0.267   6.470   8.492  0.3238 -0.3388  0.3621
  436W        W 4180   7.285   6.005   0.468  0.3973 -0.1002 -0.1084
  437W        W 4181   8.797   4.172   9.468  0.0492  0.2463  0.1363
  438W        W 4182   2.843   6.866  11.049  0.1676  0.0770 -0.3916
  439W        W 4183   1.454   8.698   2.183 -0.0810 -0.0529 -0.2700
  440W        W 4184   8.319   2.583   4.320 -0.1776  0.2675  0.0020
  441W        W 4185   4.448   0.615   2.650 -0.1310 -0.1867 -0.0524
  442W        W 4186   1.269   8.457  11.003  0.0346 -0.1956 -0.0333
  443W        W 4187   4.814   1.509   8.651  0.0321 -0.0429 -0.0606
  444W        W 4188   1.372   5.603   9.931  0.1853 -0.2049  0.0773
  445W        W 4189   4.847   4.157   7.966 -0.1449  0.0329  0.2389
  446W        W 4190   1.353   9.358   9.276  0.2710 -0.1220 -0.4565
  447W        W 4191   3.718   2.888  10.541  0.3255 -0.1445 -0.0906
  448W        W 4192   2.980   0.434  12.834 -0.0024  0.0037  0.0695
  449W        W 4193   2.139   4.161  12.810  0.1053 -0.1451  0.0649
  450W        W 4194   5.952   5.090  11.656  0.4807 -0.1524  0.0941
  451W        W 4195   5.639   4.638   2.672  0.0793 -0.3601 -0.1162
  452W        W 4196   0.512   9.299  11.985 -0.1684  0.1445  0.1779
  453W        W 4197   8.668   0.266  11.398 -0.1925  0.0391  0.0095
  454W        W 4198   4.683   8.757   4.261  0.0538  0.0463  0.0194
  455W        W 4199   0.460   2.409   4.121 -0.0620 -0.4961 -0.3118
  456W        W 4200   7.518   9.140   9.840  0.0236  0.1683 -0.2309
  457W        W 4201   7.716   3.705   8.750  0.0167 -0.0141 -0.4396
  458W        W 4202   6.154   7.394   0.627 -0.1130 -0.2110  0.0582
  459W        W 4203   0.309   7.961  10.100  0.0190  0.0712 -0.0755
  460W        W 4204   0.486   6.029   2.784 -0.1651 -0.1199  0.2383
  461W        W 4205   1.456   5.284   1.085 -0.2919  0.0657 -0.0659
  462W        W 4206   9.047   4.930   0.099  0.2684 -0.2083  0.1524
  463W        W 4207   1.395   0.700  10.884 -0.0084  0.0819 -0.3091
  464W        W 4208   4.974   9.855   2.204  0.0225  0.4089  0.0714
  465W        W 4209   1.882   9.140   1.737 -0.2148  0.1743  0.2858
  466W        W 4210   3.263   2.250   1.927 -0.0944  0.1341  0.0014
  467W        W 4211   9.249   9.873   8.897 -0.1685 -0.3074  0.0828
  468W        W 4212   7.644   1.477   1.489  0.1168  0.1767 -0.0372
  469W        W 4213   5.155   4.795   0.841  0.4567 -0.0039 -0.0620
  470W        W 4214   4.293   9.195   2.698 -0.0647 -0.3696  0.1922
  471W        W 4215   1.142   0.516  10.017  0.3030 -0.0558  0.0111
  472W        W 4216   6.409   1.095   2.512 -0.1697 -0.0744  0.0518
  473W        W 4217   9.037   9.424   9.075 -0.2099 -0.3508  0.2910
  474W        W 4218   3.186   2.620   7.716  0.0033  0.0520 -0.0810
  475W        W 4219   1.927   6.109   1.748  0.1376 -0.0156  0.0358
  476W        W 4220   6.788   9.514   0.800 -0.0538  0.2534 -0.3446
  477W        W 4221   5.587   9.912   2.024  0.1012  0.1285 -0.0521
  478W        W 4222   2.011   5.363   9.103  0.2397 -0.3181  0.4439
  479W        W 4223   0.448   0.947   2.795  0.2035 -0.0770 -0.3067
  480W        W 4224   7.827   4.922  10.324  0.1071 -0.1070 -0.1959
  481W        W 4225   8.503   7.498   2.223  0.1402 -0.3176 -0.0921
  482W        W 4226   1.495   5.749   0.757 -0.0392 -0.2489  0.0953
  483W        W 4227   3.465   4.976  11.146  0.1976 -0.2262 -0.2010
  484W        W 4228   7.223   5.144   0.158 -0.0030  0.0698 -0.0808
  485W        W 4229   2.204   3.620   1.099  0.0160  0.0391 -0.1154
  486W        W 4230   7.304   1.943   1.265  0.0581  0.2279 -0.1985
  487W        W 4231   8.403   5.929   2.710 -0.1630  0.1481  0.1876
  488W        W 4232   5.271   4.977  12.449 -0.0019 -0.0359  0.1791
  489W        W 4233   9.167   7.682  11.097 -0.0062  0.1696  0.2353
  490W        W 4234   1.140   5.033   1.896  0.0831 -0.0541 -0.2327
  491W        W 4235   3.101   6.884  12.826 -0.0915  0.2533 -0.0763
  492W        W 4236   1.019   7.249   0.939 -0.1203 -0.0960  0.1981
  493W        W 4237   1.982   1.078  11.233 -0.1109  0.4300  0.0044
  494W        W 4238   2.791   9.300   9.539 -0.2170 -0.0433 -0.2060
  495W        W 4239   6.652   1.217  10.539  0.0110  0.2983 -0.2381
  496W        W 4240   1.020   5.999   3.034  0.1624 -0.1382  0.0436
  497W        W 4241   0.704   7.955   2.655  0.2271 -0.2329  0.1735
  498W        W 4242   5.187   4.234   4.338 -0.1220 -0.0144 -0.0167
  499W        W 4243   7.776   3.591   0.536  0.0453 -0.2321 -0.1046
  500W        W 4244   7.836   3.601   9.226 -0.1187  0.2059  0.0065
  501W        W 4245   8.043   8.250   3.004  0.1606 -0.1168  0.0093
  502W        W 4246   2.250   7.170   2.556  0.0655  0.2811 -0.1872
  503W        W 4247   6.960   0.850  10.764 -0.0389  0.0622  0.1030
  504W        W 4248   6.511   9.019   2.839 -0.1352 -0.0264 -0.0059
  505W        W 4249   3.869   2.199   0.490  0.0707 -0.0649 -0.0355
  506W        W 4250   6.511   6.496   2.863  0.0990  0.0445 -0.0096
  507W        W 4251   0.523   1.248   3.206 -0.0522  0.3677  0.1232
  508W        W 4252   5.083   6.898  11.333 -0.2224  0.2273 -0.1450
  509W        W 4253   2.314   9.711  10.094 -0.2282 -0.0073 -0.2830
  510W        W 4254   2.726   1.898   4.984  0.0932 -0.3869 -0.0390
  511W        W 4255   2.519   7.546   3.410 -0.3279  0.1489  0.1237
  512W        W 4256   1.098   9.048   2.325 -0.0682 -0.0968  0.1544
  513W        W 4257   6.777   3.328  12.672 -0.1078 -0.0141  0.0918
  514W        W 4258   9.649   4.417   9.191  0.1253  0.1753 -0.1807
  515W        W 4259   1.432   4.095  10.050  0.0469  0.1102 -0.2020
  516W        W 4260   1.432   8.903   2.671  0.0614  0.1630 -0.1070
  517W        W 4261   0.610   2.292  12.113 -0.3097 -0.1634 -0.0078
  518W        W 4262   6.542   3.880   0.956  0.1849 -0.4463 -0.0029
  519W        W 4263   8.186   4.224  12.127 -0.0775 -0.0069  0.0208
  520W        W 4264   0.469   3.805   5.108 -0.1574 -0.0254 -0.0647
  521W        W 4265   9.246   9.022  12.093  0.2770 -0.1319 -0.2191
  522W        W 4266   7.179   7.131   2.805  0.0587  0.1365  0.0637
  523W        W 4267   0.612   4.252  12.750  0.1089 -0.1815  0.2888
  524W        W 4268   5.857   3.767  10.037 -0.1086  0.0736 -0.1148
  525W        W 4269   4.808   1.164   1.840 -0.1957  0.0203 -0.1063
  526W        W 4270   0.718   4.279   1.240  0.0903 -0.0598 -0.3361
  527W        W 4271   7.889   1.034  12.354 -0.1897 -0.2305 -0.1388
  528W        W 4272   2.675   7.542  12.073  0.3950 -0.1693 -0.0018
  529W        W 4273   2.657   5.906  10.246  0.0569  0.1525 -0.0043
  530W        W 4274   6.427   2.468  10.346  0.2496  0.1007 -0.0091
  531W        W 4275   5.573   7.775   9.365  0.2111  0.1667  0.2374
  532W        W 4276   5.380   2.104   0.243  0.1118  0.3094 -0.0895
  533W        W 4277   0.866   0.376   4.324 -0.0293  0.2055 -0.0090
  534W        W 4278   5.945   1.154   1.134  0.2196  0.5839 -0.0774
  535W        W 4279   0.766   7.023   1.781  0.0999 -0.1021 -0.2216
  536W        W 4280   1.423   8.740   4.280  0.1698  0.2437  0.0855
  537W        W 4281   4.181   5.500  11.230  0.0472  0.0194  0.4060
  538W        W 4282   5.628   3.751  11.157  0.2212  0.1267  0.1367
  539W        W 4283   8.856   3.077   1.348 -0.2965 -0.1995  0.2423
  540W        W 4284   2.893   2.553   2.070 -0.0043  0.1838  0.0994
  541W        W 4285   5.972   8.116   9.375  0.1958 -0.2544 -0.0166
  542W        W 4286   7.041   0.605   3.457  0.1626 -0.0538 -0.0722
  543W        W 4287   3.923   0.324  12.656 -0.0473 -0.1588  0.2113
  544W        W 4288   5.085   5.537   0.206  0.1642 -0.1373  0.0110
  545W        W 4289   1.177   7.932   2.902  0.1716  0.3213 -0.1564
  546W        W 4290   3.054   7.859  10.071  0.0786  0.2174  0.0824
  547W        W 4291   2.636   6.192  12.294 -0.0307 -0.0122  0.2681
  548W        W 4292   0.390   6.130   0.512  0.0066  0.0902  0.1633
  549W        W 4293   9.387   2.071   2.752  0.2218 -0.0279 -0.0898
  550W        W 4294   7.111   8.675   2.331 -0.1553  0.0036 -0.0227
  551W        W 4295   1.752   1.815  10.611  0.2059  0.1244  0.1799
  552W        W 4296   2.626   1.559   1.948  0.0091 -0.2288  0.0970
  553W        W 4297   1.165   4.539   3.995 -0.0045  0.0846  0.1963
  554W        W 4298   7.765   0.251   4.773  0.1010  0.0037  0.1212
  555W        W 4299   3.538   5.243  10.197  0.1695  0.1232 -0.0345
  556W        W 4300   3.842   1.724  12.741 -0.1131  0.2393  0.3018
  557W        W 4301   0.720   7.692  10.659  0.4110 -0.2147 -0.1330
  558W        W 4302   4.962   7.027   1.015 -0.0186  0.1570 -0.1507
  559W        W 4303   3.155   8.970  12.860  0.2411  0.0005 -0.0211
  560W        W 4304   6.400   7.472  10.786  0.3448 -0.1381 -0.0709
  561W        W 4305   3.400   0.675   9.286 -0.4037  0.0572  0.1876
  562W        W 4306   9.436   4.380   0.882 -0.0578 -0.2184 -0.0084
  563W        W 4307   4.523   5.927   0.939  0.2073 -0.0651  0.1325
  564W        W 4308   1.244   1.573  12.565 -0.2005 -0.1074 -0.1575
  565W        W 4309   9.682   5.707  10.357  0.1043  0.0497 -0.3597
  566W        W 4310   8.043   8.697   1.827  0.0909 -0.0285  0.1709
  567W        W 4311   2.606   1.969   2.519  0.0055 -0.1226  0.2758
  568W        W 4312   1.056   0.085   4.717  0.0430  0.2135 -0.0664
  569W        W 4313   3.030   4.260  11.224  0.0247 -0.3034 -0.1535
  570W        W 4314   0.315   8.707  10.256  0.2099 -0.1342 -0.1233
  571W        W 4315   1.060   4.128   9.332  0.0900 -0.0674 -0.0296
  572W        W 4316   8.384   1.669  11.745  0.0066  0.2675  0.2422
  573W        W 4317   1.343   6.603   0.990 -0.1440  0.0308 -0.1296
  574W        W 4318   0.820   8.141   3.970  0.0521 -0.1318 -0.0873
  575W        W 4319   1.274   6.801   4.192  0.2957 -0.1422 -0.0088
  576W        W 4320   4.382   6.371   4.251  0.1040 -0.0231 -0.1635
  577W        W 4321   7.279   8.437   0.428 -0.0241 -0.0246 -0.3880
  578W        W 4322   7.282   2.285   2.656  0.2427 -0.2513 -0.0877
  579W        W 4323   0.805   3.666   1.723  0.0739  0.2182 -0.1006
  580W        W 4324   3.662   6.756   0.032  0.2314  0.0937 -0.1950
  581W        W 4325   3.161   9.148  11.330 -0.4503 -0.1803  0.0356
  582W        W 4326   6.649   8.538  12.257 -0.0511  0.2100  0.0027
  583W        W 4327   1.231   5.751  10.427  0.1734  0.0901  0.1429
  584W        W 4328   5.383   3.120  10.402 -0.0271 -0.1101 -0.4927
  585W        W 4329   7.839   0.524  11.077  0.5481  0.0278 -0.0926
  586W        W 4330   5.491   3.807   2.914 -0.1325  0.2371 -0.0636
  587W        W 4331   3.145   0.608  11.394  0.0083  0.1663  0.0094
  588W        W 4332   3.751   6.266   2.251 -0.1437  0.4164  0.2806
  589W        W 4333   5.184   0.823  12.244  0.1921 -0.1441  0.0482
  590W        W 4334   3.894   8.303  12.621  0.0274 -0.0949 -0.2688
  591W        W 4335   5.770   9.363   9.844 -0.2286  0.1979 -0.2178
  592W        W 4336   3.686   8.156   4.351 -0.1982  0.0440  0.1716
  593W        W 4337   9.138   4.948  12.076  0.1746  0.0365 -0.2333
  594W        W 4338   1.890   2.068   4.539 -0.2279  0.1771 -0.0581
  595W        W 4339   8.845   2.237  11.028  0.2277 -0.1217  0.1445
  596W        W 4340   0.933   6.384   4.321  0.1070  0.1175 -0.1335
  597W        W 4341   4.239   1.864  12.482  0.0306  0.1954 -0.1347
  598W        W 4342   8.704   0.615   2.061  0.4084  0.0795 -0.1173
  599W        W 4343   5.915   4.975   2.179  0.4180  0.0651 -0.1232
  600W        W 4344   0.376   7.850   9.619  0.0229 -0.0638 -0.4603
  601W        W 4345   2.235   5.443  11.637 -0.0642  0.3688 -0.2344
  602W        W 4346   2.088   3.640   1.770 -0.1585 -0.1986  0.4206
  603W        W 4347   3.785   8.896  11.943 -0.3081  0.0275 -0.0693
  604W        W 4348   1.373   3.084   9.916 -0.3077  0.0203  0.1005
  605W        W 4349   9.067   2.863  11.100  0.1918 -0.0294  0.2044
  606W        W 4350   5.279   4.123  11.461 -0.4275 -0.1280 -0.0381
  607W        W 4351   6.861   1.335  12.546  0.0817 -0.0085 -0.0566
  608W        W 4352   1.612   7.535  10.618  0.3212 -0.1150  0.1041
  609W        W 4353   2.721   1.310   9.108 -0.0568  0.1838 -0.1917
  610W        W 4354   3.865   4.187   2.832  0.1171 -0.1311 -0.0804
  611W        W 4355   0.320   6.280   1.365  0.4496  0.3274  0.0492
  612W        W 4356   9.568   7.631   9.064 -0.0809  0.1300  0.1151
  613W        W 4357   2.439   5.462   8.830  0.1337 -0.2975  0.2137
  614W        W 4358   3.599   2.004   8.615  0.1467 -0.1027 -0.3301
  615W        W 4359   7.177   3.064   1.238  0.1697  0.0019  0.0294
  616W        W 4360   0.032   1.028   3.273  0.0575  0.1869  0.0878
  617W        W 4361   4.406   3.865   3.823 -0.1478  0.0637 -0.2119
  618W        W 4362   7.803   3.240   2.800  0.2352 -0.2488 -0.2808
  619W        W 4363   6.104   3.141   2.592 -0.2057 -0.2008  0.4151
  620W        W 4364   1.732   0.620   8.537  0.1837 -0.0320 -0.1036
  621W        W 4365   4.483   2.883  11.276  0.0059  0.2818 -0.1359
  622W        W 4366   2.982   0.932   1.349 -0.0694  0.1478 -0.0905
  623W        W 4367   9.299   0.494   4.531  0.0824  0.2612  0.0883
  624W        W 4368   5.891   7.197   1.142 -0.0089  0.3290  0.2822
  625W        W 4369   9.880   0.173   0.336 -0.6911 -0.2147 -0.0540
  626W        W 4370   3.423   0.530   3.504 -0.2439  0.3190  0.2503
  627W        W 4371   0.863   8.652   2.651  0.1800  0.1032 -0.0960
  628W        W 4372   5.059   6.399   2.712  0.3024  0.3123 -0.2850
  629W        W 4373   3.395   5.308   3.246  0.0872  0.2803 -0.1354
  630W        W 4374   8.371   6.438   0.881  0.1980 -0.1803  0.1959
  631W        W 4375   9.892   8.684   1.596 -0.1008  0.2106 -0.1141
  632W        W 4376   2.162   0.912   1.330  0.0868 -0.0041  0.0078
  633W        W 4377   1.437   5.052   8.566  0.2958 -0.0586  0.0597
  634W        W 4378   8.519   3.945   9.881  0.0066  0.1315 -0.1125
  635W        W 4379   4.799   7.649   9.767  0.2459  0.0739 -0.0420
  636W        W 4380   9.378   9.252  10.550  0.1401  0.2329  0.3222
  637W        W 4381   1.255   8.082   0.379 -0.0455 -0.1439  0.0277
  638W        W 4382   7.396   0.171   4.371 -0.1495 -0.3178 -0.1045
  639W        W 4383   9.004   3.512  11.835 -0.0229 -0.0143  0.0233
  640W        W 4384   9.823   6.735   3.440 -0.0149  0.1606 -0.0646
  641W        W 4385   4.520   7.514   2.488 -0.1028  0.3399 -0.2719
  642W        W 4386   8.598   9.048   2.653 -0.2951 -0.2337 -0.1982
  643W        W 4387   3.736   5.935   0.054  0.1904  0.3131  0.2487
  644W        W 4388   3.986   5.483  12.231 -0.2315 -0.0847  0.0914
  645W        W 4389   7.160   5.150  10.809 -0.6988  0.0533 -0.2164
  646W        W 4390   2.712   6.409   2.100  0.0048 -0.0634 -0.0365
  647W        W 4391   1.758   8.586   0.853  0.0199 -0.2876  0.4231
  648W        W 4392   9.350   3.261  12.622  0.1276  0.2918  0.1795
  649W        W 4393   6.183   2.933  10.045 -0.0187  0.1217  0.1152
  650W        W 4394   9.729   9.220  10.179  0.0479  0.0901  0.2399
  651W        W 4395   0.442   5.844   4.569  0.2786 -0.1643  0.0409
  652W        W 4396   4.146   8.720  10.799 -0.1615  0.0033  0.2925
  653W        W 4397   1.832   9.794  10.158 -0.1120 -0.0541  0.1084
  654W        W 4398   9.910   9.227   0.514  0.0323 -0.0830  0.0081
  655W        W 4399   1.771   1.360   0.417 -0.0115 -0.1900 -0.2475
  656W        W 4400   6.159   5.566   0.967 -0.0844  0.0768  0.1001
  657W        W 4401   7.465   4.065  10.729  0.0763 -0.1558 -0.2369
  658W        W 4402   2.775   0.035   0.121 -0.2689  0.3758  0.0393
  659W        W 4403   3.292   6.006  11.165 -0.1195 -0.1075 -0.1660
  660W        W 4404   5.324   6.063  12.413 -0.0163 -0.0675 -0.2042
  661W        W 4405   6.976   8.382   3.327  0.0885  0.0608 -0.0279
  662W        W 4406   8.716   1.832   2.657 -0.0388  0.1390  0.1346
  663W        W 4407   8.972   1.156   3.364 -0.1780  0.1795 -0.0173
  664W        W 4408   9.313   4.191  10.547  0.3227 -0.1696 -0.3849
  665W        W 4409   6.631   2.838   2.060 -0.0701 -0.0117 -0.2752
  666W        W 4410   2.282   0.930   3.419 -0.2277  0.3814  0.3923
  667W        W 4411   0.291   9.608   0.095  0.1203  0.1680 -0.0961
  668W        W 4412   5.990   9.614   2.213  0.2535  0.1812 -0.0803
  669W        W 4413   8.051   7.122   0.858  0.2010 -0.1699 -0.0720
  670W        W 4414   5.970   5.151   2.662  0.1262  0.2365  0.2396
  671W        W 4415   1.194   0.893   2.359  0.0670 -0.2392  0.0869
  672W        W 4416   8.048   2.293   9.523 -0.1075 -0.1629  0.1050
  673W        W 4417   0.280   2.528   3.621  0.3036  0.2148  0.1548
  674W        W 4418   2.075   1.104  10.680  0.0864  0.2158  0.0605
  675W        W 4419   9.115   3.303   1.700  0.0751  0.0325 -0.2751
  676W        W 4420   0.554   4.888  11.921 -0.1009 -0.2014  0.0265
  677W        W 4421   4.130   5.637  11.751  0.4329 -0.2060  0.1845
  678W        W 4422   9.728   6.954   3.900 -0.0767  0.0015 -0.3272
  679W        W 4423   8.923   3.007   0.546  0.1569 -0.1487  0.0300
  680W        W 4424   6.481   5.680   0.620  0.1298  0.3435  0.2139
  681W        W 4425   7.853   9.239  11.615  0.0561  0.0292 -0.2214
  682W        W 4426   6.904   8.116   0.270  0.0680  0.0915  0.3283
  683W        W 4427   6.144   4.588  11.945 -0.0007  0.1118 -0.0784
  684W        W 4428   3.266   1.748  12.863 -0.2002 -0.2402 -0.1257
  685W        W 4429   5.229   3.541   0.879  0.1923 -0.1054  0.1930
  686W        W 4430   7.674   1.620  11.808 -0.1969  0.0678  0.2136
  687W        W 4431   0.240   4.841   4.942  0.1996 -0.1921  0.0680
  688W        W 4432   0.975   9.528   2.223  0.2294 -0.1393  0.0735
  689W        W 4433   4.548   9.398   1.100 -0.1083 -0.1057  0.0168
  690W        W 4434   3.731   6.338   9.284 -0.0068 -0.0460  0.3058
  691W        W 4435   5.949   3.839   8.767 -0.3312 -0.1945  0.2003
  692W        W 4436   5.410   0.709   9.750 -0.1799 -0.0559 -0.3029
  693W        W 4437   1.451   9.512   4.553 -0.4816  0.2630  0.0431
  694W        W 4438   8.510   8.712  10.931 -0.0444 -0.2689 -0.2804
  695W        W 4439   3.111   1.992   2.913  0.0380 -0.2036 -0.0181
  696W        W 4440   5.456   0.116   0.444  0.1663 -0.1489  0.4166
  697W        W 4441   0.034   9.893  11.221 -0.0571 -0.2899 -0.2835
  698W        W 4442   8.778   5.127   4.602  0.2799  0.4702 -0.2369
  699W        W 4443   9.593   4.176   9.857  0.0822 -0.2770 -0.0686
  700W        W 4444   3.568   8.551  10.321  0.1806 -0.0501 -0.3865
  701W        W 4445   0.683   8.204  10.437  0.2220  0.4166 -0.0748
  702W        W 4446   5.017   4.025  10.417  0.1498  0.1181  0.1828
  703W        W 4447   8.145   6.765   1.182  0.1756  0.2029 -0.3045
  704W        W 4448   2.032   5.578   4.382  0.1476  0.2102  0.2400
  705W        W 4449   1.843   6.778   9.049 -0.1163  0.1018  0.1006
  706W        W 4450   4.371   1.168   2.580 -0.1677 -0.0379  0.2085
  707W        W 4451   8.665   0.818   3.919 -0.0265  0.0016  0.5015
  708W        W 4452   8.173   1.465   8.819  0.3890  0.0378 -0.0783
  709W        W 4453   6.633   6.348   1.692 -0.3795  0.0830 -0.2372
  710W        W 4454   5.008   8.753  11.679  0.0142 -0.1274  0.0490
  711W        W 4455   8.824   5.462  11.554  0.0245 -0.2415  0.2036
  712W        W 4456   2.239   6.906   0.421 -0.0666 -0.0144 -0.0442
  713W        W 4457   5.315   4.127   3.848  0.0586 -0.1203 -0.1353
  714W        W 4458   2.760   2.036   1.996 -0.1482 -0.2113 -0.2192
  715W        W 4459   0.245   3.076   9.263 -0.0450  0.0648  0.1309
  716W        W 4460   7.527   1.967   3.431  0.6630 -0.0940  0.1704
  717W        W 4461   0.356   7.619   3.589 -0.2532 -0.0794 -0.0281
  718W        W 4462   8.059   0.521   0.445  0.0996 -0.1177  0.3030
  719W        W 4463   9.603   3.095   9.615 -0.0051  0.0745 -0.0827
  720W        W 4464   6.896   3.492   1.012 -0.1024  0.1479 -0.0505
  721W        W 4465   5.049   0.607   0.816 -0.0482  0.1408 -0.0585
  722W        W 4466   3.713   7.542   2.898  0.1095  0.0146  0.2614
  723W        W 4467   0.101   0.104  12.219  0.0392  0.0802  0.1823
  724W        W 4468   3.334   3.645   8.800 -0.1891 -0.1670  0.1475
  725W        W 4469   8.859   0.977   1.263  0.0141  0.0203 -0.0330
  726W        W 4470   1.536   2.470  10.553  0.0646  0.2639 -0.2197
  727W        W 4471   2.181   0.502   0.548  0.3196 -0.0759  0.1797
  728W        W 4472   9.541   7.841   0.681 -0.1867 -0.2016  0.1371
  729W        W 4473   4.660   0.577   4.106  0.1237 -0.0581  0.1787
  730W        W 4474   6.055   2.247   3.168  0.0163 -0.1009 -0.0237
  731W        W 4475   1.476   7.377   9.662  0.1476 -0.0792  0.1023
  732W        W 4476   9.777   3.849   0.314  0.2987 -0.2743 -0.2182
  733W        W 4477   4.925   5.050   1.238 -0.1408 -0.1748 -0.0438
  734W        W 4478   2.260   5.052  12.384  0.0579  0.1518  0.3517
  735W        W 4479   8.219   1.797   2.168  0.2909 -0.1396 -0.3607
  736W        W 4480   1.751   8.036  10.632 -0.0723  0.1709  0.0109
  737W        W 4481   5.450   8.171   2.274 -0.0295 -0.2242 -0.2096
  738W        W 4482   1.729   7.043   0.402  0.2385  0.0439  0.0310
  739W        W 4483   8.091   3.735  10.484  0.0324 -0.0248  0.0238
  740W        W 4484   6.615   1.548  12.071  0.1846 -0.0797  0.0769
  741W        W 4485   4.163   5.793   2.515 -0.0196 -0.1775 -0.1342
  742W        W 4486   3.509   6.069   3.739  0.2532  0.1146  0.0579
  743W        W 4487   7.587   0.569   0.822  0.2337  0.2291  0.1307
  744W        W 4488   6.135   4.078  10.370  0.0881  0.1767  0.0917
  745W        W 4489   3.747   6.260  12.512  0.1528 -0.1616  0.1819
  746W        W 4490   7.395   8.194   1.066 -0.1711 -0.0520 -0.1862
  747W        W 4491   2.854   8.227   1.157  0.3135 -0.0604 -0.1688
  748W        W 4492   2.688   1.435  10.192 -0.1851 -0.2711  0.1506
  749W        W 4493   0.583   9.054  11.256 -0.2424  0.1038  0.2429
  750W        W 4494   2.150   1.524  10.924 -0.0566 -0.2644 -0.1196
  751W        W 4495   6.539   0.701   3.416 -0.0608 -0.0949  0.0026
  752W        W 4496   8.513   0.738   3.434 -0.1019 -0.2566 -0.0718
  753W        W 4497   9.703   5.560   2.859 -0.0538  0.2246 -0.0110
  754W        W 4498   5.126   8.785   0.803 -0.1895 -0.1882 -0.2447
  755W        W 4499   0.487   2.103   4.597 -0.1264  0.1838 -0.1184
  756W        W 4500   1.100   6.903  10.207  0.3240 -0.0324 -0.3275
  757W        W 4501   4.446   1.524  11.501  0.2010 -0.2338  0.0059
  758W        W 4502   4.859   8.053   0.136 -0.0793  0.2181  0.4255
  759W        W 4503   6.516   2.991  12.323 -0.2850 -0.1635  0.1585
  760W        W 4504   8.891   2.078  12.292  0.2679  0.2038  0.0682
  761W        W 4505   5.462   8.115   1.768  0.0854  0.1818  0.2980
  762W        W 4506   4.631   4.475   2.388  0.0943 -0.3426  0.0688
  763W        W 4507   5.826   0.587   2.827  0.3016 -0.0887  0.2162
  764W        W 4508   1.032   5.009  11.579  0.0005  0.0510  0.1483
  765W        W 4509   0.877   8.752  10.339  0.2439  0.0083  0.2119
  766W        W 4510   5.138   0.071   3.737 -0.0379  0.1490 -0.0172
  767W        W 4511   8.154   8.280  12.674  0.0231 -0.1589  0.0776
  768W        W 4512   6.126   4.803   3.556 -0.0003 -0.1728 -0.0160
  769W        W 4513   2.727   6.598   3.180 -0.1245 -0.1014 -0.0488
  770W        W 4514   4.535   1.205   9.981 -0.1137  0.1087  0.2866
  771W        W 4515   4.659   8.035   1.377 -0.0375  0.0039 -0.0779
  772W        W 4516   4.048   8.789   9.541  0.0174 -0.1491 -0.1503
  773W        W 4517   3.519   2.644   0.249  0.3611 -0.2005 -0.0413
  774W        W 4518   5.642   5.331  12.403  0.0011  0.1604  0.0063
  775W        W 4519   4.712   1.663   1.938 -0.1274  0.2437  0.1125
  776W        W 4520   9.821   3.324   2.027  0.2472 -0.1378 -0.4669
  777W        W 4521   9.357   8.585   1.679 -0.0739  0.2225  0.2800
  778W        W 4522   4.651   5.418   2.061  0.4556  0.0005  0.1169
  779W        W 4523   9.390   9.671   1.171 -0.0704  0.0462  0.2799
  780W        W 4524   3.736   7.041   0.537  0.2128 -0.0239 -0.0323
  781W        W 4525   1.189   1.111  10.677 -0.0423  0.3171 -0.1274
  782W        W 4526   1.925   7.319   1.723 -0.0219  0.0387 -0.2932
  783W        W 4527   6.239   0.670  12.106 -0.0389 -0.0527  0.0413
  784W        W 4528   1.919   0.040   2.238 -0.0174  0.3362 -0.2535
  785W        W 4529   3.890   8.049   0.168  0.1056 -0.2291  0.4062
  786W        W 4530   2.274   1.004  12.333 -0.0226  0.1479 -0.1810
  787W        W 4531   7.603   6.991   1.850  0.0637  0.0515  0.2094
  788W        W 4532   2.557   3.178  10.763  0.0637 -0.4920 -0.0944
  789W        W 4533   8.409   5.747   4.266  0.0615 -0.3425 -0.2388
  790W        W 4534   7.298   0.614  12.751 -0.0781  0.0616  0.0325
  791W        W 4535   2.268   2.629   9.369  0.0577 -0.0877 -0.4406
  792W        W 4536   8.628   1.881   0.932  0.2197  0.2667  0.0965
  793W        W 4537   7.696   9.655  12.468  0.1000  0.0648 -0.0730
  794W        W 4538   6.312   8.904   1.754  0.1351 -0.0927  0.2183
  795W        W 4539   6.728   0.428  10.676 -0.2171 -0.1762  0.1407
  796W        W 4540   4.057   2.996   1.036 -0.2034  0.1680 -0.2627
  797W        W 4541   4.476   2.113   1.865 -0.0315  0.0466  0.1255
  798W        W 4542   6.572   2.598   9.193 -0.0567  0.0689 -0.1153
  799W        W 4543   3.617   9.662   9.360  0.1531  0.0159  0.2232
  800W        W 4544   0.183   0.669  11.455 -0.0622 -0.0190 -0.1741
  801W        W 4545   1.085   6.618   9.780  0.3058 -0.2281  0.1837
  802W        W 4546   6.446   5.290   3.504  0.2928 -0.3792  0.0046
  803W        W 4547   1.561   7.302   9.158  0.0611 -0.0340 -0.1821
  804W        W 4548   1.905   4.333  10.364 -0.0458 -0.1504 -0.2683
  805W        W 4549   6.420   9.883   4.347  0.1846 -0.1236  0.0923
  806W        W 4550   6.288   0.278   9.732 -0.2453 -0.0616  0.2090
  807W        W 4551   5.706   4.434   2.228  0.1206  0.0410 -0.4117
  808W        W 4552   1.153   9.130   4.449 -0.2507  0.0099 -0.0097
  809W        W 4553   8.481   5.116   2.470  0.6374 -0.0875 -0.2231
  810W        W 4554   2.943   7.448   4.766  0.2407  0.1621  0.2537
  811W        W 4555   4.042   5.747   8.573  0.1015 -0.0528 -0.2858
  812W        W 4556   9.114   0.612   1.057 -0.2862  0.0534  0.0557
  813W        W 4557   4.034   5.138  10.913 -0.1898  0.1074  0.0146
  814W        W 4558   4.702   1.982  10.523  0.0043  0.1631 -0.1811
  815W        W 4559   6.615   4.852   2.160 -0.1628 -0.1051 -0.1450
  816W        W 4560   2.324   2.972   9.822 -0.1539  0.0280 -0.0013
  817W        W 4561   6.551   1.686   9.984  0.0458  0.1125 -0.0820
  818W        W 4562   2.678   0.236  12.401 -0.2660 -0.0780 -0.2828
  819W        W 4563   4.012   3.688   2.855  0.1607  0.1174 -0.2214
  820W        W 4564   8.150   7.054   1.616 -0.1725 -0.0550 -0.0338
  821W        W 4565   9.701   9.924   3.482 -0.0342  0.3523  0.0473
  822W        W 4566   5.782   2.896   1.307 -0.3609 -0.0526  0.2141
  823W        W 4567   0.165   8.464   2.077  0.1796  0.1664 -0.1448
  824W        W 4568   4.598   7.416   0.689  0.0077  0.0214  0.0816
  825W        W 4569   4.844   2.424   9.339  0.0782  0.0742  0.1877
  826W        W 4570   0.909   0.604   1.717 -0.0247  0.5553 -0.1197
  827W        W 4571   5.106   1.733  11.946 -0.1661  0.4042 -0.1502
  828W        W 4572   6.966   4.065   0.967  0.0992 -0.2043 -0.2289
  829W        W 4573   5.304   8.894   2.833  0.2320  0.0357 -0.2991
  830W        W 4574   6.179   1.131  10.330  0.0853  0.0278 -0.0461
  831W        W 4575   2.513   5.007  11.344 -0.0892 -0.1142 -0.2304
  832W        W 4576   6.102   8.947  11.062 -0.0063  0.2313 -0.1004
  833W        W 4577   2.508   2.277   3.492  0.0160  0.2347  0.0985
  834W        W 4578   8.286   0.388   1.803  0.0184 -0.0678 -0.2963
  835W        W 4579   7.961   2.938  12.132  0.0803 -0.2109  0.0143
  836W        W 4580   6.599   3.435   3.967 -0.2025 -0.0191 -0.2162
  837W        W 4581   8.174   4.798  12.217 -0.0444 -0.1757 -0.0684
  838W        W 4582   9.587   5.296  11.876  0.2927 -0.3541 -0.1111
  839W        W 4583   0.603   6.699   9.986  0.0656  0.0202 -0.0233
  840W        W 4584   8.401   3.261   1.276 -0.2469  0.1603 -0.4702
  841W        W 4585   1.529   6.001   3.772 -0.2946  0.2817 -0.0685
  842W        W 4586   8.133   4.807   2.240 -0.0684 -0.3338  0.2054
  843W        W 4587   3.089   9.302  10.042  0.2087 -0.2116  0.1176
  844W        W 4588   2.543   7.623   4.049  0.3224  0.0167 -0.1163
  845W        W 4589   2.798   7.944   3.121 -0.1296  0.1895  0.0708
  846W        W 4590   4.132   9.452   0.128 -0.2064 -0.1563 -0.0899
  847W        W 4591   8.428   6.316  12.660  0.4113 -0.0160 -0.1555
  848W        W 4592   4.694   7.877   2.797 -0.0040 -0.1049  0.1243
  849W        W 4593   1.957   2.191   3.106  0.0919  0.1973 -0.0436
  850W        W 4594   9.756   7.708   1.778  0.0995  0.0005  0.0917
  851W        W 4595   8.365   9.582   3.390  0.1657  0.0118 -0.2241
  852W        W 4596   8.927   5.385   0.939  0.1279 -0.0658  0.2019
  853W        W 4597   7.290   6.531  12.215 -0.1274 -0.2488  0.1488
  854W        W 4598   8.680   2.245  10.144  0.1627 -0.0729 -0.0693
  855W        W 4599   9.211   6.616   1.043 -0.2259 -0.3044 -0.1760
  856W        W 4600   5.151   4.779   3.147 -0.2493  0.1387  0.0886
  857W        W 4601   7.921   2.463  11.275  0.0437  0.1387  0.3657
  858W        W 4602   5.066   2.920  12.691 -0.4471  0.2264 -0.0743
  859W        W 4603   6.168   4.079  11.739 -0.0198  0.0960  0.2146
  860W        W 4604   0.944   6.778  11.579 -0.1829  0.1935  0.0167
  861W        W 4605   8.896   9.100   4.785  0.0030 -0.0655 -0.1573
  862W        W 4606   5.279   9.146  10.042  0.0759  0.5668 -0.0625
  863W        W 4607   7.688   6.265   0.472  0.1294 -0.0833 -0.3792
  864W        W 4608   4.375   7.654  12.219 -0.0141  0.0439 -0.2226
  865W        W 4609   2.658   3.274   1.375  0.0234 -0.0794 -0.0491
  866W        W 4610   0.761   4.218  10.971 -0.2904 -0.0705 -0.0518
  867W        W 4611   8.394   0.734   1.463 -0.0475  0.3632  0.2932
  868W        W 4612   7.506   3.279  10.847  0.0772 -0.1870 -0.1430
  869W        W 4613   7.849   0.387  10.376  0.4731  0.0097  0.1568
  870W        W 4614   9.095   4.136   9.003  0.1370 -0.0085 -0.2083
  871W        W 4615   9.136   5.572  10.503 -0.1919  0.1583  0.1151
  872W        W 4616   5.367   8.558  12.508  0.0759  0.1943 -0.1778
  873W        W 4617   7.969   7.571   2.450  0.4712 -0.0747 -0.2011
  874W        W 4618   3.646   2.358   4.525  0.2646  0.1385  0.0826
  875W        W 4619   3.445   8.754   9.099  0.4048 -0.2074  0.2201
  876W        W 4620   0.342   1.506  11.827 -0.0593  0.0969  0.0016
  877W        W 4621   8.078   7.281  12.373  0.2543  0.1051 -0.1737
  878W        W 4622   9.026   1.097   2.849  0.1990 -0.2381  0.1116
  879W        W 4623   4.352   5.258   3.225 -0.1102  0.0761 -0.0759
  880W        W 4624   5.313   6.370  11.633  0.0395 -0.1526 -0.2015
  881W        W 4625   7.742   1.356   2.468 -0.1320  0.0592 -0.1605
  882W        W 4626   4.606   3.915   9.590  0.0367  0.1055 -0.0261
  883W        W 4627   5.726   7.848  11.636 -0.4783 -0.6033 -0.2888
  884W        W 4628   2.709   0.244   9.908  0.0792 -0.0040 -0.1303
  885W        W 4629   1.652   5.233  10.731 -0.2047  0.3716  0.3187
  886W        W 4630   3.940   2.474   2.309 -0.1231  0.3883 -0.1235
  887W        W 4631   2.372   5.433   1.313 -0.1736 -0.1505 -0.2282
  888W        W 4632   9.218   6.561  10.256 -0.0531 -0.1231 -0.2678
  889W        W 4633   1.639   4.303   2.788 -0.1713 -0.0647 -0.3274
  890W        W 4634   9.800   3.232   5.430 -0.1173 -0.1435 -0.2419
  891W        W 4635   2.292   2.306  12.583  0.2488  0.0188  0.0390
  892W        W 4636   7.422   3.395  11.685 -0.2583 -0.1206 -0.1150
  893W        W 4637   6.042   1.361   9.310 -0.0976 -0.3658 -0.3837
  894W        W 4638   0.516   6.723   3.429  0.0204 -0.0237 -0.2181
  895W        W 4639   2.949   2.742   0.209  0.1339  0.0006 -0.1102
  896W        W 4640   0.015   3.432   2.889 -0.0899 -0.3015  0.2399
  897W        W 4641   7.563   6.924  11.136  0.1799 -0.0628 -0.0944
  898W        W 4642   5.729   3.161  12.475  0.1137  0.0283  0.3409
  899W        W 4643   6.846   7.450   1.677 -0.0249 -0.0786  0.2084
  900W        W 4644   2.419   0.884   0.850 -0.0265 -0.3068 -0.3223
  901W        W 4645   8.352   6.110   1.900 -0.1946  0.3884 -0.3183
  902W        W 4646   5.822   9.416  11.296  0.3092  0.1553  0.1030
  903W        W 4647   8.562   2.186  11.904 -0.2314  0.0410 -0.1552
  904W        W 4648   7.301   2.211   4.337  0.1778 -0.0548  0.1087
  905W        W 4649   5.855   8.847   0.883  0.0542 -0.1237  0.0816
  906W        W 4650   3.617   9.921   0.686 -0.1002  0.3752  0.2068
  907W        W 4651   2.776   5.817   4.102  0.3108 -0.1140 -0.1172
  908W        W 4652   4.626   5.532   1.507  0.0736 -0.1743  0.3839
  909W        W 4653   0.485   8.815   0.531  0.1948 -0.5428  0.4443
  910W        W 4654   2.861   9.272   0.290 -0.0941  0.0346  0.0748
  911W        W 4655   5.051   3.837   9.348  0.3510  0.1622 -0.2145
  912W        W 4656   8.617   4.795  12.656 -0.0914 -0.0311  0.2096
  913W        W 4657   9.405   5.813  10.869  0.1653 -0.4634 -0.1903
  914W        W 4658   0.159   3.075   3.320 -0.1295  0.1130  0.0563
  915W        W 4659   9.202   1.318   0.159 -0.2374 -0.0860 -0.0893
  916W        W 4660   0.610   7.185  10.756  0.0072 -0.1584 -0.0185
  917W        W 4661   9.351   1.807   1.342 -0.2606 -0.1301 -0.0920
  918W        W 4662   0.023   9.636   2.363 -0.0694 -0.4392 -0.0228
  919W        W 4663   2.171   1.295   1.939  0.2312 -0.1764  0.0793
  920W        W 4664   3.273   5.719   2.235 -0.1308 -0.0178 -0.1059
  921W        W 4665   5.732   2.444  12.392  0.0435  0.1022  0.1645
  922W        W 4666   0.503   2.524   1.624 -0.0440 -0.0111 -0.0350
  923W        W 4667   2.134   6.381   9.964 -0.1053 -0.3334 -0.0364
  924W        W 4668   5.649   8.775   2.490  0.2368  0.1741  0.0491
  925W        W 4669   2.252   3.421   2.270 -0.0882  0.2110 -0.2272
  926W        W 4670   3.947   4.038   3.872 -0.2940  0.2372 -0.1323
  927W        W 4671   6.178   6.624  11.253  0.1222 -0.1913  0.0714
  928W        W 4672   7.929   7.541   3.474  0.0214  0.0647  0.0338
  929W        W 4673   6.534   3.578  12.326  0.3090  0.1318  0.3390
  930W        W 4674   8.960   4.443  12.833  0.0229  0.1313 -0.1159
  931W        W 4675   7.018   7.645   0.246 -0.2751 -0.1620  0.1969
  932W        W 4676   5.458   7.160  10.260 -0.0599  0.0896 -0.0257
  933W        W 4677   3.814   3.210   4.029 -0.1971  0.1178  0.1859
  934W        W 4678   4.701   0.571   8.918  0.1646  0.2815  0.2100
  935W        W 4679   7.005   6.303   1.364 -0.4422  0.1136  0.1375
  936W        W 4680   6.595   1.965  11.390 -0.0448 -0.0664  0.2059
  937W        W 4681   6.147   0.763   9.930  0.2683 -0.0110  0.1047
  938W        W 4682   9.093   8.466  10.513  0.0240  0.0630 -0.0587
  939W        W 4683   0.282   8.040  11.942  0.0669  0.0336 -0.0043
  940W        W 4684   4.333   8.180  12.800 -0.3507  0.3321 -0.1867
  941W        W 4685   1.799   8.438   3.996  0.0749 -0.0311  0.1704
  942W        W 4686   6.389   4.703   9.008 -0.2607 -0.1164 -0.0550
  943W        W 4687   6.963   8.913  12.649 -0.1154  0.0737  0.1690
  944W        W 4688   9.394   3.433  10.342 -0.0116 -0.0438 -0.3783
  945W        W 4689   5.613   9.873  12.367 -0.1360  0.0775  0.2761
  946W        W 4690   5.670   4.583   8.385  0.0020  0.1097  0.1042
  947W        W 4691   5.994   2.102  12.116 -0.0951 -0.1055 -0.1796
  948W        W 4692   2.472   0.956   1.667 -0.0247 -0.0499 -0.0190
  949W        W 4693   1.751   9.728   0.861  0.1064 -0.0539 -0.0814
  950W        W 4694   7.404   3.613  12.471  0.0980 -0.2022  0.1102
  951W        W 4695   8.728   7.099   1.528 -0.3154  0.1038  0.0688
  952W        W 4696   3.895   5.137  11.865 -0.3519 -0.1601 -0.1735
  953W        W 4697   8.635   1.254  10.691  0.0965 -0.0703 -0.1739
  954W        W 4698   5.034   3.697  12.632 -0.0167 -0.1207 -0.1828
  955W        W 4699   8.350   1.803   0.493 -0.3645 -0.2964  0.1471
  956W        W 4700   7.537   5.350  11.047 -0.0304 -0.1587  0.0446
  957W        W 4701   7.530   8.452   9.077  0.0067 -0.3138  0.2169
  958W        W 4702   6.901   0.878  11.594 -0.4451  0.2658  0.0908
  959W        W 4703   2.256   4.357  10.785  0.0204  0.2334  0.4016
  960W        W 4704   6.607   2.330   0.100 -0.0636 -0.2791  0.1938
  961W        W 4705   8.889   0.545   1.572  0.2524 -0.1456  0.4279
  962W        W 4706   3.209   8.645   2.470 -0.0546 -0.1056 -0.4962
  963W        W 4707   6.679   7.993   1.679  0.0312  0.0985 -0.0450
  964W        W 4708   6.950   2.598   2.761  0.1821 -0.3742  0.1876
  965W        W 4709   5.252   4.310   8.691 -0.0501 -0.0220 -0.1671
  966W        W 4710   7.395   0.850  10.473 -0.0135 -0.0014  0.0063
  967W        W 4711   8.530   1.669  10.367  0.1208 -0.2800 -0.0499
  968W        W 4712   3.264   6.924   0.875  0.2148 -0.1678 -0.3737
  969W        W 4713   9.292   7.694   0.242 -0.1482 -0.1990 -0.0628
  970W        W 4714   5.352   8.306   3.625  0.0334  0.1504 -0.0176
  971W        W 4715   1.052   6.470   3.377  0.0887  0.3261 -0.3087
  972W        W 4716   3.064   3.388  12.576  0.3783  0.1579 -0.4143
  973W        W 4717   2.081   5.120   1.015  0.0338 -0.0746 -0.0083
  974W        W 4718   9.478   3.616   9.823  0.0930  0.0659  0.0767
  975W        W 4719   1.714   9.144   8.955  0.1018  0.1096 -0.0696
  976W        W 4720   5.243   5.736   1.782  0.1105  0.2043  0.2103
  977W        W 4721   1.374   9.042   9.645 -0.0649  0.1154 -0.0223
  978W        W 4722   0.962   1.046   2.754  0.0716 -0.0479 -0.2554
  979W        W 4723   4.477   6.285  11.932 -0.0470 -0.1448 -0.0893
  980W        W 4724   1.903   7.989  11.134 -0.0961 -0.0311  0.0188
  981W        W 4725   2.039   0.520  12.771  0.1649 -0.4429  0.2400
  982W        W 4726   8.352   0.179   0.394 -0.0190  0.1896 -0.1547
  983W        W 4727   3.932   1.430  11.086  0.0925 -0.0029  0.0798
  984W        W 4728   4.983   1.867   9.691  0.1507  0.0295  0.4091
  985W        W 4729   8.041   1.459  12.083  0.1071 -0.2458 -0.1423
  986W        W 4730   5.892   9.501   9.151  0.1628 -0.0373 -0.3387
  987W        W 4731   0.991   3.840   8.895  0.0262  0.1165 -0.1638
  988W        W 4732   9.402   3.612   2.064  0.1358  0.0202 -0.1390
  989W        W 4733   6.149   1.082   2.930  0.0128  0.0570  0.3217
  990W        W 4734   4.316   8.268   0.423  0.0268 -0.1496  0.0639
  991W        W 4735   1.577   9.359  12.799  0.3309 -0.2206 -0.1916
  992W        W 4736   0.970   6.520   9.287 -0.0315 -0.0465  0.0295
  993W        W 4737   8.697   4.282   4.069  0.1106 -0.1736 -0.1846
  994W        W 4738   1.514   9.088   1.423  0.0328 -0.3029 -0.1833
  995W        W 4739   5.530   8.046   3.237  0.1643  0.0509 -0.2802
  996W        W 4740   5.680   7.003  12.168 -0.0101 -0.2281  0.2788
  997W        W 4741   3.059   6.717   4.063  0.1540  0.2186  0.0295
  998W        W 4742   8.444   0.255   9.841  0.3643 -0.0032 -0.1802
  999W        W 4743   5.373   1.370  10.967 -0.1042  0.1033 -0.3451
 1000W        W 4744   3.527   1.396  11.338  0.2456 -0.2743 -0.0747
 1001W        W 4745   1.579   4.271   0.493  0.1156  0.1669 -0.2383
 1002W        W 4746   2.421   5.859   2.577  0.0989  0.0685  0.0481
 1003W        W 4747   0.338   5.854  10.118  0.0430 -0.0473  0.1413
 1004W        W 4748   6.750   4.328   9.739 -0.0496 -0.2504 -0.1218
 1005W        W 4749   8.362   2.165  12.519  0.3072 -0.1997 -0.1582
 1006W        W 4750   0.088   2.707  11.746  0.1664  0.0911  0.2753
 1007W        W 4751   3.665   1.165   0.617 -0.1372 -0.1610 -0.3636
 1008W        W 4752   4.257   3.866  11.389  0.1286 -0.0016 -0.0799
 1009W        W 4753   2.515   3.949   9.379 -0.0507 -0.1040 -0.0096
 1010W        W 4754   0.126   6.970   3.102  0.2768  0.0720  0.1442
 1011W        W 4755   3.511   9.788   8.169  0.0321  0.0217 -0.2856
 1012W        W 4756   5.614   7.206   3.773 -0.0955  0.0535  0.1723
 1013W        W 4757   7.303   8.473  12.817  0.0854  0.0030 -0.2416
 1014W        W 4758   3.603   2.416   8.882 -0.1061 -0.1846  0.1736
 1015W        W 4759   5.085   0.366  12.102  0.2141  0.1785 -0.3706
 1016W        W 4760   3.431   3.117   8.673  0.4031  0.0596 -0.2395
 1017W        W 4761   7.889   4.820   1.690 -0.3122 -0.0413 -0.1441
 1018W        W 4762   5.309   1.130  11.874 -0.1965  0.2924 -0.4295
 1019W        W 4763   7.221   4.104   4.674 -0.1463 -0.0187  0.0538
 1020W        W 4764   1.398   5.731   3.347 -0.3863 -0.0833 -0.0345
 1021W        W 4765   6.319   0.526   8.805  0.1771  0.2720 -0.2254
 1022W        W 4766   6.789   0.798   9.068  0.0376 -0.0338 -0.0096
 1023W        W 4767   3.453   5.332   9.194  0.3103 -0.0011  0.0132
 1024W        W 4768   7.047   4.787   2.418 -0.0211 -0.0826  0.0162
 1025W        W 4769   1.485   8.951   7.989 -0.2209  0.3898  0.0559
 1026W        W 4770   4.838   8.455  12.574  0.1303  0.0518  0.0476
 1027W        W 4771   4.714   2.979   2.114 -0.1838  0.1885  0.1345
 1028W        W 4772   9.810   7.810  10.414  0.1697  0.0395 -0.0309
 1029W        W 4773   9.113   6.744  12.066  0.0885  0.0391  0.0542
 1030W        W 4774   5.554   3.932   3.403 -0.1303  0.3230  0.3370
 1031W        W 4775   0.738   0.964  10.386  0.2001  0.0619 -0.0462
 1032W        W 4776   3.158   0.768  12.526  0.0428  0.0323 -0.3505
 1033W        W 4777   6.135   7.225  12.677 -0.0759  0.0028  0.0405
 1034W        W 4778   0.365   5.327   0.525 -0.0992  0.0704 -0.1044
 1035W        W 4779   8.084   2.101   0.088  0.1343 -0.4135  0.0594
 1036W        W 4780   0.993   7.640  12.212 -0.0010 -0.2259 -0.2382
 1037W        W 4781   1.174   2.241   4.267  0.0523 -0.4630  0.2729
 1038W        W 4782   7.258   9.633  12.283 -0.1274 -0.0164 -0.2712
 1039W        W 4783   1.853   3.561  11.331  0.1595 -0.1136 -0.2574
 1040W        W 4784   4.587   2.351   0.260  0.1352 -0.1615  0.2108
 1041W        W 4785   7.226   8.581  12.344  0.0606 -0.2618  0.2518
 1042W        W 4786   7.664   8.782   0.383 -0.3784  0.1357  0.0218
 1043W        W 4787   8.057   6.960   0.400  0.2941 -0.2744 -0.1001
 1044W        W 4788   6.591   0.507   1.110 -0.0670  0.0817 -0.0006
 1045W        W 4789   6.408   8.965  12.299  0.3022 -0.3036 -0.2144
 1046W        W 4790   7.886   5.156  12.463  0.2481 -0.0646  0.0505
 1047W        W 4791   0.997   7.190   2.219  0.2007 -0.1324  0.0694
 1048W        W 4792   1.655   2.111   8.896  0.1887 -0.4065 -0.1264
 1049W        W 4793   3.647   3.629   1.547 -0.0962 -0.0440  0.0593
 1050W        W 4794   0.844   7.727   0.191 -0.1396 -0.0302  0.2947
 1051W        W 4795   4.515   2.567  10.756 -0.0662 -0.0532  0.1798
 1052W        W 4796   7.393   4.125  12.379 -0.0081 -0.1647  0.2544
 1053W        W 4797   3.077   3.343  10.866  0.1207  0.2895 -0.3259
 1054W        W 4798   8.227   9.901   2.428 -0.2478  0.2280 -0.0927
 1055W        W 4799   3.414   7.881   1.271  0.0425 -0.1301 -0.0892
 1056W        W 4800   0.061   9.068   3.524 -0.1751  0.0128  0.1359
 1057W        W 4801   9.064   8.713   8.670  0.2167 -0.3082 -0.0793
 1058W        W 4802   4.659   1.484  12.616  0.0273 -0.2462 -0.0438
 1059W        W 4803   2.551   6.858   4.102 -0.0427  0.3813 -0.0248
 1060W        W 4804   0.652   3.284   9.140  0.1224  0.2626 -0.0801
 1061W        W 4805   3.403   8.258   0.953 -0.0809 -0.1826  0.1158
 1062W        W 4806   4.967   7.003   0.506 -0.1304  0.1268  0.2369
 1063W        W 4807   0.661   1.917  11.675  0.0270 -0.0109 -0.2566
 1064W        W 4808   5.603   3.115   9.284  0.1048  0.3511  0.0051
 1065W        W 4809   3.374   9.309   8.931 -0.1640  0.3406 -0.1396
 1066W        W 4810   0.785   4.028  11.495 -0.0571 -0.0100 -0.2526
 1067W        W 4811   8.926   4.005   0.243  0.2899  0.0511 -0.1824
 1068W        W 4812   5.883   5.708  12.835  0.0139  0.0244  0.4198
 1069W        W 4813   0.108   3.013   9.895  0.3720  0.0433 -0.0100
 1070W        W 4814   3.938   2.700   4.935 -0.2823  0.0134 -0.0478
 1071W        W 4815   4.112   9.517  10.812  0.1400  0.0417  0.4682
 1072W        W 4816   3.735   5.700   8.986 -0.1786 -0.0989  0.2645
 1073W        W 4817   9.195   4.977   1.532  0.0559 -0.0669 -0.0932
 1074W        W 4818   0.285   2.542  10.746 -0.1654 -0.1692  0.3254
 1075W        W 4819   1.896   0.007  12.055  0.0935 -0.1554 -0.1931
 1076W        W 4820   9.184   0.154   3.433 -0.2747 -0.3806 -0.3020
 1077W        W 4821   6.745   9.754   9.231  0.0379  0.5169  0.1884
 1078W        W 4822   7.778   9.839   1.521  0.0328 -0.0242  0.0215
 1079W        W 4823   6.540   2.230   1.688  0.3015 -0.0077  0.0633
 1080W        W 4824   8.883   4.020   1.024  0.1745  0.1718 -0.0886
 1081W        W 4825   8.407   1.652  11.189  0.0760 -0.3716  0.0399
 1082W        W 4826   7.378   1.887   0.370  0.1644  0.1007 -0.2995
 1083W        W 4827   1.866   7.394   0.775  0.0828 -0.3695  0.0189
 1084W        W 4828   3.957   2.597   1.473  0.0863  0.0572  0.0114
 1085W        W 4829   8.292   7.246   2.671  0.1284  0.0356 -0.3293
 1086W        W 4830   0.072   0.005   1.893 -0.0684 -0.0635 -0.4470
 1087W        W 4831   3.941   1.923   4.404  0.0785  0.1276 -0.0074
 1088W        W 4832   9.281   9.697  10.745  0.0498 -0.0712  0.0920
 1089W        W 4833   5.314   3.256  10.890  0.0044  0.1377  0.0352
 1090W        W 4834   3.210   7.660   1.642  0.0396  0.1428 -0.2298
 1091W        W 4835   9.217   2.348   1.196 -0.1362 -0.0900  0.0618
 1092W        W 4836   4.439   9.541  12.503 -0.0700 -0.1591  0.4579
 1093W        W 4837   0.715   8.349  11.832  0.1449  0.2510 -0.3238
 1094W        W 4838   2.895   9.288  11.916 -0.2033 -0.0023 -0.1238
 1095W        W 4839   2.709   5.640  11.471 -0.1238 -0.1695  0.4008
 1096W        W 4840   4.992   8.155   1.884  0.1185  0.0996  0.0220
 1097W        W 4841   8.084   3.425   0.180  0.0177 -0.1417 -0.3536
 1098W        W 4842   3.671   3.852  11.166 -0.3714  0.2694  0.1497
 1099W        W 4843   7.940   4.988   2.766  0.2031 -0.1841  0.0442
 1100W        W 4844   0.712   6.531  12.471  0.0089  0.3100  0.1849
 1101W        W 4845   6.377   7.018   9.857  0.0548 -0.2336 -0.1295
 1102W        W 4846   6.843   1.727   9.546 -0.3021  0.2514  0.0409
 1103W        W 4847   1.523   9.406   4.068  0.2261  0.2564 -0.1082
 1104W        W 4848   1.146   3.769   3.202 -0.0354  0.0856 -0.0331
 1105W        W 4849   5.774   1.196   1.996  0.0990 -0.0645  0.0251
 1106W        W 4850   0.982   9.851   1.029 -0.1836  0.0809 -0.2061
 1107W        W 4851   9.746   5.163  11.246  0.1209  0.0741 -0.1095
 1108W        W 4852   9.764   9.723   0.690 -0.1458 -0.3580  0.0983
 1109W        W 4853   8.556   2.606  11.092 -0.0122 -0.0477 -0.0303
 1110W        W 4854   1.586   1.435   0.910  0.0453 -0.4463  0.2760
 1111W        W 4855   4.359   6.302   1.752  0.0107  0.4422  0.0876
 1112W        W 4856   5.044   9.466  11.588 -0.0605 -0.2119  0.2312
 1113W        W 4857   5.101   0.049   4.761 -0.1925 -0.1434  0.3972
 1114W        W 4858   5.531   3.345   9.914 -0.1231  0.0961  0.0780
 1115W        W 4859   7.668   9.206   3.140 -0.3245  0.2251  0.1705
 1116W        W 4860   9.493   8.242   0.304  0.2591 -0.1112  0.1616
 1117W        W 4861   6.055   2.998   8.629  0.0027 -0.0182 -0.1984
 1118W        W 4862   1.169   2.706   2.373  0.0244  0.2073  0.2517
 1119W        W 4863   0.871   1.193   9.928 -0.0830  0.1371  0.0465
 1120W        W 4864   3.657   7.166   1.057 -0.0169 -0.4055  0.1421
 1121W        W 4865   3.953   8.687   0.146  0.1544 -0.2384 -0.3181
 1122W        W 4866   1.978   1.782   0.836 -0.0332  0.0240  0.1039
 1123W        W 4867   4.410   2.063  11.573  0.1450  0.1791 -0.0425
 1124W        W 4868   1.440   5.815   2.286 -0.1882 -0.1782  0.0990
 1125W        W 4869   0.368   7.581   2.644  0.2033  0.1462  0.2836
 1126W        W 4870   8.218   0.733   9.553  0.1794  0.2849 -0.0839
 1127W        W 4871   8.381   4.851  11.251 -0.0111 -0.1495 -0.0991
 1128W        W 4872   2.800   9.201  11.029 -0.1639  0.1086 -0.0510
 1129W        W 4873   0.607   9.527   2.679  0.0361 -0.1620  0.1267
 1130W        W 4874   1.258   3.766   0.509 -0.0591 -0.3490 -0.2219
 1131W        W 4875   0.490   0.478  10.417  0.0589  0.1295 -0.0851
 1132W        W 4876   4.597   7.647  11.091 -0.2968  0.2150 -0.1051
 1133W        W 4877   4.919   1.269  11.135  0.0732 -0.3462 -0.0844
 1134W        W 4878   5.186   7.654   3.078 -0.0490  0.0118  0.0924
 1135W        W 4879   5.281   4.192  11.927  0.0397  0.1469 -0.4083
 1136W        W 4880   6.133   2.098  11.187 -0.0030 -0.1323  0.1532
 1137W        W 4881   6.744   6.710   1.334  0.1008 -0.1890  0.0956
 1138W        W 4882   1.287   2.263  11.448  0.0947 -0.0720 -0.1933
 1139W        W 4883   6.102   0.915   9.037 -0.0962 -0.2482  0.4039
 1140W        W 4884   8.240   1.819   9.292 -0.1836 -0.2580 -0.0444
 1141W        W 4885   8.113   5.976   0.070  0.0996 -0.3109 -0.1445
 1142W        W 4886   2.069   2.831  11.960 -0.0166 -0.0913  0.0725
 1143W        W 4887   5.954   3.777   9.543  0.2117 -0.3548 -0.3309
 1144W        W 4888   1.716   4.819   0.339 -0.0467  0.5518  0.2469
 1145W        W 4889   8.527   9.329  10.930  0.1451  0.0681  0.0162
 1146W        W 4890   0.556   5.803   2.277  0.1349 -0.1522 -0.0922
 1147W        W 4891   3.204   3.821  11.023  0.2028  0.1697 -0.1710
 1148W        W 4892   9.829   4.404   0.557  0.1914  0.3378  0.0699
 1149W        W 4893   0.942   6.505   8.752 -0.2343  0.1149 -0.1672
 1150W        W 4894   3.245   1.386   0.376  0.0337 -0.4499  0.0190
 1151W        W 4895   3.552   3.730   3.821  0.1847 -0.3177 -0.1524
 1152W        W 4896   5.376   9.873   0.006  0.0251  0.0030  0.0442
 1153W        W 4897   7.127   9.409  12.743  0.1579 -0.2216 -0.0779
 1154W        W 4898   3.547   3.560   7.927 -0.1895 -0.1365 -0.0072
 1155W        W 4899   0.620   7.442   9.306 -0.2708 -0.1902  0.4336
 1156W        W 4900   6.275   8.649   2.227 -0.1672  0.0985  0.0088
 1157W        W 4901   0.018   2.688   4.117  0.0073 -0.1586  0.2994
 1158W        W 4902   2.659   5.383   9.264  0.1668  0.2293  0.1459
 1159W        W 4903   4.649   2.506  12.118  0.0294 -0.1315  0.1346
 1160W        W 4904   6.644   7.222  10.255 -0.0623  0.1687 -0.0301
 1161W        W 4905   7.637   5.275   0.784  0.3096  0.0191 -0.4435
 1162W        W 4906   4.062   6.208  11.576  0.1174 -0.3136 -0.1668
 1163W        W 4907   7.899   6.423  10.144  0.2193  0.3400  0.0245
 1164W        W 4908   4.529   6.098  12.800  0.2381 -0.1121  0.3351
 1165W        W 4909   5.895   1.042   2.466 -0.0874 -0.1561  0.2628
 1166W        W 4910   5.816   5.828   1.334  0.1333  0.0213  0.2934
 1167W        W 4911   8.920   8.152  10.153  0.1050 -0.0009 -0.4573
 1168W        W 4912   7.161   9.016  10.156  0.1363 -0.1444 -0.1543
 1169W        W 4913   5.139   1.866   2.201 -0.1872  0.1868  0.0221
 1170W        W 4914   8.869   2.051   1.412  0.1642 -0.0479 -0.2499
 1171W        W 4915   6.312   0.264  11.842  0.1854 -0.1531  0.2110
 1172W        W 4916   5.344   2.835   9.675  0.0402  0.0078 -0.0210
 1173W        W 4917   8.718   9.176   3.714  0.0796  0.0537 -0.0018
 1174W        W 4918   0.808   0.147  10.139 -0.0273  0.2487 -0.1951
 1175W        W 4919   3.561   3.667   2.039 -0.2726 -0.0100  0.1900
 1176W        W 4920   5.640   2.487   2.775  0.0497  0.1511 -0.0383
 1177W        W 4921   7.643   7.288  12.585 -0.0271  0.2008  0.3314
 1178W        W 4922   1.125   8.858   8.326 -0.2803 -0.0132  0.1872
 1179W        W 4923   6.244   9.539   3.240 -0.2839  0.1623 -0.1769
 1180W        W 4924   6.508   0.935   8.677  0.2871 -0.1521  0.1357
 1181W        W 4925   2.986   4.020   8.936  0.1181  0.0935 -0.0872
 1182W        W 4926   0.249   4.860   9.523  0.2044  0.0106 -0.1051
 1183W        W 4927   0.692   8.817   1.573  0.1084  0.1441  0.1000
 1184W        W 4928   7.311   2.727   4.279 -0.2431 -0.2567 -0.2570
 1185W        W 4929   8.623   4.958   9.940 -0.0080  0.2142  0.0316
 1186W        W 4930   7.231   2.810   3.642  0.2088  0.0416  0.1257
 1187W        W 4931   6.569   0.287   9.342  0.2275 -0.3960  0.0211
 1188W        W 4932   9.650   8.269   1.898 -0.0422  0.5236  0.0519
 1189W        W 4933   4.850   9.033  10.363  0.1950 -0.0369  0.2994
 1190W        W 4934   4.439   7.758   1.014 -0.2607 -0.2330 -0.0883
 1191W        W 4935   0.130   7.576  11.925  0.0828  0.0526 -0.0508
 1192W        W 4936   2.130   0.786   2.937 -0.0543 -0.2443  0.1639
 1193W        W 4937   3.216   5.510   1.273  0.3433 -0.1867 -0.1246
 1194W        W 4938   1.969   8.564  12.077 -0.0701 -0.2480 -0.2795
 1195W        W 4939   5.242   1.190   2.784  0.0152  0.0693 -0.1684
 1196W        W 4940   6.924   4.992  11.568  0.0809  0.0869 -0.1474
 1197W        W 4941   6.104   8.122   2.894  0.1034  0.0011  0.4701
 1198W        W 4942   3.596   5.959   0.549 -0.0613  0.0567 -0.1389
 1199W        W 4943   4.923   5.161   1.734 -0.3726  0.2720  0.2284
 1200W        W 4944   2.609   7.438  11.603 -0.2692 -0.3242 -0.3910
 1201W        W 4945   5.565   0.688   2.425  0.4417  0.1521  0.0636
 1202W        W 4946   6.512   3.929   3.072  0.1752 -0.0295 -0.3185
 1203W        W 4947   3.964   1.684   0.421  0.1263 -0.2168 -0.0548
 1204W        W 4948   8.447   6.601   1.555  0.1224 -0.2079  0.1850
 1205W        W 4949   1.964   7.896   1.602  0.2353 -0.1435 -0.1695
 1206W        W 4950   2.215   9.392   0.698 -0.0616  0.0677 -0.3374
 1207W        W 4951   2.255   5.029   4.026  0.2193  0.1372  0.1462
 1208W        W 4952   5.177   4.836  11.184  0.1173  0.1969  0.2690
 1209W        W 4953   1.072   8.280   1.674 -0.2160 -0.0470 -0.1375
 1210W        W 4954   9.669   6.767   1.636  0.3816 -0.0143 -0.3294
 1211W        W 4955   8.928   7.227   3.553  0.1756 -0.0614  0.2164
 1212W        W 4956   7.980   1.590   3.355  0.1929  0.1939  0.0879
 1213W        W 4957   9.837   0.675   0.395  0.0539 -0.2534 -0.1814
 1214W        W 4958   5.391   6.834   4.123 -0.2336  0.1584  0.1363
 1215W        W 4959   1.503   0.160  11.405 -0.1215 -0.1689  0.3091
 1216W        W 4960   4.092   4.358   8.690 -0.1904 -0.0120 -0.1977
 1217W        W 4961   5.610   2.159   0.769  0.0578 -0.1477 -0.0330
 1218W        W 4962   6.458   3.294   1.793 -0.1268  0.1443 -0.2730
 1219W        W 4963   2.642   6.937   2.751 -0.0695  0.0016  0.1039
 1220W        W 4964   0.845   4.130   5.207  0.0926  0.0761  0.0569
 1221W        W 4965   9.299   2.544   0.700 -0.1696  0.1084 -0.3867
 1222W        W 4966   4.700   3.856   0.066 -0.0407 -0.1187  0.0070
 1223W        W 4967   3.679   4.431   8.992  0.0187 -0.1601 -0.0309
 1224W        W 4968   1.782   2.562  11.606 -0.0075  0.0107  0.2155
 1225W        W 4969   1.484   2.979  10.539 -0.4505 -0.3103 -0.2162
 1226W        W 4970   4.534   1.554   0.451  0.0171  0.0507 -0.1646
 1227W        W 4971   1.004   3.007   3.843  0.1149 -0.0558  0.1488
 1228W        W 4972   2.781   1.428   9.732 -0.0321 -0.0131  0.2738
 1229W        W 4973   7.307   1.228  11.638  0.2797  0.0984 -0.0922
 1230W        W 4974   0.590   3.950   2.072 -0.0542 -0.0250  0.2117
 1231W        W 4975   3.184   9.615  11.114  0.1172 -0.2757  0.2677
 1232W        W 4976   0.508   6.710   0.459 -0.1303 -0.0635  0.0984
 1233W        W 4977   1.248   5.897   9.015  0.0895 -0.1037  0.0310
 1234W        W 4978   2.341   6.307   3.413 -0.1634 -0.1177 -0.1819
 1235W        W 4979   5.489   3.336  11.637 -0.1909 -0.2207  0.1748
 1236W        W 4980   0.897   8.283   4.480 -0.1969 -0.0232 -0.1258
 1237W        W 4981   2.978   1.646   4.143  0.1629 -0.0172 -0.0868
 1238W        W 4982   9.592   9.739  12.582 -0.0480 -0.1868  0.0998
 1239W        W 4983   8.062   2.217   3.011 -0.1613  0.0487 -0.2449
 1240W        W 4984   6.081   1.651   8.117 -0.3490 -0.0338  0.4329
 1241W        W 4985   0.420   2.869  12.518 -0.1933 -0.2422  0.0635
 1242W        W 4986   0.452   4.440   2.875  0.0774  0.0310 -0.0118
 1243W        W 4987   4.633   4.825   0.861 -0.2688 -0.3316  0.2237
 1244W        W 4988   9.895   6.244   2.314  0.0024  0.0140  0.1533
 1245W        W 4989   0.804   4.950   3.734 -0.2835 -0.1859  0.1006
 1246W        W 4990   9.637   9.467   3.355 -0.0234  0.0282  0.0708
 1247W        W 4991   6.532   5.412  12.534 -0.1226  0.4568 -0.0445
 1248W        W 4992   5.596   3.866   1.155 -0.3376  0.1912  0.2898
 1249W        W 4993   6.460   4.024   3.565 -0.2464  0.2430 -0.0318
 1250W        W 4994   2.055   2.649   3.348  0.0764  0.3458 -0.0590
 1251W        W 4995   1.458   3.776   9.123  0.3127  0.2754 -0.0109
 1252W        W 4996   2.398   8.628   5.210 -0.1477  0.0223 -0.1982
 1253W        W 4997   3.581   0.964   2.071 -0.0594 -0.1175  0.3680
 1254W        W 4998   7.113   1.117   3.333 -0.1521  0.0521  0.1429
 1255W        W 4999   7.317   4.679  10.526  0.0925  0.0578 -0.0991
 1256W        W 5000   7.746   8.000   3.865 -0.1828 -0.1435  0.0478
 1257W        W 5001   4.938   9.435  12.484  0.1671  0.0312  0.1042
 1258W        W 5002   2.554   7.716   4.606  0.3370 -0.1441 -0.0246
 1259W        W 5003   0.751   4.949   0.537  0.0352  0.3231  0.1098
 1260W        W 5004   0.865   6.537   2.023 -0.2769  0.0370 -0.1025
 1261W        W 5005   2.280   2.576   8.901 -0.2350 -0.0355 -0.2081
 1262W        W 5006   7.446   7.709  11.713  0.1027  0.2123  0.2128
 1263W        W 5007   8.423   5.201  12.390  0.1398 -0.2068 -0.3744
 1264W        W 5008   6.431   1.493   2.860  0.1769  0.4069 -0.1673
 1265W        W 5009   8.594   5.808   0.047  0.1296  0.1980 -0.2049
 1266W        W 5010   8.472   9.457   0.349  0.2452  0.1316 -0.0227
 1267W        W 5011   2.231   8.786   3.124  0.0893  0.0519  0.1065
 1268W        W 5012   2.456   8.795   0.683  0.1998 -0.1694 -0.1502
 1269W        W 5013   4.477   5.496  10.271 -0.0547  0.2716 -0.0831
 1270W        W 5014   1.790   8.821   9.988  0.3402 -0.2773  0.4738
 1271W        W 5015   9.027   4.007   2.363  0.0921 -0.0575  0.1098
 1272W        W 5016   5.606   4.244  10.539  0.2435 -0.1635 -0.0375
 1273W        W 5017   9.282   7.987   1.818  0.3881 -0.0834 -0.1637
 1274W        W 5018   8.308   1.704   4.347 -0.0228  0.0092 -0.0850
 1275W        W 5019   3.866   8.971   1.010 -0.1755 -0.0310  0.1504
 1276W        W 5020   6.736   2.181   2.141 -0.0827 -0.0986  0.0127
 1277W        W 5021   8.591   8.366  10.478 -0.0834 -0.0375 -0.1931
 1278W        W 5022   2.021   2.449  11.217  0.1094  0.2794  0.1002
 1279W        W 5023   3.625   0.248   1.520  0.2570  0.0811  0.0263
 1280W        W 5024   2.224   1.621   0.286 -0.1835 -0.0722  0.0098
 1281W        W 5025   6.699   2.892  10.939 -0.0370  0.1705 -0.2123
 1282W        W 5026   3.543   2.989   7.697 -0.0034  0.0279 -0.0195
 1283W        W 5027   0.691   0.608  11.495  0.1283  0.0313  0.0788
 1284W        W 5028   0.454   0.506  12.055 -0.0019 -0.4407 -0.0962
 1285W        W 5029   5.269   8.078  12.712  0.0900  0.2357  0.1297
 1286W        W 5030   9.244   8.827  11.428 -0.1912 -0.0575  0.0350
 1287W        W 5031   8.573   1.276   0.974  0.3020  0.1315 -0.0776
 1288W        W 5032   3.005   7.624   4.279  0.1642 -0.2540 -0.2394
 1289W        W 5033   9.367   7.004  12.599 -0.2219 -0.1208 -0.2085
 1290W        W 5034   8.237   1.187  11.005  0.0388 -0.2171 -0.0117
 1291W        W 5035   8.797   5.258   0.438  0.3346  0.3022  0.1671
 1292W        W 5036   2.387   6.048  11.205  0.0161 -0.1675 -0.1136
 1293W        W 5037   3.918   7.003  11.960  0.3066  0.2395  0.2550
 1294W        W 5038   2.156   9.816   4.081 -0.2650  0.2148  0.2310
 1295W        W 5039   5.136   8.080   2.845  0.5186  0.0324 -0.0130
 1296W        W 5040   0.200   8.376   9.514 -0.1721 -0.0989 -0.1055
 1297W        W 5041   1.693   5.957  12.297  0.1862  0.2595 -0.3331
 1298W        W 5042   0.748   5.408   3.915 -0.1806  0.0309 -0.0421
 1299W        W 5043   1.089   2.600   0.445 -0.2723  0.2590  0.0753
 1300W        W 5044   4.536   0.404  10.273  0.0570 -0.3171 -0.0377
 1301W        W 5045   2.922   8.040   4.059  0.0917 -0.1668  0.2266
 1302W        W 5046   3.306   6.368   0.707  0.1607 -0.0919  0.1153
 1303W        W 5047   1.788   3.730   9.951 -0.2970 -0.1783  0.3657
 1304W        W 5048   2.650   5.698   0.944 -0.1055  0.1718  0.0430
 1305W        W 5049   0.006   6.242   1.788  0.2741 -0.1356 -0.0620
 1306W        W 5050   9.607   2.902   3.401  0.0791  0.0084  0.4715
 1307W        W 5051   9.088   7.578   9.420 -0.1349 -0.1042  0.1093
 1308W        W 5052   8.969   5.973  12.326  0.3056 -0.1160 -0.3045
 1309W        W 5053   3.852   3.697   3.422 -0.0595 -0.0418  0.1680
 1310W        W 5054   7.459   5.561   0.254 -0.0414 -0.1999 -0.1210
 1311W        W 5055   2.920   7.703   3.667  0.4117 -0.1437 -0.0181
 1312W        W 5056   5.098   1.767  12.405 -0.0647 -0.1330  0.1522
 1313W        W 5057   9.777   6.672   2.721 -0.0738  0.0271 -0.0220
 1314W        W 5058   9.068   1.584   9.379  0.0417 -0.0209  0.1107
 1315W        W 5059   6.530   1.197   3.310  0.0071 -0.0793  0.0079
 1316W        W 5060   2.236   4.654   0.032  0.0549  0.3409  0.3572
 1317W        W 5061   9.196   5.309  11.091 -0.3220  0.3532  0.0229
 1318W        W 5062   6.134   7.158  10.428  0.2130  0.0419 -0.0465
 1319W        W 5063   6.740   0.948   1.993 -0.0147 -0.1227  0.1534
 1320W        W 5064   0.209   0.529   0.041 -0.2577 -0.2879  0.0707
 1321W        W 5065   1.127   0.344   3.898 -0.2552  0.1672 -0.0765
 1322W        W 5066   5.373   3.063   0.887 -0.0046  0.1640 -0.0705
 1323W        W 5067   0.310   4.839   0.680  0.1636  0.3795 -0.2695
 1324W        W 5068   2.323   9.173   9.574 -0.0018 -0.3685  0.1447
 1325W        W 5069   7.081   3.500   3.922 -0.1166 -0.2196  0.0969
 1326W        W 5070   1.898   6.284  12.692 -0.0770 -0.1507 -0.2179
 1327W        W 5071   9.023   1.505  10.409  0.3282 -0.0581  0.1015
 1328W        W 5072   7.305   2.544   8.307 -0.0437 -0.1560  0.1896
 1329W        W 5073   1.916   3.202   1.974 -0.2445  0.0096 -0.0141
 1330W        W 5074   4.787   1.882   3.661 -0.3942 -0.2866 -0.0426
 1331W        W 5075   9.582   2.533   1.551  0.0651  0.0163 -0.2130
 1332W        W 5076   0.975   5.025  12.175  0.0671 -0.2525  0.5967
 1333W        W 5077   7.354   5.019   9.481 -0.1029  0.1727  0.1281
 1334W        W 5078   1.862   0.955   0.737  0.1014 -0.4039 -0.1135
 1335W        W 5079   1.365   9.882   2.349  0.0360 -0.0629  0.2032
 1336W        W 5080   1.238   8.356   8.459  0.0164  0.2163  0.1878
 1337W        W 5081   9.111   4.239   9.992  0.0900 -0.0454 -0.0700
 1338W        W 5082   1.791   1.373   8.269  0.0100  0.1493  0.2966
 1339W        W 5083   8.921   7.765   2.192 -0.2728  0.2145 -0.1145
 1340W        W 5084   9.526   2.660   9.206 -0.1457  0.0158  0.2408
 1341W        W 5085   9.160   7.884   1.012 -0.1051  0.1095 -0.1224
 1342W        W 5086   0.280   4.025  12.403 -0.0990  0.0147 -0.0332
 1343W        W 5087   6.249   6.312   4.052  0.1975 -0.1306 -0.0172
 1344W        W 5088   0.851   9.206   1.860  0.3246  0.1173 -0.2556
 1345W        W 5089   8.088   3.318  11.703  0.2891  0.0257  0.0409
 1346W        W 5090   7.435   0.893  12.328 -0.2113  0.2205  0.1908
 1347W        W 5091   4.479   6.668  12.677  0.0988  0.4018  0.2039
 1348W        W 5092   5.486   9.626   0.812  0.1724 -0.3413 -0.0710
 1349W        W 5093   6.492   8.444   3.060  0.1421 -0.2057  0.1088
 1350W        W 5094   1.247   7.436   0.344  0.0204 -0.1670 -0.0587
 1351W        W 5095   0.929   1.249  12.073 -0.0179  0.1466 -0.1626
 1352W        W 5096   4.172   9.337   0.757  0.0168 -0.2253  0.0534
 1353W        W 5097   3.032   4.660   0.490 -0.1465  0.2441  0.1878
 1354W        W 5098   5.173   4.741   1.565 -0.0343  0.1451  0.1521
 1355W        W 5099   8.847   8.057   9.249 -0.0279 -0.1594  0.0261
 1356W        W 5100   7.360   9.517   1.831 -0.1992 -0.3692  0.0590
 1357W        W 5101   6.377   3.564   0.594  0.0739  0.0598 -0.1009
 1358W        W 5102   6.879   2.445  11.060  0.1755  0.1170 -0.0477
 1359W        W 5103   6.872   4.546  10.336  0.2076 -0.1433 -0.2491
 1360W        W 5104   0.236   1.792   8.461  0.0003 -0.2351  0.0323
 1361W        W 5105   3.481   3.665   4.763 -0.1948  0.2929 -0.1053
 1362W        W 5106   2.020   7.087  12.278  0.2452  0.3908 -0.1295
 1363W        W 5107   2.591   6.379   4.242  0.0106  0.2639 -0.0912
 1364W        W 5108   1.712   2.685   2.362  0.1273 -0.2274 -0.1209
 1365W        W 5109   3.387   1.063  12.137 -0.0476 -0.0152  0.2534
 1366W        W 5110   6.834   0.606   9.756 -0.1267  0.1170  0.1114
 1367W        W 5111   6.045   6.978  11.659  0.1558 -0.4141  0.0195
 1368W        W 5112   8.864   9.444  12.105 -0.0148 -0.1398  0.1536
 1369W        W 5113   5.592   5.748   2.137  0.0116 -0.0494  0.0755
 1370W        W 5114   9.324   3.806   3.491 -0.0206 -0.1262  0.1375
 1371W        W 5115   9.760   5.585  12.387  0.1652 -0.1002  0.1115
 1372W        W 5116   5.642   6.000   2.647  0.0488  0.0521  0.1031
 1373W        W 5117   3.647   3.104   0.334 -0.1218 -0.0420  0.1430
 1374W        W 5118   1.327   5.307   2.459 -0.0505 -0.1936  0.2954
 1375W        W 5119   8.353   7.952   1.277  0.0677  0.1470 -0.0434
 1376W        W 5120   0.172   4.300   9.480 -0.3126 -0.1116 -0.3397
 1377W        W 5121   6.444   2.896   4.242 -0.4145  0.1934 -0.1189
 1378W        W 5122   7.597   2.614  10.182 -0.1536 -0.1663 -0.0264
 1379W        W 5123   5.306   3.973  12.352  0.2494 -0.0403  0.2228
 1380W        W 5124   1.770   8.506   2.558 -0.0487 -0.2464 -0.0576
 1381W        W 5125   6.597   0.024  11.042 -0.2729 -0.0516 -0.1046
 1382W        W 5126   8.797   3.951  10.949 -0.0605  0.1130  0.1333
 1383W        W 5127   5.014   3.842   3.596  0.0300  0.0022  0.2693
 1384W        W 5128   3.732   6.265  11.068  0.2349 -0.0586  0.1357
 1385W        W 5129   1.856   9.609   1.576 -0.0850 -0.2392 -0.4288
 1386W        W 5130   7.998   3.253   9.632  0.2713  0.2419 -0.0141
 1387W        W 5131   0.320   7.309  12.636 -0.1140  0.2998 -0.0587
 1388W        W 5132   6.281   8.164   2.012 -0.2756  0.2619 -0.1535
 1389W        W 5133   9.112   0.025  12.580  0.1639  0.2394  0.3629
 1390W        W 5134   2.319   6.081  12.861 -0.1521  0.0717  0.0570
 1391W        W 5135   5.259   4.499  12.368 -0.5279  0.5690  0.2161
 1392W        W 5136   8.547   5.324   8.349  0.1242 -0.0210 -0.1726
 1393W        W 5137   5.949   9.030   2.143  0.1073 -0.1852  0.1178
 1394W        W 5138   3.405   5.118   9.683 -0.3241 -0.1538  0.2128
 1395W        W 5139   1.546   3.064   9.354  0.1803 -0.0403 -0.2637
 1396W        W 5140   3.314   6.770   0.389 -0.3551 -0.0388  0.2883
 1397W        W 5141   8.502   2.384   9.244 -0.1453  0.2689 -0.2016
 1398W        W 5142   7.302   3.255   3.473 -0.1045 -0.1796 -0.3032
 1399W        W 5143   3.606   3.668   2.511 -0.0486  0.0732  0.0842
 1400W        W 5144   6.968   3.958   9.987 -0.0693  0.0614  0.0274
 1401W        W 5145   8.176   2.514  11.693 -0.2620 -0.1550  0.0675
 1402W        W 5146   2.226   4.505  12.441  0.0524  0.1150 -0.0824
 1403W        W 5147   8.086   9.047  10.702  0.1554 -0.1541  0.0361
 1404W        W 5148   4.290   4.873   9.785 -0.1684 -0.4170  0.1222
 1405W        W 5149   0.884   2.501   3.770 -0.2076  0.1895  0.1826
 1406W        W 5150   3.735   4.470  12.755  0.1023 -0.0592 -0.1439
 1407W        W 5151   9.077   3.509   2.484 -0.3785  0.0094  0.3011
 1408W        W 5152   4.828   4.572   0.507 -0.1995  0.2210  0.0241
 1409W        W 5153   9.542   0.832  12.313  0.1754  0.0660  0.1011
 1410W        W 5154   7.601   5.792   0.829  0.0087 -0.2380  0.4198
 1411W        W 5155   4.284   5.557  10.735 -0.1034  0.0233 -0.1036
 1412W        W 5156   1.227   3.096   4.298  0.2455 -0.0227  0.0577
 1413W        W 5157   7.420   3.716   2.661  0.1671 -0.1313 -0.3427
 1414W        W 5158   1.837   8.092   4.446 -0.2251  0.3740 -0.2331
 1415W        W 5159   3.064   6.190   9.499  0.2747  0.2783  0.1231
 1416W        W 5160   4.707   4.944  11.301  0.1021 -0.1553 -0.1198
 1417W        W 5161   9.767   3.677   1.680  0.0971  0.1655  0.2053
 1418W        W 5162   7.758   8.307   0.606  0.0336  0.0975  0.2107
 1419W        W 5163   2.524   6.133   2.969  0.2783  0.0139  0.1242
 1420W        W 5164   4.897   8.819   3.279  0.0234 -0.1666  0.0144
 1421W        W 5165   0.729   5.613  12.272  0.0534  0.0965  0.0397
 1422W        W 5166   4.154   4.836   1.046 -0.3138  0.0638 -0.0494
 1423W        W 5167   4.296   4.589  10.391  0.0011 -0.0545 -0.1038
 1424W        W 5168   0.765   6.976   9.568  0.1321 -0.2935  0.1829
 1425W        W 5169   2.695   4.862  10.755 -0.0750  0.1202  0.0051
 1426W        W 5170   8.583   2.146   3.302 -0.1715  0.4791  0.1194
 1427W        W 5171   0.399   6.558   1.790 -0.1311  0.0653 -0.1526
 1428W        W 5172   2.596   6.852  10.559  0.1139  0.3153 -0.3154
 1429W        W 5173   6.499   4.555   8.424 -0.1306  0.0132  0.1480
 1430W        W 5174   7.946   3.843   1.868 -0.1658  0.0078 -0.0483
 1431W        W 5175   1.551   3.204  10.991 -0.0515 -0.1815  0.1523
 1432W        W 5176   0.032   7.919   3.311  0.3025  0.1143 -0.2277
 1433W        W 5177   7.428   4.739   2.751 -0.0112 -0.0376  0.1299
 1434W        W 5178   6.209   2.535   9.743  0.1411 -0.0696  0.1172
 1435W        W 5179   9.789   1.453   8.701  0.4784 -0.2198  0.0031
 1436W        W 5180   8.928   9.117   4.293  0.0280 -0.0054  0.1650
 1437W        W 5181   0.143   9.604  11.787  0.3158  0.4927  0.1380
 1438W        W 5182   7.276   4.230  10.282  0.1874 -0.3429 -0.0938
 1439W        W 5183   1.316   6.853   2.026 -0.4537 -0.0215 -0.0729
 1440W        W 5184   6.249   8.219  12.549 -0.3637 -0.0990  0.0250
 1441W        W 5185   4.845   2.950  10.464  0.0023 -0.0131  0.0867
 1442W        W 5186   5.686   4.756   3.207 -0.2498  0.2732 -0.3318
 1443W        W 5187   0.741   2.006   0.889 -0.1987  0.0578  0.0565
 1444W        W 5188   5.493   1.145  10.515 -0.2133 -0.1256 -0.0563
 1445W        W 5189   9.629   9.137   0.920 -0.0522  0.0725  0.3073
 1446W        W 5190   6.591   3.425   9.555 -0.1121 -0.1775 -0.2621
 1447W        W 5191   3.056   1.484  10.648  0.1519 -0.1057 -0.2441
 1448W        W 5192   8.930   1.872   0.094  0.4398 -0.0045 -0.1318
 1449W        W 5193   4.143   5.981  11.087  0.0453  0.1158 -0.1108
 1450W        W 5194   6.602   7.546   9.759  0.0496  0.0073 -0.0539
 1451W        W 5195   3.576   4.089   3.398 -0.0050  0.0802  0.0099
 1452W        W 5196   6.530   7.804  11.312  0.1292 -0.1039  0.4275
 1453W        W 5197   1.089   1.869   3.388  0.2590 -0.0196  0.0305
 1454W        W 5198   5.733   1.694   8.514 -0.0289 -0.1507 -0.2106
 1455W        W 5199   5.695   2.911  10.814  0.1869 -0.3184 -0.3023
 1456W        W 5200   9.840   1.337   0.172 -0.2123  0.4893  0.2280
 1457W        W 5201   0.043   5.722   0.503 -0.1649 -0.1064 -0.1033
 1458W        W 5202   3.987   4.849   8.754 -0.1988  0.1055 -0.3405
 1459W        W 5203   7.619   9.074   1.085 -0.0133 -0.0154 -0.0140
 1460W        W 5204   0.890   3.448   9.904  0.1558 -0.1807 -0.1049
 1461W        W 5205   5.156   2.711   2.512  0.0686  0.0227  0.1459
 1462W        W 5206   7.079   6.087   1.860 -0.2341  0.1323  0.0331
 1463W        W 5207   1.380   7.336   1.838  0.0188  0.0819 -0.2634
 1464W        W 5208   3.151   8.654   3.918 -0.2001 -0.0750 -0.3184
 1465W        W 5209   8.584   7.266   0.727  0.2937  0.1311 -0.1707
 1466W        W 5210   0.821   3.044  12.396 -0.0311  0.1698 -0.1506
 1467W        W 5211   0.584   0.002  12.653 -0.0831  0.2148 -0.1490
 1468W        W 5212   3.404   1.932   0.458 -0.0547  0.1030  0.0096
 1469W        W 5213   8.023   6.964  10.167 -0.1471  0.2893 -0.0303
 1470W        W 5214   7.018   5.960   3.213 -0.0055  0.0097 -0.3109
 1471W        W 5215   0.288   5.026  11.013 -0.2373 -0.1575 -0.2114
 1472W        W 5216   8.044   7.646   0.932 -0.5325 -0.2352 -0.0287
 1473W        W 5217   7.172   1.652   1.665 -0.3003  0.1998  0.3786
 1474W        W 5218   1.859   8.025   0.209 -0.1043 -0.2330  0.1574
 1475W        W 5219   2.413   8.488  12.329  0.3592 -0.0416  0.1325
 1476W        W 5220   1.188   0.787   4.122  0.2450  0.1390  0.1554
 1477W        W 5221   5.504   1.609   3.973  0.2127  0.0476  0.1008
 1478W        W 5222   8.536   0.348   4.051 -0.0134  0.0126 -0.1641
 1479W        W 5223   5.509   1.779  10.741 -0.1405 -0.3429 -0.0956
 1480W        W 5224   5.718   2.952  11.978  0.2748  0.2224  0.0001
 1481W        W 5225   6.875   0.988   7.852 -0.0913  0.1128 -0.1510
 1482W        W 5226   4.087   9.672   1.967 -0.0439  0.0027 -0.2455
 1483W        W 5227   2.491   0.961   8.888  0.3803  0.4456 -0.2134
 1484W        W 5228   4.015   6.204   9.655  0.1795  0.1139 -0.2148
 1485W        W 5229   0.130   4.944   3.532 -0.0911 -0.3506 -0.0513
 1486W        W 5230   6.338   0.845   0.410  0.3614 -0.2091  0.1186
 1487W        W 5231   0.360   4.627   3.998  0.4406  0.0878  0.1477
 1488W        W 5232   0.975   3.727   1.141  0.2748  0.2286  0.2105
 1489W        W 5233   3.746   3.065   1.453 -0.1777 -0.0333  0.1343
 1490W        W 5234   5.628   9.388  12.142  0.0511  0.3059 -0.1018
 1491W        W 5235   2.060   2.178   9.373  0.0427  0.0822  0.0567
 1492W        W 5236   6.274   0.383   0.773  0.1391  0.0779  0.0135
 1493W        W 5237   2.812   2.541  12.614  0.0551 -0.1750  0.2102
 1494W        W 5238   5.079   7.437   1.589 -0.0381  0.1391  0.2238
 1495W        W 5239   4.870   3.536   2.231  0.1276  0.2541  0.4139
 1496W        W 5240   4.360   8.208  11.549 -0.0637 -0.0855 -0.1816
 1497W        W 5241   8.803   3.523  11.276  0.0173 -0.0346 -0.2778
 1498W        W 5242   3.224   0.870   3.870  0.1503 -0.0592 -0.0666
 1499W        W 5243   0.578   5.359   1.913  0.0652  0.1064 -0.1946
 1500W        W 5244   6.575   9.140  10.974 -0.2673  0.1894  0.0515
 1501W        W 5245   5.024   6.215  11.237 -0.1966 -0.1430 -0.0730
 1502W        W 5246   1.071   1.307   4.229 -0.0560 -0.0919 -0.0611
 1503W        W 5247   6.081   8.601   2.748  0.1444 -0.0832 -0.0977
 1504W        W 5248   6.166   8.320  11.391  0.2396 -0.2891  0.1277
 1505W        W 5249   2.468   2.367   1.745 -0.1193  0.2465  0.1306
 1506W        W 5250   2.332   2.423  11.680  0.1953  0.1935 -0.2911
 1507W        W 5251   9.637   4.186   4.080 -0.0121 -0.3164  0.0721
 1508W        W 5252   6.953   7.749  11.061 -0.0810 -0.0846  0.1196
 1509W        W 5253   1.487   8.993   5.295  0.3009  0.0127 -0.2018
 1510W        W 5254   2.954   6.709   9.776 -0.3016  0.0230  0.0003
 1511W        W 5255   6.202   6.079   1.657 -0.0738  0.1464  0.0151
 1512W        W 5256   9.826   4.769   4.087  0.0887  0.1217  0.0310
 1513W        W 5257   3.469   4.495   0.876  0.0287 -0.0098  0.0496
 1514W        W 5258   2.282   5.444  11.166  0.2679  0.2448  0.0822
 1515W        W 5259   0.255   1.044   3.715  0.0707 -0.0582  0.0693
 1516W        W 5260   1.124   4.275  12.537  0.0681 -0.2665  0.1403
 1517W        W 5261   7.137   0.010   2.909 -0.3720  0.0715  0.1463
 1518W        W 5262   5.240   5.680   9.286  0.0224 -0.3185 -0.1835
 1519W        W 5263   2.942   6.460   0.286  0.0748 -0.1244 -0.2136
 1520W        W 5264   7.695   3.087   0.085 -0.0489  0.1185 -0.0282
 1521W        W 5265   4.136   7.230  12.343  0.1974 -0.3324  0.2003
 1522W        W 5266   9.649   7.056   9.695  0.1742 -0.0567 -0.0524
 1523W        W 5267   0.489   8.559  11.408  0.1171 -0.0463  0.0346
 1524W        W 5268   0.072   5.732   2.442 -0.1681 -0.1889 -0.0611
 1525W        W 5269   1.624   9.350   3.527  0.1480 -0.0568 -0.0096
 1526W        W 5270   4.080   4.618   0.191 -0.1048  0.0517 -0.1004
 1527W        W 5271   1.279   5.388   1.570 -0.2067  0.1557  0.0309
 1528W        W 5272   7.581   0.634   3.489 -0.0126 -0.1792 -0.2956
 1529W        W 5273   4.273   2.327  10.394  0.2107  0.1047  0.1418
 1530W        W 5274   2.952   1.060   1.841  0.1017 -0.2593  0.0884
 1531W        W 5275   8.861   3.666   0.621 -0.1017 -0.0448 -0.1713
 1532W        W 5276   5.808   3.848   2.494 -0.1393 -0.1095  0.0605
 1533W        W 5277   3.176   5.677  11.585 -0.0103 -0.0616  0.3902
 1534W        W 5278   1.842   3.879  12.404  0.2445  0.0161  0.1193
 1535W        W 5279   6.498   4.738  10.775  0.0378 -0.2179  0.1480
 1536W        W 5280   5.725   6.332   9.313  0.3461 -0.0981  0.3045
 1537W        W 5281   1.062   1.215   1.906  0.0383  0.0274 -0.0394
 1538W        W 5282   3.291   7.915   2.155  0.1670 -0.2325  0.0259
 1539W        W 5283   3.813   9.032   3.988 -0.0667 -0.1165  0.2115
 1540W        W 5284   2.199   6.355   3.926 -0.3128 -0.0426 -0.2003
 1541W        W 5285   9.205   5.921   0.102  0.0765  0.0963  0.1890
 1542W        W 5286   4.636   5.422  11.477 -0.1892  0.2930 -0.0902
 1543W        W 5287   4.154   5.848  10.120  0.0351  0.3480 -0.1957
 1544W        W 5288   5.593   1.478   3.350 -0.0608  0.1277  0.1403
 1545W        W 5289   9.452   5.666   0.479  0.0011 -0.1764  0.0170
 1546W        W 5290   0.119   1.209   4.849  0.0917  0.0044 -0.1758
 1547W        W 5291   6.467   3.186   0.268 -0.0514  0.0201 -0.1142
 1548W        W 5292   0.792   5.351   2.404 -0.0432 -0.2922  0.0571
 1549W        W 5293   4.411   2.116   9.994 -0.2550  0.3601 -0.2294
 1550W        W 5294   0.538   9.513  11.500  0.0768  0.2746 -0.1787
 1551W        W 5295   2.273   2.820  12.464 -0.0402 -0.1017 -0.1591
 1552W        W 5296   2.809   7.604  12.542 -0.1052 -0.2266  0.0791
 1553W        W 5297   5.926   6.114   2.234  0.0218  0.0780 -0.2309
 1554W        W 5298   1.341   6.491   3.776 -0.2622  0.0725 -0.4517
 1555W        W 5299   0.737   1.804  12.141 -0.2225 -0.5960  0.0330
 1556W        W 5300   4.841   1.363  11.660  0.1082  0.0692 -0.1593
 1557W        W 5301   5.897   5.296   3.639 -0.2179  0.1280 -0.3591
 1558W        W 5302   9.567   8.895   0.063  0.4656  0.0200 -0.0282
 1559W        W 5303   3.604   9.158   0.032  0.0008  0.2154 -0.0667
 1560W        W 5304   3.909   1.936   7.782  0.0220 -0.0517 -0.3608
 1561W        W 5305   3.744   5.309   8.660 -0.1803 -0.1067 -0.3114
 1562W        W 5306   3.764   6.216  10.085 -0.0448 -0.1217  0.1040
 1563W        W 5307   3.046   8.432   2.068 -0.2137  0.3101  0.1043
 1564W        W 5308   0.056   1.221   1.171  0.1545  0.1722 -0.1263
 1565W        W 5309   6.180   1.931   8.597  0.1985  0.0209  0.3068
 1566W        W 5310   8.360   9.188  12.768 -0.0431  0.2694  0.1184
 1567W        W 5311   3.638   5.777   2.798 -0.2861  0.1105 -0.5188
 1568W        W 5312   4.319   4.298   9.649 -0.0220  0.0237 -0.2302
 1569W        W 5313   8.738   5.997   2.247 -0.1656  0.0726  0.2514
 1570W        W 5314   0.601   3.486  12.330  0.3531 -0.0224 -0.1198
 1571W        W 5315   0.593   5.362   4.414 -0.0079  0.1063 -0.0967
 1572W        W 5316   2.763   8.300  10.924 -0.1433 -0.3215 -0.1778
 1573W        W 5317   3.938   5.997  12.036 -0.0073  0.2039  0.0215
 1574W        W 5318   3.971   2.289  11.659  0.0012  0.0982  0.1191
 1575W        W 5319   4.123   9.771   0.515  0.2168 -0.0748 -0.0944
 1576W        W 5320   4.437   5.189   9.449 -0.1274 -0.3027 -0.0216
 1577W        W 5321   1.584   8.818  11.200 -0.3362  0.0532  0.0542
 1578W        W 5322   4.270   4.985   0.494  0.1420 -0.0013  0.1034
 1579W        W 5323   8.971   0.290   8.624  0.1432  0.2011  0.0155
 1580W        W 5324   0.732   6.667  10.488 -0.2424  0.0591  0.1947
 1581W        W 5325   2.533   1.767   8.948 -0.0720  0.0831  0.0723
 1582W        W 5326   3.130   0.488   2.626 -0.1767 -0.4065 -0.2291
 1583W        W 5327   4.592   7.188   1.318  0.0606  0.1258 -0.1023
 1584W        W 5328   4.056   1.831   3.044  0.1164 -0.5141 -0.1115
 1585W        W 5329   3.912   4.925   2.184 -0.0215 -0.0548  0.3231
 1586W        W 5330   2.223   5.600   3.953 -0.1063  0.2187  0.2652
 1587W        W 5331   2.529   0.639  11.739 -0.0961  0.3103  0.0439
 1588W        W 5332   2.157   8.756   4.000 -0.0553  0.2777 -0.1474
 1589W        W 5333   9.079   3.137   2.191 -0.1474  0.0181 -0.1326
 1590W        W 5334   9.166   2.320   4.592  0.0346 -0.1493  0.0627
 1591W        W 5335   4.914   4.184  12.537 -0.4345  0.2506  0.0557
 1592W        W 5336   5.979   7.149   0.254  0.3360 -0.0384  0.0077
 1593W        W 5337   6.876   9.823  10.352  0.1195 -0.1573  0.1827
 1594W        W 5338   4.630   7.486   9.216 -0.2614  0.0783 -0.0737
 1595W        W 5339   5.690   6.219  10.443  0.0080  0.0430  0.1403
 1596W        W 5340   9.253   4.430   4.013  0.1397 -0.1418  0.3309
 1597W        W 5341   0.691   1.373   0.578 -0.0364  0.0975 -0.2421
 1598W        W 5342   2.837   2.285  10.021 -0.1605  0.1739 -0.1810
 1599W        W 5343   8.254   2.398   8.681  0.2230 -0.2753 -0.4689
 1600W        W 5344   2.764   4.480   8.978 -0.2011  0.1438 -0.0730
 1601W        W 5345   8.566   5.225   9.528  0.2558  0.0333 -0.0565
 1602W        W 5346   4.584   8.862   2.422 -0.0964  0.0567 -0.1449
 1603W        W 5347   5.247   2.421   3.743  0.1829  0.2072  0.5319
 1604W        W 5348   9.901   1.150  10.392  0.2620  0.0700  0.1081
 1605W        W 5349   9.292   2.431  10.817  0.0831 -0.0448  0.3321
 1606W        W 5350   2.390   4.157   3.123  0.0735 -0.1661  0.1535
 1607W        W 5351   2.528   5.385   4.313  0.0733  0.0369 -0.2076
 1608W        W 5352   3.684   1.906   3.993  0.0301  0.1948 -0.2326
 1609W        W 5353   6.918   4.378  12.409  0.3212 -0.1614 -0.1208
 1610W        W 5354   3.979   5.550   4.450  0.1396  0.1987  0.0365
 1611W        W 5355   6.087   1.711  10.833  0.6752 -0.0642 -0.1494
 1612W        W 5356   3.461   9.093  12.373 -0.1735 -0.1316  0.1024
 1613W        W 5357   5.418   4.394   1.279 -0.0938 -0.0147  0.0401
 1614W        W 5358   7.313   0.483   8.816 -0.0114 -0.2418 -0.0511
 1615W        W 5359   8.428   7.223   0.241 -0.2746  0.4571  0.1603
 1616W        W 5360   0.395   2.963   8.337  0.1061 -0.0996  0.0220
 1617W        W 5361   5.125   8.057  10.521  0.0496 -0.2439  0.0309
 1618W        W 5362   6.991   8.219   1.375 -0.0603  0.0815 -0.1705
 1619W        W 5363   1.060   2.371   3.311  0.0904 -0.1608 -0.0723
 1620W        W 5364   7.220   2.846  10.866 -0.1219 -0.0633  0.0908
 1621W        W 5365   6.477   9.699  10.086  0.0748 -0.2201  0.1107
 1622W        W 5366   7.028   4.174   0.020  0.5105 -0.1930  0.0424
 1623W        W 5367   3.321   2.419   9.337  0.2497  0.2790 -0.2734
 1624W        W 5368   2.663   3.028   2.241  0.2473  0.1010 -0.0292
 1625W        W 5369   6.234   7.970   0.709 -0.0914 -0.2594 -0.2876
 1626W        W 5370   3.701   8.271   3.526 -0.0384 -0.0514 -0.0370
 1627W        W 5371   0.567   4.074   9.194  0.0541  0.0082  0.2106
 1628W        W 5372   2.671   3.681  11.050 -0.0527  0.0390 -0.1383
 1629W        W 5373   4.223   2.008   3.973  0.3036 -0.1187 -0.1973
 1630W        W 5374   4.054   0.991   1.894  0.2690  0.3143 -0.1665
 1631W        W 5375   0.739   6.416   3.815 -0.0451  0.4352  0.1754
 1632W        W 5376   0.358   0.167   9.133 -0.0409 -0.4728  0.0922
 1633W        W 5377   8.552   6.720   9.454 -0.0001 -0.0628  0.1491
 1634W        W 5378   5.494   3.595   8.210 -0.1127  0.0401  0.0811
 1635W        W 5379   0.581   1.427   2.627 -0.1207 -0.1446 -0.2378
 1636W        W 5380   6.984   6.285  10.085  0.0964  0.4140  0.2831
 1637W        W 5381   7.926   5.613   0.446 -0.0888 -0.2343 -0.1649
 1638W        W 5382   3.518   6.527   3.986  0.0171  0.3448 -0.1615
 1639W        W 5383   3.865   4.216  11.553  0.0068  0.3661 -0.3733
 1640W        W 5384   4.073   3.998   8.361 -0.1860 -0.2736  0.0895
 1641W        W 5385   9.393   1.215   9.508 -0.0198 -0.1281 -0.1737
 1642W        W 5386   9.054   2.876   8.980 -0.0780 -0.0672  0.2555
 1643W        W 5387   7.283   2.838   9.139 -0.0377  0.1455  0.1131
 1644W        W 5388   3.887   4.613   3.143  0.1171  0.1230  0.1372
 1645W        W 5389   9.761   5.133   0.640 -0.2427 -0.2137 -0.1820
 1646W        W 5390   9.300   9.701   0.541 -0.3605  0.2703 -0.1555
 1647W        W 5391   8.208   8.147  11.740 -0.3002  0.1414  0.1973
 1648W        W 5392   7.244   6.691  11.680 -0.3006 -0.1477 -0.2005
 1649W        W 5393   3.103   1.420   2.219  0.2126  0.0762 -0.1973
 1650W        W 5394   5.244   2.602   8.479  0.2559  0.3751  0.2643
 1651W        W 5395   8.344   7.715  12.261  0.0176 -0.0832 -0.0925
 1652W        W 5396   2.261   5.644   8.382 -0.0257 -0.0668 -0.1661
 1653W        W 5397   9.441   2.927   0.190 -0.0072 -0.0862  0.1073
 1654W        W 5398   6.791   6.656   0.490 -0.0897 -0.2530  0.0480
 1655W        W 5399   3.214   0.786  10.170  0.0087 -0.1083  0.1702
 1656W        W 5400   5.318   8.670  10.360 -0.3103  0.1721  0.1994
 1657W        W 5401   5.820   5.888  10.045 -0.0575  0.2481 -0.1804
 1658W        W 5402   6.099   0.587   2.363  0.1486  0.0452 -0.0156
 1659W        W 5403   0.183   3.604   2.319 -0.0121 -0.0975  0.2184
 1660W        W 5404   9.774   3.182   0.958  0.0328 -0.3287  0.1525
 1661W        W 5405   9.487   7.112   0.232  0.1621 -0.2435 -0.0239
 1662W        W 5406   4.259   7.148  11.391  0.2445 -0.1517  0.1114
 1663W        W 5407   1.243   0.637   0.311 -0.1395 -0.0634 -0.0331
 1664W        W 5408   9.614   3.658   2.513  0.1244 -0.3657 -0.0403
 1665W        W 5409   5.184   3.414   1.838  0.1865 -0.1953  0.1560
 1666W        W 5410   4.148   7.263   1.773 -0.1417 -0.1336  0.0184
 1667W        W 5411   8.801   8.633   2.943 -0.0031 -0.1125 -0.0038
 1668W        W 5412   3.173   2.279   0.105 -0.1312  0.4137  0.1080
 1669W        W 5413   9.145   0.260   2.895 -0.3398  0.4346  0.1130
 1670W        W 5414   9.358   2.400  12.271 -0.2207  0.1024 -0.1729
 1671W        W 5415   7.024   1.440   0.177 -0.0990  0.2830  0.2555
 1672W        W 5416   4.577   2.823   9.096 -0.0721 -0.0319  0.1555
 1673W        W 5417   8.873   7.176  11.892  0.0500  0.3761 -0.0165
 1674W        W 5418   3.778   7.102  10.598  0.1613 -0.0656  0.0196
 1675W        W 5419   6.087   6.950   3.795 -0.2429 -0.1306 -0.1222
 1676W        W 5420   3.180   0.095   4.259 -0.2611  0.0850 -0.3108
 1677W        W 5421   7.578   6.167  10.500 -0.0277 -0.1560  0.3882
 1678W        W 5422   5.130   0.456  12.591  0.1479 -0.0546 -0.0458
 1679W        W 5423   9.844   5.937   1.417  0.0491 -0.1336 -0.2158
 1680W        W 5424   7.664   8.589   2.768  0.1601 -0.1222 -0.0891
 1681W        W 5425   6.563   3.088   0.768  0.0801  0.3278 -0.0021
 1682W        W 5426   8.209   0.926   8.913 -0.0681  0.1605 -0.0072
 1683W        W 5427   3.292   8.882   1.041 -0.4872 -0.1814 -0.0186
 1684W        W 5428   6.521   2.291  12.013  0.0184  0.1347 -0.2053
 1685W        W 5429   0.872   9.470  12.323  0.0480  0.1380 -0.1315
 1686W        W 5430   4.383   5.292  12.545 -0.0911 -0.0231  0.1332
 1687W        W 5431   6.640   6.328  11.347 -0.2461  0.1092 -0.0531
 1688W        W 5432   4.637   2.495  11.574 -0.0236  0.0291  0.0486
 1689W        W 5433   2.635   9.085  11.498  0.1456 -0.1613  0.0163
 1690W        W 5434   1.726   5.325  11.315 -0.0376 -0.0852 -0.3706
 1691W        W 5435   9.356   8.273  12.252  0.4024 -0.1301  0.0377
 1692W        W 5436   1.798   0.230   8.109 -0.1775  0.0214 -0.1177
 1693W        W 5437   9.822   0.229   2.318 -0.1179  0.2822 -0.2035
 1694W        W 5438   2.963   3.615   3.891  0.0341  0.1077  0.2034
 1695W        W 5439   3.062   4.711   1.102 -0.0423  0.0658  0.0205
 1696W        W 5440   3.862   9.081   0.458 -0.1270 -0.3753 -0.0325
 1697W        W 5441   6.928   8.950  12.131 -0.0628 -0.1257  0.1702
 1698W        W 5442   3.061   3.337   2.209  0.3336  0.2239 -0.0167
 1699W        W 5443   6.110   9.302  10.160  0.0738 -0.0127  0.0361
 1700W        W 5444   2.576   1.095  11.915  0.2077  0.1863 -0.0256
 1701W        W 5445   7.097   4.664   3.234 -0.1109  0.3048  0.0791
 1702W        W 5446   2.162   7.215  12.823 -0.2006 -0.1253 -0.1262
 1703W        W 5447   0.554   7.683   4.037 -0.0824  0.1684  0.0312
 1704W        W 5448   5.984   1.456   3.773 -0.0762  0.0496  0.1498
 1705W        W 5449   0.028   4.493  11.804  0.2562  0.1094  0.2766
 1706W        W 5450   4.368   6.461   1.225 -0.2869  0.1926  0.0959
 1707W        W 5451   6.025   6.556   2.967 -0.3695 -0.2069  0.1327
 1708W        W 5452   4.264   6.637   9.563 -0.0699 -0.1436 -0.0155
 1709W        W 5453   3.144   1.507   2.738  0.2219  0.0228 -0.1588
 1710W        W 5454   9.918   6.069   4.158  0.1129 -0.2130 -0.2177
 1711W        W 5455   8.328   2.546   1.896  0.0075 -0.1393 -0.0205
 1712W        W 5456   1.316   8.679   3.538  0.2375  0.1408 -0.1075
 1713W        W 5457   2.696   0.523   1.376  0.2613  0.0941 -0.1506
 1714W        W 5458   1.396   6.841   3.357  0.2065  0.0120 -0.2819
 1715W        W 5459   9.386   4.256   3.037 -0.2743  0.0623 -0.2948
 1716W        W 5460   0.920   5.764  10.939  0.2835 -0.2444  0.4025
 1717W        W 5461   1.112   8.347   2.185 -0.1332 -0.2013 -0.1197
 1718W        W 5462   3.584   6.604   8.831  0.2030  0.0905 -0.0715
 1719W        W 5463   4.621   7.309   3.639 -0.1961 -0.2332 -0.1999
 1720W        W 5464   2.078   0.590  10.432 -0.1150 -0.2040 -0.0278
 1721W        W 5465   8.841   7.731   3.916 -0.1248 -0.2406  0.1596
 1722W        W 5466   6.702   9.473  12.298  0.0144  0.0106 -0.4756
 1723W        W 5467   7.246   3.501  10.252 -0.0902 -0.3136 -0.0774
 1724W        W 5468   5.653   4.926  11.020  0.0638  0.1808 -0.2274
 1725W        W 5469   1.080   9.687   2.964  0.4836 -0.4026  0.2772
 1726W        W 5470   1.115   5.307   3.397 -0.4118  0.2209 -0.0704
 1727W        W 5471   1.268   1.907   1.126  0.1633 -0.4091  0.0070
 1728W        W 5472   7.321   1.394   8.760 -0.0302 -0.0196 -0.0447
 1729W        W 5473   5.390   5.420   1.398 -0.0000 -0.2763  0.4276
 1730W        W 5474   2.818   7.778   1.362  0.0518 -0.0662  0.1733
 1731W        W 5475   6.904   6.490  10.567  0.2838 -0.2804  0.3913
 1732W        W 5476   7.397   4.497   4.383 -0.2006  0.0668 -0.1120
 1733W        W 5477   5.679   1.115   9.994  0.4437 -0.2617  0.3272
 1734W        W 5478   2.711   6.128   1.296  0.4497  0.0722 -0.0612
 1735W        W 5479   2.731   3.400   2.593 -0.2808  0.0163 -0.1273
 1736W        W 5480   8.965   8.022   0.471 -0.3143 -0.0642  0.0909
 1737W        W 5481   2.631   7.780  10.954 -0.1864 -0.0123  0.2285
 1738W        W 5482   8.497   9.790  10.632 -0.2975 -0.0766  0.4236
 1739W        W 5483   8.690   2.524   3.612 -0.1511  0.1987  0.0681
 1740W        W 5484   7.061   6.202   0.046 -0.1058  0.2811 -0.2989
 1741W        W 5485   6.546   4.050   0.334  0.1250  0.1337 -0.2868
 1742W        W 5486   1.052   3.081   9.556  0.1329  0.0710 -0.1516
 1743W        W 5487   3.517   3.500  12.792 -0.1727 -0.2531  0.0576
 1744W        W 5488   1.655   3.713   4.260  0.0169  0.1851  0.0446
 1745W        W 5489   1.855   0.117   1.290 -0.3935 -0.1158  0.1882
 1746W        W 5490   3.822   7.745   3.512 -0.0372  0.1371 -0.2513
 1747W        W 5491   9.605   7.073   2.398  0.5087  0.1116  0.0227
 1748W        W 5492   0.565   1.118   1.088  0.0871 -0.3494  0.1236
 1749W        W 5493   7.014   4.188   3.316 -0.0104  0.2571 -0.1140
 1750W        W 5494   7.518   4.506   9.691  0.2431 -0.2164  0.2532
 1751W        W 5495   2.185   3.667  12.045 -0.2946  0.1135 -0.2354
 1752W        W 5496   9.394   4.310   3.521  0.0007 -0.2031  0.1376
 1753W        W 5497   9.540   4.468  10.947 -0.1013  0.2157 -0.0506
 1754W        W 5498   2.115   1.521  10.409  0.0972  0.3107  0.1110
 1755W        W 5499   2.742   7.060   1.001  0.0907  0.1890  0.5439
 1756W        W 5500   2.378   1.092   0.366  0.1201 -0.0183  0.1182
 1757W        W 5501   3.671   1.689   4.808 -0.0207 -0.4029 -0.2858
 1758W        W 5502   6.255   7.549   1.782  0.0269  0.2313  0.1604
 1759W        W 5503   7.454   2.366   9.334 -0.0189  0.1658  0.1765
 1760W        W 5504   1.632   2.969   1.301 -0.1946  0.0600  0.2216
 1761W        W 5505   8.458   1.250   1.454 -0.0823  0.2146 -0.1051
 1762W        W 5506   0.479   2.914   3.943  0.0484 -0.0656  0.0318
 1763W        W 5507   1.550   0.361   3.437 -0.0112  0.1549 -0.1392
 1764W        W 5508   3.349   8.165   0.016  0.2450  0.1567  0.0958
 1765W        W 5509   3.339   1.440   9.588  0.0613 -0.1177  0.1463
 1766W        W 5510   7.797   0.914   9.769 -0.1857  0.0569 -0.0863
 1767W        W 5511   7.150   2.000  11.053 -0.4962  0.4035  0.0805
 1768W        W 5512   8.068   2.411   0.988  0.2375  0.0179 -0.0267
 1769W        W 5513   4.093   9.378   9.682  0.2573 -0.3203  0.1171
 1770W        W 5514   8.297   2.870   9.903 -0.0708  0.2329  0.1208
 1771W        W 5515   3.669   3.725   0.398 -0.5222  0.1591  0.1545
 1772W        W 5516   2.809   1.081   0.599  0.1144 -0.3282 -0.0330
 1773W        W 5517   2.114   8.933   4.823  0.2767 -0.1115 -0.0229
 1774W        W 5518   0.896   2.955   8.721 -0.0175 -0.1444 -0.2072
 1775W        W 5519   7.327   7.798  10.649  0.2869  0.2330  0.0106
 1776W        W 5520   4.895   9.302  10.851  0.2008 -0.0600  0.1279
 1777W        W 5521   5.576   6.991  11.184  0.1614  0.0438 -0.1306
 1778W        W 5522   4.756   0.013  11.245 -0.1188  0.0799  0.0777
 1779W        W 5523   8.624   4.769   2.199 -0.0663  0.1307  0.1675
 1780W        W 5524   3.406   1.051  10.998 -0.1545 -0.1645 -0.0995
 1781W        W 5525   7.465   0.657   4.030  0.1685  0.1419 -0.1675
 1782W        W 5526   2.251   4.904   0.471 -0.0250 -0.0629  0.1401
 1783W        W 5527   2.636   1.573  11.616 -0.0798 -0.0633 -0.0700
 1784W        W 5528   5.864   1.269  12.731  0.0780  0.5459 -0.0730
 1785W        W 5529   5.563   7.508   3.308 -0.0834 -0.1364 -0.1721
 1786W        W 5530   0.822   8.269   3.002 -0.1174  0.2112  0.4484
 1787W        W 5531   9.489   9.383   2.857  0.1545  0.1303  0.1264
 1788W        W 5532   0.230   7.020   9.722 -0.0607 -0.0465 -0.0412
 1789W        W 5533   1.183   8.523  11.850 -0.2745 -0.0556  0.1096
 1790W        W 5534   5.782   5.902   0.664  0.2199  0.1958  0.1467
 1791W        W 5535   2.692   1.746   2.965 -0.1254 -0.0259 -0.0393
 1792W        W 5536   5.850   1.850   9.142 -0.1179  0.1278  0.0499
 1793W        W 5537   2.300   9.914   1.537 -0.0246 -0.3689  0.0089
 1794W        W 5538   9.537   0.249   1.110 -0.0426  0.0636 -0.2369
 1795W        W 5539   9.518   0.448   3.247  0.1202 -0.1483 -0.1401
 1796W        W 5540   7.034   5.545  12.284  0.2676  0.1740  0.1895
 1797W        W 5541   7.522   7.036   9.980 -0.0155 -0.2002  0.0130
 1798W        W 5542   1.810   7.798  12.608 -0.0294 -0.1395 -0.2362
 1799W        W 5543   7.341   9.234  11.822 -0.0068 -0.3646  0.0170
 1800W        W 5544   7.492   1.261  10.217 -0.1003 -0.1498 -0.2057
 1801W        W 5545   4.143   1.106   1.328  0.0761 -0.3195 -0.0238
 1802W        W 5546   0.659   6.782  11.988 -0.1467  0.1061  0.0179
 1803W        W 5547   9.605   3.470   0.585 -0.0583  0.1157  0.1697
 1804W        W 5548   0.376   3.107   2.035  0.3953 -0.1265  0.3454
 1805W        W 5549   5.590   4.485   4.075  0.1360  0.0391 -0.0498
 1806W        W 5550   3.875   1.398   2.105  0.1217 -0.3239  0.2068
 1807W        W 5551   1.270   3.473  10.597 -0.0459  0.0233  0.1935
 1808W        W 5552   7.335   4.460   0.308  0.1452  0.3817 -0.1915
 1809W        W 5553   7.177   5.889  10.666  0.2118 -0.0152 -0.0430
 1810W        W 5554   6.546   2.719   1.556 -0.0801  0.0200 -0.0156
 1811W        W 5555   5.448   4.064   7.914 -0.0150  0.3074  0.1973
 1812W        W 5556   1.107   2.908   2.850  0.0507 -0.2817  0.0226
 1813W        W 5557   7.026   6.047  11.512  0.2177 -0.0256  0.0746
 1814W        W 5558   4.753   0.408   9.539 -0.1339  0.2457  0.0062
 1815W        W 5559   4.038   2.110   9.568 -0.1947  0.0910  0.1537
 1816W        W 5560   1.442   3.094   1.942 -0.0769  0.0290 -0.1295
 1817W        W 5561   1.466   2.605   3.934  0.1636  0.1041 -0.0026
 1818W        W 5562   2.790   0.142   9.333  0.3362 -0.0688  0.0055
 1819W        W 5563   2.575   4.685   0.887 -0.1058  0.0422  0.1547
 1820W        W 5564   3.379   2.492   0.756 -0.1053  0.1793  0.0339
 1821W        W 5565   6.014   4.229   3.802 -0.2968  0.1526  0.1456
 1822W        W 5566   7.516   6.938  11.996 -0.4033  0.1291  0.0929
 1823W        W 5567   9.098   0.799   9.508 -0.0222  0.1294 -0.0222
 1824W        W 5568   7.319   3.638  11.268 -0.0871  0.0075  0.0274
 1825W        W 5569   1.871   0.153   1.787  0.1879 -0.2516 -0.2258
 1826W        W 5570   9.074   8.679   0.326 -0.2887  0.1238 -0.1632
 1827W        W 5571   0.509   7.940   0.522 -0.0294  0.0814 -0.1983
 1828W        W 5572   1.204   5.549   3.812  0.1953 -0.0715 -0.3548
 1829W        W 5573   6.534   6.808  11.526  0.1519  0.3741  0.0605
 1830W        W 5574   9.125   3.340   0.932  0.1349  0.1727 -0.2005
 1831W        W 5575   7.853   2.733   9.636 -0.0242 -0.2157 -0.1049
 1832W        W 5576   0.064   4.136  10.858  0.2388 -0.0030  0.0071
 1833W        W 5577   7.892   3.006   2.353 -0.0010 -0.1200  0.1318
 1834W        W 5578   9.515   3.871  10.259  0.0547  0.1664  0.0787
 1835W        W 5579   6.671   1.988  10.381  0.1968  0.0573 -0.1579
 1836W        W 5580   1.598   5.021   9.051  0.2654  0.0244  0.0665
 1837W        W 5581   9.366   8.543  10.043 -0.0129 -0.3029  0.0902
 1838W        W 5582   0.688   6.203   1.031 -0.0484  0.2253 -0.3371
 1839W        W 5583   0.760   4.271   0.406  0.0641  0.0272 -0.0649
 1840W        W 5584   8.444   5.281   0.912  0.2088  0.0913  0.0810
 1841W        W 5585   5.432   0.619   0.516  0.0656  0.0389  0.0414
 1842W        W 5586   9.103   7.542   0.682  0.1625  0.1923  0.3261
 1843W        W 5587   9.105   0.097   0.903  0.1540 -0.2272 -0.1348
 1844W        W 5588   2.545   4.104  12.429  0.0096  0.0058 -0.0053
 1845W        W 5589   0.763   9.210  10.383  0.1218  0.0855 -0.1608
 1846W        W 5590   3.112   1.275  10.061 -0.0513 -0.3547 -0.1253
 1847W        W 5591   3.074   5.138  10.666 -0.0173  0.0264 -0.1843
 1848W        W 5592   0.753   5.403  11.779  0.1923  0.0022 -0.1781
 1849W        W 5593   4.295   9.023  12.819 -0.2261  0.0977 -0.0299
 1850W        W 5594   4.477   3.608   2.534  0.1921  0.2596  0.0317
 1851W        W 5595   5.492   1.229   0.243  0.2276  0.4066 -0.0711
 1852W        W 5596   4.221   1.122   4.301  0.1504 -0.0022  0.2779
 1853W        W 5597   7.893   6.615   9.674  0.0222 -0.0437 -0.0582
 1854W        W 5598   9.104   2.399   8.715 -0.1931  0.3949 -0.0995
 1855W        W 5599   7.934   9.264   1.567 -0.2994 -0.3191 -0.0553
 1856W        W 5600   8.819   1.740   8.202 -0.1544  0.1690 -0.1336
 1857W        W 5601   0.104   7.368  11.133 -0.0258  0.2410 -0.0560
 1858W        W 5602   9.534   0.949   0.082 -0.2055 -0.0642 -0.2393
 1859W        W 5603   4.247   3.642   9.875  0.0324 -0.0585 -0.0625
 1860W        W 5604   5.305   4.440   0.536 -0.1501  0.4210 -0.1373
 1861W        W 5605   4.081   3.173  10.071  0.0406  0.1316 -0.0427
 1862W        W 5606   1.341   8.266   3.229 -0.1673 -0.2975 -0.1610
 1863W        W 5607   4.118   1.864  11.228  0.2616  0.2267 -0.3678
 1864W        W 5608   6.725   9.462   9.738  0.0652  0.3046 -0.1076
 1865W        W 5609   4.293   6.347   9.206 -0.2458  0.0185 -0.1650
 1866W        W 5610   8.513   2.163  11.410  0.0859 -0.1758  0.0006
 1867W        W 5611   4.494   4.203  10.675 -0.3786  0.2758 -0.0454
 1868W        W 5612   6.476   1.654   3.617  0.1780  0.0322  0.3531
 1869W        W 5613   7.754   2.916  10.890  0.2484  0.2886 -0.3326
 1870W        W 5614   4.194   8.989   9.993 -0.0239 -0.4524  0.4133
 1871W        W 5615   1.811   9.726   2.648  0.2108 -0.0687  0.0945
 1872W        W 5616   1.714   1.289   1.677  0.0876  0.0366  0.0226
 1873W        W 5617   3.607   0.115   9.767 -0.1222 -0.2338  0.0924
 1874W        W 5618   2.544   6.700  12.156  0.2169 -0.1585  0.2981
 1875W        W 5619   5.223   6.862  12.412  0.0879  0.2226 -0.4020
 1876W        W 5620   1.844   9.733   9.099 -0.0045  0.1930 -0.0625
 1877W        W 5621   9.756   6.183   3.456 -0.0825 -0.1467 -0.0023
 1878W        W 5622   2.522   6.302   4.791 -0.3299  0.1284  0.0764
 1879W        W 5623   9.335   0.742   0.609  0.0958 -0.2012 -0.4764
 1880W        W 5624   1.501   2.004  12.854 -0.0354 -0.2436 -0.1013
 1881W        W 5625   3.842   2.797  12.607 -0.1111 -0.0568 -0.2512
 1882W        W 5626   9.770   8.381   1.097 -0.2054 -0.0425  0.1974
 1883W        W 5627   0.311   0.365   8.144  0.2344  0.3000  0.2304
 1884W        W 5628   6.678   2.121   0.549 -0.3099 -0.1501  0.2481
 1885W        W 5629   6.890   2.992   9.622  0.0551 -0.0351  0.2260
 1886W        W 5630   0.143   3.634  10.992 -0.0417  0.2035  0.2979
 1887W        W 5631   5.893   6.789   1.494 -0.1927 -0.1898 -0.0086
 1888W        W 5632   3.068   3.990   9.613 -0.2003  0.3004  0.1627
 1889W        W 5633   8.933   9.126   0.094  0.2173 -0.0872 -0.3043
 1890W        W 5634   8.933   8.309   1.617 -0.0237 -0.1569  0.1778
 1891W        W 5635   8.979   2.995  11.783  0.0829 -0.0091  0.3681
 1892W        W 5636   0.029   3.657  11.506  0.2947 -0.0155  0.2592
 1893W        W 5637   3.472   0.539   3.009  0.0392 -0.2648  0.3116
 1894W        W 5638   2.913   9.639   2.684  0.1864  0.2842 -0.0638
 1895W        W 5639   9.787   3.875   3.702  0.2327 -0.3573 -0.1052
 1896W        W 5640   0.708   5.847  10.484  0.0541  0.4117  0.2967
 1897W        W 5641   9.678   4.638   9.666 -0.2871 -0.1043  0.2228
 1898W        W 5642   0.760   7.782  10.079 -0.1649 -0.0941  0.2609
 1899W        W 5643   9.304   6.070   8.807 -0.2607 -0.0010  0.1972
 1900W        W 5644   1.082   3.489   0.164 -0.0546  0.2315 -0.3239
 1901W        W 5645   8.709   3.118  10.867 -0.1102 -0.0122 -0.4463
 1902W        W 5646   5.220   8.753   3.631 -0.1013 -0.1924  0.0714
 1903W        W 5647   3.154   5.518   9.591  0.3435  0.2507 -0.0766
 1904W        W 5648   6.823   6.521   2.077  0.0483 -0.3181 -0.1505
 1905W        W 5649   2.636   9.730   9.739 -0.0815 -0.0609 -0.2394
 1906W        W 5650   0.992   9.657   9.564 -0.0977 -0.0682 -0.0064
 1907W        W 5651   3.771   4.810   2.675 -0.3060 -0.3020 -0.1691
 1908W        W 5652   9.769   3.758  12.692 -0.1264 -0.0430  0.1135
 1909W        W 5653   5.147   0.845   0.136  0.1933  0.0612 -0.0258
 1910W        W 5654   6.738   0.866   0.072 -0.1996 -0.1360  0.0038
 1911W        W 5655   9.168   3.321   3.431 -0.0166 -0.0759  0.0215
 1912W        W 5656   4.532   9.167   9.399  0.0304  0.3726 -0.0156
 1913W        W 5657   3.951   4.569   9.460 -0.2524  0.0631 -0.0316
 1914W        W 5658   8.962   2.100   3.047 -0.0622  0.2635  0.1523
 1915W        W 5659   7.659   7.839   0.680  0.2490  0.0062  0.2665
 1916W        W 5660   3.961   6.227   2.740 -0.1624  0.2970  0.2246
 1917W        W 5661   4.376   3.630  12.093  0.0623  0.0586  0.0568
 1918W        W 5662   0.124   0.134   3.196 -0.3881 -0.2830  0.2019
 1919W        W 5663   0.517   8.460   4.793 -0.0227  0.1617 -0.0212
 1920W        W 5664   7.209   9.234   0.823 -0.2593 -0.1997 -0.3408
 1921W        W 5665   8.641   3.307   2.252  0.2971 -0.1450  0.1214
 1922W        W 5666   3.251   7.403   2.088  0.0469 -0.0175 -0.2106
 1923W        W 5667   5.811   4.221   9.815 -0.4324 -0.1203  0.0280
 1924W        W 5668   9.079   5.204   3.532 -0.0843  0.1846 -0.1151
 1925W        W 5669   1.085   5.511   2.011 -0.2013 -0.0470  0.3345
 1926W        W 5670   2.745   3.387   9.706  0.0496  0.1263  0.1655
 1927W        W 5671   4.884   6.998  11.866 -0.1465 -0.0447 -0.1703
 1928W        W 5672   8.981   7.513  12.318  0.3297  0.0080  0.0094
 1929W        W 5673   5.471   7.191   1.414 -0.2123 -0.0070  0.2628
 1930W        W 5674   3.050   0.884   2.297  0.1361  0.4225 -0.0139
 1931W        W 5675   8.764   6.486  12.342 -0.0669 -0.2852 -0.2120
 1932W        W 5676   1.076   0.872  12.807 -0.0264 -0.0595  0.1414
 1933W        W 5677   2.845   0.597   0.836  0.2430 -0.1655 -0.2136
 1934W        W 5678   0.826   4.482   2.461  0.3837 -0.0877  0.4891
 1935W        W 5679   0.208   4.140   2.421 -0.1146  0.1506  0.1334
 1936W        W 5680   3.222   0.018   1.862  0.2351 -0.1379 -0.2836
 1937W        W 5681   2.315   8.011   3.221  0.1174  0.2491  0.2858
 1938W        W 5682   3.837   2.128   3.485 -0.0933  0.2628 -0.0481
 1939W        W 5683   9.309   2.012  11.996 -0.1663  0.2678  0.0396
 1940W        W 5684   2.763   6.167   0.704  0.1273  0.2828 -0.1562
 1941W        W 5685   3.831   3.214   2.765  0.1104  0.2692  0.0237
 1942W        W 5686   2.240   6.177   2.131 -0.0249  0.3256  0.1132
 1943W        W 5687   2.001   5.126   2.000 -0.3479  0.2607 -0.2850
 1944W        W 5688   1.461   0.057   2.868  0.2857  0.0811 -0.2407
 1945W        W 5689   3.973   0.425   9.602  0.2186  0.0087  0.4116
 1946W        W 5690   7.993   1.782   1.684 -0.4112 -0.0381 -0.1026
 1947W        W 5691   0.937   8.685   9.649  0.1204 -0.0412 -0.0078
 1948W        W 5692   3.244   8.827  10.014 -0.1703  0.1404  0.1894
 1949W        W 5693   4.797   4.177   3.948  0.1911  0.0275  0.0507
 1950W        W 5694   3.461   4.933   8.844 -0.1339 -0.0387  0.0522
 1951W        W 5695   6.440   3.884  10.764 -0.3023  0.3306  0.1947
 1952W        W 5696   5.804   8.909   1.632 -0.1149  0.1696 -0.1936
 1953W        W 5697   6.131   7.376   2.239  0.0529 -0.0832  0.0928
 1954W        W 5698   7.055   6.249  10.997 -0.1078 -0.3724 -0.0216
 1955W        W 5699   3.346   2.534  12.563 -0.2222  0.1424  0.0979
 1956W        W 5700   2.948   5.536   0.548  0.1309  0.4495  0.0386
 1957W        W 5701   8.616   3.761   8.743 -0.2709  0.0301 -0.0271
 1958W        W 5702   1.357   7.888  12.389 -0.3152  0.1713 -0.0264
 1959W        W 5703   4.004   8.492   3.103  0.3286 -0.1119  0.2704
 1960W        W 5704   1.236   6.189   0.784 -0.1026  0.1335  0.2459
 1961W        W 5705   3.565   1.117   9.965 -0.0729  0.3677 -0.1813
 1962W        W 5706   2.214   3.510   9.768  0.1018  0.0483 -0.1697
 1963W        W 5707   5.256   8.485   3.104 -0.1493  0.0481 -0.0702
 1964W        W 5708   1.855   0.305   9.266 -0.0363 -0.1470 -0.1816
 1965W        W 5709   4.897   2.792   0.634  0.0506  0.2022  0.3034
 1966W        W 5710   2.270   1.343   3.032  0.0449  0.1185 -0.1480
 1967W        W 5711   5.121   3.772   4.095  0.0626 -0.2083  0.2646
 1968W        W 5712   4.460   0.290  10.798  0.1943  0.0198 -0.0757
 1969W        W 5713   0.958   3.625   9.365  0.1327  0.1174  0.1104
 1970W        W 5714   2.494   8.752   5.745 -0.1930 -0.0711  0.0975
 1971W        W 5715   7.302   0.444   2.558  0.3703  0.1440  0.2162
 1972W        W 5716   1.413   1.452  10.453 -0.2549 -0.2385  0.2457
 1973W        W 5717   4.397   0.904   3.114 -0.2459  0.0208 -0.1088
 1974W        W 5718   8.416   5.620   0.513  0.0711  0.0992  0.0255
 1975W        W 5719   1.044   7.855   1.297  0.2184  0.0156 -0.0551
 1976W        W 5720   6.607   4.832   9.956 -0.1714 -0.2332  0.0833
 1977W        W 5721   3.717   8.372   1.321 -0.1591 -0.1434 -0.1996
 1978W        W 5722   9.706   8.122  11.939  0.1665  0.1773 -0.0479
 1979W        W 5723   3.069   5.578  12.249 -0.0562 -0.1478  0.3072
 1980W        W 5724   6.751   1.745  12.874  0.0347 -0.2828  0.1935
 1981W        W 5725   4.362   2.937   1.722 -0.2230  0.0366  0.1853
 1982W        W 5726   5.486   9.630  10.162  0.1074 -0.1475  0.3413
 1983W        W 5727   0.602   5.946  11.912 -0.3636 -0.0454  0.0249
 1984W        W 5728   0.782   3.698   3.714  0.2525  0.0478  0.2510
 1985W        W 5729   7.889   7.756  12.474  0.1450 -0.1845  0.0135
 1986W        W 5730   9.747   0.565   8.282 -0.1578 -0.0966 -0.2377
 1987W        W 5731   1.751   7.527  11.157  0.2221 -0.1523  0.1824
 1988W        W 5732   0.876   0.697  12.343 -0.1433 -0.0679  0.1857
 1989W        W 5733   5.284   2.310  12.640 -0.0141  0.1064 -0.0949
 1990W        W 5734   0.224   2.014   3.866  0.2231 -0.2627 -0.0727
 1991W        W 5735   0.068   0.897   4.228 -0.2754  0.4097  0.0375
 1992W        W 5736   5.263   7.709   0.300 -0.1145  0.3127  0.0459
 1993W        W 5737   4.603   6.792  11.328 -0.4005  0.0371  0.1856
 1994W        W 5738   8.949   7.095   0.354  0.1808 -0.1683  0.2197
 1995W        W 5739   6.434   5.313   2.577 -0.0062  0.0305  0.2770
 1996W        W 5740   0.638   3.107   1.643  0.0005  0.0217  0.2955
 1997W        W 5741   1.274   0.895   9.671 -0.1564 -0.0084 -0.0402
 1998W        W 5742   2.736   1.493   0.165 -0.3210  0.1366  0.0118
 1999W        W 5743   6.686   1.777   1.831 -0.1630  0.3287 -0.0824
 2000W        W 5744   7.886   7.874  10.297 -0.0033  0.3111  0.0339
 2001W        W 5745   6.932   4.129  10.697 -0.1526 -0.0571  0.0382
 2002W        W 5746   3.067   2.198   1.051  0.1667 -0.1057  0.0478
 2003W        W 5747   7.934   2.932   4.125  0.0468 -0.0492 -0.4088
 2004W        W 5748   6.202   5.144  10.737 -0.0907  0.2222  0.0763
 2005W        W 5749   1.821   9.293  11.440  0.0280  0.3375  0.0070
 2006W        W 5750   8.181   6.210   9.660  0.0119 -0.0717 -0.2381
 2007W        W 5751   0.417   2.641   2.116  0.3479  0.2237 -0.1081
 2008W        W 5752   4.525   6.362  11.163  0.2595 -0.2809  0.1331
 2009W        W 5753   2.833   0.157   2.302 -0.1153 -0.0314  0.2966
 2010W        W 5754   6.174   6.168   2.702  0.0529  0.1310 -0.1599
 2011W        W 5755   0.996   5.270   9.883  0.0812  0.3671 -0.1433
 2012W        W 5756   6.251   8.981  10.589 -0.3449 -0.1170 -0.1233
 2013W        W 5757   1.500   1.275   2.595  0.3019  0.0981  0.1438
 2014W        W 5758   4.028   6.317   3.916  0.0099  0.1081  0.0695
 2015W        W 5759   2.155   4.211  12.060  0.1110  0.0244  0.2821
 2016W        W 5760   2.600   7.216   3.758 -0.1394 -0.0159  0.0498
 2017W        W 5761   3.560   0.518   0.579  0.0500  0.0429  0.0759
 2018W        W 5762   0.060   3.194   3.823 -0.0368  0.2848 -0.1815
 2019W        W 5763   8.320   2.836   9.365 -0.2301  0.0429 -0.1860
 2020W        W 5764   0.082   5.269  10.173  0.0174 -0.2785 -0.1843
 2021W        W 5765   1.250   4.516  10.943  0.3658  0.4920  0.2371
 2022W        W 5766   0.767   5.587   2.965 -0.2256 -0.2063 -0.2791
 2023W        W 5767   4.129   7.212   9.303 -0.0790  0.3808 -0.1552
 2024W        W 5768   9.445   3.623  11.287 -0.1715 -0.1597 -0.1629
 2025W        W 5769   3.336   6.202   9.002  0.2872  0.2046 -0.0962
 2026W        W 5770   2.180   9.330   2.582  0.1101  0.1734  0.4256
 2027W        W 5771   3.804   6.621  10.654  0.0665  0.2965  0.1283
 2028W        W 5772   4.197   1.024   4.817  0.1963  0.0630  0.3414
 2029W        W 5773   8.982   1.494   1.557 -0.0141 -0.1805  0.2447
 2030W        W 5774   2.099   8.856  11.161  0.0643  0.1342 -0.1729
 2031W        W 5775   0.271   1.900  12.227  0.0578 -0.1526  0.1299
 2032W        W 5776   8.407   6.633  10.381  0.2615 -0.5085 -0.0434
 2033W        W 5777   0.757   8.228   0.213 -0.0952 -0.0023  0.0508
 2034W        W 5778   1.470   2.608  10.054 -0.1563  0.0979  0.0727
 2035W        W 5779   3.314   0.652  10.698 -0.2121  0.3620 -0.0718
 2036W        W 5780   5.587   6.803  11.626  0.3787 -0.0118  0.2751
 2037W        W 5781   4.148   7.178   3.519  0.0160  0.1607 -0.0880
 2038W        W 5782   7.374   8.907   3.382 -0.0398  0.3600  0.0131
 2039W        W 5783   4.652   7.183  10.902 -0.0149 -0.2064  0.0983
 2040W        W 5784   8.668   5.340  10.745  0.1142 -0.2609  0.0107
 2041W        W 5785   2.739   4.626  12.586  0.0279 -0.0490 -0.0843
 2042W        W 5786   6.996   6.819   0.055  0.0729 -0.1528 -0.2896
 2043W        W 5787   4.125   8.304   3.755 -0.1986 -0.0183  0.0154
 2044W        W 5788   9.052   2.818   3.381  0.1615 -0.2502  0.2159
 2045W        W 5789   0.089   7.317   1.051  0.0062 -0.2802  0.1662
 2046W        W 5790   8.088   9.166   2.531 -0.1562 -0.1205 -0.1421
 2047W        W 5791   3.343   4.019   8.420  0.3510  0.1913  0.0638
 2048W        W 5792   9.652   1.938   3.735 -0.2392  0.0731 -0.0795
 2049W        W 5793   1.416   1.795   2.588 -0.1007  0.2196 -0.3974
 2050W        W 5794   0.835   1.247  12.544 -0.4205 -0.1331 -0.0060
 2051W        W 5795   0.077   7.468   3.171  0.0618  0.1887 -0.2276
 2052W        W 5796   9.411   1.212  10.642  0.2875 -0.2618 -0.1213
 2053W        W 5797   5.882   1.885   3.470 -0.1736  0.3081 -0.2775
 2054W        W 5798   1.560   8.200   1.575 -0.1534 -0.2310  0.0100
 2055W        W 5799   9.519   1.114   2.001  0.2600  0.0971  0.1114
 2056W        W 5800   4.478   6.714   2.204  0.2330 -0.0897  0.3242
 2057W        W 5801   5.951   8.234   2.391 -0.1893 -0.3099 -0.3098
 2058W        W 5802   4.868   4.874  10.830  0.2514  0.2080  0.4053
 2059W        W 5803   1.781   6.223   0.784 -0.0943  0.1596  0.0599
 2060W        W 5804   7.510   7.742   2.288  0.0791  0.3275  0.3365
 2061W        W 5805   7.347   2.411  12.433 -0.1931  0.0101  0.1712
 2062W        W 5806   1.463   1.323  12.062 -0.0394  0.1626 -0.5117
 2063W        W 5807   4.151   3.594   4.177  0.1561 -0.3292  0.0928
 2064W        W 5808   4.634   2.173   2.870 -0.2001 -0.1086  0.0670
 2065W        W 5809   2.508   7.232   1.389 -0.0519 -0.0770 -0.2474
 2066W        W 5810   4.541   7.219  10.088  0.0471 -0.1303 -0.0858
 2067W        W 5811   8.982   7.838  10.583  0.3893  0.0565 -0.2242
 2068W        W 5812   9.829   6.178   9.630  0.0448  0.3271 -0.2350
 2069W        W 5813   7.984   3.201   8.513  0.0832  0.0603  0.0324
 2070W        W 5814   2.740   0.738   3.641 -0.1984 -0.1742 -0.1560
 2071W        W 5815   5.165   3.155  11.907 -0.0813  0.0030 -0.0505
 2072W        W 5816   9.228   7.655   3.489  0.2200 -0.2264  0.1924
 2073W        W 5817   8.883   2.749  10.190  0.4274 -0.1647 -0.0166
 2074W        W 5818   2.050   7.671  10.771  0.0107  0.3124 -0.3713
 2075W        W 5819   3.087   5.521   7.775  0.0312 -0.0490 -0.0812
 2076W        W 5820   6.460   7.780   0.347  0.0032 -0.0790  0.1436
 2077W        W 5821   4.111   0.110   1.641 -0.0600 -0.1883 -0.1191
 2078W        W 5822   4.819   9.615   4.459  0.4650  0.1437  0.0215
 2079W        W 5823   0.108   9.223   2.628 -0.0175  0.1328  0.1223
 2080W        W 5824   0.520   8.327   1.805  0.1259  0.2461  0.3006
 2081W        W 5825   5.891   3.221  10.320  0.0556 -0.1702  0.0229
 2082W        W 5826   6.109   2.302  11.679  0.1918 -0.1692  0.0285
 2083W        W 5827   9.410   0.378   3.823  0.0871  0.0442 -0.0651
 2084W        W 5828   9.676   9.155  11.764  0.0657 -0.3918 -0.0005
 2085W        W 5829   6.980   7.942   9.736  0.2814 -0.1952 -0.0454
 2086W        W 5830   9.361   4.500   1.491 -0.2934  0.0414  0.2204
 2087W        W 5831   4.928   2.846   3.968  0.1883 -0.1181  0.1894
 2088W        W 5832   3.534   4.875  11.672 -0.0272 -0.1006 -0.1546
 2089W        W 5833   7.994   1.068   1.432 -0.1049  0.1822 -0.0456
 2090W        W 5834   0.619   1.274   3.977 -0.0288 -0.2006  0.3192
 2091W        W 5835   4.278   4.945   2.865  0.3963 -0.0496  0.0736
 2092W        W 5836   0.576   2.762  11.958 -0.0493  0.2657  0.0447
 2093W        W 5837   8.085   9.699  11.587 -0.2748  0.2758  0.1068
 2094W        W 5838   8.723   7.626   0.311 -0.4657  0.2785 -0.2029
 2095W        W 5839   4.422   8.087   1.862  0.0231 -0.0802  0.2577
 2096W        W 5840   9.248   7.917  11.883 -0.0563  0.1108 -0.0682
 2097W        W 5841   1.076   9.488  11.911  0.1076  0.1088 -0.1444
 2098W        W 5842   6.955   1.597   3.530  0.1798 -0.1704 -0.3020
 2099W        W 5843   1.081   4.115   0.096 -0.2306  0.1946 -0.1058
 2100W        W 5844   9.533   2.574   2.650  0.0931 -0.1335 -0.0785
 2101W        W 5845   3.376   0.905   0.237  0.0380  0.0231 -0.2925
 2102W        W 5846   1.382   0.824   0.870  0.1259  0.1038 -0.0327
 2103W        W 5847   9.208   0.617   1.971 -0.2654 -0.1932  0.1913
 2104W        W 5848   6.935   7.676   1.144 -0.1730  0.0728 -0.1835
 2105W        W 5849   0.787   2.531   2.775 -0.0070 -0.2472 -0.0516
 2106W        W 5850   9.028   6.970   2.280 -0.1100 -0.3104 -0.1950
 2107W        W 5851   8.955   0.609   9.062 -0.2454  0.0694  0.0692
 2108W        W 5852   4.042   3.110   7.837  0.0922 -0.3254 -0.3801
 2109W        W 5853   4.251   8.861   4.537  0.2827  0.2383  0.3397
 2110W        W 5854   4.202   5.319   0.101  0.0419  0.0819  0.1868
 2111W        W 5855   8.768   1.337   3.763 -0.2670  0.0696 -0.1432
 2112W        W 5856   5.169   1.314  12.669  0.4999  0.1165  0.3398
 2113W        W 5857   1.446   4.814   1.548 -0.1693 -0.0274  0.5213
 2114W        W 5858   9.477   6.281   2.624 -0.0583  0.0679 -0.3234
 2115W        W 5859   5.158   1.159   3.287 -0.3744  0.1526 -0.2928
 2116W        W 5860   0.690   6.165   9.108 -0.2332 -0.1590  0.2080
 2117W        W 5861   0.364   4.011  11.229 -0.0619 -0.3600  0.1199
 2118W        W 5862   9.607   8.914   2.672 -0.0420 -0.0956  0.0133
 2119W        W 5863   1.256   2.205   9.876 -0.0298  0.2338 -0.2110
 2120W        W 5864   0.280   9.379  10.419  0.2757 -0.0430  0.0146
 2121W        W 5865   1.708   4.440   9.676 -0.0712 -0.0050  0.1150
 2122W        W 5866   5.669   7.005   2.271  0.0532  0.2655 -0.3076
 2123W        W 5867   9.442   9.339   2.331 -0.0053 -0.0472 -0.0446
 2124W        W 5868   9.640   3.001  10.249 -0.0107  0.2888  0.0919
 2125W        W 5869   5.186   9.735  12.135 -0.0856 -0.0616  0.0755
 2126W        W 5870   4.589   3.314  10.050  0.0671 -0.1500  0.2933
 2127W        W 5871   4.961   7.989   3.948 -0.2451  0.0241 -0.0884
 2128W        W 5872   8.536   4.498   3.101 -0.4217  0.0607  0.0113
 2129W        W 5873   4.467   3.931   2.151  0.3464  0.1022  0.2103
 2130W        W 5874   4.952   7.726  11.523  0.2807  0.2245  0.3866
 2131W        W 5875   5.686   4.742   0.266 -0.0675  0.0915 -0.2956
 2132W        W 5876   5.060   2.699  11.835  0.0661 -0.1400 -0.2673
 2133W        W 5877   6.529   5.055   1.311  0.0882 -0.0702 -0.1454
 2134W        W 5878   4.412   2.741   4.681  0.1670 -0.0651 -0.1113
 2135W        W 5879   3.629   8.732  10.961 -0.0667  0.0810  0.1156
 2136W        W 5880   2.317   9.667   0.304 -0.1629  0.0074 -0.2919
 2137W        W 5881   8.357   3.711   2.136 -0.2412  0.1566  0.4828
 2138W        W 5882   0.001   0.709  10.121 -0.0416 -0.0478  0.1907
 2139W        W 5883   8.048   4.676  10.791 -0.1256 -0.1440  0.0742
 2140W        W 5884   5.601   6.832   2.775 -0.0202 -0.1745  0.0352
 2141W        W 5885   9.387   4.897   2.352  0.2057  0.0793 -0.2595
 2142W        W 5886   6.479   4.868   0.685  0.0871 -0.2065  0.1546
 2143W        W 5887   3.316   2.340  11.626  0.0136  0.2163 -0.1034
 2144W        W 5888   6.342   3.305   8.159 -0.0399 -0.0622 -0.0157
 2145W        W 5889   0.452   3.710   9.539 -0.0228  0.1323 -0.0183
 2146W        W 5890   6.253   9.811   9.440  0.1124 -0.2759  0.1522
 2147W        W 5891   6.219   6.010   0.268 -0.5475  0.2919  0.1176
 2148W        W 5892   2.642   0.581   9.559 -0.0598 -0.1431  0.1700
 2149W        W 5893   3.538   7.805  11.735 -0.2867  0.0965  0.3443
 2150W        W 5894   3.513   4.539   0.302  0.0213 -0.3408 -0.1590
 2151W        W 5895   8.736   0.269   1.184  0.0402  0.2356  0.3938
 2152W        W 5896   0.713   5.426   1.104  0.1909  0.1610  0.0785
 2153W        W 5897   3.870   0.141   0.246 -0.0318  0.0321 -0.0092
 2154W        W 5898   1.820   9.840   4.501 -0.0798 -0.2101 -0.3344
 2155W        W 5899   6.003   5.953   9.031 -0.1968 -0.1010  0.3285
 2156W        W 5900   7.082   0.492   9.335  0.2763 -0.0509  0.0497
 2157W        W 5901   2.754   0.643   2.018  0.0177 -0.0740 -0.1535
 2158W        W 5902   8.315   3.542   3.490 -0.3252  0.0824 -0.1649
 2159W        W 5903   3.703   9.612  11.177  0.1105  0.3464 -0.3840
 2160W        W 5904   3.602   0.294  10.220  0.1856  0.0787  0.0887
 2161W        W 5905   5.522   2.210   9.031 -0.0401 -0.2903  0.1785
 2162W        W 5906   6.689   5.823   0.102  0.1253 -0.1889 -0.2628
 2163W        W 5907   7.891   5.695   4.178 -0.3801 -0.1794  0.2500
 2164W        W 5908   9.651   0.110  10.892 -0.0161  0.0466 -0.2470
 2165W        W 5909   7.141   5.135  12.006 -0.2113  0.0059  0.2132
 2166W        W 5910   4.154   4.173  11.937 -0.3296 -0.1089  0.1148
 2167W        W 5911   1.100   2.357   0.985  0.2092 -0.2337  0.2805
 2168W        W 5912   5.287   4.361   9.614  0.0995 -0.2565  0.2851
 2169W        W 5913   5.347   4.368   1.910  0.1920  0.2213 -0.2076
 2170W        W 5914   5.384   0.693   3.449  0.1854  0.1015  0.0566
 2171W        W 5915   2.486   2.065   0.704  0.2539 -0.3294  0.0097
 2172W        W 5916   0.089   5.917  12.805  0.1211 -0.2016  0.1838
 2173W        W 5917   1.093   6.838   8.405  0.0093 -0.2818  0.0793
 2174W        W 5918   6.344   1.876  11.822 -0.0398 -0.0205  0.0865
 2175W        W 5919   5.021   1.968   9.085 -0.3522 -0.0667 -0.1417
 2176W        W 5920   2.615   4.041  11.361  0.2469  0.0278 -0.2655
 2177W        W 5921   8.055   4.206   1.241 -0.2329 -0.0302  0.2557
 2178W        W 5922   2.470   0.118  10.467 -0.1301  0.0045 -0.1446
 2179W        W 5923   4.098   3.716   0.109 -0.0486  0.1216  0.0162
 2180W        W 5924   5.779   4.328   8.833 -0.0576 -0.0317  0.1457
 2181W        W 5925   5.382   0.670  11.814  0.0403  0.0658 -0.0463
 2182W        W 5926   7.383   0.124  10.258 -0.0850  0.1865 -0.3814
 2183W        W 5927   0.535   8.597   4.198  0.1011  0.0618  0.1949
 2184W        W 5928   9.826   3.941   2.089  0.0999  0.4172  0.1077
 2185W        W 5929   2.524   5.943   3.715 -0.2027  0.1218 -0.1356
 2186W        W 5930   4.833   6.289   2.273  0.0769 -0.1342  0.0786
 2187W        W 5931   0.360   8.154   3.830  0.1414  0.0156  0.2631
 2188W        W 5932   8.750   7.364   2.689 -0.0607  0.0281  0.0826
 2189W        W 5933   7.692   1.396  12.673  0.0319  0.0853 -0.1082
 2190W        W 5934   6.185   2.780   2.214  0.2193 -0.0521 -0.2219
 2191W        W 5935   4.062   3.874   1.884 -0.1046  0.0473  0.0084
 2192W        W 5936   6.833   1.429   2.506 -0.1409 -0.0112  0.0529
 2193W        W 5937   0.736   6.470   2.962 -0.0775 -0.3860 -0.0565
 2194W        W 5938   2.076   8.833   9.259 -0.1034  0.2831 -0.0721
 2195W        W 5939   1.751   2.152   4.081 -0.0320  0.3137  0.0553
 2196W        W 5940   7.064   8.793   1.770 -0.0449  0.2186  0.2923
 2197W        W 5941   1.684   6.834   4.549 -0.0057  0.2550 -0.2595
 2198W        W 5942   9.111   7.530  11.615 -0.2468 -0.1390 -0.1694
 2199W        W 5943   6.039   4.425  12.452  0.0129  0.2247 -0.1887
 2200W        W 5944   2.293   3.503   2.800 -0.3309  0.0907  0.1104
 2201W        W 5945   9.120   0.541  12.486 -0.0129 -0.2721 -0.0797
 2202W        W 5946   2.344   2.013  11.339  0.0884 -0.0743  0.3070
 2203W        W 5947   9.400   7.369  12.063  0.1957 -0.2244 -0.0913
 2204W        W 5948   9.790   9.432   1.939  0.3914  0.0959 -0.0466
 2205W        W 5949   2.566   9.547  10.633 -0.2993  0.1252  0.1732
 2206W        W 5950   6.435   8.191   3.512  0.4110 -0.1826 -0.0105
 2207W        W 5951   0.859   6.240  10.149 -0.0600  0.1786 -0.1372
 2208W        W 5952   3.583   4.015  10.102 -0.2734 -0.0530  0.1875
 2209W        W 5953   7.843   1.877   0.493 -0.0701  0.1264 -0.1616
 2210W        W 5954   2.628   9.162   3.035 -0.2380  0.0530  0.0241
 2211W        W 5955   2.133   6.500   4.419  0.2254 -0.1895  0.0784
 2212W        W 5956   7.430   4.489   3.520 -0.2098  0.1938 -0.0537
 2213W        W 5957   2.839   0.244  11.767  0.4349 -0.2175  0.0885
 2214W        W 5958   6.899   3.992   2.761  0.1033  0.2090 -0.1412
 2215W        W 5959   2.938   6.550   0.989  0.0256  0.2832 -0.3694
 2216W        W 5960   0.627   3.750   3.157  0.0144 -0.3748  0.0837
 2217W        W 5961   4.778   6.845   3.523  0.0943 -0.1145  0.2324
 2218W        W 5962   3.738   5.424   1.737  0.1555 -0.0542  0.0684
 2219W        W 5963   8.761   4.668   9.504 -0.1202 -0.0989  0.0788
 2220W        W 5964   6.548   4.412  11.685 -0.0416 -0.2190 -0.1892
 2221W        W 5965   7.178   1.289  10.659  0.1710  0.2445 -0.3189
 2222W        W 5966   9.762   1.641  12.567 -0.0514  0.1965 -0.2332
 2223W        W 5967   7.216   9.040   0.364 -0.2622  0.1546 -0.1672
 2224W        W 5968   2.589   8.766  11.085  0.1438 -0.2381  0.1360
 2225W        W 5969   0.127   8.971   1.219  0.1437  0.0008  0.0377
 2226W        W 5970   9.682   2.538   0.387  0.1633  0.1044 -0.1151
 2227W        W 5971   7.975   5.928  10.380  0.0042 -0.0088 -0.2069
 2228W        W 5972   8.018   5.400  10.478  0.0084 -0.0238 -0.0890
 2229W        W 5973   2.553   8.441  10.059  0.1254  0.4303 -0.3031
 2230W        W 5974   3.796   8.293  10.664  0.2672 -0.0178 -0.1249
 2231W        W 5975   3.437   3.160   1.840  0.1277  0.1117  0.2857
 2232W        W 5976   0.847   0.734   1.016  0.4493 -0.0725 -0.4368
 2233W        W 5977   8.764   3.498   0.072  0.1435  0.1112  0.2304
 2234W        W 5978   8.379   5.403   9.116  0.3440  0.1552  0.1079
 2235W        W 5979   3.658   4.036   8.053  0.0104 -0.0528 -0.0052
 2236W        W 5980   5.543   0.170   4.658  0.0609  0.0104 -0.0337
 2237W        W 5981   2.886   7.511  10.429 -0.5056 -0.1935 -0.1468
 2238W        W 5982   2.424   2.133   5.351 -0.0214 -0.1153  0.2497
 2239W        W 5983   3.905   2.150   4.886  0.2256 -0.4530  0.1247
 2240W        W 5984   9.008   1.671   8.769  0.2103  0.0852  0.0715
 2241W        W 5985   2.235   0.796   2.066  0.0906 -0.1730 -0.0946
 2242W        W 5986   6.621   3.298   2.273  0.2815 -0.0237  0.1078
 2243W        W 5987   5.551   5.104   2.932  0.1365 -0.2360  0.1523
 2244W        W 5988   1.267   6.152   9.841 -0.3596  0.2682  0.1173
 2245W        W 5989   6.041   1.029   3.496 -0.0164 -0.3308  0.2245
 2246W        W 5990   8.256   0.695  10.129 -0.0680 -0.2714  0.1411
 2247W        W 5991   3.410   3.972  11.583  0.1019 -0.1507  0.1306
 2248W        W 5992   8.758   8.978  11.875  0.0489  0.1689  0.0042
 2249W        W 5993   5.981   5.512   2.285  0.3534 -0.0799 -0.0823
 2250W        W 5994   9.504   9.888   2.074 -0.1258  0.0688 -0.0288
 2251W        W 5995   2.045   0.067   4.918 -0.2033 -0.0753  0.1279
 2252W        W 5996   1.745   0.596   1.151  0.1461  0.1559 -0.0340
 2253W        W 5997   5.464   6.685   1.828  0.1285 -0.0197  0.1226
 2254W        W 5998   5.159   1.557   3.610 -0.0791  0.0384  0.0087
 2255W        W 5999   9.248   8.147   4.508 -0.0859  0.0550  0.0114
 2256W        W 6000   4.388   2.582   2.056 -0.2339  0.4123 -0.2050
 2257W        W 6001   0.929   2.563  12.395  0.0080 -0.3188 -0.0643
 2258W        W 6002   9.030   9.772   2.291  0.0187 -0.2296  0.0528
 2259W        W 6003   1.946   9.293   1.211  0.2315 -0.2302  0.1410
 2260W        W 6004   5.155   3.673  11.930  0.0752  0.1361  0.3681
 2261W        W 6005   1.491   5.856   4.695  0.1845 -0.2569 -0.1470
 2262W        W 6006   3.268   4.001   1.701  0.2590  0.2544  0.1639
 2263W        W 6007   7.890   8.451   9.445 -0.1614 -0.1466  0.1399
 2264W        W 6008   2.685   0.080   4.227 -0.1223 -0.0249 -0.0989
 2265W        W 6009   1.560   2.420   0.362  0.3771 -0.1777  0.1267
 2266W        W 6010   4.957   3.928   3.031 -0.3081  0.2410  0.2484
 2267W        W 6011   6.352   5.470   0.103 -0.0046  0.4152  0.0966
 2268W        W 6012   6.772   9.838  12.774  0.0291  0.0835  0.0240
 2269W        W 6013   7.430   6.303  11.363 -0.3912  0.0031  0.2272
 2270W        W 6014   1.178   0.025  10.589 -0.2789 -0.2209 -0.1436
 2271W        W 6015   9.587   1.352  11.746  0.2714 -0.1530 -0.0526
 2272W        W 6016   7.179   7.966   3.145  0.1890  0.3346 -0.2185
 2273W        W 6017   0.401   1.787   2.965 -0.0733  0.0877  0.0378
 2274W        W 6018   8.391   6.928   3.488 -0.1359  0.0742  0.0618
 2275W        W 6019   2.848   1.726  12.050 -0.1229  0.0061  0.2126
 2276W        W 6020   6.322   9.554   2.752  0.0781 -0.1586  0.1210
 2277W        W 6021   0.828   5.324   0.276  0.0297  0.0804 -0.0886
 2278W        W 6022   8.301   9.443   0.808 -0.1575  0.0911 -0.4152
 2279W        W 6023   3.828   4.972   9.794  0.1892 -0.0851 -0.1016
 2280W        W 6024   0.411   3.841  12.867  0.0827  0.1215 -0.0799
 2281W        W 6025   9.813   0.840   2.834  0.0192 -0.0361 -0.1035
 2282W        W 6026   9.314   0.711  10.030 -0.0486 -0.2429 -0.0954
 2283W        W 6027   1.124   0.160   5.188  0.0558 -0.2740 -0.0703
 2284W        W 6028   6.244   0.832   1.905  0.2071  0.0948 -0.2500
 2285W        W 6029   6.724   3.813   8.978  0.0474 -0.2875  0.1183
 2286W        W 6030   6.850   6.662   2.540  0.0337  0.0759 -0.3367
 2287W        W 6031   8.271   6.875   2.994  0.1179 -0.0901  0.1501
 2288W        W 6032   4.023   8.464  12.123  0.3318 -0.1415  0.2151
 2289W        W 6033   7.350   1.840   9.520 -0.0034  0.2820 -0.0474
 2290W        W 6034   0.371   1.125  10.060  0.0087  0.2197  0.0097
 2291W        W 6035   6.883   9.577   8.759  0.0273  0.0375 -0.2650
 2292W        W 6036   1.116   0.757  11.901  0.0961 -0.0600  0.0290
 2293W        W 6037   3.902   5.137   1.356 -0.1686  0.0879 -0.3757
 2294W        W 6038   3.868   9.922   3.519 -0.2261 -0.1991 -0.3191
 2295W        W 6039   5.372   9.674   9.623 -0.1253 -0.0133  0.0932
 2296W        W 6040   6.114   8.790  12.693 -0.1390 -0.1146  0.0431
 2297W        W 6041   4.441   1.649   9.720  0.0506 -0.1243  0.1355
 2298W        W 6042   8.955   9.215   2.302 -0.0143  0.3871 -0.0239
 2299W        W 6043   4.957   5.639   1.162  0.1419  0.1222 -0.0837
 2300W        W 6044   2.344   0.352  10.908  0.0156 -0.0101 -0.0936
 2301W        W 6045   5.047   4.877   9.628 -0.0840 -0.4468 -0.1580
 2302W        W 6046   7.364   6.635   0.437  0.2794  0.2288  0.3085
 2303W        W 6047   6.983   1.145  11.137  0.2780 -0.0146  0.1297
 2304W        W 6048   0.295   5.520  12.650  0.0516  0.1490  0.0499
 2305W        W 6049   1.661   0.692  10.020 -0.0412  0.0652 -0.2872
 2306W        W 6050   4.041   9.892   9.332 -0.1609 -0.2307  0.0413
 2307W        W 6051   3.539   8.027   2.571  0.0641 -0.2337  0.1966
 2308W        W 6052   0.824   4.359   4.369 -0.0278 -0.0434 -0.1421
 2309W        W 6053   6.863   6.000  12.522  0.0248 -0.2548  0.1569
 2310W        W 6054   4.827   6.582   0.301  0.2219 -0.0339  0.1430
 2311W        W 6055   9.784   0.702  10.965 -0.0549 -0.0109 -0.2758
 2312W        W 6056   1.769   7.076   2.123  0.0109  0.1521  0.3225
 2313W        W 6057   1.613   0.843  10.490 -0.0772  0.3495  0.0073
 2314W        W 6058   1.937   0.260  11.253 -0.3727 -0.1476 -0.2855
 2315W        W 6059   8.202   7.618  11.166  0.0008  0.2841  0.0780
 2316W        W 6060   3.960   3.993   2.359  0.0702  0.1373 -0.0648
 2317W        W 6061   0.147   1.578  10.130 -0.0895  0.0368  0.2333
 2318W        W 6062   4.116   4.369   4.638  0.0448  0.1598 -0.0262
 2319W        W 6063   9.843   6.372   0.674  0.1758  0.1650  0.1047
 2320W        W 6064   4.561   0.783  10.719 -0.0678  0.1985  0.1056
 2321W        W 6065   7.883   6.464  12.871  0.1982 -0.0440  0.0618
 2322W        W 6066   7.848   4.508   2.563  0.0497  0.1019  0.2192
 2323W        W 6067   2.720   4.409   3.632  0.2952 -0.0537  0.1577
 2324W        W 6068   6.972   6.821   3.519  0.1838 -0.0655  0.4015
 2325W        W 6069   1.874   7.554   2.536  0.1535 -0.1932  0.1345
 2326W        W 6070   6.126   5.275   3.092  0.0577 -0.0848  0.1851
 2327W        W 6071   9.036   0.953  12.236  0.1698  0.1073  0.0052
 2328W        W 6072   7.313   7.873  12.147 -0.1162  0.2142 -0.0679
 2329W        W 6073   1.378   0.439   9.500 -0.0932 -0.1481  0.0699
 2330W        W 6074   7.099   8.290  10.236  0.0175  0.1354  0.0052
 2331W        W 6075   8.325   7.852   0.511  0.2888  0.5681  0.4228
 2332W        W 6076   7.032   5.626  11.774 -0.1033 -0.1747  0.0436
 2333W        W 6077   6.467   9.322   1.426  0.3001  0.0175 -0.0487
 2334W        W 6078   4.910   0.380  11.528  0.1008  0.1498  0.3550
 2335W        W 6079   3.882   8.865  12.388  0.1482  0.2341 -0.0702
 2336W        W 6080   8.472   9.024   1.627 -0.1962 -0.1226 -0.1879
 2337W        W 6081   7.462   2.484  10.670 -0.4715  0.0385 -0.0535
 2338W        W 6082   7.055   2.611  12.803 -0.1834 -0.1547  0.0780
 2339W        W 6083   4.868   0.149   4.259  0.1399  0.1029 -0.0500
 2340W        W 6084   2.029   3.078   9.351  0.1746 -0.0585  0.0912
 2341W        W 6085   7.338   9.438   2.669  0.2002 -0.1043  0.0744
 2342W        W 6086   4.196   5.536   1.262  0.1932 -0.0777  0.1953
 2343W        W 6087   8.318   4.407   9.393 -0.0150  0.0627 -0.3994
 2344W        W 6088   6.855   8.735   4.147  0.2112  0.2493  0.0921
 2345W        W 6089   0.598   7.540  11.104  0.1470  0.2521  0.2820
 2346W        W 6090   9.213   9.508   8.524  0.1618 -0.3355 -0.0563
 2347W        W 6091   0.657   5.003   2.745 -0.2402 -0.0284  0.4429
 2348W        W 6092   6.176   7.809   3.282  0.1340 -0.1691  0.0327
 2349W        W 6093   3.448   3.071  12.358 -0.1685 -0.0481  0.0487
 2350W        W 6094   6.528   9.682   3.662  0.2324  0.1363 -0.2434
 2351W        W 6095   7.589   1.639  10.510 -0.0340  0.2948 -0.0753
 2352W        W 6096   2.172   8.629  11.598  0.0046 -0.0735  0.0835
 2353W        W 6097   0.009   1.067  12.672  0.0430 -0.1276 -0.1278
 2354W        W 6098   8.674   9.776   9.576  0.2869 -0.0949  0.1061
 2355W        W 6099   4.826   8.289  11.438  0.0258 -0.1917  0.2493
 2356W        W 6100   0.520   4.412  11.705 -0.0282 -0.0695  0.1899
 2357W        W 6101   4.643   0.273  12.824 -0.2388  0.0343 -0.0134
 2358W        W 6102   6.517   0.780   1.496  0.0930 -0.1901  0.0043
 2359W        W 6103   1.014   8.932  12.084 -0.1436  0.1243  0.0128
 2360W        W 6104   9.198   6.502  11.580 -0.0300  0.1264  0.0035
 2361W        W 6105   4.412   2.860  12.622  0.0150  0.2054 -0.1122
 2362W        W 6106   6.670   3.214  10.028 -0.1200  0.0011 -0.2919
 2363W        W 6107   5.916   8.255  10.907  0.2533 -0.2765  0.1321
 2364W        W 6108   8.486   5.584  11.205  0.0632 -0.4001 -0.0846
 2365W        W 6109   0.803   2.075   3.005 -0.5257 -0.0675  0.0296
 2366W        W 6110   4.018   1.714   8.762 -0.0102  0.2422 -0.3162
 2367W        W 6111   0.490   0.321   1.084  0.1715 -0.2016 -0.0151
 2368W        W 6112   5.922   4.649  10.679  0.3723  0.1393 -0.1843
 2369W        W 6113   8.416   9.159  12.231 -0.0838 -0.1069 -0.1238
 2370W        W 6114   8.070   1.293   9.340  0.0193 -0.1925  0.1283
 2371W        W 6115   9.452   5.044   2.791 -0.2125  0.3020 -0.1864
 2372W        W 6116   4.149   5.811  12.734  0.0631 -0.1913  0.1013
 2373W        W 6117   5.855   9.212   3.288 -0.0091  0.0549  0.1444
 2374W        W 6118   5.114   7.412   0.714 -0.0718 -0.0302  0.1442
 2375W        W 6119   3.540   5.913   9.404 -0.1295  0.4541 -0.3500
 2376W        W 6120   1.394   9.296  11.127  0.1107 -0.2399 -0.0743
 2377W        W 6121   4.894   0.908   9.738  0.1757  0.1005  0.1121
 2378W        W 6122   5.648   2.748   8.848 -0.2625 -0.2106 -0.1465
 2379W        W 6123   6.968   3.886  12.446 -0.5470  0.1605 -0.1299
 2380W        W 6124   7.397   9.578   3.205 -0.2879 -0.4154  0.0095
 2381W        W 6125   6.078   1.629   1.795  0.1120 -0.0416 -0.3581
 2382W        W 6126   1.249   6.309  11.605  0.1143 -0.2102  0.1530
 2383W        W 6127   4.781   6.051   1.410  0.3348  0.3313 -0.1199
 2384W        W 6128   5.913   6.697   0.039 -0.2815 -0.3845 -0.0257
 2385W        W 6129   1.903   3.560  12.779  0.5776 -0.0299  0.0714
 2386W        W 6130   4.053   0.492  10.614  0.1744 -0.1383 -0.0109
 2387W        W 6131   9.110   8.542   9.177  0.2349 -0.1143 -0.0309
 2388W        W 6132   4.907   6.568   1.234 -0.1465 -0.1189 -0.2390
 2389W        W 6133   6.383   0.393   0.139  0.0555  0.2652  0.0660
 2390W        W 6134   1.946   8.031  11.661  0.2212  0.1641 -0.3698
 2391W        W 6135   9.699   1.166   9.940  0.1109 -0.0452  0.0049
 2392W        W 6136   1.612   6.792  12.371  0.1899 -0.4638 -0.3148
 2393W        W 6137   1.895   3.930   1.385 -0.1525  0.1897 -0.1069
 2394W        W 6138   5.149   4.282   3.382  0.0399  0.1701 -0.0365
 2395W        W 6139   2.424   3.903   1.537 -0.0633  0.0079  0.4318
 2396W        W 6140   2.248   7.535  11.238  0.0578  0.0950  0.0632
 2397W        W 6141   1.652   7.085  11.901  0.0184 -0.0262 -0.1034
 2398W        W 6142   0.220   9.589   3.431  0.0748  0.0037 -0.1407
 2399W        W 6143   5.212   2.670  10.242  0.1579 -0.1674 -0.2770
 2400W        W 6144   2.918   4.761   3.277 -0.0281 -0.4771  0.0651
 2401W        W 6145   9.296   9.040   8.923  0.1549 -0.4160  0.1380
 2402W        W 6146   6.988   2.279   0.898 -0.2501  0.1760  0.4075
 2403W        W 6147   3.304   0.550   1.130  0.3075 -0.0201 -0.1261
 2404W        W 6148   1.864   5.772  12.875 -0.2874  0.2365  0.2392
 2405W        W 6149   2.355   4.929   2.737 -0.0902  0.1380  0.0730
 2406W        W 6150   2.168   3.898  10.233 -0.0843  0.0438  0.0262
 2407W        W 6151   6.149   1.115  12.322  0.0771  0.3794 -0.0225
 2408W        W 6152   8.206   5.141   0.430  0.3099  0.0038  0.0827
 2409W        W 6153   5.566   1.632   0.001  0.5305  0.0364  0.1140
 2410W        W 6154   8.851   5.883  10.215  0.4207  0.0225  0.2216
 2411W        W 6155   0.998   0.049   9.152  0.0029  0.1237 -0.3881
 2412W        W 6156   7.799   4.138   0.474  0.1070 -0.1628  0.2163
 2413W        W 6157   9.095   2.794   9.500 -0.1751 -0.1338 -0.0389
 2414W        W 6158   0.791   7.278   4.261  0.2813 -0.1158 -0.1191
 2415W        W 6159   1.162   3.600   2.142 -0.1186 -0.3897  0.1805
 2416W        W 6160   9.117   1.222  11.537 -0.3098  0.2282  0.0620
 2417W        W 6161   3.611   9.815   4.460 -0.1386  0.2181 -0.0695
 2418W        W 6162   5.127   8.613   1.630  0.0344 -0.0086 -0.1591
 2419W        W 6163   8.143   6.646   2.024 -0.1662  0.0153  0.3618
 2420W        W 6164   7.677   7.001   1.148  0.2193  0.1396  0.3247
 2421W        W 6165   8.390   6.145   1.366  0.1233  0.1240 -0.0380
 2422W        W 6166   9.542   1.603   0.439  0.1096 -0.3994  0.1025
 2423W        W 6167   4.150   0.556  11.112 -0.0878 -0.3470  0.2109
 2424W        W 6168   9.189   3.361   0.355 -0.1042 -0.0705 -0.0274
 2425W        W 6169   2.551   9.697   3.809 -0.1678  0.0620  0.0743
 2426W        W 6170   0.837   8.405   3.544 -0.1554 -0.3507  0.0287
 2427W        W 6171   9.188   1.332   4.685 -0.0456  0.1068  0.1376
 2428W        W 6172   8.885   9.435   0.651  0.1818  0.0908 -0.2974
 2429W        W 6173   4.215   1.348   3.097  0.2631 -0.0864 -0.1480
 2430W        W 6174   6.952   4.287   0.536 -0.1616 -0.0566  0.0376
 2431W        W 6175   9.188   2.459  11.334  0.0368  0.1300  0.1886
 2432W        W 6176   0.042   0.548   1.900  0.1160  0.0439 -0.0374
 2433W        W 6177   2.826   1.325   3.715 -0.2141 -0.1857 -0.0511
 2434W        W 6178   2.561   4.684   9.959 -0.2985 -0.1742  0.1991
 2435W        W 6179   5.173   2.391   0.642 -0.1921 -0.4281  0.1279
 2436W        W 6180   1.668   5.278   2.925  0.0673  0.3177  0.1114
 2437W        W 6181   7.964   8.882   9.756  0.1186 -0.0008 -0.1416
 2438W        W 6182   9.877   5.628  11.678  0.3280 -0.0939 -0.1550
 2439W        W 6183   5.010   5.405   9.719 -0.2289 -0.0428 -0.1373
 2440W        W 6184   1.856   5.252   2.447  0.0127 -0.0319  0.1426
 2441W        W 6185   3.210   6.834   3.184 -0.1001 -0.4274 -0.2014
 2442W        W 6186   3.828   8.180   9.587  0.2674 -0.0819 -0.0495
 2443W        W 6187   1.877   1.554   2.387 -0.0296  0.0728 -0.1741
 2444W        W 6188   0.960   3.465   4.536 -0.0699 -0.0271 -0.0612
 2445W        W 6189   8.694   2.269   4.347  0.0725  0.3215 -0.0087
 2446W        W 6190   9.847   7.084  11.808 -0.3095 -0.0189 -0.2417
 2447W        W 6191   8.005   5.266   3.253 -0.0396 -0.2125  0.0746
 2448W        W 6192   4.828   3.170  10.952  0.1722  0.1577 -0.0646
 2449W        W 6193   0.049   6.687   2.125  0.1229  0.2841  0.2519
 2450W        W 6194   9.416   6.038   3.052 -0.1653 -0.0719 -0.1783
 2451W        W 6195   3.916   2.757   0.627 -0.0193 -0.1058  0.3051
 2452W        W 6196   6.861   2.657   0.570 -0.0089 -0.0407 -0.1551
 2453W        W 6197   9.807   1.268  12.219 -0.0583  0.0727  0.0796
 2454W        W 6198   3.489   3.859   9.341 -0.3430 -0.2861 -0.0200
 2455W        W 6199   6.020   9.379  11.794 -0.2256 -0.0423  0.3045
 2456W        W 6200   1.073   7.974  11.828  0.3883  0.0783 -0.3373
 2457W        W 6201   0.912   4.516  11.423 -0.0464  0.0174  0.2633
 2458W        W 6202   8.032   0.732   3.280  0.0434 -0.4982 -0.2255
 2459W        W 6203   7.055   7.701  10.251 -0.3240 -0.0810  0.2309
 2460W        W 6204   8.959   5.860  11.203 -0.2045  0.3467  0.0001
 2461W        W 6205   6.533   8.332  11.695 -0.1730 -0.5404  0.1081
 2462W        W 6206   2.076   6.265  12.137 -0.0597  0.1752  0.0976
 2463W        W 6207   0.485   4.614  10.914 -0.2027  0.0417 -0.0821
 2464W        W 6208   9.829   2.484   3.225 -0.1101 -0.1150 -0.1244
 2465W        W 6209   1.691   8.702   1.768 -0.1667  0.1774  0.0961
 2466W        W 6210   9.807   4.294  10.370  0.0676  0.5791  0.0734
 2467W        W 6211   2.708   4.074   4.011 -0.2074  0.0226  0.0991
 2468W        W 6212   3.452   5.539   0.756  0.1329  0.1574  0.4052
 2469W        W 6213   1.169   1.783   9.596  0.2145  0.1259 -0.0691
 2470W        W 6214   7.790   0.919   9.256  0.0968  0.0307 -0.1364
 2471W        W 6215   3.929   5.460  10.422  0.0757 -0.0902  0.1272
 2472W        W 6216   9.287   2.003  11.130 -0.3455  0.2292 -0.0070
 2473W        W 6217   8.669   9.478  11.449 -0.2273 -0.0847  0.1471
 2474W        W 6218   3.015   7.071  10.131  0.0970  0.1563 -0.0082
 2475W        W 6219   1.579   6.970   1.614  0.0148 -0.0174  0.0365
 2476W        W 6220   6.896   7.705  12.326 -0.2081  0.1746 -0.2376
 2477W        W 6221   8.105   1.557   0.151  0.0443 -0.0527  0.1135
 2478W        W 6222   1.742   9.835  12.586 -0.2554  0.1830 -0.1947
 2479W        W 6223   4.661   9.865   3.306  0.0074 -0.1476  0.0136
 2480W        W 6224   1.752   3.354   1.530  0.0335 -0.3597 -0.0571
 2481W        W 6225   5.425   3.807   9.697 -0.1312  0.0384  0.2134
 2482W        W 6226   0.880   6.933   3.076 -0.0724  0.1393  0.1711
 2483W        W 6227   2.659   0.217   0.592 -0.4569  0.1240  0.2472
 2484W        W 6228   5.106   3.136  11.403  0.2907 -0.1609  0.4260
 2485W        W 6229   6.048   5.809  10.782 -0.0159 -0.0928 -0.2456
 2486W        W 6230   9.134   8.487  11.800  0.2140 -0.0257  0.0813
 2487W        W 6231   7.068   1.041   3.851 -0.0701  0.3327 -0.1357
 2488W        W 6232   2.705   6.398   3.761 -0.0787 -0.1736 -0.0058
 2489W        W 6233   1.858   0.833   1.713 -0.0389  0.1284  0.3570
 2490W        W 6234   9.070   1.369   4.210 -0.2110 -0.1750 -0.0473
 2491W        W 6235   3.080   0.339  12.182 -0.2372  0.0100  0.3521
 2492W        W 6236   5.749   6.662  10.710 -0.0904  0.1332  0.2321
 2493W        W 6237   4.622   1.271   1.427  0.0815  0.1187  0.0384
 2494W        W 6238   5.249   0.361  11.030 -0.1686 -0.1718 -0.0078
 2495W        W 6239   2.330   5.971   4.226 -0.0169 -0.0845  0.0780
 2496W        W 6240   1.120   7.407  10.380 -0.1173 -0.2380  0.0239
 2497W        W 6241   8.573   4.776   0.275 -0.0153 -0.0809 -0.2686
 2498W        W 6242   4.292   0.913   8.770 -0.0141 -0.1209  0.1122
 2499W        W 6243   5.796   5.957  12.366 -0.1242 -0.0605  0.1487
 2500W        W 6244   4.261   7.606   2.100 -0.1845  0.1443 -0.1988
 2501W        W 6245   7.523   4.119  12.819  0.0977  0.0472  0.1259
 2502W        W 6246   9.110   0.558  10.631  0.1616  0.2348 -0.0920
 2503W        W 6247   6.142   8.244  10.459 -0.0064 -0.0580 -0.0854
 2504W        W 6248   2.785   5.268  11.885  0.1419 -0.0525  0.1103
 2505W        W 6249   2.032   7.750  10.237  0.1107 -0.4424 -0.0284
 2506W        W 6250   5.420   1.364   2.293  0.3444 -0.2665 -0.0653
 2507W        W 6251   9.484   2.560   9.767 -0.2079 -0.2333  0.1498
 2508W        W 6252   3.173   4.614   4.790  0.1583  0.0733  0.3369
 2509W        W 6253   3.409   3.393  10.426  0.0267  0.1749 -0.3026
 2510W        W 6254   2.711   4.674   2.271  0.0866  0.1565 -0.0431
 2511W        W 6255   3.996   7.755   1.689 -0.1709  0.3178  0.4616
 2512W        W 6256   6.994   0.882   2.534  0.0869  0.3597  0.3776
 2513W        W 6257   0.441   3.558  10.065  0.1311  0.3508 -0.0568
 2514W        W 6258   6.010   6.515  10.230 -0.0232 -0.0212 -0.2518
 2515W        W 6259   1.423   6.140   1.849 -0.3839 -0.0346  0.0236
 2516W        W 6260   9.752   5.389   1.476 -0.2161 -0.1898  0.1087
 2517W        W 6261   8.570   3.423  11.683  0.1140  0.2513 -0.1910
 2518W        W 6262   2.537   5.234   0.855 -0.1921 -0.0067  0.2367
 2519W        W 6263   9.836   4.433  12.458  0.1450 -0.2028  0.0095
 2520W        W 6264   5.195   2.759  10.756  0.1574 -0.1440  0.0242
 2521W        W 6265   6.950   9.323   9.240 -0.0366 -0.0615 -0.1201
 2522W        W 6266   4.160   0.302   2.435 -0.0695 -0.1866  0.2829
 2523W        W 6267   3.635   1.874  11.108  0.0537 -0.1938 -0.1049
 2524W        W 6268   6.260   4.302  10.827 -0.3994  0.1124  0.1088
 2525W        W 6269   2.857   3.134  11.810  0.0640 -0.0748  0.3762
 2526W        W 6270   9.317   2.916  10.685 -0.0033 -0.0640 -0.2378
 2527W        W 6271   9.757   2.067   0.608 -0.1446  0.0327  0.2917
 2528W        W 6272   8.894   8.536  12.237  0.2725  0.0259  0.0619
 2529W        W 6273   5.947   8.860   0.369  0.1450  0.1291 -0.0717
 2530W        W 6274   2.229   2.069  10.816 -0.3703 -0.1348  0.1438
 2531W        W 6275   4.778   7.505  10.514  0.2391  0.3315 -0.0710
 2532W        W 6276   4.627   9.303   0.056  0.0146  0.2108  0.2398
 2533W        W 6277   4.062   8.393   1.733 -0.1878 -0.0381  0.0584
 2534W        W 6278   4.692   4.888  11.804  0.2477 -0.1093 -0.3394
 2535W        W 6279   1.457   8.632   0.438 -0.1283  0.0782 -0.3268
 2536W        W 6280   5.106   9.098   1.770 -0.3133  0.2718  0.0160
 2537W        W 6281   5.418   8.354  10.786 -0.4483 -0.1107  0.1726
 2538W        W 6282   7.046   2.824  12.345  0.0329 -0.1812 -0.2722
 2539W        W 6283   9.471   0.901   4.231 -0.5367  0.3626 -0.2800
 2540W        W 6284   6.487   4.349   4.036 -0.0388 -0.0154  0.1391
 2541W        W 6285   2.499   8.568  10.568 -0.1214 -0.1172 -0.0185
 2542W        W 6286   8.568   4.419   9.899 -0.0979 -0.1102 -0.5338
 2543W        W 6287   4.176   2.358   4.507  0.0715  0.1150  0.3263
 2544W        W 6288   3.631   5.080   0.955 -0.1530  0.0964 -0.0112
 2545W        W 6289   8.056   0.309   9.368  0.1384 -0.0951 -0.0264
 2546W        W 6290   7.999   9.786  10.301  0.1973  0.2495 -0.3153
 2547W        W 6291   8.548   1.500   1.879 -0.1961  0.0203  0.0692
 2548W        W 6292   9.418   7.142   3.486 -0.2222 -0.0711 -0.0251
 2549W        W 6293   6.341   2.950   9.503  0.1361 -0.0711  0.0026
 2550W        W 6294   1.880   8.700   4.462  0.0204  0.1861 -0.1460
 2551W        W 6295   8.444   6.719   0.138 -0.0338  0.0144 -0.1028
 2552W        W 6296   0.918   3.165   2.029 -0.2290  0.1732  0.0204
 2553W        W 6297   0.153   7.053   2.550 -0.0363  0.0041  0.0995
 2554W        W 6298   4.828   3.467   2.959 -0.1341  0.1736 -0.3077
 2555W        W 6299   2.698   6.258   9.872  0.0427  0.3401  0.1722
 2556W        W 6300   8.461   7.370  11.496  0.2390  0.1660 -0.0813
 2557W        W 6301   4.096   7.863   0.616 -0.1985 -0.0264 -0.0484
 2558W        W 6302   9.910   4.809   0.275  0.2723  0.1015 -0.2727
 2559W        W 6303   1.728   5.768   9.266  0.1599  0.0017  0.1791
 2560W        W 6304   2.554   1.280   4.186  0.0152  0.0163 -0.0683
 2561W        W 6305   8.275   2.318   0.588 -0.1817  0.3129  0.1722
 2562W        W 6306   3.820   5.033   0.194 -0.2730 -0.3102 -0.0055
 2563W        W 6307   2.029   4.424   4.014 -0.2881 -0.5809 -0.0476
 2564W        W 6308   7.923   5.669  11.212  0.1349 -0.2541 -0.0812
 2565W        W 6309   6.661   8.279  11.184 -0.1292 -0.0067 -0.0695
 2566W        W 6310   4.816   3.195   1.600  0.0401  0.0039  0.3800
 2567W        W 6311   1.022   3.423   2.632 -0.1243 -0.3688  0.2442
 2568W        W 6312   0.224   1.408   9.653 -0.0369  0.0882  0.0996
 2569W        W 6313   2.263   1.189   8.232 -0.1659  0.2462 -0.3455
 2570W        W 6314   3.702   5.643   1.250 -0.0573  0.0691  0.0332
 2571W        W 6315   0.191   9.406   0.950  0.0951 -0.1992 -0.1189
 2572W        W 6316   8.330   5.899  11.633 -0.2666 -0.2149  0.2507
 2573W        W 6317   9.805   3.658   4.173 -0.3808  0.0155 -0.4013
 2574W        W 6318   6.519   8.314   0.497 -0.0635 -0.1784 -0.1220
 2575W        W 6319   9.869   1.639   1.396  0.1024 -0.0721 -0.0142
 2576W        W 6320   9.823   8.035   4.041 -0.1610  0.1225  0.0595
 2577W        W 6321   6.251   4.289   2.758  0.0891 -0.3379  0.0085
 2578W        W 6322   5.739   1.622   7.793  0.3429 -0.3043  0.4457
 2579W        W 6323   7.493   1.871   4.699  0.0301 -0.3942  0.4848
 2580W        W 6324   4.651   6.525   0.746  0.2949 -0.1768 -0.0542
 2581W        W 6325   7.570   1.672   0.873 -0.0560 -0.0868  0.0203
 2582W        W 6326   6.573   7.611   2.732 -0.0526 -0.2829 -0.2631
 2583W        W 6327   2.818   6.122  12.786  0.1967  0.0695  0.0171
 2584W        W 6328   4.012   7.369   0.761 -0.0227 -0.0712 -0.6025
 2585W        W 6329   6.865   3.176   3.512  0.2130  0.2800  0.1166
 2586W        W 6330   4.411   9.846  12.016 -0.0039  0.0539 -0.1444
 2587W        W 6331   9.157   0.147   1.415  0.2248  0.2675  0.0782
 2588W        W 6332   8.058   3.926   0.114  0.0495  0.0178 -0.1326
 2589W        W 6333   2.303   9.354   1.559 -0.0991  0.1136 -0.1472
 2590W        W 6334   3.223   1.879   3.737 -0.3681 -0.0881 -0.3109
 2591W        W 6335   5.747   4.263   3.007 -0.2852 -0.1906 -0.1507
 2592W        W 6336   0.768   8.433  10.917  0.0626 -0.3872  0.0333
 2593W        W 6337   2.875   1.770   9.300 -0.0941  0.1945  0.2195
 2594W        W 6338   4.952   2.591   1.140  0.2476  0.2365  0.0552
 2595W        W 6339   2.000   2.699   1.540 -0.0862  0.1494 -0.0302
 2596W        W 6340   0.688   1.033   2.345 -0.1410  0.3393  0.0872
 2597W        W 6341   1.204   4.187  11.780 -0.0457 -0.4933  0.0191
 2598W        W 6342   1.436   9.859   8.361 -0.3744  0.0953  0.0288
 2599W        W 6343   9.337   0.725   2.640  0.2455  0.3097  0.0428
 2600W        W 6344   7.482   8.234  11.712 -0.1538 -0.2529  0.1933
 2601W        W 6345   7.288   0.654  11.867 -0.1240  0.1049 -0.1542
 2602W        W 6346   5.457   2.284   2.240 -0.1134 -0.1786 -0.0908
 2603W        W 6347   5.295   3.800  10.763  0.0913 -0.0763  0.1522
 2604W        W 6348   5.426   9.802   2.482  0.1514  0.1536 -0.2511
 2605W        W 6349   5.652   6.117   1.783  0.0909  0.1481  0.0391
 2606W        W 6350   4.328   4.119   4.267  0.1119  0.2898  0.1497
 2607W        W 6351   4.652   7.134  12.297 -0.0608  0.0164 -0.2482
 2608W        W 6352   6.400   1.579   1.345  0.2442 -0.4028 -0.0335
 2609W        W 6353   4.889   1.588   0.843 -0.2024  0.2191 -0.1423
 2610W        W 6354   1.353   0.847   1.873  0.1689  0.0129 -0.1932
 2611W        W 6355   8.803   9.002  12.433 -0.1401  0.1664  0.2235
 2612W        W 6356   5.535   7.633   1.620 -0.2761  0.1609  0.2944
 2613W        W 6357   0.103   2.011   3.371  0.1807 -0.2133  0.0386
 2614W        W 6358   0.132   8.591  10.918 -0.3843  0.1421 -0.2171
 2615W        W 6359   7.086   0.288   4.013  0.0104  0.4010  0.2027
 2616W        W 6360   3.736   1.267  12.351  0.4856  0.0999 -0.1395
 2617W        W 6361   3.481   1.868   3.294  0.1887 -0.1539  0.1286
 2618W        W 6362   8.966   4.603   3.616  0.1807 -0.1023 -0.0439
 2619W        W 6363   0.043   3.201   1.556  0.2327  0.1722  0.0519
 2620W        W 6364   7.889   4.478   0.116 -0.0074  0.0037  0.1780
 2621W        W 6365   1.093   9.366  10.730 -0.3580 -0.1946 -0.0847
 2622W        W 6366   3.117   5.132   0.886  0.0118  0.1551  0.2221
 2623W        W 6367   4.450   9.380   1.647 -0.0417  0.3804  0.2236
 2624W        W 6368   1.770   3.356   0.363 -0.2837 -0.2540  0.0084
 2625W        W 6369   0.320   2.151  10.219 -0.1099  0.1550 -0.0806
 2626W        W 6370   1.337   2.990  12.330 -0.3108 -0.1941 -0.0063
 2627W        W 6371   2.137   9.310   9.119 -0.0661 -0.0552 -0.0447
 2628W        W 6372   9.560   2.837  11.152  0.1422  0.2372  0.0509
 2629W        W 6373   1.678   4.845   4.108 -0.4168  0.3839 -0.1389
 2630W        W 6374   3.971   7.426  11.703  0.0369  0.1590  0.0895
 2631W        W 6375   8.532   9.890  12.864 -0.1001 -0.0891  0.3433
 2632W        W 6376   6.011   7.840  11.163  0.2268 -0.1489 -0.2000
 2633W        W 6377   1.478   5.647  10.988 -0.3424 -0.4701 -0.0320
 2634W        W 6378   4.212   0.227   3.803 -0.3515 -0.1773  0.0009
 2635W        W 6379   2.093   4.173   1.879 -0.1099 -0.0918 -0.0182
 2636W        W 6380   0.278   4.501   1.412  0.0230  0.2502 -0.3295
 2637W        W 6381   0.999   2.324   1.488  0.3298  0.1323  0.0622
 2638W        W 6382   7.572   0.501   9.496  0.2428  0.0914 -0.1288
 2639W        W 6383   1.024   5.157  12.697  0.2999  0.0396 -0.0346
 2640W        W 6384   9.766   7.573   3.633  0.1701 -0.2059  0.0594
 2641W        W 6385   2.711   9.265   2.276 -0.0315 -0.1291  0.1130
 2642W        W 6386   6.439   1.070   3.910  0.0201  0.0537  0.0367
 2643W        W 6387   4.200   8.076   3.242  0.2237  0.0666 -0.0769
 2644W        W 6388   6.656   2.788  11.854  0.1762  0.2976 -0.3064
 2645W        W 6389   5.696   4.167   9.305  0.1118 -0.0445 -0.1320
 2646W        W 6390   0.259   0.839   9.657 -0.1521 -0.0422 -0.1274
 2647W        W 6391   9.477   5.766   2.481 -0.0957 -0.2063 -0.2394
 2648W        W 6392   4.150   7.071   9.823  0.2918  0.4515 -0.2818
 2649W        W 6393   3.758   3.976   8.742  0.0646  0.1024 -0.0367
 2650W        W 6394   5.762   4.122  12.079 -0.0483 -0.1137 -0.2021
 2651W        W 6395   7.612   9.711  11.839  0.2150 -0.1155 -0.0101
 2652W        W 6396   9.426   4.727   1.894  0.1331 -0.1488 -0.4316
 2653W        W 6397   0.055   5.079  12.617  0.0296  0.1708 -0.0656
 2654W        W 6398   0.096   8.679  12.575 -0.0391 -0.3360 -0.3693
 2655W        W 6399   4.896   2.131  11.795 -0.2505 -0.1242 -0.0328
 2656W        W 6400   1.422   5.803  11.480 -0.1621 -0.2605 -0.1422
 2657W        W 6401   8.177   4.845   1.315 -0.0292 -0.2756 -0.3330
 2658W        W 6402   9.085   5.436  11.982  0.3246  0.1713  0.2730
 2659W        W 6403   8.719   8.575  11.579 -0.3518 -0.2350  0.1836
 2660W        W 6404   3.442   6.220  10.582 -0.1127 -0.0188  0.0015
 2661W        W 6405   5.220   0.950  10.126 -0.0908 -0.1604  0.0076
 2662W        W 6406   4.385   2.735   7.839  0.1065 -0.2596  0.4077
 2663W        W 6407   9.506   0.277  12.247  0.0543 -0.0148  0.0641
 2664W        W 6408   0.638   0.810   4.238  0.0681 -0.1023  0.3716
 2665W        W 6409   2.574   2.017   9.614  0.0606 -0.2151  0.1777
 2666W        W 6410   1.356   9.664   0.221  0.1128  0.1814  0.2232
 2667W        W 6411   7.127   6.094  12.120  0.2937 -0.0498 -0.0206
 2668W        W 6412   1.088   9.282   9.986 -0.4336  0.1958 -0.2587
 2669W        W 6413   3.188   5.771  12.711  0.1012  0.1006  0.3376
 2670W        W 6414   0.557   9.806  11.979 -0.0260  0.3738 -0.1885
 2671W        W 6415   3.335   3.268   2.692  0.1827  0.5239 -0.0005
 2672W        W 6416   8.521   2.310   2.766  0.2387  0.1632 -0.0221
 2673W        W 6417   7.729   2.868   1.065  0.0725  0.1487  0.1278
 2674W        W 6418   8.175   5.419  12.038 -0.1871 -0.0590 -0.1109
 2675W        W 6419   6.785   3.279   4.402 -0.2407 -0.0274 -0.0704
 2676W        W 6420   2.863   2.607   8.993 -0.0753  0.1558  0.0714
 2677W        W 6421   9.480   8.700   0.588 -0.0394  0.2142 -0.1720
 2678W        W 6422   9.601   5.696   3.444  0.0446  0.2168 -0.0527
 2679W        W 6423   1.919   7.661   9.339  0.0067 -0.4519 -0.0799
 2680W        W 6424   3.474   4.263   3.868 -0.0765  0.1548  0.2479
 2681W        W 6425   1.318   1.168   0.519  0.0784 -0.0520  0.0369
 2682W        W 6426   5.316   7.821  11.920 -0.1700 -0.1036  0.0861
 2683W        W 6427   7.412   7.888   9.988  0.0025  0.0437 -0.0035
 2684W        W 6428   6.058   1.544   4.255 -0.0060  0.1503 -0.3959
 2685W        W 6429   1.223   2.052  12.396  0.1895 -0.0581 -0.0259
 2686W        W 6430   0.830   2.463   8.927  0.2274 -0.1441 -0.1845
 2687W        W 6431   2.963   2.332   2.552  0.2812 -0.0039  0.0237
 2688W        W 6432   6.982   1.403   2.054  0.3158 -0.2335 -0.3427
 2689W        W 6433   2.945   7.442  11.079 -0.2770 -0.3310  0.0338
 2690W        W 6434   5.557   7.494  11.286  0.1330  0.4046 -0.0465
 2691W        W 6435   5.037   3.356   4.352 -0.0969  0.2262  0.3158
 2692W        W 6436   8.867   1.538  12.424  0.1266  0.0242  0.3136
 2693W        W 6437   7.026   2.052  12.345 -0.1970 -0.0990 -0.1373
 2694W        W 6438   5.591   3.517  12.102  0.3851  0.0189  0.2112
 2695W        W 6439   4.359   8.442   2.233 -0.1124 -0.2463 -0.3504
 2696W        W 6440   3.274   6.467  11.456 -0.3762  0.3016  0.1082
 2697W        W 6441   3.480   9.538   2.727  0.3945  0.1267  0.0940
 2698W        W 6442   7.450   3.136   3.995 -0.2292 -0.2873  0.0185
 2699W        W 6443   3.132   8.254   2.917 -0.1382  0.1229  0.0835
 2700W        W 6444   5.431   9.428   1.389 -0.2024 -0.0501  0.3718
 2701W        W 6445   0.030   0.652   9.123 -0.0848  0.4094 -0.1709
 2702W        W 6446   1.505   1.004  11.693 -0.2903 -0.1697 -0.0530
 2703W        W 6447   5.403   1.016   0.790 -0.1018  0.1121  0.0263
 2704W        W 6448   5.720   4.364   0.841 -0.0082 -0.2443  0.0499
 2705W        W 6449   0.720   4.156  12.082 -0.0072  0.1185  0.0083
 2706W        W 6450   6.463   6.683  10.268 -0.0630  0.1107  0.0718
 2707W        W 6451   6.934   3.478   3.066  0.2869  0.0447 -0.2331
 2708W        W 6452   4.789   5.115   0.460 -0.0169  0.2003 -0.0206
 2709W        W 6453   1.991   1.492   3.404  0.1846  0.0202 -0.4235
 2710W        W 6454   4.583   3.920   8.467  0.0995  0.2883  0.0520
 2711W        W 6455   4.769   5.618   3.856 -0.1103  0.2067 -0.0141
 2712W        W 6456   8.103   5.288   2.167  0.0097  0.0076  0.2534
 2713W        W 6457   8.202   1.076   1.875 -0.1834 -0.1163 -0.2209
 2714W        W 6458   5.522   0.740   1.183 -0.1822 -0.2421  0.0213
 2715W        W 6459   8.274   0.506  11.889 -0.3953 -0.1092  0.1296
 2716W        W 6460   9.771   1.843  11.901  0.0879 -0.1068  0.0266
 2717W        W 6461   2.899   9.793   3.262 -0.0301 -0.2252  0.1650
 2718W        W 6462   9.863   6.714   9.340  0.1655 -0.0193  0.0195
 2719W        W 6463   1.724   7.739   8.893 -0.0021  0.0860 -0.1334
 2720W        W 6464   3.622   3.777  10.673  0.1902 -0.0014  0.5219
 2721W        W 6465   2.055   4.099   9.252  0.3574  0.0125 -0.1239
 2722W        W 6466   8.024   1.046   0.218 -0.2957 -0.1541  0.0856
 2723W        W 6467   3.061   8.896   3.472  0.2596 -0.0320  0.2076
 2724W        W 6468   3.269   7.033   8.787  0.1161  0.0150  0.0623
 2725W        W 6469   9.374   1.325  12.543 -0.1222 -0.1563 -0.0475
 2726W        W 6470   3.445   2.078  12.441  0.2151  0.0653  0.1551
 2727W        W 6471   5.933   0.840   0.745 -0.2813 -0.2077 -0.1731
 2728W        W 6472   0.456   0.952  12.660  0.2637 -0.0042  0.1545
 2729W        W 6473   7.469   7.377   0.209 -0.0911  0.0252 -0.0301
 2730W        W 6474   3.934   0.799   0.933 -0.1110 -0.2103  0.0108
 2731W        W 6475   2.095   5.303   3.545  0.0579 -0.1407  0.1724
 2732W        W 6476   3.499   7.527  11.293 -0.0034 -0.0369 -0.0637
 2733W        W 6477   8.214   2.928  12.660  0.1118 -0.2090  0.1687
 2734W        W 6478   4.870   5.088   3.507 -0.1109  0.1653  0.3905
 2735W        W 6479   7.298   3.596   0.746  0.0286 -0.0123  0.1103
 2736W        W 6480   8.955   4.287   2.781  0.0126 -0.4639  0.2106
 2737W        W 6481   0.079   2.611   9.062 -0.1682  0.0351  0.0802
 2738W        W 6482   1.776   0.646   4.388  0.0055 -0.1012 -0.0078
 2739W        W 6483   0.504   3.459   2.754 -0.0039 -0.0318  0.2408
 2740W        W 6484   1.174   6.802  12.030 -0.1298 -0.0212  0.3705
 2741W        W 6485   5.061   9.114   1.225  0.0327  0.0146  0.1807
 2742W        W 6486   5.289   1.588  10.343  0.0401  0.2473  0.1545
 2743W        W 6487   1.430   7.938  11.014 -0.1988  0.0825  0.0489
 2744W        W 6488   8.347   4.636   4.279 -0.0181 -0.0776  0.2250
 2745W        W 6489   9.528   1.428   1.658  0.0092 -0.2682  0.0269
 2746W        W 6490   8.127   0.125   0.872  0.0082  0.2422 -0.1610
 2747W        W 6491   8.228   6.868  11.435  0.4909  0.0879  0.1879
 2748W        W 6492   9.377   6.083   9.865  0.0862  0.0959  0.4213
 2749W        W 6493   3.484   2.282   2.462  0.0986  0.0586  0.3304
 2750W        W 6494   2.500   4.925   8.902 -0.3142 -0.0244 -0.1279
 2751W        W 6495   9.003   4.109   3.737  0.1505 -0.2125 -0.0014
 2752W        W 6496   6.248   5.494  11.087 -0.1000  0.1874 -0.0408
 2753W        W 6497   2.481   1.858  10.114  0.0260 -0.2069  0.1745
 2754W        W 6498   5.066   0.325   0.221  0.0864  0.0295 -0.3314
 2755W        W 6499   1.509   6.513   0.059  0.0858  0.0236  0.0328
 2756W        W 6500   9.491   7.012   2.908 -0.0014  0.0003 -0.1198
 2757W        W 6501   9.699   9.895  11.844 -0.3178 -0.2019 -0.1529
 2758W        W 6502   4.140   7.820   2.775  0.0506  0.2075 -0.0348
 2759W        W 6503   8.579   6.206   0.480 -0.4976  0.0117  0.2282
 2760W        W 6504   4.247   2.164  12.061 -0.2255 -0.1001 -0.1093
 2761W        W 6505   9.486   9.855   2.636 -0.1862  0.0777 -0.1349
 2762W        W 6506   0.775   7.246   0.093 -0.0012 -0.1863  0.1093
 2763W        W 6507   0.949   7.257  11.919  0.1243 -0.0474 -0.2044
 2764W        W 6508   0.162   9.410  11.213 -0.0619  0.4044  0.0697
 2765W        W 6509   9.856   0.236   9.475  0.0401  0.0451  0.3495
 2766W        W 6510   0.301   1.726   2.334 -0.2251  0.1433 -0.3079
 2767W        W 6511   9.245   9.077  10.017 -0.1191 -0.0044  0.1184
 2768W        W 6512   2.721   4.561   9.481  0.0371  0.0729 -0.1184
 2769W        W 6513   6.245   1.543   4.685 -0.0822  0.2316 -0.1652
 2770W        W 6514   8.773   6.307  11.289 -0.2537 -0.0633  0.3184
 2771W        W 6515   5.102   2.099   1.247 -0.1232  0.0396  0.4914
 2772W        W 6516   5.332   0.687   8.669  0.1257  0.1518 -0.1564
 2773W        W 6517   5.009   9.046  11.266 -0.1257 -0.0236  0.0429
 2774W        W 6518   9.545   6.110  11.421  0.0310 -0.0563  0.5057
 2775W        W 6519   3.629   3.545   4.299  0.0150  0.2130 -0.1667
 2776W        W 6520   8.154   8.268  12.201 -0.3736  0.2100 -0.1656
 2777W        W 6521   3.256   8.337  11.764  0.0233 -0.0204  0.0552
 2778W        W 6522   6.110   3.361   9.800  0.1771  0.1979 -0.2458
 2779W        W 6523   1.605   6.263  11.266 -0.0062 -0.0613 -0.1375
 2780W        W 6524   5.552   8.149  12.233  0.0927  0.1393 -0.0086
 2781W        W 6525   5.835   6.191   3.248 -0.0207  0.0329  0.2614
 2782W        W 6526   1.385   2.083  10.336 -0.1769  0.2705 -0.2352
 2783W        W 6527   2.497   4.243  10.317  0.0599  0.0804  0.0555
 2784W        W 6528   3.630   9.037   9.880 -0.2934 -0.0550 -0.0971
 2785W        W 6529   2.751   9.852  11.057  0.2491 -0.0101  0.0741
 2786W        W 6530   7.921   6.711  10.635  0.2683 -0.0391 -0.2309
 2787W        W 6531   7.311   3.725   2.082  0.2371  0.1466  0.0274
 2788W        W 6532   9.896   4.203   3.303  0.0240  0.0362  0.0948
 2789W        W 6533   1.740   5.765   5.182  0.1578  0.0983  0.1199
 2790W        W 6534   9.570   5.822  12.025  0.0195 -0.2032 -0.0120
 2791W        W 6535   8.680   8.642   3.720  0.2629  0.1119 -0.1733
 2792W        W 6536   0.202   6.818  11.237 -0.1640 -0.0960 -0.3656
 2793W        W 6537   0.859   4.671  10.589 -0.1230  0.2055  0.2780
 2794W        W 6538   7.533   7.621   1.096 -0.0530  0.1355  0.0015
 2795W        W 6539   7.334   3.283   2.904  0.1233 -0.2944 -0.1486
 2796W        W 6540   9.717   2.228   1.138 -0.1399  0.0766 -0.1767
 2797W        W 6541   0.581   3.789  10.748  0.2579  0.0618 -0.0479
 2798W        W 6542   1.018   8.704   0.185  0.1453  0.0460 -0.1927
 2799W        W 6543   8.343   8.315   4.076 -0.2642 -0.1664 -0.2365
 2800W        W 6544   6.531   7.002  10.680  0.0597  0.1794 -0.1230
 2801W        W 6545   4.406   8.811  10.366  0.0481 -0.1065 -0.0681
 2802W        W 6546   3.160   6.687   9.142  0.1383  0.0280 -0.1676
 2803W        W 6547   4.756   0.863  10.209 -0.2262 -0.1093  0.0764
 2804W        W 6548   1.599   9.134   0.759 -0.3359 -0.1475  0.0159
 2805W        W 6549   8.481   0.431   8.877  0.3320  0.2602 -0.1543
 2806W        W 6550   7.586   5.973   1.994  0.0512 -0.0681  0.0223
 2807W        W 6551   8.530   2.388   1.059  0.0716 -0.1303  0.2430
 2808W        W 6552   3.954   3.397  11.062 -0.0388 -0.1621 -0.0529
 2809W        W 6553   1.960   2.844   0.464 -0.3213  0.0323  0.0388
 2810W        W 6554   6.352   9.883   8.909 -0.1353  0.1584  0.1413
 2811W        W 6555   3.312   9.233   9.446 -0.0714  0.1612 -0.0495
 2812W        W 6556   0.482   2.653   9.806  0.1045  0.1023  0.0422
 2813W        W 6557   3.518   4.121  12.412  0.0590  0.3488  0.1324
 2814W        W 6558   8.003   9.662   0.556 -0.0597 -0.0655 -0.1236
 2815W        W 6559   5.730   3.826   3.983  0.0405 -0.1768  0.0219
 2816W        W 6560   7.869   8.746   3.226 -0.1497  0.0035  0.3418
 2817W        W 6561   6.960   6.282   0.894 -0.0718 -0.2423  0.0281
 2818W        W 6562   2.037   8.038  12.216  0.5652  0.1296 -0.1543
 2819W        W 6563   9.393   0.934  11.859 -0.1406 -0.0444 -0.0803
 2820W        W 6564   0.839   9.538   4.640 -0.0402  0.3115 -0.0840
 2821W        W 6565   6.069   7.375  11.418  0.5041  0.0179  0.1219
 2822W        W 6566   3.272   1.055  11.500  0.1407 -0.3288  0.1266
 2823W        W 6567   9.826   6.532  12.623 -0.1952  0.2063 -0.0684
 2824W        W 6568   7.719   8.870  10.200 -0.0602  0.0407 -0.0265
 2825W        W 6569   1.667   6.540   9.813  0.0498  0.3810  0.0049
 2826W        W 6570   2.751   6.750  11.576  0.3463  0.0297  0.3426
 2827W        W 6571   8.540   6.878   2.530 -0.1484 -0.0335  0.3302
 2828W        W 6572   7.755   1.558   9.100 -0.0364 -0.3951  0.2508
 2829W        W 6573   9.774   4.009  12.151 -0.2183  0.2439 -0.0267
 2830W        W 6574   9.528   3.013   1.853  0.0308  0.1578  0.0741
 2831W        W 6575   8.720   3.135   9.279 -0.0278 -0.0115 -0.1188
 2832W        W 6576   6.939   3.459  11.638  0.0780  0.1164 -0.1395
 2833W        W 6577   7.233   5.885  10.164 -0.0469 -0.0998 -0.0175
 2834W        W 6578   5.807   6.352  11.541  0.0126  0.0168  0.0437
 2835W        W 6579   2.696   2.508   9.572  0.2436 -0.1965 -0.0060
 2836W        W 6580   8.901   7.254  11.321  0.0615  0.0371 -0.2059
 2837W        W 6581   5.556   9.579  11.696 -0.2668  0.0912  0.0284
 2838W        W 6582   0.302   9.554  12.377 -0.1485 -0.1094 -0.0771
 2839W        W 6583   2.581   3.012   0.483 -0.0311 -0.1056 -0.3316
 2840W        W 6584   6.466   3.716  11.537 -0.1814 -0.1967  0.0489
 2841W        W 6585   6.982   3.552   2.459 -0.0389 -0.0143  0.1038
 2842W        W 6586   6.686   8.905   2.141 -0.0396  0.4272  0.1819
 2843W        W 6587   5.003   7.193   9.965 -0.2428 -0.0701  0.1078
 2844W        W 6588   7.296   4.819  10.016  0.3358 -0.0962  0.2298
 2845W        W 6589   2.250   6.594  12.490 -0.0983  0.1900 -0.1514
 2846W        W 6590   8.604   0.389   3.093  0.2661  0.2665 -0.0331
 2847W        W 6591   8.640   5.448   2.159 -0.2499 -0.1608  0.1522
 2848W        W 6592   9.473   7.423   1.101 -0.0727 -0.0031  0.0989
 2849W        W 6593   9.186   9.584   1.735 -0.3317 -0.2574  0.1317
 2850W        W 6594   0.621   0.376   2.225 -0.3131  0.1579  0.2112
 2851W        W 6595   1.852   6.232  11.685 -0.1354  0.1592  0.0728
 2852W        W 6596   3.923   0.681   4.546 -0.4957 -0.1027 -0.0189
 2853W        W 6597   7.908   1.575   4.061  0.2762  0.1805 -0.1398
 2854W        W 6598   2.420   3.175  12.102 -0.0349  0.0669 -0.1414
 2855W        W 6599   6.045   9.451   8.685 -0.3012  0.1272 -0.1547
 2856W        W 6600   6.651   3.995   8.510  0.1367 -0.1508 -0.1599
 2857W        W 6601   0.669   7.172   2.656  0.2266  0.0819 -0.2388
 2858W        W 6602   8.701   6.814  11.629 -0.0970  0.0607  0.0305
 2859W        W 6603   3.865   8.745   2.024 -0.0147 -0.4292 -0.0081
 2860W        W 6604   0.875   9.179  12.821  0.1839 -0.2254 -0.1176
 2861W        W 6605   4.175   9.384   9.089 -0.0070 -0.0192  0.1894
 2862W        W 6606   7.908   5.881   1.321 -0.0013  0.0067 -0.1617
 2863W        W 6607   0.669   0.699   9.994 -0.0587  0.1418 -0.0021
 2864W        W 6608   4.936   6.141   0.987  0.3742 -0.0426  0.1320
 2865W        W 6609   3.749   3.162  11.534 -0.0047 -0.0156  0.1630
 2866W        W 6610   9.921   7.485   9.978  0.1020  0.2321  0.2801
 2867W        W 6611   1.189   0.685   3.543 -0.0760  0.0580  0.1884
 2868W        W 6612   0.403   8.224   3.300 -0.2645  0.0806  0.0220
 2869W        W 6613   8.882   9.664   1.242  0.1325  0.0884  0.2615
 2870W        W 6614   4.291   8.313  10.436 -0.1805 -0.2789  0.4834
 2871W        W 6615   2.997   9.800  12.625  0.0025 -0.2000  0.1254
 2872W        W 6616   3.289   3.301   3.977 -0.6285 -0.0917  0.1080
 2873W        W 6617   6.099   2.460   3.727 -0.0346 -0.0242 -0.0511
 2874W        W 6618   3.700   2.641   3.318  0.0084 -0.2795  0.1348
 2875W        W 6619   5.824   5.255   1.281  0.0350 -0.0930 -0.0009
 2876W        W 6620   0.233   7.542   0.597  0.0782  0.0472  0.3237
 2877W        W 6621   0.485   4.309  10.431 -0.0110 -0.0512  0.1312
 2878W        W 6622   5.942   0.674  12.554  0.2602 -0.2162  0.1939
 2879W        W 6623   6.139   3.572   2.815  0.0710  0.1352 -0.5816
 2880W        W 6624   6.173   1.834   9.547 -0.2186 -0.2046 -0.0511
 2881W        W 6625   3.218   3.031   0.460  0.1580  0.1998 -0.3362
 2882W        W 6626   0.214   6.862   1.389 -0.0821 -0.0717 -0.1218
 2883W        W 6627   3.899   5.137   3.447  0.0770 -0.0044 -0.0034
 2884W        W 6628   2.725   8.516   2.668 -0.0821 -0.0057  0.1702
 2885W        W 6629   4.338   1.170   0.173  0.0902 -0.2118  0.4218
 2886W        W 6630   3.893   5.906  10.619  0.2307 -0.1808 -0.2087
 2887W        W 6631   2.015   6.205   2.964 -0.3302 -0.1794 -0.0908
 2888W        W 6632   4.734   1.943   2.445  0.0672  0.0161  0.0572
 2889W        W 6633   6.045   2.772  12.637  0.2529 -0.0895  0.0149
 2890W        W 6634   4.992   4.755   8.966  0.0235  0.2645  0.0921
 2891W        W 6635   0.298   3.104  11.422  0.0728  0.0363 -0.1971
 2892W        W 6636   5.553   8.961   1.246  0.2820  0.0228 -0.0245
 2893W        W 6637   1.998   7.114  10.990  0.0606 -0.1759  0.1606
 2894W        W 6638   8.672   8.701   4.482 -0.6012 -0.0346 -0.3552
 2895W        W 6639   0.911   9.625  11.100  0.0119  0.0394  0.0839
 2896W        W 6640   0.211   3.585   9.061  0.0753 -0.0413 -0.1394
 2897W        W 6641   8.250   9.600   8.736 -0.0897  0.0306  0.3531
 2898W        W 6642   8.460   5.125  10.409 -0.0608  0.2995  0.1961
 2899W        W 6643   3.823   7.960   3.959 -0.1102  0.1622  0.2139
 2900W        W 6644   4.804   3.356   0.055  0.1321  0.0792  0.1795
 2901W        W 6645   8.811   4.847  11.607  0.0292  0.0733 -0.2935
 2902W        W 6646   8.561   0.613   0.317  0.1737  0.3236 -0.1285
 2903W        W 6647   6.543   2.878   2.610  0.0913 -0.1815  0.1808
 2904W        W 6648   7.794   1.732   2.807 -0.2098 -0.3343 -0.0568
 2905W        W 6649   2.096   2.653   2.091  0.4455 -0.0096  0.0615
 2906W        W 6650   9.106   3.338   4.829 -0.0761  0.2367  0.0090
 2907W        W 6651   2.788   3.330  10.313  0.0624 -0.0042  0.0412
 2908W        W 6652   1.193   5.370   0.677 -0.3028 -0.1109  0.0711
 2909W        W 6653   6.375   3.852   4.045 -0.1520  0.1654  0.0515
 2910W        W 6654   8.662   7.716  11.840 -0.0693 -0.1429 -0.1923
 2911W        W 6655   5.480   9.143   0.612  0.1373  0.4535 -0.0913
 2912W        W 6656   1.922   3.499   3.129 -0.0459  0.1711  0.1472
 2913W        W 6657   5.628   0.749   4.410  0.1594 -0.2250  0.2141
 2914W        W 6658   7.046   3.116   0.679 -0.0777  0.1979 -0.3413
 2915W        W 6659   7.757   2.456  12.008  0.1185 -0.1512  0.2076
 2916W        W 6660   1.262   4.884  10.629 -0.2022 -0.1239 -0.2391
 2917W        W 6661   0.271   9.585   3.938  0.0254 -0.1077 -0.2878
 2918W        W 6662   1.363   0.068  11.873 -0.1980  0.1075 -0.1958
 2919W        W 6663   6.069   4.610   0.585 -0.1034 -0.2042  0.1217
 2920W        W 6664   7.108   2.557   2.251  0.0427  0.2220  0.2015
 2921W        W 6665   3.347   9.203  10.865  0.0870  0.1461 -0.1784
 2922W        W 6666   2.541   2.723   2.733 -0.1979 -0.1792 -0.0541
 2923W        W 6667   7.583   2.007   1.706 -0.1000  0.0041  0.3902
 2924W        W 6668   4.822   8.520   1.112 -0.4503  0.2458 -0.4079
 2925W        W 6669   6.110   5.970  11.979 -0.1220  0.0353 -0.1078
 2926W        W 6670   8.406   3.951  12.673  0.3013  0.0500  0.3724
 2927W        W 6671   3.816   1.941  10.012  0.4965  0.1016  0.2753
 2928W        W 6672   7.245   0.180  12.016 -0.0005  0.0284  0.0866
 2929W        W 6673   9.883   3.602   1.226 -0.2813  0.2202 -0.2819
 2930W        W 6674   4.162   2.643  12.196  0.3831  0.0603 -0.2090
 2931W        W 6675   1.063   5.272   9.373 -0.6515  0.0074  0.1008
 2932W        W 6676   1.202   8.803  11.474  0.2243  0.0154 -0.0001
 2933W        W 6677   8.464   4.667   0.873 -0.1646  0.1091 -0.3955
 2934W        W 6678   1.277   5.556   2.932 -0.0011 -0.0889  0.4106
 2935W        W 6679   6.245   9.407   9.689  0.1246 -0.3525 -0.0998
 2936W        W 6680   1.148   7.772   3.843 -0.2414 -0.3487 -0.1369
 2937W        W 6681   9.663   7.865   1.223 -0.2981 -0.1217  0.0177
 2938W        W 6682   4.653   9.344   0.581  0.0801  0.2266  0.2934
 2939W        W 6683   8.271   3.438  12.194  0.0823 -0.1005 -0.0594
 2940W        W 6684   7.301   2.777   9.668 -0.2674  0.0339  0.2686
 2941W        W 6685   1.387   1.158   3.710  0.2659 -0.2983  0.1822
 2942W        W 6686   1.798   6.098   9.648  0.0764  0.0100  0.2657
 2943W        W 6687   2.304   4.402  11.578  0.2254 -0.0092  0.0344
 2944W        W 6688   7.875   0.212   9.861 -0.2305 -0.2335  0.0042
 2945W        W 6689   5.849   0.555   3.310 -0.1869 -0.0071 -0.1484
 2946W        W 6690   8.263   2.058   8.325  0.2988  0.2250  0.2987
 2947W        W 6691   9.106   4.653  11.229 -0.1019  0.2193  0.2912
 2948W        W 6692   8.536   2.150   2.301 -0.1395 -0.1254 -0.1913
 2949W        W 6693   7.338   9.622  10.893 -0.0828 -0.0660 -0.0612
 2950W        W 6694   0.267   5.403  12.042 -0.0613 -0.3361 -0.0105
 2951W        W 6695   9.052   8.236   3.185 -0.2026 -0.1624  0.0431
 2952W        W 6696   2.864   9.583  11.475  0.2917 -0.3158 -0.0780
 2953W        W 6697   8.462   5.708   9.497 -0.0662  0.0217  0.0100
 2954W        W 6698   7.144   5.606   2.110 -0.2309  0.1129  0.1242
 2955W        W 6699   8.525   2.041   1.784 -0.2237  0.1108  0.1398
 2956W        W 6700   1.643   7.888   9.753 -0.0214 -0.3402  0.0384
 2957W        W 6701   1.021   8.000  12.716 -0.3004  0.1421  0.0495
 2958W        W 6702   1.539   0.244   4.159  0.3003  0.0293 -0.2404
 2959W        W 6703   4.787   4.967   4.380  0.1748 -0.1222 -0.5476
 2960W        W 6704   5.272   1.022   4.166  0.1372  0.0271  0.1187
 2961W        W 6705   9.206   5.611   2.136  0.2205  0.1976 -0.1694
 2962W        W 6706   3.700   9.731  12.770  0.0409  0.3822 -0.0608
 2963W        W 6707   3.425   2.697   1.195  0.1868  0.2213 -0.2360
 2964W        W 6708   1.701   8.037   2.842  0.1577 -0.3295  0.3606
 2965W        W 6709   8.708   5.463   3.330  0.0009  0.1166  0.1067
 2966W        W 6710   7.622   3.078  10.006  0.2944 -0.0196  0.1956
 2967W        W 6711   5.629   4.706   9.667  0.0270 -0.1002  0.1175
 2968W        W 6712   1.163   1.752  10.080 -0.0236  0.4834  0.0409
 2969W        W 6713   0.227   3.648   3.412 -0.0284 -0.1543 -0.0938
 2970W        W 6714   1.911   1.097   4.657  0.1716  0.4523 -0.0909
 2971W        W 6715   9.151   1.586   3.074  0.0829  0.4308 -0.5705
 2972W        W 6716   8.995   8.694   0.858 -0.1049 -0.1178  0.1937
 2973W        W 6717   0.500   1.056  11.647  0.2458 -0.0340  0.3752
 2974W        W 6718   7.488   1.719  10.010  0.0204 -0.0486  0.0204
 2975W        W 6719   8.905   6.512   9.092 -0.2997 -0.0211 -0.1148
 2976W        W 6720   3.680   6.924   1.599 -0.0517 -0.2274  0.0953
 2977W        W 6721   3.183   3.816   4.250 -0.1968  0.0903 -0.1657
 2978W        W 6722   0.736   2.120   9.819  0.1503  0.2998  0.0361
 2979W        W 6723   6.437   9.425  10.503 -0.2941 -0.0935 -0.3838
 2980W        W 6724   0.389   4.904   1.750 -0.2407  0.0034  0.2368
 2981W        W 6725   0.941   4.583  11.914  0.1725  0.0368 -0.3191
 2982W        W 6726   8.684   7.816   0.840 -0.1377 -0.0970  0.3825
 2983W        W 6727   3.046   2.384  11.219 -0.1097 -0.0531  0.0795
 2984W        W 6728   7.189   1.426   9.230 -0.0630 -0.1128 -0.0714
 2985W        W 6729   9.766   8.775   9.738  0.0079  0.3478 -0.1428
 2986W        W 6730   3.678   5.578   9.704 -0.3079  0.1826 -0.2745
 2987W        W 6731   3.192   4.711   3.864  0.0099  0.0067  0.0733
 2988W        W 6732   3.577   3.980   0.787 -0.1200 -0.2456  0.0455
 2989W        W 6733   0.671   8.262   9.461 -0.2830 -0.2058 -0.1142
 2990W        W 6734   0.195   7.707  10.789 -0.1760 -0.0962 -0.1128
 2991W        W 6735   9.134   8.249  12.882 -0.1244  0.2349 -0.3915
 2992W        W 6736   8.922   4.252   3.251  0.1582  0.3724 -0.2992
 2993W        W 6737   9.390   4.266   0.273 -0.2021 -0.0581 -0.1384
 2994W        W 6738   9.575   4.168  11.695 -0.0065 -0.1846  0.1225
 2995W        W 6739   3.067   7.860   0.914 -0.0059 -0.2966  0.3782
 2996W        W 6740   1.253   5.072   3.874 -0.2814  0.5396  0.4462
 2997W        W 6741   4.486   5.881  11.473 -0.3319  0.0237  0.2237
 2998W        W 6742   7.899   8.690   0.906 -0.0500  0.1039 -0.1545
 2999W        W 6743   1.901   5.704   9.909 -0.1858  0.2894 -0.1208
 3000W        W 6744   5.963   8.840  11.590 -0.2346  0.0283 -0.4916
 3001W        W 6745   3.861   5.204   2.939 -0.1878 -0.0562 -0.1631
 3002W        W 6746   1.379   9.648   1.892  0.1293 -0.1020  0.1799
 3003W        W 6747   0.066   8.147   1.518  0.2717  0.3169 -0.2002
 3004W        W 6748   4.713   0.303   3.633  0.5098 -0.0341  0.2136
 3005W        W 6749   1.479   9.847   9.408 -0.2268  0.1890 -0.0175
 3006W        W 6750   8.329   2.873   0.905  0.0954 -0.0912 -0.2073
 3007W        W 6751   1.729   7.557  12.235 -0.3356 -0.1925 -0.0175
 3008W        W 6752   1.640   0.656   3.854  0.1820  0.1502 -0.2502
 3009W        W 6753   2.322   6.494   9.072  0.0982 -0.0141  0.0436
 3010W        W 6754   8.989   5.202  10.218  0.2426  0.1266 -0.0792
 3011W        W 6755   9.134   3.961  11.625 -0.0087  0.2039  0.3690
 3012W        W 6756   5.341   6.685   1.270 -0.2624 -0.1132  0.1377
 3013W        W 6757   9.835   8.399   3.109 -0.0436 -0.1829  0.0673
 3014W        W 6758   6.890   6.787   3.004 -0.1970  0.0570 -0.0065
 3015W        W 6759   0.044   5.603   4.221 -0.1628  0.0141 -0.1733
 3016W        W 6760   5.750   3.372   1.097 -0.2669  0.0383  0.0081
 3017W        W 6761   4.696   0.619  12.340  0.1580 -0.2457  0.3023
 3018W        W 6762   1.962   2.872   3.832  0.2973  0.1495 -0.2115
 3019W        W 6763   1.454   7.787   0.043  0.0214 -0.3302 -0.1588
 3020W        W 6764   8.681   1.886   4.689 -0.3490  0.0085  0.0220
 3021W        W 6765   3.775   8.371   4.758 -0.0992  0.0989 -0.1264
 3022W        W 6766   8.615   2.668   0.471 -0.0243  0.2219 -0.2653
 3023W        W 6767   4.998   3.423  10.479  0.2384  0.0845 -0.3610
 3024W        W 6768   3.281   7.871   9.585 -0.4547  0.0324 -0.1347
 3025W        W 6769   2.450   9.760   2.468  0.1694 -0.0836  0.0307
 3026W        W 6770   5.665   1.389   1.604 -0.0024 -0.1284  0.0045
 3027W        W 6771   0.550   9.335  10.870 -0.1870 -0.0768 -0.1520
 3028W        W 6772   6.858   9.368  10.267 -0.1610 -0.0535 -0.2434
 3029W        W 6773   0.556   6.061  12.579  0.0931 -0.2391 -0.0217
 3030W        W 6774   5.225   4.973   2.543  0.0767  0.2737  0.0361
 3031W        W 6775   6.608   7.052   2.671 -0.0558 -0.3495 -0.1212
 3032W        W 6776   6.467   0.679  10.335 -0.2013 -0.1730  0.0772
 3033W        W 6777   1.995   5.119  10.261  0.1143  0.1202 -0.3316
 3034W        W 6778   5.570   5.436   2.574 -0.0296  0.1789  0.2541
 3035W        W 6779   1.536   5.374   9.459  0.2617 -0.2780 -0.2154
 3036W        W 6780   8.421   8.004  10.132  0.0420 -0.1209 -0.2242
 3037W        W 6781   2.586   2.242   1.226 -0.0899  0.2153  0.0610
 3038W        W 6782   9.205   4.152  11.163 -0.1581  0.0279 -0.0092
 3039W        W 6783   1.332   5.606  12.421 -0.2412 -0.0477  0.0791
 3040W        W 6784   5.046   2.479   0.150 -0.0809 -0.2485 -0.3300
 3041W        W 6785   5.449   7.564   1.096  0.0102  0.0741  0.0386
 3042W        W 6786   0.749   1.477  11.350  0.1865 -0.2047  0.5442
 3043W        W 6787   9.345   1.851   2.209 -0.0591 -0.2758 -0.1118
 3044W        W 6788   6.737   7.188   1.290  0.2531 -0.1914  0.1445
 3045W        W 6789   8.425   5.661  10.352 -0.0543 -0.2018 -0.0527
 3046W        W 6790   2.534   3.789   2.388 -0.0418  0.0420 -0.2560
 3047W        W 6791   7.794   4.929   9.283 -0.0411 -0.2491  0.0617
 3048W        W 6792   0.435   5.633  10.974 -0.0665 -0.1294 -0.2734
 3049W        W 6793   4.484   0.589  11.887  0.0974  0.1662 -0.1591
 3050W        W 6794   1.150   3.310   3.480 -0.0041  0.1226 -0.1440
 3051W        W 6795   3.986   3.806  12.466  0.0530  0.2441  0.0308
 3052W        W 6796   7.882   0.131   2.040  0.2066 -0.5901  0.1742
 3053W        W 6797   0.736   4.219   3.285  0.1164 -0.1005  0.1092
 3054W        W 6798   1.380   1.797   9.105  0.0160  0.4815  0.1122
 3055W        W 6799   5.679   4.665   1.634  0.1592 -0.1538  0.0728
 3056W        W 6800   2.751   5.468   9.971  0.0362  0.2850  0.3170
 3057W        W 6801   4.574   4.844   0.112  0.1151  0.2772  0.3815
 3058W        W 6802   8.235   3.047   1.923  0.4334 -0.1438  0.0065
 3059W        W 6803   2.515   2.807   1.302 -0.2048  0.1552  0.0760
 3060W        W 6804   0.977   6.052   2.047 -0.1173 -0.0701  0.4206
 3061W        W 6805   7.720   3.920   0.983  0.0821  0.0124  0.1646
 3062W        W 6806   3.256   2.696  12.010 -0.0042 -0.2109  0.0962
 3063W        W 6807   2.936   4.193   2.598  0.0417  0.2992  0.0202
 3064W        W 6808   4.122   1.105   8.138  0.1096 -0.2238  0.2798
 3065W        W 6809   5.643   9.033  11.032  0.0553  0.1928  0.0419
 3066W        W 6810   7.374   4.179   1.873 -0.2033 -0.0088  0.0554
 3067W        W 6811   2.605   0.651   3.043  0.0276 -0.3510  0.0386
 3068W        W 6812   8.506   6.703   8.931 -0.1859 -0.1430  0.1684
 3069W        W 6813   1.004   8.747  12.535 -0.0359  0.1311 -0.3002
 3070W        W 6814   1.791   4.389   2.295  0.2147 -0.2288  0.1193
 3071W        W 6815   1.015   1.528   3.800  0.1394 -0.0310  0.1645
 3072W        W 6816   2.221   8.220   3.959 -0.2994  0.1366  0.0789
 3073W        W 6817   7.124   5.547   2.978 -0.0832 -0.1584  0.0925
 3074W        W 6818   8.414   5.057   1.833 -0.1231 -0.2269 -0.0956
 3075W        W 6819   9.727   6.219  10.906  0.2567  0.1079  0.0722
 3076W        W 6820   6.177   5.020  10.138  0.0615  0.1342 -0.0878
 3077W        W 6821   5.079   0.304   2.645  0.0671  0.1541  0.4092
 3078W        W 6822   0.692   6.827   4.083  0.4011  0.3949  0.1866
 3079W        W 6823   3.653   0.931  11.774  0.2050  0.0762 -0.0862
 3080W        W 6824   9.088   8.769   3.957  0.0039 -0.0085  0.1568
 3081W        W 6825   3.663   7.125   2.618 -0.2205  0.0258  0.3161
 3082W        W 6826   4.167   2.716   8.841 -0.1309 -0.0406  0.3060
 3083W        W 6827   2.413   5.915  10.682  0.0757  0.0642  0.1363
 3084W        W 6828   8.503   0.013  12.356  0.0625  0.3123 -0.0419
 3085W        W 6829   5.312   1.400  11.453 -0.2043  0.0606  0.1124
 3086W        W 6830   3.197   1.865  11.451 -0.2225  0.2356  0.1332
 3087W        W 6831   7.527   1.565   2.004 -0.2461  0.0805  0.1852
 3088W        W 6832   4.758   8.318   3.146  0.0394 -0.2255 -0.0512
 3089W        W 6833   3.350   9.107   3.776 -0.0391  0.0510  0.1954
 3090W        W 6834   7.488   0.713  11.413  0.2208 -0.2563 -0.1813
 3091W        W 6835   9.035   0.979  10.406  0.1831  0.1705 -0.1950
 3092W        W 6836   2.962   4.624  10.320  0.3713  0.0889  0.1270
 3093W        W 6837   8.002   1.393   0.597  0.2197 -0.1971  0.1755
 3094W        W 6838   4.551   9.246   3.232  0.1210 -0.0266 -0.0881
 3095W        W 6839   1.783   0.447   3.015 -0.0599 -0.0901 -0.2532
 3096W        W 6840   9.439   3.150   4.300 -0.1800  0.0549 -0.3070
 3097W        W 6841   2.671   8.450   4.078  0.0198 -0.1619 -0.1641
 3098W        W 6842   1.280   1.781   4.149 -0.2620 -0.1372  0.1076
 3099W        W 6843   1.921   1.135   3.859  0.0734  0.3536  0.0159
 3100W        W 6844   6.540   2.725   3.112 -0.1856 -0.0245 -0.1902
 3101W        W 6845   8.072   2.155   2.513 -0.1432 -0.3385  0.0851
 3102W        W 6846   6.094   6.091   9.545  0.0073 -0.0931 -0.0656
 3103W        W 6847   8.634   1.392   9.708 -0.0334 -0.0478 -0.1207
 3104W        W 6848   8.363   9.811  11.125 -0.1981 -0.0300  0.0340
 3105W        W 6849   3.021   8.169   0.424 -0.3519 -0.2579  0.2853
 3106W        W 6850   2.278   5.153   9.822 -0.1981  0.3381 -0.1359
 3107W        W 6851   6.514   8.123   2.588  0.0148 -0.2552  0.4369
 3108W        W 6852   3.546   3.083   0.852 -0.1024  0.0073  0.1699
 3109W        W 6853   9.641   0.483  12.692 -0.1129  0.1263 -0.2685
 3110W        W 6854   2.722   9.209   1.775 -0.0113  0.0309  0.2163
 3111W        W 6855   5.285   2.881   0.340 -0.0099 -0.0830 -0.1687
 3112W        W 6856   3.637   4.240   2.007  0.1525  0.1894 -0.1746
 3113W        W 6857   7.518   7.111   0.663 -0.0644  0.1938 -0.1171
 3114W        W 6858   0.272   2.046   0.815 -0.2112 -0.4702  0.0525
 3115W        W 6859   0.087   3.526   5.093 -0.0491  0.1870 -0.1926
 3116W        W 6860   6.368   1.760   9.023 -0.0473  0.1588 -0.3899
 3117W        W 6861   8.390   9.363  10.412 -0.2423 -0.0536 -0.1933
 3118W        W 6862   8.700   1.229  11.231 -0.1351 -0.1904 -0.2265
 3119W        W 6863   4.243   3.758   8.793 -0.0860  0.3000 -0.1887
 3120W        W 6864   3.554   9.346   0.828  0.2216 -0.1326 -0.0340
 3121W        W 6865   7.849   3.559   2.357  0.1964 -0.1409 -0.0152
 3122W        W 6866   2.860   1.577  12.585  0.1113 -0.0668  0.4569
 3123W        W 6867   2.516   7.971  12.313 -0.2325 -0.1388 -0.0890
 3124W        W 6868   2.037   3.933   2.799 -0.0464 -0.2545 -0.1157
 3125W        W 6869   0.651   7.611  11.835  0.3195 -0.2126 -0.0418
 3126W        W 6870   9.054   5.153   2.013 -0.0517  0.2126  0.0807
 3127W        W 6871   1.683   5.404   3.797 -0.0256  0.0924 -0.0053
 3128W        W 6872   9.324   6.444  12.592  0.1584 -0.2896  0.0992
 3129W        W 6873   9.266   6.976   1.413  0.0628 -0.2153  0.0041
 3130W        W 6874   2.379   9.013   1.141 -0.0669  0.0943 -0.2078
 3131W        W 6875   5.644   2.853  10.102 -0.0271  0.1825 -0.1654
 3132W        W 6876   7.171   0.961   0.354 -0.0398  0.1905  0.2182
 3133W        W 6877   7.296   6.520   1.821  0.0886 -0.1464 -0.1641
 3134W        W 6878   2.923   1.311   1.010 -0.0113 -0.1122  0.2440
 3135W        W 6879   6.620   4.090  10.314  0.0305  0.1141  0.4612
 3136W        W 6880   2.848   8.169   4.570 -0.0475  0.0952  0.0989
 3137W        W 6881   5.950   0.433   0.382  0.0961  0.1815 -0.2280
 3138W        W 6882   7.875   2.696   1.835 -0.0510  0.0119 -0.1207
 3139W        W 6883   9.732   4.026  11.254 -0.0372 -0.2805 -0.2696
 3140W        W 6884   5.681   0.978  11.539  0.1165 -0.1230  0.1048
 3141W        W 6885   6.109   1.995  10.079 -0.0411  0.0031 -0.0495
 3142W        W 6886   6.938   3.035   4.018  0.0798  0.0558  0.2773
 3143W        W 6887   3.309   0.160   9.212 -0.2007 -0.1530  0.1325
 3144W        W 6888   4.953   8.789  12.149  0.0905 -0.1957  0.3614
 3145W        W 6889   7.542   9.511   0.285 -0.0113  0.1719  0.1588
 3146W        W 6890   8.810   3.685   3.426 -0.2821  0.1670  0.0297
 3147W        W 6891   6.938   7.051   9.569 -0.1371 -0.0626 -0.1965
 3148W        W 6892   0.755   1.244  10.868  0.2651 -0.1866  0.0771
 3149W        W 6893   8.709   1.319   0.006  0.1112 -0.0528  0.3037
 3150W        W 6894   2.674   0.219   2.769  0.0950  0.4350 -0.1793
 3151W        W 6895   2.776   7.493   2.359  0.3445  0.2027 -0.0695
 3152W        W 6896   3.086   8.702  11.177 -0.1512  0.2344 -0.2166
 3153W        W 6897   8.049   1.954  11.571  0.5254  0.1493 -0.1216
 3154W        W 6898   2.279   3.331   0.182 -0.1975 -0.0676 -0.0097
 3155W        W 6899   7.456   5.685   1.581 -0.0756 -0.1030  0.1239
 3156W        W 6900   5.822   3.269   3.961 -0.1792  0.2630  0.4106
 3157W        W 6901   1.054   9.545   1.505  0.1403  0.2004 -0.2556
 3158W        W 6902   4.873   9.471   9.229 -0.2401 -0.0065 -0.0766
 3159W        W 6903   6.964   4.805   0.461 -0.3920 -0.1092  0.1504
 3160W        W 6904   6.667   8.391  10.453 -0.1069  0.1369 -0.1005
 3161W        W 6905   7.384   6.597  10.292  0.1318  0.0466 -0.0120
 3162W        W 6906   3.351   3.266  11.831  0.1188 -0.2938 -0.1685
 3163W        W 6907   3.193   0.983   9.665 -0.3912 -0.0131  0.1383
 3164W        W 6908   3.476   9.236   1.352 -0.0341  0.2842 -0.0992
 3165W        W 6909   4.390   3.445  12.634 -0.0491  0.2179 -0.4839
 3166W        W 6910   0.170   1.730   0.430 -0.0808  0.1468  0.0609
 3167W        W 6911   3.342   0.053  11.541  0.0454  0.0081  0.1571
 3168W        W 6912   9.132   4.480   2.258 -0.3089 -0.2253 -0.2805
 3169W        W 6913   3.606   9.800   8.851 -0.0239  0.0936  0.1697
 3170W        W 6914   7.609   2.020  10.878 -0.0079  0.2170 -0.3165
 3171W        W 6915   1.888   6.802  12.783 -0.0930 -0.3333  0.1506
 3172W        W 6916   4.647   8.996   1.440 -0.1352 -0.0728 -0.1382
 3173W        W 6917   0.825   5.215  10.342 -0.5043 -0.2499 -0.5115
 3174W        W 6918   5.862   6.950   9.981  0.0508 -0.2911  0.0902
 3175W        W 6919   2.869   3.026   4.203 -0.0271 -0.1062  0.1299
 3176W        W 6920   6.078   2.278   9.209 -0.3484  0.1088 -0.2550
 3177W        W 6921   1.474   7.888  11.496 -0.1167  0.1421 -0.1888
 3178W        W 6922   1.311   4.424   2.396 -0.0693 -0.0660 -0.2295
 3179W        W 6923   0.092   6.100  11.753 -0.0334 -0.1287 -0.2897
 3180W        W 6924   9.872   0.611   3.876  0.0783  0.2433 -0.0199
 3181W        W 6925   4.499   1.883   8.844 -0.0897 -0.1528 -0.3524
 3182W        W 6926   0.055   9.641   2.961 -0.1181  0.1332 -0.1015
 3183W        W 6927   0.419   7.205   3.884  0.1100 -0.0467  0.0218
 3184W        W 6928   2.697   2.320   2.991  0.1185 -0.0015  0.3182
 3185W        W 6929   3.363   7.287   0.291  0.1720 -0.1481 -0.3427
 3186W        W 6930   6.015   1.545   2.337  0.0338 -0.0983 -0.0331
 3187W        W 6931   8.862   0.078   9.181 -0.1390 -0.0862  0.0916
 3188W        W 6932   2.228   1.336   1.002 -0.1393  0.0243  0.0010
 3189W        W 6933   8.083   4.368   2.994  0.0197  0.0173 -0.2197
 3190W        W 6934   0.613   2.927  10.670 -0.1986  0.0761  0.1510
 3191W        W 6935   1.311   5.230  10.256 -0.1744 -0.1587  0.0545
 3192W        W 6936   1.378   8.735   8.696 -0.0238 -0.0239  0.1755
 3193W        W 6937   0.563   5.192   3.264 -0.1216 -0.0090  0.0689
 3194W        W 6938   5.078   6.929   1.584 -0.2806  0.1299 -0.0490
 3195W        W 6939   7.245   3.776  12.037  0.1646  0.0479 -0.2100
 3196W        W 6940   4.466   1.055  11.704  0.0953 -0.1301  0.0734
 3197W        W 6941   0.339   2.402   1.158  0.1301 -0.2523  0.2112
 3198W        W 6942   0.562   9.829   3.176  0.1267 -0.0751 -0.1043
 3199W        W 6943   5.898   8.991  12.066  0.2780 -0.0757  0.1127
 3200W        W 6944   4.687   4.435  11.079 -0.2223 -0.1482  0.1456
 3201W        W 6945   2.231   1.828  11.808 -0.3890  0.1705 -0.4383
 3202W        W 6946   2.322   6.935  11.364 -0.1331  0.3253 -0.0533
 3203W        W 6947   6.292   1.923   2.164  0.0931 -0.1838 -0.2500
 3204W        W 6948   5.744   8.740   3.048 -0.1364  0.1279 -0.0505
 3205W        W 6949   2.509   0.477   4.015  0.1123  0.1720 -0.0845
 3206W        W 6950   1.978   3.399   3.809 -0.1630 -0.3472  0.0297
 3207W        W 6951   5.686   4.013   2.033  0.3328  0.1555 -0.0555
 3208W        W 6952   5.280   1.614   0.485  0.0195 -0.2353  0.0977
 3209W        W 6953   1.474   8.703  12.233 -0.3630  0.0616 -0.1842
 3210W        W 6954   1.065   3.069  10.910 -0.0030 -0.0196 -0.3682
 3211W        W 6955   9.564   8.777  10.499  0.3329  0.3753 -0.2176
 3212W        W 6956   2.889   1.163  12.310 -0.0791  0.0326  0.1649
 3213W        W 6957   5.292   0.723   2.871 -0.1691 -0.0767 -0.3755
 3214W        W 6958   5.907   8.360   0.560 -0.0703  0.1157 -0.3186
 3215W        W 6959   5.764   9.920   9.444 -0.0426  0.4768 -0.0221
 3216W        W 6960   2.507   7.108   3.261 -0.0334 -0.0688  0.1284
 3217W        W 6961   6.493   6.546   0.897 -0.0750  0.1395 -0.0510
 3218W        W 6962   4.969   2.035   1.717 -0.0705  0.2363 -0.2914
 3219W        W 6963   5.200   2.760   1.998 -0.1677  0.2502 -0.0468
 3220W        W 6964   3.082   3.921  12.554 -0.0658 -0.3255 -0.2586
 3221W        W 6965   3.738   1.796  11.613 -0.0204 -0.0714  0.0279
 3222W        W 6966   2.714   1.865   3.731  0.0513  0.0346  0.1203
 3223W        W 6967   0.044   6.611   0.214  0.2967 -0.1526 -0.1818
 3224W        W 6968   0.073   9.061  10.681  0.0331  0.1185 -0.3421
 3225W        W 6969   5.366   3.123   3.981 -0.0785 -0.3239  0.2917
 3226W        W 6970   7.684   5.418   2.880  0.2241  0.0757 -0.0460
 3227W        W 6971   1.793   8.079   3.455  0.1722 -0.2070 -0.2072
 3228W        W 6972   0.881   4.813   9.477  0.0350 -0.1243  0.0718
 3229W        W 6973   4.108   9.041  11.194 -0.1674 -0.2010 -0.3124
 3230W        W 6974   2.524   5.635   3.077  0.0681  0.0169  0.1707
 3231W        W 6975   3.069   7.983   9.088  0.0427 -0.1189 -0.0636
 3232W        W 6976   0.673   5.084  10.749 -0.0415 -0.4325  0.0919
 3233W        W 6977   2.482   2.150   4.031  0.1236  0.0205  0.1961
 3234W        W 6978   0.837   9.050   8.690 -0.0297 -0.0042  0.0587
 3235W        W 6979   8.321   0.818   4.297 -0.1718  0.2543  0.0540
 3236W        W 6980   1.559   1.054   4.242 -0.0290 -0.0965  0.0322
 3237W        W 6981   4.232   9.313  12.127 -0.2814  0.0410 -0.1227
 3238W        W 6982   9.594   8.069   3.629  0.0628 -0.3941  0.1836
 3239W        W 6983   8.030   4.992  11.808  0.0588 -0.1015 -0.2326
 3240W        W 6984   7.532   8.219   9.640 -0.1760  0.0424 -0.0958
 3241W        W 6985   0.025   8.246  12.330 -0.0321  0.1080 -0.1994
 3242W        W 6986   5.813   1.310  11.258 -0.1199 -0.3498 -0.2971
 3243W        W 6987   7.180   7.366  12.103 -0.0532  0.0378  0.0338
 3244W        W 6988   9.844   7.481   0.216 -0.1366  0.1158  0.0529
 3245W        W 6989   5.624   1.909   2.493  0.0355  0.0252  0.0644
 3246W        W 6990   8.541   0.880   2.954 -0.1495 -0.0515  0.1163
 3247W        W 6991   0.021   5.466   1.942  0.2786 -0.2821 -0.0771
 3248W        W 6992   4.763   2.420  10.314 -0.0332 -0.0165 -0.1211
 3249W        W 6993   3.981   1.363  11.553  0.2863  0.0022  0.2510
 3250W        W 6994   1.870   8.942   2.289  0.1913 -0.4606 -0.3139
 3251W        W 6995   1.406   4.918   9.641  0.0235 -0.0194 -0.0521
 3252W        W 6996   3.048   1.547   3.270  0.1389  0.1742  0.1566
 3253W        W 6997   5.465   9.411  12.653  0.1882  0.0782  0.2427
 3254W        W 6998   7.471   8.071   2.807 -0.2341 -0.0977  0.0064
 3255W        W 6999   3.052   2.796   2.547  0.2224  0.0530 -0.1189
 3256W        W 7000   4.484   5.051  10.541 -0.1302 -0.0658  0.1142
 3257W        W 7001   4.210   1.637  10.161 -0.0707  0.1559 -0.0013
 3258W        W 7002   1.784   8.499   3.061  0.2850 -0.0838  0.5383
 3259W        W 7003   9.043   0.672   3.639 -0.2601  0.1317 -0.0537
 3260W        W 7004   0.318   0.496   2.918  0.3085  0.3244  0.0612
 3261W        W 7005   5.242   5.571  12.183  0.0777  0.0482 -0.0526
 3262W        W 7006   7.526   4.069   9.102  0.1256 -0.0533  0.2163
 3263W        W 7007   8.934   9.580   4.040  0.4233  0.2121  0.0183
 3264W        W 7008   6.583   2.914   4.754 -0.2323 -0.2192  0.0455
 3265W        W 7009   2.307   6.740   3.630  0.1411  0.2108  0.2506
 3266W        W 7010   5.291   8.251  10.053 -0.2305 -0.3689 -0.2033
 3267W        W 7011   0.113   2.966  10.431  0.0457  0.1091 -0.0503
 3268W        W 7012   6.747   1.273   1.565 -0.0697 -0.0263  0.0775
 3269W        W 7013   0.024   7.458   2.212  0.3281  0.0843  0.0896
 3270W        W 7014   8.487   1.002   2.447 -0.2035 -0.2303  0.1045
 3271W        W 7015   8.370   4.628  11.747  0.3300  0.2018  0.0217
 3272W        W 7016   9.563   3.643  11.867  0.0171 -0.2267 -0.0987
 3273W        W 7017   7.104   1.563  11.911 -0.1274 -0.2016 -0.0617
 3274W        W 7018   6.852   8.711   0.929  0.1841  0.0066 -0.2018
 3275W        W 7019   5.948   5.605   1.788  0.5095 -0.5307  0.1864
 3276W        W 7020   4.471   3.396  10.659  0.1093 -0.0476 -0.1346
 3277W        W 7021   1.994   8.488  10.881  0.0920 -0.0851 -0.0654
 3278W        W 7022   6.314   3.813   9.204  0.2957  0.3040 -0.1487
 3279W        W 7023   9.065   2.592   4.204 -0.1464 -0.0232  0.0146
 3280W        W 7024   1.605   9.203  10.291 -0.0358  0.0888  0.1500
 3281W        W 7025   0.671   3.489   2.305 -0.1864  0.1515  0.0507
 3282W        W 7026   4.880   6.752  10.899  0.3107 -0.0058 -0.0602
 3283W        W 7027   5.231   1.394   9.891  0.1517 -0.0480 -0.2164
 3284W        W 7028   1.340   8.391  12.853  0.0543 -0.2681 -0.1131
 3285W        W 7029   5.885   1.837  11.664  0.0164 -0.2144  0.1078
 3286W        W 7030   5.566   0.227   3.542 -0.0928  0.0363  0.0872
 3287W        W 7031   6.930   2.506   9.581  0.3045  0.2682  0.2923
 3288W        W 7032   7.864   3.643  10.897  0.2664  0.1060  0.5858
 3289W        W 7033   2.832   6.286   9.042  0.3072  0.5079 -0.0316
 3290W        W 7034   3.602   7.791  12.703  0.1486 -0.0961 -0.0718
 3291W        W 7035   6.555   6.283  12.837 -0.0952  0.1202 -0.0342
 3292W        W 7036   8.594   5.693  12.005 -0.3211 -0.3052 -0.0546
 3293W        W 7037   0.481   2.955   2.863  0.1504  0.5444  0.2243
 3294W        W 7038   0.934   0.551   9.205 -0.1390  0.0321  0.3410
 3295W        W 7039   7.951   9.303   0.136 -0.2578  0.1883  0.0588
 3296W        W 7040   2.734   8.335   5.496 -0.0637  0.1205 -0.0149
 3297W        W 7041   2.570   8.283   0.726 -0.2070 -0.3106  0.1221
 3298W        W 7042   3.036   5.082   2.422  0.0283  0.0747 -0.1861
 3299W        W 7043   7.708   4.635   3.151  0.2440  0.2333  0.1302
 3300W        W 7044   5.489   9.004   0.088 -0.0356  0.1646 -0.4118
 3301W        W 7045   4.191   7.538   3.222  0.1587 -0.0266  0.2144
 3302W        W 7046   7.861   7.850   0.072 -0.1143  0.1647  0.3494
 3303W        W 7047   5.039   5.965  12.849  0.0477 -0.2241  0.2365
 3304W        W 7048   7.179   7.738   0.712  0.1378 -0.2334  0.0975
 3305W        W 7049   0.834   7.884   3.460  0.0959  0.0612 -0.1560
 3306W        W 7050   0.799   5.692   9.404  0.2035  0.0312  0.1853
 3307W        W 7051   8.024   2.420   9.980 -0.0606  0.1785 -0.1790
 3308W        W 7052   8.862   7.859   1.442 -0.0229  0.1765 -0.2645
 3309W        W 7053   6.415   1.417  12.602  0.2903 -0.1991  0.1049
 3310W        W 7054   4.879   1.797   8.117  0.1927 -0.0596 -0.1563
 3311W        W 7055   8.320   6.275   3.208  0.1249 -0.1252 -0.1630
 3312W        W 7056   1.356   3.706  11.594 -0.0673  0.1205  0.1172
 3313W        W 7057   0.809   9.188   8.184  0.2863  0.1183  0.2220
 3314W        W 7058   6.856   3.637   3.541 -0.1060  0.0093  0.2391
 3315W        W 7059   2.818   5.912  11.920  0.2418  0.0025 -0.1561
 3316W        W 7060   6.396   9.148   0.949  0.0802  0.1542  0.0666
 3317W        W 7061   7.904   6.308   1.084  0.1301  0.1801  0.2207
 3318W        W 7062   1.677   2.207   2.673  0.1542  0.0112  0.1107
 3319W        W 7063   0.686   1.620   9.580  0.1544 -0.0222  0.3087
 3320W        W 7064   2.869   6.585  12.519 -0.1744 -0.1831 -0.2529
 3321W        W 7065   2.888   6.821   1.475  0.4261 -0.0111 -0.0907
 3322W        W 7066   1.801   2.706  12.458  0.1865 -0.2789  0.3880
 3323W        W 7067   2.246   0.501   1.681 -0.0483  0.0664 -0.1282
 3324W        W 7068   1.914   8.299   1.246  0.1700  0.0691  0.0468
 3325W        W 7069   3.084   0.311  10.244 -0.0155 -0.0305 -0.2657
 3326W        W 7070   2.991   4.195  11.783 -0.0414 -0.0348  0.3892
 3327W        W 7071   1.225   8.769   0.906 -0.0166  0.3995  0.0594
 3328W        W 7072   5.940   2.348   2.380  0.0191  0.0393 -0.2181
 3329W        W 7073   3.007   6.372   1.628  0.1219 -0.0521 -0.0436
 3330W        W 7074   5.306   8.240  11.616 -0.1973 -0.0866  0.0917
 3331W        W 7075   6.292   6.330  11.703  0.0138 -0.3532  0.1533
 3332W        W 7076   3.469   4.896  12.768 -0.0116  0.0323 -0.2123
 3333W        W 7077   7.408   8.567   9.964  0.1375 -0.3903 -0.2919
 3334W        W 7078   5.424   4.708  10.651 -0.1205  0.2837 -0.2873
 3335W        W 7079   5.345   7.325   2.751 -0.0802 -0.0963  0.2235
 3336W        W 7080   4.052   3.516   2.315 -0.2953 -0.1315 -0.0922
 3337W        W 7081   8.609   0.268  10.884  0.1095 -0.2377  0.0314
 3338W        W 7082   6.110   7.067  10.973 -0.2924 -0.1406  0.1505
 3339W        W 7083   5.913   3.881  10.770  0.0584  0.2308 -0.1466
 3340W        W 7084   3.026   7.017  12.298 -0.1787  0.0691 -0.1223
 3341W        W 7085   1.670   6.528   4.173 -0.2098 -0.0681  0.0953
 3342W        W 7086   3.925   0.180  11.411 -0.1056 -0.0582  0.1185
 3343W        W 7087   8.689   8.171  10.918 -0.0959  0.0741  0.3286
 3344W        W 7088   6.792   5.014  10.434 -0.3588  0.2114 -0.0827
 3345W        W 7089   8.068   8.784   0.038  0.0164 -0.4590 -0.3654
 3346W        W 7090   6.110   2.722   0.275  0.0611  0.0195 -0.2263
 3347W        W 7091   9.491   8.367  11.425 -0.1510 -0.5309 -0.0342
 3348W        W 7092   4.398   3.980   0.430  0.0496 -0.0086  0.5228
 3349W        W 7093   4.922   8.920   0.371  0.0417 -0.0268  0.1145
 3350W        W 7094   4.708   3.036   4.357 -0.0072  0.0333  0.2016
 3351W        W 7095   7.902   7.376   1.338  0.2173  0.0908 -0.1244
 3352W        W 7096   5.236   9.451   2.101 -0.0934 -0.0995 -0.0587
 3353W        W 7097   3.802   5.576  10.930 -0.0142  0.2068 -0.0790
 3354W        W 7098   7.497   1.490   3.255 -0.0231 -0.0833 -0.0778
 3355W        W 7099   7.802   5.231   0.089  0.1312  0.1834  0.3503
 3356W        W 7100   9.244   0.111   4.221  0.0517  0.0729 -0.0469
 3357W        W 7101   2.446   9.687   2.979  0.0775 -0.0869  0.2246
 3358W        W 7102   7.610   8.547   2.014 -0.1339  0.2025 -0.0456
 3359W        W 7103   9.436   2.495   8.348 -0.3077 -0.2370 -0.1536
 3360W        W 7104   8.574   0.979   9.326 -0.0277 -0.2809  0.0117
 3361W        W 7105   2.888   5.183   2.933 -0.0863 -0.0840  0.2138
 3362W        W 7106   3.010   4.809  11.159 -0.0063 -0.2241 -0.0294
 3363W        W 7107   0.966   6.351  12.059  0.0893  0.1266 -0.2266
 3364W        W 7108   7.709   8.911   8.828 -0.0465 -0.1493 -0.0447
 3365W        W 7109   9.401   8.499   3.468  0.2140  0.1163  0.1568
 3366W        W 7110   6.483   1.305   0.166  0.0293  0.1690  0.1168
 3367W        W 7111   0.755   5.382  11.190  0.2257 -0.0226 -0.2007
 3368W        W 7112   3.601   1.880   9.558 -0.5097  0.0019  0.1406
 3369W        W 7113   3.199   5.608  10.137  0.1915 -0.2788  0.1454
 3370W        W 7114   4.682   8.530   0.610 -0.0181  0.2361 -0.1105
 3371W        W 7115   2.737   6.915   2.188  0.2934 -0.1027 -0.0891
 3372W        W 7116   6.115   0.312  10.275  0.0565 -0.1612  0.0538
 3373W        W 7117   9.852   7.946  12.714 -0.1039 -0.1787 -0.0309
 3374W        W 7118   3.444   6.995   3.649 -0.1110  0.2507  0.3353
 3375W        W 7119   4.011   1.009  10.782  0.2630  0.1500 -0.0998
 3376W        W 7120   9.257   2.512   3.755 -0.1859 -0.0300  0.1646
 3377W        W 7121   7.181   1.941   2.079 -0.1014 -0.0592  0.1980
 3378W        W 7122   9.537   1.515  10.271 -0.0428  0.0320  0.0163
 3379W        W 7123   7.450   9.607  11.392 -0.0039  0.3086  0.1760
 3380W        W 7124   4.834   8.419   3.682 -0.0328 -0.1843  0.0562
 3381W        W 7125   1.529   7.110  10.987  0.0869  0.1232 -0.3117
 3382W        W 7126   0.581   1.258   4.471  0.0493  0.2527 -0.1690
 3383W        W 7127   8.283   8.233   0.814 -0.1474  0.1817 -0.0014
 3384W        W 7128   9.330   2.591  10.270 -0.2408 -0.3263  0.0060
 3385W        W 7129   6.831   9.661   1.333  0.0248  0.0356 -0.2833
 3386W        W 7130   9.259   6.147   2.220 -0.0132 -0.1350  0.0522
 3387W        W 7131   3.158   9.211   2.532  0.0020 -0.0779 -0.0330
 3388W        W 7132   4.773   4.872   2.723  0.0074  0.0612  0.2189
 3389W        W 7133   4.287   4.438   3.028  0.0727  0.0067 -0.5041
 3390W        W 7134   0.615   0.990   1.812  0.0057  0.3194 -0.0925
 3391W        W 7135   4.686   1.660   9.229  0.1545  0.0114  0.0819
 3392W        W 7136   4.731   4.655   3.796 -0.2286 -0.1078 -0.1419
 3393W        W 7137   2.116   8.050   9.641  0.2207 -0.1513 -0.1955
 3394W        W 7138   1.121   2.937  12.785  0.0705 -0.2187  0.0614
 3395W        W 7139   9.650   4.041   4.573  0.0798  0.0737 -0.0467
 3396W        W 7140   6.478   1.402   2.091  0.0808 -0.2175  0.0491
 3397W        W 7141   4.432   5.288  11.956  0.2626  0.1631 -0.0399
 3398W        W 7142   5.806   6.308   0.403  0.0148 -0.2982 -0.0821
 3399W        W 7143   6.768   6.415   3.357  0.1870 -0.2267 -0.2345
 3400W        W 7144   7.476   8.449  10.927 -0.3977  0.0337  0.0641
 3401W        W 7145   0.459   9.576   5.189  0.1160 -0.2348  0.1454
 3402W        W 7146   0.777   2.522  12.850 -0.2194 -0.2792  0.3238
 3403W        W 7147   9.197   0.659  11.437 -0.1632  0.0501  0.1688
 3404W        W 7148   2.100   6.402   1.166  0.1404  0.2076 -0.4932
 3405W        W 7149   2.921   9.100   3.969  0.0105  0.0454 -0.1863
 3406W        W 7150   3.600   1.811   1.732  0.0827 -0.2722 -0.0751
 3407W        W 7151   4.179   6.835  10.377 -0.0032  0.0557 -0.3160
 3408W        W 7152   3.763   1.889   2.196  0.2674  0.0562 -0.1951
 3409W        W 7153   1.032   0.553  10.533  0.0145 -0.2046  0.1870
 3410W        W 7154   8.910   5.909   9.688 -0.0638 -0.0807  0.2163
 3411W        W 7155   3.234   2.543   2.935 -0.1099  0.0694 -0.2103
 3412W        W 7156   5.122   0.754   9.243  0.0837 -0.1151  0.0618
 3413W        W 7157   5.675   7.859  10.771  0.1520 -0.1583 -0.0132
 3414W        W 7158   0.367   7.019   9.225 -0.1179  0.1480 -0.1922
 3415W        W 7159   9.302   8.096  10.848  0.0619 -0.2376 -0.1200
 3416W        W 7160   3.320   9.495   3.449  0.2421  0.1099  0.0524
 3417W        W 7161   7.796   5.692  12.500  0.0148 -0.4325 -0.0058
 3418W        W 7162   0.580   1.448   8.593  0.0843 -0.0745 -0.4747
 3419W        W 7163   0.571   3.269   3.556 -0.0527 -0.1323 -0.1493
 3420W        W 7164   7.664   5.056   2.321  0.2747 -0.2369 -0.3186
 3421W        W 7165   1.439   0.210   0.069  0.0992  0.0466  0.1303
 3422W        W 7166   6.449   5.972   1.123  0.0869 -0.0203 -0.1384
 3423W        W 7167   0.772   4.219   3.880  0.1148 -0.2212  0.4187
 3424W        W 7168   2.477   0.626  12.700  0.0200 -0.0117 -0.0557
 3425W        W 7169   2.577   2.178   9.166 -0.2125  0.1078 -0.2556
 3426W        W 7170   2.049   1.848   9.817  0.0158  0.0037  0.1736
 3427W        W 7171   9.850   2.229   2.802 -0.1773 -0.1646  0.0195
 3428W        W 7172   4.528   3.974   0.910  0.5158  0.0526 -0.1231
 3429W        W 7173   6.549   5.347  10.207  0.2910 -0.1060  0.1194
 3430W        W 7174   9.498   4.106   2.501  0.4380 -0.1690  0.0408
 3431W        W 7175   5.638   1.884   3.027 -0.0049  0.2904 -0.2599
 3432W        W 7176   0.910   2.705   4.242 -0.0647  0.2095  0.1855
 3433W        W 7177   4.250   3.103   0.179 -0.0525  0.3482  0.1647
 3434W        W 7178   6.190   4.708   2.489  0.0528  0.0680 -0.1490
 3435W        W 7179   4.335   9.366   4.810 -0.0448 -0.1508 -0.1761
 3436W        W 7180   6.053   5.491  10.349  0.2422  0.0090 -0.3609
 3437W        W 7181   7.612   9.508   2.306 -0.3701 -0.1397  0.1746
 3438W        W 7182   1.969   4.843   3.666  0.2845 -0.0579 -0.1072
 3439W        W 7183   2.528   8.972  12.344 -0.0390  0.0189 -0.1671
 3440W        W 7184   0.959   4.284  10.174 -0.0713 -0.0514  0.3574
 3441W        W 7185   4.396   1.611   4.222 -0.0185 -0.0028  0.6120
 3442W        W 7186   1.583   4.297   4.218  0.0765 -0.5258 -0.0306
 3443W        W 7187   2.776   3.201   8.270  0.3068  0.2207  0.0797
 3444W        W 7188   7.677   9.268  11.094  0.1827  0.4527 -0.3717
 3445W        W 7189   8.233   3.820  11.823 -0.0103  0.1373  0.1553
 3446W        W 7190   4.764   8.616   9.176  0.2134 -0.0809  0.0029
 3447W        W 7191   0.769   3.357   4.066 -0.1293 -0.0814 -0.1143
 3448W        W 7192   5.250   6.587  10.577  0.1659  0.3710  0.1514
 3449W        W 7193   2.828   7.782   1.950 -0.1402  0.2305 -0.0691
 3450W        W 7194   9.258   1.937  10.204 -0.0188  0.1125 -0.0378
 3451W        W 7195   8.645   2.697   8.761 -0.2675  0.0617 -0.2995
 3452W        W 7196   4.132   2.786  11.721  0.0383 -0.2441  0.0961
 3453W        W 7197   8.865   6.364  10.526  0.1967  0.2752  0.2819
 3454W        W 7198   6.085   6.652   9.585  0.3426 -0.1734  0.0964
 3455W        W 7199   5.195   4.729   0.097 -0.2323  0.0576  0.0348
 3456W        W 7200   8.967   7.776   2.865 -0.1466 -0.1227  0.0904
 3457W        W 7201   7.794   5.653   3.629 -0.2210 -0.1775 -0.4887
 3458W        W 7202   9.911   8.219   0.633  0.2098  0.4415  0.1955
 3459W        W 7203   2.315   4.984   9.331  0.1224  0.0219  0.3986
 3460W        W 7204   0.966   7.792   4.357  0.1857  0.3698 -0.1511
 3461W        W 7205   1.592   2.141  11.850  0.0838  0.0588 -0.2005
 3462W        W 7206   4.684   4.593   9.904  0.0241 -0.2532 -0.0328
 3463W        W 7207   5.899   3.135   0.145  0.2196 -0.0331  0.4331
 3464W        W 7208   7.726   4.043   2.290  0.1342  0.0421 -0.0412
 3465W        W 7209   4.423   8.782   2.963 -0.1684 -0.1962  0.2716
 3466W        W 7210   4.072   1.245  12.009  0.3615  0.2717  0.0436
 3467W        W 7211   7.670   2.835  12.519 -0.1752  0.2220 -0.2231
 3468W        W 7212   7.018   5.014   2.884  0.4752  0.1821  0.0438
 3469W        W 7213   3.521   6.465   1.748 -0.0243  0.0264 -0.1605
 3470W        W 7214   8.461   0.139   3.486  0.1724 -0.1828  0.1560
 3471W        W 7215   4.042   0.401  10.079 -0.0968 -0.3299 -0.1734
 3472W        W 7216   1.440   2.512  12.756  0.3049  0.2472 -0.0732
 3473W        W 7217   5.984   9.763  10.373  0.1733  0.0034  0.0660
 3474W        W 7218   1.414   3.955   1.065  0.0209  0.1282  0.3503
 3475W        W 7219   1.255   7.883   1.904 -0.1124 -0.2417  0.1304
 3476W        W 7220   3.112   4.707   9.818  0.0594 -0.0040  0.0083
 3477W        W 7221   1.560   8.464   9.688  0.5500 -0.0388 -0.0278
 3478W        W 7222   2.211   4.507   9.552  0.2669  0.0855  0.2254
 3479W        W 7223   6.045   3.707  12.046 -0.1187  0.1803 -0.2405
 3480W        W 7224   8.311   6.078  11.174  0.2925 -0.1010 -0.0363
 3481W        W 7225   8.723   4.905   3.314  0.1666  0.1800 -0.0223
 3482W        W 7226   4.089   1.808   1.884  0.3382  0.1469 -0.1978
 3483W        W 7227   1.540   3.479  12.156  0.1469 -0.1050 -0.1523
 3484W        W 7228   1.019   1.200  11.604  0.1596  0.0511 -0.2220
 3485W        W 7229   9.124   2.708   2.304  0.1496 -0.2317  0.3251
 3486W        W 7230   3.054   8.468   9.001 -0.0446 -0.0090 -0.2423
 3487W        W 7231   4.921   0.632   1.842 -0.0773 -0.0338  0.0406
 3488W        W 7232   7.487   6.029   3.573  0.1421  0.0876  0.0495
 3489W        W 7233   8.715   3.042   9.741  0.1797  0.2621 -0.2007
 3490W        W 7234   4.571   7.578   1.590  0.3289 -0.0814  0.1831
 3491W        W 7235   3.412   9.619  12.374 -0.3828 -0.0401 -0.0152
 3492W        W 7236   9.092   2.219   2.359 -0.5744 -0.0955  0.0688
 3493W        W 7237   4.137   5.286   2.400 -0.0452  0.1492  0.3192
 3494W        W 7238   4.984   4.612   4.685 -0.0347  0.3509 -0.1533
 3495W        W 7239   8.747   5.838  10.673  0.2322 -0.2603 -0.0714
 3496W        W 7240   0.945   5.782  11.495  0.0513  0.1089  0.1829
 3497W        W 7241   6.495   8.469   1.210 -0.2476  0.2620 -0.2732
 3498W        W 7242   9.818   2.863   4.530 -0.0617 -0.1339  0.1859
 3499W        W 7243   5.776   6.322   1.353 -0.3589 -0.0128  0.0020
 3500W        W 7244   1.392   2.498  12.176  0.2429 -0.5101 -0.3786
 3501W        W 7245   0.788   3.349  10.546 -0.2390 -0.2514  0.0530
 3502W        W 7246   9.454   4.968   0.992 -0.0237 -0.0503  0.1963
 3503W        W 7247   1.014   2.255   8.402 -0.1817 -0.2181 -0.0685
 3504W        W 7248   7.567   2.992   1.545  0.2479 -0.1096 -0.0238
 3505W        W 7249   9.451   7.400   4.027 -0.0402 -0.0335 -0.3421
 3506W        W 7250   8.869   5.822   1.359 -0.2608 -0.0928  0.1250
 3507W        W 7251   3.949   1.543   2.681 -0.1420 -0.0329  0.0615
 3508W        W 7252   4.989   8.984  12.734  0.0153 -0.0524 -0.0204
 3509W        W 7253   1.009   9.216   2.765  0.1694  0.0432  0.2976
 3510W        W 7254   9.107   6.808   3.264  0.2132  0.0048 -0.0832
 3511W        W 7255   3.537   4.746   1.878  0.2092 -0.5954  0.3273
 3512W        W 7256   5.463   5.995  11.324  0.1781  0.2125  0.1945
 3513W        W 7257   6.569   2.200   8.834 -0.1182  0.1157 -0.0750
 3514W        W 7258   8.474   4.246   0.195  0.0271  0.0355 -0.0776
 3515W        W 7259   3.712   0.064   2.091  0.0965 -0.2125  0.2529
 3516W        W 7260   3.303   2.889  11.523  0.1189 -0.2468  0.0445
 3517W        W 7261   2.540   7.930  10.036  0.3855 -0.1638  0.0005
 3518W        W 7262   6.179   1.981   1.433  0.2779  0.0434  0.1486
 3519W        W 7263   8.560   8.550   1.780 -0.1027 -0.0971 -0.0257
 3520W        W 7264   8.544   4.358   1.343  0.0973  0.4158 -0.0339
 3521W        W 7265   6.563   7.302   0.297  0.1603  0.2901  0.1435
 3522W        W 7266   2.037   9.264  10.012  0.0179 -0.2853  0.0474
 3523W        W 7267   9.340   3.761  12.416 -0.0079  0.1627  0.2317
 3524W        W 7268   0.968   0.161   0.212 -0.4150 -0.0517 -0.4696
 3525W        W 7269   0.307   0.002   0.677 -0.1129 -0.2223 -0.0286
 3526W        W 7270   8.290   8.701  10.236 -0.1728 -0.3298 -0.1102
 3527W        W 7271   0.660   3.098   4.455  0.3277 -0.2313 -0.2203
 3528W        W 7272   3.127   9.646   0.582  0.0433 -0.2380 -0.1537
 3529W        W 7273   0.087   6.916   0.677  0.0410 -0.1504 -0.0638
 3530W        W 7274   7.592   1.844  12.800  0.2868 -0.1692 -0.0252
 3531W        W 7275   2.450   3.015   1.747  0.4293  0.1463  0.2304
 3532W        W 7276   9.200   6.331   3.466  0.0465 -0.0387  0.2876
 3533W        W 7277   1.517   4.821   2.643 -0.0040 -0.3379 -0.1973
 3534W        W 7278   6.544   7.815  10.319 -0.0201  0.1724 -0.1227
 3535W        W 7279   7.798   2.480   7.984 -0.0296 -0.3103  0.1576
 3536W        W 7280   0.540   5.699   0.216 -0.2531 -0.2917 -0.0347
 3537W        W 7281   9.114   2.040   3.500  0.0389 -0.0096 -0.2662
 3538W        W 7282   0.984   0.068   1.922  0.0447  0.2338 -0.0135
 3539W        W 7283   0.928   9.030   0.548  0.1948  0.0229 -0.4851
 3540W        W 7284   4.931   8.415  10.757  0.2637 -0.0829 -0.0403
 3541W        W 7285   3.971   1.262   8.575 -0.4368  0.1422 -0.1630
 3542W        W 7286   0.417   9.253   3.089 -0.1977 -0.0852  0.2023
 3543W        W 7287   3.985   9.874  10.416 -0.1256  0.1251  0.2067
 3544W        W 7288   8.723   2.568  11.580 -0.1719 -0.0644 -0.0770
 3545W        W 7289   3.038   2.117   9.587  0.2330  0.1406 -0.3437
 3546W        W 7290   4.676   7.977  11.852  0.0626 -0.5327 -0.3101
 3547W        W 7291   4.297   4.358   2.021  0.1783  0.1580  0.1536
 3548W        W 7292   5.479   9.098  11.519 -0.1289 -0.1401  0.1185
 3549W        W 7293   1.745   7.234   4.190 -0.1772  0.3229 -0.2188
 3550W        W 7294   7.009   1.527  10.264 -0.1021  0.1315  0.2649
 3551W        W 7295   3.831   3.491   8.909  0.0617 -0.0066  0.1838
 3552W        W 7296   9.246   7.416   2.596 -0.0611  0.4955  0.1933
 3553W        W 7297   4.326   8.574  12.535 -0.1225 -0.0504  0.1851
 3554W        W 7298   8.131   6.464   0.433  0.1644 -0.2461 -0.2350
 3555W        W 7299   3.129   3.723   2.591 -0.1931 -0.0071  0.1593
 3556W        W 7300   0.195   6.447   3.129  0.2072  0.3561  0.0675
 3557W        W 7301   8.991   3.459   9.723  0.1038  0.0829  0.1325
 3558W        W 7302   7.507   5.853   3.041 -0.0198 -0.1299  0.2511
 3559W        W 7303   2.417   8.868   2.492 -0.2024 -0.0582  0.2270
 3560W        W 7304   5.853   9.744   1.123 -0.1680  0.0144  0.1379
 3561W        W 7305   7.741   1.179   8.788 -0.1166 -0.1136 -0.1750
 3562W        W 7306   7.485   0.653   2.144 -0.1093 -0.2231  0.1884
 3563W        W 7307   6.095   3.786   1.289 -0.0625 -0.0942  0.1706
 3564W        W 7308   0.634   6.316  11.581 -0.0219  0.1295 -0.0701
 3565W        W 7309   8.578   9.923   2.130  0.1328  0.3022 -0.1869
 3566W        W 7310   7.497   0.607  10.053  0.1651  0.1258 -0.1532
 3567W        W 7311   7.742   1.133   1.958  0.0111  0.1997 -0.0577
 3568W        W 7312   5.102   4.230   9.136  0.2387  0.0280  0.1874
 3569W        W 7313   2.965   1.456  11.235  0.1623 -0.1362  0.1366
 3570W        W 7314   1.492   8.410   4.654 -0.1135 -0.2490  0.2646
 3571W        W 7315   7.281   0.937   9.137 -0.4414  0.2125 -0.1907
 3572W        W 7316   4.630   2.589   3.273  0.0559 -0.0319 -0.1738
 3573W        W 7317   2.015   8.082   2.418  0.0859  0.2898  0.2874
 3574W        W 7318   3.249   6.149   1.244  0.0472  0.0223  0.1091
 3575W        W 7319   2.016   1.039   0.001 -0.0963  0.2445  0.0245
 3576W        W 7320   4.243   6.334  10.128  0.3078 -0.1197  0.0192
 3577W        W 7321   2.051   4.525   2.890  0.1015  0.3138  0.1778
 3578W        W 7322   8.113   3.727  11.353  0.0554  0.0207 -0.3221
 3579W        W 7323   9.285   9.293  12.635 -0.4299 -0.0719 -0.1075
 3580W        W 7324   4.837   6.537  11.658  0.3005 -0.1356 -0.3026
 3581W        W 7325   4.562   0.363   1.508 -0.1709  0.0413 -0.3584
 3582W        W 7326   9.761   7.228   1.492 -0.1072 -0.1778 -0.2581
 3583W        W 7327   6.204   6.458  10.702  0.0073  0.1494 -0.1182
 3584W        W 7328   5.356   2.485   7.941  0.0758  0.0470 -0.4926
 3585W        W 7329   5.271   4.335   2.912  0.1494 -0.0869 -0.2198
 3586W        W 7330   8.945   4.880   0.790 -0.0073 -0.1737 -0.0934
 3587W        W 7331   0.444   5.849  11.464  0.0614  0.1394  0.0923
 3588W        W 7332   2.173   4.013   3.824  0.0083 -0.1772 -0.0246
 3589W        W 7333   6.533   9.095  12.772 -0.0571  0.2316  0.2842
 3590W        W 7334   1.582   1.043   1.254 -0.0233  0.0511  0.3111
 3591W        W 7335   2.710   9.670   2.000  0.5659 -0.0562  0.0956
 3592W        W 7336   8.291   4.678   2.682  0.0067 -0.2267  0.1663
 3593W        W 7337   8.565   1.182  10.186  0.1198  0.1470  0.1396
 3594W        W 7338   6.233   1.211   1.604  0.0674  0.1160 -0.0706
 3595W        W 7339   1.884   8.528   0.138 -0.0149 -0.0752 -0.5279
 3596W        W 7340   9.885   9.874   1.186 -0.1530 -0.0148 -0.1565
 3597W        W 7341   3.676   7.078   9.138  0.1502 -0.2325  0.0644
 3598W        W 7342   8.603   9.231   1.174 -0.1972  0.0536  0.0155
 3599W        W 7343   4.966   7.270   2.290 -0.1587 -0.5487  0.1490
 3600W        W 7344   9.879   4.832  10.074 -0.1642 -0.0980  0.0976
 3601W        W 7345   2.441   9.574  12.312  0.1071 -0.0029 -0.0230
 3602W        W 7346   8.883   0.009   0.366  0.0901  0.1355 -0.0296
 3603W        W 7347   7.194   9.854   0.175 -0.5560 -0.1545  0.1811
 3604W        W 7348   7.772   6.706  11.528  0.1100 -0.2470 -0.2763
 3605W        W 7349   9.848   5.720   9.342 -0.0011 -0.0474  0.0989
 3606W        W 7350   3.433   0.849   4.367 -0.0432 -0.2220  0.1484
 3607W        W 7351   8.998   0.134  12.106 -0.1926 -0.2125 -0.1120
 3608W        W 7352   3.145   9.429   2.066 -0.1169 -0.2014  0.1606
 3609W        W 7353   8.929   8.725   1.361 -0.1757 -0.0544 -0.2127
 3610W        W 7354   2.785   0.970  11.430 -0.2561  0.2192 -0.1285
 3611W        W 7355   0.070   1.273  11.444  0.2266  0.0693  0.2384
 3612W        W 7356   7.760   6.043  10.926 -0.1177  0.2160 -0.2469
 3613W        W 7357   2.923   3.510   9.257  0.0859  0.3371 -0.1621
 3614W        W 7358   7.850   3.254  11.241  0.0874 -0.1241  0.0150
 3615W        W 7359   6.807   3.654  10.422  0.1883 -0.2329 -0.0875
 3616W        W 7360   0.793   9.612   0.157  0.0140  0.1521  0.0391
 3617W        W 7361   0.775   3.390   0.643 -0.1873 -0.0943 -0.0775
 3618W        W 7362   9.040   4.357   8.488  0.1474 -0.0148  0.0415
 3619W        W 7363   5.489   0.157   2.915  0.4318  0.1138  0.0547
 3620W        W 7364   3.160   6.338   3.011  0.4246  0.0875 -0.1557
 3621W        W 7365   8.908   7.842  12.769  0.1385 -0.0287  0.1054
 3622W        W 7366   6.045   8.959   9.748  0.2093 -0.0726 -0.1980
 3623W        W 7367   7.415   0.889  10.978 -0.0783  0.0935 -0.1233
 3624W        W 7368   3.471   9.078  10.389 -0.2783 -0.1049  0.1233
 3625W        W 7369   8.572   8.136  11.390 -0.0003 -0.0874  0.1866
 3626W        W 7370   5.942   7.678   0.990  0.1243  0.0698 -0.1188
 3627W        W 7371   9.642   0.356  11.354 -0.0846 -0.0337 -0.0929
 3628W        W 7372   2.418   9.247   3.885  0.0461  0.2375  0.2077
 3629W        W 7373   2.274   1.772   4.271 -0.0520  0.1088  0.3012
 3630W        W 7374   8.929   3.483  12.387 -0.0077  0.5541 -0.0608
 3631W        W 7375   5.925   7.807   0.413  0.1654  0.1824  0.0932
 3632W        W 7376   1.282   6.710  11.170  0.3127 -0.2610 -0.0295
 3633W        W 7377   8.289   4.457  12.579 -0.0844 -0.0326  0.2282
 3634W        W 7378   0.434   6.747   4.546 -0.1610 -0.1257  0.0439
 3635W        W 7379   3.144   9.675   9.679  0.0975  0.0903 -0.0875
 3636W        W 7380   2.599   2.485  11.211 -0.2107  0.1863 -0.0409
 3637W        W 7381   1.823   4.583   9.197  0.1431 -0.2098  0.2248
 3638W        W 7382   9.640   9.587  11.430 -0.3048  0.2970 -0.1341
 3639W        W 7383   4.122   2.527   0.174  0.1608 -0.2795  0.1859
 3640W        W 7384   1.238   6.218   1.288 -0.2274 -0.1476  0.2278
 3641W        W 7385   1.302   7.096  11.546 -0.2355 -0.0926 -0.2106
 3642W        W 7386   0.096   1.211   1.723 -0.3240 -0.4082 -0.1170
 3643W        W 7387   6.692   5.209  10.939  0.0464 -0.0835  0.0956
 3644W        W 7388   7.063   9.107   9.623  0.1456  0.1203 -0.4842
 3645W        W 7389   7.932   1.996  10.272 -0.3388 -0.2894 -0.0045
 3646W        W 7390   4.242   2.993   8.264 -0.2111 -0.1121  0.3234
 3647W        W 7391   8.339   5.891  12.431  0.1608  0.2381 -0.2333
 3648W        W 7392   6.351   1.599  10.441 -0.0509 -0.2480 -0.1558
 3649W        W 7393   6.601   2.085  10.843 -0.1037  0.0428  0.0022
 3650W        W 7394   8.135   2.776   1.429 -0.0972 -0.1724 -0.2653
 3651W        W 7395   9.184   3.077   9.977 -0.1770 -0.0532 -0.0282
 3652W        W 7396   6.483   2.520  11.370 -0.2155 -0.1821  0.2206
 3653W        W 7397   7.327   2.687   0.872  0.1234  0.1181  0.1880
 3654W        W 7398   0.409   4.360   0.806 -0.2119 -0.3340  0.1485
 3655W        W 7399   3.700   7.148   2.083 -0.0989  0.0665 -0.1543
 3656W        W 7400   4.806   7.478  11.923  0.4653 -0.1766  0.1043
 3657W        W 7401   3.654   9.677   1.658  0.0273  0.1660 -0.2065
 3658W        W 7402   1.254   5.706   5.113  0.0582  0.2730  0.1284
 3659W        W 7403   7.906   6.142  11.494  0.1072  0.2111 -0.2771
 3660W        W 7404   0.054   2.583   8.479 -0.0135 -0.0600  0.2638
 3661W        W 7405   6.411   0.064  10.615  0.2141 -0.1165  0.2651
 3662W        W 7406   7.184   9.263   3.581  0.0138  0.0970 -0.0727
 3663W        W 7407   2.473   5.842   9.093 -0.2345 -0.1196 -0.0883
 3664W        W 7408   0.595   3.983   9.943  0.2951 -0.1265  0.2640
 3665W        W 7409   6.816   1.918   1.319 -0.0942  0.2422 -0.1216
 3666W        W 7410   7.422   2.103  10.354 -0.2428 -0.0931  0.0333
 3667W        W 7411   4.755   7.254  11.459  0.1049 -0.1886  0.1711
 3668W        W 7412   8.871   3.864  12.610  0.2796 -0.2406  0.2389
 3669W        W 7413   1.991   6.213  10.840 -0.0089  0.1354  0.0751
 3670W        W 7414   1.350   8.165   1.040  0.1937  0.4073 -0.3170
 3671W        W 7415   8.628   8.103   3.029  0.2636 -0.1774  0.1027
 3672W        W 7416   0.526   7.303  12.169  0.0366 -0.2126  0.0613
 3673W        W 7417   5.582   3.518   2.167  0.0327  0.1158  0.2409
 3674W        W 7418   0.212   3.442   0.731 -0.0640  0.1360 -0.3335
 3675W        W 7419   7.048   8.146  12.539  0.0893 -0.1358  0.0161
 3676W        W 7420   1.585   0.241  10.912 -0.2722 -0.2656 -0.1063
 3677W        W 7421   1.079   1.683   1.808  0.3802  0.0913 -0.0539
 3678W        W 7422   3.150   2.150   8.889 -0.1102  0.2342  0.5483
 3679W        W 7423   7.025   0.663   1.650  0.2545  0.0891 -0.0939
 3680W        W 7424   8.746   9.439  12.571  0.2270 -0.1448  0.0553
 3681W        W 7425   3.474   7.962   0.449  0.1937  0.0535  0.1774
 3682W        W 7426   8.244   1.592  10.724 -0.1157  0.0405 -0.0631
 3683W        W 7427   1.875   4.710   1.267  0.0579  0.0900  0.2976
 3684W        W 7428   9.128   8.746   2.400 -0.0316  0.4512 -0.0120
 3685W        W 7429   7.919   9.678   3.267 -0.1101 -0.1198 -0.2813
 3686W        W 7430   7.658   1.024   0.565  0.0632 -0.0910  0.2855
 3687W        W 7431   5.695   7.520   0.011  0.1588 -0.1312 -0.0676
 3688W        W 7432   0.166   5.199   9.207 -0.1027  0.1241  0.0037
 3689W        W 7433   4.688   8.770   9.678 -0.2396 -0.1121 -0.0218
 3690W        W 7434   0.863   1.682   1.333  0.1244  0.1404  0.2285
 3691W        W 7435   6.423   6.264  12.284  0.1238 -0.2671  0.0066
 3692W        W 7436   9.829   7.273  10.441 -0.3200  0.1367 -0.4355
 3693W        W 7437   8.373   3.861   9.340 -0.0022 -0.0279 -0.2744
 3694W        W 7438   5.263   1.664   4.407  0.3026  0.1538  0.0633
 3695W        W 7439   9.274   0.868  10.969 -0.3630 -0.2203  0.2166
 3696W        W 7440   0.493   0.972  12.134 -0.1210  0.0476 -0.0681
 3697W        W 7441   2.400   5.755   1.777  0.1846  0.0759  0.0898
 3698W        W 7442   7.419   2.562   4.707 -0.1487  0.0977  0.0570
 3699W        W 7443   8.836   6.209   0.978  0.0877  0.0209 -0.1184
 3700W        W 7444   2.849   5.169   1.381  0.1888 -0.1723  0.3110
 3701W        W 7445   1.517   3.728  10.994  0.0724  0.3243 -0.0871
 3702W        W 7446   1.698   7.470   3.727 -0.1233  0.2089  0.1745
 3703W        W 7447   2.444   2.342  10.327 -0.1262 -0.0149  0.0279
 3704W        W 7448   0.245   0.663   2.446  0.1297  0.1142  0.2232
 3705W        W 7449   0.248   2.601   2.626 -0.2214 -0.0739  0.0675
 3706W        W 7450   2.252   6.711   3.080  0.1067  0.0842 -0.0676
 3707W        W 7451   6.513   4.517   0.303 -0.1125 -0.3003  0.1286
 3708W        W 7452   9.897   1.136   9.297  0.1961  0.1438  0.1089
 3709W        W 7453   1.264   5.853  11.961 -0.1972 -0.1434  0.0606
 3710W        W 7454   8.803   6.007   3.093 -0.1428  0.1580 -0.3005
 3711W        W 7455   0.127   2.418  12.854 -0.0333  0.2357  0.3145
 3712W        W 7456   5.115   9.813  10.849  0.0869  0.1815  0.0690
 3713W        W 7457   1.552   4.661  10.119 -0.1437 -0.1248 -0.0549
 3714W        W 7458   1.061   2.769  11.853  0.0107  0.0073  0.0244
 3715W        W 7459   9.365   7.914   2.638  0.0833  0.2777 -0.3110
 3716W        W 7460   2.564   3.975  11.890  0.1152  0.2101  0.0517
 3717W        W 7461   1.646   1.224  10.883 -0.0169  0.1928  0.1848
 3718W        W 7462   9.554   3.659   5.073  0.0544 -0.2579  0.0383
 3719W        W 7463   5.192   2.045   4.076 -0.0685 -0.2030  0.0083
 3720W        W 7464   8.133   4.875  12.788  0.0835  0.0671  0.1312
 3721W        W 7465   7.045   9.614  11.648  0.0392 -0.1027 -0.1805
 3722W        W 7466   8.010   0.141  12.524 -0.1554  0.1780  0.0118
 3723W        W 7467   3.410   7.467  10.278  0.2313  0.1818  0.0745
 3724W        W 7468   1.104   0.376  12.618  0.2011  0.1335 -0.0919
 3725W        W 7469   7.489   5.345  11.630 -0.0319 -0.2159 -0.3307
 3726W        W 7470   5.303   9.449  11.119 -0.0281  0.1532 -0.0749
 3727W        W 7471   6.254   5.124   9.167 -0.1066 -0.1152  0.0571
 3728W        W 7472   2.288   3.071   0.863 -0.2249  0.0569 -0.0550
 3729W        W 7473   6.278   8.643  10.204 -0.0058  0.1427  0.1418
 3730W        W 7474   6.055   3.703   3.647 -0.2463 -0.2613  0.2329
 3731W        W 7475   5.102   9.784   2.962 -0.0223  0.2368 -0.3378
 3732W        W 7476   4.724   3.570  11.747 -0.0096 -0.1423  0.2883
 3733W        W 7477   4.033   8.739   2.493  0.4961 -0.1182 -0.0750
 3734W        W 7478   2.161   3.571   0.613 -0.3193 -0.1522 -0.5233
 3735W        W 7479   3.929   8.880  10.367  0.0113  0.0906 -0.2374
 3736W        W 7480   1.617   6.929   3.813 -0.1314  0.0819  0.1395
 3737W        W 7481   5.008   2.387   8.865 -0.2051  0.1345  0.0087
 3738W        W 7482   2.105   9.433  12.761  0.1325  0.0298 -0.2059
 3739W        W 7483   1.474   7.071   0.787  0.1143  0.0678 -0.0691
 3740W        W 7484   3.004   4.843   8.749  0.3044 -0.1972  0.1285
 3741W        W 7485   0.597   3.275  11.028  0.3186 -0.0868  0.1604
 3742W        W 7486   2.323   8.152   4.473  0.1774  0.1527  0.0285
 3743W        W 7487   4.608   4.020  11.830 -0.0881 -0.0454 -0.1133
 3744W        W 7488   7.811   6.681   2.969  0.0260  0.0518  0.0056
 3745W        W 7489   7.692   4.552   2.052 -0.1089 -0.0996  0.1934
 3746W        W 7490   4.816   2.948  12.260 -0.0813  0.0140  0.0443
 3747W        W 7491   1.280   3.261   0.568 -0.1891  0.1374 -0.0289
 3748W        W 7492   2.738   4.637  11.575 -0.0060  0.0158  0.1747
 3749W        W 7493   6.809   9.472   0.290 -0.3615 -0.3392 -0.1389
 3750W        W 7494   0.953   1.265   3.375 -0.1172 -0.0035  0.0676
 3751W        W 7495   4.482   3.955  12.466  0.1534  0.1413  0.0739
 3752W        W 7496   5.434   6.499  12.082  0.3190  0.0484  0.1037
 3753W        W 7497   5.796   7.966  12.631  0.1411  0.4497 -0.2871
 3754W        W 7498   4.543   5.158   3.937 -0.2494  0.2654  0.1266
 3755W        W 7499   4.027   0.649   1.520 -0.0384 -0.1403  0.0672
 3756W        W 7500   0.931   2.681   1.936 -0.3059 -0.0348  0.3595
 3757W        W 7501   5.095   6.439   3.371  0.0263  0.1717  0.2688
 3758W        W 7502   2.806   1.019  12.829 -0.0679  0.2110  0.2579
 3759W        W 7503   3.174   9.518   4.356 -0.2578  0.0546 -0.1422
 3760W        W 7504   1.395   9.676  12.285 -0.1615  0.3421  0.4183
 3761W        W 7505   8.048   8.796   4.491 -0.1225 -0.3560 -0.2629
 3762W        W 7506   0.197   1.789  11.450  0.1363 -0.0136 -0.3356
 3763W        W 7507   2.549   3.006   9.133 -0.0303 -0.0077  0.0052
 3764W        W 7508   7.046   0.833   8.646 -0.2305 -0.0892 -0.0542
 3765W        W 7509   5.134   8.592  11.190  0.0364 -0.0498  0.2814
 3766W        W 7510   7.205   4.895   3.660  0.2169  0.0744 -0.0069
 3767W        W 7511   3.646   1.130   1.170  0.3067 -0.0444  0.2561
 3768W        W 7512   6.191   7.427  10.017 -0.0969 -0.0259  0.0553
 3769W        W 7513   2.282   8.101  10.716  0.2513 -0.3482  0.1542
 3770W        W 7514   2.982   8.874  12.250  0.0008 -0.2244  0.1846
 3771W        W 7515   1.668   1.740  10.131  0.0395 -0.0095 -0.1288
 3772W        W 7516   7.826   7.834   1.502  0.3244  0.2046  0.0928
 3773W        W 7517   7.957   2.199   2.005 -0.1037 -0.2671 -0.4307
 3774W        W 7518   4.221   1.583   1.354  0.0845 -0.3412  0.0290
 3775W        W 7519   4.064   1.087   9.846  0.0433  0.1795 -0.0504
 3776W        W 7520   8.309   1.831   9.933  0.0898  0.1506  0.2579
 3777W        W 7521   6.122   5.117  12.689 -0.0704 -0.2321  0.1005
 3778W        W 7522   1.268   7.097   2.878  0.0850  0.0399  0.0985
 3779W        W 7523   2.674   0.687  12.243 -0.3583  0.0221  0.1933
 3780W        W 7524   1.977   0.111  10.625 -0.1795  0.0055  0.3296
 3781W        W 7525   4.915   4.105   0.579 -0.0058 -0.3189 -0.1401
 3782W        W 7526   0.600   3.075  10.096  0.3609  0.2731  0.0060
 3783W        W 7527   1.041   1.244   0.978  0.0279 -0.1249  0.3852
 3784W        W 7528   0.225   1.886  12.829 -0.2520 -0.2903  0.0311
 3785W        W 7529   8.353   7.807  12.722  0.0052 -0.2264  0.3520
 3786W        W 7530   0.237   8.912   4.526  0.0522 -0.1363  0.0354
 3787W        W 7531   5.887   6.598  11.982  0.1269  0.4499  0.3173
 3788W        W 7532   7.780   6.709   0.767 -0.0188 -0.2866  0.1099
 3789W        W 7533   5.270   4.629  10.086  0.0728 -0.0889  0.2076
 3790W        W 7534   0.638   3.383  12.809 -0.0320 -0.0380  0.3740
 3791W        W 7535   0.953   0.262   3.079 -0.0119  0.0958  0.1211
 3792W        W 7536   0.192   5.873  12.271  0.0310 -0.0200  0.2206
 3793W        W 7537   6.576   2.217   9.886  0.1331  0.1526 -0.2916
 3794W        W 7538   6.093   6.273   0.874  0.1656 -0.0280  0.0539
 3795W        W 7539   4.666   4.296   3.426  0.1381  0.2990 -0.1845
 3796W        W 7540   4.010   7.936  12.380 -0.1044 -0.0242  0.3734
 3797W        W 7541   7.496   3.166  12.196  0.2119  0.3847 -0.0536
 3798W        W 7542   2.928   2.071  12.528  0.0387  0.1636  0.0313
 3799W        W 7543   5.669   2.787   3.709  0.0256  0.1242 -0.1141
 3800W        W 7544   3.733   6.637   3.478 -0.2368 -0.0496 -0.3062
 3801W        W 7545   2.351   1.333  12.675 -0.0980 -0.2586 -0.0125
 3802W        W 7546   2.636   8.889   9.799  0.1985 -0.3086 -0.1017
 3803W        W 7547   8.914   4.654   1.820  0.2859  0.0605 -0.2358
 3804W        W 7548   6.431   5.240   9.731 -0.0972  0.1217 -0.0080
 3805W        W 7549   2.637   9.009  12.817 -0.2185  0.1820  0.0241
 3806W        W 7550   4.383   4.373   1.243  0.1507 -0.3532  0.1067
 3807W        W 7551   7.563   6.246   2.705 -0.2762 -0.1560  0.0617
 3808W        W 7552   2.352   3.317  12.557  0.1021  0.1174 -0.1712
 3809W        W 7553   2.222   0.233   9.605  0.1559 -0.1915  0.0010
 3810W        W 7554   4.265   3.354  11.709  0.0343  0.2352  0.0058
 3811W        W 7555   5.703   7.640  10.289 -0.1041  0.2464 -0.2641
 3812W        W 7556   5.442   6.524  11.207 -0.1825 -0.1465 -0.1518
 3813W        W 7557   0.193   5.691   3.742 -0.1198  0.1844 -0.1260
 3814W        W 7558   3.392   7.565   2.518 -0.0990  0.0200 -0.1471
 3815W        W 7559   1.929   2.210  10.331  0.2352  0.0794  0.0462
 3816W        W 7560   4.502   1.089   3.887  0.1610  0.0209 -0.2356
 3817W        W 7561   8.417   9.343   9.614 -0.2748  0.0850  0.1427
 3818W        W 7562   6.973   3.941   1.694 -0.0599 -0.1458 -0.1706
 3819W        W 7563   0.704   3.548  11.453 -0.0574 -0.0396 -0.1558
 3820W        W 7564   8.075   3.443   3.963  0.1385  0.0077 -0.4912
 3821W        W 7565   0.533   7.254   3.225  0.1845 -0.2432 -0.2472
 3822W        W 7566   5.918   2.620  11.247 -0.2718  0.2593 -0.1369
 3823W        W 7567   6.033   0.381   9.165 -0.0172  0.0411 -0.3237
 3824W        W 7568   4.173   4.105   5.044 -0.3771 -0.1654  0.1873
 3825W        W 7569   3.743   8.429   0.506  0.0749  0.1335 -0.2138
 3826W        W 7570   0.446   3.605   1.379 -0.1920 -0.3749  0.1625
 3827W        W 7571   0.205   8.958  11.703 -0.4088  0.3364  0.1197
 3828W        W 7572   8.334   0.700  11.178 -0.2872  0.0823 -0.5298
 3829W        W 7573   8.121   9.570  10.782  0.1183 -0.0095 -0.1647
 3830W        W 7574   8.138   3.313  10.114 -0.0043  0.0245 -0.0264
 3831W        W 7575   6.224   7.950  11.754  0.3080 -0.0167  0.2484
 3832W        W 7576   0.957   8.933  10.946  0.2469 -0.0240 -0.4394
 3833W        W 7577   1.475   3.303  12.689 -0.1902  0.0937 -0.1477
 3834W        W 7578   8.607   1.380   2.876  0.2947  0.0573 -0.0365
 3835W        W 7579   7.188   3.677   8.936 -0.1879  0.3753  0.0071
 3836W        W 7580   1.048   3.588  11.117 -0.3180 -0.0166  0.0114
 3837W        W 7581   6.805   2.764  10.441 -0.2528  0.0741 -0.3424
 3838W        W 7582   6.751   8.893   1.373 -0.0956  0.2685 -0.1756
 3839W        W 7583   3.027   8.047  11.348  0.5169  0.0145  0.1337
 3840W        W 7584   9.076   6.427   9.577 -0.2262 -0.3151  0.0225
 3841W        W 7585   7.011   2.455  11.963 -0.0062 -0.0515  0.1338
 3842W        W 7586   1.365   9.727   8.854  0.2131 -0.4196 -0.3236
 3843W        W 7587   9.071   6.056   9.239 -0.0932 -0.0118  0.0334
 3844W        W 7588   0.633   8.714   3.153  0.2672 -0.0838  0.0274
 3845W        W 7589   7.870   0.387   2.467  0.1768 -0.3744  0.4697
 3846W        W 7590   3.030   4.852   1.960  0.1882  0.2280  0.1621
 3847W        W 7591   6.265   7.294   3.000  0.1760  0.0681  0.2018
 3848W        W 7592   8.114   3.681   9.821  0.2887  0.0897  0.0349
 3849W        W 7593   2.939   0.812   9.229 -0.2252 -0.2049  0.2986
 3850W        W 7594   6.377   6.289   2.137  0.1899 -0.1575 -0.3791
 3851W        W 7595   8.926   4.429  10.814  0.1518 -0.1256  0.0906
 3852W        W 7596   5.920   9.836   1.637 -0.2958  0.1591  0.0664
 3853W        W 7597   2.246   7.458   2.971  0.2390  0.0864 -0.3963
 3854W        W 7598   6.820   7.537   3.897  0.1337  0.0725 -0.0956
 3855W        W 7599   6.984   2.929   1.683  0.4118  0.1592 -0.1210
 3856W        W 7600   7.764   1.158  11.847 -0.0307  0.1021  0.5595
 3857W        W 7601   5.416   4.091   2.472 -0.1379  0.5498  0.2476
 3858W        W 7602   4.447   0.219   9.215  0.0347 -0.1869 -0.2815
 3859W        W 7603   3.917   7.993  10.205 -0.2406  0.0814 -0.1348
 3860W        W 7604   2.858   3.549   8.721 -0.2189 -0.3609  0.1809
 3861W        W 7605   6.319   9.179  11.443 -0.2042  0.0038 -0.1937
 3862W        W 7606   6.949   4.498   2.757  0.2617 -0.2417 -0.2598
 3863W        W 7607   0.097   4.509   4.434  0.0240 -0.2907 -0.0464
 3864W        W 7608   9.104   5.424   0.041  0.0686  0.1534  0.0546
 3865W        W 7609   4.178   0.812  12.701  0.2874 -0.0962 -0.0767
 3866W        W 7610   3.095   8.787  10.641 -0.0008 -0.0611 -0.2832
 3867W        W 7611   2.375   7.691   1.704  0.3225  0.2335  0.1686
 3868W        W 7612   7.328   7.774  12.689  0.2868  0.2664  0.0974
 3869W        W 7613   2.374   1.920   1.610  0.0443  0.0857 -0.0953
 3870W        W 7614   7.272   8.819   2.894  0.2166 -0.0595  0.0917
 3871W        W 7615   5.204   8.882  10.812  0.1578 -0.0359  0.0246
 3872W        W 7616   5.125   8.503   0.087  0.0458 -0.1263  0.0147
 3873W        W 7617   1.902   6.503   0.349 -0.1014 -0.0226 -0.1483
 3874W        W 7618   3.855   4.692   0.634 -0.2720 -0.1515 -0.1406
 3875W        W 7619   2.621   9.519  12.802  0.0197 -0.1603  0.1622
 3876W        W 7620   0.285   4.061   0.444 -0.0112 -0.1649  0.0452
 3877W        W 7621   6.792   1.581  11.027  0.1224  0.0879 -0.1399
 3878W        W 7622   3.096   4.063   3.589 -0.2121  0.0360  0.1111
 3879W        W 7623   9.804   0.074   3.964 -0.1698  0.2068 -0.1324
 3880W        W 7624   2.634   5.368   3.764 -0.1534  0.0403  0.1649
 3881W        W 7625   0.677   5.622   3.444  0.3492  0.0150 -0.1240
 3882W        W 7626   5.650   3.657  12.585  0.0845  0.0511 -0.3420
 3883W        W 7627   0.980   6.004   3.657 -0.1340 -0.0778 -0.2124
 3884W        W 7628   6.075   2.215   0.383 -0.0141  0.0908  0.0259
 3885W        W 7629   5.272   2.064  11.091  0.2792 -0.1925 -0.0756
 3886W        W 7630   2.251   0.451   1.122 -0.2135  0.1060  0.0689
 3887W        W 7631   0.072   1.509   3.670 -0.1003  0.1548  0.1514
 3888W        W 7632   1.063   3.475  12.431  0.1453  0.0721 -0.1700
 3889W        W 7633   6.160   8.432   1.591 -0.0423  0.0447 -0.2022
 3890W        W 7634   9.130   9.173   1.052 -0.2051 -0.0321  0.2681
 3891W        W 7635   5.452   6.985   3.216  0.0347  0.2862  0.0344
 3892W        W 7636   3.924   6.503  12.067  0.1341 -0.2951  0.2791
 3893W        W 7637   5.550   1.238   9.514  0.0018 -0.1123  0.0052
 3894W        W 7638   1.258   9.210  12.403 -0.1005  0.0413  0.0546
 3895W        W 7639   0.404   5.455  10.533 -0.0348  0.2478 -0.1512
 3896W        W 7640   0.267   9.078   1.694 -0.1610  0.1657  0.0778
 3897W        W 7641   5.511   8.002  11.238  0.4134  0.1156  0.0285
 3898W        W 7642   4.231   7.922   4.231 -0.2158 -0.0215  0.0462
 3899W        W 7643   8.170   0.243   1.349 -0.4229 -0.1165 -0.1527
 3900W        W 7644   4.047   8.980   3.156  0.1032 -0.1488 -0.0317
 3901W        W 7645   7.810   9.377   8.615  0.0846 -0.2557 -0.1448
 3902W        W 7646   6.156   4.969  11.207  0.2279  0.1096  0.3876
 3903W        W 7647   4.065   3.302   3.269 -0.2904  0.1534  0.0385
 3904W        W 7648   0.902   1.270   0.174  0.0978  0.0161  0.2147
 3905W        W 7649   1.758   1.140   2.174  0.1088 -0.1923  0.0699
 3906W        W 7650   7.670   9.892  10.701  0.1562 -0.0243 -0.1072
 3907W        W 7651   5.298   5.176  10.742 -0.1272  0.1341 -0.1429
 3908W        W 7652   6.485   6.101  10.821 -0.0889  0.2934  0.1872
 3909W        W 7653   5.211   1.799   4.976  0.0240 -0.2622 -0.0342
 3910W        W 7654   8.553   3.564  10.541  0.2123 -0.0487 -0.2544
 3911W        W 7655   7.386   4.928  11.303 -0.2313 -0.2180  0.0989
 3912W        W 7656   1.014   5.790   0.542 -0.1649  0.0306  0.2044
 3913W        W 7657   9.296   3.890   0.585  0.1414 -0.3087  0.1742
 3914W        W 7658   9.897   9.632   9.516  0.1803 -0.0905  0.0575
 3915W        W 7659   8.944   8.004  12.243  0.2765  0.0729 -0.0518
 3916W        W 7660   3.434   6.661  10.258 -0.0114  0.0287  0.1351
 3917W        W 7661   0.278   7.758  12.353 -0.0828 -0.1511 -0.2429
 3918W        W 7662   2.742   4.050   7.694 -0.0510  0.0105 -0.2306
 3919W        W 7663   4.034   4.791   1.688  0.0882  0.0849  0.1900
 3920W        W 7664   7.864   8.123   2.436  0.0638  0.0179 -0.1190
 3921W        W 7665   3.831   5.493   0.438  0.0348  0.0549  0.0760
 3922W        W 7666   6.740   1.109   0.584 -0.1474 -0.1571  0.0914
 3923W        W 7667   7.062   6.784   0.906  0.0317  0.1959  0.0788
 3924W        W 7668   3.525   1.841   2.663 -0.0490  0.0122  0.0992
 3925W        W 7669   4.832   3.762   1.781 -0.0506 -0.1435 -0.1483
 3926W        W 7670   5.842   7.874   2.036  0.0800 -0.4384  0.1972
 3927W        W 7671   4.088   7.939   4.731  0.0238  0.0958  0.0310
 3928W        W 7672   0.572   4.656   9.124  0.0588  0.0654 -0.0419
 3929W        W 7673   1.278   8.399   2.685  0.0454  0.3422 -0.1992
 3930W        W 7674   4.443   0.607   4.553  0.0984  0.1322 -0.1343
 3931W        W 7675   8.684   4.837   1.422 -0.1385 -0.0234 -0.0479
 3932W        W 7676   3.716   2.910  12.032 -0.0462 -0.1003  0.1109
 3933W        W 7677   9.170   4.701   3.185 -0.1797 -0.0441 -0.3793
 3934W        W 7678   7.469   2.796   3.169  0.0491 -0.0451 -0.1548
 3935W        W 7679   9.015   2.308   9.295 -0.1814  0.2979  0.3933
 3936W        W 7680   3.484   4.229  10.996  0.1438 -0.3198 -0.0687
 3937W        W 7681   0.456   2.390   9.295 -0.0683 -0.0972  0.1109
 3938W        W 7682   2.258   8.438   2.213 -0.2189  0.0674 -0.2264
 3939W        W 7683   2.727   0.517   8.909 -0.2204  0.1034  0.1848
 3940W        W 7684   2.286   4.485   9.045 -0.0958 -0.0397 -0.1659
 3941W        W 7685   9.339   3.647   4.344  0.0159  0.1051  0.3777
 3942W        W 7686   0.907   2.457   9.501 -0.2529 -0.1720  0.2004
 3943W        W 7687   0.820   7.398   3.636 -0.0390 -0.3996 -0.1223
 3944W        W 7688   3.461   6.732   4.567  0.0318 -0.0475 -0.0603
 3945W        W 7689   8.816   3.017   2.601  0.3915 -0.2302  0.1709
 3946W        W 7690   4.220   2.428   8.189 -0.0170 -0.0804  0.1190
 3947W        W 7691   8.784   0.772  11.737 -0.1423 -0.1104  0.1827
 3948W        W 7692   1.204   7.729   0.835 -0.0073 -0.0813 -0.0145
 3949W        W 7693   6.456   6.863   1.700  0.0560 -0.3000 -0.0995
 3950W        W 7694   7.681   1.147   1.053 -0.0533  0.1251 -0.2079
 3951W        W 7695   1.357   4.117   5.180 -0.0942 -0.1001  0.2403
 3952W        W 7696   6.519   3.102   8.557 -0.4038  0.1578  0.1441
 3953W        W 7697   4.164   6.324   0.772 -0.0329 -0.0296 -0.0050
 3954W        W 7698   2.287   1.906   2.095 -0.3352 -0.2467  0.2759
 3955W        W 7699   6.605   6.593   3.826  0.1276  0.0733  0.0826
 3956W        W 7700   7.441   2.847   2.651  0.0972 -0.4174 -0.0517
 3957W        W 7701   8.367   6.415  11.584  0.0631  0.0571  0.0040
 3958W        W 7702   0.394   8.416   0.791  0.2733  0.0095  0.0121
 3959W        W 7703   4.650   3.490   3.995 -0.3557  0.0770 -0.1823
 3960W        W 7704   7.602   2.042   2.340 -0.2692  0.4168 -0.4551
 3961W        W 7705   8.692   0.085   2.642  0.3025 -0.1133  0.1842
 3962W        W 7706   5.482   2.573  11.137  0.0765  0.3710 -0.2695
 3963W        W 7707   6.520   2.829  12.785 -0.1355 -0.1127 -0.2593
 3964W        W 7708   1.890   1.573  12.818 -0.1105  0.1374  0.0616
 3965W        W 7709   4.002   8.357  11.192  0.2513  0.0440 -0.1365
 3966W        W 7710   2.137   8.516   9.760  0.2398 -0.0272  0.1435
 3967W        W 7711   2.238   7.029   4.464 -0.1495  0.1217  0.1378
 3968W        W 7712   9.801   1.920  11.047  0.0807  0.0955  0.2429
 3969W        W 7713   2.276   2.365   9.851  0.0516  0.0328  0.2288
 3970W        W 7714   7.652   8.518  12.088  0.1303  0.0883 -0.0672
 3971W        W 7715   5.245   1.015   1.553 -0.2802 -0.0395 -0.2337
 3972W        W 7716   5.832   0.116   2.545  0.2077 -0.0825 -0.1270
 3973W        W 7717   9.723   2.608  10.585  0.1314  0.0009  0.1119
 3974W        W 7718   8.771   7.713   3.372  0.1327 -0.0205  0.1397
 3975W        W 7719   6.487   8.005   1.136  0.2375  0.2054  0.1038
 3976W        W 7720   9.494   2.083   9.585 -0.4815 -0.1401 -0.2268
 3977W        W 7721   2.599   8.107   3.572 -0.4041 -0.2678  0.3110
 3978W        W 7722   5.701   5.214   0.104  0.0409 -0.3652  0.3844
 3979W        W 7723   0.322   2.203  11.207  0.1887  0.2107 -0.1892
 3980W        W 7724   1.116   7.015  10.713 -0.3871 -0.0417 -0.0562
 3981W        W 7725   2.110   8.387   0.565  0.0404  0.2060 -0.0662
 3982W        W 7726   6.349   9.669   0.945  0.1885  0.1632  0.0337
 3983W        W 7727   2.557   2.059  12.181  0.1395  0.1148  0.2349
 3984W        W 7728   4.723   9.101   4.640 -0.1189  0.1832 -0.1184
 3985W        W 7729   9.765   6.493   1.245  0.0083  0.1305  0.0424
 3986W        W 7730   2.289   8.288  11.230  0.0100  0.1512  0.0243
 3987W        W 7731   4.553   5.949  10.420 -0.4396 -0.1799 -0.3108
 3988W        W 7732   9.076   8.087  11.397 -0.3937 -0.1349  0.0459
 3989W        W 7733   1.743   1.915   3.473 -0.1434  0.0038 -0.1681
 3990W        W 7734   7.587   8.913  10.681 -0.1597  0.0449 -0.0642
 3991W        W 7735   5.350   9.346  10.570 -0.0496 -0.0430 -0.0859
 3992W        W 7736   7.842   4.554  11.924  0.0091 -0.2288 -0.0896
 3993W        W 7737   0.559   0.255   1.625  0.0359  0.4017 -0.0814
 3994W        W 7738   5.317   1.916  11.563 -0.1315 -0.1015 -0.2000
 3995W        W 7739   0.441   3.902   8.684  0.2380 -0.0183 -0.0983
 3996W        W 7740   1.544   5.195  12.691  0.2561 -0.2169  0.1258
 3997W        W 7741   5.836   7.472  12.326 -0.0025 -0.0631  0.1074
 3998W        W 7742   0.174   3.066  10.908  0.0487  0.1500 -0.2550
 3999W        W 7743   0.531   9.301   2.220 -0.0257 -0.1102 -0.1137
 4000W        W 7744   2.694   0.523  11.238 -0.0125  0.2389 -0.0019
 4001W        W 7745   0.772   3.945   4.683 -0.2370  0.4284  0.2652
 4002W        W 7746   5.300   2.750  12.304  0.0217  0.0434  0.0620
 4003W        W 7747   7.406   8.930  11.393 -0.1596 -0.0044  0.0263
 4004W        W 7748   0.286   3.366   0.244  0.3621 -0.1122  0.1172
 4005W        W 7749   6.451   4.879  12.290 -0.4929 -0.0986 -0.2051
 4006W        W 7750   6.298   6.964   1.197 -0.5179 -0.0489 -0.1794
 4007W        W 7751   2.365   6.388  10.533  0.2309 -0.1496  0.1069
 4008W        W 7752   7.357   2.099  11.854  0.1122  0.1724  0.0352
 4009W        W 7753   9.446   9.872   9.658  0.1001 -0.2768  0.0262
 4010W        W 7754   0.380   4.543   3.407  0.1923 -0.2593  0.4482
 4011W        W 7755   1.057   6.800   2.516  0.0105  0.0115 -0.0343
 4012W        W 7756   4.571   8.535   1.613 -0.0667  0.2305  0.2329
 4013W        W 7757   0.942   1.054   1.465  0.1564  0.0009  0.0378
 4014W        W 7758   9.583   4.664  12.831 -0.0556  0.0154  0.4038
 4015W        W 7759   0.068   0.063  12.728 -0.2395 -0.2104  0.1096
 4016W        W 7760   2.294   6.128   0.781  0.0388 -0.3283 -0.1604
 4017W        W 7761   2.231   0.680  11.367 -0.0187  0.0012  0.0215
 4018W        W 7762   2.994   2.184   3.390 -0.1152  0.0363  0.1375
 4019W        W 7763   3.235   5.303  12.601  0.0191 -0.0535  0.0174
 4020W        W 7764   0.364   9.890  10.278  0.0962 -0.1267  0.0568
 4021W        W 7765   5.915   1.637   1.225 -0.5361 -0.1073  0.1949
 4022W        W 7766   3.050   8.401  10.176  0.2032 -0.2981  0.2322
 4023W        W 7767   2.729   8.408  11.528 -0.0353  0.0317  0.1183
 4024W        W 7768   8.436   7.383   1.160 -0.1873 -0.0245  0.1867
 4025W        W 7769   1.390   3.807  12.686 -0.0018  0.0335 -0.1716
 4026W        W 7770   3.748   1.567   3.561  0.3778  0.0834 -0.3137
 4027W        W 7771   4.908   1.760  11.331  0.0590  0.1569 -0.0051
 4028W        W 7772   8.136   4.263   2.140  0.1606 -0.0748  0.2668
 4029W        W 7773   0.991   4.710   1.386 -0.1638 -0.0401 -0.0738
 4030W        W 7774   6.107   4.678   9.805  0.1342 -0.0162 -0.3346
 4031W        W 7775   6.016   3.930   3.198  0.1201  0.1129  0.0377
 4032W        W 7776   7.996   7.567  10.720  0.0647 -0.1944 -0.3662
 4033W        W 7777   2.922   3.662  11.549 -0.0103 -0.1414 -0.0901
 4034W        W 7778   8.947   8.225   2.637  0.2378 -0.2775  0.1773
 4035W        W 7779   7.865   5.963  12.065 -0.0104 -0.0270  0.2705
 4036W        W 7780   1.887   5.008   9.514 -0.2182  0.3568  0.1294
 4037W        W 7781   9.242   6.825   3.844 -0.2532 -0.3499  0.3524
 4038W        W 7782   2.968   5.391   8.833  0.0676  0.4545 -0.2008
 4039W        W 7783   4.206   6.850   0.846 -0.1173  0.1866  0.3627
 4040W        W 7784   2.816   2.176  11.620 -0.1252 -0.2077 -0.0786
 4041W        W 7785   1.026   3.289  11.976  0.1850  0.0278 -0.0158
 4042W        W 7786   1.016   9.042   1.302  0.2020 -0.1568 -0.2017
 4043W        W 7787   9.090   1.175   0.691 -0.1137  0.1023  0.1468
 4044W        W 7788   0.649   6.161   3.385 -0.2180 -0.0993  0.0683
 4045W        W 7789   2.895   9.804  12.077  0.2364  0.0755  0.2097
 4046W        W 7790   1.592   2.462   1.254  0.0136  0.1035 -0.1857
 4047W        W 7791   2.413   4.767   1.873 -0.3580  0.0574 -0.2706
 4048W        W 7792   9.651   8.268   8.438 -0.1303  0.1458  0.1497
 4049W        W 7793   0.218   2.185  11.742 -0.1535  0.0365 -0.0548
 4050W        W 7794   6.679   3.630   1.446 -0.0583  0.2855 -0.2311
 4051W        W 7795   1.812   9.144  12.400 -0.0477 -0.3467 -0.3719
 4052W        W 7796   1.175   6.530   1.638  0.2189  0.2133  0.0981
 4053W        W 7797   8.760   5.520   2.772  0.0521 -0.3587  0.0169
 4054W        W 7798   5.258   2.694   3.067  0.1001  0.1944  0.0447
 4055W        W 7799   1.000   0.052  12.242 -0.2660  0.0027 -0.4033
 4056W        W 7800   9.504   6.726   0.611  0.3735 -0.0859  0.0820
 4057W        W 7801   0.906   7.953  11.096  0.0184  0.2691  0.1568
 4058W        W 7802   2.806   7.250   1.796  0.0709  0.0141  0.3560
 4059W        W 7803   1.596   8.213   2.138  0.2142  0.1011 -0.0453
 4060W        W 7804   1.441   9.867   1.448  0.0494  0.1584  0.0383
 4061W        W 7805   3.781   4.715  10.702 -0.2077 -0.0509  0.0370
 4062W        W 7806   3.919   4.618  11.874 -0.2400 -0.0906 -0.1053
 4063W        W 7807   5.497   9.387   2.953  0.2354 -0.1477  0.1918
 4064W        W 7808   8.480   3.064  10.353  0.3149  0.1944  0.2579
 4065W        W 7809   5.405   5.636  12.679  0.1816 -0.1015  0.0449
 4066W        W 7810   6.056   3.324   9.348 -0.0030 -0.0019  0.0567
 4067W        W 7811   5.417   0.187  11.787 -0.1760  0.2160 -0.0475
 4068W        W 7812   3.530   7.880   8.879  0.1618 -0.2003  0.1007
 4069W        W 7813   2.467   6.606   0.757  0.2507  0.0643 -0.0914
 4070W        W 7814   3.771   0.545   1.927 -0.1495 -0.0746 -0.2481
 4071W        W 7815   1.611   1.596  11.674 -0.0278  0.2257  0.0436
 4072W        W 7816   3.977   4.308   0.976 -0.1294 -0.0147  0.0372
 4073W        W 7817   9.826   1.241  10.928 -0.2178  0.0469 -0.2249
 4074W        W 7818   6.237   9.231   0.396 -0.0151  0.2078  0.1631
 4075W        W 7819   6.122   2.381   1.918 -0.4295  0.2445 -0.3056
 4076W        W 7820   8.434   0.265  10.325  0.2892  0.0162 -0.0961
 4077W        W 7821   0.355   6.555   0.894 -0.1584 -0.2802 -0.2233
 4078W        W 7822   0.839   0.357   0.641  0.2358 -0.1186 -0.1190
 4079W        W 7823   4.862   2.387   2.173 -0.1474 -0.2890  0.1083
 4080W        W 7824   6.631   9.016   9.962  0.1088  0.2898  0.3750
 4081W        W 7825   3.885   3.924   9.621  0.2134 -0.0498 -0.0213
 4082W        W 7826   6.067   3.518  11.088 -0.2466  0.2062 -0.0938
 4083W        W 7827   6.213   0.719   8.289  0.2198  0.0960 -0.1421
 4084W        W 7828   1.242   7.296   3.928 -0.1114  0.0390  0.3815
 4085W        W 7829   0.131   8.685   9.086 -0.1041  0.2310 -0.1424
 4086W        W 7830   2.063   0.340  11.757 -0.0653 -0.0466  0.3553
 4087W        W 7831   2.528   5.034   0.057  0.2743  0.0633  0.1643
 4088W        W 7832   4.428   3.069   2.946 -0.1255 -0.0999 -0.0668
 4089W        W 7833   2.306   4.902   1.397  0.0831 -0.0586  0.1875
 4090W        W 7834   8.168   5.762   9.871  0.2277  0.0223 -0.6026
 4091W        W 7835   9.440   1.138   1.071  0.1168  0.2124  0.0218
 4092W        W 7836   2.400   5.538  12.124 -0.1434 -0.1389  0.1869
 4093W        W 7837   7.727   3.489   3.569 -0.1611  0.0931  0.3265
 4094W        W 7838   0.379   2.332   3.083  0.1301  0.0320  0.0339
 4095W        W 7839   4.609   2.785  10.016  0.0953  0.0687  0.1805
 4096W        W 7840   1.969   5.158   0.023 -0.1456 -0.1829  0.0129
 4097W        W 7841   3.610   4.048   0.083  0.1787 -0.1105 -0.0075
 4098W        W 7842   8.937   3.654   9.133  0.1468  0.1389  0.0905
 4099W        W 7843   5.502   7.915   0.707  0.3211 -0.2587  0.0094
 4100W        W 7844   9.912   4.718  10.700  0.2794 -0.0091 -0.2904
 4101W        W 7845   5.744   6.326   9.854  0.2357  0.1544 -0.0069
 4102W        W 7846   8.743   4.082  10.391 -0.2653  0.1508 -0.0665
 4103W        W 7847   0.271   5.865   3.278  0.4938  0.2771 -0.1698
 4104W        W 7848   6.825   9.610   2.692 -0.2902 -0.1445  0.0304
 4105W        W 7849   8.705   0.530  12.169  0.1639  0.0121  0.0439
 4106W        W 7850   9.565   3.079   5.033  0.0520  0.1351  0.2258
 4107W        W 7851   2.485   7.825   2.702 -0.0937 -0.0576  0.0482
 4108W        W 7852   3.049   2.850  11.020  0.1137  0.0828  0.0556
 4109W        W 7853   0.497   9.828   2.183 -0.1464 -0.0369 -0.0740
 4110W        W 7854   4.913   1.964   0.470 -0.2186 -0.0008 -0.1456
 4111W        W 7855   3.044   8.143   1.583  0.0107  0.0104 -0.2443
 4112W        W 7856   4.111   2.513   9.944 -0.0785 -0.4402  0.1312
 4113W        W 7857   3.995   9.733   3.990  0.3267  0.2556 -0.0034
 4114W        W 7858   9.564   7.457  12.705  0.0968 -0.2464  0.1496
 4115W        W 7859   7.195   0.140  12.519 -0.1123  0.0647 -0.0577
 4116W        W 7860   4.231   6.727   3.043  0.1749 -0.0386 -0.1222
 4117W        W 7861   8.571   5.256   0.001 -0.0285 -0.1552  0.1418
 4118W        W 7862   3.188   2.434  10.408 -0.3964 -0.1271 -0.1409
 4119W        W 7863   2.713   0.897   9.983 -0.1109 -0.3191 -0.0501
 4120W        W 7864   4.970   1.129   3.777 -0.1127 -0.1094  0.1459
 4121W        W 7865   4.694   2.020   4.203 -0.0364 -0.0558  0.1068
 4122W        W 7866   0.370   8.123   9.072 -0.1546 -0.4410 -0.1704
 4123W        W 7867   4.393   5.624   0.525  0.0520 -0.0340  0.0110
 4124W        W 7868   7.139   7.270   0.970  0.0071 -0.0834  0.2589
 4125W        W 7869   0.265   3.628   3.878 -0.2420  0.1836 -0.1722
 4126W        W 7870   3.929   8.480   9.992 -0.2046  0.0329  0.0354
 4127W        W 7871   9.297   0.192  10.172  0.0485 -0.0319  0.3598
 4128W        W 7872   3.821   5.711   2.156  0.1287  0.0414 -0.1158
 4129W        W 7873   8.021   4.968   0.866  0.0687 -0.1526 -0.3565
 4130W        W 7874   2.318   2.848  11.020 -0.0261  0.3941 -0.0257
 4131W        W 7875   1.211   9.470   0.635  0.0083 -0.0745  0.2670
 4132W        W 7876   3.427   7.344   4.625  0.3535 -0.1255  0.1573
 4133W        W 7877   1.356   3.428   1.098  0.0310  0.0713  0.4475
 4134W        W 7878   1.138   2.210   2.651 -0.2150 -0.2448  0.0108
 4135W        W 7879   4.808   6.451   1.731  0.4667 -0.0512 -0.3255
 4136W        W 7880   9.531   1.893   3.205 -0.0598  0.0750  0.1848
 4137W        W 7881   8.668   2.549   9.681  0.0478  0.1692 -0.1507
 4138W        W 7882   5.378   2.485   1.575  0.2654  0.3193  0.2315
 4139W        W 7883   4.979   5.259   9.167  0.0393  0.2616 -0.1085
 4140W        W 7884   6.980   7.326  12.689  0.2244 -0.0565  0.0709
 4141W        W 7885   7.003   6.914  10.782 -0.1771  0.0721 -0.1747
 4142W        W 7886   8.516   0.055  11.824  0.2340  0.0475  0.3052
 4143W        W 7887   3.503   8.709  11.564  0.0904 -0.0531  0.1798
 4144W        W 7888   9.055   9.596   0.031 -0.0504 -0.0307 -0.0839
 4145W        W 7889   3.709   7.035   3.193 -0.2523  0.1738  0.0183
 4146W        W 7890   9.538   9.272   1.436  0.3481  0.3137  0.3013
 4147W        W 7891   3.441   8.599   3.251  0.0506  0.0129  0.2259
 4148W        W 7892   8.483   1.298   0.456 -0.1638 -0.0828 -0.0992
 4149W        W 7893   7.313   0.855   9.683 -0.1415 -0.0292  0.1589
 4150W        W 7894   1.858   4.513   0.818 -0.2299  0.0140  0.0139
 4151W        W 7895   2.401   2.864   4.401  0.0725 -0.0631 -0.1353
 4152W        W 7896   9.903   6.978  10.833  0.1982 -0.1092  0.1217
 4153W        W 7897   4.628   9.066  12.411 -0.0148 -0.0885 -0.0979
 4154W        W 7898   4.721   6.052   0.389  0.2923 -0.0027  0.0011
 4155W        W 7899   0.009   8.393  10.012  0.2707  0.2133 -0.0987
 4156W        W 7900   4.821   4.122   9.971 -0.0981  0.0749 -0.2712
 4157W        W 7901   2.702   3.844   2.874  0.0474  0.2313  0.1619
 4158W        W 7902   1.346   2.324   9.254  0.0766  0.3682  0.0007
 4159W        W 7903   4.936   1.510   4.107 -0.1276  0.4946  0.2061
 4160W        W 7904   1.368   2.128   3.769 -0.3370  0.4943  0.1277
 4161W        W 7905   2.680   9.673   1.456  0.1787  0.1729  0.1164
 4162W        W 7906   7.669   9.903   9.506 -0.3596 -0.0854 -0.1095
 4163W        W 7907   4.136   8.094   1.338 -0.1133  0.0933  0.0890
 4164W        W 7908   8.223   0.468  12.848 -0.0963 -0.1744 -0.0035
 4165W        W 7909   9.770   1.961   9.982  0.2537  0.2825 -0.2250
 4166W        W 7910   3.788   9.436   3.567  0.1967 -0.1265  0.2032
 4167W        W 7911   1.864   9.784   3.657  0.1489 -0.5725 -0.1511
 4168W        W 7912   1.812   4.770  12.632  0.2097  0.2386 -0.0720
 4169W        W 7913   3.304   4.499   1.494 -0.4693  0.1810 -0.0897
 4170W        W 7914   4.763   3.640   0.631  0.1838 -0.0224  0.0415
 4171W        W 7915   5.269   6.386   9.648  0.0843 -0.0791 -0.0354
 4172W        W 7916   5.158   0.567   4.453  0.3305 -0.2996 -0.1364
 4173W        W 7917   0.330   6.008   8.681 -0.2446 -0.2408  0.2388
 4174W        W 7918   6.624   0.388  12.597 -0.1536 -0.1047  0.5648
 4175W        W 7919   2.274   7.406   0.472 -0.0061 -0.0702  0.1384
 4176W        W 7920   7.141   0.104  10.734  0.3039  0.2509  0.2047
 4177W        W 7921   1.165   0.390   2.293 -0.0577  0.1823  0.1444
 4178W        W 7922   2.879   7.583   9.375 -0.5584 -0.2782  0.0691
 4179W        W 7923   7.187   3.416   7.980  0.0628  0.1552  0.1335
 4180W        W 7924   2.297   1.875   3.249  0.1640 -0.2906 -0.0822
 4181W        W 7925   8.837   1.738   9.957  0.0198 -0.2114  0.0013
 4182W        W 7926   6.582   4.780   1.679 -0.0936 -0.2221 -0.3815
 4183W        W 7927   4.610   8.487  11.873 -0.2474  0.3747  0.0481
 4184W        W 7928   0.121   0.343   1.381 -0.3050  0.2106 -0.2065
 4185W        W 7929   6.290   6.488   0.389  0.0769  0.0692 -0.2707
 4186W        W 7930   5.993   6.240  12.671  0.0374  0.0178 -0.2557
 4187W        W 7931   7.771   8.046  12.027 -0.2021  0.0565 -0.2934
 4188W        W 7932   3.562   0.713   2.532 -0.0617 -0.4274  0.2308
 4189W        W 7933   7.553   4.264   1.279  0.4080 -0.3166 -0.0005
 4190W        W 7934   7.251   6.929  12.508 -0.1004  0.1773  0.1516
 4191W        W 7935   5.546   2.771  12.778  0.1366 -0.1711 -0.4586
 4192W        W 7936   4.265   7.656   5.084 -0.2842  0.1192 -0.0092
 4193W        W 7937   5.617   6.816   0.453  0.1423 -0.1239  0.2324
 4194W        W 7938   5.726   0.485   1.973 -0.0273 -0.0541 -0.0957
 4195W        W 7939   4.479   4.003   1.608  0.0402 -0.1628  0.0798
 4196W        W 7940   3.106   8.959   1.564  0.2974 -0.2664  0.0162
 4197W        W 7941   1.715   6.634  10.969  0.1646 -0.1623  0.1008
 4198W        W 7942   4.977   6.824   2.088  0.2424  0.1172  0.0685
 4199W        W 7943   7.441   3.294   2.394  0.0660  0.0418 -0.1466
 4200W        W 7944   5.802   0.984   8.638 -0.1079  0.3221  0.1738
 4201W        W 7945   1.590   2.183  11.028 -0.0478  0.0975  0.0225
 4202W        W 7946   1.342   0.553   2.845 -0.0995 -0.0876  0.0166
 4203W        W 7947   4.611   4.576   1.646 -0.0414  0.0391 -0.1790
 4204W        W 7948   6.575   1.048  10.021 -0.0344  0.0817  0.1223
 4205W        W 7949   7.193   3.429   1.528 -0.0354  0.2854 -0.0511
 4206W        W 7950   7.307   6.410   3.255  0.1372 -0.0532  0.1898
 4207W        W 7951   5.100   4.334  10.843  0.0868  0.1698  0.2069
 4208W        W 7952   8.168   4.801   9.694 -0.0970  0.1369 -0.2683
 4209W        W 7953   4.366   1.584   2.272  0.4823  0.1511 -0.4365
 4210W        W 7954   8.681   0.376  12.657 -0.0902  0.2245 -0.1729
 4211W        W 7955   6.618   0.871  12.395  0.1635 -0.0258  0.4955
 4212W        W 7956   6.698   0.090  11.573  0.1860 -0.1745 -0.0389
 4213W        W 7957   2.713   8.510   3.182 -0.2338  0.0318 -0.0489
 4214W        W 7958   6.269   6.501   1.350  0.1123  0.1142  0.0708
 4215W        W 7959   3.866   7.083   4.392 -0.0108 -0.0941  0.1222
 4216W        W 7960   1.434   8.410  10.543  0.0218  0.3654  0.1084
 4217W        W 7961   3.912   7.537   2.396  0.0637 -0.0066 -0.3239
 4218W        W 7962   3.947   5.158   9.361 -0.0747 -0.0859 -0.3458
 4219W        W 7963   0.036   7.901   2.825  0.0142  0.1611 -0.0631
 4220W        W 7964   4.675   2.657   2.533  0.5768 -0.1151 -0.0854
 4221W        W 7965   4.105   0.731  12.156  0.0041  0.0308 -0.1290
 4222W        W 7966   8.353   8.605  11.937 -0.5625 -0.0303  0.2345
 4223W        W 7967   2.044   0.892  11.794 -0.0667  0.0560 -0.2710
 4224W        W 7968   5.473   2.327  10.034 -0.0773  0.4180 -0.2517
 4225W        W 7969   2.429   2.657   3.917  0.1735  0.1487  0.0092
 4226W        W 7970   2.039   2.545  10.681  0.0905 -0.0321 -0.0741
 4227W        W 7971   4.324   9.602   3.524  0.1474  0.0519 -0.1266
 4228W        W 7972   7.044   1.749   0.882 -0.1008  0.0294  0.0839
 4229W        W 7973   7.013   4.561   1.035 -0.2577 -0.2184 -0.0725
 4230W        W 7974   6.305   8.526  10.870  0.0568  0.0675 -0.2384
 4231W        W 7975   3.603   8.121   1.730 -0.1553 -0.3215  0.1925
 4232W        W 7976   4.354   7.674  11.522 -0.3426  0.2316 -0.1324
 4233W        W 7977   2.940   5.476   3.323 -0.1054 -0.1234  0.0578
 4234W        W 7978   3.871   6.462   1.402  0.0478  0.0871  0.0147
 4235W        W 7979   2.876   4.671   2.734  0.3641  0.0010 -0.0516
 4236W        W 7980   5.212   1.757   3.150  0.1138  0.1439 -0.2027
 4237W        W 7981   8.236   8.346   2.108 -0.3129  0.2341  0.1022
 4238W        W 7982   7.248   6.804   1.362  0.1337  0.0533 -0.1201
 4239W        W 7983   1.717   8.665   5.011  0.0952 -0.0391  0.0899
 4240W        W 7984   1.658   0.315   2.547  0.1769  0.1790 -0.0327
 4241W        W 7985   1.854   1.691   2.911 -0.0750  0.0358 -0.5810
 4242W        W 7986   6.126   9.745   3.946 -0.0795 -0.0730  0.0250
 4243W        W 7987   6.545   7.754   2.182  0.3274 -0.1306 -0.0916
 4244W        W 7988   7.507   8.978   1.683  0.2418 -0.1559 -0.1401
 4245W        W 7989   2.484   1.064   9.550 -0.0840  0.0993 -0.0325
 4246W        W 7990   2.041   3.829   2.284 -0.2159  0.1782 -0.0260
 4247W        W 7991   9.217   5.592   3.054 -0.0651  0.0429 -0.0242
 4248W        W 7992   1.124   8.298  12.249 -0.0269  0.1251 -0.0144
 4249W        W 7993   3.222   7.225   2.874  0.0969  0.2595 -0.4606
 4250W        W 7994   2.764   8.056  12.775 -0.2960  0.1863  0.1283
 4251W        W 7995   2.534   8.044   9.235  0.0467 -0.2108 -0.1604
 4252W        W 7996   2.952   7.176  11.828 -0.0469  0.0192 -0.4335
 4253W        W 7997   6.661   9.328  11.800 -0.0562  0.3902  0.1451
 4254W        W 7998   1.751   2.906   2.936 -0.2052  0.1178 -0.2673
 4255W        W 7999   1.792   8.564   3.523  0.1528 -0.0147 -0.4602
 4256W        W 8000   0.419   6.332   0.049 -0.2302 -0.3220  0.0700
 4257W        W 8001   5.594   7.820   2.749  0.0593 -0.0587 -0.0814
 4258W        W 8002   6.073   8.398   9.767  0.5433 -0.1020 -0.1785
 4259W        W 8003   7.426   2.898   1.993 -0.0922 -0.0847  0.1943
 4260W        W 8004   1.693   1.897   0.421 -0.2616 -0.1584 -0.0504
 4261W        W 8005   9.138   2.846  12.411 -0.2986 -0.3286  0.1975
 4262W        W 8006   2.127   8.414   1.684 -0.1845 -0.2417 -0.2446
 4263W        W 8007   8.406   6.375   2.463 -0.1650 -0.1494 -0.0328
 4264W        W 8008   6.869   3.693   0.505 -0.0694 -0.2784  0.1541
 4265W        W 8009   4.253   0.866  10.288  0.1146  0.1691 -0.0001
 4266W        W 8010   5.055   9.862   0.669 -0.0356 -0.1422  0.2186
 4267W        W 8011   1.518   6.111   0.366  0.0719 -0.0339  0.0189
 4268W        W 8012   4.675   0.458   3.129  0.0603  0.0069 -0.0031
 4269W        W 8013   1.927   9.453  12.044  0.3663 -0.0134  0.1498
 4270W        W 8014   2.024   5.980   3.589  0.0056  0.2249 -0.1527
 4271W        W 8015   6.599   0.500  11.255 -0.1200  0.0313 -0.3717
 4272W        W 8016   7.341   7.257   1.459  0.0670 -0.2508  0.0731
 4273W        W 8017   8.786   5.098   9.150 -0.0738  0.0691  0.3093
 4274W        W 8018   9.531   5.464   1.039  0.1845  0.0425 -0.1955
 4275W        W 8019   2.520   6.763   0.042  0.0425 -0.2933 -0.0284
 4276W        W 8020   4.854   5.075  12.202  0.0110  0.1479 -0.0263
 4277W        W 8021   9.117   1.579   2.617 -0.0408  0.2039 -0.1839
 4278W        W 8022   9.405   3.020   0.708  0.0783  0.1060 -0.0276
 4279W        W 8023   7.303   0.086   1.372 -0.1747 -0.1169 -0.5575
 4280W        W 8024   0.834   0.393   9.635  0.2372  0.1325  0.0033
 4281W        W 8025   5.481   6.207  12.861 -0.0310  0.0862 -0.1567
 4282W        W 8026   1.987   6.775   2.628  0.2449  0.0979  0.1410
 4283W        W 8027   3.834   1.325   0.096  0.3517 -0.1500 -0.1104
 4284W        W 8028   1.090   0.159  11.100 -0.0471  0.0165 -0.3547
 4285W        W 8029   2.935   0.895  10.977 -0.0427  0.2043 -0.0712
 4286W        W 8030   4.384   6.159   8.525 -0.2252 -0.1944 -0.0026
 4287W        W 8031   1.872   0.043   8.605  0.0138  0.2130 -0.2859
 4288W        W 8032   6.180   4.107   2.111  0.0478 -0.0803 -0.1887
 4289W        W 8033   2.609   5.859   0.347 -0.3627 -0.1340  0.2715
 4290W        W 8034   0.286   6.193   3.739  0.0493 -0.1364 -0.0662
 4291W        W 8035   6.555   3.689   9.980 -0.1371 -0.0429  0.2763
 4292W        W 8036   1.552   4.161   1.921 -0.1208  0.2381  0.0912
 4293W        W 8037   4.703   5.851  11.009  0.1203 -0.0868  0.1170
 4294W        W 8038   3.310   2.009   4.317 -0.0697 -0.1337  0.1919
 4295W        W 8039   6.143   2.698  12.119  0.1323 -0.0688 -0.1806
 4296W        W 8040   3.360   3.705   1.091 -0.0530 -0.1286 -0.1769
 4297W        W 8041   1.615   8.217  10.142 -0.3881  0.0542  0.2231
 4298W        W 8042   0.507   9.771   1.216 -0.0173 -0.1930 -0.1556
 4299W        W 8043   0.922   9.390   9.023  0.0207 -0.5511 -0.1702
 4300W        W 8044   0.922   2.283  10.256  0.3126  0.1886 -0.0953
 4301W        W 8045   4.969   6.857   3.090 -0.0554 -0.1540  0.0718
 4302W        W 8046   6.597   0.034   2.947 -0.1269 -0.0106  0.0556
 4303W        W 8047   3.816   7.487   0.231 -0.0041 -0.0376 -0.2170
 4304W        W 8048   8.862   9.454  10.512 -0.0042  0.1869  0.0010
 4305W        W 8049   4.728   6.390   3.850  0.1442 -0.0714  0.0302
 4306W        W 8050   5.389   3.308  12.855  0.0378 -0.2605 -0.0306
 4307W        W 8051   1.794   1.158   3.000 -0.1516  0.3699 -0.0965
 4308W        W 8052   8.485   3.452   9.547 -0.0777  0.2004 -0.1234
 4309W        W 8053   4.943   9.525   1.597  0.2849 -0.3194  0.0139
 4310W        W 8054   2.130   1.879  12.416 -0.3478 -0.3595 -0.1258
 4311W        W 8055   2.176   7.539  12.395  0.0605  0.0212 -0.1232
 4312W        W 8056   3.970   6.763  12.493  0.2392  0.0355  0.0533
 4313W        W 8057   0.016   9.091   9.326 -0.0676 -0.0680 -0.0939
 4314W        W 8058   7.013   4.538   2.006 -0.0250 -0.1139 -0.1100
 4315W        W 8059   5.903   9.325   0.859  0.1182 -0.1115 -0.1653
 4316W        W 8060   7.503   4.053   9.864 -0.0173 -0.3928  0.1534
 4317W        W 8061   4.565   9.818   0.833 -0.1852  0.4308 -0.1196
 4318W        W 8062   3.598   5.784  12.377 -0.0768 -0.1144  0.3623
 4319W        W 8063   9.562   8.944   3.194  0.2219  0.1292  0.0750
 4320W        W 8064   2.508   4.865   3.625  0.0928 -0.2026  0.4031
 4321W        W 8065   9.067   1.165   9.946  0.0292  0.0607  0.1083
 4322W        W 8066   3.747   5.738   3.474  0.1377  0.0909  0.0022
 4323W        W 8067   6.845   4.705  11.979 -0.2180 -0.2839 -0.2154
 4324W        W 8068   6.888   1.072   9.493  0.0659  0.1231 -0.3007
 4325W        W 8069   8.755   0.873   0.790 -0.0551 -0.0270  0.3459
 4326W        W 8070   6.820   5.643   2.566 -0.2173 -0.1447  0.0309
 4327W        W 8071   9.408   8.774   1.182  0.0899  0.0653  0.1914
 4328W        W 8072   3.312   4.146  10.511 -0.0662  0.4131  0.1808
 4329W        W 8073   6.139   5.518  12.293  0.1578 -0.0944  0.3215
 4330W        W 8074   1.413   5.593   0.019 -0.2373 -0.1090 -0.0251
 4331W        W 8075   4.911   7.516   1.140 -0.0884 -0.0652  0.0745
 4332W        W 8076   0.659   2.504   0.733 -0.2499  0.0590 -0.1870
 4333W        W 8077   1.928   4.530  11.200 -0.2888  0.2024  0.1426
 4334W        W 8078   1.722   7.428  10.076  0.1880 -0.3131 -0.1832
 4335W        W 8079   5.357   7.174   0.198 -0.2460  0.2298 -0.3788
 4336W        W 8080   0.737   4.725   2.032 -0.1285 -0.1339  0.2243
 4337W        W 8081   7.153   4.488   8.479  0.0401 -0.0868  0.2258
 4338W        W 8082   2.817   9.726  10.199  0.1588  0.3461  0.1835
 4339W        W 8083   9.210   1.093   3.859  0.1641 -0.1706 -0.1576
 4340W        W 8084   6.634   0.012   0.476 -0.0447 -0.2664  0.1793
 4341W        W 8085   7.812   3.571  12.036  0.2430 -0.2105 -0.0481
 4342W        W 8086   1.321   6.430  10.257  0.1024 -0.0415  0.3023
 4343W        W 8087   4.674   0.438   2.269 -0.0928 -0.1051 -0.1675
 4344W        W 8088   2.088   9.372  10.556 -0.3177 -0.1229  0.1197
 4345W        W 8089   1.009   9.243  11.428 -0.0404 -0.0990 -0.0117
 4346W        W 8090   2.369   5.381  10.732  0.0221  0.0761 -0.1555
 4347W        W 8091   4.304   8.331   9.331 -0.0909 -0.2796 -0.0424
 4348W        W 8092   0.466   2.701   4.547  0.0510  0.2031  0.0996
 4349W        W 8093   0.741   6.240   9.680 -0.1716  0.1471 -0.0872
 4350W        W 8094   3.109   5.079  11.547 -0.0506 -0.2201  0.1270
 4351W        W 8095   0.465   2.738   8.767  0.1384  0.0480 -0.0530
 4352W        W 8096   7.805   2.019   9.133  0.1112 -0.0675  0.2308
 4353W        W 8097   5.543   5.871   8.881  0.0000  0.0095 -0.2225
 4354W        W 8098   0.184   6.638   3.964  0.1275 -0.0412  0.1766
 4355W        W 8099   5.823   9.711   3.581  0.0308 -0.0551 -0.4105
 4356W        W 8100   2.577   1.522   0.614  0.1932 -0.1613 -0.2637
 4357W        W 8101   5.804   0.348   9.808  0.0149  0.1690 -0.1213
 4358W        W 8102   1.559   4.338  12.320  0.0986  0.3700  0.2611
 4359W        W 8103   4.431   6.792   1.652  0.1576 -0.0276  0.0480
 4360W        W 8104   6.468   9.749   2.183 -0.1783  0.0682  0.2899
 4361W        W 8105   3.242   4.367   9.333  0.0234  0.1908  0.3585
 4362W        W 8106   8.680   5.502   9.905  0.0764  0.0770 -0.0402
 4363W        W 8107   8.873   0.532  10.191  0.1263 -0.0036 -0.1038
 4364W        W 8108   3.900   2.770  11.229  0.4246 -0.3095  0.1512
 4365W        W 8109   1.301   0.344   0.987 -0.0581 -0.2497 -0.1480
 4366W        W 8110   0.609   4.899   9.930 -0.2288 -0.2266  0.1502
 4367W        W 8111   0.553   3.226   9.609  0.1534  0.0421 -0.0949
 4368W        W 8112   5.580   0.869   9.072  0.2230  0.2052  0.1439
 4369W        W 8113   9.905   4.977   2.050 -0.3648 -0.2172 -0.1395
 4370W        W 8114   9.923   6.085   2.875 -0.0769 -0.0381 -0.0885
 4371W        W 8115   6.880   9.401   1.758  0.1716  0.1328 -0.0840
 4372W        W 8116   9.139   5.824   3.483 -0.0843 -0.2209 -0.0831
 4373W        W 8117   3.456   1.982   0.931 -0.1683  0.0198  0.0267
 4374W        W 8118   1.407   4.376  10.468  0.0931 -0.0422  0.1021
 4375W        W 8119   2.937   8.622   8.562  0.1655 -0.3820  0.0934
 4376W        W 8120   1.858   7.061   9.516 -0.1094 -0.0716  0.0224
 4377W        W 8121   5.589   2.516  10.523  0.1426 -0.1930 -0.2981
 4378W        W 8122   1.903   3.634   9.366 -0.0121  0.1032  0.4248
 4379W        W 8123   5.854   6.284  10.998 -0.5035  0.0472 -0.3706
 4380W        W 8124   6.282   0.701  11.567 -0.2305 -0.2077 -0.2353
 4381W        W 8125   5.670   3.379   2.627 -0.0753 -0.4241 -0.1489
 4382W        W 8126   2.612   0.689   0.371  0.1462  0.0690 -0.0649
 4383W        W 8127   9.079   6.392   2.891  0.0532 -0.4104  0.1123
 4384W        W 8128   7.563   3.414   1.165 -0.1996  0.2351 -0.0289
 4385W        W 8129   0.005   2.562  10.117  0.1108 -0.0905  0.1084
 4386W        W 8130   3.904   4.188  10.556 -0.0976  0.1862  0.1270
 4387W        W 8131   2.724   1.844  11.081 -0.0437  0.0083  0.4115
 4388W        W 8132   3.748   7.521  12.190 -0.0795  0.0202 -0.1221
 4389W        W 8133   6.702   2.386  12.429 -0.2978 -0.1278 -0.2599
 4390W        W 8134   0.805   3.700  11.877 -0.0051  0.2425 -0.5850
 4391W        W 8135   5.416   8.755  11.953 -0.1458 -0.2636  0.1144
 4392W        W 8136   5.672   5.528   3.106  0.2332  0.1278 -0.3071
 4393W        W 8137   1.729   9.700  11.163 -0.0129  0.2215  0.0563
 4394W        W 8138   2.261   8.851  10.193 -0.0004 -0.1307 -0.0106
 4395W        W 8139   5.198   7.295  11.652  0.2902 -0.0186 -0.2493
 4396W        W 8140   8.635   3.940  11.438 -0.1084 -0.1962 -0.2462
 4397W        W 8141   7.262   8.710  11.847  0.0561  0.2339 -0.1622
 4398W        W 8142   0.683   8.033  12.223 -0.0336 -0.0711 -0.1749
 4399W        W 8143   3.658   6.200   3.151 -0.1756 -0.0638  0.1466
 4400W        W 8144   4.075   6.617   2.491 -0.2168  0.0282 -0.2688
 4401W        W 8145   3.941   1.975   0.928 -0.1383 -0.2047  0.0199
 4402W        W 8146   5.153   4.511   2.444  0.1474  0.0749 -0.0713
 4403W        W 8147   6.344   9.160   2.389 -0.0046  0.0716 -0.3883
 4404W        W 8148   1.594   3.604   3.465  0.3512  0.2489  0.0610
 4405W        W 8149   9.618   9.815   1.576  0.0153 -0.0133 -0.1144
 4406W        W 8150   7.636   5.547   2.242  0.0445  0.1256 -0.0332
 4407W        W 8151   8.553   4.812  10.824 -0.0874  0.0759 -0.0883
 4408W        W 8152   2.355   7.226   2.046  0.3495  0.2412 -0.0074
 4409W        W 8153   9.302   3.238  11.520  0.0874  0.3226 -0.1939
 4410W        W 8154   6.696   8.644   2.593 -0.1257 -0.1105  0.2251
 4411W        W 8155   7.625   0.652   0.282 -0.3926  0.3904 -0.2501
 4412W        W 8156   0.049   6.913   8.829 -0.0617  0.0789 -0.1533
 4413W        W 8157   3.876   0.755   3.299  0.2309  0.2343  0.3146
 4414W        W 8158   9.510   5.102  12.536 -0.1024 -0.2740 -0.2931
 4415W        W 8159   1.693   7.952   3.944  0.1837 -0.0579 -0.3023
 4416W        W 8160   3.897   9.421   8.698  0.1268 -0.2809 -0.0296
 4417W        W 8161   5.863   6.566   2.489 -0.0586 -0.0083  0.1646
 4418W        W 8162   1.557   7.316   1.233 -0.1363  0.1038  0.0141
 4419W        W 8163   3.421   7.540   0.786  0.1461 -0.0124  0.0082
 4420W        W 8164   9.251   5.563  12.416 -0.5245  0.1392  0.0250
 4421W        W 8165   0.484   9.594   9.393 -0.1277 -0.1319  0.0185
 4422W        W 8166   3.560   0.219   4.996 -0.3146 -0.1283 -0.2187
 4423W        W 8167   5.067   7.379  12.709  0.5920  0.2501 -0.0620
 4424W        W 8168   6.484   2.271   1.211 -0.2747 -0.3470  0.1535
 4425W        W 8169   9.621   5.885   1.990  0.1448  0.1156 -0.3072
 4426W        W 8170   0.757   9.666  10.463  0.0146  0.3218 -0.3602
 4427W        W 8171   1.027   8.308  11.464 -0.1129  0.0551 -0.4117
 4428W        W 8172   8.576   9.924   0.795 -0.2216  0.0030 -0.2845
 4429W        W 8173   2.772   8.580   1.564  0.6013  0.0208 -0.2222
 4430W        W 8174   3.379   8.138   3.918  0.0700 -0.1640 -0.0356
 4431W        W 8175   7.657   3.616   0.035  0.0131  0.0012  0.3296
 4432W        W 8176   4.352   4.446   0.644 -0.1355 -0.1327  0.0630
 4433W        W 8177   5.564   3.653   9.205 -0.0351 -0.2315 -0.0146
 4434W        W 8178   8.456   4.353  10.655 -0.0007 -0.0682 -0.1490
 4435W        W 8179   1.269   1.016  10.186 -0.1528  0.2438  0.0297
 4436W        W 8180   7.785   2.424   3.446  0.0010  0.1403  0.0416
 4437W        W 8181   5.298   1.703   8.770  0.3065  0.0689 -0.4555
 4438W        W 8182   1.430   1.360   9.867  0.1179  0.1341 -0.0919
 4439W        W 8183   0.459   5.939   8.224  0.0417  0.0378  0.3593
 4440W        W 8184   9.277   4.147   1.951 -0.1343 -0.1696 -0.1773
 4441W        W 8185   2.576   4.572   0.380  0.2908  0.1971  0.3438
 4442W        W 8186   3.398   7.630   4.005  0.0853  0.1482  0.1332
 4443W        W 8187   5.140   5.917   2.320  0.1115 -0.2111 -0.0056
 4444W        W 8188   1.510   8.819  12.746  0.0100  0.0652  0.3256
 4445W        W 8189   5.400   5.651  10.007 -0.0190 -0.0958  0.1401
 4446W        W 8190   2.346   1.363   3.691 -0.3177  0.0417 -0.1429
 4447W        W 8191   5.582   7.512   2.310 -0.0752 -0.1763  0.4742
 4448W        W 8192   4.511   8.418  11.032  0.1232  0.4363 -0.2303
 4449W        W 8193   4.633   1.943   1.376  0.0476  0.1485  0.0238
 4450W        W 8194   2.726   4.131   0.686 -0.1370  0.0057  0.0921
 4451W        W 8195   6.117   2.130  10.559  0.1026  0.0804 -0.0109
 4452W        W 8196   4.788   4.288   1.968  0.1518  0.0220 -0.0999
 4453W        W 8197   4.272   3.661   9.365 -0.0392 -0.1854  0.3108
 4454W        W 8198   5.065   1.744   0.006  0.0601 -0.0379 -0.2023
 4455W        W 8199   7.023   2.187   1.668 -0.2536 -0.0515 -0.1568
 4456W        W 8200   6.324   0.130   2.566  0.0369 -0.4940 -0.0250
 4457W        W 8201   9.775   9.534   4.771  0.0842  0.0070 -0.0404
 4458W        W 8202   0.051   9.222  12.657  0.0902  0.1179  0.2129
 4459W        W 8203   1.282   6.374   2.342  0.1172  0.1951 -0.0027
 4460W        W 8204   4.607   8.730  11.345  0.0449 -0.1771 -0.0325
 4461W        W 8205   2.199   4.715  10.408 -0.2806  0.0550  0.1660
 4462W        W 8206   6.086   4.827   4.051 -0.1379 -0.0356 -0.3440
 4463W        W 8207   4.560   9.582  11.575 -0.0890 -0.1357 -0.1236
 4464W        W 8208   3.392   3.020   3.129 -0.3587  0.0894  0.1398
 4465W        W 8209   4.112   7.622  12.735 -0.1605  0.0045  0.2948
 4466W        W 8210   3.662   2.874   9.994  0.1766 -0.1180  0.1780
 4467W        W 8211   9.349   1.593   9.817 -0.1727  0.0615 -0.2131
 4468W        W 8212   4.088   4.152   3.400  0.1661 -0.2804 -0.3166
 4469W        W 8213   1.428   2.012   3.100  0.1835 -0.3049 -0.1083
 4470W        W 8214   3.785   6.487   0.431  0.1003 -0.0453 -0.1342
 4471W        W 8215   2.522   8.811  11.873 -0.1276  0.0140 -0.6464
 4472W        W 8216   0.195   4.054   1.166 -0.0552 -0.1933  0.0175
 4473W        W 8217   6.573   4.691  11.248  0.1986 -0.3087 -0.0846
 4474W        W 8218   9.068   3.043   3.824  0.0395  0.1488  0.0808
 4475W        W 8219   1.525   0.304   8.888 -0.0011 -0.2560 -0.4150
 4476W        W 8220   5.633   7.413  11.888  0.1053 -0.3304  0.4252
 4477W        W 8221   5.347   6.014   3.242 -0.0319 -0.0652  0.1641
 4478W        W 8222   0.047   9.591   9.999  0.3225  0.2112 -0.2064
 4479W        W 8223   8.158   6.279  10.686 -0.0523 -0.2115  0.1530
 4480W        W 8224   2.891   9.185   0.814 -0.1498 -0.0996 -0.0066
 4481W        W 8225   7.987   4.422   3.605  0.1665  0.2411 -0.2437
 4482W        W 8226   7.222   3.663  10.769 -0.2209 -0.0686 -0.1085
 4483W        W 8227   2.628   4.293   1.162 -0.1438 -0.3086  0.1603
 4484W        W 8228   2.550   7.512   0.961  0.1163  0.1045 -0.3695
 4485W        W 8229   6.084   4.010   0.648  0.1890  0.1566 -0.0709
 4486W        W 8230   9.267   1.801   4.446  0.1481  0.1916 -0.0902
 4487W        W 8231   5.820   7.336   2.753 -0.0361 -0.0758 -0.1570
 4488W        W 8232   0.200   6.049   0.939 -0.0393  0.3221 -0.1626
 4489W        W 8233   6.462   8.727  11.308  0.0234  0.0190 -0.0642
 4490W        W 8234   8.860   4.609   8.943 -0.1146 -0.3507  0.0357
 4491W        W 8235   4.230   2.963  10.846 -0.0784  0.1701 -0.1339
 4492W        W 8236   9.247   4.389   9.502 -0.4495  0.2799 -0.3388
 4493W        W 8237   3.092   4.259  10.019  0.0699  0.1017 -0.0032
 4494W        W 8238   0.297   1.903   9.410 -0.2595 -0.2794  0.3158
 4495W        W 8239   3.335   8.629   0.277  0.0986  0.0471 -0.0825
 4496W        W 8240   5.474   8.430   0.975 -0.0518  0.4267 -0.0432
 4497W        W 8241   0.338   5.369  11.416  0.3850  0.1327 -0.3657
 4498W        W 8242   0.339   0.815   1.374  0.2194  0.0946  0.0137
 4499W        W 8243   8.016   0.809   2.251  0.0591  0.4693  0.1798
 4500W        W 8244   7.796   6.249   3.174 -0.2001  0.0831  0.2371
 4501W        W 8245   9.734   3.311  10.707  0.0157 -0.3008  0.3104
 4502W        W 8246   4.054   7.524  11.034  0.0061  0.0598  0.2722
 4503W        W 8247   0.191   1.656   4.623 -0.1811 -0.0132  0.1940
 4504W        W 8248   3.644   0.889  12.660 -0.1614  0.1206 -0.2859
 4505W        W 8249   8.774   8.605  10.006 -0.0786 -0.4172  0.0968
 4506W        W 8250   1.570   5.344   1.986  0.0831 -0.1316  0.0232
 4507W        W 8251   8.024   4.284   9.792  0.1656  0.2316  0.1216
 4508W        W 8252   8.232   4.365  11.110  0.1528 -0.0685 -0.0347
 4509W        W 8253   2.685   0.181   1.766 -0.1521 -0.0828 -0.2073
 4510W        W 8254   4.776   3.446  12.299  0.1422  0.1126  0.1209
 4511W        W 8255   8.587   7.340  12.660  0.2904 -0.0714  0.2724
 4512W        W 8256   5.447   4.953   1.183 -0.4223  0.1055 -0.1985
 4513W        W 8257   5.154   6.900   2.608  0.2286 -0.1133 -0.3701
 4514W        W 8258   7.692   0.312  11.665 -0.1294 -0.3243  0.0071
 4515W        W 8259   9.476   0.483   1.550  0.1237 -0.0261 -0.2604
 4516W        W 8260   2.620   9.254   9.033 -0.3199 -0.0100 -0.0879
 4517W        W 8261   3.477   4.231   2.478  0.0090  0.0568  0.2092
 4518W        W 8262   7.775   4.073   2.806 -0.0594  0.0127  0.2557
 4519W        W 8263   9.502   6.590   2.195  0.0021  0.1258  0.2868
 4520W        W 8264   8.404   2.944  11.843  0.0364 -0.0026  0.0064
 4521W        W 8265   9.713   5.277   2.384  0.1947  0.0104  0.2203
 4522W        W 8266   7.706   3.804  11.577  0.0328 -0.1222 -0.3556
 4523W        W 8267   0.462   5.110   0.053 -0.0225  0.1413 -0.1328
 4524W        W 8268   6.218   8.840   1.296  0.1523 -0.3672  0.1564
 4525W        W 8269   2.490   8.615   9.389 -0.0689  0.2825 -0.1453
 4526W        W 8270   1.460   2.951   0.248 -0.2796 -0.1048 -0.0556
 4527W        W 8271   9.421   7.554   2.169 -0.1745 -0.1889 -0.1576
 4528W        W 8272   1.791   6.487  10.297  0.0215 -0.3145  0.1354
 4529W        W 8273   7.625   3.383   1.883 -0.1122  0.2346  0.3474
 4530W        W 8274   6.666   5.723   1.967  0.0273  0.4045  0.1006
 4531W        W 8275   1.588   9.611  11.705  0.0737 -0.1373  0.0831
 4532W        W 8276   3.395   1.439   0.894  0.0572  0.1539 -0.1178
 4533W        W 8277   1.407   9.111   0.284  0.0729 -0.1191  0.0132
 4534W        W 8278   2.878   8.877   9.173  0.2034  0.0352 -0.0749
 4535W        W 8279   7.659   1.188  11.273  0.0374 -0.2259  0.1354
 4536W        W 8280   6.015   7.973  12.186 -0.1496  0.0148  0.0817
 4537W        W 8281   8.963   4.164   1.585  0.2956  0.0926 -0.0876
 4538W        W 8282   1.866   7.130  11.503 -0.1492 -0.0082  0.0623
 4539W        W 8283   1.017   2.098  12.859  0.1240  0.0773 -0.0199
 4540W        W 8284   4.145   7.977  10.865 -0.0243  0.0918  0.3928
 4541W        W 8285   9.717   3.315   9.168  0.0808 -0.1063 -0.0490
 4542W        W 8286   7.415   6.406   0.985  0.3421 -0.0693  0.0124
 4543W        W 8287   4.284   4.075  10.148 -0.1259 -0.0650 -0.0863
 4544W        W 8288   1.177   4.024   4.287  0.0014 -0.2631 -0.0411
 4545W        W 8289   0.375   8.142  11.040  0.0534  0.0506 -0.1048
 4546W        W 8290   8.422   9.044   4.746 -0.3443 -0.0930  0.3540
 4547W        W 8291   4.757   3.789  10.856 -0.2839  0.0486 -0.0536
 4548W        W 8292   4.805   0.885   2.844  0.1322  0.3095 -0.0185
 4549W        W 8293   2.513   8.878   3.570 -0.0279  0.1132 -0.0749
 4550W        W 8294   0.216   8.281   0.212 -0.0675  0.1461  0.0706
 4551W        W 8295   3.911   6.031   1.753  0.1510 -0.1466 -0.2867
 4552W        W 8296   1.339   7.692   9.294  0.3605  0.0685 -0.1148
 4553W        W 8297   8.038   7.014  11.889 -0.2179 -0.0801  0.0305
 4554W        W 8298   8.032   7.359  12.862 -0.1428  0.0914 -0.0005
 4555W        W 8299   6.527   2.440   4.079  0.0597  0.1816  0.1744
 4556W        W 8300   5.751   5.086  10.502  0.0802  0.0638 -0.3298
 4557W        W 8301   1.797   3.191   4.257 -0.0950  0.1812  0.1308
 4558W        W 8302   0.677   0.666   0.111 -0.0280  0.1948 -0.1525
 4559W        W 8303   7.923   3.367   4.402  0.5114  0.1228  0.3798
 4560W        W 8304   3.811   3.477   1.003 -0.1149  0.1062  0.1970
 4561W        W 8305   7.014   6.917  12.070  0.0242  0.0158 -0.0264
 4562W        W 8306   5.629   8.541  11.283 -0.0724 -0.0843  0.0098
 4563W        W 8307   7.410   2.591  11.718  0.1112 -0.2384 -0.0383
 4564W        W 8308   7.506   6.511  10.854  0.0873  0.0216 -0.0284
 4565W        W 8309   4.256   0.330   1.096 -0.0375 -0.0622 -0.0848
 4566W        W 8310   2.800   3.037   2.990  0.3101 -0.4744  0.0561
 4567W        W 8311   1.478   7.595   2.876  0.1820  0.2338  0.0037
 4568W        W 8312   0.408   2.919   0.169 -0.0691 -0.1494 -0.1808
 4569W        W 8313   7.224   1.358   1.191  0.1965 -0.2355  0.1317
 4570W        W 8314   2.345   3.828   0.245 -0.1412 -0.1817  0.0317
 4571W        W 8315   7.062   7.835   1.997  0.1603 -0.1961  0.0898
 4572W        W 8316   3.987   9.770   9.972  0.2778  0.3641  0.1211
 4573W        W 8317   8.854   0.633   2.624 -0.0505  0.0834 -0.0089
 4574W        W 8318   5.647   3.735   0.208  0.3014  0.3282  0.1306
 4575W        W 8319   1.530   2.748   4.522  0.2337 -0.2198 -0.2154
 4576W        W 8320   5.731   4.793  12.637  0.1060 -0.0493 -0.3432
 4577W        W 8321   2.991   5.977  10.570  0.2371 -0.1989 -0.0762
 4578W        W 8322   9.603   6.909   1.056 -0.3287 -0.1156  0.3775
 4579W        W 8323   0.531   9.598   1.763 -0.1257 -0.0601 -0.2174
 4580W        W 8324   9.582   8.414  12.721  0.0925  0.1465  0.0566
 4581W        W 8325   8.473   4.228   8.876  0.3270  0.0998  0.1127
 4582W        W 8326   9.348   6.099   1.298  0.4025 -0.1949  0.1922
 4583W        W 8327   7.756   2.405   4.327  0.3153 -0.2940 -0.2015
 4584W        W 8328   7.712   9.626   9.915  0.0995  0.3285  0.0461
 4585W        W 8329   7.964   5.634   1.793 -0.2142 -0.0410  0.0498
 4586W        W 8330   4.809   3.462   9.608 -0.0261  0.1300 -0.0027
 4587W        W 8331   1.822   3.491   2.612  0.2764  0.2178 -0.1618
 4588W        W 8332   6.305   8.717   0.795  0.0213  0.0922  0.1183
 4589W        W 8333   4.556   0.966   7.868  0.2916  0.0136 -0.0369
 4590W        W 8334   4.422   1.681   2.762  0.1098  0.2321 -0.1047
 4591W        W 8335   9.713   7.972   9.848  0.1358  0.1630 -0.0465
 4592W        W 8336   1.971   5.246  12.021  0.0068 -0.0609  0.2259
 4593W        W 8337   9.784   9.549  10.883  0.1199 -0.2943  0.3411
 4594W        W 8338   8.022   6.791   2.536  0.1129 -0.1300  0.0283
 4595W        W 8339   5.185   2.895   4.505  0.4621  0.3215  0.0668
 4596W        W 8340   7.917   2.398  10.554 -0.1625 -0.1715 -0.1555
 4597W        W 8341   9.221   9.599  10.203  0.0778  0.1080  0.0370
 4598W        W 8342   4.740   2.393   3.783  0.0818  0.1695  0.1119
 4599W        W 8343   0.431   6.562   9.473  0.0715 -0.0379 -0.3489
 4600W        W 8344   5.065   2.172   4.581 -0.3679 -0.1710  0.0185
 4601W        W 8345   9.868   8.455   3.707 -0.0404 -0.2090  0.0711
 4602W        W 8346   0.631   9.756   8.906  0.1260 -0.0290 -0.1201
 4603W        W 8347   0.701   2.728  11.118  0.2050  0.0141 -0.2119
 4604W        W 8348   3.816   3.655  11.610 -0.0029  0.1131  0.1143
 4605W        W 8349   9.648   4.077   1.348 -0.2180  0.3332  0.0690
 4606W        W 8350   7.960   8.656   1.375  0.5261 -0.3205 -0.4068
 4607W        W 8351   0.345   4.696  12.720 -0.1877 -0.0312 -0.0924
 4608W        W 8352   8.834   2.400   1.936 -0.2057 -0.0202 -0.1091
 4609W        W 8353   8.840   7.004  12.384 -0.3506 -0.2608 -0.0478
 4610W        W 8354   5.493   3.224   8.596 -0.0000  0.1209 -0.2885
 4611W        W 8355   2.522   7.144  12.501  0.0724 -0.1048  0.0436
 4612W        W 8356   4.008   8.051   2.082  0.1840  0.0461  0.2143
 4613W        W 8357   4.932   5.249   3.038 -0.1429  0.2022 -0.2182
 4614W        W 8358   6.096   6.477   3.576  0.0622 -0.0037 -0.0566
 4615W        W 8359   6.416   0.836   9.520  0.0441  0.1144 -0.0466
 4616W        W 8360   0.173   0.869   0.849 -0.1223  0.0906  0.0028
 4617W        W 8361   6.176   3.134   3.071 -0.0122  0.3437  0.0705
 4618W        W 8362   0.692   6.610   1.325  0.0493 -0.1311 -0.1597
 4619W        W 8363   8.475   6.633  11.068  0.2083  0.2070  0.0161
 4620W        W 8364   9.430   0.817   9.108  0.0089 -0.1882 -0.1523
 4621W        W 8365   7.603   7.068   3.732 -0.0858 -0.0006 -0.0607
 4622W        W 8366   4.849   3.447   8.525 -0.3247 -0.0727 -0.0806
 4623W        W 8367   2.135   4.025  11.095 -0.0380 -0.0925  0.0668
 4624W        W 8368   6.904   5.403  12.834 -0.0810 -0.0726 -0.1341
 4625W        W 8369   6.109   5.724   3.306  0.1606  0.0273  0.1603
 4626W        W 8370   1.115   5.745   1.187  0.0408 -0.1584 -0.0013
 4627W        W 8371   3.959   5.295   3.953  0.1697 -0.0085  0.0580
 4628W        W 8372   2.807   2.507   4.440 -0.2508 -0.0691  0.0632
 4629W        W 8373   4.996   9.729   1.161 -0.1935 -0.2859  0.0973
 4630W        W 8374   5.429   6.384   2.318  0.0896  0.4532  0.1458
 4631W        W 8375   6.368   2.493   4.589 -0.2854  0.0936 -0.0734
 4632W        W 8376   0.743   8.936   3.837 -0.0652 -0.0605 -0.3003
 4633W        W 8377   3.966   7.452  10.080  0.2331 -0.0255 -0.2527
 4634W        W 8378   7.279   5.279   2.589 -0.1749  0.3106  0.1063
 4635W        W 8379   7.815   9.197   0.641 -0.1003 -0.2317  0.2937
 4636W        W 8380   9.145   7.253  10.854  0.0323  0.2856  0.1312
 4637W        W 8381   0.299   6.869  10.389  0.2594 -0.1152 -0.2457
 4638W        W 8382   2.231   5.390   2.736  0.1077  0.3403 -0.2040
 4639W        W 8383   5.749   4.656  10.238 -0.3132  0.2682 -0.0115
 4640W        W 8384   2.715   5.257  12.506 -0.0098 -0.0963  0.3440
 4641W        W 8385   9.080   5.963   2.659  0.1179 -0.1434 -0.0032
 4642W        W 8386   5.188   5.290  10.223  0.1535 -0.2976  0.0326
 4643W        W 8387   7.025   3.282  11.158  0.0860 -0.1359  0.1893
 4644W        W 8388   8.103   7.086   3.816 -0.1668 -0.1611 -0.0671
 4645W        W 8389   9.576   8.683   2.113 -0.3579 -0.0085  0.1692
 4646W        W 8390   2.063   5.930   0.391 -0.0105 -0.3170 -0.1422
 4647W        W 8391   6.695   3.717   2.008  0.0667  0.1058 -0.2634
 4648W        W 8392   4.765   4.453  12.101  0.4374 -0.3114  0.0656
 4649W        W 8393   2.926   5.416   1.969  0.0690 -0.2185  0.0104
 4650W        W 8394   5.845   5.657  11.447  0.4481 -0.2516 -0.1857
 4651W        W 8395   3.576   9.592  10.630  0.0589 -0.0628  0.2665
 4652W        W 8396   2.848   2.944  12.294  0.1055 -0.2539 -0.3789
 4653W        W 8397   2.233   5.571   9.550  0.0806 -0.3605  0.0243
 4654W        W 8398   0.656   2.048   1.887 -0.0945 -0.1218 -0.3034
 4655W        W 8399   8.836   5.478   8.815 -0.3654 -0.1157  0.1412
 4656W        W 8400   7.431   7.206  11.609  0.0220  0.0508 -0.0708
 4657W        W 8401   2.641   3.441   1.964  0.0032  0.0620  0.1488
 4658W        W 8402   0.312   9.773  10.803  0.4030 -0.1307 -0.0937
 4659W        W 8403   3.470   9.128   1.862 -0.1404 -0.0420 -0.0452
 4660W        W 8404   1.691   2.761  10.945 -0.0194  0.0450  0.0218
 4661W        W 8405   5.715   2.667   1.950 -0.0049 -0.0100 -0.1025
 4662W        W 8406   0.377   7.687   0.109  0.3382 -0.0583  0.2086
 4663W        W 8407   6.537   5.898  11.640 -0.1156 -0.1806 -0.0266
 4664W        W 8408   7.178   4.190   9.459  0.1890  0.0940  0.0865
 4665W        W 8409   7.915   4.132  10.696  0.0326  0.1672 -0.0020
 4666W        W 8410   9.546   5.088  10.456 -0.1833 -0.0160  0.0052
 4667W        W 8411   1.638   6.043  10.151  0.0533  0.2002 -0.2970
 4668W        W 8412   3.747   0.366   1.026 -0.1462 -0.2534 -0.2933
 4669W        W 8413   5.591   8.356   2.727 -0.1944 -0.2910  0.1900
 4670W        W 8414   2.808   9.332   3.452 -0.0422  0.1588 -0.5178
 4671W        W 8415   1.921   7.010   3.375 -0.3384 -0.0743 -0.2070
 4672W        W 8416   2.750   8.866  10.268 -0.0171  0.2728  0.0783
 4673W        W 8417   3.811   7.635  10.574 -0.0092  0.1509  0.1082
 4674W        W 8418   3.720   2.428   9.691 -0.1274 -0.0604  0.3030
 4675W        W 8419   4.995   3.286   3.664  0.0813  0.2479 -0.1380
 4676W        W 8420   6.430   6.721  11.988 -0.2205 -0.0910 -0.1092
 4677W        W 8421   3.231   7.569  12.150  0.0663  0.3100  0.3940
 4678W        W 8422   0.054   8.766   0.751  0.0704  0.1327  0.0438
 4679W        W 8423   4.432   0.683   9.798 -0.1567  0.0319  0.0740
 4680W        W 8424   2.340   2.374   4.444  0.2143 -0.0049  0.1846
 4681W        W 8425   1.783   5.429   0.492 -0.0196  0.0694  0.3476
 4682W        W 8426   1.608   4.335  12.867  0.0756 -0.3771 -0.3956
 4683W        W 8427   6.704   9.539  11.316  0.1502  0.3652  0.1976
 4684W        W 8428   8.858   1.691  11.355 -0.1355  0.0985 -0.1350
 4685W        W 8429   6.704   1.376   1.036 -0.3837 -0.2394  0.4499
 4686W        W 8430   7.795   1.966   1.225  0.1838 -0.0770  0.0220
 4687W        W 8431   6.127   3.226  12.136 -0.2587 -0.2766  0.2436
 4688W        W 8432   7.961   8.883  11.201 -0.5891 -0.0095  0.1047
 4689W        W 8433   6.556   3.915  12.763  0.2968  0.0808 -0.1265
 4690W        W 8434   9.389   4.786   0.515  0.0701 -0.2194 -0.1283
 4691W        W 8435   7.385   9.557   1.203  0.2118  0.1459  0.0682
 4692W        W 8436   2.463   1.238  11.155 -0.0549 -0.0516 -0.0629
 4693W        W 8437   4.435   6.033   2.947 -0.0979 -0.0465  0.1289
 4694W        W 8438   6.513   3.102   9.073 -0.1509 -0.0948 -0.5016
 4695W        W 8439   6.166   6.027  11.292 -0.1455  0.0167 -0.1931
 4696W        W 8440   8.624   8.522   0.487 -0.3382  0.0138 -0.0037
 4697W        W 8441   7.614   8.329   1.538  0.0329 -0.0851  0.0141
 4698W        W 8442   3.640   9.503   2.132  0.1523 -0.0543  0.3797
 4699W        W 8443   3.959   2.471   9.233 -0.0427  0.0398  0.2771
 4700W        W 8444   3.644   5.761  10.205  0.0229 -0.0530 -0.1117
 4701W        W 8445   2.784   4.115   0.104 -0.0735  0.1472  0.2825
 4702W        W 8446   8.342   0.460   2.364  0.0857  0.1956 -0.0743
 4703W        W 8447   0.835   7.885   9.187 -0.0084 -0.1268 -0.0888
 4704W        W 8448   1.408   3.755   1.540 -0.1326 -0.2389  0.1187
 4705W        W 8449   6.831   8.806   3.172  0.0586 -0.0907 -0.2145
 4706W        W 8450   4.805   4.435   9.427  0.2503 -0.1799 -0.0088
 4707W        W 8451   7.818   4.410  12.427  0.1898 -0.3385 -0.1723
 4708W        W 8452   2.819   4.213  10.777 -0.0447 -0.0447  0.1457
 4709W        W 8453   2.377   0.977  10.318  0.0796 -0.0631 -0.1105
 4710W        W 8454   2.131   4.043   9.744  0.2201  0.3759 -0.0384
 4711W        W 8455   0.574   9.811   4.306  0.3673 -0.3249 -0.1950
 4712W        W 8456   8.468   1.759  12.811 -0.2860  0.0085 -0.2051
 4713W        W 8457   5.377   1.723   9.322 -0.0669  0.1961  0.0796
 4714W        W 8458   7.581   0.378   8.042  0.0802  0.3933  0.2856
 4715W        W 8459   8.865   9.890  10.015  0.1113  0.0285 -0.2400
 4716W        W 8460   6.126   6.952   2.652  0.0193  0.1305  0.0961
 4717W        W 8461   1.591   0.512  11.842 -0.2010  0.0301  0.2479
 4718W        W 8462   9.274   2.941   2.841 -0.2593  0.1418 -0.1255
 4719W        W 8463   5.943   5.108   9.527  0.1422  0.1270  0.0926
 4720W        W 8464   0.778   2.694   1.172  0.0799  0.1111  0.2438
 4721W        W 8465   9.892   5.767  11.194 -0.0764 -0.0557 -0.0868
 4722W        W 8466   4.006   2.818   3.811  0.0165  0.1472 -0.1453
 4723W        W 8467   8.162   9.628   1.873 -0.1066  0.3394  0.1927
 4724W        W 8468   6.114   4.817   2.993  0.0063  0.1487 -0.1630
 4725W        W 8469   3.459   8.256   9.944 -0.0422 -0.0315 -0.1071
 4726W        W 8470   3.046   8.876   2.934  0.1799  0.3865 -0.0887
 4727W        W 8471   8.295   5.403   1.381  0.1219 -0.0065 -0.3018
 4728W        W 8472   9.496   8.202  10.403 -0.0480 -0.3304 -0.1134
 4729W        W 8473   1.992   4.994   3.141  0.1535  0.1974 -0.2586
 4730W        W 8474   5.077   3.679   9.999  0.1047  0.0594 -0.0236
 4731W        W 8475   0.099   3.865  10.445  0.0558  0.1633 -0.0256
 4732W        W 8476   0.319   5.342   1.471  0.0790  0.2017 -0.1323
 4733W        W 8477   7.686   0.024   0.988 -0.1491  0.1020 -0.0971
 4734W        W 8478   6.567   3.345   2.772 -0.0523 -0.0893 -0.1191
 4735W        W 8479   1.891   3.010  11.317  0.0600  0.0323 -0.1461
 4736W        W 8480   3.597   5.597  11.808 -0.4392  0.0430  0.3295
 4737W        W 8481   1.678   5.223   9.898  0.0047 -0.1323  0.1358
 4738W        W 8482   7.317   1.141   2.293 -0.5104  0.3151  0.1821
 4739W        W 8483   1.277   6.588   2.873  0.0213 -0.3183  0.3480
 4740W        W 8484   9.081   7.366  12.819  0.1548 -0.1483 -0.4069
 4741W        W 8485   9.156   4.799   9.874  0.2369  0.1377  0.2133
 4742W        W 8486   6.570   7.102   3.747 -0.1149  0.1514  0.0487
 4743W        W 8487   6.181   9.609  11.008 -0.0351  0.1312 -0.2523
 4744W        W 8488   7.934   8.368  10.045  0.0568 -0.0191  0.2483
 4745W        W 8489   9.868   8.475   2.598 -0.0616  0.4235 -0.1861
 4746W        W 8490   6.894   2.789   8.744  0.0619  0.1001 -0.1047
 4747W        W 8491   7.419   2.979  11.340  0.1309  0.4257 -0.3286
 4748W        W 8492   3.303   5.255  12.008 -0.2150 -0.0240 -0.0301
 4749W        W 8493   2.499   5.152   3.215  0.2211 -0.2118 -0.1256
 4750W        W 8494   5.515   0.359   9.174 -0.1405  0.0613  0.1279
 4751W        W 8495   1.200   1.995  10.841 -0.0374  0.2205  0.1329
 4752W        W 8496   7.846   0.925  10.275 -0.2216 -0.1378  0.0210
 4753W        W 8497   8.406   8.869   8.805 -0.0023  0.1860 -0.0544
 4754W        W 8498   3.905   6.678  10.009  0.0740 -0.1363  0.0462
 4755W        W 8499   4.618   2.600   8.524 -0.0146  0.0832 -0.0362
 4756W        W 8500   7.679   0.445   2.962  0.0164 -0.0953 -0.0571
 4757W        W 8501   0.549   7.760   3.080 -0.4017 -0.0583 -0.0478
 4758W        W 8502   6.190   0.429   1.637  0.0755 -0.1379 -0.0402
 4759W        W 8503   3.790   7.630   4.446 -0.4446  0.3202 -0.3001
 4760W        W 8504   7.752   5.072   9.877  0.2243  0.1322  0.1893
 4761W        W 8505   3.159   0.911   3.332  0.3357 -0.0890  0.1104
 4762W        W 8506   2.762   1.502   4.619 -0.0825  0.0080 -0.0262
 4763W        W 8507   8.737   2.054   3.821  0.3688  0.1050 -0.1176
 4764W        W 8508   7.269   0.769   2.973  0.0964 -0.2513 -0.2028
 4765W        W 8509   6.460   6.802   0.107  0.2627 -0.0010  0.1484
 4766W        W 8510   2.401   8.240  11.877 -0.0293 -0.0674 -0.0470
 4767W        W 8511   7.862   3.876  12.490  0.0468  0.0376  0.0678
 4768W        W 8512   6.730   0.055   0.930 -0.1526 -0.4823  0.0393
 4769W        W 8513   6.529   0.416   1.999  0.1119 -0.2642  0.2518
 4770W        W 8514   1.055   7.715   9.673 -0.0009 -0.1372  0.0775
 4771W        W 8515   8.913   5.835   0.476  0.1771  0.0652 -0.3076
 4772W        W 8516   9.651   2.159  11.519 -0.1032  0.0650 -0.0116
 4773W        W 8517   4.320   2.153   2.354  0.3456 -0.2825 -0.2547
 4774W        W 8518   6.143   4.139   0.074 -0.3742 -0.0304  0.4782
 4775W        W 8519   3.675   2.479  10.309 -0.0703 -0.1255  0.2345
 4776W        W 8520   4.607   8.872  10.807  0.0472 -0.1631 -0.1652
 4777W        W 8521   0.036   5.320   0.172 -0.0295  0.1936  0.1110
 4778W        W 8522   1.119   8.004  10.531  0.2014 -0.1826 -0.0725
 4779W        W 8523   2.660   3.612  12.264  0.0477 -0.0891 -0.2009
 4780W        W 8524   4.358   4.840  12.213  0.0406  0.0713  0.4089
 4781W        W 8525   4.686   5.863   2.542 -0.0702  0.1824  0.1332
 4782W        W 8526   8.142   5.512  12.767 -0.2121 -0.1170  0.1752
 4783W        W 8527   9.235   5.468   3.932  0.0689 -0.1040 -0.1630
 4784W        W 8528   0.354   6.383  12.120 -0.2115 -0.1734 -0.0677
 4785W        W 8529   2.577   2.749   3.358  0.1920 -0.3480 -0.3052
 4786W        W 8530   9.358   0.301   9.278  0.1731  0.0055  0.4061
 4787W        W 8531   4.789   5.677  11.908 -0.0655 -0.0351  0.2111
 4788W        W 8532   5.044   0.859  10.878  0.0558  0.2271 -0.1908
 4789W        W 8533   6.091   7.773  10.515  0.2747  0.1764  0.0052
 4790W        W 8534   6.094   1.619  12.323  0.0032  0.0237  0.2650
 4791W        W 8535   3.081   8.955   2.088  0.0005 -0.1845  0.3275
 4792W        W 8536   3.562   9.530   9.856 -0.0706 -0.3154 -0.3786
 4793W        W 8537   1.467   3.905   2.404 -0.0660  0.1488 -0.1546
 4794W        W 8538   1.090   9.821  11.523 -0.0254 -0.1874  0.0398
 4795W        W 8539   5.022   0.489   9.974  0.1291  0.0271  0.5444
 4796W        W 8540   8.959   5.110  12.501 -0.2155  0.0771 -0.1205
 4797W        W 8541   3.601   9.459   4.098 -0.0477 -0.0664 -0.2237
 4798W        W 8542   8.447   9.759   4.021  0.2371  0.0141  0.1326
 4799W        W 8543   1.412   8.950  10.725  0.0290 -0.0288 -0.2809
 4800W        W 8544   6.700   2.693   3.616  0.0115 -0.1772 -0.2403
 4801W        W 8545   6.027   1.481   3.209  0.0146  0.2426  0.0059
 4802W        W 8546   0.638   2.165   3.497 -0.0276 -0.0033 -0.1548
 4803W        W 8547   5.044   5.358  11.132 -0.1276  0.3227  0.1425
 4804W        W 8548   4.062   4.257  11.034  0.1885 -0.0117 -0.0812
 4805W        W 8549   9.251   4.191  12.165 -0.1807 -0.5086  0.3138
 4806W        W 8550   3.810   2.284   1.872 -0.1040 -0.3235 -0.3984
 4807W        W 8551   2.807   2.276  10.732 -0.0333 -0.1129  0.0419
 4808W        W 8552   4.517   3.094   8.674 -0.0554 -0.0187 -0.1953
 4809W        W 8553   3.761   9.500  12.047  0.3859  0.3050  0.0253
 4810W        W 8554   8.242   8.955   0.477 -0.1832  0.0364  0.2094
 4811W        W 8555   8.194   9.141   8.487 -0.0510 -0.1309 -0.0699
 4812W        W 8556   1.004   9.226   3.252 -0.0850  0.1440  0.2463
 4813W        W 8557   5.131   8.497   4.072 -0.0473 -0.1668 -0.0087
 4814W        W 8558   7.453   4.665   1.637  0.0158  0.0934  0.3247
 4815W        W 8559   5.867   0.521  11.771  0.0243  0.2236 -0.1302
 4816W        W 8560   3.995   0.517   2.864 -0.1331  0.3438  0.1801
 4817W        W 8561   3.684   9.155  11.393 -0.0058 -0.0228 -0.0389
 4818W        W 8562   8.816   7.644  10.180  0.1615 -0.2551  0.1389
 4819W        W 8563   2.667   1.832  10.567  0.0933  0.4140  0.2471
 4820W        W 8564   6.521   4.337   0.732 -0.0661 -0.1396 -0.0326
 4821W        W 8565   5.842   5.522   9.754 -0.3013 -0.1347  0.0618
 4822W        W 8566   4.087   5.669   3.029  0.0504  0.3660  0.1687
 4823W        W 8567   2.501   6.771   1.788 -0.0926 -0.3270 -0.0952
 4824W        W 8568   4.851   8.200   2.370  0.2929  0.2201  0.0032
 4825W        W 8569   9.683   9.731  10.435  0.0130  0.1625 -0.1366
 4826W        W 8570   5.540   4.758  11.508 -0.0776 -0.2076 -0.0326
 4827W        W 8571   3.468   1.538   4.271  0.1382 -0.2613  0.4650
 4828W        W 8572   3.607   6.633   2.859  0.2333 -0.1399 -0.4252
 4829W        W 8573   2.153   1.983   2.654 -0.2543 -0.0712 -0.0031
 4830W        W 8574   5.805   1.493  10.404 -0.0812 -0.5539 -0.2189
 4831W        W 8575   3.281   1.322   1.442 -0.0459  0.2633 -0.1352
 4832W        W 8576   3.462   7.302  11.802  0.1191 -0.6659  0.1709
 4833W        W 8577   4.955   7.853  12.308 -0.1006 -0.1332 -0.0067
 4834W        W 8578   4.812   4.382   2.840 -0.0649 -0.2959 -0.3329
 4835W        W 8579   6.818   6.101   2.335  0.1678  0.1035 -0.2824
 4836W        W 8580   9.902   2.665   9.547 -0.0121 -0.1186 -0.0330
 4837W        W 8581   3.894   3.280  12.538  0.0367 -0.0126 -0.1533
 4838W        W 8582   6.836   9.543  10.790  0.0436  0.0415 -0.2394
 4839W        W 8583   3.713   3.465   9.923  0.2758 -0.3856  0.0251
 4840W        W 8584   5.548   0.511  11.389 -0.1375 -0.0007 -0.0790
 4841W        W 8585   6.953   5.708   1.554  0.3330  0.0141  0.0974
 4842W        W 8586   9.078   5.884  11.745  0.1470 -0.2224  0.0432
 4843W        W 8587   3.291   6.097  10.103  0.0407  0.1134  0.0422
 4844W        W 8588   3.221   8.510   1.335  0.1731  0.1004 -0.0637
 4845W        W 8589   4.015   1.794  10.590  0.0711 -0.1488 -0.0315
 4846W        W 8590   5.126   4.030   1.105 -0.0091 -0.0430 -0.0563
 4847W        W 8591   1.596   8.119  11.988 -0.1669  0.1904  0.0021
 4848W        W 8592   0.684   2.304  10.705  0.1850 -0.0481 -0.3221
 4849W        W 8593   0.041   6.672  10.035  0.3728 -0.0224 -0.1581
 4850W        W 8594   5.225   1.188   8.495 -0.0307 -0.0636  0.0747
 4851W        W 8595   6.084   0.678   1.249 -0.0951  0.2416 -0.0084
 4852W        W 8596   0.497   4.830  11.408  0.1073  0.0561 -0.0314
 4853W        W 8597   8.381   3.839   3.993 -0.3811  0.0438 -0.0877
 4854W        W 8598   1.105   5.369  10.737 -0.0615 -0.2208  0.0661
 4855W        W 8599   6.130   4.200   1.110 -0.2577 -0.0278  0.0007
 4856W        W 8600   9.681   1.917   1.795  0.1614  0.2424 -0.0010
 4857W        W 8601   3.948   8.248   0.901 -0.0841  0.1872  0.0254
 4858W        W 8602   8.775   8.243   1.030 -0.1945 -0.0620 -0.1061
 4859W        W 8603   4.192   2.997   2.289  0.0398  0.2815  0.0375
 4860W        W 8604   3.391   0.033   3.399  0.1629  0.2192 -0.0276
 4861W        W 8605   1.755   5.665  11.864 -0.0469 -0.0030  0.0520
 4862W        W 8606   2.234   6.700  10.895 -0.0595  0.3045  0.3761
 4863W        W 8607   4.840   7.484   0.250 -0.1479  0.2466 -0.2071
 4864W        W 8608   9.330   5.766   9.510  0.1938  0.1289  0.0743
 4865W        W 8609   2.060   6.650   1.709  0.0830 -0.0967  0.1488
 4866W        W 8610   3.940   9.358  12.554 -0.0103  0.1065  0.1505
 4867W        W 8611   8.799   0.873  12.734  0.0426  0.3171  0.1416
 4868W        W 8612   3.287   9.762  10.197 -0.2500  0.1485 -0.0189
 4869W        W 8613   3.892   9.368  10.257  0.0467 -0.1623 -0.1278
 4870W        W 8614   4.743   5.086  10.056 -0.0081 -0.3625 -0.1760
 4871W        W 8615   5.450   8.845   1.995 -0.0483 -0.0212  0.3019
 4872W        W 8616   5.420   3.710   8.735 -0.1415 -0.0759  0.0626
 4873W        W 8617   7.980   0.794  11.495  0.3842 -0.0702  0.2229
 4874W        W 8618   1.883   2.778  10.232 -0.2392  0.2082 -0.2326
 4875W        W 8619   0.365   1.561  11.006 -0.1471  0.0245 -0.2479
 4876W        W 8620   9.068   7.113   4.507 -0.1119 -0.1848  0.3336
 4877W        W 8621   0.394   5.779   1.283  0.0746  0.0728 -0.0425
 4878W        W 8622   1.639   3.641   2.001  0.3327 -0.1978 -0.0963
 4879W        W 8623   4.282   0.652   9.310  0.1858 -0.0324  0.0684
 4880W        W 8624   6.880   2.303   8.518  0.2191  0.3374  0.1546
 4881W        W 8625   0.862   0.586   2.631 -0.0629 -0.2189  0.0072
 4882W        W 8626   0.824   2.329   2.277 -0.1019 -0.2253 -0.1223
 4883W        W 8627   4.899   5.657   0.652 -0.1431  0.2819 -0.0403
 4884W        W 8628   4.255   0.510   0.196  0.0859  0.0864  0.1392
 4885W        W 8629   7.236   1.081  12.774  0.2681 -0.4172  0.2255
 4886W        W 8630   7.385   9.490   9.432 -0.0182 -0.1466 -0.1538
 4887W        W 8631   5.712   3.442  10.734  0.2017 -0.0803 -0.1580
 4888W        W 8632   9.497   4.856   3.601  0.1990  0.1272  0.2075
 4889W        W 8633   9.782   9.383   3.839 -0.1846 -0.1016 -0.1893
 4890W        W 8634   5.657   3.197   4.410  0.2262 -0.2123  0.2328
 4891W        W 8635   3.245   6.442   3.518 -0.1191  0.0511 -0.0911
 4892W        W 8636   3.780   9.090   2.725 -0.0581 -0.3510 -0.0010
 4893W        W 8637   7.043   2.397   3.930  0.1452  0.0935 -0.1143
 4894W        W 8638   9.538   7.139  11.156 -0.0229 -0.0649 -0.0005
 4895W        W 8639   4.260   5.549   3.632  0.2658 -0.1776 -0.2136
 4896W        W 8640   0.077   8.449   4.238 -0.0004 -0.0224  0.0335
 4897W        W 8641   9.319   1.720  11.616  0.0115 -0.1472  0.0974
 4898W        W 8642   1.493   5.617   4.246  0.2805 -0.2094 -0.0698
 4899W        W 8643   2.445   1.879  12.763 -0.2575  0.1590 -0.0087
 4900W        W 8644   5.137   3.467   9.003 -0.1061  0.2118  0.1806
 4901W        W 8645   4.974   1.070   1.123 -0.2118 -0.0334  0.1152
 4902W        W 8646   4.418   2.345   9.047 -0.2239  0.1561 -0.1011
 4903W        W 8647   5.422   1.844   1.546 -0.1453  0.3206  0.0652
 4904W        W 8648   4.806   3.108   4.816  0.0632 -0.2799  0.0833
 4905W        W 8649   8.934   8.532  11.115 -0.3482  0.0110 -0.0427
 4906W        W 8650   7.939   5.577  11.690  0.2767 -0.1744  0.1711
 4907W        W 8651   3.385   5.057   1.457  0.0213 -0.4027  0.4540
 4908W        W 8652   0.718   0.926   9.486 -0.0183 -0.2871  0.1610
 4909W        W 8653   6.196   8.481  12.045  0.1948  0.0412 -0.1019
 4910W        W 8654   2.920   9.607   8.398 -0.1192 -0.0784  0.0637
 4911W        W 8655   6.980   3.373   9.282  0.0969  0.2254  0.2229
 4912W        W 8656   4.369   0.842   0.663 -0.0039  0.0252 -0.2008
 4913W        W 8657   6.701   0.207   3.449 -0.3947  0.0447 -0.0061
 4914W        W 8658   1.801   2.581   9.150  0.0584  0.1129 -0.2281
 4915W        W 8659   3.689   9.548   0.319  0.1676  0.2604 -0.1194
 4916W        W 8660   0.716   3.823   4.214 -0.4110 -0.0648  0.5278
 4917W        W 8661   4.532   6.885   9.228  0.0920 -0.1890  0.0068
 4918W        W 8662   8.261   3.315   2.532 -0.1195 -0.4844  0.1071
 4919W        W 8663   7.724   4.891   3.550 -0.0561  0.0806  0.0047
 4920W        W 8664   8.858   1.820   2.049 -0.3743  0.2032 -0.1276
 4921W        W 8665   6.992   4.056   2.238 -0.0651  0.4748  0.0746
 4922W        W 8666   7.131   7.181  10.330 -0.2431  0.1051  0.1987
 4923W        W 8667   9.691   8.844   5.242 -0.1061 -0.0615  0.2211
 4924W        W 8668   2.418   7.215  10.134  0.2120  0.2566  0.0329
 4925W        W 8669   7.290   1.247   2.799 -0.2513  0.1880  0.5039
 4926W        W 8670   5.359   6.685   0.051  0.3739 -0.0493 -0.0024
 4927W        W 8671   5.715   7.355  10.802 -0.1329 -0.0542 -0.0157
 4928W        W 8672   5.801   4.118   1.556 -0.0337  0.2633 -0.0677
 4929W        W 8673   0.691   2.979   2.447  0.1063 -0.1674  0.0545
 4930W        W 8674   1.924   1.359  11.994 -0.0713  0.1450  0.0700
 4931W        W 8675   0.061   5.393   3.336 -0.1085 -0.0403 -0.0233
 4932W        W 8676   8.257   8.527  11.356 -0.2006  0.3758  0.1259
 4933W        W 8677   4.560   9.420   9.980 -0.2417 -0.0841 -0.2434
 4934W        W 8678   8.877   6.286  12.833  0.0731  0.0417  0.0688
 4935W        W 8679   0.565   9.466   9.983 -0.0687  0.0900 -0.1907
 4936W        W 8680   2.532   7.911  11.473 -0.1733  0.1905 -0.1361
 4937W        W 8681   7.723   4.067  12.006  0.0977 -0.1947  0.1018
 4938W        W 8682   8.706   4.266   2.055  0.0250  0.1440  0.1500
 4939W        W 8683   3.664   2.328  11.285  0.1411  0.0733  0.1174
 4940W        W 8684   7.383   9.082  12.349  0.0044 -0.1148 -0.0453
 4941W        W 8685   2.093   0.509   2.459 -0.1765  0.0787  0.3398
 4942W        W 8686   1.403   3.492   9.579 -0.0743 -0.3938  0.1615
 4943W        W 8687   6.995   0.533   2.133  0.1409  0.0848  0.2257
 4944W        W 8688   8.122   7.804   2.039 -0.3238 -0.1042  0.2031
 4945W        W 8689   5.721   2.189   1.273 -0.2013  0.0220 -0.1646
 4946W        W 8690   3.102   7.620  11.656  0.0381 -0.0356  0.0249
 4947W        W 8691   5.994   9.265   4.124 -0.1124  0.2786 -0.1015
 4948W        W 8692   4.919   7.026  10.444  0.0435  0.0833  0.3289
 4949W        W 8693   3.529   4.804   9.332 -0.3508 -0.0753 -0.0827
 4950W        W 8694   9.736   3.484   4.633 -0.2595 -0.0035  0.2928
 4951W        W 8695   1.027   4.911   2.378 -0.0896  0.0386 -0.0189
 4952W        W 8696   9.533   7.535   3.102  0.2548  0.1099 -0.0162
 4953W        W 8697   4.946   5.940   9.720 -0.4506 -0.1743  0.0131
 4954W        W 8698   5.908   3.538   0.602  0.0642  0.0810 -0.0321
 4955W        W 8699   8.187   9.367  11.256  0.0440  0.1351  0.1302
 4956W        W 8700   8.325   7.597   1.626 -0.0116  0.0472 -0.1141
 4957W        W 8701   9.781   3.148  11.716 -0.2079 -0.3993 -0.2233
 4958W        W 8702   2.984   1.724   0.732 -0.0586 -0.1630  0.2376
 4959W        W 8703   3.006   6.583  12.011 -0.0592  0.0291  0.2174
 4960W        W 8704   5.426   0.209  10.171 -0.2659 -0.0966  0.0319
 4961W        W 8705   4.043   7.053   0.127  0.1575  0.1948 -0.0418
 4962W        W 8706   8.082   2.105  12.094  0.1260  0.0916 -0.0097
 4963W        W 8707   4.066   0.376   0.639  0.1154 -0.0502  0.0271
 4964W        W 8708   8.542   0.945   8.186 -0.3582 -0.1423 -0.1734
 4965W        W 8709   1.912   4.301   8.803  0.2780 -0.0834  0.0696
 4966W        W 8710   0.219   3.582  11.992 -0.2075 -0.0469 -0.0004
 4967W        W 8711   8.205   8.140  10.975 -0.0255 -0.1465  0.1656
 4968W        W 8712   7.626   1.993  12.292  0.0535 -0.4168  0.1100
 4969W        W 8713   5.720   3.213  11.232 -0.0340  0.0248 -0.0130
 4970W        W 8714   5.853   7.255   1.723 -0.0685  0.2527 -0.0314
 4971W        W 8715   2.917   2.323   3.903 -0.0148 -0.2055  0.3044
 4972W        W 8716   3.299   6.088   2.623 -0.3167  0.1389  0.2887
 4973W        W 8717   8.478   4.641   3.692 -0.2336 -0.0379 -0.0194
 4974W        W 8718   3.354   8.236   4.982 -0.2581 -0.2592 -0.0883
 4975W        W 8719   0.207   3.388  12.612 -0.0683  0.3394 -0.0839
 4976W        W 8720   2.281   9.682   1.126 -0.1833 -0.0710  0.2083
 4977W        W 8721   8.161   6.830  12.660  0.0473  0.0565  0.3183
 4978W        W 8722   5.726   2.224  10.899  0.2351  0.2443  0.1405
 4979W        W 8723   4.147   7.066   2.262  0.2150  0.2147 -0.3582
 4980W        W 8724   7.418   2.174   5.160 -0.0424 -0.0320  0.0364
 4981W        W 8725   0.461   8.571  12.309  0.1231 -0.2662 -0.0963
 4982W        W 8726   0.069   7.555   4.113 -0.0654  0.1405  0.1532
 4983W        W 8727   6.024   6.015   3.722 -0.0965 -0.1083 -0.1201
 4984W        W 8728   4.072   2.276   8.648 -0.0029  0.1460 -0.0937
 4985W        W 8729   2.034   6.824   4.013 -0.3307 -0.2882 -0.0082
 4986W        W 8730   0.075   4.054   9.014 -0.2495 -0.0581 -0.0965
 4987W        W 8731   7.051   7.920   2.572 -0.2918 -0.1376  0.2438
 4988W        W 8732   4.205   9.901   2.895  0.3074  0.2700 -0.2161
 4989W        W 8733   8.108   6.048   0.699  0.1972 -0.0571 -0.6435
 4990W        W 8734   1.322   9.441   1.100 -0.0276  0.0709  0.1064
 4991W        W 8735   7.723   8.324   0.129  0.0380  0.0540 -0.0020
 4992W        W 8736   0.485   0.436  12.551  0.0476 -0.0976 -0.3506
 4993W        W 8737   6.161   1.952   3.957  0.1511 -0.2072  0.0307
 4994W        W 8738   4.318   1.669   3.552 -0.2317 -0.0730 -0.0485
 4995W        W 8739   4.397   7.193  11.867  0.0632 -0.0570  0.1047
 4996W        W 8740   9.720   2.473   3.729 -0.3058  0.0337 -0.2072
 4997W        W 8741   3.093   6.219   4.121 -0.1153  0.2218 -0.1697
 4998W        W 8742   1.500   2.555   1.791 -0.0644 -0.0007  0.1623
 4999W        W 8743   3.217   0.091   8.524 -0.2163 -0.2199 -0.0341
 5000W        W 8744   6.106   2.667   2.759  0.0157 -0.0108  0.1496
 5001W        W 8745   0.733   7.434   0.540 -0.0818 -0.3980 -0.0519
 5002W        W 8746   8.784   6.837  10.705  0.0565 -0.4115  0.0721
 5003W        W 8747   3.110   3.738   0.183 -0.0444 -0.0841  0.1848
 5004W        W 8748   7.223   5.973   9.689 -0.0105  0.0726  0.1572
 5005W        W 8749   7.887   9.105  12.497  0.1440  0.2024 -0.1218
 5006W        W 8750   1.947   5.818  11.392 -0.1717  0.2624  0.1274
 5007W        W 8751   0.376   4.732   2.399  0.1050 -0.2052 -0.2447
 5008W        W 8752   1.815   4.411  11.758  0.3464  0.2047  0.1618
 5009W        W 8753   3.779   8.947   8.781  0.0175 -0.1124 -0.1909
 5010W        W 8754   6.521   8.648   9.617 -0.1934  0.1262  0.0275
 5011W        W 8755   1.933   2.582   0.033  0.3769  0.1901  0.2512
 5012W        W 8756   5.607   5.681  10.479  0.0415 -0.2759 -0.1727
 5013W        W 8757   1.503   6.964   9.913 -0.0569 -0.0885 -0.2493
 5014W        W 8758   1.421   9.350   3.014  0.0434 -0.1341 -0.0384
 5015W        W 8759   1.998   8.922   0.551  0.0701 -0.2686 -0.0627
 5016W        W 8760   1.725   0.820   2.609  0.1574  0.2734 -0.1727
 5017W        W 8761   5.420   3.077   3.399 -0.0875 -0.2539  0.0677
 5018W        W 8762   4.214   5.225   1.853 -0.0732  0.2522  0.0601
 5019W        W 8763   9.681   6.525  11.795 -0.1391 -0.1739 -0.0694
 5020W        W 8764   2.858   6.168  11.391 -0.2144  0.3523  0.1875
 5021W        W 8765   5.499   2.839  11.551 -0.4021  0.0957  0.0192
 5022W        W 8766   0.674   4.380   9.627 -0.1642  0.4023 -0.0667
 5023W        W 8767   8.371   8.367   2.656 -0.0054  0.1214 -0.0128
 5024W        W 8768   5.065   9.464   2.595 -0.1993  0.0213 -0.1172
 5025W        W 8769   7.037   4.669   9.554 -0.1201 -0.0639  0.1576
 5026W        W 8770   5.973   9.115   2.797  0.0927  0.0547 -0.2011
 5027W        W 8771   7.815   0.697  12.709 -0.0768 -0.2158  0.1503
 5028W        W 8772   1.109   4.072   2.706  0.4021  0.1588 -0.1725
 5029W        W 8773   7.277   3.844   1.199  0.1924  0.2261 -0.1530
 5030W        W 8774   0.359   5.487   8.541 -0.2545  0.2495  0.0020
 5031W        W 8775   0.218   6.880  12.304 -0.1404  0.1935  0.0893
 5032W        W 8776   7.300   8.126   3.655 -0.2335  0.0307 -0.0367
 5033W        W 8777   1.041   5.790   2.589 -0.2032 -0.2779  0.1199
 5034W        W 8778   6.024   3.395  11.617 -0.0356  0.1284  0.1093
 5035W        W 8779   7.900   1.924   4.407  0.3669 -0.1589  0.1438
 5036W        W 8780   9.344   1.770  10.692 -0.0731 -0.0949  0.1940
 5037W        W 8781   2.945   3.060   8.790  0.2440  0.0270  0.0486
 5038W        W 8782   2.638   4.160   9.807  0.1141  0.0998  0.1448
 5039W        W 8783   6.607   9.240   3.358 -0.0509 -0.3704 -0.0367
 5040W        W 8784   9.039   8.205   3.750  0.3144 -0.0441 -0.0087
 5041W        W 8785   7.020   1.219   8.329  0.0440  0.0742  0.0876
 5042W        W 8786   1.635   5.041  11.736 -0.0033  0.2087  0.3217
 5043W        W 8787   4.268   6.658  11.677  0.0614 -0.4630 -0.0600
 5044W        W 8788   1.261   5.793   9.488 -0.1740  0.0428  0.0399
 5045W        W 8789   0.563   8.634  12.844  0.1848 -0.0441 -0.2182
 5046W        W 8790   0.802   9.797   0.609  0.0899 -0.0873  0.0735
 5047W        W 8791   9.358   1.446   8.986 -0.1070  0.0774  0.0362
 5048W        W 8792   3.772   0.109   3.070 -0.1592  0.1279 -0.2838
 5049W        W 8793   8.979   2.498   2.731  0.1255  0.3054  0.1973
 5050W        W 8794   0.025   2.796   1.303 -0.0614 -0.1267 -0.3528
 5051W        W 8795   1.148   4.235   1.454 -0.2317 -0.1650 -0.0881
 5052W        W 8796   5.246   9.852  11.346  0.0620 -0.0205 -0.2197
 5053W        W 8797   7.323   5.365   9.978  0.0332  0.0661 -0.2019
 5054W        W 8798   6.383   4.164   8.905 -0.3102  0.0834 -0.0246
 5055W        W 8799   9.052   0.136   1.901 -0.1275  0.1101  0.1593
 5056W        W 8800   1.499   3.125   3.854  0.1208 -0.0461 -0.0020
 5057W        W 8801   9.032   4.953  10.679  0.1159  0.0883  0.1035
 5058W        W 8802   8.713   6.504   3.367 -0.3162 -0.0784 -0.2368
 5059W        W 8803   8.565   3.431   1.738 -0.1124  0.1164 -0.2520
 5060W        W 8804   2.841   6.086   3.350 -0.3690  0.2538  0.2684
 5061W        W 8805   6.604   7.902  12.678 -0.2134  0.1710 -0.0292
 5062W        W 8806   4.648   7.981   0.618 -0.0315 -0.1128  0.3158
 5063W        W 8807   9.562   6.338   9.218 -0.0545 -0.0082  0.2368
 5064W        W 8808   7.434   5.114   3.195  0.1859  0.0769  0.0719
 5065W        W 8809   5.994   0.841  11.154  0.0373 -0.0419 -0.0091
 5066W        W 8810   3.359   2.648   1.660 -0.0658  0.0896 -0.1588
 5067W        W 8811   3.980   8.227   2.525  0.2497 -0.1066 -0.3005
 5068W        W 8812   0.215   4.104   4.167  0.1387  0.1178 -0.0831
 5069W        W 8813   0.627   9.316   3.557 -0.0340  0.0770  0.1440
 5070W        W 8814   3.604   0.474  11.136  0.1756  0.0751 -0.0565
 5071W        W 8815   5.575   8.097   0.236 -0.0214 -0.2063 -0.1761
 5072W        W 8816   7.899   8.653  11.629 -0.1603  0.0666  0.0808
 5073W        W 8817   9.525   8.916   3.731  0.1470 -0.0497 -0.1866
 5074W        W 8818   1.659   8.978   3.219  0.1224 -0.1531 -0.3354
 5075W        W 8819   1.195   4.392   9.710 -0.1473 -0.3749 -0.0868
 5076W        W 8820   5.676   8.477   1.424  0.0035  0.0338  0.1126
 5077W        W 8821   1.792   3.127   0.877  0.1656 -0.0557  0.0581
 5078W        W 8822   8.667   6.492   2.036 -0.0567  0.0047 -0.0191
 5079W        W 8823   5.599   7.115  12.639 -0.1203 -0.0103 -0.2239
 5080W        W 8824   1.798   0.734   9.535  0.0258  0.3322 -0.0425
 5081W        W 8825   2.334   7.698   2.238  0.0584 -0.1734  0.1621
 5082W        W 8826   9.341   3.250  12.065  0.2304  0.0691 -0.0077
 5083W        W 8827   6.165   7.673  12.830  0.0490 -0.0747  0.0583
 5084W        W 8828   7.455   4.687  12.771  0.0845 -0.2038 -0.1200
 5085W        W 8829   9.685   4.947   9.089 -0.1084  0.0325 -0.1304
 5086W        W 8830   1.195   4.688   3.527 -0.0853  0.0692 -0.1640
 5087W        W 8831   4.254   2.410  11.263 -0.0520 -0.0545  0.0383
 5088W        W 8832   0.261   6.119   9.255  0.1024 -0.3956 -0.1276
 5089W        W 8833   6.786   5.710  11.047 -0.2355 -0.1137 -0.3068
 5090W        W 8834   8.677   8.632   2.374  0.2618 -0.2212 -0.1352
 5091W        W 8835   1.666   1.831   9.523 -0.0122 -0.1202 -0.0921
 5092W        W 8836   2.199   3.103   3.035  0.2230  0.3261  0.0363
 5093W        W 8837   3.833   1.838  12.164  0.1180  0.0603 -0.0492
 5094W        W 8838   4.485   1.241   0.920  0.0321 -0.0787 -0.1283
 5095W        W 8839   1.689   8.925   3.933  0.0138 -0.0944  0.3022
 5096W        W 8840   8.146   4.606   0.501  0.0250  0.1119 -0.0853
 5097W        W 8841   4.773   3.146   2.570  0.0230  0.1972  0.2652
 5098W        W 8842   8.220   1.379  12.575 -0.2152 -0.1105  0.0829
 5099W        W 8843   1.067   4.886   8.938  0.0779 -0.3715 -0.2681
 5100W        W 8844   3.538   4.682  12.305  0.2179  0.2191  0.1025
 5101W        W 8845   5.061   9.371   0.798  0.0650 -0.0467  0.2217
 5102W        W 8846   5.410   1.984   3.571 -0.3132  0.1370  0.0319
 5103W        W 8847   6.643   8.447  12.747  0.1146  0.2369 -0.3328
 5104W        W 8848   1.747   7.762   1.056  0.0060 -0.5238 -0.0349
 5105W        W 8849   4.699   9.764   0.221  0.2207  0.0027 -0.0603
 5106W        W 8850   4.816   4.665  12.558  0.2012 -0.1700  0.1489
 5107W        W 8851   5.706   9.765   8.458  0.1252  0.2554  0.0003
 5108W        W 8852   1.321   0.608   1.372 -0.0262  0.0066  0.1354
 5109W        W 8853   8.221   7.530  10.211 -0.3001  0.0690  0.0895
 5110W        W 8854   1.133   4.581   2.875 -0.0867  0.2292 -0.0432
 5111W        W 8855   0.637   1.444   2.043  0.1953 -0.2080 -0.3118
 5112W        W 8856   9.051   9.898  11.505  0.1668 -0.0283  0.1229
 5113W        W 8857   3.389   4.545  11.387 -0.4504 -0.0350 -0.1808
 5114W        W 8858   0.081   0.674  12.363 -0.0985  0.0071 -0.2805
 5115W        W 8859   0.806   8.018   0.887  0.1492  0.3179 -0.1783
 5116W        W 8860   5.127   8.316   0.600  0.1096  0.1863 -0.0417
 5117W        W 8861   2.378   4.915  11.884 -0.2528  0.3456  0.2709
 5118W        W 8862   4.433   1.759   0.973  0.2731  0.2218 -0.1101
 5119W        W 8863   0.985   2.739   9.951  0.1346  0.2217 -0.1003
 5120W        W 8864   7.983   3.260   0.967  0.2338  0.1617  0.0697
 5121W        W 8865   4.799   2.935   9.520 -0.0366 -0.1185  0.3376
 5122W        W 8866   6.462   4.131  12.246 -0.1370 -0.0359 -0.2252
 5123W        W 8867   2.630   5.823   4.582 -0.4065  0.1584 -0.0733
 5124W        W 8868   3.977   0.280  11.970  0.0668  0.1450 -0.1266
 5125W        W 8869   4.271   9.253   4.077 -0.4911  0.0073  0.0997
 5126W        W 8870   2.462   3.421  11.679 -0.1363 -0.1910 -0.0137
 5127W        W 8871   6.602   4.417   2.396  0.0863  0.5071 -0.3493
 5128W        W 8872   7.534   8.165  12.504 -0.3489 -0.1892  0.0154
 5129W        W 8873   0.881   8.465   0.663  0.1366 -0.1162 -0.0817
 5130W        W 8874   2.384   2.395   2.399  0.1813 -0.1443  0.2021
 5131W        W 8875   8.951   4.619  10.296 -0.0680 -0.0662 -0.1532
 5132W        W 8876   0.363   5.890   1.791 -0.2900 -0.1774  0.0105
 5133W        W 8877   3.942   3.383   1.846 -0.2389  0.1610  0.0310
 5134W        W 8878   5.727   1.415   2.764  0.0934 -0.0514 -0.1505
 5135W        W 8879   5.680   0.638  10.199 -0.2453  0.2462  0.1867
 5136W        W 8880   9.840   2.224   9.268 -0.0571 -0.1310 -0.0641
 5137W        W 8881   7.286   9.572  10.409  0.0135  0.1995 -0.0872
 5138W        W 8882   5.762   2.361   0.007 -0.0934 -0.0626  0.2377
 5139W        W 8883   5.693   1.986  10.342  0.0250  0.0535  0.1933
 5140W        W 8884   7.700   4.822   0.407  0.1210 -0.3720  0.1161
 5141W        W 8885   7.827   1.219   3.644  0.1261  0.1183  0.3019
 5142W        W 8886   9.779   4.825   1.531 -0.0311 -0.4095  0.1339
 5143W        W 8887   5.854   0.785   9.504  0.0211 -0.0110  0.0802
 5144W        W 8888   6.798   6.413  11.827  0.0833 -0.5142 -0.3146
 5145W        W 8889   1.530   6.961  10.457 -0.0136  0.0609  0.0416
 5146W        W 8890   2.045   9.798  11.637  0.1990  0.1753  0.0434
 5147W        W 8891   8.967   3.740  10.115 -0.0180  0.1855 -0.0823
 5148W        W 8892   3.529   1.559  10.196  0.0568  0.2413 -0.1351
 5149W        W 8893   0.029   4.186  12.875 -0.0197 -0.2081  0.2641
 5150W        W 8894   5.682   1.791  11.208 -0.3790 -0.2041 -0.1569
 5151W        W 8895   6.241   2.920  11.578  0.1698  0.2818  0.0208
 5152W        W 8896   8.725   1.030   1.794  0.2962 -0.0476 -0.1476
 5153W        W 8897   2.198   4.415   3.516 -0.1827  0.0576 -0.3755
 5154W        W 8898   7.727   8.021   3.358 -0.0607  0.4644 -0.2145
 5155W        W 8899   1.840   9.123   9.552  0.1299 -0.1880  0.0111
 5156W        W 8900   6.606   7.091   0.800 -0.0507  0.0675 -0.0224
 5157W        W 8901   7.793   9.172   3.608  0.0790 -0.0676  0.4165
 5158W        W 8902   0.148   1.320   0.709  0.1082 -0.2906  0.2913
 5159W        W 8903   1.027   0.212   1.423  0.0409  0.1417 -0.1067
 5160W        W 8904   7.890   8.200   1.139 -0.0823  0.1158 -0.2156
 5161W        W 8905   2.382   2.912  10.346  0.0881  0.0741  0.2076
 5162W        W 8906   7.110   2.108   0.014  0.1349  0.1948 -0.2177
 5163W        W 8907   3.292   0.934   0.818  0.2076  0.0816  0.2323
 5164W        W 8908   5.936   1.071   4.133 -0.2706  0.3586  0.0119
 5165W        W 8909   1.214   9.089   3.805  0.0608  0.1801  0.1240
 5166W        W 8910   8.616   3.876  12.167 -0.0168  0.0839 -0.0250
 5167W        W 8911   1.868   3.863   0.307  0.1217  0.1598  0.0697
 5168W        W 8912   0.571   8.428   9.959 -0.2188 -0.1196 -0.1242
 5169W        W 8913   9.031   0.644   3.170  0.3213  0.0605 -0.1643
 5170W        W 8914   9.629   6.415   3.999  0.1587 -0.1477  0.1524
 5171W        W 8915   3.029   2.290  12.108  0.0439  0.0156  0.0275
 5172W        W 8916   7.884   2.500   9.046 -0.1807  0.1051 -0.6429
 5173W        W 8917   9.796   3.894   9.498  0.1230 -0.1713 -0.0530
 5174W        W 8918   1.572   2.962  11.886  0.3895 -0.2583  0.2689
 5175W        W 8919   0.695   3.798   0.332 -0.2389  0.0433 -0.0753
 5176W        W 8920   2.206   9.695   1.945 -0.3093 -0.2804 -0.1464
 5177W        W 8921   2.909   8.740   4.447  0.0683  0.2979 -0.2468
 5178W        W 8922   0.242   4.377  10.022 -0.3275  0.1598  0.1400
 5179W        W 8923   3.081   7.269   3.894  0.2028  0.0116 -0.0648
 5180W        W 8924   0.815   0.483   4.820  0.1548 -0.0038  0.0316
 5181W        W 8925   6.602   0.561   2.452  0.3093  0.0083  0.3000
 5182W        W 8926   1.897   3.358  11.804  0.2792 -0.1805  0.1036
 5183W        W 8927   3.230   3.190   1.356  0.0899  0.1870 -0.1216
 5184W        W 8928   5.421   5.239  11.347  0.0599 -0.1405 -0.0227
 5185W        W 8929   3.545   0.098  12.075  0.0264  0.0340 -0.2671
 5186W        W 8930   5.806   0.838   0.178  0.4089 -0.0723  0.1277
 5187W        W 8931   1.918   3.703   8.858  0.1099  0.0323  0.1569
 5188W        W 8932   3.346   4.986   2.828  0.4560 -0.2805  0.1418
 5189W        W 8933   7.849   7.872  11.397 -0.0460 -0.0031 -0.3356
 5190W        W 8934   8.601   6.278   4.097 -0.1711 -0.0364 -0.0125
 5191W        W 8935   4.916   0.173  10.447 -0.1304  0.2528 -0.1122
 5192W        W 8936   5.428   9.474   8.724  0.3292 -0.4256  0.2032
 5193W        W 8937   9.483   3.404   3.881 -0.1863  0.1805  0.0755
 5194W        W 8938   6.605   7.267   2.073 -0.1312 -0.0254 -0.0355
 5195W        W 8939   7.029   7.185   0.451 -0.0614  0.2826  0.1063
 5196W        W 8940   6.892   1.457   3.043 -0.4704 -0.1618  0.0679
 5197W        W 8941   5.757   1.795   0.415 -0.0519  0.0009 -0.1955
 5198W        W 8942   4.561   6.502   2.803  0.2036  0.0471 -0.1356
 5199W        W 8943   7.353   4.265   2.931 -0.1313  0.1718  0.2034
 5200W        W 8944   4.225   3.796  10.847 -0.2198  0.0794 -0.3972
 5201W        W 8945   9.365   0.103   0.116 -0.1103  0.1827  0.0357
 5202W        W 8946   5.236   3.548   3.261 -0.0066  0.1032 -0.0814
 5203W        W 8947   5.255   0.210   9.565  0.0119 -0.2190 -0.1052
 5204W        W 8948   9.188   1.019   1.636 -0.2132  0.3567 -0.0797
 5205W        W 8949   3.222   7.036  11.379  0.0974 -0.1860  0.1790
 5206W        W 8950   2.865   8.421  12.108 -0.3917 -0.2461  0.0527
 5207W        W 8951   8.270   8.767   9.283 -0.2049 -0.6078  0.1135
 5208W        W 8952   7.943   0.243   3.362  0.1159 -0.0763 -0.0376
 5209W        W 8953   4.810   8.625   2.034 -0.1624 -0.0053  0.1031
 5210W        W 8954   0.669   2.836   9.253 -0.1551 -0.0631 -0.2317
 5211W        W 8955   0.096   1.308   2.670  0.1434  0.1124  0.1186
 5212W        W 8956   2.696   3.641   0.532  0.2167  0.1335 -0.3112
 5213W        W 8957   3.996   4.981  10.300 -0.3130  0.1174 -0.1646
 5214W        W 8958   3.061   6.984   4.534  0.0374  0.0724 -0.1718
 5215W        W 8959   8.485   3.077   0.215  0.4040 -0.0183  0.0037
 5216W        W 8960   7.067   1.676  11.415  0.4134  0.2006 -0.0809
 5217W        W 8961   6.518   1.844   0.898  0.0039 -0.2209 -0.1718
 5218W        W 8962   6.988   7.514   3.025  0.0092 -0.0535  0.1359
 5219W        W 8963   3.894   0.799   0.364 -0.0713  0.0136 -0.3939
 5220W        W 8964   4.030   9.761  11.719 -0.2255 -0.0183 -0.0420
 5221W        W 8965   0.130   0.280   8.659  0.2227 -0.1824 -0.1091
 5222W        W 8966   9.609   1.588   0.935 -0.1690 -0.0893 -0.3321
 5223W        W 8967   3.393   1.090  10.472  0.0495 -0.0189 -0.0027
 5224W        W 8968   8.028   9.841   3.737 -0.3089  0.1821 -0.1201
 5225W        W 8969   8.244   4.678  10.299  0.0150  0.1191  0.2397
 5226W        W 8970   2.152   8.229  12.695 -0.1786  0.1276  0.0191
 5227W        W 8971   2.973   9.313  12.559  0.1928  0.0527  0.1186
 5228W        W 8972   1.195   0.711   8.711  0.0444  0.2746  0.1717
 5229W        W 8973   6.892   5.056   0.932  0.0033  0.0613  0.2178
 5230W        W 8974   0.101   2.344   4.460  0.1229  0.0338 -0.1515
 5231W        W 8975   3.937   5.812   0.844 -0.2752  0.4607  0.0856
 5232W        W 8976   2.974   3.840   2.086  0.3464  0.1847 -0.1199
 5233W        W 8977   7.612   7.164  10.687 -0.0228  0.1679 -0.0124
 5234W        W 8978   4.381   8.620   3.455 -0.1908  0.1719  0.1941
 5235W        W 8979   1.963   9.372   3.911  0.0302  0.1027 -0.0783
 5236W        W 8980   6.630   4.161   1.336 -0.3341  0.0203 -0.1436
 5237W        W 8981   5.148   2.923   1.448 -0.1603  0.3263  0.1430
 5238W        W 8982   7.142   5.557   0.686  0.0783 -0.1015 -0.1192
 5239W        W 8983   6.817   8.684  10.906 -0.2130  0.0128 -0.3307
 5240W        W 8984   1.139   6.138   0.008 -0.2580 -0.1692 -0.1106
 5241W        W 8985   3.971   1.427   4.049  0.1451 -0.0587  0.0424
 5242W        W 8986   8.952   2.994  12.787  0.0790 -0.2457  0.0271
 5243W        W 8987   7.343   0.312   1.820  0.1188 -0.1011  0.2508
 5244W        W 8988   9.182   9.571   4.505  0.0300  0.3381 -0.1377
 5245W        W 8989   1.718   3.337   5.214 -0.0864 -0.1836  0.3711
 5246W        W 8990   2.989   9.346  10.535 -0.1411  0.2289 -0.2422
 5247W        W 8991   1.253   1.762  11.411  0.2108 -0.3863  0.3806
 5248W        W 8992   9.318   8.325   0.840 -0.1104 -0.1764  0.0297
 5249W        W 8993   9.096   8.898  10.853  0.1441 -0.0933  0.1424
 5250W        W 8994   3.874   3.332   9.434 -0.0979 -0.0102  0.0414
 5251W        W 8995   4.905   4.469  11.556 -0.2350  0.6250 -0.1263
 5252W        W 8996   1.066   8.264  10.104  0.1356 -0.0132 -0.0756
 5253W        W 8997   9.191   2.834   4.643  0.0461  0.2017  0.0947
 5254W        W 8998   0.293   5.257   2.329  0.0117  0.1490 -0.0724
 5255W        W 8999   8.372   3.420  12.684 -0.3726 -0.3287  0.1284
 5256W        W 9000   1.136   7.164   9.344 -0.2328 -0.2868 -0.0837
 5257W        W 9001   8.949   7.287   4.054 -0.1611  0.1817  0.2260
 5258W        W 9002   6.774   5.540   9.457 -0.0868 -0.3122 -0.1872
 5259W        W 9003   3.307   0.511   2.121  0.1402 -0.2350 -0.3486
 5260W        W 9004   9.629   5.914   0.947 -0.3403  0.3859  0.2420
 5261W        W 9005   2.439   0.816  10.851 -0.2046  0.2343 -0.0477
 5262W        W 9006   7.897   9.418  12.082  0.0562  0.1446 -0.2395
 5263W        W 9007   4.345   1.262   9.430 -0.0473 -0.0641 -0.1104
 5264W        W 9008   8.376   2.244  10.785 -0.3650 -0.0029  0.0392
 5265W        W 9009   3.229   2.626   9.844 -0.0502  0.1433 -0.1596
 5266W        W 9010   2.412   6.326   1.623 -0.1090  0.1641  0.4213
 5267W        W 9011   7.188   7.394   9.880  0.4452  0.0377 -0.2276
 5268W        W 9012   2.187   0.347   4.516  0.2414  0.1742  0.0528
 5269W        W 9013   4.793   0.045  12.394 -0.0627  0.0550 -0.0496
 5270W        W 9014   9.099   2.300   9.790  0.0723  0.2235 -0.0386
 5271W        W 9015   8.827   2.673  10.649  0.1341  0.4021  0.0976
 5272W        W 9016   1.332   2.208   2.173 -0.1955  0.0206  0.0201
 5273W        W 9017   9.085   6.754   1.859 -0.1469  0.3228 -0.1879
 5274W        W 9018   9.761   7.468   2.673 -0.0620  0.1768  0.0634
 5275W        W 9019   8.990   6.016   1.794 -0.0735  0.1453  0.0244
 5276W        W 9020   2.412   3.457   9.189 -0.0471  0.2070 -0.0080
 5277W        W 9021   0.696   7.587  12.633  0.0178 -0.5693  0.0639
 5278W        W 9022   5.442   5.726   0.961 -0.0128 -0.1440 -0.1092
 5279W        W 9023   7.295   7.818   1.523 -0.0903 -0.0218 -0.0750
 5280W        W 9024   7.042   2.274  11.494 -0.0483  0.1141  0.0612
 5281W        W 9025   9.171   5.811   0.948  0.2502  0.0912  0.2043
 5282W        W 9026   4.597   8.906   0.847  0.2829 -0.0392  0.1890
 5283W        W 9027   7.981   8.819   4.004 -0.3567 -0.0434  0.0336
 5284W        W 9028   1.290   8.774  10.115 -0.2128  0.3229 -0.0306
 5285W        W 9029   7.037   9.499   2.217  0.2115 -0.2377 -0.1789
 5286W        W 9030   0.382   4.521   0.293  0.2983 -0.2935  0.0212
 5287W        W 9031   9.126   9.346  11.123 -0.1533  0.0408  0.2866
 5288W        W 9032   8.160   1.319  11.538  0.1749 -0.0998  0.1664
 5289W        W 9033   1.711   0.673  11.385  0.1190  0.0687 -0.0898
 5290W        W 9034   0.860   0.276  11.854 -0.3317  0.0986 -0.1354
 5291W        W 9035   8.692   2.703   3.082 -0.0799  0.2940  0.0894
 5292W        W 9036   3.941   3.110   8.623  0.0941  0.0595 -0.2625
 5293W        W 9037   0.989   4.104   0.830 -0.3822 -0.0166  0.0604
 5294W        W 9038   5.715   8.594  10.047  0.0615  0.0985 -0.1035
 5295W        W 9039   1.424   6.236   9.380  0.2728  0.1114  0.1624
 5296W        W 9040   0.291   7.160   0.293 -0.0166  0.2407 -0.0498
 5297W        W 9041   7.384   4.741  11.736  0.4508  0.1663  0.3051
 5298W        W 9042   4.924   4.766   2.074 -0.0669 -0.0079  0.3738
 5299W        W 9043   2.255   7.088   0.856 -0.4840 -0.1806 -0.0770
 5300W        W 9044   1.921   2.227   1.736  0.2336  0.1824  0.0539
 5301W        W 9045   6.513   8.278   9.984  0.1284  0.2453 -0.2191
 5302W        W 9046   1.602   8.645   9.193  0.1637  0.0091  0.0642
 5303W        W 9047   4.246   9.732  11.229 -0.1816 -0.0351  0.0574
 5304W        W 9048   3.142   9.497   1.584  0.4203 -0.1006 -0.0072
 5305W        W 9049   2.275   7.755  11.890 -0.2519 -0.1468  0.2287
 5306W        W 9050   9.071   8.343   9.625  0.0319  0.0900 -0.0489
 5307W        W 9051   1.934   2.579   4.217  0.0155 -0.0407  0.2371
 5308W        W 9052   9.485   1.201   2.465  0.2484 -0.0845 -0.0084
 5309W        W 9053   3.933   0.058  10.904  0.2316  0.0726 -0.1612
 5310W        W 9054   2.529   1.300  10.619 -0.1557 -0.0281  0.2125
 5311W        W 9055   4.049   6.941   1.300  0.0890  0.2195  0.2268
 5312W        W 9056   1.208   7.499  10.984 -0.1743 -0.2448 -0.1774
 5313W        W 9057   6.841   6.588  12.483  0.1172 -0.3316 -0.0858
 5314W        W 9058   0.533   7.080   0.857 -0.0345  0.2626  0.1132
 5315W        W 9059   8.576   8.111   0.152  0.1304 -0.2779 -0.2799
 5316W        W 9060   8.684   9.466   1.900  0.0578 -0.2627  0.0941
 5317W        W 9061   3.837   2.830   1.925 -0.0319 -0.0784 -0.2015
 5318W        W 9062   7.073   4.931   1.404 -0.1486  0.0870 -0.0612
 5319W        W 9063   0.641   7.136   1.327 -0.0579 -0.3069  0.0251
 5320W        W 9064   0.029   8.698   0.277 -0.2576 -0.1763  0.1585
 5321W        W 9065   2.967   0.564   4.233 -0.3486  0.1246 -0.2022
 5322W        W 9066   6.618   4.188   1.911 -0.4105 -0.0663  0.2018
 5323W        W 9067   0.268   8.381   8.707 -0.2763 -0.4657 -0.1250
 5324W        W 9068   5.681   5.437  11.016  0.0813  0.0575 -0.1791
 5325W        W 9069   4.071   9.820   1.000  0.2236  0.1690  0.0857
 5326W        W 9070   6.453   2.175   3.493 -0.1569 -0.1980 -0.1531
 5327W        W 9071   7.782   2.889  11.678 -0.2880 -0.0353  0.1568
 5328W        W 9072   3.915   9.844  12.357  0.1068 -0.0265  0.0445
 5329W        W 9073   1.107   3.899   9.770 -0.0737  0.0130  0.1799
 5330W        W 9074   0.787   1.741   0.260 -0.2919 -0.1336  0.1741
 5331W        W 9075   1.871   6.230   9.182 -0.1006 -0.1768 -0.2103
 5332W        W 9076   1.114   1.285   9.412  0.0779 -0.4711  0.2261
 5333W        W 9077   9.179   5.333   2.527  0.2555  0.0510 -0.0087
 5334W        W 9078   4.162   1.737  11.857  0.1660 -0.1353  0.0794
 5335W        W 9079   8.029   6.282  12.414  0.4354 -0.0757  0.2022
 5336W        W 9080   6.633   7.987   3.066 -0.1073 -0.4681  0.2014
 5337W        W 9081   3.773   5.298  11.430 -0.0808 -0.1207 -0.1420
 5338W        W 9082   4.211   3.184   9.092  0.1993 -0.1138  0.2940
 5339W        W 9083   4.376   0.109   9.832 -0.1667 -0.0330 -0.0712
 5340W        W 9084   7.972   1.779  12.526  0.1482 -0.3094  0.5019
 5341W        W 9085   6.368   7.519   1.258  0.1719  0.2260  0.0140
 5342W        W 9086   0.874   1.844   2.371  0.1277 -0.1147 -0.0558
 5343W        W 9087   5.148   7.871   1.447  0.2101  0.0278  0.0560
 5344W        W 9088   9.523   6.515   3.118  0.0464 -0.0657 -0.3227
 5345W        W 9089   1.039   7.606  11.440 -0.0295  0.0389 -0.0570
 5346W        W 9090   7.412   2.491   8.807 -0.4598 -0.2068  0.0817
 5347W        W 9091   4.538   8.119  12.333 -0.1695 -0.3262  0.1400
 5348W        W 9092   2.508   6.374  11.795  0.1149  0.0722  0.0376
 5349W        W 9093   0.895   2.000   3.913 -0.2240 -0.0368  0.1242
 5350W        W 9094   0.537   5.102  12.431  0.0107 -0.2382 -0.1709
 5351W        W 9095   9.760   3.317  12.320  0.2702 -0.2820 -0.1533
 5352W        W 9096   1.836   0.794  12.279 -0.0884 -0.0637 -0.0531
 5353W        W 9097   8.437   7.810  10.589 -0.0871  0.0056  0.0827
 5354W        W 9098   0.868   3.255   1.178 -0.2274  0.2967 -0.0125
 5355W        W 9099   5.051   6.435  12.609  0.1216 -0.2828 -0.0143
 5356W        W 9100   6.961   1.740   8.560  0.2285  0.3537 -0.1930
 5357W        W 9101   9.441   9.026   9.393 -0.1506 -0.1408 -0.0463
 5358W        W 9102   3.849   7.756   1.061  0.2393 -0.0133 -0.0192
 5359W        W 9103   3.048   5.115   3.614 -0.0723 -0.0106  0.0420
 5360W        W 9104   3.565   0.613  12.234  0.0876  0.0172  0.0365
 5361W        W 9105   8.789   2.099   0.544 -0.0855 -0.2849  0.0578
 5362W        W 9106   7.831   9.781  11.171  0.5187  0.1420 -0.2506
 5363W        W 9107   9.239   3.785   1.527 -0.3513 -0.0062  0.2290
 5364W        W 9108   3.597   1.100   3.494  0.2227  0.2742 -0.1687
 5365W        W 9109   9.492   6.968  10.208 -0.2457 -0.0462 -0.2517
 5366W        W 9110   7.457   0.196  11.193  0.1017  0.0159  0.1127
 5367W        W 9111   6.078   9.261  12.767 -0.1927 -0.1908 -0.1722
 5368W        W 9112   3.112   0.424   9.725 -0.0066  0.0249  0.0233
 5369W        W 9113   7.722   3.411  10.411  0.1004  0.2304  0.3325
 5370W        W 9114   9.417   6.349   1.786 -0.2220  0.1098  0.0303
 5371W        W 9115   6.447   2.527   0.796  0.1707 -0.1096 -0.1599
 5372W        W 9116   3.530   8.661  12.718  0.1338 -0.2068  0.2668
 5373W        W 9117   4.380   2.158   3.420  0.0661  0.0547 -0.0668
 5374W        W 9118   2.131   7.309   3.911  0.0535  0.4515 -0.1286
 5375W        W 9119   9.229   8.207   8.843 -0.0650  0.0342 -0.0522
 5376W        W 9120   7.824   3.000   9.216  0.1105 -0.2441 -0.0211
 5377W        W 9121   7.442   7.531   2.706  0.0414  0.0889 -0.1404
 5378W        W 9122   7.224   1.340   0.662 -0.2731  0.0128 -0.1924
 5379W        W 9123   3.556   1.312   2.498 -0.1512 -0.1253  0.0584
 5380W        W 9124   0.893   2.060   9.221  0.2416 -0.2718 -0.3237
 5381W        W 9125   1.361   3.546  10.120  0.0328 -0.0503  0.2232
 5382W        W 9126   7.041   0.477  10.286 -0.0865  0.1229  0.2551
 5383W        W 9127   9.226   7.894   9.849 -0.0205 -0.1810  0.0974
 5384W        W 9128   5.015   2.259   3.322 -0.3613  0.3032  0.0151
 5385W        W 9129   9.004   6.890   2.758  0.1551 -0.1948 -0.2799
 5386W        W 9130   7.609   0.215  12.849 -0.0881  0.0097  0.2962
 5387W        W 9131   5.642   8.970  12.515 -0.3285 -0.0772  0.0546
 5388W        W 9132   2.632   6.752   4.643 -0.1168 -0.4048  0.0834
 5389W        W 9133   0.378   7.523  10.325  0.1266 -0.3125 -0.3819
 5390W        W 9134   4.393   0.689   3.604  0.2742 -0.0981 -0.1205
 5391W        W 9135   5.421   9.360   9.302  0.2960  0.4025 -0.1026
 5392W        W 9136   3.316   4.509   2.945 -0.1460  0.2046  0.3644
 5393W        W 9137   7.186   2.417   3.300 -0.1543 -0.2433 -0.2818
 5394W        W 9138   3.741   0.774  10.281 -0.0275  0.0552 -0.3296
 5395W        W 9139   2.420   0.119  11.386  0.0100  0.1549 -0.0567
 5396W        W 9140   9.300   0.318   2.387  0.0181  0.0958  0.2227
 5397W        W 9141   8.568   9.547   2.462 -0.1101 -0.2020  0.3066
 5398W        W 9142   9.585   2.946   3.885  0.1730  0.0036  0.2067
 5399W        W 9143   4.100   4.160   0.025  0.0668  0.0461 -0.3393
 5400W        W 9144   0.391   4.939  10.403  0.2421 -0.2501 -0.0124
 5401W        W 9145   0.321   9.527   4.678 -0.4242  0.2449 -0.3516
 5402W        W 9146   0.695   7.152  10.304  0.1250 -0.2124 -0.2534
 5403W        W 9147   1.715   3.653   0.753 -0.2048  0.1691  0.0541
 5404W        W 9148   9.447   4.922  10.937 -0.2328  0.0106 -0.1331
 5405W        W 9149   3.539   6.119  11.769  0.0449 -0.0947  0.0533
 5406W        W 9150   6.136   3.961  11.236 -0.1346 -0.2836  0.3095
 5407W        W 9151   3.937   2.491  10.746  0.4602 -0.0763  0.0172
 5408W        W 9152   7.303   2.781   0.337  0.0105  0.1736 -0.0138
 5409W        W 9153   0.666   8.310   2.285 -0.0847  0.2083 -0.1080
 5410W        W 9154   2.010   3.079  10.667 -0.1156 -0.1550 -0.3747
 5411W        W 9155   4.838   5.496  10.613  0.2089  0.0310  0.0317
 5412W        W 9156   5.355   7.014  10.791 -0.0365 -0.4865 -0.1936
 5413W        W 9157   7.389   8.243   2.364 -0.3013  0.1683 -0.0655
 5414W        W 9158   7.794   3.631   3.089  0.2286 -0.1703 -0.4423
 5415W        W 9159   0.111   8.992  12.174  0.1051 -0.1079 -0.0111
 5416W        W 9160   1.661   8.300  12.470 -0.0731  0.1619 -0.1728
 5417W        W 9161   2.352   7.950   1.016  0.3474  0.0309  0.1782
 5418W        W 9162   0.202   7.880   1.039  0.1067 -0.1004  0.0180
 5419W        W 9163   2.567   2.988  12.874 -0.2188  0.0977  0.1045
 5420W        W 9164   3.400   7.413  10.820 -0.0611 -0.1452  0.0385
 5421W        W 9165   4.839   9.866   9.495  0.0498 -0.1323  0.0665
 5422W        W 9166   8.486   5.196   2.974  0.3645  0.1232 -0.2920
 5423W        W 9167   6.396   8.037  10.843 -0.2972  0.0295  0.2152
 5424W        W 9168   7.466   3.283   8.960 -0.2231  0.1423 -0.0420
 5425W        W 9169   5.003   3.006   8.671  0.0241 -0.2364  0.1748
 5426W        W 9170   6.242   2.984   3.742 -0.0497  0.1078 -0.2039
 5427W        W 9171   7.242   5.877   1.157 -0.1784 -0.2024  0.1381
 5428W        W 9172   2.330   5.956   9.916 -0.1670 -0.1604 -0.0174
 5429W        W 9173   9.272   2.169   1.742 -0.0424 -0.0573  0.1014
 5430W        W 9174   1.323   6.588  10.694 -0.3545 -0.1068 -0.1126
 5431W        W 9175   7.597   1.854  11.361  0.0402 -0.1480  0.0098
 5432W        W 9176   8.179   2.609   0.227 -0.0353 -0.0249  0.0859
 5433W        W 9177   3.958   4.383  12.312 -0.2108 -0.2529  0.0132
 5434W        W 9178   2.925   9.173   4.630 -0.0720 -0.0223  0.0860
 5435W        W 9179   2.819   6.893   0.496 -0.1475  0.1586  0.0377
 5436W        W 9180   3.884   0.943  11.283 -0.0775  0.0955 -0.1615
 5437W        W 9181   5.570   2.402  11.905  0.1367  0.0257  0.0311
 5438W        W 9182   1.962   1.313   9.547  0.3356  0.2423 -0.2228
 5439W        W 9183   2.021   2.095   0.033  0.0656  0.0395 -0.3298
 5440W        W 9184   1.068   1.527   2.953 -0.0723  0.1330 -0.4978
 5441W        W 9185   8.990   5.161   3.029  0.1239  0.2327 -0.0092
 5442W        W 9186   2.333   5.539  12.806 -0.3636 -0.1398  0.2439
 5443W        W 9187   3.979   9.247   1.780 -0.1130  0.0424  0.1081
 5444W        W 9188   1.304   1.457   1.310  0.1796 -0.1573  0.0277
 5445W        W 9189   0.384   0.538   0.535  0.0550 -0.1913  0.1575
 5446W        W 9190   4.052   6.037   4.396  0.3009  0.0487  0.1342
 5447W        W 9191   1.295   4.733  12.591 -0.3075  0.2388  0.0308
 5448W        W 9192   0.017   0.999  11.854  0.1547 -0.0879 -0.0182
 5449W        W 9193   4.252   7.283  10.612  0.2920 -0.0674 -0.1799
 5450W        W 9194   5.906   7.133   3.372  0.0699  0.4459  0.2200
 5451W        W 9195   8.134   8.165   1.675  0.1851 -0.1263 -0.0177
 5452W        W 9196   4.650   7.640   3.272 -0.0682  0.0143 -0.2333
 5453W        W 9197   6.877   9.718   3.285 -0.2137  0.3595  0.0105
 5454W        W 9198   0.171   8.802   3.042  0.0235 -0.3325 -0.1389
 5455W        W 9199   6.823   0.102   2.389  0.2705 -0.1869 -0.1692
 5456W        W 9200   8.743   1.663   3.389  0.1540 -0.2809  0.1019
 5457W        W 9201   5.523   6.364   2.937  0.1197 -0.0934  0.3449
 5458W        W 9202   6.157   4.407   3.268  0.0796  0.1519  0.0061
 5459W        W 9203   5.609   0.417   8.336  0.0486 -0.1541 -0.3362
 5460W        W 9204   5.651   1.304   4.474  0.0330 -0.1884  0.0600
 5461W        W 9205   0.833   7.815   2.191  0.1553  0.1188 -0.2403
 5462W        W 9206   2.891   2.526   1.517  0.2810  0.0384 -0.0472
 5463W        W 9207   6.311   8.484   9.065  0.0435 -0.0580 -0.0031
 5464W        W 9208   4.399   0.197  11.623 -0.2780 -0.1691  0.0851
 5465W        W 9209   3.197   0.166  11.081  0.0950 -0.2580 -0.0964
 5466W        W 9210   8.188   9.567  12.499 -0.1541 -0.0255 -0.0302
 5467W        W 9211   8.436   8.771   0.895  0.0793 -0.1536  0.1824
 5468W        W 9212   9.873   4.361   2.794 -0.2913  0.0139  0.0513
 5469W        W 9213   1.829   6.190   2.477  0.0589  0.1859  0.3120
 5470W        W 9214   8.537   5.722   1.686  0.0143 -0.0612 -0.1134
 5471W        W 9215   1.113   3.961  10.744  0.1407  0.0627  0.0325
 5472W        W 9216   1.176   2.072   0.455 -0.0903  0.0038  0.0325
 5473W        W 9217   4.603   0.750  11.275 -0.0491  0.0086 -0.3769
 5474W        W 9218   9.625   8.707  11.782 -0.1228  0.3032  0.2895
 5475W        W 9219   7.237   1.659  12.481 -0.1986  0.0783 -0.1010
 5476W        W 9220   2.111   2.320  12.138 -0.1484 -0.0048 -0.3826
 5477W        W 9221   3.466   4.336  11.922 -0.1930  0.1754  0.2578
 5478W        W 9222   1.383   9.179   1.904  0.0727  0.2503 -0.2186
 5479W        W 9223   9.724   5.309   3.768 -0.2599  0.2420  0.0713
 5480W        W 9224   3.439   2.310   3.744  0.0908  0.0574  0.0382
 5481W        W 9225   7.960   7.442   0.478  0.0523  0.2877 -0.1283
 5482W        W 9226   2.174   1.447   1.487  0.1555  0.2030  0.1410
 5483W        W 9227   4.722   8.078  10.063 -0.0913 -0.2046  0.2372
 5484W        W 9228   7.512   7.512   3.189 -0.0755 -0.1807 -0.0149
 5485W        W 9229   9.905   2.884  12.777  0.0002  0.1323  0.1824
 5486W        W 9230   2.938   3.264   0.851 -0.0196  0.0592  0.1692
 5487W        W 9231   6.228   3.255  12.623  0.3235 -0.1124  0.0963
 5488W        W 9232   9.397   9.111   1.893  0.1655  0.5180  0.0130
 5489W        W 9233   9.802   2.018   2.378 -0.2724 -0.1728 -0.3355
 5490W        W 9234   2.842   8.681   0.274 -0.0206  0.3664 -0.0635
 5491W        W 9235   7.087   0.390  11.532  0.3726 -0.2211 -0.3611
 5492W        W 9236   4.551   5.623   9.790  0.0860  0.1312  0.1100
 5493W        W 9237   6.066   0.234  12.262 -0.2067 -0.0888  0.0640
 5494W        W 9238   4.731   7.729   2.043 -0.3390  0.1683 -0.3602
 5495W        W 9239   0.511   2.639  10.295 -0.0031 -0.1017 -0.1909
 5496W        W 9240   9.674   8.866   4.166 -0.1013 -0.0372 -0.2614
 5497W        W 9241   5.140   1.701   2.657 -0.1148  0.0932  0.1086
 5498W        W 9242   4.588   7.167   1.987 -0.3129 -0.1643 -0.1456
 5499W        W 9243   9.094   8.861   3.390  0.0700 -0.3062 -0.0105
 5500W        W 9244   6.998   2.292  10.607 -0.0429 -0.2627 -0.3593
 5501W        W 9245   5.832   8.514   2.039  0.1646  0.1236 -0.0757
 5502W        W 9246   5.124   2.016  10.185  0.0628 -0.1368  0.3748
 5503W        W 9247   8.869   5.563   4.272  0.0033 -0.0009 -0.1856
 5504W        W 9248   7.619   6.131   4.046 -0.2978  0.2620 -0.0495
 5505W        W 9249   2.236   9.445   3.424 -0.0374 -0.0336  0.0232
 5506W        W 9250   2.083   7.863   0.607 -0.0557  0.2565  0.2703
 5507W        W 9251   3.004   3.735  10.555 -0.2707  0.2198 -0.1372
 5508W        W 9252   0.282   1.734   1.805  0.1808  0.2285 -0.1445
 5509W        W 9253   9.460   7.138   1.908 -0.2389  0.0212 -0.4905
 5510W        W 9254   4.342   8.884   1.881 -0.3003 -0.3287 -0.3608
 5511W        W 9255   6.424   6.759   2.272  0.0538  0.1353  0.0855
 5512W        W 9256   4.393   8.947   0.421 -0.3995 -0.1239  0.3938
 5513W        W 9257   1.185   1.526  10.968 -0.1617 -0.0603  0.1976
 5514W        W 9258   8.109   3.843   4.823 -0.1774 -0.2342 -0.2093
 5515W        W 9259   6.118   1.216  10.806  0.1600 -0.4354  0.1498
 5516W        W 9260   0.962   3.122  11.441  0.1522 -0.0191 -0.1136
 5517W        W 9261   2.638   6.396  10.924 -0.3497 -0.0354  0.2629
 5518W        W 9262   3.726   7.287  12.644 -0.1112 -0.3564 -0.0901
 5519W        W 9263   5.918   9.338  10.652  0.2486 -0.2631 -0.3485
 5520W        W 9264   0.011   0.286  10.549  0.0212  0.0889  0.0699
 5521W        W 9265   5.643   5.891   9.497 -0.0647 -0.0767 -0.2183
 5522W        W 9266   4.867   8.533  10.213  0.0347  0.1665  0.0295
 5523W        W 9267   3.122   6.771   2.490  0.4260 -0.0281  0.1557
 5524W        W 9268   2.651   0.575  10.324  0.0640 -0.0171 -0.0875
 5525W        W 9269   1.865   7.537  11.740  0.0687 -0.0177  0.1210
 5526W        W 9270   7.195   6.835   2.217  0.0299 -0.1061 -0.0076
 5527W        W 9271   4.825   1.580  10.175  0.4272 -0.3589  0.0969
 5528W        W 9272   6.968   6.902   1.742  0.4591 -0.0658  0.0923
 5529W        W 9273   3.583   2.071  10.615  0.0623  0.0914  0.1636
 5530W        W 9274   8.200   2.224   1.450 -0.1563 -0.0686 -0.1942
 5531W        W 9275   6.736   0.079  12.133  0.1006  0.0261  0.2749
 5532W        W 9276   2.361   0.289   2.130  0.0262 -0.2298  0.0600
 5533W        W 9277   0.948   3.774  10.304 -0.0496 -0.2174 -0.1398
 5534W        W 9278   5.266   7.535  10.599 -0.0937 -0.3346 -0.2748
 5535W        W 9279   8.787   3.341   8.725  0.1741  0.0514 -0.0366
 5536W        W 9280   4.562   4.392   8.277 -0.1777 -0.0144 -0.0925
 5537W        W 9281   4.030   3.711   7.942 -0.0558 -0.0586  0.0618
 5538W        W 9282   4.589   6.313   3.348  0.2879  0.0230  0.1725
 5539W        W 9283   8.044   6.491  11.974  0.0303 -0.1223 -0.0712
 5540W        W 9284   9.374   5.564  11.450 -0.0090  0.0468  0.1100
 5541W        W 9285   5.490   8.614   0.471  0.2642 -0.2594 -0.0955
 5542W        W 9286   1.480   9.163  11.964 -0.1668 -0.0889 -0.0300
 5543W        W 9287   3.217   6.428  10.949  0.2052  0.0737  0.3633
 5544W        W 9288   7.259   1.162   1.685  0.4508 -0.0848 -0.0155
 5545W        W 9289   2.179   3.703   4.232  0.1217  0.1076 -0.1161
 5546W        W 9290   8.647   0.792   9.779 -0.1620 -0.0138  0.1586
 5547W        W 9291   6.375   9.708  12.040 -0.2104 -0.0876  0.0051
 5548W        W 9292   0.482   2.444   4.987  0.1015 -0.2111  0.1985
 5549W        W 9293   7.405   8.780   0.764  0.0607 -0.0758  0.0596
 5550W        W 9294   1.198   1.749  11.925 -0.0262 -0.1483 -0.0807
 5551W        W 9295   3.632   7.083  10.053 -0.1876  0.0859 -0.0047
 5552W        W 9296   0.862   4.571   0.868  0.0936  0.7038 -0.3341
 5553W        W 9297   0.689   8.763   2.066  0.0791 -0.0351  0.3135
 5554W        W 9298   6.944   3.036   0.176  0.2255 -0.1955  0.0910
 5555W        W 9299   8.198   1.934   8.801  0.0474  0.0385  0.0053
 5556W        W 9300   4.557   1.672  10.933  0.2823  0.4762  0.0811
 5557W        W 9301   6.266   0.928  12.791  0.0347  0.0870  0.2205
 5558W        W 9302   6.811   3.712  11.125  0.2428 -0.0276 -0.0989
 5559W        W 9303   6.032   7.921   1.490  0.1327  0.0832  0.3420
 5560W        W 9304   9.639   0.776   9.582  0.0946 -0.1099 -0.0349
 5561W        W 9305   9.623   0.902  11.426 -0.0872 -0.1639  0.2075
 5562W        W 9306   1.751   2.242   9.834  0.2643  0.0823 -0.0640
 5563W        W 9307   3.308   9.109   0.485  0.1831  0.0167 -0.0693
 5564W        W 9308   5.699   2.571   9.410  0.0011  0.0259  0.1177
 5565W        W 9309   7.195   8.643  10.532  0.1583  0.0265 -0.2154
 5566W        W 9310   8.930   3.171   4.320  0.1202  0.1541  0.1816
 5567W        W 9311   4.969   9.357   9.700  0.0072  0.1466  0.2066
 5568W        W 9312   3.299   6.963   9.533 -0.0553 -0.1352 -0.0817
 5569W        W 9313   8.389   6.178  10.150  0.1396  0.2714 -0.2422
 5570W        W 9314   6.422   9.859   1.642 -0.0021  0.1951  0.1163
 5571W        W 9315   3.388   8.587   1.806 -0.0796 -0.0852  0.1615
 5572W        W 9316   7.640   6.612   2.163 -0.2042 -0.1212  0.0657
 5573W        W 9317   3.369   1.959  11.947  0.0198 -0.0636  0.1155
 5574W        W 9318   5.113   0.570   3.863 -0.0187  0.1199  0.2154
 5575W        W 9319   6.018   6.542   1.903 -0.1045 -0.2909  0.2144
 5576W        W 9320   8.191   8.408   0.299  0.2671  0.4011 -0.0782
 5577W        W 9321   2.444   0.246   8.063 -0.1973 -0.1582  0.2189
 5578W        W 9322   9.027   8.315   2.121  0.2876  0.1842 -0.1713
 5579W        W 9323   6.407   8.712   0.254 -0.1982  0.0800  0.0815
 5580W        W 9324   5.013   1.578   1.328 -0.0826 -0.1258  0.1625
 5581W        W 9325   5.419   1.761   1.002 -0.1586  0.3860  0.0441
 5582W        W 9326   8.212   8.878   3.587 -0.1739 -0.3164  0.2758
 5583W        W 9327   4.808   2.178  11.021  0.2380 -0.0344 -0.0461
 5584W        W 9328   1.107   8.556   3.982  0.0330 -0.1872  0.0579
 5585W        W 9329   5.776   6.672   0.958  0.0100  0.0966  0.1031
 5586W        W 9330   7.556   9.017  12.853  0.1634  0.3274 -0.0645
 5587W        W 9331   0.256   6.549  10.816 -0.2315  0.4028 -0.1770
 5588W        W 9332   4.715   0.756   0.298  0.1951 -0.1105 -0.1644
 5589W        W 9333   4.642   5.635   9.312  0.2893 -0.1921  0.1452
 5590W        W 9334   2.844   4.645   1.560  0.2390  0.0326 -0.2734
 5591W        W 9335   3.024   7.894   2.582  0.2749 -0.1150  0.2766
 5592W        W 9336   6.609   4.863   2.662 -0.1419 -0.0949  0.1638
 5593W        W 9337   8.285   0.922  12.736 -0.0940  0.3913 -0.1005
 5594W        W 9338   5.663   7.427   0.578 -0.0648 -0.1048 -0.2102
 5595W        W 9339   8.263   6.663   4.165 -0.2976 -0.1542  0.0482
 5596W        W 9340   3.856   0.558   3.744  0.2323  0.0532 -0.2534
 5597W        W 9341   8.642   6.779   0.576  0.3087  0.0472  0.1869
 5598W        W 9342   7.864   9.733   9.070  0.0307  0.1991  0.2780
 5599W        W 9343   8.696   7.966   9.691 -0.0082  0.3415 -0.0760
 5600W        W 9344   0.583   6.851   2.233 -0.3421 -0.0944 -0.0824
 5601W        W 9345   2.874   8.005  11.889  0.1022 -0.0734 -0.0987
 5602W        W 9346   2.122   4.340   0.386 -0.0738  0.0046  0.1037
 5603W        W 9347   6.996   4.618  10.938  0.1546 -0.2746 -0.3092
 5604W        W 9348   7.355   6.506  12.757  0.0103 -0.2180 -0.0179
 5605W        W 9349   6.703   7.571   0.734  0.0300 -0.0737  0.1593
 5606W        W 9350   4.401   6.980   3.946  0.6437  0.0413  0.1738
 5607W        W 9351   7.457   1.767   4.179 -0.6695  0.1548  0.3175
 5608W        W 9352   7.529   5.836  11.586 -0.1627  0.3649 -0.0878
 5609W        W 9353   5.708   2.184   3.940  0.1305 -0.1101  0.0553
 5610W        W 9354   6.705   9.042   0.552  0.0822  0.0419 -0.0766
 5611W        W 9355   0.831   9.382   0.920  0.1095 -0.1797 -0.0060
 5612W        W 9356   6.846   5.220   2.334  0.2982 -0.3824 -0.2024
 5613W        W 9357   4.390   1.358   8.905 -0.1302 -0.4803  0.1705
 5614W        W 9358   4.136   5.713   9.502  0.0522  0.1528 -0.3879
 5615W        W 9359   5.427   4.864   2.080 -0.0239  0.1065  0.0020
 5616W        W 9360   4.118   7.951  11.884  0.0881 -0.0694  0.2439
 5617W        W 9361   9.136   8.754  12.701  0.0380 -0.0147  0.3215
 5618W        W 9362   1.089   9.841  12.687 -0.0868  0.1105 -0.2356
 5619W        W 9363   4.617   3.730  10.291 -0.0031 -0.1791  0.3099
 5620W        W 9364   1.968   6.876  10.020  0.0874 -0.1047  0.3020
 5621W        W 9365   3.517   7.067  12.225 -0.2541 -0.0917  0.0349
 5622W        W 9366   9.800   8.073  10.921 -0.0266 -0.1900 -0.1077
 5623W        W 9367   3.670   7.464   1.473  0.2724 -0.0309 -0.1510
 5624W        W 9368   3.034   8.753  11.678  0.2645  0.1110  0.1936
 5625W        W 9369   8.195   1.200   9.864  0.2121 -0.3724 -0.1431
 5626W        W 9370   1.701   6.715   8.508 -0.0872 -0.2391  0.1113
 5627W        W 9371   1.989   1.805   9.073  0.0205 -0.0007 -0.3412
 5628W        W 9372   9.640   2.122  10.568 -0.1968  0.0020 -0.2505
 5629W        W 9373   8.772   2.634  12.065  0.1318  0.1237  0.0701
 5630W        W 9374   0.262   2.176   2.134  0.0983 -0.0442  0.2015
 5631W        W 9375   2.444   2.617   0.771 -0.0199  0.1680 -0.1912
 5632W        W 9376   3.509   0.853   1.550  0.1585  0.1196 -0.1586
 5633W        W 9377   6.215   0.142   1.198  0.0485 -0.1095 -0.2940
 5634W        W 9378   8.058   5.845   9.121  0.0413 -0.2799  0.2249
 5635W        W 9379   7.605   8.896   9.413  0.2227  0.1881 -0.0639
 5636W        W 9380   6.099   1.463   9.959  0.0854 -0.1584 -0.1517
 5637W        W 9381   5.227   6.635   0.763 -0.1090 -0.0301  0.1776
 5638W        W 9382   0.876   7.013  12.510 -0.1126 -0.0306  0.0175
 5639W        W 9383   5.049   7.996   3.386 -0.0360 -0.2428 -0.2137
 5640W        W 9384   2.865   3.296   0.157  0.0034 -0.0122  0.1040
 5641W        W 9385   9.052   6.583   0.396 -0.2989 -0.0449  0.0419
 5642W        W 9386   4.533   2.054   9.467  0.0373 -0.1479 -0.1002
 5643W        W 9387   5.201   5.300   0.877  0.1934 -0.0703 -0.1565
 5644W        W 9388   2.527   3.418   3.221 -0.0477  0.1630 -0.0995
 5645W        W 9389   2.530   4.224   2.147  0.0183 -0.0641  0.0754
 5646W        W 9390   3.042   9.825  10.664 -0.1343  0.0612  0.0747
 5647W        W 9391   7.850   9.352   9.470 -0.2103  0.0496  0.0324
 5648W        W 9392   8.905   5.575   9.290  0.1997 -0.1819 -0.0555
 5649W        W 9393   1.326   7.229  12.263 -0.2170 -0.0093 -0.3535
 5650W        W 9394   0.397   8.616   3.590  0.1462  0.1666  0.1740
 5651W        W 9395   3.433   2.925   9.534  0.3133 -0.1172 -0.1490
 5652W        W 9396   1.055   7.383   1.403  0.2009 -0.3911  0.1645
 5653W        W 9397   0.586   3.219  11.808  0.0501  0.0022 -0.1866
 5654W        W 9398   0.718   6.597  11.091  0.2083 -0.0711  0.2224
 5655W        W 9399   4.849   1.376   2.372  0.2476 -0.2867  0.1826
 5656W        W 9400   6.385   6.789   3.391  0.1762 -0.0729  0.2143
 5657W        W 9401   7.304   3.940   0.367  0.1099 -0.4813  0.3062
 5658W        W 9402   8.216   4.185  10.261 -0.0766 -0.1491 -0.3435
 5659W        W 9403   3.505   2.832   3.830  0.1417  0.1597  0.0286
 5660W        W 9404   1.693   1.649  11.111 -0.0729 -0.0859  0.2951
 5661W        W 9405   5.861   9.649   2.913  0.0102 -0.2079  0.0668
 5662W        W 9406   9.178   3.831   2.974 -0.3384  0.2937  0.1177
 5663W        W 9407   1.726   1.828   1.227  0.3515 -0.2830 -0.3668
 5664W        W 9408   8.156   3.880   2.656 -0.2378 -0.0114 -0.0098
 5665W        W 9409   5.192   5.721   2.828  0.1531 -0.3220 -0.2807
 5666W        W 9410   2.114   9.092  11.780  0.3949  0.1518  0.0205
 5667W        W 9411   5.443   3.597  10.310 -0.2523 -0.1711  0.0758
 5668W        W 9412   0.040   8.217  11.437 -0.2523  0.2073  0.0029
 5669W        W 9413   1.181   5.079   4.839 -0.1821  0.0594  0.1180
 5670W        W 9414   9.573   4.629  11.423 -0.2717  0.1743  0.0180
 5671W        W 9415   3.062   4.352  12.337  0.0331 -0.0809 -0.1663
 5672W        W 9416   8.291   7.108  10.566  0.1817  0.0084  0.1638
 5673W        W 9417   1.853   2.690   9.661  0.0621 -0.1476 -0.1332
 5674W        W 9418   1.991   5.706   2.116  0.1185  0.0640 -0.0624
 5675W        W 9419   4.221   5.064  11.498  0.0642  0.2445  0.3192
 5676W        W 9420   4.585   9.729  10.738  0.0838 -0.1052 -0.1432
 5677W        W 9421   1.901   0.149   0.321 -0.0147  0.3301  0.1468
 5678W        W 9422   1.916   8.989   2.765  0.0933  0.3514  0.1438
 5679W        W 9423   4.522   6.734   9.989 -0.2017 -0.2025 -0.1697
 5680W        W 9424   6.992   3.209  10.613  0.0955 -0.0867 -0.2712
 5681W        W 9425   8.745   9.013  11.283 -0.1620 -0.2241  0.3226
 5682W        W 9426   6.950   4.668   0.014 -0.2540 -0.2552  0.1043
 5683W        W 9427   4.462   5.415   2.782  0.0015 -0.0983 -0.0907
 5684W        W 9428   7.777   6.656   1.527 -0.4006 -0.3675  0.1521
 5685W        W 9429   9.859   7.015  12.789  0.0907  0.2365 -0.2485
 5686W        W 9430   6.818   2.718   1.130 -0.0304 -0.2363  0.2271
 5687W        W 9431   7.498   2.273   9.856  0.0951  0.4258  0.4039
 5688W        W 9432   8.155   9.205   3.150 -0.0205  0.0061 -0.0497
 5689W        W 9433   8.346   8.722  12.449 -0.1580  0.1226 -0.1473
 5690W        W 9434   0.288   0.414  11.040  0.3307  0.0510  0.0706
 5691W        W 9435   9.240   5.266   0.598  0.0460  0.0727 -0.1738
 5692W        W 9436   7.884   3.342  12.507  0.1046 -0.0390 -0.1272
 5693W        W 9437   2.028   8.997   3.584  0.1207 -0.2313  0.0493
 5694W        W 9438   6.119   7.778   2.497 -0.2127  0.2025 -0.1598
 5695W        W 9439   3.975   8.103   8.857 -0.0681 -0.2971  0.0050
 5696W        W 9440   1.458   2.540   2.998 -0.0789 -0.3026  0.1661
 5697W        W 9441   3.398   5.215   2.072  0.2490  0.2078 -0.1436
 5698W        W 9442   8.827   0.736  11.056  0.0829 -0.1518  0.5861
 5699W        W 9443   5.543   0.434   0.036 -0.1314 -0.1470 -0.1632
 5700W        W 9444   4.537   1.517  12.033 -0.1784  0.2997  0.1352
 5701W        W 9445   8.772   4.294  12.364  0.0500 -0.2065 -0.0021
 5702W        W 9446   0.864   5.776   9.953  0.1170 -0.1470 -0.0341
 5703W        W 9447   0.373   4.492  12.179 -0.1700 -0.1995  0.0794
 5704W        W 9448   2.496   8.982   4.293 -0.3963  0.0953 -0.0408
 5705W        W 9449   1.119   8.751   3.058  0.1656 -0.1287  0.2873
 5706W        W 9450   2.319   9.345  11.198 -0.0709  0.1637  0.1283
 5707W        W 9451   7.356   6.712   2.758  0.1412  0.2432  0.0940
 5708W        W 9452   1.295   0.046   0.633 -0.3341  0.1170 -0.1508
 5709W        W 9453   3.576   1.421  11.909  0.3393 -0.0566 -0.0094
 5710W        W 9454   2.212   9.793  11.031 -0.1452  0.2255 -0.0254
 5711W        W 9455   2.390   2.947  11.535 -0.2388  0.3512  0.0489
 5712W        W 9456   6.787   8.268   2.180  0.0366 -0.4704  0.2116
 5713W        W 9457   1.669   7.245  12.726  0.0591 -0.3159  0.1357
 5714W        W 9458   1.767   0.851   3.407 -0.2980 -0.2768  0.0463
 5715W        W 9459   8.188   2.645   2.433 -0.1097 -0.0432  0.1693
 5716W        W 9460   4.371   4.102   2.634 -0.4046 -0.0791  0.2476
 5717W        W 9461   7.953   3.281   1.539 -0.0336  0.0599  0.0159
 5718W        W 9462   9.605   1.251   2.997 -0.3320  0.0749 -0.1066
 5719W        W 9463   8.065   6.942   9.259  0.2193  0.0830  0.1931
 5720W        W 9464   4.262   7.664   3.764  0.0847  0.2230  0.2820
 5721W        W 9465   3.085   3.710  12.032  0.3800  0.1483 -0.1150
 5722W        W 9466   2.731   5.028   9.609  0.1657 -0.1093  0.2801
 5723W        W 9467   9.482   2.563  12.738 -0.0695 -0.0088  0.0694
 5724W        W 9468   1.541   0.304  12.337  0.2977 -0.3861 -0.2689
 5725W        W 9469   1.746   1.253  12.483 -0.0363 -0.0894 -0.0949
 5726W        W 9470   9.582   1.509  11.263  0.0193 -0.0896  0.0132
 5727W        W 9471   2.813   2.762   8.029  0.0375 -0.1135 -0.3425
 5728W        W 9472   0.180   1.375   4.188  0.0954 -0.0607  0.0344
 5729W        W 9473   7.114   5.441  11.292 -0.1720 -0.2238 -0.2513
 5730W        W 9474   6.532   4.392   4.540 -0.1470  0.0813 -0.0303
 5731W        W 9475   4.238   8.681   1.279  0.1539 -0.1900 -0.1513
 5732W        W 9476   6.091   5.051   0.890 -0.2216 -0.2039  0.1278
 5733W        W 9477   6.656   5.488   1.050 -0.1418  0.5281 -0.0458
 5734W        W 9478   9.333   8.002   9.334 -0.1785  0.0578 -0.3375
 5735W        W 9479   9.717   7.743  12.287  0.0275  0.0159 -0.0074
 5736W        W 9480   7.215   0.912   0.863  0.1273  0.0273 -0.0867
 5737W        W 9481   3.665   1.662   1.247 -0.0503  0.0665 -0.3672
 5738W        W 9482   1.492   1.283  11.338  0.0274 -0.2035  0.3337
 5739W        W 9483   6.956   7.141  11.618  0.0600  0.0827  0.0817
 5740W        W 9484   3.882   9.683   2.523 -0.2155  0.1300  0.1126
 5741W        W 9485   7.340   0.150   3.436 -0.0384  0.1180  0.0355
 5742W        W 9486   5.014   0.638   1.326  0.0335  0.3301 -0.2501
 5743W        W 9487   2.232   7.817   8.924 -0.1476 -0.0136  0.0483
 5744W        W 9488   8.175   0.245  11.457  0.3043  0.0240 -0.1266
 5745W        W 9489   6.780   0.050   9.719  0.0879  0.5161 -0.0784
 5746W        W 9490   7.899   6.235   1.738  0.0242 -0.0392 -0.0286
 5747W        W 9491   6.798   0.509  11.921 -0.1051 -0.0017 -0.2556
 5748W        W 9492   7.626   9.046   2.510 -0.2808 -0.0304 -0.2863
 5749W        W 9493   9.607   8.716  12.291  0.0834 -0.1789  0.3154
 5750W        W 9494   8.221   8.796   2.867  0.0489 -0.4087 -0.1056
 5751W        W 9495   1.270   4.276   3.221  0.2323 -0.1662  0.0600
 5752W        W 9496   7.754   8.588  12.574  0.3845  0.1885  0.2528
 5753W        W 9497   4.614   5.775   3.359 -0.2054 -0.0696  0.0559
 5754W        W 9498   3.501   6.271   4.436 -0.0201  0.0196 -0.0172
 5755W        W 9499   3.881   6.858   3.888 -0.2662 -0.0469  0.1374
 5756W        W 9500   9.240   1.399  12.068  0.0302  0.2868 -0.4058
 5757W        W 9501   4.380   9.475   8.504 -0.1320  0.1756  0.2556
 5758W        W 9502   8.691   6.096   3.594  0.4632 -0.0933  0.3511
 5759W        W 9503   7.428   8.038  11.178  0.1957  0.1942  0.0693
 5760W        W 9504   8.772   8.834  10.421 -0.1467  0.0558 -0.1906
 5761W        W 9505   6.301   9.398   1.885 -0.2025  0.0535  0.1110
 5762W        W 9506   6.089   2.750   9.120  0.2622 -0.2238 -0.2057
 5763W        W 9507   5.685   7.896   9.862 -0.0355  0.2465 -0.0623
 5764W        W 9508   1.780   7.148   2.897  0.2277 -0.0011  0.2256
 5765W        W 9509   7.779   0.719  11.998 -0.1630 -0.2825 -0.1812
 5766W        W 9510   1.215   4.084  11.206 -0.3178 -0.0203 -0.0849
 5767W        W 9511   3.866   4.467   4.108  0.2235  0.0001  0.5117
 5768W        W 9512   3.443   7.081   4.184 -0.0053 -0.0505  0.0992
 5769W        W 9513   2.814   5.921   2.204 -0.2426  0.0370 -0.4144
 5770W        W 9514   5.940   8.316   3.357  0.4875 -0.1436  0.2654
 5771W        W 9515   2.980   6.433  10.349 -0.0250  0.1672 -0.0255
 5772W        W 9516   8.293   4.894   9.213  0.0547  0.3944 -0.0032
 5773W        W 9517   4.854   5.638  12.512 -0.1174 -0.0650  0.1006
 5774W        W 9518   1.465   3.576   8.673  0.0796 -0.1389 -0.1148
 5775W        W 9519   3.460   8.273  11.273 -0.3316  0.3476  0.0803
 5776W        W 9520   7.398   6.961   3.229  0.0768 -0.1082  0.0568
 5777W        W 9521   0.744   8.921  11.712  0.0062  0.0752  0.0359
 5778W        W 9522   9.623   7.845  11.347 -0.1248 -0.3390 -0.0270
 5779W        W 9523   3.135   7.731   0.128 -0.1577  0.1806  0.0141
 5780W        W 9524   4.225   0.321   3.308 -0.1956 -0.1946  0.1329
 5781W        W 9525   6.094   3.574   2.212  0.1136  0.0128 -0.1236
 5782W        W 9526   4.021   3.282   0.616  0.2049  0.2407 -0.2031
 5783W        W 9527   2.215   0.842   4.200  0.0625 -0.1406  0.4494
 5784W        W 9528   0.492   0.153   0.218  0.1341 -0.3726  0.2586
 5785W        W 9529   8.447   5.805   0.973 -0.0977  0.1860  0.2727
 5786W        W 9530   4.337   8.839  12.091 -0.2062 -0.0718  0.0765
 5787W        W 9531   0.365   0.398   4.090  0.0199  0.2480  0.0278
 5788W        W 9532   9.398   0.924   3.399  0.1658  0.0311 -0.3868
 5789W        W 9533   0.987   7.538   2.600 -0.1746 -0.0972  0.0049
 5790W        W 9534   8.320   2.577  12.225 -0.1368  0.1457  0.0712
 5791W        W 9535   5.197   2.207   2.800 -0.0688 -0.1171  0.0200
 5792W        W 9536   1.109   2.490  10.873 -0.1642  0.0200  0.1094
 5793W        W 9537   9.750   3.292  11.220 -0.1278  0.0237 -0.0056
 5794W        W 9538   2.473   7.257  10.900 -0.3029  0.0058 -0.3269
 5795W        W 9539   4.783   4.021  11.309 -0.1196  0.4086 -0.2041
 5796W        W 9540   9.630   1.166   0.570 -0.0912  0.2791 -0.1407
 5797W        W 9541   7.713   2.079   3.929  0.0125  0.1272 -0.3048
 5798W        W 9542   9.686   7.413  11.550  0.0756  0.0448  0.0993
 5799W        W 9543   1.951   8.839   1.336 -0.0047  0.0229 -0.0608
 5800W        W 9544   2.188   4.319   1.407  0.2227 -0.0160 -0.1383
 5801W        W 9545   5.296   6.030   1.360  0.2705  0.1517 -0.1246
 5802W        W 9546   5.005   0.113   1.591  0.3123 -0.2463 -0.2313
 5803W        W 9547   9.141   2.074   4.069 -0.1981 -0.2744  0.1991
 5804W        W 9548   0.624   0.052  11.317 -0.2218  0.0196  0.2463
 5805W        W 9549   3.290   1.201   9.163  0.1693 -0.1934  0.0093
 5806W        W 9550   8.928   6.466   2.436  0.0314  0.1677 -0.2329
 5807W        W 9551   8.896   6.820   9.854 -0.1782 -0.3433 -0.2217
 5808W        W 9552   2.849   2.692  11.607 -0.2723  0.0975 -0.1022
 5809W        W 9553   8.779   5.552  12.481  0.0698  0.1578  0.0925
 5810W        W 9554   3.300   8.364  10.818 -0.2185 -0.1597  0.2983
 5811W        W 9555   3.385   8.590  12.204  0.1404  0.2584  0.0132
 5812W        W 9556   9.544   5.313   9.352  0.1197 -0.0030  0.0802
 5813W        W 9557   7.682   6.923   0.026 -0.2029 -0.1889  0.0790
 5814W        W 9558   5.013   1.727  10.766 -0.2653 -0.1646  0.1048
 5815W        W 9559   3.112   5.710   3.749  0.0014  0.2861 -0.3421
 5816W        W 9560   8.636   8.593   0.009  0.1509 -0.0324 -0.1888
 5817W        W 9561   1.620   2.417   3.461  0.0283 -0.1135  0.0098
 5818W        W 9562   2.109   6.471  11.307  0.1575  0.0033 -0.1409
 5819W        W 9563   4.162   5.991   0.355  0.0706 -0.2270 -0.0939
 5820W        W 9564   3.176   0.116   1.368 -0.2467  0.1066  0.0268
 5821W        W 9565   9.404   8.327   2.411  0.4077 -0.0063  0.1054
 5822W        W 9566   1.604   6.661  11.569  0.0374  0.1326  0.2443
 5823W        W 9567   9.183   2.466  11.799  0.1775 -0.1576 -0.3546
 5824W        W 9568   1.827   5.116   1.516  0.3705 -0.2769 -0.0997
 5825W        W 9569   3.350   5.719   8.672 -0.0690 -0.1363 -0.2083
 5826W        W 9570   5.776   0.911  12.083 -0.1536 -0.1778  0.1820
 5827W        W 9571   3.889   2.235  12.501 -0.1082  0.1240 -0.0547
 5828W        W 9572   3.853   4.209   0.479 -0.0060  0.0284 -0.2486
 5829W        W 9573   3.410   3.323   9.156  0.0260  0.0182 -0.0372
 5830W        W 9574   9.899   3.459  10.147  0.1725  0.0912 -0.1093
 5831W        W 9575   1.586   8.352  11.329  0.0789 -0.3691 -0.0732
 5832W        W 9576   1.681   6.532   2.017  0.0283  0.0506 -0.1080
 5833W        W 9577   5.675   5.304   0.697 -0.0895  0.2636 -0.0099
 5834W        W 9578   3.548   8.344   2.171 -0.0688 -0.0149 -0.0952
 5835W        W 9579   5.195   3.129   2.805 -0.1783 -0.1693 -0.1943
 5836W        W 9580   2.333   0.253   9.037  0.0111  0.0117  0.0146
 5837W        W 9581   1.774   9.444   2.111  0.4274 -0.0140  0.1375
 5838W        W 9582   9.664   0.697   0.980  0.0234 -0.2312 -0.0081
 5839W        W 9583   2.723   0.204   8.504 -0.0944  0.0093 -0.3083
 5840W        W 9584   7.864   1.586  11.060 -0.1472 -0.0945 -0.0628
 5841W        W 9585   9.751   2.713  12.336  0.0096  0.1401 -0.0612
 5842W        W 9586   3.720   2.216   3.015 -0.1303  0.1363  0.0686
 5843W        W 9587   2.409   4.675   3.188 -0.1212  0.2459  0.1145
 5844W        W 9588   3.184   6.786   1.949  0.2518  0.0014 -0.0761
 5845W        W 9589   3.241   4.399  12.823 -0.0946  0.1861  0.1370
 5846W        W 9590   1.818   9.163  10.909 -0.2925  0.1435 -0.1791
 5847W        W 9591   9.681   3.811   3.046  0.0159 -0.1284  0.0185
 5848W        W 9592   2.666   2.223   8.639  0.1507 -0.3048 -0.1208
 5849W        W 9593   0.547   1.657   3.574  0.1777  0.1981 -0.0390
 5850W        W 9594   6.964   6.264   2.843  0.1608  0.1905  0.1090
 5851W        W 9595   2.769   5.300  11.064 -0.1628 -0.0456  0.1878
 5852W        W 9596   1.291   2.852   3.428  0.3465 -0.0665 -0.2513
 5853W        W 9597   0.506   7.390   2.190 -0.3984 -0.0699  0.0179
 5854W        W 9598   7.021   5.472  10.431 -0.3894 -0.2586  0.0384
 5855W        W 9599   9.486   2.811   1.162  0.3498 -0.3606  0.0714
 5856W        W 9600   2.056   4.974  11.044 -0.1066 -0.1262 -0.1398
 5857W        W 9601   4.934   1.981   8.606  0.1347  0.0310  0.5041
 5858W        W 9602   2.128   7.816   3.698 -0.2024 -0.0171  0.1203
 5859W        W 9603   9.792   6.608  10.493 -0.1810  0.1050 -0.2598
 5860W        W 9604   8.426   3.061   2.945  0.1781  0.0492  0.1591
 5861W        W 9605   3.876   5.761   4.010 -0.0316 -0.0038 -0.1383
 5862W        W 9606   3.036   8.565   0.724  0.1467  0.0841 -0.0582
 5863W        W 9607   5.057   7.395  11.090 -0.2485  0.0134 -0.0987
 5864W        W 9608   1.167   2.838   1.423 -0.3039 -0.0974 -0.0329
 5865W        W 9609   8.030   1.496  10.248  0.0251  0.1055  0.1271
 5866W        W 9610   9.340   7.880  12.583  0.2604  0.1869  0.1067
 5867W        W 9611   7.845   2.323  12.570  0.3818  0.0748  0.2023
 5868W        W 9612   8.044   7.331   4.343 -0.3240  0.0846  0.1605
 5869W        W 9613   9.607   0.761  10.482  0.3454 -0.3832  0.0349
 5870W        W 9614   9.503   3.303   1.353  0.2051 -0.0144  0.3419
 5871W        W 9615   7.407   4.555   9.124 -0.0382  0.2521  0.0052
 5872W        W 9616   6.597   5.787  12.113 -0.0893 -0.0042 -0.0980
 5873W        W 9617   7.048   9.869  11.231  0.1435  0.3187  0.1954
 5874W        W 9618   2.059   8.380  10.309  0.1760 -0.3267 -0.1205
 5875W        W 9619   1.664   8.771  11.669 -0.1367  0.0113 -0.1299
 5876W        W 9620   3.977   3.328  10.599 -0.3666 -0.0010  0.0015
 5877W        W 9621   8.574   0.469   9.392 -0.0259 -0.0723 -0.0020
 5878W        W 9622   2.059   7.735   4.224  0.1807  0.1177  0.1519
 5879W        W 9623   7.064   3.507   9.775  0.2671 -0.0433 -0.0689
 5880W        W 9624   2.651   8.686   2.048  0.1338  0.1176 -0.0841
 5881W        W 9625   0.342   9.029   0.069 -0.1275 -0.0483 -0.2188
 5882W        W 9626   3.707   5.617   8.219  0.1308 -0.2006 -0.1255
 5883W        W 9627   2.807   4.141   1.658 -0.1664 -0.0388 -0.1239
 5884W        W 9628   5.708   4.198   0.264 -0.0568 -0.1295 -0.1237
 5885W        W 9629   8.354   6.807  12.210  0.0601 -0.2301 -0.1037
 5886W        W 9630   0.114   9.510   9.049  0.3208  0.0988 -0.1912
 5887W        W 9631   5.603   1.727   1.995 -0.1949 -0.0360  0.1827
 5888W        W 9632   2.517   6.704  10.090  0.2320  0.3582  0.2209
 5889W        W 9633   4.225   7.993   9.781 -0.0035 -0.0074 -0.2874
 5890W        W 9634   8.866   6.334   9.990 -0.0945  0.1812 -0.0379
 5891W        W 9635   1.108   2.919   0.897  0.0468  0.1211  0.0697
 5892W        W 9636   1.490   3.111   2.471  0.1631  0.0189  0.0505
 5893W        W 9637   4.885   4.510   1.149 -0.0203  0.0418  0.2421
 5894W        W 9638   9.353   8.245   1.349 -0.1067 -0.0961 -0.1363
 5895W        W 9639   3.052   3.517   1.686 -0.1242  0.1025 -0.0926
 5896W        W 9640   3.150   5.881   0.846 -0.2492 -0.1850  0.1379
 5897W        W 9641   5.006   5.781  11.415  0.0248  0.1964  0.0525
 5898W        W 9642   7.893   3.484   8.019 -0.0916  0.2545  0.0813
 5899W        W 9643   5.606   5.233   1.797 -0.0425  0.1262  0.0468
 5900W        W 9644   4.510   3.502  11.182 -0.1794 -0.2717  0.1133
 5901W        W 9645   5.844   9.915   0.073 -0.1455 -0.2289 -0.3594
 5902W        W 9646   2.427   4.213   2.659 -0.1560  0.1534 -0.0839
 5903W        W 9647   4.384   3.392   1.010 -0.2496  0.0087 -0.0563
 5904W        W 9648   1.801   5.707   2.687 -0.0968 -0.1627  0.3411
 5905W        W 9649   1.812   7.505   0.230 -0.1518 -0.0217  0.2040
 5906W        W 9650   7.711   3.972   8.268  0.2294 -0.0593 -0.1139
 5907W        W 9651   2.369   8.691   0.179  0.0387  0.1312 -0.1828
 5908W        W 9652   8.652   2.662  12.628 -0.1153 -0.1275 -0.1945
 5909W        W 9653   4.622   6.588  10.440  0.1574  0.1958  0.2783
 5910W        W 9654   3.795   7.352   3.914  0.0221  0.0457 -0.1724
 5911W        W 9655   7.082   2.522  10.098  0.2156  0.2609  0.3825
 5912W        W 9656   2.696   1.394   1.513 -0.0669  0.0800  0.0130
 5913W        W 9657   5.224   3.250  12.377 -0.1605 -0.5551  0.0509
 5914W        W 9658   1.550   2.848   5.014  0.2477  0.3090 -0.0500
 5915W        W 9659   9.191   6.307  10.957  0.1126  0.3575  0.0765
 5916W        W 9660   7.167   9.167   1.360  0.1563 -0.0387 -0.3455
 5917W        W 9661   3.627   1.442   3.101 -0.0653 -0.2749 -0.0967
 5918W        W 9662   6.696   1.408  11.622  0.0465  0.0997  0.2986
 5919W        W 9663   6.561   8.025  12.145 -0.1597  0.0444  0.0895
 5920W        W 9664   1.331   5.119   4.346  0.1169  0.0692  0.2956
 5921W        W 9665   4.316   5.718   1.863  0.0340  0.3936  0.3111
 5922W        W 9666   4.432   5.055   8.967 -0.0455 -0.1238 -0.1107
 5923W        W 9667   1.598   4.461   3.690 -0.1793 -0.1287 -0.0849
 5924W        W 9668   9.471   5.222   3.251  0.2887 -0.2336 -0.0094
 5925W        W 9669   4.424   7.975   2.349  0.1011  0.1168  0.1316
 5926W        W 9670   3.053   1.693   1.256 -0.3904 -0.0769  0.1771
 5927W        W 9671   9.726   7.960   2.276  0.2252  0.1647 -0.0015
 5928W        W 9672   5.066   3.072  10.020 -0.0394  0.0007 -0.2417
 5929W        W 9673   9.176   7.317   9.824 -0.1204 -0.0048 -0.1589
 5930W        W 9674   9.817   6.261  12.209  0.1272  0.1203 -0.0384
 5931W        W 9675   8.266   0.968   0.689  0.1057  0.1454  0.0755
 5932W        W 9676   4.116   6.204   3.358  0.0384  0.0930  0.0837
 5933W        W 9677   0.185   8.031   4.849  0.0654 -0.0029 -0.3012
 5934W        W 9678   9.222   3.903   9.449  0.0767 -0.1239 -0.2045
 5935W        W 9679   8.809   4.751   4.269 -0.3661 -0.0009 -0.0906
 5936W        W 9680   2.725   8.124  10.461  0.0664  0.0728  0.0746
 5937W        W 9681   4.645   7.695  12.690  0.1045  0.0518 -0.2416
 5938W        W 9682   5.588   3.126   1.704 -0.3217  0.0594  0.3939
 5939W        W 9683   6.331   2.509  10.891 -0.0830  0.3332 -0.1244
 5940W        W 9684   8.627   6.536   2.888  0.1201 -0.1015  0.1720
 5941W        W 9685   6.172   4.478  11.407  0.3220  0.1125  0.2298
 5942W        W 9686   5.699   9.022  10.296  0.0572  0.0075  0.0562
 5943W        W 9687   4.856   1.274   0.161  0.1676 -0.1159 -0.1844
 5944W        W 9688   2.411   0.083  11.954  0.0295 -0.0161  0.3603
 5945W        W 9689   2.306   3.339   4.524  0.2350 -0.2041  0.1787
 5946W        W 9690   0.201   3.139   2.496  0.3381  0.0122 -0.0240
 5947W        W 9691   7.780   7.429   1.829  0.1227 -0.0528  0.1767
 5948W        W 9692   8.117   3.271  10.682 -0.2517 -0.0125 -0.1228
 5949W        W 9693   7.046   4.398   1.513  0.0652 -0.3467 -0.3144
 5950W        W 9694   2.066   1.276   9.021  0.0858 -0.1021 -0.0363
 5951W        W 9695   2.045   2.369   3.740  0.2507  0.0397 -0.0231
 5952W        W 9696   7.124   0.461   1.069 -0.0218 -0.2193  0.0544
 5953W        W 9697   7.413   1.431   3.775  0.1307 -0.0026 -0.0565
 5954W        W 9698   8.568   8.950   3.239  0.2023  0.2954  0.3010
 5955W        W 9699   5.568   5.136   9.946  0.1391  0.2249  0.0726
 5956W        W 9700   8.389   9.484  11.892  0.0470 -0.1353  0.1409
 5957W        W 9701   6.169   7.085  12.211 -0.1424 -0.1776  0.0375
 5958W        W 9702   9.295   9.678  11.977  0.3626  0.1590  0.2619
 5959W        W 9703   2.565   6.574   9.531 -0.0481  0.2316  0.1681
 5960W        W 9704   2.227   6.996   9.216  0.3221  0.2320  0.1256
 5961W        W 9705   2.940   4.226   3.156 -0.2276  0.1915  0.2771
 5962W        W 9706   7.593   9.868   2.794 -0.1189 -0.0553  0.0491
 5963W        W 9707   7.703   3.829   1.473  0.0797  0.1066  0.0967
 5964W        W 9708   6.082   3.318   1.486 -0.0776 -0.1274 -0.1417
 5965W        W 9709   3.810   0.830   8.900 -0.2294 -0.1437 -0.0805
 5966W        W 9710   9.565   4.691  12.084 -0.1305  0.1778 -0.1799
 5967W        W 9711   2.435   1.529   4.977 -0.0500  0.1804 -0.0376
 5968W        W 9712   4.892   6.885  12.778  0.0702  0.2030 -0.2471
 5969W        W 9713   7.417   1.638   8.300 -0.2617 -0.1209 -0.2433
 5970W        W 9714   3.569   7.753   9.924 -0.0466  0.2439  0.1771
 5971W        W 9715   2.068   2.237   1.146  0.2332  0.0879  0.4710
 5972W        W 9716   6.257   6.668  12.458  0.1587  0.2752 -0.0809
 5973W        W 9717   0.744   6.216   1.581 -0.1135 -0.0289 -0.2532
 5974W        W 9718   3.980   3.708  10.291 -0.0747  0.0606 -0.3328
 5975W        W 9719   4.139   4.508   2.497 -0.0892 -0.1998  0.1739
 5976W        W 9720   8.252   5.645   3.798 -0.0649 -0.0072 -0.0821
 5977W        W 9721   9.435   4.209  12.663  0.2667 -0.1359 -0.1983
 5978W        W 9722   1.486   1.492   3.283  0.1657 -0.0372 -0.1276
 5979W        W 9723   9.820   5.451  10.782 -0.3566 -0.0432 -0.0859
 5980W        W 9724   1.521   6.414  12.071  0.1425  0.2645 -0.0179
 5981W        W 9725   2.980   8.385   3.573  0.3547 -0.2275 -0.2987
 5982W        W 9726   4.401   5.762  12.263 -0.0608 -0.1243 -0.0218
 5983W        W 9727   4.984   9.661   8.777 -0.1962  0.1197  0.0105
 5984W        W 9728   0.242   5.102   4.007  0.2411 -0.3212  0.1749
 5985W        W 9729   2.690   5.735  12.532  0.1357  0.0062  0.3535
 5986W        W 9730   7.781   7.479   3.935 -0.2049 -0.0406  0.0450
 5987W        W 9731   2.228   3.197   8.786  0.0415  0.2158 -0.1045
 5988W        W 9732   1.844   3.170   9.839  0.0237 -0.2762 -0.1344
 5989W        W 9733   8.977   8.896   9.602  0.4423 -0.1835  0.0223
 5990W        W 9734   2.809   5.451   0.046  0.0140  0.1679  0.0545
 5991W        W 9735   5.192   1.457   1.845  0.4423  0.0329  0.0212
 5992W        W 9736   7.843   0.502   4.300 -0.2709  0.1924 -0.4256
 5993W        W 9737   9.123   2.717   1.682  0.0179 -0.1395 -0.0456
 5994W        W 9738   8.027   6.295   2.766 -0.0291  0.3410 -0.0734
 5995W        W 9739   3.914   5.020   4.534 -0.2354 -0.1853 -0.2624
 5996W        W 9740   7.379   5.275  12.544 -0.1669  0.3341  0.0969
 5997W        W 9741   0.421   8.860   9.504 -0.4360  0.2177 -0.2471
 5998W        W 9742   6.803   0.229   1.436 -0.1372  0.4156 -0.3161
 5999W        W 9743   6.505   1.252   9.171 -0.2312 -0.0647 -0.1868
 6000W        W 9744   5.378   9.805   9.123 -0.1162 -0.3248  0.0899
 6001W        W 9745   4.698   9.354   2.181  0.1751  0.0257 -0.2551
 6002W        W 9746   1.259   0.084   9.834 -0.2517 -0.0037 -0.1987
 6003W        W 9747   6.658   2.723   9.924  0.2546  0.1943 -0.0658
 6004W        W 9748   9.191   5.600   9.994  0.2822 -0.0339  0.0998
 6005W        W 9749   8.387   9.678  10.008  0.1318 -0.0026  0.0519
 6006W        W 9750   1.150   8.945   9.106 -0.2121 -0.1833 -0.1446
 6007W        W 9751   4.828   8.531   2.697 -0.1905 -0.0131 -0.2512
 6008W        W 9752   9.268   6.974  11.576  0.1838  0.0975 -0.0128
 6009W        W 9753   9.850   7.954   9.327  0.1350  0.0122  0.1694
 6010W        W 9754   3.537   4.310   9.697 -0.1920  0.0008  0.0920
 6011W        W 9755   7.000   8.237  12.004 -0.0853  0.1844  0.0647
 6012W        W 9756   6.284   3.569  10.347  0.3563 -0.0310 -0.2160
 6013W        W 9757   5.683   1.989  12.550  0.1949  0.2560  0.2343
 6014W        W 9758   8.141   8.244  10.528 -0.1386  0.5001  0.2097
 6015W        W 9759   9.484   2.763  11.625 -0.2103  0.1511 -0.2349
 6016W        W 9760   6.538   3.234  11.331 -0.1012  0.3441 -0.3075
 6017W        W 9761   9.567   5.880   3.908 -0.0934  0.0010  0.0592
 6018W        W 9762   6.127   7.967  10.002 -0.0628 -0.0851  0.0470
 6019W        W 9763   0.245   3.706   5.554 -0.2240 -0.0965  0.1913
 6020W        W 9764   5.542   6.663  10.177 -0.1007  0.1515  0.1637
 6021W        W 9765   9.306   6.780  10.779 -0.0714 -0.0700 -0.2265
 6022W        W 9766   1.217   4.135   3.685  0.0461 -0.0036 -0.2161
 6023W        W 9767   0.194   2.459  12.200 -0.2357  0.1282  0.3095
 6024W        W 9768   6.958   4.010  11.524  0.0114 -0.0392  0.0353
 6025W        W 9769   3.284   9.829   2.394 -0.1891 -0.1511  0.3271
 6026W        W 9770   3.895   6.569   4.286  0.1724 -0.1285  0.0829
 6027W        W 9771   9.112   7.301   3.103  0.0531 -0.1319  0.3136
 6028W        W 9772   0.807   6.908   9.066 -0.3172 -0.1687  0.1725
 6029W        W 9773   9.080   1.394  11.000 -0.3512  0.1598  0.2045
 6030W        W 9774   2.132   7.396   9.707 -0.0095  0.0397  0.2826
 6031W        W 9775   2.984   8.123   8.569  0.0482 -0.0024 -0.0327
 6032W        W 9776   7.970   6.201   2.256 -0.1889  0.4660  0.0352
 6033W        W 9777   5.046   8.297  12.078 -0.2368  0.3674  0.0703
 6034W        W 9778   0.795   0.414   3.510  0.0877 -0.1746 -0.0184
 6035W        W 9779   5.135   0.313   3.273 -0.1115 -0.0410  0.2410
 6036W        W 9780   1.545   2.199   0.832  0.0879  0.1036  0.1089
 6037W        W 9781   0.585   9.237   4.358  0.3641 -0.0057 -0.1329
 6038W        W 9782   9.233   4.981   4.085 -0.2896  0.0508 -0.1468
 6039W        W 9783   5.038   7.995  11.047 -0.0453 -0.0731  0.2890
 6040W        W 9784   8.032   0.748   4.679 -0.1160  0.3281  0.2593
 6041W        W 9785   9.707   1.074   3.812  0.2450  0.1861  0.1339
 6042W        W 9786   4.243   4.793   3.488  0.2240  0.0353 -0.0282
 6043W        W 9787   5.175   8.569   2.330 -0.2066 -0.1171  0.0989
 6044W        W 9788   1.302   2.782  11.255 -0.0771 -0.0989  0.1429
 6045W        W 9789   7.922   6.485  11.122  0.0655  0.3630 -0.1084
 6046W        W 9790   6.942   3.006   3.048 -0.0958  0.2190  0.1552
 6047W        W 9791   6.405   3.480   3.410 -0.0535  0.1604  0.1215
 6048W        W 9792   4.628   9.107  11.673 -0.2984  0.3100 -0.1802
 6049W        W 9793   1.580   7.778   0.570 -0.3651 -0.1485  0.0166
 6050W        W 9794   4.578   0.927   2.189  0.3009  0.1684 -0.0456
 6051W        W 9795   0.196   1.082   2.186 -0.2305 -0.1332 -0.0496
 6052W        W 9796   9.168   9.013   2.774 -0.1044  0.0547 -0.0669
 6053W        W 9797   9.764   1.619   9.444 -0.1048 -0.0219 -0.1760
 6054W        W 9798   0.912   5.668  12.737 -0.0217  0.3989 -0.0005
 6055W        W 9799   8.663   3.702   2.615  0.0467 -0.2077  0.1335
 6056W        W 9800   3.113   1.950  10.414 -0.3099  0.1081 -0.1087
 6057W        W 9801   3.320   3.017  12.875 -0.1227 -0.1359  0.1417
 6058W        W 9802   0.615   1.694  10.074  0.1099 -0.0908  0.0346
 6059W        W 9803   2.856   0.991  10.471 -0.3445 -0.0279 -0.1594
 6060W        W 9804   1.604   0.752  12.696  0.1153 -0.0085  0.0623
 6061W        W 9805   0.542   7.211  11.536 -0.1841 -0.3352 -0.1445
 6062W        W 9806   1.354   9.789   3.829  0.1875 -0.1097  0.5304
 6063W        W 9807   0.416   1.446   0.096 -0.0113 -0.0565  0.2537
 6064W        W 9808   2.743   3.999   8.385  0.0045  0.0441 -0.0943
 6065W        W 9809   1.137   7.483  12.734 -0.0380 -0.0486 -0.1805
 6066W        W 9810   1.906   6.784   0.805  0.0486 -0.1161 -0.2491
 6067W        W 9811   0.757   1.869  11.030  0.1359  0.2011 -0.1958
 6068W        W 9812   1.165   3.334   1.565 -0.1048 -0.1088  0.0313
 6069W        W 9813   2.068   8.290   9.177  0.1928  0.2114 -0.1892
 6070W        W 9814   1.351   7.587  11.850  0.2591  0.1767  0.0971
 6071W        W 9815   8.395   1.779   1.377  0.3057  0.2806  0.0088
 6072W        W 9816   1.291   3.644   3.889 -0.0187  0.0570 -0.0915
 6073W        W 9817   7.560   9.657   3.657  0.4390 -0.0932  0.0578
 6074W        W 9818   2.443   3.216   4.026  0.3648 -0.1209  0.0398
 6075W        W 9819   8.918   7.284   1.943 -0.0779  0.0432 -0.0546
 6076W        W 9820   0.350   8.492   1.319  0.0253  0.0810  0.1840
 6077W        W 9821   7.358   1.524  11.007 -0.0556  0.2308 -0.0767
 6078W        W 9822   6.921   4.286   4.304  0.0720 -0.0649  0.1466
 6079W        W 9823   2.067   3.041   2.556 -0.2323  0.0700 -0.2030
 6080W        W 9824   7.742   7.151   2.885 -0.5432  0.0568  0.4523
 6081W        W 9825   9.736   0.326   2.810  0.1202  0.2510 -0.0443
 6082W        W 9826   5.593   1.899  12.045 -0.3275 -0.1233 -0.0202
 6083W        W 9827   7.594   7.566  11.065 -0.4433 -0.2573 -0.3902
 6084W        W 9828   1.135   1.673   0.771 -0.2904  0.2753  0.0584
 6085W        W 9829   6.339   5.280   2.030 -0.2056  0.0759 -0.1267
 6086W        W 9830   8.273   5.653   3.173  0.4496  0.3177 -0.0234
 6087W        W 9831   0.198   6.683  11.728 -0.4908 -0.0594 -0.2446
 6088W        W 9832   5.531   3.304   0.472 -0.0314  0.1677 -0.2803
 6089W        W 9833   0.991   7.387   4.834  0.1886  0.0124  0.1813
 6090W        W 9834   1.426   9.762   3.355 -0.4080 -0.0741 -0.1148
 6091W        W 9835   2.731   7.499   9.871 -0.1864 -0.1859  0.0375
 6092W        W 9836   2.354   4.385   4.776  0.3207  0.1113  0.0855
 6093W        W 9837   6.239   1.605  11.333 -0.0678 -0.0147 -0.2993
 6094W        W 9838   2.891   0.371  10.752 -0.0611  0.1262 -0.2421
 6095W        W 9839   8.539   6.978   2.044  0.2739 -0.2921  0.0618
 6096W        W 9840   7.467   0.458  10.722  0.0615  0.1140 -0.1216
 6097W        W 9841   1.200   4.640   0.457 -0.0972  0.0040 -0.2349
 6098W        W 9842   5.747   2.126   1.784  0.0824  0.1098  0.0465
 6099W        W 9843   0.185   3.051  12.086  0.0108  0.0046 -0.2342
 6100W        W 9844   2.111   3.834   3.386 -0.0788 -0.1718 -0.1197
 6101W        W 9845   4.640   0.120   2.709  0.0563  0.0770  0.0734
 6102W        W 9846   5.058   5.156   4.013  0.1694 -0.1121 -0.1092
 6103W        W 9847   8.283   0.992  11.902  0.0845 -0.0734  0.0899
 6104W        W 9848   7.189   2.315   0.449  0.0610 -0.0609  0.1614
 6105W        W 9849   2.516   5.129   2.298 -0.3736  0.5047  0.0014
 6106W        W 9850   1.728   0.332   0.723  0.0289  0.0156 -0.0993
 6107W        W 9851   5.052   7.703   2.529 -0.2805  0.2079 -0.1084
 6108W        W 9852   8.804   3.628   1.307 -0.3490  0.0943  0.0102
 6109W        W 9853   1.319   8.579   1.346  0.2139 -0.2552  0.1917
 6110W        W 9854   4.579   5.347   0.899  0.0565 -0.1853  0.0559
 6111W        W 9855   7.205   0.442   0.547  0.3016 -0.3133  0.0640
 6112W        W 9856   6.328   5.549   1.473 -0.0719  0.0771 -0.0399
 6113W        W 9857   3.423   5.969   1.753  0.1805 -0.1229  0.1875
 6114W        W 9858   7.211   7.304  11.197 -0.2282 -0.0173  0.0182
 6115W        W 9859   0.313   6.300  10.399  0.0394 -0.4524  0.0561
 6116W        W 9860   1.553   3.808   2.906 -0.3167 -0.2964 -0.2878
 6117W        W 9861   4.211   3.395   3.728  0.0604 -0.2563 -0.1383
 6118W        W 9862   7.163   1.949   3.812 -0.0006  0.1750  0.0405
 6119W        W 9863   5.888   2.998   0.730  0.1933 -0.1886  0.1172
 6120W        W 9864   1.971   5.674  10.871  0.0719 -0.0058  0.0255
 6121W        W 9865   8.364   5.258  11.572 -0.2579  0.0650  0.0062
 6122W        W 9866   0.952   9.691   3.471  0.0299 -0.1189 -0.0609
 6123W        W 9867   8.136   2.869   8.837 -0.1148  0.1094 -0.2741
 6124W        W 9868   6.687   0.007   8.444 -0.1122 -0.0678 -0.1395
 6125W        W 9869   2.953   5.838   1.666  0.3245  0.1482  0.1980
 6126W        W 9870   9.469   0.276   0.618  0.1078 -0.2620  0.0223
 6127W        W 9871   5.452   9.894   1.540  0.0169  0.0046 -0.2102
 6128W        W 9872   1.414   7.409   2.389  0.0695  0.1649 -0.0532
 6129W        W 9873   4.317   2.048   0.586 -0.2304  0.0776 -0.1060
 6130W        W 9874   3.033   1.614   8.820  0.3786  0.1475  0.0895
 6131W        W 9875   2.054   1.495  11.464 -0.1758 -0.0592  0.3257
 6132W        W 9876   6.731   5.318   0.437  0.0048  0.0550  0.1821
 6133W        W 9877   8.211   7.107   9.733  0.2432  0.1051  0.0915
 6134W        W 9878   2.659   9.481   4.277 -0.1716  0.0736  0.0417
 6135W        W 9879   8.153   0.608   2.823  0.1457  0.1109 -0.1637
 6136W        W 9880   8.885   9.780  11.008 -0.0353 -0.1686  0.1116
 6137W        W 9881   9.522   2.428   2.095 -0.0255 -0.1218  0.2752
 6138W        W 9882   0.361   7.848   1.858 -0.0703  0.0767 -0.2791
 6139W        W 9883   7.472   4.507  11.040 -0.2313  0.1399 -0.1174
 6140W        W 9884   0.532   2.509  11.546 -0.0591 -0.2013  0.0759
 6141W        W 9885   1.507   7.747   1.492 -0.0420  0.1319  0.0915
 6142W        W 9886   0.871   4.983   4.230  0.1015  0.1994 -0.0228
 6143W        W 9887   0.323   6.488   2.645  0.0123  0.2393  0.0929
 6144W        W 9888   5.312   6.257  10.132 -0.1852 -0.0212  0.3009
 6145W        W 9889   6.549   5.009  12.867 -0.5378 -0.0291 -0.0114
 6146W        W 9890   3.091   9.660   1.084 -0.1098  0.2354 -0.1866
 6147W        W 9891   0.535   6.150  10.910  0.2089  0.1634  0.2489
 6148W        W 9892   9.341   8.532   2.855 -0.0073 -0.0351  0.0386
 6149W        W 9893   6.015   9.819   9.882 -0.0376 -0.1324 -0.2881
 6150W        W 9894   2.091   6.654   9.568  0.1570  0.0294  0.0115
 6151W        W 9895   4.641   1.925  12.878 -0.1292  0.0393 -0.0071
 6152W        W 9896   0.104   4.466  11.317 -0.6547  0.0551 -0.0819
 6153W        W 9897   6.585   7.011  12.572  0.1952  0.2352 -0.0262
 6154W        W 9898   3.463   8.250   9.272  0.3240 -0.2601 -0.0795
 6155W        W 9899   5.237   4.188   0.082  0.1487  0.2115 -0.1070
 6156W        W 9900   7.439   8.431   3.179 -0.1822  0.0806  0.2188
 6157W        W 9901   1.750   5.563  10.432 -0.2090  0.0715  0.2085
 6158W        W 9902   1.738   0.205   9.762  0.1459  0.3515  0.2255
 6159W        W 9903   0.942   1.406  10.359  0.1379 -0.0094  0.0414
 6160W        W 9904   0.283   6.279   9.868  0.1772 -0.0398 -0.0763
 6161W        W 9905   0.110   4.923  12.176  0.1557  0.0927 -0.1543
 6162W        W 9906   4.371   4.444  12.609 -0.1437 -0.0122 -0.0212
 6163W        W 9907   6.563   2.084   9.360  0.1416 -0.2476  0.1238
 6164W        W 9908   7.897   5.197  11.370  0.0481 -0.0223 -0.0827
 6165W        W 9909   6.547   8.100   9.468  0.2586 -0.3143 -0.2708
 6166W        W 9910   0.840   4.146   8.368 -0.3705 -0.0528  0.2735
 6167W        W 9911   1.847   6.483   3.641  0.0607  0.0174 -0.0102
 6168W        W 9912   0.289   7.994   2.326  0.0278 -0.0368 -0.4562
 6169W        W 9913   9.152   7.060   0.837 -0.1402  0.0789 -0.0508
 6170W        W 9914   4.736   1.345   2.957  0.1361  0.1932  0.0078
 6171W        W 9915   5.651   4.645  12.091  0.1542  0.2089  0.1352
 6172W        W 9916   7.564   6.294  11.860  0.2167 -0.1830 -0.1754
 6173W        W 9917   1.013   5.054   1.015  0.1226 -0.1239 -0.0424
 6174W        W 9918   6.290   2.852   1.136  0.2939 -0.2604 -0.2316
 6175W        W 9919   3.168   1.974  10.929 -0.0076 -0.1140  0.3160
 6176W        W 9920   5.186   6.198   1.900 -0.3203 -0.2509  0.0706
 6177W        W 9921   0.086   2.265   1.544  0.1369  0.0612 -0.0043
 6178W        W 9922   0.003   5.095   1.124 -0.1124  0.4088  0.2212
 6179W        W 9923   2.820   8.022   9.639 -0.5323 -0.2025  0.0764
 6180W        W 9924   8.250   5.722  10.785 -0.1244 -0.1692  0.1793
 6181W        W 9925   9.157   0.323  11.089 -0.1485 -0.0990  0.1552
 6182W        W 9926   5.338   3.865   1.600  0.0289  0.0296  0.1404
 6183W        W 9927   3.148   3.661  10.013  0.1041  0.2847  0.1508
 6184W        W 9928   6.046   5.037   1.676 -0.1994  0.0538 -0.2884
 6185W        W 9929   0.003   8.521   4.953 -0.1162 -0.0850  0.2210
 6186W        W 9930   0.104   5.555   0.973  0.1930  0.1705 -0.0100
 6187W        W 9931   4.346   2.332  12.614  0.0053 -0.2722 -0.0595
 6188W        W 9932   5.937   2.428  10.158  0.0267 -0.0849 -0.2138
 6189W        W 9933   8.681   1.274  11.774  0.0998 -0.2650  0.1711
 6190W        W 9934   2.811   2.788  10.109 -0.3547 -0.1266  0.3421
 6191W        W 9935   7.246   8.660   1.231 -0.1137 -0.3484  0.2403
 6192W        W 9936   6.933   5.371   3.999 -0.0554 -0.1111 -0.4926
 6193W        W 9937   0.227   4.915   3.048  0.0226  0.0969  0.3659
 6194W        W 9938   2.107   5.625   0.809  0.6237 -0.1147 -0.0308
 6195W        W 9939   9.279   5.064  11.509  0.1996  0.2475  0.1488
 6196W        W 9940   2.257   0.673   9.258  0.0240 -0.4865  0.0499
 6197W        W 9941   4.074   3.787   0.707 -0.0183 -0.1927 -0.1374
 6198W        W 9942   3.133   0.518   1.664 -0.3568 -0.0241  0.0869
 6199W        W 9943   7.537   3.087   0.644  0.0908  0.0444 -0.0732
 6200W        W 9944   8.346   2.536  10.327  0.1816  0.2272  0.3091
 6201W        W 9945   4.404   2.597   9.495 -0.0861 -0.1137 -0.1639
 6202W        W 9946   6.901   7.403  10.691  0.0090  0.0515  0.1361
 6203W        W 9947   6.885   0.321   0.117 -0.1131  0.0553 -0.3397
 6204W        W 9948   1.930   3.072   4.756 -0.0519  0.1229 -0.0311
 6205W        W 9949   5.982   9.283   1.349  0.0661 -0.3394 -0.1469
 6206W        W 9950   4.825   9.578   3.679 -0.1445 -0.2274  0.4158
 6207W        W 9951   7.121   9.126  10.654 -0.0976 -0.2290  0.2682
 6208W        W 9952   2.906   2.321   0.533 -0.1237 -0.0425  0.0309
 6209W        W 9953   1.632   8.309   8.816 -0.1621  0.1980 -0.1057
 6210W        W 9954   3.325   5.413   0.266  0.1648  0.0304 -0.0224
 6211W        W 9955   8.681   7.664  11.121 -0.2053 -0.1014  0.0196
 6212W        W 9956   4.020   4.094   9.146 -0.4676  0.1000 -0.1371
 6213W        W 9957   0.581   5.934   4.048  0.0619 -0.0920  0.0775
 6214W        W 9958   5.221   0.574  10.456 -0.0595 -0.3050 -0.0728
 6215W        W 9959   8.044   3.190   3.233 -0.1516  0.1050 -0.2401
 6216W        W 9960   1.711   3.906  11.912 -0.2493 -0.3505 -0.0679
 6217W        W 9961   5.712   2.855   2.447  0.1850 -0.0330  0.0481
 6218W        W 9962   7.175   9.663   9.896 -0.0265 -0.0003 -0.2116
 6219W        W 9963   3.463   5.384   3.733  0.1392  0.2594  0.1532
 6220W        W 9964   3.649   4.115   1.348  0.1072  0.0222  0.3999
 6221W        W 9965   5.357   5.613  11.676  0.1459  0.0123  0.0426
 6222W        W 9966   4.179   2.017   0.101  0.0612  0.0427 -0.0843
 6223W        W 9967   5.104   5.655   3.374 -0.2673  0.0530 -0.1769
 6224W        W 9968   4.195   7.224   2.760  0.0342 -0.0317  0.2711
 6225W        W 9969   2.353   0.241   0.177 -0.0241  0.1521 -0.1346
 6226W        W 9970   8.353   9.849   9.126 -0.1150 -0.0353  0.0794
 6227W        W 9971   5.578   1.184   3.748 -0.1081 -0.0104  0.1302
 6228W        W 9972   6.182   5.535  11.757  0.0279 -0.2106 -0.2184
 6229W        W 9973   0.822   2.278  11.236  0.1127  0.1395  0.1210
 6230W        W 9974   2.634   4.443  12.041 -0.0041  0.2720  0.2221
 6231W        W 9975   6.037   0.953   4.695 -0.2322 -0.1931  0.2574
 6232W        W 9976   2.524   8.157   1.540 -0.3769  0.2322  0.0531
 6233W        W 9977   3.225   7.355  12.634 -0.1443 -0.1243  0.0733
 6234W        W 9978   1.767   6.589   3.016 -0.1832 -0.2634  0.0122
 6235W        W 9979   2.231   6.831   8.727 -0.0541 -0.5296  0.0084
 6236W        W 9980   7.599   4.772   4.007 -0.1131  0.2143 -0.0078
 6237W        W 9981   5.191   4.730  11.952  0.3318  0.3708 -0.2413
 6238W        W 9982   6.260   9.726  11.460 -0.0909 -0.2043  0.1929
 6239W        W 9983   9.613   8.453   9.320 -0.2876 -0.1569 -0.3204
 6240W        W 9984   0.791   3.900  12.510 -0.2805 -0.2234  0.0034
 6241W        W 9985   5.972   2.517   0.964  0.1170 -0.2692  0.0179
 6242W        W 9986   2.318   7.720   0.063  0.0817  0.2465 -0.0387
 6243W        W 9987   0.028   2.747   1.786 -0.1495  0.2392  0.1922
 6244W        W 9988   2.209   0.758   9.858  0.1361 -0.0943  0.2742
 6245W        W 9989   1.526   4.886   0.814 -0.2745  0.1719 -0.3824
 6246W        W 9990   7.597   2.312   0.127 -0.0332 -0.1328  0.3394
 6247W        W 9991   0.519   5.429   9.980  0.1387  0.0961  0.1117
 6248W        W 9992   6.132   4.672   0.029  0.3352  0.0301  0.1466
 6249W        W 9993   7.872   0.697   1.785  0.3677 -0.0668  0.1766
 6250W        W 9994   0.728   8.632   9.101  0.0470 -0.0708 -0.1416
 6251W        W 9995   7.491   4.289  11.552  0.0553 -0.3603 -0.1529
 6252W        W 9996   4.566   8.021   3.602  0.1501  0.1520 -0.1905
 6253W        W 9997   8.434   3.810   1.023 -0.0529 -0.3352  0.0967
 6254W        W 9998   5.461   3.496   3.673  0.0761 -0.1018 -0.2905
 6255W        W 9999   4.928   2.678  11.138  0.0569 -0.0205  0.1629
 6256W        W10000   8.431   7.293  12.020  0.0613 -0.2871  0.1562
 6257W        W10001   3.772   1.063   9.391 -0.0465  0.0236  0.1146
 6258W        W10002   8.612   8.029   1.821 -0.0383 -0.0124 -0.0766
 6259W        W10003   0.692   0.170  10.722  0.0525 -0.2982 -0.0860
 6260W        W10004   1.350   3.315   2.968 -0.1698 -0.1131  0.0667
 6261W        W10005   3.070   0.528   0.423  0.0021  0.0321  0.0725
 6262W        W10006   2.177   0.147   2.796 -0.0364 -0.2552  0.2969
 6263W        W10007   1.087   4.797  10.089  0.0810 -0.1835 -0.4691
 6264W        W10008   4.140   1.320  12.565  0.0912  0.0662 -0.2376
 6265W        W10009   4.631   4.747   3.195  0.0743  0.2218  0.1544
 6266W        W10010   1.615   6.478   1.414  0.2277  0.4746  0.0035
 6267W        W10011   4.482   6.983   0.369  0.1692 -0.3286 -0.3090
 6268W        W10012   1.056   4.076   2.093 -0.0676 -0.0931 -0.1484
 6269W        W10013   7.717   6.972   4.216 -0.0289 -0.1391  0.0455
 6270W        W10014   9.351   9.288   4.053  0.1772 -0.0695  0.2091
 6271W        W10015   6.526   2.344   2.587 -0.2336  0.0476 -0.3541
 6272W        W10016   3.269   2.542   4.220  0.1735  0.1593  0.3783
 6273W        W10017   2.114   4.011   8.443  0.0675  0.3111  0.1743
 6274W        W10018   9.594   5.632   0.018  0.0639  0.1612 -0.3253
 6275W        W10019   0.155   2.245   9.733  0.0066  0.2935 -0.0774
 6276W        W10020   8.260   0.570  12.378 -0.0598  0.0337  0.2211
 6277W        W10021   4.165   5.444   9.046  0.0123  0.2884  0.1032
 6278W        W10022   3.254   7.146   1.613 -0.1287 -0.0270 -0.1501
 6279W        W10023   5.239   3.389   9.465  0.2410 -0.0027 -0.0918
 6280W        W10024   3.492   0.132  10.679 -0.1180 -0.2667  0.1651
 6281W        W10025   2.683   3.845   3.396  0.0714 -0.0193  0.1161
 6282W        W10026   4.324   5.907   9.045  0.2498 -0.0496  0.2729
 6283W        W10027   9.554   7.541   9.609 -0.0664 -0.2501  0.0949
 6284W        W10028   0.338   8.767   2.512  0.1173  0.1294 -0.1280
 6285W        W10029   2.374   8.873   1.668 -0.1550 -0.1935 -0.0036
 6286W        W10030   5.595   2.373   3.340 -0.1909  0.0205 -0.2256
 6287W        W10031   7.612   7.188   2.315  0.1250  0.0174 -0.2607
 6288W        W10032   8.070   9.213   9.046 -0.1116  0.1194  0.2152
 6289W        W10033   4.280   6.784  10.846 -0.1711  0.2058 -0.1397
 6290W        W10034   8.900   9.298   3.165 -0.3003  0.1506 -0.1479
 6291W        W10035   4.233   6.257  10.694  0.1168  0.0589 -0.0791
 6292W        W10036   8.681   4.419  11.352 -0.0138  0.0516 -0.0185
 6293W        W10037   5.467   0.312   4.166  0.0255  0.0544  0.1214
 6294W        W10038   8.685   7.340  10.694 -0.1839  0.2271  0.1107
 6295W        W10039   5.767   8.478  12.832 -0.0221  0.0325  0.0962
 6296W        W10040   7.106   9.303  11.208 -0.0075  0.0266  0.0150
 6297W        W10041   8.066   9.280  10.018  0.1329  0.1216 -0.2908
 6298W        W10042   3.287   0.026   2.898  0.1558  0.0239  0.0783
 6299W        W10043   9.667   2.173   5.286 -0.1562 -0.1818 -0.3605
 6300W        W10044   5.796   8.335  11.815 -0.0739 -0.0767  0.2820
 6301W        W10045   0.594   8.004  11.496 -0.0287  0.2160 -0.4385
 6302W        W10046   1.493   7.286   3.298  0.0352  0.1520  0.0080
 6303W        W10047   2.417   1.533  12.222 -0.4004 -0.0457  0.3044
 6304W        W10048   6.295   3.798   1.718  0.0250  0.0726  0.2134
 6305W        W10049   4.395   4.415  11.600  0.0324  0.1371  0.2957
 6306W        W10050   8.920   2.716   0.983  0.1486 -0.1145  0.0167
 6307W        W10051   3.332   1.280  12.717 -0.0073  0.0287 -0.0758
 6308W        W10052   6.356   3.438   1.075 -0.1782  0.0695  0.2420
 6309W        W10053   8.242   1.095  10.517  0.2322 -0.1737 -0.1627
 6310W        W10054   2.336   9.181   0.299 -0.3084 -0.1830  0.2325
 6311W        W10055   4.554   9.850   1.825 -0.1871  0.0447  0.1412
 6312W        W10056   7.694   2.545   2.315  0.3724 -0.2264  0.0702
 6313W        W10057   9.661   0.738   2.300 -0.2129 -0.2008 -0.0673
 6314W        W10058   5.672   2.554   0.513  0.0046  0.0262  0.4388
 6315W        W10059   6.235   2.269  12.594  0.0274  0.0312  0.1968
 6316W        W10060   5.420   1.331   1.167 -0.0096 -0.0488  0.1211
 6317W        W10061   3.372   0.166  12.586  0.3278 -0.3287  0.3238
 6318W        W10062   0.490   8.108  12.673  0.2268  0.0627 -0.0831
 6319W        W10063   6.177   3.029  11.000 -0.1137  0.0436 -0.0551
 6320W        W10064   8.257   2.761  10.719 -0.1575  0.0014 -0.2129
 6321W        W10065   1.971   5.612   1.571  0.0351 -0.0417  0.0582
 6322W        W10066   3.220   5.649   8.260 -0.1925 -0.0891  0.2705
 6323W        W10067   0.401   1.465  10.544 -0.3415 -0.3576  0.2894
 6324W        W10068   4.382   6.256   2.414  0.2064 -0.1518 -0.0368
 6325W        W10069   6.628   4.926   3.293  0.1409  0.2298  0.1088
 6326W        W10070   9.855   1.652  10.672 -0.1154 -0.0668  0.0826
 6327W        W10071   5.229   5.365   2.124 -0.1517 -0.1790 -0.2077
 6328W        W10072   3.747   6.213   1.028 -0.0098  0.2057 -0.0613
 6329W        W10073   2.554   4.515  11.152  0.0487 -0.0744 -0.1635
 6330W        W10074   6.245   4.282   9.422  0.2768  0.4538  0.5314
 6331W        W10075   7.202   5.056   2.054 -0.1150 -0.0765  0.2168
 6332W        W10076   8.130   2.552   3.849 -0.2593 -0.0829  0.3371
 6333W        W10077   9.429   3.391   2.977  0.1498  0.0773  0.1182
 6334W        W10078   3.342   3.436   9.606 -0.3080  0.0552 -0.0245
 6335W        W10079   2.043   4.860  11.553  0.1136  0.2023  0.1219
 6336W        W10080   0.070   1.531   3.198 -0.2611 -0.0534  0.0435
 6337W        W10081   3.187   6.850  10.650  0.0062  0.1734  0.2102
 6338W        W10082   3.835   2.424   1.010  0.2818  0.0432  0.1537
 6339W        W10083   2.821   5.500  10.499 -0.1748 -0.2986  0.2171
 6340W        W10084   7.616   0.175   3.894 -0.0498 -0.0313  0.0963
 6341W        W10085   4.717   6.029   4.188  0.2361 -0.2307 -0.0480
 6342W        W10086   5.494   4.626   9.114  0.3133  0.1963  0.1484
 6343W        W10087   9.560   3.700   8.235 -0.1386 -0.2391 -0.3924
 6344W        W10088   5.279   5.711  10.836 -0.0398 -0.0931 -0.0681
 6345W        W10089   5.330   7.186   1.949 -0.2382 -0.1084 -0.0937
 6346W        W10090   3.453   4.748   3.402  0.1790  0.0384 -0.1119
 6347W        W10091   1.679   5.879   1.218  0.1059 -0.0009 -0.1537
 6348W        W10092   9.527   3.838  10.816 -0.1291  0.0096  0.3357
 6349W        W10093   2.656   3.764  10.166 -0.1326  0.0352 -0.0462
 6350W        W10094   7.830   4.329   1.671 -0.0655  0.0860  0.0452
 6351W        W10095   5.118   2.909   9.111  0.0222  0.0986  0.0324
 6352W        W10096   4.965   9.887   9.977 -0.0531  0.0240 -0.0669
 6353W        W10097   3.820   7.502   5.365 -0.0953  0.3362 -0.1084
 6354W        W10098   2.653   0.085   1.100  0.0646 -0.1382 -0.2351
 6355W        W10099   5.004   4.249   1.551 -0.0050 -0.0870  0.1305
 6356W        W10100   4.019   4.879  12.665 -0.0853 -0.0142 -0.1834
 6357W        W10101   3.274   4.694   2.368  0.0397  0.4996  0.0022
 6358W        W10102   9.536   3.770   9.120  0.0673  0.2280  0.0202
 6359W        W10103   3.115   9.348   3.044 -0.0714 -0.2481  0.4376
 6360W        W10104   8.384   8.465   1.255 -0.2526 -0.0093 -0.0135
 6361W        W10105   2.076   6.037  10.352 -0.1050  0.3287  0.3152
 6362W        W10106   7.101   0.497  11.080  0.2927 -0.0262 -0.0601
 6363W        W10107   1.302   4.470   1.065  0.0046  0.1651 -0.1065
 6364W        W10108   8.395   8.981   4.098 -0.2763 -0.3223 -0.0969
 6365W        W10109   5.108   3.736   0.274  0.4666 -0.0175  0.0412
 6366W        W10110   6.409   2.637   8.716  0.1507  0.0345  0.0218
 6367W        W10111   4.594   9.566   2.838  0.1001  0.0142  0.2291
 6368W        W10112   7.324   3.897   3.727 -0.1361 -0.3852 -0.1259
 6369W        W10113   6.340   4.580  10.325 -0.0245 -0.1807  0.1381
 6370W        W10114   9.354   7.916   4.057 -0.2147  0.0856  0.3585
 6371W        W10115   1.203   5.060   2.991 -0.0626 -0.2152 -0.5268
 6372W        W10116   0.047   3.417   9.636  0.3846  0.0369 -0.2037
 6373W        W10117   7.976   2.907  10.354  0.2874  0.0042 -0.3127
 6374W        W10118   1.206   3.853  12.141 -0.0357 -0.1641  0.1982
 6375W        W10119   8.587   8.207  12.505  0.0379 -0.1073 -0.0431
 6376W        W10120   7.746   4.411  10.261 -0.0288 -0.3029 -0.2303
 6377W        W10121   1.847   2.145   2.212 -0.1042 -0.0977 -0.2684
 6378W        W10122   5.917   4.699   1.181 -0.0970  0.0161 -0.1273
 6379W        W10123   7.326   5.860  11.137 -0.1672  0.3841 -0.0483
 6380W        W10124   0.209   3.951   2.871  0.2881 -0.3004 -0.0251
 6381W        W10125   9.228   9.361   3.536  0.1010  0.2943  0.1298
 6382W        W10126   4.532   9.305  11.164 -0.0301  0.1697  0.1588
 6383W        W10127   4.589   5.276  10.971  0.0068  0.3058  0.0616
 6384W        W10128   3.902   1.511   9.774  0.0859  0.3455  0.4473
 6385W        W10129   9.510   9.479   0.157  0.1393  0.1884  0.4375
 6386W        W10130   8.427   1.753  12.218  0.0862 -0.0421  0.2540
 6387W        W10131   9.664   7.178   4.421 -0.3457  0.2112  0.2176
 6388W        W10132   3.269   1.528  12.294 -0.1196  0.2962 -0.2005
 6389W        W10133   6.158   3.649   0.137 -0.1591  0.0293 -0.0909
 6390W        W10134   2.670   3.654  12.770  0.1951 -0.0934  0.1466
 6391W        W10135   7.074   2.013   9.995  0.4702 -0.0446  0.0390
 6392W        W10136   9.260   2.005   0.841 -0.0907 -0.1002 -0.3317
 6393W        W10137   0.836   8.441   1.201  0.0220  0.0249  0.0562
 6394W        W10138   9.041   0.570   4.115  0.0757  0.1377  0.0897
 6395W        W10139   9.672   1.644   2.675 -0.2064  0.0039  0.0508
 6396W        W10140   3.438   6.682  12.477  0.2556  0.0891 -0.0473
 6397W        W10141   5.626   6.059  11.870  0.0701 -0.0523  0.2085
 6398W        W10142   3.465   4.772  10.128 -0.1526 -0.0374 -0.2624
 6399W        W10143   1.666   9.650  10.661 -0.0852 -0.2367  0.1378
 6400W        W10144   1.715   4.242  10.815 -0.1106  0.1353  0.3496
 6401W        W10145   7.703   2.972   3.604 -0.2163 -0.0454 -0.1045
 6402W        W10146   7.780   4.695  11.438  0.1303  0.1296 -0.2333
 6403W        W10147   4.294   2.315   1.096  0.1290 -0.0078  0.0205
 6404W        W10148   4.152   9.296  11.597 -0.0149  0.1736  0.1666
 6405W        W10149   6.562   5.283  12.058  0.1702 -0.2668 -0.2299
 6406W        W10150   8.783   8.070   4.295 -0.1003 -0.2482  0.3649
 6407W        W10151   3.192   2.948  10.475 -0.0588  0.3705  0.1578
 6408W        W10152   1.996   9.617   9.612  0.1296  0.0066  0.1815
 6409W        W10153   8.427   8.991   2.149 -0.2770 -0.0924 -0.1764
 6410W        W10154   4.672   1.796   3.195  0.1514  0.0850 -0.0174
 6411W        W10155   5.864   2.191   9.704 -0.0788  0.2663 -0.4850
 6412W        W10156   2.247   8.444   3.469 -0.0064 -0.0946 -0.0481
 6413W        W10157   4.332   6.883   4.434 -0.1328  0.0448  0.1161
 6414W        W10158   0.619   2.184   0.364  0.0790  0.4235 -0.3224
 6415W        W10159   7.615   5.083  12.021 -0.0157  0.1804  0.4297
 6416W        W10160   6.343   5.810   2.409 -0.1570 -0.1531 -0.1339
 6417W        W10161   0.078   9.899   4.385  0.0315  0.0512  0.3376
 6418W        W10162   3.386   2.197  10.006  0.1672  0.0738  0.3218
 6419W        W10163   7.124   1.805  10.620  0.0419  0.1645 -0.1556
 6420W        W10164   2.709   5.798   9.602 -0.0753  0.2587 -0.0141
 6421W        W10165   2.176   0.291  10.098  0.2513 -0.2477 -0.1449
 6422W        W10166   3.638   2.383  12.087 -0.3656  0.1499  0.1626
 6423W        W10167   6.661   8.527   1.757 -0.0691  0.2133 -0.0872
 6424W        W10168   9.296   9.739   3.140  0.1684  0.1112 -0.0342
 6425W        W10169   1.464   6.254   3.299 -0.3667  0.3060 -0.1131
 6426W        W10170   5.754   1.382   0.749 -0.1892 -0.0054  0.4214
 6427W        W10171   4.456   7.173  12.743 -0.0248 -0.0572  0.0514
 6428W        W10172   9.492   2.393   4.206 -0.0147  0.0205 -0.1071
 6429W        W10173   3.622   5.290   2.502 -0.0064  0.0609  0.0542
 6430W        W10174   4.846   1.354   9.591 -0.0227 -0.1377 -0.1240
 6431W        W10175   5.839   8.546  12.333 -0.0584 -0.1643 -0.0697
 6432W        W10176   8.760   1.740  10.827 -0.3343  0.2317  0.2000
 6433W        W10177   3.113   8.073  12.443  0.0614  0.1941  0.3543
 6434W        W10178   5.612   4.412   3.506  0.0026 -0.0054 -0.1724
 6435W        W10179   5.885   2.936   9.630  0.2089 -0.0387 -0.2278
 6436W        W10180   3.178   3.145  10.006 -0.2415 -0.0923  0.0716
 6437W        W10181   0.950   5.778   4.264  0.1471  0.1026  0.2503
 6438W        W10182   7.701   0.401   1.305 -0.0378  0.0371  0.1099
 6439W        W10183   8.030   0.560   3.843  0.0704 -0.2967  0.0223
 6440W        W10184   3.216   6.236   2.136 -0.1523  0.0294 -0.1848
 6441W        W10185   1.360   6.116   4.267  0.4223  0.0209  0.0036
 6442W        W10186   6.751   8.891  10.455 -0.2146  0.1834 -0.1523
 6443W        W10187   0.517   9.307   0.487 -0.2219 -0.1418  0.1301
 6444W        W10188   1.577   4.659   3.104  0.2687 -0.1117 -0.1539
 6445W        W10189   8.306   2.124   4.062  0.1281 -0.0774 -0.0932
 6446W        W10190   9.280   5.546   1.526 -0.1224  0.0185 -0.0823
 6447W        W10191   6.248   1.407   0.839 -0.3428 -0.0387  0.1423
 6448W        W10192   6.648   5.383   3.007 -0.1576 -0.0416 -0.0056
 6449W        W10193   1.015   1.373   2.397 -0.0748 -0.2119  0.0538
 6450W        W10194   9.599   9.353   9.733  0.1237 -0.3336 -0.0446
 6451W        W10195   1.524   2.732   0.713 -0.2919 -0.1405 -0.2252
 6452W        W10196   8.788   9.683   3.604  0.0260  0.2594  0.6670
 6453W        W10197   6.875   0.864   1.224 -0.3727 -0.0641 -0.0017
 6454W        W10198   8.535   1.663   8.572  0.0755 -0.1773 -0.0428
 6455W        W10199   3.453   2.660   2.213  0.1883  0.0424  0.1529
 6456W        W10200   1.711   0.578   2.121  0.1329 -0.1423 -0.2236
 6457W        W10201   3.037   1.313  11.850 -0.2436  0.1194  0.0096
 6458W        W10202   6.826   1.826   9.019 -0.2458  0.4201 -0.2347
 6459W        W10203   9.647   7.564  10.844 -0.0083 -0.0725  0.0786
 6460W        W10204   4.396   8.334   2.796 -0.1468  0.0730  0.1046
 6461W        W10205   3.558   6.777  11.116  0.0610 -0.2439 -0.0007
 6462W        W10206   4.583   8.567   0.078 -0.0073 -0.5196 -0.0794
 6463W        W10207   9.728   2.346  11.954  0.3759  0.0615 -0.4252
 6464W        W10208   0.547   9.033  12.457 -0.1204 -0.0867  0.1046
 6465W        W10209   1.366   0.304   1.813  0.2685  0.2065  0.4783
 6466W        W10210   7.355   4.758   0.767 -0.2559 -0.2753 -0.3483
 6467W        W10211   7.633   2.914   8.734 -0.1871 -0.2437 -0.0693
 6468W        W10212   2.420   3.574   8.585 -0.0512 -0.0068 -0.0295
 6469W        W10213   0.706   7.613   1.669 -0.4114 -0.0920  0.2007
 6470W        W10214   1.326   7.778  10.077  0.0518  0.0495  0.1620
 6471W        W10215   3.720   3.899  12.005 -0.1497  0.0588 -0.2984
 6472W        W10216   9.780   4.334   1.724  0.1842 -0.2277 -0.1101
 6473W        W10217   5.265   3.444   1.334  0.0045 -0.0583 -0.2305
 6474W        W10218   5.264   6.150   0.502 -0.1508 -0.1558 -0.0622
 6475W        W10219   7.756   8.011  10.835  0.2349  0.2518 -0.1357
 6476W        W10220   2.532   1.713   1.145 -0.2453  0.0830  0.1595
 6477W        W10221   9.812   2.638   0.860 -0.2556  0.0551 -0.3340
 6478W        W10222   7.837   9.112   2.029 -0.3135 -0.0384 -0.3539
 6479W        W10223   2.089   6.944  10.472  0.2150 -0.3068  0.3416
 6480W        W10224   6.317   9.628   0.098 -0.2259  0.0693 -0.0031
 6481W        W10225   1.901   1.708   1.850  0.2435  0.4314 -0.1953
 6482W        W10226   6.005   8.306   1.074 -0.0142 -0.2563  0.0332
 6483W        W10227   9.311   6.208  12.123 -0.1642 -0.2204  0.0602
 6484W        W10228   0.637   8.947   9.951 -0.1060 -0.1108 -0.1422
 6485W        W10229   2.456   1.449   2.572  0.0000 -0.3328  0.2010
 6486W        W10230   3.467   2.962   4.383 -0.3096 -0.2963 -0.1503
 6487W        W10231   5.652   1.015   3.171 -0.5065  0.4663  0.0382
 6488W        W10232   2.866   9.735   4.644 -0.0302 -0.1667 -0.0423
 6489W        W10233   8.102   0.159  10.797 -0.0681 -0.0208 -0.1799
 6490W        W10234   5.217   9.199  11.944  0.2227 -0.0194  0.3096
 6491W        W10235   9.720   3.351   0.118  0.1205 -0.1762  0.2184
 6492W        W10236   7.360   9.924   2.219  0.1214 -0.2344  0.0649
 6493W        W10237   6.584   5.906   2.893 -0.3532  0.2486 -0.2044
 6494W        W10238   6.913   7.694  11.805  0.0300  0.1153 -0.1730
 6495W        W10239   0.304   3.597   1.870  0.1314  0.0814 -0.0059
 6496W        W10240   7.285   5.116   8.898 -0.2028 -0.1572  0.2287
 6497W        W10241   4.496   5.011   1.500  0.2457 -0.0553 -0.2514
 6498W        W10242   4.335   2.127  10.853 -0.1162  0.0513 -0.3111
 6499W        W10243   4.886   5.407   2.497 -0.0207  0.1793 -0.2751
 6500W        W10244   2.310   3.396  10.339  0.1525  0.0079  0.0127
 6501W        W10245   9.489   8.018   3.119  0.0050 -0.0617  0.1105
 6502W        W10246   2.259   3.333  11.147 -0.0547 -0.1713 -0.2497
 6503W        W10247   3.916   2.852   9.555 -0.0041 -0.1885 -0.2765
 6504W        W10248   8.958   7.436   1.173 -0.2884  0.0697  0.0993
 6505W        W10249   0.290   4.029   1.681  0.1338 -0.1219  0.0314
 6506W        W10250   3.671   7.652   2.005 -0.0310  0.2416 -0.0950
 6507W        W10251   1.256   5.275  11.214 -0.0498 -0.1633 -0.1921
 6508W        W10252   0.307   0.368   9.942  0.1082 -0.1214 -0.1907
 6509W        W10253   4.681   2.236   0.850 -0.2003  0.1688 -0.1091
 6510W        W10254   7.522   3.246   9.501 -0.1065 -0.0219  0.2083
 6511W        W10255   9.261   3.368  10.935 -0.0220  0.3598  0.2969
 6512W        W10256   3.454   0.482   4.055  0.0187  0.0648 -0.1576
 6513W        W10257   8.610   0.066   1.666  0.0286 -0.3317 -0.3145
 6514W        W10258   8.846   6.308  11.870 -0.0999  0.1583  0.0394
 6515W        W10259   8.982   8.776   1.909 -0.0001 -0.3553  0.1647
 6516W        W10260   5.503   5.673   0.329 -0.0608 -0.1467  0.0734
 6517W        W10261   2.238   0.071  12.599 -0.0130  0.0005  0.0465
 6518W        W10262   6.729   4.304   9.237 -0.3288  0.1350 -0.2555
 6519W        W10263   6.758   3.822  11.935 -0.0441 -0.0350 -0.1124
 6520W        W10264   2.806   9.241   1.273 -0.0698 -0.1128 -0.0132
 6521W        W10265   1.755   3.070   3.402 -0.1392 -0.0894 -0.3512
 6522W        W10266   7.084   3.681  12.834  0.2403 -0.0972 -0.4889
 6523W        W10267   3.315   9.511  11.778 -0.4910 -0.1714  0.0505
 6524W        W10268   6.032   5.640   2.762  0.0521  0.1840 -0.2469
 6525W        W10269   2.838   3.802   1.212 -0.2135 -0.0991 -0.2357
 6526W        W10270   4.266   4.411   3.817  0.1781 -0.0201 -0.2150
 6527W        W10271   1.490   6.053   2.812 -0.0732  0.0813 -0.1098
 6528W        W10272   2.022   8.682  12.570  0.0670 -0.0251  0.1109
 6529W        W10273   7.599   6.041   0.003 -0.2975 -0.4237  0.1056
 6530W        W10274   9.831   4.486   3.702 -0.1044 -0.2982 -0.2822
 6531W        W10275   6.845   0.084   1.897 -0.1695 -0.0457 -0.1872
 6532W        W10276   7.066   0.673   4.434 -0.4939 -0.0121  0.1335
 6533W        W10277   3.936   4.705  11.294 -0.2722  0.1876 -0.1109
 6534W        W10278   0.315   1.975  10.715  0.0251  0.1224 -0.4437
 6535W        W10279   1.897   9.407   3.050  0.1434  0.0232  0.2428
 6536W        W10280   3.358   5.669  10.634  0.3035  0.2183  0.4387
 6537W        W10281   1.699   1.711  12.229  0.0418 -0.2503  0.2226
 6538W        W10282   9.794   2.136  12.463 -0.0244  0.0971 -0.3175
 6539W        W10283   8.111   1.424   1.101 -0.0444  0.1461  0.1686
 6540W        W10284   9.328   7.587  10.345 -0.0494  0.0999 -0.0619
 6541W        W10285   9.539   5.985  12.558  0.1468  0.0226  0.0546
 6542W        W10286   9.841   3.900   0.798  0.0132  0.0962 -0.1361
 6543W        W10287   3.942   0.394   9.024  0.1922 -0.2140 -0.4050
 6544W        W10288   7.753   5.382   1.291 -0.0640  0.0283 -0.2686
 6545W        W10289   3.020   5.076  10.138  0.0351  0.1340  0.0467
 6546W        W10290   3.393   6.817  11.816  0.0723  0.2192 -0.0168
 6547W        W10291   0.262   4.456   1.997 -0.2941 -0.1059 -0.0055
 6548W        W10292   6.867   1.976  11.824  0.0309  0.0219 -0.1170
 6549W        W10293   8.448   0.483   0.807 -0.0526 -0.0675  0.1077
 6550W        W10294   1.726   2.150  12.466 -0.4457 -0.0174 -0.0089
 6551W        W10295   3.368   3.998   2.987 -0.0806 -0.2223 -0.1468
 6552W        W10296   5.849   8.680  10.646  0.1772  0.1081  0.1926
 6553W        W10297   1.682   3.978   3.858  0.1303 -0.0843  0.0153
 6554W        W10298   1.977   3.638  10.771 -0.2907 -0.1644  0.1168
 6555W        W10299   6.398   7.564  12.377  0.5711 -0.0482 -0.2372
 6556W        W10300   0.350   5.783   9.621  0.1558  0.0846  0.1876
 6557W        W10301   3.670   0.187   2.593 -0.1932 -0.0512  0.2056
 6558W        W10302   3.443   7.981  10.407 -0.4561  0.2670 -0.4804
 6559W        W10303   3.763   9.141   9.228  0.0763  0.0776 -0.0494
 6560W        W10304   3.058   4.714  11.918 -0.1546 -0.0583 -0.1177
 6561W        W10305   5.037   5.872  10.316  0.0275  0.1405  0.1138
 6562W        W10306   0.712   1.723  12.641 -0.0744  0.0345 -0.2160
 6563W        W10307   6.955   5.146   9.760 -0.0940 -0.1434  0.1274
 6564W        W10308   9.507   3.189   2.435 -0.2622 -0.1764  0.1507
 6565W        W10309   8.333   1.785   2.958  0.1349  0.0191  0.0837
 6566W        W10310   8.397   6.599   9.865  0.1017  0.1457 -0.2197
 6567W        W10311   4.901   9.512  10.347  0.1355 -0.1548  0.0786
 6568W        W10312   9.330   6.187   0.606 -0.0301 -0.0298  0.0961
 6569W        W10313   8.427   3.730   0.376 -0.1179  0.1346  0.4575
 6570W        W10314   1.517   0.215  10.304  0.3461  0.0968 -0.2901
 6571W        W10315   6.660   4.191  11.141  0.2223 -0.0054  0.0526
 6572W        W10316   0.380   3.118   1.138 -0.3916 -0.0491  0.3965
 6573W        W10317   9.825   1.825   4.266 -0.0218 -0.0498 -0.0635
 6574W        W10318   1.430   1.216  12.873  0.0820 -0.1497 -0.0882
 6575W        W10319   6.195   0.211   3.544  0.1224 -0.1528 -0.2846
 6576W        W10320   2.437   9.247   4.779 -0.1575 -0.0308 -0.0532
 6577W        W10321   9.724   4.512   2.289  0.0551 -0.0088  0.2271
 6578W        W10322   5.184   6.480   3.863  0.1825  0.3129  0.3514
 6579W        W10323   3.827   8.813   3.553 -0.0172  0.0661 -0.1144
 6580W        W10324   2.149   3.160   1.354 -0.1458  0.1015 -0.2586
 6581W        W10325   5.186   3.924   2.065  0.3276  0.1974 -0.1374
 6582W        W10326   4.249   2.795  10.343 -0.1761  0.0223 -0.1843
 6583W        W10327   8.538   3.935   1.697 -0.0402  0.0368 -0.1598
 6584W        W10328   8.928   6.858  12.795  0.1006  0.0994 -0.0909
 6585W        W10329   3.769   8.837   1.512  0.0154  0.1508  0.0281
 6586W        W10330   8.909   6.918   8.703 -0.2981 -0.2744 -0.2932
 6587W        W10331   0.560   5.744   0.769  0.1876  0.3199  0.0481
 6588W        W10332   5.220   7.731   2.008 -0.0061  0.2257 -0.1130
 6589W        W10333   2.574   2.532  12.123  0.1818  0.3438  0.0351
 6590W        W10334   5.803   0.394   0.854 -0.1268  0.2559 -0.1871
 6591W        W10335   3.079   7.900  10.755  0.1206 -0.0099 -0.0113
 6592W        W10336   6.961   2.845  11.428  0.0019  0.0615  0.0751
 6593W        W10337   0.268   7.135   1.851 -0.2442 -0.1171  0.2103
 6594W        W10338   0.646   8.952   0.991 -0.0716  0.2396  0.2727
 6595W        W10339   7.355   3.683   9.393 -0.1878 -0.1647 -0.1611
 6596W        W10340   2.318   5.552  10.257  0.0681 -0.3386  0.3202
 6597W        W10341   6.189   7.488  11.911  0.2468  0.4017  0.1671
 6598W        W10342   4.751   4.348   0.058  0.1116 -0.3738  0.0995
 6599W        W10343   7.851   4.338   9.339 -0.1950 -0.0611  0.2361
 6600W        W10344   3.776   7.072  11.447  0.1125 -0.0331  0.2755
 6601W        W10345   7.988   8.593  10.836 -0.1092 -0.0533  0.0696
 6602W        W10346   9.808   6.174  10.155 -0.1800 -0.3485 -0.0200
 6603W        W10347   3.535   8.613   9.606  0.1687 -0.1378 -0.2757
 6604W        W10348   2.716   2.001   4.515 -0.0512  0.0389  0.0410
 6605W        W10349   7.203   7.274   1.969  0.0446 -0.4644  0.0836
 6606W        W10350   4.511   0.737   1.101  0.0457  0.1652  0.2050
 6607W        W10351   8.916   0.104  10.504 -0.3975 -0.1348 -0.1366
 6608W        W10352   6.940   5.783   3.693 -0.0202 -0.2822  0.0351
 6609W        W10353   7.391   7.968   0.234  0.2279 -0.0132  0.2788
 6610W        W10354   4.786   2.502  12.570 -0.0349 -0.0236 -0.1770
 6611W        W10355   0.839   6.306   0.505 -0.1453  0.0248  0.0293
 6612W        W10356   3.370   5.501  11.151 -0.0051  0.1509  0.0544
 6613W        W10357   4.685   1.980  12.225 -0.2621 -0.2762 -0.0664
 6614W        W10358   3.170   0.192   0.784 -0.0439  0.3794 -0.0327
 6615W        W10359   0.408   8.391   2.796 -0.0687 -0.2215 -0.5454
 6616W        W10360   9.719   2.387  11.129 -0.1634 -0.1754  0.0768
 6617W        W10361   1.610   3.974   9.574  0.2864  0.1020  0.0541
 6618W        W10362   7.655   3.914  10.301  0.2704 -0.3073 -0.1464
 6619W        W10363   0.289   1.674   8.972  0.0468 -0.1751  0.1651
 6620W        W10364   6.705   3.918   9.527  0.3871  0.0605 -0.0347
 6621W        W10365   4.354   7.773  10.319  0.1107 -0.2361 -0.1116
 6622W        W10366   4.922   5.185  12.752 -0.2883 -0.1064 -0.0175
 6623W        W10367   5.588   0.424  12.202  0.1472  0.1316  0.1842
 6624W        W10368   7.844   4.454   0.857  0.1264 -0.2045  0.2002
 6625W        W10369   6.706   6.167   0.496  0.4051 -0.1821  0.0719
 6626W        W10370   5.465   0.881  12.628  0.1794 -0.2458 -0.2881
 6627W        W10371   0.535   1.315   9.181 -0.0584 -0.2170 -0.0483
 6628W        W10372   9.906   4.833   2.646  0.0998  0.0967 -0.0527
 6629W        W10373   2.906   8.536  12.644 -0.2108  0.3042  0.1357
 6630W        W10374   0.709   4.316   1.729 -0.2491 -0.5141 -0.1218
 6631W        W10375   3.216   7.370   9.746 -0.1326  0.0182  0.0923
 6632W        W10376   9.806   7.252  12.308 -0.1953  0.0706  0.0594
 6633W        W10377   5.785   0.546   8.776 -0.0948  0.1223  0.2265
 6634W        W10378   4.330   4.674  10.897  0.3244  0.0880  0.3987
 6635W        W10379   4.164   4.848   4.012  0.1512  0.0573 -0.2509
 6636W        W10380   3.629   8.574   4.016  0.0215  0.1467 -0.1069
 6637W        W10381   9.047   9.425   9.587 -0.1290 -0.0025  0.4008
 6638W        W10382   7.233   4.113  11.176 -0.2085 -0.0555 -0.1970
 6639W        W10383   9.495   6.635   0.144  0.2236  0.0786  0.0506
 6640W        W10384   8.541   1.313   4.182 -0.1975  0.1001 -0.0714
 6641W        W10385   2.435   2.641   5.393  0.2015 -0.1425 -0.3963
 6642W        W10386   8.895   3.681   2.011 -0.3393  0.0312 -0.0196
 6643W        W10387   8.615   0.710  10.616  0.1959 -0.1685  0.0275
 6644W        W10388   2.800   3.147  11.336 -0.0274 -0.0636 -0.3665
 6645W        W10389   5.364   9.061   3.300  0.0521  0.1174 -0.0108
 6646W        W10390   4.422   8.305   0.961 -0.1282 -0.0673  0.0856
 6647W        W10391   1.122   9.848   4.258 -0.2452 -0.2060 -0.2392
 6648W        W10392   8.583   3.373   3.918 -0.0205  0.1958  0.0819
 6649W        W10393   8.005   9.803   0.048  0.1074 -0.3004 -0.0125
 6650W        W10394   9.438   0.992   8.245  0.0902 -0.0721 -0.1551
 6651W        W10395   7.660   4.068   3.377  0.0891  0.2084 -0.1230
 6652W        W10396   2.557   5.084  10.265  0.1238 -0.4595 -0.0087
 6653W        W10397   1.836   9.487   4.829 -0.1598  0.1737 -0.3166
 6654W        W10398   6.861   0.449   2.882 -0.0458  0.5072 -0.2102
 6655W        W10399   0.300   3.387  10.563 -0.0198  0.2167  0.1101
 6656W        W10400   4.171   6.542   4.712 -0.0764 -0.0625  0.1349
 6657W        W10401   4.863   4.044   2.465 -0.2613 -0.2610 -0.2307
 6658W        W10402   1.443   4.604  11.498  0.3483 -0.0342 -0.2307
 6659W        W10403   2.019   1.013   8.592 -0.0898  0.0340  0.0138
 6660W        W10404   2.741   4.975   8.347  0.0256  0.2303  0.1413
 6661W        W10405   6.449   3.833   4.559 -0.0103  0.0559 -0.1616
 6662W        W10406   8.385   8.480   3.296  0.4709  0.1171  0.3312
 6663W        W10407   0.037   0.337   0.903 -0.1161 -0.3062 -0.2504
 6664W        W10408   3.567   6.720   2.356  0.0631 -0.0625  0.0090
 6665W        W10409   1.300   0.957  12.311  0.0950  0.0575 -0.0576
 6666W        W10410   3.465   1.019   8.621 -0.1146  0.0665 -0.1471
 6667W        W10411   4.833   3.171   1.028  0.1215 -0.2106 -0.1231
 6668W        W10412   6.432   1.369   9.622  0.4017 -0.0998  0.3914
 6669W        W10413   8.974   2.119  10.561  0.2437 -0.0942 -0.2711
 6670W        W10414   6.162   9.190   3.642  0.0092  0.0803  0.2806
 6671W        W10415   5.982   1.378   0.327  0.2504  0.0396 -0.1394
 6672W        W10416   3.826   1.409   1.605  0.1154 -0.0023  0.1171
 6673W        W10417   9.782   5.419   8.864 -0.2700  0.2830  0.1367
 6674W        W10418   7.131   1.446   9.788  0.0258  0.0165  0.0848
 6675W        W10419   3.625   4.912   3.961 -0.2515  0.0068 -0.0413
 6676W        W10420   6.964   3.354  12.189  0.0098 -0.2445 -0.1200
 6677W        W10421   4.197   2.796   3.325 -0.0517  0.1129 -0.0161
 6678W        W10422   1.685   4.081   3.329  0.1609 -0.0679 -0.2306
 6679W        W10423   1.847   9.461   0.336  0.0837  0.1012  0.1704
 6680W        W10424   1.474   7.646   4.257  0.0935 -0.2555 -0.1787
 6681W        W10425   6.760   5.921  10.347 -0.0570  0.0259  0.0103
 6682W        W10426   4.864   9.909  11.763 -0.0083  0.2326 -0.1044
 6683W        W10427   7.883   7.365  11.454 -0.4380  0.0350 -0.3192
 6684W        W10428   1.532   1.588   8.624  0.1129 -0.0296 -0.4953
 6685W        W10429   2.872   2.805   3.763  0.0007 -0.0740  0.3136
 6686W        W10430   8.165   9.776   9.563 -0.3284  0.1632 -0.0497
 6687W        W10431   0.512   1.374   1.508 -0.0252 -0.0693  0.0912
 6688W        W10432   7.789   0.679   8.841  0.1258  0.0084 -0.0151
 6689W        W10433   1.222   3.284   9.056  0.1958  0.1103  0.1376
 6690W        W10434   4.120   8.661   0.701 -0.2725  0.4477 -0.0240
 6691W        W10435   5.713   4.409  11.074 -0.1429 -0.0848 -0.0116
 6692W        W10436   4.713   6.163  12.356  0.1169 -0.1454 -0.3479
 6693W        W10437   8.304   1.545   8.094  0.1682  0.1807 -0.0791
 6694W        W10438   2.593   9.301  10.130  0.0407  0.1942  0.0912
 6695W        W10439   2.493   2.507   0.205  0.0767 -0.2567  0.0201
 6696W        W10440   3.546   3.545   3.032 -0.4937 -0.0189 -0.1796
 6697W        W10441   9.295   2.159   0.389  0.0443  0.3613 -0.0252
 6698W        W10442   9.501   5.148   0.168 -0.1631 -0.2437 -0.2435
 6699W        W10443   9.704   6.107   0.214 -0.0861  0.0627  0.2060
 6700W        W10444   9.313   6.096  10.440 -0.1163  0.1966 -0.3442
 6701W        W10445   5.631   0.690   3.907  0.0798  0.0025  0.1549
 6702W        W10446   9.619   6.738  12.230  0.4109  0.0378 -0.2573
 6703W        W10447   3.034   0.338   3.194  0.4677  0.1047  0.0447
 6704W        W10448   3.071   4.351   4.242  0.1320  0.2423 -0.2471
 6705W        W10449   1.336   0.813   9.142 -0.1532  0.2040  0.0176
 6706W        W10450   5.801   3.471   3.216 -0.1829  0.2423  0.0483
 6707W        W10451   8.369   4.557   1.807 -0.0465 -0.4377  0.0188
 6708W        W10452   2.407   4.270   8.126  0.0615 -0.0893  0.0523
 6709W        W10453   2.904   2.687   0.970  0.0516  0.1529  0.2253
 6710W        W10454   6.877   1.966   2.707 -0.3036 -0.1938  0.0007
 6711W        W10455   8.277   5.746   2.217 -0.1792 -0.0314  0.3644
 6712W        W10456   9.594   5.271   4.251 -0.0160 -0.1025  0.0376
 6713W        W10457   2.140   4.748   2.308 -0.2194  0.0802 -0.0475
 6714W        W10458   2.500   4.571   4.058 -0.3367 -0.4326  0.0026
 6715W        W10459   2.964   2.993   1.783  0.0109 -0.2406 -0.4342
 6716W        W10460   9.643   7.170   9.210  0.2222 -0.1182 -0.2430
 6717W        W10461   3.252   4.699  10.753  0.0387  0.0710 -0.2935
 6718W        W10462   8.585   3.478  10.069  0.0907  0.0826 -0.0214
 6719W        W10463   4.774   3.665   1.235 -0.2413  0.1121 -0.2617
 6720W        W10464   9.374   1.940   9.067  0.2087 -0.0307  0.1543
 6721W        W10465   9.317   9.167   0.538  0.1744  0.0290  0.3509
 6722W        W10466   4.052   0.660  11.668  0.3083 -0.0980  0.2107
 6723W        W10467   0.156   5.875  10.663  0.1064  0.1259 -0.0141
 6724W        W10468   6.450   3.854   2.536 -0.0875  0.2570  0.1432
 6725W        W10469   3.312   4.130   4.630 -0.2954  0.0562 -0.0022
 6726W        W10470   7.381   2.462  11.199 -0.0066 -0.1987 -0.0605
 6727W        W10471   8.682   2.869   2.044  0.2370  0.0241 -0.1053
 6728W        W10472   2.448   9.043  10.688 -0.0858  0.1366  0.0234
 6729W        W10473   6.691   7.151   3.203  0.1400  0.0294 -0.1688
 6730W        W10474   6.052   1.914   2.686 -0.0487  0.3672 -0.1732
 6731W        W10475   4.408   9.762   2.380  0.0888 -0.2260 -0.1551
 6732W        W10476   9.489   4.609  10.195  0.0877  0.0310 -0.3525
 6733W        W10477   7.273   5.730  12.704  0.0589  0.1899  0.1018
 6734W        W10478   5.408   7.686  12.490 -0.1243 -0.0818  0.1395
 6735W        W10479   8.004   7.089  10.982  0.0429 -0.0424 -0.0389
 6736W        W10480   7.650   4.862   1.213 -0.3442  0.1430 -0.1611
 6737W        W10481   8.738   8.985   0.539  0.2035  0.2267 -0.1805
 6738W        W10482   4.794   1.006   8.675 -0.4934 -0.0245 -0.1773
 6739W        W10483   4.924   1.257  12.170 -0.1740  0.0506  0.1604
 6740W        W10484   3.764   6.680   0.932 -0.0411  0.2206  0.2034
 6741W        W10485   0.753   0.776   3.205 -0.2653 -0.1134 -0.0934
 6742W        W10486   0.803   8.809   4.576 -0.0194 -0.0293 -0.1227
 6743W        W10487   2.453   3.808  10.621 -0.0652  0.1171 -0.0273
 6744W        W10488   2.367   1.143   4.638  0.1123 -0.1661 -0.0766
 6745W        W10489   2.847   3.237   3.545  0.0354  0.0395  0.1843
 6746W        W10490   6.570   6.622  10.984  0.0854 -0.2062 -0.0237
 6747W        W10491   8.902   4.851   2.604  0.0194 -0.3945 -0.0475
 6748W        W10492   8.375   6.482   3.735  0.0918  0.0172  0.0160
 6749W        W10493   2.965   7.389   0.552  0.1407 -0.0640  0.0290
 6750W        W10494   2.661   1.209   3.270 -0.0253  0.0921 -0.2370
 6751W        W10495   7.492   5.645  12.083 -0.2230 -0.0242  0.1060
 6752W        W10496   8.345   9.620   1.336 -0.0966 -0.3580 -0.1444
 6753W        W10497   5.369   0.458   1.640  0.1313 -0.1777  0.1169
 6754W        W10498   8.194   3.028   3.704 -0.0647  0.1211  0.1243
 6755W        W10499   1.956   4.568   4.547  0.0369  0.3173 -0.1181
 6756W        W10500   4.262   3.130  12.212 -0.0676  0.0259  0.0823
 6757W        W10501   5.377   4.947   8.155 -0.2050  0.3716 -0.2835
 6758W        W10502   7.994   9.566   2.776  0.0190  0.2720 -0.0429
 6759W        W10503   5.814   3.360   8.895  0.3103  0.2081 -0.0807
 6760W        W10504   3.390   3.431  11.322  0.1029  0.4252 -0.0164
 6761W        W10505   7.644   4.966  10.778 -0.5062  0.0099  0.0035
 6762W        W10506   1.716   7.643   2.061  0.1721  0.1893  0.0942
 6763W        W10507   7.432   4.628  12.249  0.2181 -0.0563  0.0298
 6764W        W10508   7.267   1.832   2.971  0.1865  0.5286 -0.1984
 6765W        W10509   6.555   1.017  11.915 -0.0334 -0.0526 -0.0531
 6766W        W10510   6.913   4.970  12.476 -0.1842  0.4614 -0.0539
 6767W        W10511   5.755   0.346   1.426  0.1182 -0.0876  0.3593
 6768W        W10512   4.614   5.631   0.081 -0.0184  0.3457  0.2451
 6769W        W10513   5.470   7.063   0.899 -0.1190 -0.2089  0.1117
 6770W        W10514   0.802   3.234   3.146  0.3348  0.0060  0.1064
 6771W        W10515   5.067   9.045   2.375  0.1021  0.1809 -0.0132
 6772W        W10516   5.893   9.888  11.891 -0.4516 -0.0910  0.1686
 6773W        W10517   0.568   8.043   1.380 -0.2434  0.1964  0.1025
 6774W        W10518   3.549   0.609   9.813 -0.1658  0.0758  0.0553
 6775W        W10519   0.646   5.155   4.885  0.2374  0.0375  0.0694
 6776W        W10520   2.496   5.275   1.758 -0.0463  0.0265 -0.2421
 6777W        W10521   7.598   3.570   9.856 -0.2714  0.2879  0.2957
 6778W        W10522   1.081   2.238  11.910 -0.2790  0.1344  0.3309
 6779W        W10523   6.401   0.775  10.841  0.0282 -0.0545  0.1218
 6780W        W10524   1.905   3.054  12.833 -0.0165 -0.0927 -0.1022
 6781W        W10525   3.656   3.175   2.305  0.0045  0.2197  0.2504
 6782W        W10526   7.160   8.312   1.841  0.1086 -0.0801  0.1977
 6783W        W10527   7.737   1.186  10.732  0.0092  0.3407 -0.1986
 6784W        W10528   2.806   7.489   2.862  0.3006 -0.2110 -0.3971
 6785W        W10529   8.477   8.883   9.778  0.2463 -0.1654  0.4332
 6786W        W10530   7.356   5.125  10.379 -0.4268 -0.1457 -0.1020
 6787W        W10531   2.403   7.498   9.329 -0.1176 -0.2179  0.2529
 6788W        W10532   3.026   5.001   0.015 -0.3674 -0.2587  0.0207
 6789W        W10533   6.021   2.716  10.546 -0.2270 -0.1748  0.0653
 6790W        W10534   7.690   5.232   1.850  0.2652  0.1203  0.0992
 6791W        W10535   4.425   8.446   9.973 -0.0226 -0.0871 -0.2772
 6792W        W10536   1.619   6.616   5.078 -0.2765  0.1913  0.2920
 6793W        W10537   2.421   9.525  11.753  0.0963 -0.0237 -0.1459
 6794W        W10538   2.745   7.271   0.106 -0.0546  0.0442  0.2694
 6795W        W10539   1.563   3.833  10.485 -0.0820 -0.1737  0.2022
 6796W        W10540   0.344   0.048   2.655  0.0022  0.0653 -0.0780
 6797W        W10541   8.230   7.906   3.306 -0.0324 -0.1476 -0.0080
 6798W        W10542   7.290   5.364   1.132 -0.1154 -0.1948 -0.1806
 6799W        W10543   7.746   9.359  10.398  0.1305 -0.0835  0.2453
 6800W        W10544   3.571   5.206  10.693  0.3281 -0.0797  0.3800
 6801W        W10545   9.719   3.469   3.399  0.0069 -0.0682  0.1504
 6802W        W10546   3.120   1.652   1.787 -0.3254  0.1928  0.1993
 6803W        W10547   3.007   8.570   9.604  0.0911  0.3035  0.1649
 6804W        W10548   4.307   4.589   9.079  0.1960  0.1737  0.3765
 6805W        W10549   6.025   0.290  11.040 -0.0992  0.1293 -0.2283
 6806W        W10550   9.074   2.288  12.728 -0.0203  0.0301 -0.2499
 6807W        W10551   3.708   2.742   2.671 -0.0781  0.0868  0.1585
 6808W        W10552   4.505   2.796   1.263  0.0047 -0.0116  0.1217
 6809W        W10553   1.382   7.914   2.438 -0.2111  0.1954 -0.1020
 6810W        W10554   9.784   1.536   2.144  0.3446  0.0484 -0.1131
 6811W        W10555   9.146   9.271  11.617 -0.1119 -0.0090  0.0105
 6812W        W10556   4.099   9.238   2.242  0.0457 -0.0861 -0.3729
 6813W        W10557   7.068   6.757   9.961 -0.1116  0.1335 -0.1124
 6814W        W10558   1.864   4.581   1.814  0.1170 -0.1749  0.2940
 6815W        W10559   3.751   7.331   9.615 -0.0224  0.2469  0.0492
 6816W        W10560   8.767   1.781   4.188 -0.2081  0.3167  0.1687
 6817W        W10561   3.909   9.475   3.057  0.0227 -0.0658  0.0026
 6818W        W10562   5.960   2.371   8.762  0.4274  0.1074 -0.0502
 6819W        W10563   6.227   4.632   1.994  0.0416  0.2883 -0.0307
 6820W        W10564   7.042   8.050  11.527 -0.3538  0.0041  0.1727
 6821W        W10565   9.688   2.013   0.075 -0.4924 -0.0155  0.2989
 6822W        W10566   7.318   5.831   2.537 -0.0247 -0.2358  0.1667
 6823W        W10567   3.019   9.659   3.913 -0.3625 -0.2370  0.2237
 6824W        W10568   9.212   0.587   0.116  0.1372  0.0776 -0.2401
 6825W        W10569   6.887   4.263   8.113  0.4012 -0.4261 -0.1777
 6826W        W10570   3.549   8.977   2.331 -0.2300  0.0099  0.0219
 6827W        W10571   5.631   8.001   1.226 -0.0075  0.0297  0.0122
 6828W        W10572   9.489   8.424   3.997  0.1489  0.0150 -0.0718
 6829W        W10573   0.402   4.894   4.428 -0.0125  0.1886  0.3032
 6830W        W10574   3.523   2.223   1.345 -0.0439  0.1760 -0.0829
 6831W        W10575   5.491   2.593   1.077 -0.1779  0.0608 -0.0974
 6832W        W10576   3.651   3.218   3.494 -0.3497  0.3461  0.2104
 6833W        W10577   6.393   9.761  12.506 -0.0567  0.0785 -0.0415
 6834W        W10578   6.476   5.579  10.636 -0.2087 -0.0632  0.4293
 6835W        W10579   2.942   3.047   9.381  0.0413 -0.1580  0.0664
 6836W        W10580   1.789   3.357  10.318 -0.1763 -0.0898  0.0667
 6837W        W10581   1.575   9.497   9.868 -0.1638 -0.0822  0.0195
 6838W        W10582   9.766   0.114   9.975 -0.1587  0.0674 -0.0039
 6839W        W10583   2.028   6.368   8.695  0.4653  0.2286  0.1059
 6840W        W10584   6.186   0.627   3.786 -0.3316  0.1675  0.0412
 6841W        W10585   5.655   3.819  11.690 -0.2156 -0.0867  0.1659
 6842W        W10586   7.825   8.334  11.230 -0.3955 -0.1935  0.0151
 6843W        W10587   1.990   9.890   3.192  0.0193 -0.1263  0.3157
 6844W        W10588   0.518   7.435   9.831  0.1243  0.0692  0.2619
 6845W        W10589   3.403   2.577  10.915  0.0395  0.1063  0.0769
 6846W        W10590   4.117   5.361   9.884 -0.2448 -0.1347  0.0191
 6847W        W10591   1.119   8.756   1.779  0.3367  0.0474 -0.4511
 6848W        W10592   3.078   9.660   9.120  0.0834  0.2138 -0.2103
 6849W        W10593   6.468   4.578   1.166  0.0299  0.0571  0.0720
 6850W        W10594   2.188   5.906  12.388 -0.0737 -0.3373  0.0209
 6851W        W10595   8.771   5.135  11.212 -0.2459  0.0224 -0.3426
 6852W        W10596   4.059   5.279   0.862  0.1095  0.0283  0.2375
 6853W        W10597   1.919   4.769  12.110  0.3743  0.2494  0.0408
 6854W        W10598   2.299   6.152   9.447 -0.2032 -0.0417  0.1673
 6855W        W10599   6.511   7.372  11.577 -0.1074  0.3718  0.0420
 6856W        W10600   6.907   7.440   2.454  0.1186  0.2744 -0.0120
 6857W        W10601   4.394   4.893   2.195 -0.0505 -0.2150  0.1668
 6858W        W10602   0.315   0.791   4.657  0.0408  0.1581 -0.1451
 6859W        W10603   6.070   0.135   3.113 -0.0326  0.2914  0.2038
 6860W        W10604   6.686   7.147  11.166 -0.1376 -0.0459 -0.0041
 6861W        W10605   4.940   6.533  12.152  0.1782  0.3509  0.5381
 6862W        W10606   4.194   2.484   2.940  0.0123 -0.0454 -0.0961
 6863W        W10607   5.417   4.122  10.073 -0.4183 -0.1288 -0.0194
 6864W        W10608   5.488   4.589   4.792 -0.0949  0.1975 -0.2695
 6865W        W10609   5.979   5.055  12.152  0.0292 -0.0864  0.1443
 6866W        W10610   1.445   1.590   2.125 -0.3156 -0.1738  0.2401
 6867W        W10611   0.237   9.261   9.708 -0.0803  0.0247 -0.1249
 6868W        W10612   0.811   4.687  12.428  0.0273 -0.2150 -0.1336
 6869W        W10613   8.584   2.290   0.088 -0.1537 -0.0097  0.1473
 6870W        W10614   3.114   4.361   2.030 -0.0751 -0.0384  0.2830
 6871W        W10615   9.186   1.652   3.782 -0.0996  0.1084  0.0770
 6872W        W10616   8.370   3.382  11.115  0.1598  0.1686 -0.4417
 6873W        W10617   0.290   0.629   3.435 -0.0768  0.0301 -0.3073
 6874W        W10618   7.683   0.835   2.638 -0.3277 -0.1489 -0.2493
 6875W        W10619   3.284   7.710   3.017  0.1281 -0.1758  0.1940
 6876W        W10620   0.204   7.749  11.426 -0.1069 -0.0039  0.0199
 6877W        W10621   0.109   9.545   1.476 -0.1473  0.1175 -0.1112
 6878W        W10622   4.465   0.863   1.630 -0.1197 -0.1010 -0.0375
 6879W        W10623   8.186   5.469   2.677 -0.0838 -0.0720  0.2193
 6880W        W10624   6.524   4.744   9.460 -0.2142 -0.0709  0.1641
 6881W        W10625   1.347   0.957   3.127  0.2955  0.1090  0.1360
 6882W        W10626   3.854   0.248   4.202  0.4554 -0.0595  0.1420
 6883W        W10627   6.558   4.867   4.368  0.0083  0.0468  0.0243
 6884W        W10628   4.173   1.714   9.266 -0.0749  0.0843 -0.4320
 6885W        W10629   8.045   5.535   0.946  0.0677  0.0489  0.1530
 6886W        W10630   3.783   8.309  11.705  0.0478  0.0203 -0.1723
 6887W        W10631   5.739   9.434   0.293  0.1432 -0.0899 -0.2725
 6888W        W10632   0.214   4.046  11.797 -0.0919 -0.0358  0.0492
 6889W        W10633   5.967   5.529   0.394  0.4337 -0.1134  0.2316
 6890W        W10634   4.208   3.459   8.367 -0.2095  0.0678 -0.0767
 6891W        W10635   6.166   1.843  12.857 -0.0288  0.0167 -0.0818
 6892W        W10636   7.492   6.237   1.469  0.2029 -0.1268 -0.2785
 6893W        W10637   0.520   8.820  10.708 -0.1170  0.0440  0.0081
 6894W        W10638   4.996   5.254  11.747 -0.1284  0.1251  0.1298
 6895W        W10639   4.981   2.828   7.723 -0.0026 -0.0277 -0.0769
 6896W        W10640   8.196   6.437   9.200 -0.1203  0.1676  0.1142
 6897W        W10641   4.462   9.808  10.278 -0.1069  0.0757 -0.3083
 6898W        W10642   9.532   8.541  10.968 -0.2273 -0.0365 -0.1297
 6899W        W10643   7.542   5.570  10.557  0.1581 -0.2129  0.1830
 6900W        W10644   8.902   1.726  11.898 -0.2704 -0.2340  0.0724
 6901W        W10645   7.855   7.756   2.926  0.1523 -0.1623  0.0852
 6902W        W10646   1.720   4.093  11.328  0.0813  0.0912 -0.0632
 6903W        W10647   4.644   7.171   9.624 -0.3514 -0.0958 -0.0925
 6904W        W10648   4.301   6.692   3.556  0.2680  0.2301  0.2785
 6905W        W10649   0.531   2.169  12.574 -0.1589 -0.2516 -0.4337
 6906W        W10650   1.467   3.243  11.468 -0.1199  0.0149 -0.3144
 6907W        W10651   1.518   4.883  11.073 -0.2308 -0.1406  0.0199
 6908W        W10652   4.475   9.298  10.509  0.2370  0.0964 -0.1616
 6909W        W10653   7.493   0.811   1.448  0.2009  0.1040  0.1066
 6910W        W10654   2.157   0.464  12.261 -0.0395 -0.2656  0.2645
 6911W        W10655   2.001   9.267   4.426 -0.4687  0.2437  0.3159
 6912W        W10656   8.977   1.541   1.000  0.1063 -0.3258  0.1113
 6913W        W10657   0.359   4.046   3.652 -0.2595 -0.1903  0.0026
 6914W        W10658   7.610   3.581   4.038 -0.0745 -0.1602 -0.2188
 6915W        W10659   0.245   1.489  12.474 -0.2870 -0.1655  0.2049
 6916W        W10660   7.189   2.565   1.364 -0.2436  0.3664 -0.0645
 6917W        W10661   6.254   4.103   9.874  0.0145  0.2146 -0.1278
 6918W        W10662   8.999   2.080  11.592 -0.2178 -0.1856 -0.1154
 6919W        W10663   4.521   4.089   9.161 -0.2879  0.0402 -0.1731
 6920W        W10664   6.098   6.895   0.694  0.2250 -0.2212 -0.4103
 6921W        W10665   1.552   4.859   2.060 -0.0665  0.0014 -0.1737
 6922W        W10666   7.304   3.346   0.282 -0.0134  0.0242 -0.1177
 6923W        W10667   1.856   8.778  10.508 -0.0213  0.0979 -0.0559
 6924W        W10668   3.021   3.496   3.024 -0.0325 -0.0967 -0.0194
 6925W        W10669   3.941   8.537   8.489  0.0223  0.3278  0.0984
 6926W        W10670   6.411   0.944   0.966  0.1921  0.0037 -0.1061
 6927W        W10671   9.535   9.088  11.042  0.1516 -0.1268  0.0714
 6928W        W10672   6.360   0.565   2.921 -0.1331  0.1531 -0.2426
 6929W        W10673   9.872   8.712  11.337 -0.3394  0.1743  0.1884
 6930W        W10674   4.928   3.046   3.217  0.0500 -0.1229 -0.1218
 6931W        W10675   4.834   4.523  10.423  0.2086  0.1074 -0.0371
 6932W        W10676   5.677   1.440  11.793  0.3161  0.3863 -0.0523
 6933W        W10677   1.492   1.954   1.647  0.1758 -0.3030  0.0612
 6934W        W10678   2.647   7.823   0.502 -0.1559  0.0970 -0.1074
 6935W        W10679   1.251   9.559   5.513  0.0031 -0.0186 -0.2835
 6936W        W10680   0.509   2.018   1.449  0.1579  0.2868 -0.0338
 6937W        W10681   5.827   0.009  11.422 -0.0837 -0.0067 -0.0565
 6938W        W10682   9.204   4.604  12.437  0.0431  0.0447  0.1534
 6939W        W10683   5.203   8.687   9.839  0.0567  0.2283  0.1036
 6940W        W10684   3.537   1.565  10.746 -0.3319 -0.0777  0.3085
 6941W        W10685   8.912   4.485   0.499  0.3443  0.0445  0.0105
 6942W        W10686   9.007   9.530   2.738 -0.2522  0.1518  0.1680
 6943W        W10687   6.588   3.377  10.777  0.1761  0.1833  0.3110
 6944W        W10688   5.705   4.298  11.627  0.1692  0.1077 -0.2182
 6945W        W10689   2.059   2.337   0.497 -0.0521  0.2827  0.2287
 6946W        W10690   5.641   0.273  10.650  0.1245  0.0032  0.0274
 6947W        W10691   9.358   9.713   3.813 -0.1946 -0.2047 -0.1569
 6948W        W10692   4.879   1.231  10.624 -0.0105 -0.0178 -0.1111
 6949W        W10693   7.776   4.125  11.179 -0.0429  0.3965  0.2288
 6950W        W10694   4.843   0.224   1.062 -0.3773 -0.1507  0.1082
 6951W        W10695   7.631   0.230   9.080 -0.0675  0.0626 -0.2331
 6952W        W10696   2.303   5.406   0.368  0.2438  0.1914 -0.0120
 6953W        W10697   8.882   0.957   0.305 -0.1606  0.2774 -0.0179
 6954W        W10698   7.299   3.207  12.662  0.0212 -0.1609 -0.1627
 6955W        W10699   2.237   5.960   1.244  0.1541  0.0407 -0.0103
 6956W        W10700   4.255   6.318  12.424  0.0784  0.0468 -0.3300
 6957W        W10701   6.422   1.977   3.005 -0.1706  0.2005  0.3166
 6958W        W10702   7.172   3.006  11.849 -0.1551  0.0008  0.3368
 6959W        W10703   3.351   1.012   2.880 -0.0504  0.1418  0.1554
 6960W        W10704   3.660   5.125  12.328  0.1272 -0.2334 -0.0163
 6961W        W10705   7.563   0.383  12.352 -0.0610  0.0182  0.5768
 6962W        W10706   7.672   0.166   0.506 -0.0851 -0.1699  0.0213
 6963W        W10707   1.216   9.691  10.201 -0.1786  0.1777  0.0827
 6964W        W10708   9.300   0.294  11.734  0.0283 -0.1088  0.0927
 6965W        W10709   2.452   7.726  10.493  0.1787  0.1095  0.1804
 6966W        W10710   1.051   6.995   0.488 -0.1001  0.1637 -0.0593
 6967W        W10711   0.107   8.266  10.516  0.0056  0.0504  0.0388
 6968W        W10712   0.048   9.007   2.133 -0.0039 -0.3570  0.3378
 6969W        W10713   1.059   3.131  10.275  0.0807 -0.0036  0.0995
 6970W        W10714   8.223   0.091   2.965 -0.3368  0.0136  0.2903
 6971W        W10715   8.635   2.645   1.456 -0.0600 -0.0151 -0.0773
 6972W        W10716   3.562   8.070  12.118  0.0757  0.0949  0.1198
 6973W        W10717   8.564   8.041   2.322 -0.0993  0.3674  0.0504
 6974W        W10718   4.821   9.060   2.810  0.0967  0.1038  0.0921
 6975W        W10719   4.553   8.265   4.025  0.0423  0.0506  0.0875
 6976W        W10720   8.697   1.457   2.364 -0.2259  0.1471  0.0867
 6977W        W10721   5.064   0.802   2.412 -0.0676  0.1531  0.0675
 6978W        W10722   1.525   5.058  12.212 -0.0436 -0.1519 -0.1002
 6979W        W10723   4.722   4.400   8.756  0.1176  0.0015 -0.0441
 6980W        W10724   5.681   8.137  10.318  0.0629 -0.1179  0.2614
 6981W        W10725   8.053   0.699   1.100  0.0225  0.0648 -0.1176
 6982W        W10726   9.517   5.158   9.863  0.2864 -0.1522 -0.0152
 6983W        W10727   1.872   5.472  12.418 -0.1319  0.2432 -0.0471
 6984W        W10728   2.021   4.738   9.949  0.1654 -0.2426  0.0713
 6985W        W10729   7.913   7.085   3.358  0.3118 -0.0466 -0.2591
 6986W        W10730   4.808   8.928   3.771 -0.2972  0.3180 -0.1847
 6987W        W10731   8.072   0.670  10.677 -0.0196 -0.1296 -0.3565
 6988W        W10732   3.344   3.484   0.670  0.1211 -0.3007 -0.0485
 6989W        W10733   9.812   2.766   2.314 -0.0975  0.0385 -0.1925
 6990W        W10734   2.042   5.716   3.148  0.3310 -0.0265  0.1039
 6991W        W10735   9.045   3.622   3.876  0.0951  0.2998 -0.2698
 6992W        W10736   5.102   4.650   4.112 -0.1488  0.1308 -0.0034
 6993W        W10737   6.892   8.198   0.798 -0.1969  0.2056  0.0305
 6994W        W10738   1.464   6.153   5.056 -0.0436  0.0781 -0.0174
 6995W        W10739   1.436   6.676   0.518  0.1099 -0.0390 -0.2892
 6996W        W10740   4.659   3.045  11.804 -0.4788 -0.2508 -0.2942
 6997W        W10741   8.597   3.110  12.360 -0.4393  0.0073  0.0307
 6998W        W10742   9.078   2.620   0.211  0.0284  0.3566 -0.2157
 6999W        W10743   8.016   8.653   2.403 -0.2751  0.3415  0.0907
 7000W        W10744   6.307   5.693   9.855 -0.2387 -0.2980  0.0069
 7001W        W10745   7.248   6.352   2.320 -0.1074  0.0598 -0.2319
 7002W        W10746   7.363   3.721   3.277  0.2743  0.1006 -0.0152
 7003W        W10747   7.461   2.406   1.913  0.0918  0.1530  0.2703
 7004W        W10748   3.471   6.441   9.733  0.2521  0.0160 -0.1646
 7005W        W10749   3.748   5.817  11.376  0.0440  0.0802 -0.5092
 7006W        W10750   8.740   4.271  11.840  0.3686 -0.0605  0.4024
 7007W        W10751   3.062   0.106   5.165 -0.1190  0.1888 -0.2908
 7008W        W10752   1.292   4.632   4.472 -0.1351  0.1153  0.0142
 7009W        W10753   6.020   7.606   9.571  0.0716 -0.0476 -0.0058
 7010W        W10754   9.077   5.273   9.619 -0.1384  0.2025 -0.0799
 7011W        W10755   9.692   0.957   1.477 -0.1412 -0.0351  0.2110
 7012W        W10756   7.039   2.321   9.068  0.2497 -0.0946  0.1672
 7013W        W10757   4.966   2.472   9.857  0.1778  0.1660 -0.0524
 7014W        W10758   0.242   2.453   0.530 -0.1376  0.2497 -0.0037
 7015W        W10759   1.938   9.014   0.079 -0.3370 -0.3023  0.3581
 7016W        W10760   0.727   2.757   3.327  0.1295  0.1944  0.5673
 7017W        W10761   1.906   0.625  10.947  0.4157 -0.2049 -0.1343
 7018W        W10762   3.938   0.999   2.858  0.0528  0.0233  0.0210
 7019W        W10763   3.832   4.527   3.601  0.2689  0.0606  0.0323
 7020W        W10764   6.329   5.886  12.610  0.2378 -0.1030  0.2904
 7021W        W10765   0.965   7.101  11.172  0.0850  0.0922  0.5354
 7022W        W10766   8.689   6.771   1.123 -0.4224  0.0581 -0.0206
 7023W        W10767   5.523   0.851  10.967 -0.3919 -0.1098  0.1315
 7024W        W10768   6.629   4.938   3.863 -0.3468  0.1263 -0.0611
 7025W        W10769   0.721   0.688  10.954  0.0984  0.1830  0.2403
 7026W        W10770   4.525   9.695   4.053  0.0975 -0.1803 -0.0368
 7027W        W10771   7.041   1.069  12.043  0.1081  0.1664  0.2133
 7028W        W10772   1.001   7.261   9.880  0.1099  0.3298 -0.3292
 7029W        W10773   1.906   1.155  10.119  0.2308 -0.1807 -0.1977
 7030W        W10774   3.426   7.474   3.473 -0.1429 -0.2449 -0.2453
 7031W        W10775   5.125   2.245  10.640  0.0068  0.2815 -0.1788
 7032W        W10776   8.271   1.089   3.864  0.0536 -0.2363  0.0283
 7033W        W10777   0.103   4.999  11.673  0.1324 -0.4880  0.1541
 7034W        W10778   1.398   6.744   9.383 -0.1049  0.3673 -0.0603
 7035W        W10779   3.266   9.565   0.041 -0.0613  0.2075  0.0300
 7036W        W10780   9.508   1.402   3.458 -0.0266 -0.0324  0.0272
 7037W        W10781   7.752   6.653  12.405 -0.1768  0.1139  0.1300
 7038W        W10782   8.489   7.105  11.081  0.0474 -0.0370  0.0089
 7039W        W10783   5.182   2.221  12.170  0.0997  0.0115  0.2133
 7040W        W10784   7.009   0.979  10.171 -0.2689  0.0297 -0.0019
 7041W        W10785   3.357   9.040  11.882  0.3221  0.1402 -0.2496
 7042W        W10786   6.219   2.779   8.238 -0.0362  0.2029 -0.3218
 7043W        W10787   4.283   8.949   8.544 -0.5600  0.2207 -0.0461
 7044W        W10788   5.679   2.226  11.433  0.1206  0.2851 -0.0698
 7045W        W10789   8.206   2.893  11.205  0.0318  0.1265 -0.2832
 7046W        W10790   2.372   6.431   2.580  0.0007  0.2634  0.0500
 7047W        W10791   8.325   7.835   2.738  0.0557  0.0428  0.0662
 7048W        W10792   0.466   6.306   2.219  0.0232 -0.1329  0.1185
 7049W        W10793   3.558   0.473  11.691 -0.1382  0.0112 -0.1270
 7050W        W10794   2.146   1.064   2.503  0.0898  0.2893  0.1368
 7051W        W10795   7.322   3.954   4.232 -0.3607 -0.2010 -0.0179
 7052W        W10796   6.169   1.229  11.670  0.0562 -0.1748  0.3172
 7053W        W10797   6.734   5.229   1.747  0.1169  0.0878  0.0632
 7054W        W10798   4.641   7.009   2.591 -0.0015 -0.2175  0.3167
 7055W        W10799   8.014   8.555   8.882  0.1536  0.0719  0.0115
 7056W        W10800   7.738   2.456   1.401 -0.1779  0.0155  0.2982
 7057W        W10801   9.246   4.863   9.315  0.1882 -0.0822 -0.0457
 7058W        W10802   8.136   1.853   0.932  0.0097 -0.2295 -0.0564
 7059W        W10803   7.608   1.446   0.284  0.0722  0.1086 -0.1337
 7060W        W10804   4.629   3.622   8.095 -0.1280  0.1038  0.0145
 7061W        W10805   5.633   9.305   1.844 -0.2495 -0.4400 -0.1606
 7062W        W10806   6.133   2.915   1.753 -0.0681  0.0590  0.2146
 7063W        W10807   9.564   6.653  11.196  0.4356  0.1338 -0.1894
 7064W        W10808   5.651   4.850   0.772 -0.3532  0.1384  0.1882
 7065W        W10809   3.951   1.443   0.911 -0.2958  0.0073 -0.1014
 7066W        W10810   2.114   2.580   2.831  0.0067  0.2771 -0.3147
 7067W        W10811   9.702   4.695   3.117 -0.1446  0.0631 -0.1692
 7068W        W10812   2.367   1.588   9.379 -0.2682 -0.1378 -0.0776
 7069W        W10813   6.980   3.038   2.438 -0.1719  0.3114 -0.1096
 7070W        W10814   9.762   5.727   9.840  0.1640 -0.0694 -0.3021
 7071W        W10815   0.775   0.014   3.880  0.3021  0.2763  0.0868
 7072W        W10816   4.274   3.104   4.125  0.0395  0.1761 -0.1508
 7073W        W10817   9.007   7.096  10.369  0.0268  0.2437  0.0823
 7074W        W10818   9.398   3.715   1.028  0.0280  0.1073 -0.1796
 7075W        W10819   3.229   4.417   8.760  0.2274  0.2814  0.1186
 7076W        W10820   9.881   3.011   0.504  0.0379 -0.0891  0.1057
 7077W        W10821   8.202   1.434   2.570  0.2161 -0.1800 -0.0427
 7078W        W10822   2.173   8.386   2.772  0.0475  0.1718 -0.1504
 7079W        W10823   0.917   9.432   4.120 -0.1883  0.2687  0.2161
 7080W        W10824   2.452   3.618   3.778  0.0130  0.1783 -0.2822
 7081W        W10825   4.351   6.487   0.327  0.0858 -0.0754  0.2288
 7082W        W10826   7.069   3.275   2.003 -0.1510 -0.2427  0.1621
 7083W        W10827   4.551   1.230   3.427  0.2314  0.1857 -0.1352
 7084W        W10828   7.221   9.902   9.203 -0.0835 -0.0987  0.1428
 7085W        W10829   8.998   4.492   1.149  0.0653 -0.3567 -0.3846
 7086W        W10830   8.374   1.659   3.829 -0.1329 -0.2825  0.2166
 7087W        W10831   7.244   9.757   0.735  0.0355 -0.0053 -0.0092
 7088W        W10832   2.836   5.811  11.024 -0.2114 -0.0850 -0.0059
 7089W        W10833   1.837   2.007  11.421 -0.0033 -0.0461 -0.1420
 7090W        W10834   6.089   5.049   0.388 -0.2209  0.1316  0.1547
 7091W        W10835   9.288   2.418   3.180  0.2377 -0.0106 -0.0958
 7092W        W10836   3.203   1.875   2.292 -0.1312  0.1679 -0.5585
 7093W        W10837   0.250   7.496   1.464 -0.1675  0.0951  0.0921
 7094W        W10838   2.275   5.902  11.781  0.0769 -0.2788  0.0456
 7095W        W10839   7.821   5.822   2.581  0.0931 -0.0934 -0.1553
 7096W        W10840   8.051   4.243  11.594 -0.0825  0.0871  0.1451
 7097W        W10841   3.964   6.609   1.927  0.1471  0.1219 -0.0639
 7098W        W10842   8.033   3.023   0.500 -0.1181  0.1886  0.0177
 7099W        W10843   0.803   4.754   3.174 -0.0086 -0.1342 -0.0830
 7100W        W10844   8.014   0.074  12.014 -0.2959  0.3041 -0.1337
 7101W        W10845   7.378   4.226   0.772 -0.1548  0.1235 -0.0641
 7102W        W10846   6.430   4.942  11.698 -0.2198  0.0801  0.1569
 7103W        W10847   9.014   9.161   1.571  0.1277  0.1973  0.0414
 7104W        W10848   5.483   5.142  11.915  0.1665 -0.2595  0.1627
 7105W        W10849   3.464   3.562  12.288  0.1036 -0.2232 -0.1270
 7106W        W10850   5.188   2.500   4.254 -0.0445 -0.1156 -0.1704
 7107W        W10851   4.802   2.624   1.633 -0.0571 -0.2834  0.0588
 7108W        W10852   2.424   3.964   8.847  0.0020 -0.0671 -0.2875
 7109W        W10853   0.977   7.452   3.118 -0.0721 -0.1239  0.0992
 7110W        W10854   1.781   4.768  10.607  0.3311 -0.2700 -0.1900
 7111W        W10855   3.354   1.746   9.117 -0.0659  0.0124  0.2630
 7112W        W10856   5.497   1.461  12.315  0.1583 -0.2502  0.0732
 7113W        W10857   2.363   4.209   4.342  0.1710 -0.0396 -0.0276
 7114W        W10858   3.984   6.423  12.862 -0.1499  0.3028  0.3962
 7115W        W10859   5.632   9.736  10.907 -0.0358  0.0618 -0.0125
 7116W        W10860   2.437   6.741   1.238 -0.1722  0.1763 -0.1846
 7117W        W10861   0.904   3.042   0.337  0.2007  0.0526 -0.0356
 7118W        W10862   5.044   6.672  10.089  0.3414  0.2213 -0.2016
 7119W        W10863   7.001   8.195  10.774  0.0036 -0.3947  0.0691
 7120W        W10864   1.603   1.619   3.850  0.1379 -0.2291  0.0681
 7121W        W10865   8.168   2.638   3.265 -0.1117 -0.3587 -0.0919
 7122W        W10866   0.893   6.620   0.899 -0.1401 -0.2194  0.2282
 7123W        W10867   0.487   2.110   2.589 -0.3764  0.2198 -0.3598
 7124W        W10868   6.102   0.167   2.095  0.1034  0.1519 -0.2562
 7125W        W10869   9.413   4.535   2.672  0.4301 -0.1505 -0.0879
 7126W        W10870   1.213   6.536  12.465  0.1102  0.1731 -0.2696
 7127W        W10871   5.388   3.921   0.639 -0.0428 -0.2732  0.0678
 7128W        W10872   3.342   9.059   4.335 -0.1951 -0.2324  0.0330
 7129W        W10873   6.701   9.416   4.579  0.1781  0.0833 -0.0749
 7130W        W10874   3.531   3.073  11.009 -0.4735  0.3498 -0.0482
 7131W        W10875   9.008   1.009   2.300 -0.2455  0.0166 -0.2010
 7132W        W10876   9.673   7.284   0.638  0.0933 -0.3277  0.0846
 7133W        W10877   0.156   2.675  11.226 -0.0822  0.0830  0.2397
 7134W        W10878   8.691   4.761  12.162 -0.2311 -0.1030  0.1638
 7135W        W10879   1.076   1.036  11.140 -0.0703  0.2392 -0.0477
 7136W        W10880   3.296   5.858   3.293  0.0850 -0.2036  0.3355
 7137W        W10881   3.717   8.021   3.080  0.1105  0.0525 -0.1407
 7138W        W10882   4.343   3.156   9.598 -0.2937  0.3629  0.1485
 7139W        W10883   9.037   0.317   9.688  0.1792 -0.1969 -0.1303
 7140W        W10884   1.873   6.071   4.127  0.0854  0.3928  0.0280
 7141W        W10885   1.834   7.664   3.259  0.0516 -0.4002  0.1980
 7142W        W10886   3.735   5.401  12.718 -0.1538 -0.0298  0.0866
 7143W        W10887   3.275   8.404   4.451 -0.2059  0.0573 -0.3453
 7144W        W10888   7.752   5.567  10.089 -0.1120  0.0085  0.2410
 7145W        W10889   3.677   2.203   0.037 -0.1301 -0.3970  0.0152
 7146W        W10890   2.316   3.117   3.555 -0.2963 -0.1520  0.2527
 7147W        W10891   5.063   6.109  11.991 -0.0530 -0.0025  0.1473
 7148W        W10892   7.496   1.382  12.209 -0.1717 -0.0506 -0.1885
 7149W        W10893   0.400   6.845  12.794 -0.2677 -0.0095  0.0721
 7150W        W10894   0.213   6.334  11.309 -0.1121  0.2781  0.2722
 7151W        W10895   7.738   7.421  12.040 -0.2869  0.0758  0.2172
 7152W        W10896   8.784   5.316   1.497 -0.1467  0.2065 -0.1269
 7153W        W10897   0.802   1.826  10.545 -0.0428 -0.3217  0.1068
 7154W        W10898   8.497   9.502   2.916  0.0096  0.1103 -0.0627
 7155W        W10899   5.046   7.932   0.915 -0.1938 -0.0180 -0.0774
 7156W        W10900   0.530   0.046   8.459 -0.3136 -0.2588 -0.5202
 7157W        W10901   6.104   9.380  12.301  0.0626  0.1577 -0.1369
 7158W        W10902   1.439   9.415   2.517 -0.0925  0.0229 -0.2414
 7159W        W10903   8.543   9.359   9.108 -0.0163 -0.3898 -0.0268
 7160W        W10904   6.860   8.948  11.563 -0.2360  0.2137 -0.0730
 7161W        W10905   7.551   8.283  10.452 -0.1924  0.2353  0.2659
 7162W        W10906   2.019   6.701  11.879  0.1869  0.0986  0.2150
 7163W        W10907   9.823   2.960   2.842 -0.0628  0.1631  0.1774
 7164W        W10908   5.165   3.560   2.596 -0.0473 -0.0619  0.1086
 7165W        W10909   8.562   1.148  12.239 -0.0527  0.0805 -0.2052
 7166W        W10910   3.741   6.579  11.609  0.0295 -0.0842 -0.1466
 7167W        W10911   8.046   6.616   3.407 -0.0425 -0.0338  0.1978
 7168W        W10912   1.963   6.903   1.286 -0.0211 -0.2559 -0.0126
 7169W        W10913   9.677   9.409  12.227 -0.1786 -0.0716  0.1164
 7170W        W10914   0.533   4.909   1.168 -0.2485  0.1816 -0.3754
 7171W        W10915   3.258   7.999   3.449  0.1043 -0.0668 -0.0788
 7172W        W10916   5.749   5.592  12.009  0.0446 -0.1490  0.0436
 7173W        W10917   8.628   2.821   4.023  0.1034  0.1858 -0.0366
 7174W        W10918   5.311   5.145   0.397 -0.1747 -0.3336 -0.0108
 7175W        W10919   2.771   2.761  10.610  0.2662  0.0708 -0.2990
 7176W        W10920   4.673   7.960  10.692 -0.1655 -0.0534  0.1957
 7177W        W10921   2.395   8.611   4.554 -0.1630 -0.0458 -0.4425
 7178W        W10922   0.707   6.335   4.738 -0.1218 -0.1111 -0.0779
 7179W        W10923   3.880   1.274  10.349 -0.0596 -0.1697 -0.1533
 7180W        W10924   5.181   9.351   0.310 -0.1266 -0.2221 -0.1427
 7181W        W10925   0.231   8.960   3.978  0.2172  0.0532  0.1251
 7182W        W10926   0.808   5.697   1.580 -0.2949  0.1091  0.1435
 7183W        W10927   6.342   3.531   8.761  0.2223 -0.3202 -0.2866
 7184W        W10928   7.956   3.868   3.731  0.1705 -0.2402 -0.2666
 7185W        W10929   1.627   4.338   1.431 -0.3119  0.3040  0.1402
 7186W        W10930   9.901   9.326   4.306  0.0189  0.1222 -0.1299
 7187W        W10931   3.953   2.069   1.427 -0.0703  0.1300  0.1228
 7188W        W10932   0.222   7.094   4.317  0.1113  0.0720 -0.1021
 7189W        W10933   8.367   5.144   3.600  0.0978 -0.3015 -0.0621
 7190W        W10934   2.710   7.126   9.566  0.1900  0.0212  0.0898
 7191W        W10935   8.681   3.044  11.355  0.2555  0.1405  0.2044
 7192W        W10936   4.203   7.438   1.296  0.3505 -0.2128  0.0921
 7193W        W10937   7.145   4.274  11.948 -0.0653  0.1544 -0.0658
 7194W        W10938   5.624   4.089   8.413 -0.0860  0.2241  0.2066
 7195W        W10939   1.582   8.152   5.135  0.0458 -0.2326 -0.2127
 7196W        W10940   8.245   5.250  10.995 -0.1421  0.0939 -0.0435
 7197W        W10941   0.167   5.003   8.768 -0.1227 -0.4012 -0.1375
 7198W        W10942   6.085   9.790   0.518  0.1707  0.0650  0.0832
 7199W        W10943   5.409   5.221   3.422 -0.0709 -0.0648 -0.3542
 7200W        W10944   5.241   3.149   2.273  0.0877 -0.2032  0.3908
 7201W        W10945   8.925   0.140   3.842  0.0246  0.1827  0.3834
 7202W        W10946   4.785   5.912   1.876  0.1338 -0.2789  0.1028
 7203W        W10947   6.522   4.371  12.647  0.0534  0.3121 -0.2249
 7204W        W10948   4.023   0.857   2.414  0.1474  0.0349  0.0591
 7205W        W10949   3.202   3.015   8.176 -0.5047  0.1587 -0.0405
 7206W        W10950   8.674   1.915   9.479 -0.0508 -0.0109 -0.3053
 7207W        W10951   8.580   8.150   3.655  0.0065  0.0593  0.2459
 7208W        W10952   0.288   5.373   2.871  0.3056 -0.2831 -0.1059
 7209W        W10953   2.358   8.451   1.145 -0.1262 -0.2135 -0.2109
 7210W        W10954   8.113   7.661  11.784 -0.0053  0.3641 -0.0171
 7211W        W10955   8.349   1.166   3.374  0.0531 -0.1154 -0.1875
 7212W        W10956   0.974   3.793   5.588 -0.0935  0.0712  0.1497
 7213W        W10957   6.418   1.085  11.255  0.0241 -0.1162  0.2616
 7214W        W10958   3.923   7.876  11.371  0.1731  0.0435  0.2861
 7215W        W10959   8.173   2.039   3.591 -0.2257 -0.0012  0.0304
 7216W        W10960   0.436   1.630   1.049 -0.1806 -0.1724  0.3264
 7217W        W10961   1.197   6.054  12.422  0.0012 -0.4000  0.1127
 7218W        W10962   7.710   8.067   1.966 -0.3451 -0.0315  0.1928
 7219W        W10963   1.943   3.217  12.311 -0.2943  0.3185 -0.0672
 7220W        W10964   5.975   0.685  10.593  0.1595 -0.3307  0.2040
 7221W        W10965   8.967   6.403   1.502  0.2849  0.1132  0.1639
 7222W        W10966   4.665   0.266   0.513  0.0988 -0.0020  0.3800
 7223W        W10967   3.924   4.494  10.092 -0.0106 -0.2437 -0.1149
 7224W        W10968   1.756   0.681   0.351 -0.0804  0.1289  0.1506
 7225W        W10969   8.660   5.180  11.952  0.1511  0.1238  0.0972
 7226W        W10970   9.367   7.525   1.577  0.3364  0.1639 -0.1770
 7227W        W10971   7.264   1.666   2.518  0.0794 -0.4174  0.0812
 7228W        W10972   4.688   9.467  12.030 -0.0191 -0.0647 -0.0534
 7229W        W10973   8.929   0.463   0.568 -0.1945 -0.2786  0.1103
 7230ION    NA+10974   6.727   1.596   0.518 -0.0303  0.1158  0.3723
 7231ION    NA+10975   0.454   3.014   0.644 -0.2084  0.2117 -0.0312
 7232ION    NA+10976   6.406   6.354   9.913 -0.0662 -0.0057  0.1303
 7233ION    NA+10977   0.389   1.015  11.151 -0.0761 -0.0976  0.0038
 7234ION    NA+10978   2.637   1.139   2.207 -0.0370  0.3622  0.3494
 7235ION    NA+10979   3.583   9.746   1.163 -0.1395 -0.2739 -0.0868
 7236ION    NA+10980   3.537   0.486   0.060 -0.0229  0.0096 -0.0979
 7237ION    NA+10981   1.443   6.503   8.937 -0.0037  0.0244 -0.1933
 7238ION    NA+10982   4.911   0.826  11.830  0.2288  0.1327 -0.4044
 7239ION    NA+10983   5.183   0.390   2.142 -0.0815  0.2977  0.1158
 7240ION    NA+10984   3.762   4.635   1.300  0.0013 -0.0167 -0.2492
 7241ION    NA+10985   4.440   3.422   1.987 -0.0195  0.3642 -0.2690
 7242ION    NA+10986   5.221   7.294  12.200  0.0905  0.0070  0.0275
 7243ION    NA+10987   5.395   4.850   8.687  0.1455 -0.2062 -0.2110
 7244ION    NA+10988   9.896   9.026   8.767  0.1724 -0.0447 -0.2299
 7245ION    NA+10989   1.357   3.059   8.523  0.0882 -0.0343  0.0245
 7246ION    NA+10990   8.128   9.075   1.142  0.1569  0.0559 -0.1180
 7247ION    NA+10991   4.823   6.269  10.767  0.2259  0.2153  0.1145
 7248ION    NA+10992   8.939   1.632   0.509 -0.1055  0.3077 -0.1857
 7249ION    NA+10993   1.359   3.797   4.738  0.1566  0.1187 -0.1923
 7250ION    NA+10994   6.942   9.078   2.556 -0.2330 -0.0673  0.0479
 7251ION    NA+10995   1.095   4.417   4.904  0.1528 -0.0303 -0.0593
 7252ION    NA+10996   3.220   4.190   0.504  0.0917 -0.1484 -0.3853
 7253ION    NA+10997   5.510   8.974   9.637 -0.1993 -0.4465  0.1428
 7254ION    NA+10998   7.377   9.614   4.284 -0.0804  0.2928 -0.1793
 7255ION    NA+10999   2.107   4.009   0.807  0.1783 -0.5434 -0.1339
 7256ION    NA+11000   4.472   9.846   1.353  0.0307 -0.0566  0.1402
 7257ION    NA+11001   7.674   1.027   3.091  0.2319 -0.1233 -0.3106
 7258ION    NA+11002   9.866   4.568   0.994 -0.3428 -0.0253 -0.2951
 7259ION    NA+11003   6.261   1.745   0.471  0.0952 -0.0988 -0.0240
 7260ION    NA+11004   3.777   2.265   8.199  0.1553  0.4631 -0.1541
 7261ION    NA+11005   4.636   3.548   3.448  0.0400 -0.1419  0.0656
 7262ION    NA+11006   6.072   2.709   3.315 -0.0310  0.0341 -0.2058
 7263ION    NA+11007   0.985   4.868  11.101  0.1880 -0.0698 -0.0520
 7264ION    NA+11008   0.861   5.136   1.549  0.1014 -0.0699  0.0975
 7265ION    NA+11009   1.333   7.796   3.401 -0.0473 -0.2818 -0.1432
 7266ION    NA+11010   1.998   0.331   3.937  0.1783  0.0703 -0.0677
 7267ION    NA+11011   3.761   2.908   9.085 -0.1450  0.1386 -0.2349
 7268ION    NA+11012   3.164   5.989   0.296 -0.1133  0.0056 -0.3617
 7269ION    NA+11013   2.185   9.493   5.156 -0.4524 -0.0621 -0.2044
 7270ION    NA+11014   8.566   7.591   4.315 -0.0074  0.0792 -0.0053
 7271ION    NA+11015   4.861   0.789   3.445  0.1037  0.1633 -0.1416
 7272ION    NA+11016   7.463   5.241   3.791 -0.0832 -0.2251 -0.1677
 7273ION    NA+11017   4.419   5.276   4.522  0.0946 -0.0758  0.1569
 7274ION    NA+11018   3.410   4.975   0.510  0.2802  0.0593  0.0867
 7275ION    NA+11019   7.918   1.654   9.670  0.0957  0.1369 -0.2710
 7276ION    NA+11020   2.970   7.333   3.339  0.1285  0.0292 -0.4612
 7277ION    NA+11021   7.114   6.306   3.760  0.2018  0.1461  0.3833
 7278ION    NA+11022   5.033   3.241   0.539 -0.1087  0.1172 -0.0365
 7279ION    NA+11023   7.966   4.081   8.940 -0.3337  0.2191 -0.1274
 7280ION    NA+11024   9.743   0.537  11.828 -0.1146 -0.1722  0.1644
 7281ION    NA+11025   4.129   3.832   1.312 -0.0146 -0.0874  0.3450
 7282ION    NA+11026   1.864   5.311   8.582  0.2640  0.1187 -0.0153
 7283ION    NA+11027   2.769   1.958   0.248 -0.1302 -0.2118  0.4885
 7284ION    NA+11028   3.071   1.779   9.931  0.1372 -0.1688 -0.2518
 7285ION    NA+11029   4.442   2.644   0.642 -0.0979 -0.2079  0.0288
 7286ION    NA+11030   7.103   2.995  10.049 -0.0887 -0.3818  0.0638
 7287ION    NA+11031   2.860   6.307   2.589  0.1628  0.0121 -0.0255
 7288ION    NA+11032   3.265   3.600   3.429 -0.1510  0.0359  0.1582
 7289ION    NA+11033   3.217   5.491   2.727 -0.0377 -0.3278 -0.2239
 7290ION    NA+11034   5.637   4.244  12.655 -0.1410  0.0995  0.3105
 7291ION    NA+11035   2.559   0.220   3.435 -0.3319  0.0125  0.0846
 7292ION    NA+11036   2.641   9.659   0.759 -0.0024  0.0017 -0.2877
 7293ION    NA+11037   3.584   5.345   4.257  0.2467 -0.2562  0.1388
 7294ION    NA+11038   5.063   1.338   9.147 -0.1527 -0.0537 -0.0163
 7295ION    NA+11039   1.881   2.432   8.593  0.0148 -0.3217 -0.0315
 7296ION    NA+11040   8.567   4.041   2.960  0.5177 -0.4397  0.0345
 7297ION    NA+11041   1.496   0.922   4.814 -0.0805  0.1825 -0.1484
 7298ION    NA+11042   4.768   0.968  12.678 -0.0908 -0.0901  0.1324
 7299ION    NA+11043   4.925   5.494   4.406 -0.1430 -0.3615 -0.0372
 7300ION    NA+11044   5.328   9.675   3.484 -0.0224 -0.0286 -0.1668
 7301ION    NA+11045   1.306   6.920  12.768 -0.2204 -0.1286  0.4462
 7302ION    NA+11046   5.768   0.874   1.604  0.2122 -0.1319 -0.3255
 7303ION    NA+11047   7.017   0.616  12.335 -0.1337  0.3180 -0.0711
 7304ION    NA+11048   7.979   8.904  12.090 -0.3317  0.2314  0.4309
 7305ION    NA+11049   9.031   6.765  11.227 -0.2248  0.2982  0.2082
 7306ION    CL-11050   3.097   4.169   1.001  0.1322  0.2576 -0.0251
 7307ION    CL-11051   5.721   2.966   2.991 -0.0056 -0.0738 -0.0500
 7308ION    CL-11052   3.284   2.790   9.040 -0.1248 -0.1754 -0.3606
 7309ION    CL-11053   6.634   4.422   3.123  0.2057  0.1141 -0.2335
 7310ION    CL-11054   5.627   1.388   9.031  0.3502  0.1648  0.0754
 7311ION    CL-11055   6.612   5.752   3.351 -0.0733  0.3695 -0.0572
 7312ION    CL-11056   5.130   0.878  11.432  0.3271 -0.2165 -0.0841
 7313ION    CL-11057   8.269   8.974  11.622  0.1159  0.1493 -0.1206
 7314ION    CL-11058   3.037   0.262   3.773 -0.0241  0.0628  0.3432
 7315ION    CL-11059   0.839   0.903   0.519  0.3155  0.2192 -0.0947
 7316ION    CL-11060   9.323   3.729   0.058 -0.0488 -0.3311  0.3251
 7317ION    CL-11061   5.505   6.247   0.928 -0.0026 -0.0225  0.2120
 7318ION    CL-11062   6.641   7.269  12.058 -0.3386 -0.0894  0.4635
 7319ION    CL-11063   2.940   6.818   3.595  0.1635  0.0469 -0.1473
 7320ION    CL-11064   5.032   6.026   3.646  0.1438 -0.1993  0.0671
 7321ION    CL-11065   2.774   5.032   0.493 -0.0143  0.1266 -0.1357
 7322ION    CL-11066   4.291   0.467   1.966  0.0211  0.1209 -0.1292
 7323ION    CL-11067   8.625   1.499   9.153  0.0397  0.0252 -0.0539
 7324ION    CL-11068   4.057   9.435   1.342  0.1594 -0.0676 -0.0085
 7325ION    CL-11069   4.100   6.580  11.213  0.0104  0.0052  0.0745
 7326ION    CL-11070   4.456   3.925   3.119  0.2186 -0.3843  0.1320
 7327ION    CL-11071   2.117   0.415   3.414 -0.1955 -0.1555  0.0998
 7328ION    CL-11072   8.485   4.253   2.514  0.1425  0.1636 -0.2008
 7329ION    CL-11073   1.182   4.543   1.881  0.1906 -0.1330  0.1175
 7330ION    CL-11074   9.268   1.841  12.510  0.0471  0.1391  0.2275
 7331ION    CL-11075   3.776   2.440   4.082 -0.1439  0.1763 -0.0358
 7332ION    CL-11076   3.744   3.595   8.407 -0.0012  0.0319 -0.0463
 7333ION    CL-11077   6.136   8.172   0.179  0.1899 -0.1175 -0.1703
 7334ION    CL-11078   3.297   1.348   3.828 -0.1285 -0.0657 -0.0736
 7335ION    CL-11079   1.357   8.221   3.737  0.1446 -0.1270 -0.0480
 7336ION    CL-11080   2.559   0.697   2.525  0.2296  0.0612  0.2778
 7337ION    CL-11081   4.478   1.057  12.276  0.1601  0.2747  0.3176
 7338ION    CL-11082   6.999   6.684  11.232 -0.3726 -0.0280 -0.2460
 7339ION    CL-11083   5.159   3.593  11.237 -0.1380 -0.2109 -0.2507
 7340ION    CL-11084   5.661   6.598  12.495  0.0207  0.1599 -0.0728
 7341ION    CL-11085   4.658   0.986   9.202 -0.1280  0.2081  0.0340
 7342ION    CL-11086   8.684   8.211  11.900 -0.1723  0.1351  0.0841
 7343ION    CL-11087   4.969   1.069   0.617  0.4544 -0.1092  0.1759
 7344ION    CL-11088   4.524   3.174   0.590  0.0070 -0.0658 -0.2662
 7345ION    CL-11089   7.011   9.246   2.993 -0.3095  0.1753  0.2742
 7346ION    CL-11090   0.087   5.304   9.675 -0.0092  0.2582  0.1680
 7347ION    CL-11091   2.418   9.687   9.283 -0.0894 -0.0340  0.3473
 7348ION    CL-11092   6.250   6.034  10.365  0.1606  0.1667  0.0877
 7349ION    CL-11093   4.407   1.186  11.119  0.1456  0.2267  0.0150
 7350ION    CL-11094   5.003   9.389   3.245 -0.1648 -0.1700 -0.1109
 7351ION    CL-11095   6.515   1.893  12.419 -0.0833 -0.1542  0.1790
 7352ION    CL-11096   0.761   0.911   3.678 -0.2521 -0.0448 -0.1717
 7353ION    CL-11097   8.146   3.946   3.246  0.2228 -0.1931 -0.3543
 7354ION    CL-11098   7.428   3.013  10.447  0.0832  0.0204 -0.1930
 7355ION    CL-11099   4.376   3.448   1.474  0.1460  0.1364  0.1436
 7356ION    CL-11100   5.773   3.609   1.686  0.4530  0.0830  0.1080
 7357ION    CL-11101   4.042   4.288   1.601  0.0429  0.1096 -0.3276
 7358ION    CL-11102   4.576   2.995   3.631 -0.2127  0.2029 -0.0582
 7359ION    CL-11103   4.150   0.690   4.102 -0.1022 -0.0622 -0.1163
 7360ION    CL-11104   6.084   2.007   0.913  0.2226  0.0705 -0.0371
 7361ION    CL-11105   5.217   4.698   3.652  0.0123 -0.0839  0.0248
 7362ION    CL-11106   4.654   3.561   9.053 -0.2174 -0.1307  0.4586
 7363ION    CL-11107   3.798   2.012   9.099  0.0097  0.1084  0.0195
 7364ION    CL-11108   3.356   0.089   0.246  0.2009  0.0057 -0.0736
 7365ION    CL-11109   1.163   8.178   9.559  0.0217 -0.0526  0.2010
 7366ION    CL-11110   0.286   0.230  11.698 -0.1080 -0.1102 -0.1079
 7367ION    CL-11111   8.724   9.266   9.980  0.0885 -0.0723 -0.2513
 7368ION    CL-11112   3.060   4.943   9.255  0.1863  0.1136  0.1158
 7369ION    CL-11113   8.296   3.896  10.954  0.1110 -0.1367 -0.1779
 7370ION    CL-11114   8.187   5.271   9.973  0.3535 -0.2763 -0.1891
 7371ION    CL-11115   2.896   5.878   2.839 -0.3905 -0.1468  0.1379
 7372ION    CL-11116   2.153   1.824   3.773 -0.3283 -0.0668  0.0054
 7373ION    CL-11117   8.335   7.403   3.138  0.0459  0.1225  0.0086
 7374ION    CL-11118   1.158   6.915   1.307 -0.3175 -0.1232  0.1578
 7375ION    CL-11119   7.281   9.060   2.125 -0.0293  0.0920 -0.2799
 7376ION    CL-11120   3.322   6.348  12.866  0.2252 -0.2113  0.1786
 7377ION    CL-11121   2.214   6.682   2.170 -0.0662  0.1163 -0.1174
 7378ION    CL-11122   1.332   2.680   9.608 -0.0379  0.2484  0.1514
 7379ION    CL-11123   7.260   0.231   9.800 -0.0737 -0.2092  0.3066
 7380ION    CL-11124   6.546   3.259  11.872  0.0749 -0.0330  0.2477
 7381ION    CL-11125   5.327   0.882   2.009 -0.1395  0.1393  0.0727
   9.92452   9.92452  12.88221
