Protein in INSANE! Membrane UpperLeaflet>POPC=1.0 LowerLeaflet>POPC=1.0
12914
    1AU     AUC    1   5.745   5.830   6.009
    1AU     AUC    2   6.012   5.848   5.828
    1AU     AUC    3   6.018   5.832   6.177
    1AU     AUC    4   5.459   5.815   5.841
    1AU     AUC    5   5.492   5.859   6.200
    1AU     AUC    6   5.562   6.097   6.011
    1AU     AUC    7   5.931   6.109   5.995
    1AU     AUC    8   5.564   5.563   6.017
    1AU     AUC    9   5.911   5.548   6.011
    1AU     AUC   10   5.756   5.666   6.291
    1AU     AUC   11   5.743   6.002   6.277
    1AU     AUC   12   5.734   5.662   5.734
    1AU     AUC   13   5.751   5.978   5.732
    1AU     AUC   14   6.322   5.854   5.648
    1AU     AUC   15   6.355   5.810   6.008
    1AU     AUC   16   6.310   5.818   6.348
    1AU     AUC   17   5.153   5.796   5.669
    1AU     AUC   18   5.134   5.845   6.032
    1AU     AUC   19   5.191   5.874   6.394
    1AU     AUC   20   5.385   6.403   5.995
    1AU     AUC   21   5.740   6.433   5.966
    1AU     AUC   22   6.117   6.398   5.980
    1AU     AUC   23   5.359   5.271   6.028
    1AU     AUC   24   5.721   5.231   6.007
    1AU     AUC   25   6.078   5.249   6.000
    1AU     AUC   26   5.748   5.497   6.587
    1AU     AUC   27   5.787   5.865   6.626
    1AU     AUC   28   5.769   6.195   6.561
    1AU     AUC   29   5.762   5.481   5.459
    1AU     AUC   30   5.740   5.817   5.393
    1AU     AUC   31   5.722   6.145   5.427
    1AU     AUC   32   6.042   5.651   6.505
    1AU     AUC   33   6.071   6.020   6.488
    1AU     AUC   34   6.065   5.694   5.491
    1AU     AUC   35   6.051   6.012   5.526
    1AU     AUC   36   5.451   5.689   6.531
    1AU     AUC   37   5.469   6.044   6.506
    1AU     AUC   38   5.438   5.623   5.549
    1AU     AUC   39   5.410   5.949   5.501
    1AU     AUC   40   6.275   6.121   5.845
    1AU     AUC   41   6.248   6.128   6.171
    1AU     AUC   42   5.251   6.110   5.828
    1AU     AUC   43   5.256   6.160   6.195
    1AU     AUC   44   6.211   5.539   5.826
    1AU     AUC   45   6.195   5.488   6.192
    1AU     AUC   46   5.228   5.501   5.860
    1AU     AUC   47   5.291   5.565   6.217
    1AU     AUC   48   5.557   6.357   6.281
    1AU     AUC   49   5.925   6.315   6.249
    1AU     AUC   50   5.546   5.363   6.313
    1AU     AUC   51   5.890   5.324   6.295
    1AU     AUC   52   5.558   6.254   5.694
    1AU     AUC   53   5.939   6.307   5.698
    1AU     AUC   54   5.554   5.344   5.725
    1AU     AUC   55   5.946   5.376   5.713
    1AU    AUSL   56   6.334   5.793   6.695
    1AU    AUSL   57   6.049   5.340   6.690
    1AU     AUL   58   6.376   5.380   6.837
    1AU       S   59   6.365   4.940   6.693
    1AU     LIG   60   6.175   4.677   6.947
    1AU     LIG   61   6.384   4.376   7.188
    1AU     LIG   62   6.634   4.118   7.448
    1AU     LIG   63   6.853   3.934   7.807
    1AU     LIG   64   6.899   3.634   8.159
    1AU       S   65   6.593   5.774   6.757
    1AU     LIG   66   6.571   5.690   7.222
    1AU     LIG   67   6.625   5.491   7.665
    1AU     LIG   68   6.859   5.402   8.086
    1AU     LIG   69   7.217   5.492   8.415
    1AU     LIG   70   7.490   5.617   8.796
    1AU    AUSL   71   5.951   5.699   6.900
    1AU    AUSL   72   5.644   6.021   6.925
    1AU     AUL   73   5.859   6.003   7.247
    1AU       S   74   6.095   5.653   7.068
    1AU     LIG   75   5.958   5.461   7.425
    1AU     LIG   76   6.175   5.252   7.801
    1AU     LIG   77   6.424   5.072   8.175
    1AU     LIG   78   6.448   4.857   8.610
    1AU     LIG   79   6.468   4.875   9.083
    1AU       S   80   5.493   5.739   7.178
    1AU     LIG   81   5.496   5.597   7.636
    1AU     LIG   82   5.205   5.623   7.999
    1AU     LIG   83   5.007   5.683   8.420
    1AU     LIG   84   5.069   5.953   8.825
    1AU     LIG   85   5.048   6.076   9.286
    1AU    AUSL   86   6.048   6.126   6.841
    1AU    AUSL   87   6.402   6.200   6.563
    1AU     AUL   88   6.335   6.082   6.972
    1AU       S   89   5.918   6.413   6.968
    1AU     LIG   90   6.159   6.401   7.349
    1AU     LIG   91   6.366   6.483   7.778
    1AU     LIG   92   6.345   6.513   8.272
    1AU     LIG   93   6.383   6.677   8.721
    1AU     LIG   94   6.644   6.761   9.098
    1AU       S   95   6.446   6.470   6.738
    1AU     LIG   96   6.842   6.265   6.801
    1AU     LIG   97   7.158   6.423   7.122
    1AU     LIG   98   7.433   6.623   7.456
    1AU     LIG   99   7.721   6.745   7.816
    1AU     LIG  100   8.167   6.797   7.998
    1AU    AUSL  101   6.269   5.987   5.242
    1AU    AUSL  102   6.037   6.290   5.473
    1AU     AUL  103   6.138   6.370   5.121
    1AU       S  104   6.219   6.032   4.820
    1AU     LIG  105   6.604   5.901   4.612
    1AU     LIG  106   6.708   5.635   4.255
    1AU     LIG  107   6.831   5.490   3.827
    1AU     LIG  108   7.189   5.413   3.515
    1AU     LIG  109   7.624   5.470   3.312
    1AU       S  110   6.504   6.536   5.364
    1AU     LIG  111   6.635   6.695   4.935
    1AU     LIG  112   6.884   6.790   4.513
    1AU     LIG  113   7.157   6.934   4.146
    1AU     LIG  114   7.459   7.078   3.804
    1AU     LIG  115   7.759   7.342   3.540
    1AU    AUSL  116   6.048   5.637   5.103
    1AU    AUSL  117   6.407   5.610   5.411
    1AU     AUL  118   6.454   5.731   5.103
    1AU       S  119   6.580   5.283   5.184
    1AU     LIG  120   6.700   4.847   4.958
    1AU     LIG  121   6.923   4.445   4.858
    1AU     LIG  122   7.197   4.177   4.591
    1AU     LIG  123   7.511   4.257   4.232
    1AU     LIG  124   7.969   4.364   4.112
    1AU       S  125   6.127   5.872   4.785
    1AU     LIG  126   6.263   5.505   4.583
    1AU     LIG  127   6.350   5.278   4.161
    1AU     LIG  128   6.394   5.240   3.681
    1AU     LIG  129   6.522   5.110   3.230
    1AU     LIG  130   6.719   4.918   2.824
    1AU    AUSL  131   5.838   6.014   5.198
    1AU    AUSL  132   5.633   5.611   5.235
    1AU     AUL  133   5.787   5.615   4.954
    1AU       S  134   5.352   5.631   4.797
    1AU     LIG  135   5.426   5.451   4.404
    1AU     LIG  136   5.166   5.200   4.104
    1AU     LIG  137   4.940   5.154   3.694
    1AU     LIG  138   4.949   4.958   3.256
    1AU     LIG  139   4.938   4.965   2.779
    1AU       S  140   5.880   6.070   4.863
    1AU     LIG  141   5.879   5.884   4.377
    1AU     LIG  142   6.238   5.770   4.051
    1AU     LIG  143   6.427   5.748   3.597
    1AU     LIG  144   6.512   5.813   3.128
    1AU     LIG  145   6.495   6.101   2.749
    1AU    AUSL  146   5.242   5.933   6.788
    1AU    AUSL  147   5.514   6.282   6.616
    1AU     AUL  148   5.388   6.232   6.973
    1AU       S  149   5.315   5.853   7.248
    1AU     LIG  150   4.994   5.648   7.486
    1AU     LIG  151   4.730   5.495   7.850
    1AU     LIG  152   4.547   5.432   8.278
    1AU     LIG  153   4.156   5.376   8.541
    1AU     LIG  154   3.859   5.565   8.859
    1AU       S  155   5.066   6.517   6.747
    1AU     LIG  156   5.126   6.661   7.167
    1AU     LIG  157   4.950   6.928   7.521
    1AU     LIG  158   4.840   7.309   7.788
    1AU     LIG  159   4.669   7.431   8.225
    1AU     LIG  160   4.551   7.564   8.679
    1AU    AUSL  161   5.566   5.646   6.707
    1AU    AUSL  162   5.095   5.565   6.616
    1AU     AUL  163   5.126   5.632   6.888
    1AU       S  164   4.922   5.206   6.759
    1AU     LIG  165   4.513   5.023   6.675
    1AU     LIG  166   4.177   4.767   6.872
    1AU     LIG  167   3.966   4.563   7.236
    1AU     LIG  168   3.776   4.347   7.609
    1AU     LIG  169   3.429   4.319   7.941
    1AU       S  170   5.547   5.566   7.090
    1AU     LIG  171   5.292   5.274   7.294
    1AU     LIG  172   5.137   5.190   7.726
    1AU     LIG  173   4.988   5.170   8.180
    1AU     LIG  174   4.894   4.972   8.602
    1AU     LIG  175   4.930   4.923   9.071
    1AU    AUSL  176   5.204   5.667   5.282
    1AU    AUSL  177   5.423   5.314   5.461
    1AU     AUL  178   5.454   5.314   5.136
    1AU       S  179   5.175   5.565   4.861
    1AU     LIG  180   4.920   5.539   4.485
    1AU     LIG  181   4.708   5.436   4.090
    1AU     LIG  182   4.575   5.568   3.675
    1AU     LIG  183   4.259   5.630   3.325
    1AU     LIG  184   3.909   5.649   2.989
    1AU       S  185   5.042   5.173   5.295
    1AU     LIG  186   4.742   4.900   5.063
    1AU     LIG  187   4.498   4.529   4.921
    1AU     LIG  188   4.322   4.279   4.563
    1AU     LIG  189   4.207   4.071   4.150
    1AU     LIG  190   4.284   3.861   3.726
    1AU    AUSL  191   5.426   5.991   5.097
    1AU    AUSL  192   5.071   6.069   5.409
    1AU     AUL  193   4.998   5.893   5.125
    1AU       S  194   5.091   6.338   5.170
    1AU     LIG  195   4.717   6.471   5.034
    1AU     LIG  196   4.596   6.732   4.678
    1AU     LIG  197   4.363   6.830   4.276
    1AU     LIG  198   3.979   6.895   3.987
    1AU     LIG  199   3.658   7.127   3.724
    1AU       S  200   5.402   5.908   4.867
    1AU     LIG  201   5.240   5.952   4.432
    1AU     LIG  202   5.151   5.712   4.039
    1AU     LIG  203   5.075   5.659   3.583
    1AU     LIG  204   5.089   5.817   3.130
    1AU     LIG  205   4.900   5.947   2.710
    1AU    AUSL  206   6.554   6.299   6.004
    1AU    AUSL  207   6.428   6.128   5.612
    1AU     AUL  208   6.823   6.345   5.747
    1AU       S  209   6.517   6.341   5.416
    1AU     LIG  210   6.698   6.193   5.037
    1AU     LIG  211   7.039   6.369   4.760
    1AU     LIG  212   7.376   6.641   4.539
    1AU     LIG  213   7.661   6.889   4.259
    1AU     LIG  214   7.956   7.128   3.976
    1AU       S  215   7.015   6.196   6.160
    1AU     LIG  216   7.447   6.365   6.155
    1AU     LIG  217   7.896   6.443   6.038
    1AU     LIG  218   8.312   6.632   6.039
    1AU     LIG  219   8.618   6.923   6.213
    1AU     LIG  220   8.822   7.279   6.452
    1AU    AUSL  221   6.712   5.910   5.848
    1AU    AUSL  222   6.677   5.573   6.167
    1AU     AUL  223   6.972   5.623   5.911
    1AU       S  224   6.938   6.031   6.114
    1AU     LIG  225   7.370   5.936   5.897
    1AU     LIG  226   7.842   5.988   5.808
    1AU     LIG  227   8.285   6.177   5.752
    1AU     LIG  228   8.715   6.285   5.532
    1AU     LIG  229   9.112   6.353   5.303
    1AU       S  230   6.899   5.197   6.122
    1AU     LIG  231   7.289   5.006   6.279
    1AU     LIG  232   7.740   4.831   6.282
    1AU     LIG  233   8.216   4.698   6.279
    1AU     LIG  234   8.702   4.814   6.278
    1AU     LIG  235   9.160   4.746   6.459
    1AU    AUSL  236   6.472   5.942   6.234
    1AU    AUSL  237   6.311   6.533   6.273
    1AU     AUL  238   6.614   6.356   6.319
    1AU       S  239   6.509   6.736   6.583
    1AU     LIG  240   6.870   6.784   6.874
    1AU     LIG  241   7.183   6.993   7.170
    1AU     LIG  242   7.362   7.415   7.358
    1AU     LIG  243   7.537   7.885   7.376
    1AU     LIG  244   7.915   8.148   7.527
    1AU       S  245   6.846   5.956   6.368
    1AU     LIG  246   7.336   5.914   6.423
    1AU     LIG  247   7.803   6.014   6.322
    1AU     LIG  248   8.271   6.174   6.297
    1AU     LIG  249   8.614   6.476   6.495
    1AU     LIG  250   9.030   6.618   6.680
    1AU    AUSL  251   5.048   6.371   6.036
    1AU    AUSL  252   5.134   6.151   6.434
    1AU     AUL  253   4.812   6.468   6.285
    1AU       S  254   4.989   6.297   6.674
    1AU     LIG  255   4.905   6.180   7.115
    1AU     LIG  256   4.738   6.444   7.478
    1AU     LIG  257   4.448   6.682   7.788
    1AU     LIG  258   4.091   6.771   8.110
    1AU     LIG  259   3.741   6.945   8.386
    1AU       S  260   5.040   6.756   5.964
    1AU     LIG  261   4.599   6.696   5.858
    1AU     LIG  262   4.179   6.949   5.881
    1AU     LIG  263   3.797   7.261   5.928
    1AU     LIG  264   3.378   7.523   5.929
    1AU     LIG  265   2.968   7.786   5.963
    1AU    AUSL  266   5.026   5.993   5.821
    1AU    AUSL  267   5.159   6.445   5.632
    1AU     AUL  268   4.860   6.299   5.658
    1AU       S  269   4.676   5.824   5.479
    1AU     LIG  270   4.282   6.081   5.522
    1AU     LIG  271   3.846   6.196   5.320
    1AU     LIG  272   3.364   6.214   5.431
    1AU     LIG  273   2.973   6.506   5.385
    1AU     LIG  274   2.604   6.695   5.140
    1AU       S  275   4.961   6.713   5.420
    1AU     LIG  276   4.972   6.955   5.011
    1AU     LIG  277   4.941   7.394   4.786
    1AU     LIG  278   4.790   7.862   4.706
    1AU     LIG  279   4.515   8.234   4.543
    1AU     LIG  280   4.207   8.608   4.481
    1AU    AUSL  281   4.796   6.020   6.215
    1AU    AUSL  282   4.772   5.664   5.903
    1AU     AUL  283   4.631   5.997   5.927
    1AU       S  284   4.501   5.572   6.111
    1AU     LIG  285   4.288   5.580   5.717
    1AU     LIG  286   3.905   5.355   5.595
    1AU     LIG  287   3.449   5.202   5.612
    1AU     LIG  288   2.968   5.140   5.727
    1AU     LIG  289   2.523   5.055   5.567
    1AU       S  290   4.682   5.975   6.439
    1AU     LIG  291   4.198   6.041   6.448
    1AU     LIG  292   3.761   6.159   6.678
    1AU     LIG  293   3.374   6.444   6.764
    1AU     LIG  294   2.886   6.412   6.759
    1AU     LIG  295   2.423   6.532   6.643
    1AU    AUSL  296   6.416   5.250   6.031
    1AU    AUSL  297   6.299   5.520   6.376
    1AU     AUL  298   6.610   5.418   6.412
    1AU       S  299   6.583   5.085   6.027
    1AU     LIG  300   6.869   4.696   6.143
    1AU     LIG  301   7.334   4.526   6.087
    1AU     LIG  302   7.792   4.356   6.089
    1AU     LIG  303   8.208   4.157   6.201
    1AU     LIG  304   8.451   3.787   6.397
    1AU       S  305   6.534   4.984   6.525
    1AU     LIG  306   6.735   4.621   6.760
    1AU     LIG  307   6.913   4.379   7.104
    1AU     LIG  308   7.153   4.127   7.422
    1AU     LIG  309   7.452   4.122   7.789
    1AU     LIG  310   7.865   4.142   8.031
    1AU    AUSL  311   6.396   5.632   5.831
    1AU    AUSL  312   6.355   5.216   5.608
    1AU     AUL  313   6.621   5.445   5.655
    1AU       S  314   6.849   5.142   5.901
    1AU     LIG  315   7.246   4.931   5.773
    1AU     LIG  316   7.706   4.756   5.772
    1AU     LIG  317   8.171   4.572   5.790
    1AU     LIG  318   8.656   4.653   5.762
    1AU     LIG  319   9.016   4.699   5.436
    1AU       S  320   6.549   5.079   5.365
    1AU     LIG  321   6.417   4.629   5.396
    1AU     LIG  322   6.651   4.245   5.255
    1AU     LIG  323   6.836   3.928   4.945
    1AU     LIG  324   7.162   3.606   4.815
    1AU     LIG  325   7.468   3.236   4.688
    1AU    AUSL  326   4.964   5.303   6.074
    1AU    AUSL  327   5.105   5.531   5.671
    1AU     AUL  328   4.758   5.377   5.769
    1AU       S  329   4.929   5.303   5.351
    1AU     LIG  330   4.480   5.233   5.369
    1AU     LIG  331   4.208   4.913   5.167
    1AU     LIG  332   4.009   4.649   4.809
    1AU     LIG  333   3.807   4.315   4.523
    1AU     LIG  334   3.487   4.114   4.225
    1AU       S  335   4.531   5.281   6.175
    1AU     LIG  336   4.284   5.075   5.840
    1AU     LIG  337   3.832   4.884   5.802
    1AU     LIG  338   3.363   4.798   5.961
    1AU     LIG  339   3.049   4.584   6.268
    1AU     LIG  340   2.623   4.364   6.368
    1AU    AUSL  341   5.077   5.709   6.217
    1AU    AUSL  342   5.303   5.325   6.327
    1AU     AUL  343   4.888   5.489   6.392
    1AU       S  344   5.007   5.063   6.519
    1AU     LIG  345   4.795   4.726   6.366
    1AU     LIG  346   4.505   4.452   6.613
    1AU     LIG  347   4.170   4.234   6.893
    1AU     LIG  348   3.854   4.021   7.191
    1AU     LIG  349   3.547   3.641   7.262
    1AU       S  350   4.463   5.590   6.252
    1AU     LIG  351   4.006   5.702   6.117
    1AU     LIG  352   3.602   5.576   5.963
    1AU     LIG  353   3.317   5.288   6.098
    1AU     LIG  354   2.948   5.089   6.241
    1AU     LIG  355   2.631   4.874   6.467
    1AU    AUSL  356   5.718   6.643   6.490
    1AU    AUSL  357   5.302   6.540   6.340
    1AU     AUL  358   5.525   6.618   6.731
    1AU       S  359   5.176   6.731   6.443
    1AU     LIG  360   5.228   7.030   6.804
    1AU     LIG  361   5.021   7.305   7.157
    1AU     LIG  362   4.766   7.661   7.365
    1AU     LIG  363   4.462   8.045   7.410
    1AU     LIG  364   4.084   8.347   7.501
    1AU       S  365   5.706   6.989   6.481
    1AU     LIG  366   5.891   7.046   6.857
    1AU     LIG  367   5.997   7.484   7.026
    1AU     LIG  368   5.906   7.846   7.337
    1AU     LIG  369   5.983   8.094   7.760
    1AU     LIG  370   5.956   8.469   8.069
    1AU    AUSL  371   5.538   6.785   6.090
    1AU    AUSL  372   5.895   6.740   5.719
    1AU     AUL  373   5.602   6.988   5.827
    1AU       S  374   5.737   7.073   6.269
    1AU     LIG  375   5.771   7.481   6.556
    1AU     LIG  376   5.618   7.868   6.813
    1AU     LIG  377   5.422   8.315   6.867
    1AU     LIG  378   5.354   8.802   6.897
    1AU     LIG  379   5.395   9.256   6.769
    1AU       S  380   5.798   7.042   5.403
    1AU     LIG  381   6.146   7.317   5.408
    1AU     LIG  382   6.264   7.766   5.268
    1AU     LIG  383   6.568   8.164   5.239
    1AU     LIG  384   6.733   8.631   5.189
    1AU     LIG  385   6.602   9.074   5.069
    1AU    AUSL  386   5.923   6.571   6.110
    1AU    AUSL  387   5.987   6.317   6.479
    1AU     AUL  388   6.050   6.670   6.503
    1AU       S  389   6.341   6.583   6.850
    1AU     LIG  390   6.635   6.487   7.217
    1AU     LIG  391   6.920   6.698   7.512
    1AU     LIG  392   7.211   7.032   7.696
    1AU     LIG  393   7.251   7.417   7.977
    1AU     LIG  394   7.194   7.621   8.411
    1AU       S  395   5.991   6.950   6.143
    1AU     LIG  396   6.210   7.193   6.483
    1AU     LIG  397   6.371   7.639   6.637
    1AU     LIG  398   6.702   8.037   6.651
    1AU     LIG  399   6.842   8.497   6.758
    1AU     LIG  400   6.897   8.914   6.946
    1AU    AUSL  401   5.715   5.191   6.456
    1AU    AUSL  402   6.134   5.121   6.323
    1AU     AUL  403   5.912   5.053   6.709
    1AU       S  404   5.798   4.640   6.531
    1AU     LIG  405   5.594   4.406   6.837
    1AU     LIG  406   5.460   3.970   6.807
    1AU     LIG  407   5.532   3.535   6.958
    1AU     LIG  408   5.540   3.302   7.384
    1AU     LIG  409   5.552   3.248   7.873
    1AU       S  410   6.274   4.951   6.399
    1AU     LIG  411   6.308   4.474   6.495
    1AU     LIG  412   6.559   4.133   6.775
    1AU     LIG  413   6.890   3.868   7.034
    1AU     LIG  414   7.014   3.411   7.158
    1AU     LIG  415   7.339   3.076   7.334
    1AU    AUSL  416   5.392   4.938   6.197
    1AU    AUSL  417   5.413   5.257   6.750
    1AU     AUL  418   5.457   4.974   6.539
    1AU       S  419   5.549   4.552   6.354
    1AU     LIG  420   5.169   4.387   6.528
    1AU     LIG  421   5.024   3.938   6.531
    1AU     LIG  422   5.105   3.471   6.610
    1AU     LIG  423   4.929   3.014   6.641
    1AU     LIG  424   4.891   2.666   6.953
    1AU       S  425   5.133   5.124   6.845
    1AU     LIG  426   4.889   4.708   6.882
    1AU     LIG  427   4.537   4.502   7.136
    1AU     LIG  428   4.285   4.213   7.427
    1AU     LIG  429   4.136   4.055   7.854
    1AU     LIG  430   4.199   3.875   8.297
    1AU    AUSL  431   5.823   4.900   6.143
    1AU    AUSL  432   5.579   5.124   5.849
    1AU     AUL  433   5.487   4.773   5.942
    1AU       S  434   5.886   4.668   5.735
    1AU     LIG  435   5.604   4.285   5.770
    1AU     LIG  436   5.400   3.872   5.559
    1AU     LIG  437   5.159   3.443   5.448
    1AU     LIG  438   4.916   2.999   5.385
    1AU     LIG  439   4.766   2.618   5.104
    1AU       S  440   5.850   4.709   6.270
    1AU     LIG  441   5.921   4.243   6.211
    1AU     LIG  442   5.897   3.853   6.501
    1AU     LIG  443   6.076   3.447   6.707
    1AU     LIG  444   6.185   2.977   6.792
    1AU     LIG  445   6.138   2.479   6.744
    1AU    AUSL  446   5.714   6.542   5.364
    1AU    AUSL  447   6.251   6.508   5.785
    1AU     AUL  448   6.071   6.678   5.464
    1AU       S  449   5.700   6.735   5.167
    1AU     LIG  450   6.089   6.950   5.014
    1AU     LIG  451   6.062   7.418   4.911
    1AU     LIG  452   6.040   7.751   4.568
    1AU     LIG  453   6.090   8.034   4.194
    1AU     LIG  454   6.010   8.458   4.067
    1AU       S  455   6.490   6.659   5.658
    1AU     LIG  456   6.935   6.743   5.387
    1AU     LIG  457   7.138   6.866   4.956
    1AU     LIG  458   7.301   7.183   4.613
    1AU     LIG  459   7.497   7.656   4.601
    1AU     LIG  460   7.681   8.126   4.665
    1AU    AUSL  461   5.549   6.490   5.793
    1AU    AUSL  462   5.482   6.206   5.458
    1AU     AUL  463   5.405   6.647   5.544
    1AU       S  464   5.600   7.007   5.347
    1AU     LIG  465   5.669   7.509   5.263
    1AU     LIG  466   5.654   7.999   5.248
    1AU     LIG  467   5.372   8.403   5.274
    1AU     LIG  468   5.310   8.892   5.368
    1AU     LIG  469   5.311   9.367   5.228
    1AU       S  470   5.269   6.446   5.149
    1AU     LIG  471   5.124   6.566   4.713
    1AU     LIG  472   5.005   6.949   4.448
    1AU     LIG  473   5.007   7.154   4.007
    1AU     LIG  474   4.915   7.401   3.599
    1AU     LIG  475   4.621   7.747   3.440
    1AU    AUSL  476   5.767   5.056   5.457
    1AU    AUSL  477   5.169   5.096   5.754
    1AU     AUL  478   5.432   4.947   5.505
    1AU       S  479   4.966   5.031   5.529
    1AU     LIG  480   4.582   4.755   5.532
    1AU     LIG  481   4.256   4.443   5.366
    1AU     LIG  482   4.061   4.180   5.011
    1AU     LIG  483   3.737   3.880   4.813
    1AU     LIG  484   3.405   3.518   4.808
    1AU       S  485   5.835   4.694   5.582
    1AU     LIG  486   5.934   4.343   5.311
    1AU     LIG  487   5.731   3.954   5.156
    1AU     LIG  488   5.509   3.551   5.062
    1AU     LIG  489   5.484   3.220   4.720
    1AU     LIG  490   5.634   2.989   4.331
    1AU    AUSL  491   6.013   5.112   5.829
    1AU    AUSL  492   5.999   5.413   5.456
    1AU     AUL  493   6.089   5.046   5.429
    1AU       S  494   6.143   4.778   5.816
    1AU     LIG  495   6.182   4.281   5.754
    1AU     LIG  496   5.918   3.910   5.635
    1AU     LIG  497   5.952   3.520   5.345
    1AU     LIG  498   6.214   3.171   5.130
    1AU     LIG  499   6.537   2.815   5.195
    1AU       S  500   6.324   5.249   5.093
    1AU     LIG  501   6.189   4.818   4.983
    1AU     LIG  502   6.400   4.409   4.837
    1AU     LIG  503   6.670   4.157   4.506
    1AU     LIG  504   6.975   4.156   4.129
    1AU     LIG  505   7.147   3.971   3.734
    2POPC   NC3  506   1.973   8.016   8.258
    2POPC   PO4  507   2.456   8.397   8.271
    2POPC   GL1  508   2.325   8.298   7.815
    2POPC   GL2  509   2.193   7.934   7.773
    2POPC   C1A  510   2.262   8.231   7.340
    2POPC   D2A  511   2.182   8.405   6.906
    2POPC   C3A  512   2.238   8.296   6.449
    2POPC   C4A  513   2.390   8.453   6.022
    2POPC   C1B  514   1.850   7.893   7.428
    2POPC   C2B  515   1.687   7.785   7.010
    2POPC   C3B  516   1.725   7.829   6.569
    2POPC   C4B  517   1.721   8.162   6.265
    3POPC   NC3  518   1.939   2.677   8.290
    3POPC   PO4  519   1.650   3.233   7.974
    3POPC   GL1  520   1.837   2.978   7.668
    3POPC   GL2  521   2.131   2.987   7.874
    3POPC   C1A  522   1.793   2.730   7.242
    3POPC   D2A  523   1.777   2.549   6.804
    3POPC   C3A  524   1.629   2.873   6.490
    3POPC   C4A  525   1.743   2.978   6.082
    3POPC   C1B  526   2.275   2.895   7.430
    3POPC   C2B  527   2.395   2.813   7.032
    3POPC   C3B  528   2.277   2.610   6.685
    3POPC   C4B  529   2.124   2.798   6.362
    4POPC   NC3  530   8.141   9.778   8.028
    4POPC   PO4  531   8.318   9.138   8.160
    4POPC   GL1  532   8.402   9.389   7.788
    4POPC   GL2  533   8.088   9.569   7.575
    4POPC   C1A  534   8.488   9.331   7.371
    4POPC   D2A  535   8.236   9.543   7.043
    4POPC   C3A  536   8.375   9.612   6.625
    4POPC   C4A  537   8.387   9.395   6.203
    4POPC   C1B  538   7.807   9.835   7.297
    4POPC   C2B  539   7.676  10.024   6.884
    4POPC   C3B  540   7.659   9.870   6.462
    4POPC   C4B  541   7.989   9.675   6.291
    5POPC   NC3  542   1.936   0.541   7.972
    5POPC   PO4  543   1.525   0.027   8.078
    5POPC   GL1  544   1.623   0.134   7.641
    5POPC   GL2  545   1.947   0.312   7.535
    5POPC   C1A  546   1.711   0.063   7.193
    5POPC   D2A  547   1.885   0.343   6.902
    5POPC   C3A  548   1.897   0.182   6.507
    5POPC   C4A  549   1.713   0.188   6.123
    5POPC   C1B  550   1.917   0.705   7.273
    5POPC   C2B  551   1.820   0.839   6.815
    5POPC   C3B  552   2.009   0.697   6.382
    5POPC   C4B  553   1.915   0.585   5.917
    6POPC   NC3  554   7.217   9.399   8.028
    6POPC   PO4  555   7.663   9.887   8.061
    6POPC   GL1  556   7.514   9.685   7.697
    6POPC   GL2  557   7.178   9.862   7.713
    6POPC   C1A  558   7.586   9.385   7.318
    6POPC   D2A  559   7.730   9.503   6.869
    6POPC   C3A  560   7.618   9.335   6.439
    6POPC   C4A  561   7.758   9.359   5.970
    6POPC   C1B  562   7.226   9.741   7.285
    6POPC   C2B  563   7.233   9.703   6.886
    6POPC   C3B  564   7.169   9.541   6.506
    6POPC   C4B  565   7.250   9.673   6.118
    7POPC   NC3  566  10.903   0.383   8.024
    7POPC   PO4  567   0.074   0.735   8.060
    7POPC   GL1  568   0.134   0.536   7.697
    7POPC   GL2  569  11.301   0.445   7.629
    7POPC   C1A  570   0.144   0.692   7.302
    7POPC   D2A  571  11.308   0.630   7.032
    7POPC   C3A  572  11.449   0.510   6.639
    7POPC   C4A  573  11.264   0.549   6.250
    7POPC   C1B  574  10.932   0.375   7.350
    7POPC   C2B  575  10.830   0.484   6.925
    7POPC   C3B  576  10.900   0.308   6.535
    7POPC   C4B  577  10.648   0.114   6.201
    8POPC   NC3  578  10.563   7.288   8.083
    8POPC   PO4  579  10.590   7.949   8.110
    8POPC   GL1  580  10.655   7.666   7.728
    8POPC   GL2  581  10.351   7.465   7.672
    8POPC   C1A  582  10.676   7.521   7.267
    8POPC   D2A  583  10.653   7.685   6.842
    8POPC   C3A  584  10.478   7.457   6.485
    8POPC   C4A  585  10.653   7.475   6.080
    8POPC   C1B  586  10.172   7.346   7.306
    8POPC   C2B  587  10.320   7.221   6.917
    8POPC   C3B  588  10.114   7.089   6.567
    8POPC   C4B  589   9.957   7.395   6.284
    9POPC   NC3  590   1.891   8.936   7.961
    9POPC   PO4  591   1.818   8.300   7.931
    9POPC   GL1  592   1.940   8.567   7.588
    9POPC   GL2  593   2.270   8.784   7.624
    9POPC   C1A  594   1.770   8.375   7.210
    9POPC   D2A  595   1.711   8.290   6.780
    9POPC   C3A  596   1.824   8.611   6.465
    9POPC   C4A  597   1.828   8.664   6.016
    9POPC   C1B  598   2.144   8.837   7.181
    9POPC   C2B  599   2.204   8.873   6.712
    9POPC   C3B  600   2.159   8.959   6.269
    9POPC   C4B  601   1.943   9.268   5.999
   10POPC   NC3  602   9.372   1.795   8.029
   10POPC   PO4  603   8.723   1.987   8.019
   10POPC   GL1  604   8.841   1.930   7.589
   10POPC   GL2  605   8.970   2.279   7.623
   10POPC   C1A  606   8.943   1.727   7.158
   10POPC   D2A  607   9.181   1.988   6.796
   10POPC   C3A  608   9.354   1.852   6.423
   10POPC   C4A  609   9.051   1.960   6.124
   10POPC   C1B  610   8.963   2.233   7.197
   10POPC   C2B  611   8.699   2.083   6.873
   10POPC   C3B  612   8.659   1.946   6.463
   10POPC   C4B  613   8.592   2.179   6.057
   11POPC   NC3  614  11.277   5.952   8.137
   11POPC   PO4  615  10.660   6.326   8.060
   11POPC   GL1  616  10.937   6.140   7.722
   11POPC   GL2  617  11.035   5.762   7.714
   11POPC   C1A  618  11.048   6.011   7.273
   11POPC   D2A  619  11.274   5.763   6.930
   11POPC   C3A  620  11.155   5.823   6.493
   11POPC   C4A  621  11.053   6.241   6.329
   11POPC   C1B  622  11.315   5.531   7.413
   11POPC   C2B  623  11.429   5.269   7.032
   11POPC   C3B  624  11.452   5.395   6.586
   11POPC   C4B  625  11.235   5.419   6.159
   12POPC   NC3  626   0.397   0.286   8.070
   12POPC   PO4  627   0.854   0.796   7.958
   12POPC   GL1  628   0.642   0.581   7.680
   12POPC   GL2  629   0.757   0.278   7.612
   12POPC   C1A  630   0.673   0.679   7.260
   12POPC   D2A  631   0.456   0.573   6.878
   12POPC   C3A  632   0.637   0.751   6.512
   12POPC   C4A  633   0.784   0.684   6.076
   12POPC   C1B  634   0.416   0.236   7.305
   12POPC   C2B  635   0.233   0.097   6.893
   12POPC   C3B  636   0.401   0.220   6.484
   12POPC   C4B  637   0.274   0.567   6.219
   13POPC   NC3  638   2.969   2.872   8.142
   13POPC   PO4  639   2.390   2.751   8.261
   13POPC   GL1  640   2.596   2.796   7.802
   13POPC   GL2  641   2.813   2.560   7.703
   13POPC   C1A  642   2.774   2.932   7.352
   13POPC   D2A  643   2.768   3.173   6.956
   13POPC   C3A  644   2.666   2.965   6.601
   13POPC   C4A  645   2.871   2.681   6.357
   13POPC   C1B  646   2.637   2.435   7.313
   13POPC   C2B  647   2.736   2.454   6.866
   13POPC   C3B  648   2.587   2.268   6.483
   13POPC   C4B  649   2.455   2.470   6.131
   14POPC   NC3  650  11.296   8.774   8.005
   14POPC   PO4  651  10.646   8.897   7.838
   14POPC   GL1  652  10.876   8.637   7.567
   14POPC   GL2  653  11.205   8.769   7.514
   14POPC   C1A  654  10.906   8.689   7.115
   14POPC   D2A  655  11.243   8.729   6.823
   14POPC   C3A  656  10.999   8.853   6.487
   14POPC   C4A  657  10.895   8.766   6.070
   14POPC   C1B  658  11.413   9.066   7.237
   14POPC   C2B  659  11.300   9.262   6.840
   14POPC   C3B  660  11.478   9.108   6.496
   14POPC   C4B  661  11.378   8.838   6.143
   15POPC   NC3  662   8.620  11.359   8.013
   15POPC   PO4  663   9.078  10.967   8.292
   15POPC   GL1  664   8.930  11.025   7.790
   15POPC   GL2  665   9.009  11.266   7.548
   15POPC   C1A  666   8.746  10.877   7.349
   15POPC   D2A  667   8.862  11.090   6.931
   15POPC   C3A  668   8.944  10.924   6.489
   15POPC   C4A  669   8.976  10.968   6.024
   15POPC   C1B  670   8.587  11.366   7.334
   15POPC   C2B  671   8.477  11.415   6.904
   15POPC   C3B  672   8.732  11.414   6.516
   15POPC   C4B  673   9.153  11.400   6.357
   16POPC   NC3  674   6.908  11.369   7.869
   16POPC   PO4  675   6.879  10.682   8.073
   16POPC   GL1  676   6.665  10.863   7.674
   16POPC   GL2  677   6.638  11.211   7.474
   16POPC   C1A  678   6.795  10.810   7.253
   16POPC   D2A  679   6.758  11.061   6.870
   16POPC   C3A  680   6.712  10.822   6.448
   16POPC   C4A  681   6.508  11.011   6.049
   16POPC   C1B  682   6.313  11.350   7.166
   16POPC   C2B  683   6.211  11.175   6.757
   16POPC   C3B  684   6.530  11.305   6.481
   16POPC   C4B  685   6.534   0.083   6.194
   17POPC   NC3  686   0.518   8.093   8.128
   17POPC   PO4  687   0.018   7.693   7.837
   17POPC   GL1  688   0.217   8.050   7.660
   17POPC   GL2  689   0.570   8.132   7.632
   17POPC   C1A  690   0.216   8.111   7.230
   17POPC   D2A  691   0.468   8.071   6.890
   17POPC   C3A  692   0.221   8.067   6.519
   17POPC   C4A  693   0.188   8.222   6.109
   17POPC   C1B  694   0.658   8.411   7.316
   17POPC   C2B  695   0.753   8.512   6.897
   17POPC   C3B  696   0.875   8.210   6.603
   17POPC   C4B  697   0.685   7.984   6.286
   18POPC   NC3  698   4.015  11.064   7.917
   18POPC   PO4  699   4.659  11.429   8.042
   18POPC   GL1  700   4.417  11.462   7.671
   18POPC   GL2  701   4.397  11.128   7.605
   18POPC   C1A  702   4.410  11.433   7.180
   18POPC   D2A  703   4.274   0.079   6.763
   18POPC   C3A  704   4.213  11.320   6.393
   18POPC   C4A  705   4.223  11.378   5.936
   18POPC   C1B  706   4.316  10.926   7.236
   18POPC   C2B  707   4.347  11.034   6.813
   18POPC   C3B  708   4.595  10.896   6.472
   18POPC   C4B  709   4.434  10.928   6.082
   19POPC   NC3  710   5.827  11.145   8.025
   19POPC   PO4  711   6.524  11.226   8.088
   19POPC   GL1  712   6.232  11.099   7.737
   19POPC   GL2  713   6.073  11.408   7.640
   19POPC   C1A  714   6.203  10.874   7.294
   19POPC   D2A  715   5.848  10.781   6.976
   19POPC   C3A  716   5.785  10.890   6.528
   19POPC   C4A  717   6.015  11.097   6.199
   19POPC   C1B  718   5.804  11.252   7.313
   19POPC   C2B  719   5.690  11.248   6.888
   19POPC   C3B  720   5.682  11.385   6.496
   19POPC   C4B  721   5.468   0.114   6.237
   20POPC   NC3  722   6.456   0.974   8.137
   20POPC   PO4  723   6.252   1.602   8.002
   20POPC   GL1  724   6.467   1.327   7.697
   20POPC   GL2  725   6.492   0.981   7.646
   20POPC   C1A  726   6.558   1.384   7.265
   20POPC   D2A  727   6.530   1.606   6.868
   20POPC   C3A  728   6.384   1.425   6.481
   20POPC   C4A  729   6.300   1.381   6.026
   20POPC   C1B  730   6.772   0.913   7.332
   20POPC   C2B  731   6.694   1.041   6.914
   20POPC   C3B  732   6.872   1.001   6.536
   20POPC   C4B  733   6.736   1.152   6.176
   21POPC   NC3  734   0.393   6.299   8.140
   21POPC   PO4  735   0.616   6.991   8.019
   21POPC   GL1  736   0.333   6.789   7.725
   21POPC   GL2  737   0.454   6.452   7.653
   21POPC   C1A  738   0.117   6.725   7.311
   21POPC   D2A  739   0.223   6.509   6.925
   21POPC   C3A  740   0.061   6.732   6.586
   21POPC   C4A  741   0.210   6.870   6.170
   21POPC   C1B  742   0.603   6.577   7.257
   21POPC   C2B  743   0.733   6.424   6.837
   21POPC   C3B  744   0.552   6.552   6.431
   21POPC   C4B  745   0.511   6.430   5.987
   22POPC   NC3  746   2.380   6.247   8.154
   22POPC   PO4  747   2.234   6.860   8.094
   22POPC   GL1  748   1.915   6.864   7.802
   22POPC   GL2  749   1.893   6.523   7.715
   22POPC   C1A  750   1.881   6.959   7.385
   22POPC   D2A  751   1.908   6.762   6.971
   22POPC   C3A  752   2.083   6.943   6.596
   22POPC   C4A  753   2.215   6.741   6.197
   22POPC   C1B  754   2.048   6.278   7.331
   22POPC   C2B  755   1.883   6.249   6.894
   22POPC   C3B  756   1.900   6.451   6.489
   22POPC   C4B  757   1.789   6.353   6.060
   23POPC   NC3  758  11.089   7.737   8.024
   23POPC   PO4  759  10.941   8.459   8.122
   23POPC   GL1  760  10.915   8.158   7.752
   23POPC   GL2  761  11.247   8.262   7.679
   23POPC   C1A  762  11.058   7.881   7.366
   23POPC   D2A  763  11.151   7.619   6.983
   23POPC   C3A  764  11.068   7.807   6.552
   23POPC   C4A  765  11.053   7.957   6.127
   23POPC   C1B  766  11.256   8.338   7.232
   23POPC   C2B  767  11.306   8.205   6.808
   23POPC   C3B  768  11.257   8.374   6.385
   23POPC   C4B  769  11.243   8.375   5.927
   24POPC   NC3  770   0.128   4.234   8.356
   24POPC   PO4  771   0.742   4.400   8.331
   24POPC   GL1  772   0.395   4.255   7.898
   24POPC   GL2  773   0.316   4.523   7.651
   24POPC   C1A  774   0.351   4.097   7.390
   24POPC   D2A  775   0.506   4.158   6.938
   24POPC   C3A  776   0.319   4.022   6.531
   24POPC   C4A  777   0.375   4.088   6.060
   24POPC   C1B  778   0.591   4.544   7.272
   24POPC   C2B  779   0.606   4.647   6.811
   24POPC   C3B  780   0.419   4.520   6.415
   24POPC   C4B  781   0.082   4.517   6.112
   25POPC   NC3  782   1.153   1.153   8.076
   25POPC   PO4  783   1.523   1.654   8.054
   25POPC   GL1  784   1.221   1.541   7.708
   25POPC   GL2  785   1.178   1.177   7.587
   25POPC   C1A  786   1.244   1.554   7.243
   25POPC   D2A  787   1.020   1.450   6.852
   25POPC   C3A  788   1.238   1.573   6.504
   25POPC   C4A  789   1.349   1.436   6.117
   25POPC   C1B  790   1.129   1.011   7.178
   25POPC   C2B  791   1.171   0.962   6.760
   25POPC   C3B  792   1.074   1.063   6.364
   25POPC   C4B  793   1.189   0.987   5.948
   26POPC   NC3  794   1.221   9.654   8.146
   26POPC   PO4  795   1.644   9.291   7.792
   26POPC   GL1  796   1.454   9.686   7.598
   26POPC   GL2  797   1.162   9.863   7.704
   26POPC   C1A  798   1.405   9.767   7.170
   26POPC   D2A  799   1.230   9.422   6.955
   26POPC   C3A  800   1.324   9.394   6.542
   26POPC   C4A  801   1.245   9.539   6.169
   26POPC   C1B  802   0.949   9.694   7.378
   26POPC   C2B  803   0.928   9.846   6.975
   26POPC   C3B  804   1.121   9.853   6.600
   26POPC   C4B  805   0.861   9.844   6.244
   27POPC   NC3  806   5.300   2.542   8.222
   27POPC   PO4  807   5.473   1.945   8.093
   27POPC   GL1  808   5.375   1.730   7.699
   27POPC   GL2  809   5.736   1.720   7.550
   27POPC   C1A  810   5.297   1.891   7.260
   27POPC   D2A  811   5.608   2.024   6.935
   27POPC   C3A  812   5.488   2.078   6.492
   27POPC   C4A  813   5.728   2.152   6.108
   27POPC   C1B  814   5.621   1.518   7.167
   27POPC   C2B  815   5.529   1.570   6.710
   27POPC   C3B  816   5.878   1.741   6.452
   27POPC   C4B  817   6.159   1.842   6.112
   28POPC   NC3  818   7.720   0.287   7.967
   28POPC   PO4  819   7.161  11.445   8.259
   28POPC   GL1  820   7.170   0.286   7.808
   28POPC   GL2  821   7.344   0.614   7.782
   28POPC   C1A  822   7.253   0.175   7.315
   28POPC   D2A  823   6.989   0.063   6.942
   28POPC   C3A  824   7.110   0.001   6.512
   28POPC   C4A  825   7.026   0.151   6.076
   28POPC   C1B  826   7.242   0.674   7.336
   28POPC   C2B  827   7.409   0.507   6.932
   28POPC   C3B  828   7.468   0.368   6.495
   28POPC   C4B  829   7.296   0.581   6.116
   29POPC   NC3  830   8.005   8.794   8.138
   29POPC   PO4  831   8.591   8.601   8.142
   29POPC   GL1  832   8.357   8.816   7.742
   29POPC   GL2  833   8.027   9.056   7.715
   29POPC   C1A  834   8.039   8.651   7.398
   29POPC   D2A  835   7.885   8.782   6.962
   29POPC   C3A  836   8.137   8.647   6.613
   29POPC   C4A  837   8.005   8.543   6.211
   29POPC   C1B  838   8.029   9.140   7.291
   29POPC   C2B  839   8.355   9.005   7.005
   29POPC   C3B  840   8.375   9.089   6.601
   29POPC   C4B  841   8.017   9.060   6.306
   30POPC   NC3  842   6.365   9.609   8.210
   30POPC   PO4  843   6.826   9.172   8.085
   30POPC   GL1  844   6.750   9.558   7.781
   30POPC   GL2  845   6.427   9.780   7.718
   30POPC   C1A  846   6.727   9.623   7.307
   30POPC   D2A  847   6.777   9.478   6.872
   30POPC   C3A  848   6.711   9.746   6.488
   30POPC   C4A  849   6.790   9.413   6.160
   30POPC   C1B  850   6.218   9.710   7.334
   30POPC   C2B  851   6.322   9.717   6.929
   30POPC   C3B  852   6.196   9.659   6.528
   30POPC   C4B  853   6.176   9.824   6.153
   31POPC   NC3  854   2.359   5.391   8.217
   31POPC   PO4  855   3.059   5.328   8.171
   31POPC   GL1  856   2.728   5.496   7.839
   31POPC   GL2  857   2.607   5.844   7.863
   31POPC   C1A  858   2.680   5.533   7.346
   31POPC   D2A  859   2.850   5.426   6.898
   31POPC   C3A  860   2.677   5.485   6.467
   31POPC   C4A  861   2.895   5.565   6.061
   31POPC   C1B  862   2.627   6.027   7.424
   31POPC   C2B  863   2.727   5.926   6.965
   31POPC   C3B  864   2.677   6.001   6.493
   31POPC   C4B  865   2.288   6.162   6.278
   32POPC   NC3  866   8.077   2.078   8.214
   32POPC   PO4  867   7.885   1.572   7.831
   32POPC   GL1  868   8.121   1.791   7.562
   32POPC   GL2  869   8.309   2.042   7.751
   32POPC   C1A  870   8.449   1.635   7.292
   32POPC   D2A  871   8.503   1.592   6.841
   32POPC   C3A  872   8.066   1.616   6.646
   32POPC   C4A  873   7.807   1.590   6.249
   32POPC   C1B  874   8.431   2.143   7.343
   32POPC   C2B  875   8.219   1.988   6.982
   32POPC   C3B  876   8.148   2.127   6.576
   32POPC   C4B  877   8.222   1.869   6.215
   33POPC   NC3  878   4.600  10.959   8.051
   33POPC   PO4  879   4.203  10.385   8.256
   33POPC   GL1  880   4.519  10.280   7.765
   33POPC   GL2  881   4.272  10.370   7.480
   33POPC   C1A  882   4.719  10.305   7.317
   33POPC   D2A  883   4.652  10.627   6.971
   33POPC   C3A  884   4.746  10.408   6.567
   33POPC   C4A  885   4.751  10.521   6.138
   33POPC   C1B  886   4.012  10.118   7.237
   33POPC   C2B  887   3.909   9.969   6.830
   33POPC   C3B  888   3.936  10.151   6.398
   33POPC   C4B  889   4.278  10.441   6.310
   34POPC   NC3  890   7.413   8.161   8.006
   34POPC   PO4  891   6.833   8.266   7.989
   34POPC   GL1  892   7.136   8.477   7.672
   34POPC   GL2  893   7.480   8.417   7.570
   34POPC   C1A  894   7.121   8.468   7.210
   34POPC   D2A  895   7.254   8.197   6.839
   34POPC   C3A  896   7.131   8.295   6.397
   34POPC   C4A  897   6.794   8.137   6.129
   34POPC   C1B  898   7.635   8.376   7.157
   34POPC   C2B  899   7.733   8.340   6.716
   34POPC   C3B  900   7.627   8.212   6.303
   34POPC   C4B  901   7.684   8.323   5.863
   35POPC   NC3  902   0.994   6.763   7.895
   35POPC   PO4  903   0.933   6.126   8.154
   35POPC   GL1  904   1.026   6.302   7.703
   35POPC   GL2  905   1.373   6.442   7.717
   35POPC   C1A  906   1.091   6.516   7.263
   35POPC   D2A  907   0.984   6.855   6.931
   35POPC   C3A  908   1.068   6.658   6.494
   35POPC   C4A  909   1.019   6.515   6.053
   35POPC   C1B  910   1.585   6.484   7.296
   35POPC   C2B  911   1.442   6.604   6.876
   35POPC   C3B  912   1.567   6.839   6.553
   35POPC   C4B  913   1.476   6.759   6.145
   36POPC   NC3  914   3.246   5.748   8.136
   36POPC   PO4  915   3.051   6.320   8.295
   36POPC   GL1  916   3.029   6.169   7.779
   36POPC   GL2  917   3.072   5.827   7.640
   36POPC   C1A  918   3.104   6.178   7.245
   36POPC   D2A  919   3.200   5.976   6.781
   36POPC   C3A  920   3.149   6.226   6.345
   36POPC   C4A  921   3.313   6.429   5.934
   36POPC   C1B  922   3.177   5.674   7.219
   36POPC   C2B  923   3.555   5.627   6.947
   36POPC   C3B  924   3.641   5.675   6.515
   36POPC   C4B  925   3.267   5.737   6.334
   37POPC   NC3  926   8.330   0.615   8.015
   37POPC   PO4  927   8.134   0.016   8.036
   37POPC   GL1  928   8.324   0.213   7.658
   37POPC   GL2  929   8.054   0.463   7.583
   37POPC   C1A  930   8.412   0.354   7.202
   37POPC   D2A  931   8.096   0.308   6.843
   37POPC   C3A  932   8.191   0.382   6.399
   37POPC   C4A  933   8.310   0.090   6.031
   37POPC   C1B  934   7.848   0.656   7.195
   37POPC   C2B  935   7.822   0.722   6.722
   37POPC   C3B  936   7.797   0.677   6.254
   37POPC   C4B  937   7.697   0.679   5.801
   38POPC   NC3  938   1.574   2.629   7.911
   38POPC   PO4  939   1.061   2.981   8.131
   38POPC   GL1  940   1.037   2.669   7.791
   38POPC   GL2  941   1.052   2.945   7.616
   38POPC   C1A  942   1.174   2.529   7.341
   38POPC   D2A  943   1.282   2.682   6.918
   38POPC   C3A  944   1.361   2.455   6.507
   38POPC   C4A  945   1.414   2.563   6.067
   38POPC   C1B  946   0.954   3.162   7.274
   38POPC   C2B  947   0.846   2.994   6.903
   38POPC   C3B  948   1.122   3.028   6.570
   38POPC   C4B  949   1.051   2.886   6.189
   39POPC   NC3  950   0.631   2.784   8.110
   39POPC   PO4  951   0.741   2.155   7.983
   39POPC   GL1  952   0.546   2.475   7.700
   39POPC   GL2  953   0.262   2.697   7.733
   39POPC   C1A  954   0.669   2.700   7.337
   39POPC   D2A  955   0.802   2.446   6.982
   39POPC   C3A  956   0.883   2.582   6.575
   39POPC   C4A  957   0.915   2.385   6.158
   39POPC   C1B  958   0.129   2.752   7.299
   39POPC   C2B  959   0.350   2.701   6.893
   39POPC   C3B  960   0.422   2.774   6.446
   39POPC   C4B  961   0.154   2.787   6.082
   40POPC   NC3  962   5.015   1.797   8.135
   40POPC   PO4  963   4.773   2.470   8.165
   40POPC   GL1  964   4.884   2.209   7.772
   40POPC   GL2  965   4.837   1.864   7.678
   40POPC   C1A  966   4.864   2.188   7.279
   40POPC   D2A  967   5.122   2.215   6.859
   40POPC   C3A  968   5.014   2.299   6.398
   40POPC   C4A  969   5.274   2.425   6.030
   40POPC   C1B  970   4.862   1.618   7.319
   40POPC   C2B  971   4.821   1.819   6.910
   40POPC   C3B  972   5.038   1.809   6.531
   40POPC   C4B  973   4.849   1.695   6.150
   41POPC   NC3  974   8.863  10.610   8.068
   41POPC   PO4  975   8.376  10.129   8.251
   41POPC   GL1  976   8.466  10.409   7.842
   41POPC   GL2  977   8.792  10.320   7.661
   41POPC   C1A  978   8.406  10.461   7.350
   41POPC   D2A  979   8.515  10.240   6.916
   41POPC   C3A  980   8.591  10.492   6.512
   41POPC   C4A  981   8.557  10.650   6.050
   41POPC   C1B  982   8.908  10.192   7.251
   41POPC   C2B  983   9.028  10.282   6.808
   41POPC   C3B  984   8.945  10.152   6.377
   41POPC   C4B  985   9.032  10.509   6.201
   42POPC   NC3  986   7.506   2.225   8.041
   42POPC   PO4  987   7.815   1.716   8.340
   42POPC   GL1  988   7.433   1.735   7.877
   42POPC   GL2  989   7.609   1.968   7.619
   42POPC   C1A  990   7.453   1.602   7.344
   42POPC   D2A  991   7.733   1.852   7.001
   42POPC   C3A  992   7.655   1.971   6.523
   42POPC   C4A  993   7.361   1.850   6.165
   42POPC   C1B  994   7.338   2.082   7.247
   42POPC   C2B  995   7.254   1.932   6.827
   42POPC   C3B  996   7.177   2.209   6.471
   42POPC   C4B  997   6.940   2.145   6.075
   43POPC   NC3  998   7.603   1.232   7.970
   43POPC   PO4  999   6.913   1.231   8.074
   43POPC   GL1 1000   6.993   1.367   7.661
   43POPC   GL2 1001   7.241   1.113   7.636
   43POPC   C1A 1002   7.056   1.321   7.213
   43POPC   D2A 1003   7.013   1.448   6.806
   43POPC   C3A 1004   7.274   1.409   6.449
   43POPC   C4A 1005   7.140   1.427   6.007
   43POPC   C1B 1006   7.513   1.089   7.279
   43POPC   C2B 1007   7.282   0.996   6.899
   43POPC   C3B 1008   7.371   0.885   6.509
   43POPC   C4B 1009   7.468   1.059   6.107
   44POPC   NC3 1010   1.907   9.688   7.814
   44POPC   PO4 1011   2.310   9.167   8.006
   44POPC   GL1 1012   2.307   9.416   7.646
   44POPC   GL2 1013   2.062   9.242   7.491
   44POPC   C1A 1014   2.349   9.617   7.217
   44POPC   D2A 1015   2.312   9.352   6.854
   44POPC   C3A 1016   2.110   9.440   6.473
   44POPC   C4A 1017   2.128   9.732   6.155
   44POPC   C1B 1018   1.854   9.283   7.088
   44POPC   C2B 1019   1.732   9.608   6.794
   44POPC   C3B 1020   1.660   9.749   6.386
   44POPC   C4B 1021   1.697   9.920   5.993
   45POPC   NC3 1022  11.079   3.446   8.076
   45POPC   PO4 1023   0.105   3.309   7.722
   45POPC   GL1 1024  11.155   3.471   7.576
   45POPC   GL2 1025  11.019   3.817   7.728
   45POPC   C1A 1026  10.824   3.650   7.281
   45POPC   D2A 1027  10.753   3.589   6.847
   45POPC   C3A 1028  11.012   3.270   6.629
   45POPC   C4A 1029  10.984   3.170   6.185
   45POPC   C1B 1030  11.283   3.926   7.381
   45POPC   C2B 1031  11.271   3.720   6.993
   45POPC   C3B 1032  11.153   3.798   6.581
   45POPC   C4B 1033  11.330   3.528   6.275
   46POPC   NC3 1034   8.821   8.222   8.014
   46POPC   PO4 1035   8.461   7.773   7.772
   46POPC   GL1 1036   8.829   7.912   7.556
   46POPC   GL2 1037   8.801   8.255   7.498
   46POPC   C1A 1038   8.988   7.841   7.130
   46POPC   D2A 1039   9.122   7.934   6.690
   46POPC   C3A 1040   8.922   7.776   6.302
   46POPC   C4A 1041   8.662   7.753   5.891
   46POPC   C1B 1042   8.825   8.332   7.045
   46POPC   C2B 1043   9.155   8.453   6.772
   46POPC   C3B 1044   9.131   8.336   6.340
   46POPC   C4B 1045   8.934   8.168   5.978
   47POPC   NC3 1046   1.373   8.287   8.046
   47POPC   PO4 1047   0.934   7.852   8.065
   47POPC   GL1 1048   1.072   8.019   7.679
   47POPC   GL2 1049   0.954   7.723   7.544
   47POPC   C1A 1050   1.251   8.239   7.297
   47POPC   D2A 1051   1.273   8.537   6.949
   47POPC   C3A 1052   1.324   8.439   6.488
   47POPC   C4A 1053   1.066   8.333   6.113
   47POPC   C1B 1054   1.194   7.718   7.170
   47POPC   C2B 1055   1.282   8.012   6.819
   47POPC   C3B 1056   1.257   7.943   6.368
   47POPC   C4B 1057   1.500   7.735   6.082
   48POPC   NC3 1058   0.593  10.444   8.127
   48POPC   PO4 1059   0.043  10.059   8.247
   48POPC   GL1 1060   0.295  10.133   7.801
   48POPC   GL2 1061   0.379  10.488   7.675
   48POPC   C1A 1062   0.615  10.115   7.416
   48POPC   D2A 1063   0.465  10.046   6.979
   48POPC   C3A 1064   0.720  10.190   6.633
   48POPC   C4A 1065   0.724  10.377   6.235
   48POPC   C1B 1066   0.223  10.419   7.268
   48POPC   C2B 1067   0.355  10.534   6.867
   48POPC   C3B 1068   0.280  10.450   6.455
   48POPC   C4B 1069   0.246  10.780   6.178
   49POPC   NC3 1070   1.254   3.429   8.107
   49POPC   PO4 1071   0.762   3.917   7.947
   49POPC   GL1 1072   1.152   3.772   7.678
   49POPC   GL2 1073   1.280   3.411   7.622
   49POPC   C1A 1074   1.253   3.677   7.211
   49POPC   D2A 1075   1.082   3.469   6.844
   49POPC   C3A 1076   1.140   3.716   6.439
   49POPC   C4A 1077   1.092   3.628   5.988
   49POPC   C1B 1078   1.458   3.123   7.343
   49POPC   C2B 1079   1.495   3.141   6.931
   49POPC   C3B 1080   1.513   3.374   6.571
   49POPC   C4B 1081   1.371   3.287   6.197
   50POPC   NC3 1082   1.883   7.118   8.235
   50POPC   PO4 1083   1.277   7.032   8.121
   50POPC   GL1 1084   1.413   6.989   7.696
   50POPC   GL2 1085   1.253   7.321   7.682
   50POPC   C1A 1086   1.393   6.961   7.242
   50POPC   D2A 1087   1.329   7.271   6.926
   50POPC   C3A 1088   1.167   7.157   6.532
   50POPC   C4A 1089   1.386   7.263   6.181
   50POPC   C1B 1090   0.983   7.236   7.364
   50POPC   C2B 1091   0.815   7.366   6.984
   50POPC   C3B 1092   1.001   7.615   6.664
   50POPC   C4B 1093   0.966   7.537   6.225
   51POPC   NC3 1094   3.428   9.475   8.275
   51POPC   PO4 1095   3.490  10.146   8.168
   51POPC   GL1 1096   3.517   9.946   7.775
   51POPC   GL2 1097   3.639   9.616   7.764
   51POPC   C1A 1098   3.540   9.938   7.336
   51POPC   D2A 1099   3.239   9.830   7.033
   51POPC   C3A 1100   3.452   9.804   6.669
   51POPC   C4A 1101   3.473   9.964   6.287
   51POPC   C1B 1102   3.462   9.430   7.366
   51POPC   C2B 1103   3.319   9.338   6.918
   51POPC   C3B 1104   3.497   9.342   6.460
   51POPC   C4B 1105   3.796   9.292   6.094
   52POPC   NC3 1106   8.858   3.335   8.209
   52POPC   PO4 1107   9.152   3.848   8.099
   52POPC   GL1 1108   9.236   3.563   7.721
   52POPC   GL2 1109   9.028   3.264   7.723
   52POPC   C1A 1110   9.129   3.571   7.277
   52POPC   D2A 1111   8.850   3.545   6.903
   52POPC   C3A 1112   8.965   3.642   6.472
   52POPC   C4A 1113   8.844   3.825   6.073
   52POPC   C1B 1114   8.858   3.142   7.318
   52POPC   C2B 1115   9.030   3.074   6.919
   52POPC   C3B 1116   8.785   3.136   6.568
   52POPC   C4B 1117   8.650   3.345   6.173
   53POPC   NC3 1118   1.739   5.333   8.007
   53POPC   PO4 1119   2.191   5.825   8.174
   53POPC   GL1 1120   2.150   5.606   7.758
   53POPC   GL2 1121   1.794   5.696   7.646
   53POPC   C1A 1122   2.160   5.728   7.292
   53POPC   D2A 1123   1.917   5.727   6.895
   53POPC   C3A 1124   2.159   5.697   6.496
   53POPC   C4A 1125   2.002   5.481   6.109
   53POPC   C1B 1126   1.622   5.953   7.296
   53POPC   C2B 1127   1.382   6.112   6.940
   53POPC   C3B 1128   1.453   6.199   6.507
   53POPC   C4B 1129   1.733   5.898   6.290
   54POPC   NC3 1130  11.096   9.807   8.145
   54POPC   PO4 1131   0.042   9.256   8.096
   54POPC   GL1 1132  11.438   9.454   7.671
   54POPC   GL2 1133  11.081   9.597   7.690
   54POPC   C1A 1134  11.275   9.594   7.229
   54POPC   D2A 1135  11.272   9.839   6.833
   54POPC   C3A 1136  11.439   9.628   6.483
   54POPC   C4A 1137  11.470   9.639   6.055
   54POPC   C1B 1138  10.863   9.874   7.377
   54POPC   C2B 1139  10.770   9.717   6.927
   54POPC   C3B 1140  10.915   9.590   6.501
   54POPC   C4B 1141  11.108   9.293   6.228
   55POPC   NC3 1142  10.777   5.088   8.077
   55POPC   PO4 1143  10.159   5.453   8.121
   55POPC   GL1 1144  10.284   5.276   7.713
   55POPC   GL2 1145  10.455   4.959   7.687
   55POPC   C1A 1146  10.389   5.379   7.285
   55POPC   D2A 1147  10.476   5.243   6.852
   55POPC   C3A 1148  10.174   5.262   6.536
   55POPC   C4A 1149  10.187   4.923   6.249
   55POPC   C1B 1150  10.671   4.813   7.317
   55POPC   C2B 1151  10.631   4.748   6.876
   55POPC   C3B 1152  10.666   4.876   6.437
   55POPC   C4B 1153  10.569   4.679   6.020
   56POPC   NC3 1154   5.949   0.458   8.087
   56POPC   PO4 1155   5.286   0.323   8.287
   56POPC   GL1 1156   5.453   0.483   7.803
   56POPC   GL2 1157   5.693   0.740   7.751
   56POPC   C1A 1158   5.770   0.371   7.401
   56POPC   D2A 1159   5.744   0.254   6.934
   56POPC   C3A 1160   6.067   0.216   6.590
   56POPC   C4A 1161   5.992   0.114   6.147
   56POPC   C1B 1162   6.069   0.790   7.471
   56POPC   C2B 1163   6.121   0.884   7.022
   56POPC   C3B 1164   5.864   0.722   6.681
   56POPC   C4B 1165   5.791   0.556   6.285
   57POPC   NC3 1166   9.532  10.929   8.219
   57POPC   PO4 1167   9.210  10.612   7.744
   57POPC   GL1 1168   9.460  10.997   7.665
   57POPC   GL2 1169   9.507  11.376   7.721
   57POPC   C1A 1170   9.447  11.166   7.233
   57POPC   D2A 1171   9.681  11.042   6.848
   57POPC   C3A 1172   9.500  10.996   6.418
   57POPC   C4A 1173   9.773  11.039   6.051
   57POPC   C1B 1174   9.791   0.015   7.368
   57POPC   C2B 1175   9.624   0.064   6.912
   57POPC   C3B 1176   9.668  11.478   6.453
   57POPC   C4B 1177   9.777   0.027   6.000
   58POPC   NC3 1178  10.544   8.344   8.340
   58POPC   PO4 1179   9.966   8.483   7.933
   58POPC   GL1 1180  10.048   8.301   7.583
   58POPC   GL2 1181  10.237   8.000   7.677
   58POPC   C1A 1182  10.138   8.210   7.179
   58POPC   D2A 1183  10.340   8.085   6.813
   58POPC   C3A 1184  10.266   8.316   6.466
   58POPC   C4A 1185  10.270   8.195   6.037
   58POPC   C1B 1186  10.573   8.027   7.359
   58POPC   C2B 1187  10.812   8.190   7.009
   58POPC   C3B 1188  10.784   8.252   6.568
   58POPC   C4B 1189  10.584   7.927   6.322
   59POPC   NC3 1190   4.635   1.213   8.055
   59POPC   PO4 1191   4.129   0.766   8.100
   59POPC   GL1 1192   4.006   1.039   7.760
   59POPC   GL2 1193   4.347   1.037   7.659
   59POPC   C1A 1194   3.889   0.939   7.324
   59POPC   D2A 1195   4.136   0.948   6.945
   59POPC   C3A 1196   3.982   0.942   6.556
   59POPC   C4A 1197   4.274   1.158   6.385
   59POPC   C1B 1198   4.268   1.298   7.299
   59POPC   C2B 1199   4.514   1.419   6.954
   59POPC   C3B 1200   4.565   1.529   6.543
   59POPC   C4B 1201   4.162   1.664   6.351
   60POPC   NC3 1202   1.368   4.924   8.187
   60POPC   PO4 1203   2.064   5.049   8.151
   60POPC   GL1 1204   1.965   4.908   7.749
   60POPC   GL2 1205   1.906   5.196   7.552
   60POPC   C1A 1206   2.031   4.746   7.334
   60POPC   D2A 1207   1.922   5.039   6.993
   60POPC   C3A 1208   1.877   4.823   6.599
   60POPC   C4A 1209   1.816   5.022   6.216
   60POPC   C1B 1210   2.269   5.228   7.334
   60POPC   C2B 1211   2.327   5.373   6.893
   60POPC   C3B 1212   2.241   5.194   6.466
   60POPC   C4B 1213   2.469   5.205   6.059
   61POPC   NC3 1214   9.787   5.147   8.211
   61POPC   PO4 1215   9.746   4.487   8.031
   61POPC   GL1 1216   9.943   4.848   7.754
   61POPC   GL2 1217   9.773   5.187   7.708
   61POPC   C1A 1218  10.067   4.983   7.307
   61POPC   D2A 1219  10.118   4.851   6.853
   61POPC   C3A 1220   9.779   4.932   6.522
   61POPC   C4A 1221   9.626   4.782   6.132
   61POPC   C1B 1222   9.562   5.086   7.318
   61POPC   C2B 1223   9.553   5.213   6.868
   61POPC   C3B 1224   9.360   5.223   6.441
   61POPC   C4B 1225   9.387   5.211   5.992
   62POPC   NC3 1226  11.324  11.093   8.006
   62POPC   PO4 1227  10.778  11.438   8.105
   62POPC   GL1 1228  11.089  11.484   7.760
   62POPC   GL2 1229  10.815  11.419   7.555
   62POPC   C1A 1230  11.310   0.023   7.347
   62POPC   D2A 1231  11.067   0.035   6.964
   62POPC   C3A 1232  11.299  11.492   6.580
   62POPC   C4A 1233  11.172   0.063   6.156
   62POPC   C1B 1234  11.008  11.112   7.302
   62POPC   C2B 1235  11.127  11.038   6.873
   62POPC   C3B 1236  11.195  10.980   6.445
   62POPC   C4B 1237  10.965  10.733   6.108
   63POPC   NC3 1238  10.203   3.433   8.249
   63POPC   PO4 1239  10.700   3.236   7.862
   63POPC   GL1 1240  10.350   3.280   7.591
   63POPC   GL2 1241  10.223   3.583   7.759
   63POPC   C1A 1242  10.389   3.296   7.127
   63POPC   D2A 1243  10.263   3.370   6.692
   63POPC   C3A 1244  10.599   3.501   6.361
   63POPC   C4A 1245  10.585   3.333   5.911
   63POPC   C1B 1246  10.161   3.746   7.366
   63POPC   C2B 1247  10.296   3.791   6.957
   63POPC   C3B 1248  10.195   3.870   6.539
   63POPC   C4B 1249  10.221   3.714   6.112
   64POPC   NC3 1250   6.734   0.042   8.370
   64POPC   PO4 1251   6.411   0.515   8.111
   64POPC   GL1 1252   6.284   0.396   7.695
   64POPC   GL2 1253   6.531   0.166   7.659
   64POPC   C1A 1254   6.266   0.366   7.227
   64POPC   D2A 1255   6.514   0.270   6.851
   64POPC   C3A 1256   6.443   0.602   6.541
   64POPC   C4A 1257   6.281   0.523   6.134
   64POPC   C1B 1258   6.781   0.386   7.335
   64POPC   C2B 1259   6.913   0.584   6.938
   64POPC   C3B 1260   6.955   0.489   6.508
   64POPC   C4B 1261   6.781   0.640   6.118
   65POPC   NC3 1262   4.668  10.377   8.236
   65POPC   PO4 1263   5.008  10.978   8.282
   65POPC   GL1 1264   4.956  10.626   7.874
   65POPC   GL2 1265   4.743  10.739   7.574
   65POPC   C1A 1266   5.181  10.417   7.485
   65POPC   D2A 1267   5.106  10.428   6.982
   65POPC   C3A 1268   5.182  10.127   6.635
   65POPC   C4A 1269   5.051  10.113   6.181
   65POPC   C1B 1270   5.117  10.862   7.268
   65POPC   C2B 1271   5.304  10.884   6.822
   65POPC   C3B 1272   5.186  10.671   6.411
   65POPC   C4B 1273   5.230  10.575   5.941
   66POPC   NC3 1274   0.043   5.363   8.090
   66POPC   PO4 1275   0.052   4.622   8.092
   66POPC   GL1 1276  11.218   4.799   7.840
   66POPC   GL2 1277  11.188   5.167   7.774
   66POPC   C1A 1278  11.172   4.848   7.393
   66POPC   D2A 1279  11.126   4.652   7.008
   66POPC   C3A 1280  11.151   4.889   6.655
   66POPC   C4A 1281  11.147   4.750   6.257
   66POPC   C1B 1282  10.872   5.277   7.454
   66POPC   C2B 1283  10.937   5.159   7.031
   66POPC   C3B 1284  10.928   5.358   6.617
   66POPC   C4B 1285  10.611   5.382   6.304
   67POPC   NC3 1286   7.942  10.280   8.133
   67POPC   PO4 1287   8.468   9.930   7.748
   67POPC   GL1 1288   8.063  10.146   7.642
   67POPC   GL2 1289   7.997  10.542   7.705
   67POPC   C1A 1290   7.906  10.324   7.248
   67POPC   D2A 1291   8.041  10.438   6.847
   67POPC   C3A 1292   8.151  10.125   6.548
   67POPC   C4A 1293   7.987  10.168   6.153
   67POPC   C1B 1294   7.791  10.783   7.403
   67POPC   C2B 1295   7.683  10.802   6.959
   67POPC   C3B 1296   7.948  10.892   6.631
   67POPC   C4B 1297   8.136  10.639   6.339
   68POPC   NC3 1298   4.570   2.825   8.464
   68POPC   PO4 1299   4.008   2.581   8.105
   68POPC   GL1 1300   4.193   2.648   7.694
   68POPC   GL2 1301   3.998   2.945   7.637
   68POPC   C1A 1302   4.489   2.594   7.303
   68POPC   D2A 1303   4.525   2.319   6.920
   68POPC   C3A 1304   4.591   2.552   6.535
   68POPC   C4A 1305   4.481   2.440   6.113
   68POPC   C1B 1306   3.982   2.744   7.222
   68POPC   C2B 1307   4.183   2.765   6.795
   68POPC   C3B 1308   4.169   2.797   6.326
   68POPC   C4B 1309   4.436   2.948   5.980
   69POPC   NC3 1310   1.384   6.202   8.233
   69POPC   PO4 1311   1.249   5.523   8.047
   69POPC   GL1 1312   1.248   5.843   7.724
   69POPC   GL2 1313   1.310   5.583   7.506
   69POPC   C1A 1314   1.042   5.980   7.290
   69POPC   D2A 1315   0.928   5.887   6.810
   69POPC   C3A 1316   0.937   6.140   6.416
   69POPC   C4A 1317   0.837   6.051   5.960
   69POPC   C1B 1318   1.597   5.434   7.207
   69POPC   C2B 1319   1.392   5.598   6.837
   69POPC   C3B 1320   1.259   5.712   6.423
   69POPC   C4B 1321   1.500   5.423   6.215
   70POPC   NC3 1322   3.522   0.102   8.147
   70POPC   PO4 1323   3.330  10.837   8.118
   70POPC   GL1 1324   3.521  10.970   7.715
   70POPC   GL2 1325   3.589  11.327   7.713
   70POPC   C1A 1326   3.780  11.000   7.324
   70POPC   D2A 1327   3.919  11.282   6.993
   70POPC   C3A 1328   3.763  11.155   6.575
   70POPC   C4A 1329   3.750  11.234   6.118
   70POPC   C1B 1330   3.331  11.313   7.332
   70POPC   C2B 1331   3.162  11.350   6.899
   70POPC   C3B 1332   3.296  11.337   6.438
   70POPC   C4B 1333   3.356  10.903   6.268
   71POPC   NC3 1334  11.129   4.450   8.246
   71POPC   PO4 1335  11.410   3.904   8.085
   71POPC   GL1 1336  11.367   4.252   7.787
   71POPC   GL2 1337  11.023   4.328   7.768
   71POPC   C1A 1338  11.439   4.413   7.352
   71POPC   D2A 1339   0.002   4.205   6.967
   71POPC   C3A 1340  11.394   4.328   6.556
   71POPC   C4A 1341  11.397   4.043   6.205
   71POPC   C1B 1342  10.944   4.336   7.365
   71POPC   C2B 1343  10.993   4.157   6.959
   71POPC   C3B 1344  10.906   4.424   6.588
   71POPC   C4B 1345  10.955   4.283   6.178
   72POPC   NC3 1346   9.361   4.251   8.092
   72POPC   PO4 1347  10.001   3.875   8.134
   72POPC   GL1 1348   9.843   3.954   7.719
   72POPC   GL2 1349  10.011   4.207   7.547
   72POPC   C1A 1350   9.612   3.804   7.329
   72POPC   D2A 1351   9.322   3.879   6.929
   72POPC   C3A 1352   9.435   3.869   6.487
   72POPC   C4A 1353   9.793   4.035   6.292
   72POPC   C1B 1354   9.768   4.557   7.357
   72POPC   C2B 1355   9.642   4.682   6.949
   72POPC   C3B 1356   9.618   4.450   6.550
   72POPC   C4B 1357   9.348   4.329   6.214
   73POPC   NC3 1358   2.708   8.061   8.043
   73POPC   PO4 1359   2.134   7.535   8.247
   73POPC   GL1 1360   2.073   7.412   7.833
   73POPC   GL2 1361   1.755   7.367   7.785
   73POPC   C1A 1362   2.122   7.467   7.386
   73POPC   D2A 1363   2.186   7.756   7.033
   73POPC   C3A 1364   2.174   7.550   6.622
   73POPC   C4A 1365   2.001   7.622   6.182
   73POPC   C1B 1366   1.623   7.406   7.350
   73POPC   C2B 1367   1.846   7.292   6.968
   73POPC   C3B 1368   1.725   7.321   6.547
   73POPC   C4B 1369   1.854   7.113   6.164
   74POPC   NC3 1370  10.713   1.280   8.422
   74POPC   PO4 1371  10.108   1.004   8.443
   74POPC   GL1 1372  10.196   0.995   7.963
   74POPC   GL2 1373  10.261   1.353   7.844
   74POPC   C1A 1374  10.203   0.971   7.507
   74POPC   D2A 1375  10.010   0.948   7.095
   74POPC   C3A 1376  10.100   1.037   6.650
   74POPC   C4A 1377  10.513   1.072   6.401
   74POPC   C1B 1378  10.185   1.461   7.366
   74POPC   C2B 1379  10.334   1.381   6.945
   74POPC   C3B 1380  10.256   1.509   6.507
   74POPC   C4B 1381  10.387   1.474   6.054
   75POPC   NC3 1382   0.573   4.704   8.034
   75POPC   PO4 1383   0.523   5.376   8.042
   75POPC   GL1 1384   0.543   5.091   7.694
   75POPC   GL2 1385   0.189   5.017   7.704
   75POPC   C1A 1386   0.651   5.050   7.254
   75POPC   D2A 1387   0.397   5.126   6.865
   75POPC   C3A 1388   0.589   5.063   6.483
   75POPC   C4A 1389   0.868   4.774   6.357
   75POPC   C1B 1390   0.173   4.865   7.268
   75POPC   C2B 1391   0.103   4.713   6.833
   75POPC   C3B 1392   0.107   4.939   6.417
   75POPC   C4B 1393   0.264   5.340   6.179
   76POPC   NC3 1394   0.927   7.380   8.104
   76POPC   PO4 1395   0.384   7.705   8.341
   76POPC   GL1 1396   0.530   7.663   7.841
   76POPC   GL2 1397   0.528   7.352   7.686
   76POPC   C1A 1398   0.497   7.705   7.351
   76POPC   D2A 1399   0.316   7.502   7.017
   76POPC   C3A 1400   0.505   7.630   6.639
   76POPC   C4A 1401   0.453   7.514   6.244
   76POPC   C1B 1402   0.505   7.088   7.339
   76POPC   C2B 1403   0.429   6.974   6.949
   76POPC   C3B 1404   0.378   7.137   6.580
   76POPC   C4B 1405   0.692   7.061   6.294
   77POPC   NC3 1406   2.069   4.390   8.053
   77POPC   PO4 1407   1.536   3.861   8.126
   77POPC   GL1 1408   1.618   4.157   7.755
   77POPC   GL2 1409   1.952   4.215   7.587
   77POPC   C1A 1410   1.543   4.336   7.310
   77POPC   D2A 1411   1.759   4.135   6.939
   77POPC   C3A 1412   1.619   4.169   6.497
   77POPC   C4A 1413   1.689   4.525   6.211
   77POPC   C1B 1414   2.192   4.031   7.219
   77POPC   C2B 1415   2.296   4.135   6.779
   77POPC   C3B 1416   2.112   4.357   6.429
   77POPC   C4B 1417   2.221   4.723   6.176
   78POPC   NC3 1418   7.100  10.266   8.042
   78POPC   PO4 1419   7.603  10.678   8.160
   78POPC   GL1 1420   7.461  10.563   7.737
   78POPC   GL2 1421   7.558  10.244   7.726
   78POPC   C1A 1422   7.292  10.696   7.284
   78POPC   D2A 1423   7.071  10.653   6.855
   78POPC   C3A 1424   7.400  10.531   6.570
   78POPC   C4A 1425   7.620  10.791   6.278
   78POPC   C1B 1426   7.410  10.204   7.339
   78POPC   C2B 1427   7.210  10.196   6.959
   78POPC   C3B 1428   7.200  10.057   6.524
   78POPC   C4B 1429   7.043  10.166   6.142
   79POPC   NC3 1430   2.001   1.119   8.092
   79POPC   PO4 1431   2.290   1.576   7.815
   79POPC   GL1 1432   2.035   1.319   7.570
   79POPC   GL2 1433   1.700   1.320   7.713
   79POPC   C1A 1434   2.088   1.171   7.126
   79POPC   D2A 1435   2.303   0.981   6.743
   79POPC   C3A 1436   2.107   1.200   6.384
   79POPC   C4A 1437   2.243   1.484   6.077
   79POPC   C1B 1438   1.611   1.128   7.322
   79POPC   C2B 1439   1.531   1.272   6.921
   79POPC   C3B 1440   1.585   1.176   6.499
   79POPC   C4B 1441   1.662   0.981   6.128
   80POPC   NC3 1442  10.412   9.111   8.173
   80POPC   PO4 1443  10.659   9.723   8.291
   80POPC   GL1 1444  10.560   9.708   7.804
   80POPC   GL2 1445  10.196   9.789   7.693
   80POPC   C1A 1446  10.479   9.553   7.339
   80POPC   D2A 1447  10.231   9.618   6.932
   80POPC   C3A 1448  10.356   9.592   6.485
   80POPC   C4A 1449  10.583   9.885   6.221
   80POPC   C1B 1450  10.164  10.004   7.278
   80POPC   C2B 1451   9.963  10.053   6.844
   80POPC   C3B 1452  10.129  10.113   6.386
   80POPC   C4B 1453  10.162   9.920   5.929
   81POPC   NC3 1454   1.908   3.595   8.063
   81POPC   PO4 1455   2.446   3.988   8.029
   81POPC   GL1 1456   2.202   3.770   7.670
   81POPC   GL2 1457   2.107   3.424   7.633
   81POPC   C1A 1458   1.797   3.745   7.392
   81POPC   D2A 1459   1.732   3.605   6.963
   81POPC   C3A 1460   1.975   3.775   6.624
   81POPC   C4A 1461   2.284   3.884   6.310
   81POPC   C1B 1462   1.956   3.237   7.238
   81POPC   C2B 1463   1.981   3.037   6.833
   81POPC   C3B 1464   1.997   3.277   6.462
   81POPC   C4B 1465   1.801   3.588   6.192
   82POPC   NC3 1466  10.315   2.126   8.069
   82POPC   PO4 1467   9.818   1.691   7.996
   82POPC   GL1 1468   9.693   1.767   7.614
   82POPC   GL2 1469   9.329   1.627   7.563
   82POPC   C1A 1470   9.923   1.984   7.297
   82POPC   D2A 1471  10.102   1.852   6.906
   82POPC   C3A 1472   9.854   1.825   6.510
   82POPC   C4A 1473   9.921   1.683   6.123
   82POPC   C1B 1474   9.445   1.859   7.193
   82POPC   C2B 1475   9.670   2.108   6.872
   82POPC   C3B 1476   9.585   2.338   6.472
   82POPC   C4B 1477   9.401   2.372   6.038
   83POPC   NC3 1478   0.826   5.663   8.247
   83POPC   PO4 1479   0.214   5.835   8.081
   83POPC   GL1 1480   0.355   5.729   7.702
   83POPC   GL2 1481   0.638   5.963   7.742
   83POPC   C1A 1482   0.329   5.452   7.344
   83POPC   D2A 1483   0.639   5.534   7.036
   83POPC   C3A 1484   0.484   5.570   6.609
   83POPC   C4A 1485   0.743   5.667   6.276
   83POPC   C1B 1486   0.520   6.053   7.299
   83POPC   C2B 1487   0.418   6.025   6.853
   83POPC   C3B 1488   0.425   6.049   6.392
   83POPC   C4B 1489   0.084   5.825   6.226
   84POPC   NC3 1490  10.355  10.106   8.093
   84POPC   PO4 1491  10.029  10.750   8.077
   84POPC   GL1 1492  10.178  10.435   7.713
   84POPC   GL2 1493  10.498  10.201   7.626
   84POPC   C1A 1494  10.327  10.535   7.286
   84POPC   D2A 1495  10.249  10.813   6.945
   84POPC   C3A 1496  10.251  10.642   6.552
   84POPC   C4A 1497  10.189  10.758   6.119
   84POPC   C1B 1498  10.830  10.413   7.408
   84POPC   C2B 1499  10.791  10.698   7.060
   84POPC   C3B 1500  10.806  10.647   6.610
   84POPC   C4B 1501  10.584  10.421   6.246
   85POPC   NC3 1502   4.422   0.461   7.900
   85POPC   PO4 1503   4.017  11.488   8.114
   85POPC   GL1 1504   3.945   0.202   7.686
   85POPC   GL2 1505   4.006   0.549   7.632
   85POPC   C1A 1506   4.025   0.259   7.206
   85POPC   D2A 1507   3.923   0.499   6.815
   85POPC   C3A 1508   4.040   0.338   6.381
   85POPC   C4A 1509   4.119   0.367   5.938
   85POPC   C1B 1510   4.332   0.667   7.313
   85POPC   C2B 1511   4.427   0.519   6.943
   85POPC   C3B 1512   4.403   0.664   6.545
   85POPC   C4B 1513   4.547   0.499   6.208
   86POPC   NC3 1514   1.957   1.814   8.055
   86POPC   PO4 1515   2.014   2.503   7.862
   86POPC   GL1 1516   2.114   2.252   7.574
   86POPC   GL2 1517   1.981   1.891   7.545
   86POPC   C1A 1518   2.146   2.342   7.142
   86POPC   D2A 1519   2.012   2.053   6.846
   86POPC   C3A 1520   2.053   2.189   6.428
   86POPC   C4A 1521   1.890   2.426   6.123
   86POPC   C1B 1522   1.814   1.634   7.198
   86POPC   C2B 1523   1.930   1.536   6.752
   86POPC   C3B 1524   1.803   1.632   6.329
   86POPC   C4B 1525   1.932   1.882   5.978
   87POPC   NC3 1526   9.583   3.692   8.075
   87POPC   PO4 1527   9.858   3.142   8.155
   87POPC   GL1 1528   9.801   3.292   7.713
   87POPC   GL2 1529   9.516   3.119   7.735
   87POPC   C1A 1530   9.868   3.364   7.222
   87POPC   D2A 1531   9.813   3.715   6.854
   87POPC   C3A 1532   9.813   3.527   6.437
   87POPC   C4A 1533   9.802   3.123   6.531
   87POPC   C1B 1534   9.404   3.147   7.314
   87POPC   C2B 1535   9.449   3.360   6.910
   87POPC   C3B 1536   9.312   3.272   6.515
   87POPC   C4B 1537   9.341   3.456   6.143
   88POPC   NC3 1538   8.793   9.033   8.172
   88POPC   PO4 1539   9.223   8.483   8.058
   88POPC   GL1 1540   8.897   8.695   7.749
   88POPC   GL2 1541   8.839   9.066   7.673
   88POPC   C1A 1542   8.689   8.742   7.325
   88POPC   D2A 1543   8.835   8.827   6.891
   88POPC   C3A 1544   8.690   8.658   6.509
   88POPC   C4A 1545   8.445   8.829   6.168
   88POPC   C1B 1546   8.955   9.184   7.244
   88POPC   C2B 1547   8.790   9.313   6.806
   88POPC   C3B 1548   8.836   9.161   6.346
   88POPC   C4B 1549   9.167   9.117   5.974
   89POPC   NC3 1550   2.658   1.373   8.052
   89POPC   PO4 1551   2.294   0.768   8.151
   89POPC   GL1 1552   2.418   0.987   7.722
   89POPC   GL2 1553   2.717   1.202   7.599
   89POPC   C1A 1554   2.536   0.924   7.241
   89POPC   D2A 1555   2.880   0.920   6.933
   89POPC   C3A 1556   2.764   0.870   6.498
   89POPC   C4A 1557   2.460   0.884   6.187
   89POPC   C1B 1558   3.056   1.400   7.400
   89POPC   C2B 1559   3.114   1.380   6.959
   89POPC   C3B 1560   3.066   1.271   6.525
   89POPC   C4B 1561   2.696   1.396   6.271
   90POPC   NC3 1562   9.613   8.240   8.115
   90POPC   PO4 1563   9.412   7.681   8.067
   90POPC   GL1 1564   9.291   8.067   7.733
   90POPC   GL2 1565   9.533   8.344   7.650
   90POPC   C1A 1566   9.261   8.236   7.274
   90POPC   D2A 1567   9.525   8.145   6.960
   90POPC   C3A 1568   9.547   8.179   6.575
   90POPC   C4A 1569   9.456   7.956   6.205
   90POPC   C1B 1570   9.723   7.967   7.380
   90POPC   C2B 1571   9.913   7.813   6.914
   90POPC   C3B 1572   9.954   7.919   6.423
   90POPC   C4B 1573   9.819   8.346   6.201
   91POPC   NC3 1574   6.706   1.640   8.028
   91POPC   PO4 1575   7.040   2.215   7.952
   91POPC   GL1 1576   6.986   1.887   7.628
   91POPC   GL2 1577   6.602   1.810   7.573
   91POPC   C1A 1578   6.905   1.810   7.183
   91POPC   D2A 1579   6.765   2.056   6.837
   91POPC   C3A 1580   6.860   1.815   6.489
   91POPC   C4A 1581   6.710   1.667   6.155
   91POPC   C1B 1582   6.225   1.775   7.300
   91POPC   C2B 1583   6.122   1.930   6.891
   91POPC   C3B 1584   6.352   2.015   6.534
   91POPC   C4B 1585   6.213   2.337   6.236
   92POPC   NC3 1586   6.282   3.408   8.321
   92POPC   PO4 1587   6.580   2.980   8.169
   92POPC   GL1 1588   6.485   3.214   7.763
   92POPC   GL2 1589   6.484   3.564   7.857
   92POPC   C1A 1590   6.476   3.164   7.258
   92POPC   D2A 1591   6.671   3.184   6.818
   92POPC   C3A 1592   6.443   3.221   6.400
   92POPC   C4A 1593   6.540   3.168   5.939
   92POPC   C1B 1594   6.628   3.616   7.437
   92POPC   C2B 1595   6.456   3.627   7.012
   92POPC   C3B 1596   6.632   3.655   6.599
   92POPC   C4B 1597   6.527   3.691   6.160
   93POPC   NC3 1598   8.105   1.371   8.186
   93POPC   PO4 1599   7.801   0.781   7.988
   93POPC   GL1 1600   7.954   1.068   7.632
   93POPC   GL2 1601   8.273   1.252   7.654
   93POPC   C1A 1602   7.964   1.325   7.215
   93POPC   D2A 1603   7.652   1.362   6.844
   93POPC   C3A 1604   7.818   1.154   6.465
   93POPC   C4A 1605   7.956   1.100   5.992
   93POPC   C1B 1606   8.305   0.861   7.334
   93POPC   C2B 1607   8.322   0.774   6.862
   93POPC   C3B 1608   8.254   0.895   6.415
   93POPC   C4B 1609   8.288   1.346   6.278
   94POPC   NC3 1610   6.422  10.739   8.110
   94POPC   PO4 1611   6.672  10.023   8.087
   94POPC   GL1 1612   6.631  10.341   7.767
   94POPC   GL2 1613   6.965  10.459   7.601
   94POPC   C1A 1614   6.481  10.444   7.363
   94POPC   D2A 1615   6.523  10.591   6.902
   94POPC   C3A 1616   6.237  10.657   6.554
   94POPC   C4A 1617   6.224  10.610   6.079
   94POPC   C1B 1618   6.873  10.109   7.361
   94POPC   C2B 1619   6.735  10.028   6.946
   94POPC   C3B 1620   6.761  10.285   6.586
   94POPC   C4B 1621   6.495  10.205   6.297
   95POPC   NC3 1622   6.850   2.629   8.055
   95POPC   PO4 1623   7.536   2.688   8.204
   95POPC   GL1 1624   7.318   2.706   7.777
   95POPC   GL2 1625   7.372   2.425   7.607
   95POPC   C1A 1626   7.015   2.676   7.371
   95POPC   D2A 1627   7.064   2.459   6.936
   95POPC   C3A 1628   7.080   2.712   6.532
   95POPC   C4A 1629   6.933   3.089   6.283
   95POPC   C1B 1630   7.489   2.576   7.205
   95POPC   C2B 1631   7.558   2.349   6.842
   95POPC   C3B 1632   7.598   2.512   6.446
   95POPC   C4B 1633   7.439   2.853   6.170
   96POPC   NC3 1634  11.093   2.070   8.111
   96POPC   PO4 1635  11.412   1.449   8.019
   96POPC   GL1 1636  11.297   1.778   7.739
   96POPC   GL2 1637  11.336   1.555   7.480
   96POPC   C1A 1638  11.095   1.996   7.371
   96POPC   D2A 1639  11.079   1.799   6.960
   96POPC   C3A 1640  11.137   2.039   6.562
   96POPC   C4A 1641  11.168   1.861   6.147
   96POPC   C1B 1642   0.052   1.806   7.187
   96POPC   C2B 1643   0.039   1.799   6.759
   96POPC   C3B 1644   0.145   1.910   6.387
   96POPC   C4B 1645   0.275   1.522   6.268
   97POPC   NC3 1646   5.256   0.770   8.183
   97POPC   PO4 1647   5.085   1.349   8.096
   97POPC   GL1 1648   4.986   1.150   7.698
   97POPC   GL2 1649   5.220   0.893   7.588
   97POPC   C1A 1650   4.737   1.099   7.300
   97POPC   D2A 1651   4.672   0.959   6.859
   97POPC   C3A 1652   4.916   0.827   6.502
   97POPC   C4A 1653   4.731   1.039   6.152
   97POPC   C1B 1654   5.216   1.240   7.268
   97POPC   C2B 1655   5.040   1.353   6.880
   97POPC   C3B 1656   5.036   1.317   6.449
   97POPC   C4B 1657   5.306   1.404   6.117
   98POPC   NC3 1658   0.317   3.709   7.897
   98POPC   PO4 1659   0.291   3.063   8.205
   98POPC   GL1 1660   0.565   3.106   7.721
   98POPC   GL2 1661   0.753   3.418   7.685
   98POPC   C1A 1662   0.449   3.151   7.217
   98POPC   D2A 1663   0.024   3.147   6.972
   98POPC   C3A 1664   0.025   3.108   6.513
   98POPC   C4A 1665   0.307   3.286   6.190
   98POPC   C1B 1666   0.710   3.622   7.250
   98POPC   C2B 1667   0.577   3.624   6.790
   98POPC   C3B 1668   0.637   3.661   6.317
   98POPC   C4B 1669   0.604   3.657   5.834
   99POPC   NC3 1670  10.262   6.592   7.981
   99POPC   PO4 1671  10.746   7.032   7.750
   99POPC   GL1 1672  10.404   6.890   7.589
   99POPC   GL2 1673  10.577   6.555   7.585
   99POPC   C1A 1674  10.325   6.786   7.174
   99POPC   D2A 1675  10.412   6.682   6.741
   99POPC   C3A 1676  10.578   6.948   6.427
   99POPC   C4A 1677  10.336   7.084   6.104
   99POPC   C1B 1678  10.518   6.292   7.245
   99POPC   C2B 1679  10.338   6.192   6.857
   99POPC   C3B 1680  10.417   6.268   6.422
   99POPC   C4B 1681  10.248   6.157   6.029
  100POPC   NC3 1682  10.484   5.857   8.109
  100POPC   PO4 1683   9.907   6.184   7.988
  100POPC   GL1 1684  10.286   6.119   7.709
  100POPC   GL2 1685  10.182   5.781   7.692
  100POPC   C1A 1686  10.608   5.828   7.447
  100POPC   D2A 1687  10.770   5.639   7.056
  100POPC   C3A 1688  10.698   5.870   6.684
  100POPC   C4A 1689  10.700   5.885   6.242
  100POPC   C1B 1690  10.143   5.906   7.256
  100POPC   C2B 1691  10.258   5.694   6.880
  100POPC   C3B 1692  10.242   5.768   6.438
  100POPC   C4B 1693  10.298   5.652   5.981
  101POPC   NC3 1694  11.412   2.847   8.057
  101POPC   PO4 1695  10.841   3.121   8.338
  101POPC   GL1 1696  10.953   2.826   7.836
  101POPC   GL2 1697  11.247   2.944   7.602
  101POPC   C1A 1698  10.839   2.938   7.334
  101POPC   D2A 1699  11.112   2.805   6.996
  101POPC   C3A 1700  10.973   2.645   6.621
  101POPC   C4A 1701  11.212   2.747   6.321
  101POPC   C1B 1702  11.182   2.518   7.413
  101POPC   C2B 1703  11.375   2.302   7.026
  101POPC   C3B 1704   0.027   2.394   6.594
  101POPC   C4B 1705  11.395   2.308   6.163
  102POPC   NC3 1706   3.649   2.940   8.060
  102POPC   PO4 1707   3.152   2.454   8.060
  102POPC   GL1 1708   3.322   2.703   7.723
  102POPC   GL2 1709   3.666   2.554   7.670
  102POPC   C1A 1710   3.289   2.878   7.291
  102POPC   D2A 1711   3.111   2.798   6.857
  102POPC   C3A 1712   3.308   2.929   6.458
  102POPC   C4A 1713   3.289   2.873   5.985
  102POPC   C1B 1714   3.575   2.421   7.228
  102POPC   C2B 1715   3.611   2.597   6.788
  102POPC   C3B 1716   3.696   2.592   6.333
  102POPC   C4B 1717   3.606   2.473   5.910
  103POPC   NC3 1718   9.520   7.245   8.136
  103POPC   PO4 1719  10.177   7.038   8.109
  103POPC   GL1 1720   9.936   7.090   7.732
  103POPC   GL2 1721   9.835   7.436   7.747
  103POPC   C1A 1722   9.834   6.963   7.283
  103POPC   D2A 1723   9.755   7.238   6.890
  103POPC   C3A 1724   9.616   7.056   6.441
  103POPC   C4A 1725   9.794   6.953   6.008
  103POPC   C1B 1726   9.583   7.458   7.376
  103POPC   C2B 1727   9.443   7.643   6.995
  103POPC   C3B 1728   9.546   7.608   6.566
  103POPC   C4B 1729   9.293   7.416   6.256
  104POPC   NC3 1730   5.465  10.364   8.449
  104POPC   PO4 1731   5.950   9.813   8.212
  104POPC   GL1 1732   5.749  10.012   7.856
  104POPC   GL2 1733   5.875   9.719   7.695
  104POPC   C1A 1734   5.581  10.004   7.410
  104POPC   D2A 1735   5.851   9.920   7.023
  104POPC   C3A 1736   5.691   9.909   6.584
  104POPC   C4A 1737   5.538   9.796   6.138
  104POPC   C1B 1738   5.709   9.515   7.300
  104POPC   C2B 1739   5.850   9.452   6.863
  104POPC   C3B 1740   5.754   9.419   6.418
  104POPC   C4B 1741   6.048   9.309   6.097
  105POPC   NC3 1742   1.982  11.391   8.167
  105POPC   PO4 1743   1.738  10.818   8.080
  105POPC   GL1 1744   1.755  11.118   7.727
  105POPC   GL2 1745   2.057  11.316   7.675
  105POPC   C1A 1746   1.863  11.076   7.288
  105POPC   D2A 1747   1.696  11.108   6.908
  105POPC   C3A 1748   1.964  11.074   6.550
  105POPC   C4A 1749   1.948  10.900   6.146
  105POPC   C1B 1750   2.261  11.446   7.302
  105POPC   C2B 1751   2.122  11.390   6.900
  105POPC   C3B 1752   2.348  11.431   6.496
  105POPC   C4B 1753   2.113  11.383   6.144
  106POPC   NC3 1754   4.102  10.068   7.935
  106POPC   PO4 1755   4.674   9.542   7.996
  106POPC   GL1 1756   4.454   9.767   7.725
  106POPC   GL2 1757   4.161   9.577   7.692
  106POPC   C1A 1758   4.447   9.837   7.296
  106POPC   D2A 1759   4.299   9.637   6.902
  106POPC   C3A 1760   4.361   9.903   6.532
  106POPC   C4A 1761   4.620   9.885   6.187
  106POPC   C1B 1762   3.938   9.617   7.297
  106POPC   C2B 1763   3.814   9.456   6.874
  106POPC   C3B 1764   3.923   9.628   6.450
  106POPC   C4B 1765   4.217   9.596   6.095
  107POPC   NC3 1766   2.634   9.520   8.054
  107POPC   PO4 1767   2.284  10.010   7.858
  107POPC   GL1 1768   2.649   9.794   7.623
  107POPC   GL2 1769   3.018   9.698   7.722
  107POPC   C1A 1770   2.796   9.936   7.254
  107POPC   D2A 1771   2.750   9.964   6.826
  107POPC   C3A 1772   2.422   9.821   6.657
  107POPC   C4A 1773   2.577   9.642   6.325
  107POPC   C1B 1774   2.953   9.451   7.334
  107POPC   C2B 1775   2.816   9.472   6.916
  107POPC   C3B 1776   3.020   9.567   6.539
  107POPC   C4B 1777   2.936   9.343   6.123
  108POPC   NC3 1778   6.886   8.712   8.057
  108POPC   PO4 1779   7.595   8.580   8.055
  108POPC   GL1 1780   7.521   8.900   7.730
  108POPC   GL2 1781   7.169   8.997   7.703
  108POPC   C1A 1782   7.476   8.870   7.272
  108POPC   D2A 1783   7.375   8.706   6.847
  108POPC   C3A 1784   7.625   8.795   6.504
  108POPC   C4A 1785   7.419   8.664   6.167
  108POPC   C1B 1786   7.098   9.236   7.311
  108POPC   C2B 1787   7.302   9.207   6.890
  108POPC   C3B 1788   7.172   9.033   6.476
  108POPC   C4B 1789   7.305   9.162   6.055
  109POPC   NC3 1790  10.507   2.879   8.095
  109POPC   PO4 1791  10.722   2.237   7.889
  109POPC   GL1 1792  10.494   2.515   7.649
  109POPC   GL2 1793  10.153   2.414   7.513
  109POPC   C1A 1794  10.694   2.478   7.251
  109POPC   D2A 1795  10.865   2.257   6.952
  109POPC   C3A 1796  10.655   2.240   6.562
  109POPC   C4A 1797  10.442   2.549   6.381
  109POPC   C1B 1798  10.294   2.784   7.246
  109POPC   C2B 1799  10.574   2.830   6.885
  109POPC   C3B 1800  10.575   3.014   6.475
  109POPC   C4B 1801  10.208   3.184   6.228
  110POPC   NC3 1802   9.638   8.795   8.075
  110POPC   PO4 1803   9.263   9.290   7.870
  110POPC   GL1 1804   9.355   8.888   7.651
  110POPC   GL2 1805   9.698   8.814   7.564
  110POPC   C1A 1806   9.261   8.757   7.222
  110POPC   D2A 1807   9.312   9.016   6.846
  110POPC   C3A 1808   9.210   8.849   6.452
  110POPC   C4A 1809   9.426   8.691   6.102
  110POPC   C1B 1810   9.731   8.519   7.230
  110POPC   C2B 1811   9.896   8.475   6.822
  110POPC   C3B 1812   9.700   8.703   6.538
  110POPC   C4B 1813   9.918   8.837   6.185
  111POPC   NC3 1814   3.120  10.409   8.093
  111POPC   PO4 1815   2.552  10.746   8.044
  111POPC   GL1 1816   2.848  10.638   7.732
  111POPC   GL2 1817   2.766  10.281   7.733
  111POPC   C1A 1818   3.026  10.740   7.345
  111POPC   D2A 1819   2.763  10.792   6.972
  111POPC   C3A 1820   2.964  10.722   6.584
  111POPC   C4A 1821   2.785  10.608   6.212
  111POPC   C1B 1822   2.596  10.429   7.340
  111POPC   C2B 1823   2.379  10.409   6.968
  111POPC   C3B 1824   2.547  10.374   6.601
  111POPC   C4B 1825   2.569  10.130   6.248
  112POPC   NC3 1826   7.835  11.137   8.020
  112POPC   PO4 1827   8.461  10.902   7.981
  112POPC   GL1 1828   8.241  11.151   7.656
  112POPC   GL2 1829   7.932  11.375   7.600
  112POPC   C1A 1830   8.221  11.000   7.238
  112POPC   D2A 1831   8.428  10.770   6.934
  112POPC   C3A 1832   8.448  10.987   6.590
  112POPC   C4A 1833   8.488  11.118   6.194
  112POPC   C1B 1834   8.062  11.496   7.253
  112POPC   C2B 1835   8.002  11.307   6.887
  112POPC   C3B 1836   8.139  11.381   6.488
  112POPC   C4B 1837   7.982  11.135   6.161
  113POPC   NC3 1838   2.427   2.346   8.021
  113POPC   PO4 1839   2.491   1.738   8.287
  113POPC   GL1 1840   2.614   1.930   7.814
  113POPC   GL2 1841   2.892   2.070   7.845
  113POPC   C1A 1842   2.442   1.958   7.341
  113POPC   D2A 1843   2.527   1.994   6.910
  113POPC   C3A 1844   2.358   1.779   6.524
  113POPC   C4A 1845   2.413   1.955   6.109
  113POPC   C1B 1846   2.934   1.959   7.392
  113POPC   C2B 1847   3.061   2.034   6.954
  113POPC   C3B 1848   3.093   2.216   6.548
  113POPC   C4B 1849   2.910   1.966   6.217
  114POPC   NC3 1850   4.358   9.207   8.027
  114POPC   PO4 1851   3.739   9.202   8.069
  114POPC   GL1 1852   3.848   9.160   7.627
  114POPC   GL2 1853   4.084   8.911   7.678
  114POPC   C1A 1854   4.096   9.149   7.212
  114POPC   D2A 1855   4.079   8.974   6.783
  114POPC   C3A 1856   4.203   9.171   6.378
  114POPC   C4A 1857   4.270   9.127   5.905
  114POPC   C1B 1858   4.386   8.746   7.372
  114POPC   C2B 1859   4.565   8.766   6.956
  114POPC   C3B 1860   4.574   8.839   6.500
  114POPC   C4B 1861   4.296   8.689   6.159
  115POPC   NC3 1862  10.990   1.360   7.832
  115POPC   PO4 1863  10.770   1.739   8.298
  115POPC   GL1 1864  10.636   1.735   7.791
  115POPC   GL2 1865  10.286   1.845   7.660
  115POPC   C1A 1866  10.692   1.631   7.296
  115POPC   D2A 1867  10.590   1.823   6.853
  115POPC   C3A 1868  10.739   1.721   6.436
  115POPC   C4A 1869  10.680   1.877   5.992
  115POPC   C1B 1870  10.428   2.056   7.287
  115POPC   C2B 1871  10.302   2.335   6.958
  115POPC   C3B 1872  10.094   2.259   6.584
  115POPC   C4B 1873  10.298   1.979   6.298
  116POPC   NC3 1874  10.929   6.751   8.056
  116POPC   PO4 1875  11.452   6.372   8.219
  116POPC   GL1 1876  11.456   6.345   7.779
  116POPC   GL2 1877  11.328   6.680   7.732
  116POPC   C1A 1878   0.007   6.230   7.335
  116POPC   D2A 1879  11.250   6.329   6.939
  116POPC   C3A 1880  11.482   6.199   6.599
  116POPC   C4A 1881   0.053   6.379   6.215
  116POPC   C1B 1882  11.070   6.530   7.402
  116POPC   C2B 1883  10.840   6.671   7.045
  116POPC   C3B 1884  10.977   6.688   6.613
  116POPC   C4B 1885  11.193   6.759   6.230
  117POPC   NC3 1886   2.159  10.448   7.957
  117POPC   PO4 1887   1.566   9.974   8.045
  117POPC   GL1 1888   1.533  10.219   7.656
  117POPC   GL2 1889   1.698  10.541   7.657
  117POPC   C1A 1890   1.690  10.186   7.221
  117POPC   D2A 1891   2.020  10.034   6.916
  117POPC   C3A 1892   2.037  10.107   6.462
  117POPC   C4A 1893   1.804  10.373   6.165
  117POPC   C1B 1894   1.999  10.582   7.318
  117POPC   C2B 1895   1.838  10.584   6.906
  117POPC   C3B 1896   2.046  10.585   6.565
  117POPC   C4B 1897   2.276  10.527   6.197
  118POPC   NC3 1898   2.771   0.518   8.103
  118POPC   PO4 1899   2.242   0.193   7.962
  118POPC   GL1 1900   2.419   0.466   7.704
  118POPC   GL2 1901   2.740   0.330   7.626
  118POPC   C1A 1902   2.368   0.456   7.270
  118POPC   D2A 1903   2.415   0.281   6.895
  118POPC   C3A 1904   2.448   0.475   6.535
  118POPC   C4A 1905   2.328   0.363   6.145
  118POPC   C1B 1906   2.815   0.177   7.203
  118POPC   C2B 1907   2.903   0.266   6.759
  118POPC   C3B 1908   2.832   0.172   6.342
  118POPC   C4B 1909   3.092   0.140   5.982
  119POPC   NC3 1910   2.910  11.034   8.055
  119POPC   PO4 1911   3.053   0.122   8.078
  119POPC   GL1 1912   2.953  11.371   7.686
  119POPC   GL2 1913   2.577  11.287   7.722
  119POPC   C1A 1914   2.818  11.190   7.291
  119POPC   D2A 1915   2.613  11.288   6.918
  119POPC   C3A 1916   2.816  11.212   6.547
  119POPC   C4A 1917   2.928  11.140   6.137
  119POPC   C1B 1918   2.379  10.952   7.420
  119POPC   C2B 1919   2.250  10.904   6.978
  119POPC   C3B 1920   2.445  10.882   6.576
  119POPC   C4B 1921   2.455  11.005   6.163
  120POPC   NC3 1922   1.527  10.421   8.151
  120POPC   PO4 1923   0.938  10.743   8.157
  120POPC   GL1 1924   1.195  10.636   7.807
  120POPC   GL2 1925   0.993  10.351   7.735
  120POPC   C1A 1926   1.112  10.709   7.362
  120POPC   D2A 1927   0.870  10.551   6.982
  120POPC   C3A 1928   1.103  10.592   6.566
  120POPC   C4A 1929   1.541  10.700   6.430
  120POPC   C1B 1930   1.124  10.193   7.326
  120POPC   C2B 1931   1.276  10.241   6.930
  120POPC   C3B 1932   1.553  10.204   6.619
  120POPC   C4B 1933   1.327  10.168   6.246
  121POPC   NC3 1934   9.805   1.235   8.164
  121POPC   PO4 1935   9.171   1.370   8.039
  121POPC   GL1 1936   9.470   1.132   7.750
  121POPC   GL2 1937   9.789   1.247   7.662
  121POPC   C1A 1938   9.570   0.874   7.366
  121POPC   D2A 1939   9.541   0.999   6.922
  121POPC   C3A 1940   9.285   1.067   6.570
  121POPC   C4A 1941   9.512   0.946   6.199
  121POPC   C1B 1942   9.689   1.388   7.265
  121POPC   C2B 1943   9.814   1.439   6.863
  121POPC   C3B 1944   9.713   1.339   6.461
  121POPC   C4B 1945  10.004   1.173   6.167
  122POPC   NC3 1946   9.895   0.258   8.061
  122POPC   PO4 1947   9.568   0.813   8.140
  122POPC   GL1 1948   9.800   0.717   7.793
  122POPC   GL2 1949   9.573   0.468   7.723
  122POPC   C1A 1950   9.986   0.507   7.426
  122POPC   D2A 1951  10.040   0.321   7.029
  122POPC   C3A 1952   9.805   0.526   6.698
  122POPC   C4A 1953   9.948   0.677   6.305
  122POPC   C1B 1954   9.437   0.368   7.324
  122POPC   C2B 1955   9.299   0.538   6.953
  122POPC   C3B 1956   9.280   0.358   6.564
  122POPC   C4B 1957   9.528   0.421   6.208
  123POPC   NC3 1958   5.086  11.415   8.412
  123POPC   PO4 1959   5.584   0.027   7.927
  123POPC   GL1 1960   5.358  11.257   7.617
  123POPC   GL2 1961   5.033  11.120   7.772
  123POPC   C1A 1962   5.278  11.354   7.169
  123POPC   D2A 1963   5.232   0.026   6.752
  123POPC   C3A 1964   5.170  11.231   6.432
  123POPC   C4A 1965   5.444  11.047   6.148
  123POPC   C1B 1966   4.834  11.262   7.403
  123POPC   C2B 1967   4.825  11.159   6.968
  123POPC   C3B 1968   4.714  11.362   6.621
  123POPC   C4B 1969   4.676  11.358   6.194
  124POPC   NC3 1970   0.406   9.115   8.342
  124POPC   PO4 1971   0.576   8.572   8.035
  124POPC   GL1 1972   0.527   8.831   7.668
  124POPC   GL2 1973   0.177   8.953   7.687
  124POPC   C1A 1974   0.521   8.889   7.213
  124POPC   D2A 1975   0.346   9.060   6.858
  124POPC   C3A 1976   0.643   8.899   6.571
  124POPC   C4A 1977   0.637   8.538   6.313
  124POPC   C1B 1978   0.164   8.590   7.401
  124POPC   C2B 1979   0.218   8.536   6.938
  124POPC   C3B 1980   0.187   8.645   6.497
  124POPC   C4B 1981   0.353   9.002   6.175
  125POPC   NC3 1982   4.195   0.364   8.346
  125POPC   PO4 1983   3.589   0.555   8.254
  125POPC   GL1 1984   3.511   0.539   7.780
  125POPC   GL2 1985   3.285   0.275   7.642
  125POPC   C1A 1986   3.599   0.515   7.304
  125POPC   D2A 1987   3.552   0.175   6.982
  125POPC   C3A 1988   3.548   0.279   6.527
  125POPC   C4A 1989   3.603   0.238   6.067
  125POPC   C1B 1990   3.100   0.570   7.312
  125POPC   C2B 1991   3.276   0.609   6.860
  125POPC   C3B 1992   3.162   0.575   6.380
  125POPC   C4B 1993   3.298   0.654   5.940
  126POPC   NC3 1994   0.890   8.930   8.038
  126POPC   PO4 1995   1.457   8.628   8.380
  126POPC   GL1 1996   1.426   8.760   7.853
  126POPC   GL2 1997   1.224   9.040   7.689
  126POPC   C1A 1998   1.536   8.807   7.358
  126POPC   D2A 1999   1.711   8.800   6.923
  126POPC   C3A 2000   1.735   9.102   6.590
  126POPC   C4A 2001   1.523   9.066   6.188
  126POPC   C1B 2002   1.013   8.797   7.370
  126POPC   C2B 2003   0.968   8.973   6.973
  126POPC   C3B 2004   1.184   8.927   6.623
  126POPC   C4B 2005   1.080   8.814   6.254
  127POPC   NC3 2006   9.666  10.515   7.889
  127POPC   PO4 2007   9.178  10.236   8.184
  127POPC   GL1 2008   9.385  10.148   7.685
  127POPC   GL2 2009   9.759  10.187   7.522
  127POPC   C1A 2010   9.413  10.188   7.180
  127POPC   D2A 2011   9.438   9.946   6.806
  127POPC   C3A 2012   9.444  10.225   6.442
  127POPC   C4A 2013   9.356  10.192   5.985
  127POPC   C1B 2014   9.820  10.517   7.217
  127POPC   C2B 2015   9.771  10.537   6.775
  127POPC   C3B 2016   9.787  10.575   6.345
  127POPC   C4B 2017   9.858  10.332   5.992
  128POPC   NC3 2018   3.387   8.967   7.898
  128POPC   PO4 2019   2.936   8.463   7.865
  128POPC   GL1 2020   3.244   8.648   7.519
  128POPC   GL2 2021   3.628   8.678   7.549
  128POPC   C1A 2022   3.128   8.778   7.090
  128POPC   D2A 2023   3.191   8.490   6.730
  128POPC   C3A 2024   3.132   8.695   6.376
  128POPC   C4A 2025   3.070   9.069   6.533
  128POPC   C1B 2026   3.607   8.966   7.192
  128POPC   C2B 2027   3.529   8.909   6.751
  128POPC   C3B 2028   3.753   8.868   6.383
  128POPC   C4B 2029   3.828   8.800   5.964
  129POPC   NC3 2030  10.462   0.731   8.338
  129POPC   PO4 2031  10.340   0.196   7.987
  129POPC   GL1 2032  10.495   0.309   7.631
  129POPC   GL2 2033  10.559   0.643   7.694
  129POPC   C1A 2034  10.482   0.111   7.215
  129POPC   D2A 2035  10.478   0.136   6.766
  129POPC   C3A 2036  10.141   0.164   6.486
  129POPC   C4A 2037  10.196   0.290   6.042
  129POPC   C1B 2038  10.446   0.621   7.232
  129POPC   C2B 2039  10.353   0.641   6.808
  129POPC   C3B 2040  10.444   0.562   6.413
  129POPC   C4B 2041  10.770   0.645   6.187
  130POPC   NC3 2042   2.482   7.240   8.103
  130POPC   PO4 2043   2.865   7.623   7.954
  130POPC   GL1 2044   2.566   7.431   7.626
  130POPC   GL2 2045   2.374   7.076   7.602
  130POPC   C1A 2046   2.597   7.480   7.163
  130POPC   D2A 2047   2.641   7.758   6.783
  130POPC   C3A 2048   2.632   7.541   6.385
  130POPC   C4A 2049   2.343   7.244   6.223
  130POPC   C1B 2050   2.307   7.066   7.114
  130POPC   C2B 2051   2.535   7.143   6.716
  130POPC   C3B 2052   2.684   6.893   6.343
  130POPC   C4B 2053   2.587   6.940   5.869
  131POPC   NC3 2054   1.116   1.892   8.090
  131POPC   PO4 2055   1.703   2.275   8.224
  131POPC   GL1 2056   1.611   2.124   7.807
  131POPC   GL2 2057   1.277   2.208   7.727
  131POPC   C1A 2058   1.627   2.214   7.340
  131POPC   D2A 2059   1.368   2.176   6.969
  131POPC   C3A 2060   1.559   1.987   6.613
  131POPC   C4A 2061   1.511   2.072   6.186
  131POPC   C1B 2062   1.037   2.014   7.380
  131POPC   C2B 2063   0.906   1.942   6.947
  131POPC   C3B 2064   1.044   2.056   6.527
  131POPC   C4B 2065   1.061   1.867   6.096
  132POPC   NC3 2066   5.135   9.614   8.016
  132POPC   PO4 2067   5.094  10.219   8.179
  132POPC   GL1 2068   4.960  10.017   7.716
  132POPC   GL2 2069   4.921   9.656   7.558
  132POPC   C1A 2070   5.105   9.979   7.239
  132POPC   D2A 2071   5.363   9.761   6.966
  132POPC   C3A 2072   5.057   9.623   6.679
  132POPC   C4A 2073   5.087   9.603   6.270
  132POPC   C1B 2074   5.022   9.417   7.164
  132POPC   C2B 2075   4.911   9.119   6.805
  132POPC   C3B 2076   5.040   9.088   6.362
  132POPC   C4B 2077   5.151   9.232   5.905
  133POPC   NC3 2078   5.785   1.608   8.054
  133POPC   PO4 2079   5.964   0.924   8.152
  133POPC   GL1 2080   5.965   1.193   7.789
  133POPC   GL2 2081   5.607   1.245   7.687
  133POPC   C1A 2082   6.055   1.293   7.357
  133POPC   D2A 2083   6.046   1.428   6.908
  133POPC   C3A 2084   5.904   1.227   6.534
  133POPC   C4A 2085   6.115   0.972   6.256
  133POPC   C1B 2086   5.647   0.988   7.299
  133POPC   C2B 2087   5.550   1.087   6.889
  133POPC   C3B 2088   5.441   1.010   6.481
  133POPC   C4B 2089   5.628   1.003   6.078
  134POPC   NC3 2090   9.489   9.580   8.157
  134POPC   PO4 2091   9.887  10.082   7.992
  134POPC   GL1 2092   9.681   9.726   7.707
  134POPC   GL2 2093   9.732   9.358   7.700
  134POPC   C1A 2094   9.728   9.715   7.260
  134POPC   D2A 2095   9.740   9.478   6.906
  134POPC   C3A 2096   9.780   9.664   6.533
  134POPC   C4A 2097   9.728   9.885   6.174
  134POPC   C1B 2098   9.555   9.199   7.290
  134POPC   C2B 2099   9.808   8.970   6.977
  134POPC   C3B 2100   9.937   9.159   6.577
  134POPC   C4B 2101   9.570   9.209   6.309
  135POPC   NC3 2102   8.759   1.530   7.900
  135POPC   PO4 2103   8.449   1.042   8.127
  135POPC   GL1 2104   8.663   0.926   7.728
  135POPC   GL2 2105   8.964   1.088   7.692
  135POPC   C1A 2106   8.688   1.174   7.302
  135POPC   D2A 2107   8.885   1.172   6.930
  135POPC   C3A 2108   8.639   1.161   6.615
  135POPC   C4A 2109   8.710   1.056   6.228
  135POPC   C1B 2110   9.208   1.224   7.308
  135POPC   C2B 2111   9.299   1.463   6.913
  135POPC   C3B 2112   8.983   1.557   6.615
  135POPC   C4B 2113   9.091   1.431   6.242
  136POPC   NC3 2114   9.107   0.870   8.129
  136POPC   PO4 2115   8.699   0.341   7.987
  136POPC   GL1 2116   9.030   0.530   7.771
  136POPC   GL2 2117   9.139   0.218   7.736
  136POPC   C1A 2118   9.072   0.727   7.381
  136POPC   D2A 2119   8.783   0.691   7.066
  136POPC   C3A 2120   8.915   0.733   6.639
  136POPC   C4A 2121   9.081   0.704   6.231
  136POPC   C1B 2122   8.927   0.242   7.350
  136POPC   C2B 2123   8.903   0.196   6.939
  136POPC   C3B 2124   8.596   0.362   6.689
  136POPC   C4B 2125   8.684   0.380   6.247
  137POPC   NC3 2126   3.602   1.047   8.113
  137POPC   PO4 2127   2.887   0.962   8.020
  137POPC   GL1 2128   3.224   0.975   7.676
  137POPC   GL2 2129   3.508   1.235   7.637
  137POPC   C1A 2130   3.354   0.998   7.226
  137POPC   D2A 2131   3.616   1.092   6.905
  137POPC   C3A 2132   3.477   0.948   6.527
  137POPC   C4A 2133   3.452   1.153   6.168
  137POPC   C1B 2134   3.766   1.424   7.297
  137POPC   C2B 2135   4.001   1.435   6.865
  137POPC   C3B 2136   3.766   1.396   6.488
  137POPC   C4B 2137   3.677   1.659   6.152
  138POPC   NC3 2138   3.734  10.515   8.281
  138POPC   PO4 2139   4.271  10.689   7.859
  138POPC   GL1 2140   3.846  10.509   7.727
  138POPC   GL2 2141   3.481  10.461   7.756
  138POPC   C1A 2142   3.644  10.478   7.293
  138POPC   D2A 2143   3.505  10.261   6.915
  138POPC   C3A 2144   3.555  10.482   6.523
  138POPC   C4A 2145   3.852  10.726   6.244
  138POPC   C1B 2146   3.175  10.266   7.424
  138POPC   C2B 2147   3.014  10.348   6.984
  138POPC   C3B 2148   3.074  10.223   6.516
  138POPC   C4B 2149   3.270  10.397   6.117
  139POPC   NC3 2150  11.198  10.249   8.528
  139POPC   PO4 2151  10.840  10.168   8.022
  139POPC   GL1 2152  11.215  10.102   7.728
  139POPC   GL2 2153  11.362  10.424   7.694
  139POPC   C1A 2154  11.279  10.141   7.258
  139POPC   D2A 2155  10.930  10.215   6.941
  139POPC   C3A 2156  10.942  10.111   6.497
  139POPC   C4A 2157  10.984  10.208   6.021
  139POPC   C1B 2158  11.273  10.667   7.302
  139POPC   C2B 2159  11.310  10.565   6.869
  139POPC   C3B 2160  11.278  10.481   6.439
  139POPC   C4B 2161  11.406  10.102   6.269
  140POPC   NC3 2162   3.381   2.062   8.115
  140POPC   PO4 2163   3.449   1.499   8.077
  140POPC   GL1 2164   3.310   1.762   7.694
  140POPC   GL2 2165   3.331   2.166   7.620
  140POPC   C1A 2166   3.385   1.770   7.247
  140POPC   D2A 2167   3.525   1.622   6.867
  140POPC   C3A 2168   3.295   1.720   6.499
  140POPC   C4A 2169   3.156   1.544   6.082
  140POPC   C1B 2170   3.734   2.007   7.523
  140POPC   C2B 2171   3.889   1.874   7.108
  140POPC   C3B 2172   3.804   1.945   6.611
  140POPC   C4B 2173   3.512   2.117   6.264
  141POPC   NC3 2174   2.882   3.817   8.025
  141POPC   PO4 2175   3.249   3.230   8.080
  141POPC   GL1 2176   2.993   3.173   7.725
  141POPC   GL2 2177   2.635   3.310   7.718
  141POPC   C1A 2178   3.060   3.365   7.330
  141POPC   D2A 2179   3.277   3.288   6.931
  141POPC   C3A 2180   3.025   3.369   6.554
  141POPC   C4A 2181   2.951   3.202   6.162
  141POPC   C1B 2182   2.464   3.383   7.293
  141POPC   C2B 2183   2.318   3.417   6.849
  141POPC   C3B 2184   2.509   3.432   6.418
  141POPC   C4B 2185   2.789   3.785   6.251
  142POPC   NC3 2186   8.793  10.008   8.071
  142POPC   PO4 2187   9.107   9.430   8.359
  142POPC   GL1 2188   9.125   9.743   7.857
  142POPC   GL2 2189   8.854   9.594   7.649
  142POPC   C1A 2190   9.238   9.767   7.391
  142POPC   D2A 2191   9.254   9.512   7.027
  142POPC   C3A 2192   9.245   9.462   6.603
  142POPC   C4A 2193   9.285   9.755   6.341
  142POPC   C1B 2194   8.776   9.696   7.181
  142POPC   C2B 2195   8.899   9.802   6.765
  142POPC   C3B 2196   8.790   9.671   6.351
  142POPC   C4B 2197   8.479   9.901   6.108
  143POPC   NC3 2198   7.219  10.964   8.235
  143POPC   PO4 2199   7.478  11.402   7.847
  143POPC   GL1 2200   7.472  11.087   7.628
  143POPC   GL2 2201   7.155  10.963   7.697
  143POPC   C1A 2202   7.619  11.230   7.226
  143POPC   D2A 2203   7.559   0.035   6.904
  143POPC   C3A 2204   7.624  11.325   6.526
  143POPC   C4A 2205   7.461  11.291   6.141
  143POPC   C1B 2206   7.117  11.184   7.276
  143POPC   C2B 2207   7.273  11.119   6.876
  143POPC   C3B 2208   7.200  11.006   6.494
  143POPC   C4B 2209   6.974  11.154   6.145
  144POPC   NC3 2210   8.604   2.435   8.006
  144POPC   PO4 2211   9.058   2.920   8.149
  144POPC   GL1 2212   9.156   2.752   7.747
  144POPC   GL2 2213   8.810   2.784   7.685
  144POPC   C1A 2214   9.123   2.717   7.289
  144POPC   D2A 2215   8.865   2.610   6.874
  144POPC   C3A 2216   9.021   2.666   6.452
  144POPC   C4A 2217   9.027   3.020   6.157
  144POPC   C1B 2218   8.621   2.612   7.320
  144POPC   C2B 2219   8.384   2.466   6.941
  144POPC   C3B 2220   8.542   2.450   6.512
  144POPC   C4B 2221   8.572   2.765   6.202
  145POPC   NC3 2222  11.316   1.068   8.295
  145POPC   PO4 2223  10.692   1.044   8.017
  145POPC   GL1 2224  11.028   0.858   7.757
  145POPC   GL2 2225  11.375   1.025   7.692
  145POPC   C1A 2226  10.877   0.870   7.326
  145POPC   D2A 2227  10.725   0.997   6.917
  145POPC   C3A 2228  11.021   0.857   6.606
  145POPC   C4A 2229  11.097   1.025   6.209
  145POPC   C1B 2230  11.306   1.102   7.250
  145POPC   C2B 2231  11.217   1.299   6.849
  145POPC   C3B 2232  11.281   1.459   6.429
  145POPC   C4B 2233  11.399   1.395   5.971
  146POPC   NC3 2234   5.107   0.091   7.928
  146POPC   PO4 2235   4.796   0.702   8.036
  146POPC   GL1 2236   4.751   0.702   7.609
  146POPC   GL2 2237   4.930   0.418   7.615
  146POPC   C1A 2238   4.869   0.618   7.179
  146POPC   D2A 2239   4.839   0.205   7.035
  146POPC   C3A 2240   4.818   0.345   6.635
  146POPC   C4A 2241   4.984   0.235   6.263
  146POPC   C1B 2242   5.270   0.353   7.335
  146POPC   C2B 2243   5.387   0.614   7.010
  146POPC   C3B 2244   5.370   0.498   6.597
  146POPC   C4B 2245   5.301   0.615   6.200
  147POPC   NC3 2246   5.222   7.673   8.535
  147POPC   PO4 2247   5.298   7.786   8.088
  147POPC   GL1 2248   5.182   7.828   7.628
  147POPC   GL2 2249   4.963   8.120   7.532
  147POPC   C1A 2250   5.223   7.882   7.163
  147POPC   D2A 2251   4.998   8.025   6.798
  147POPC   C3A 2252   5.214   8.123   6.409
  147POPC   C4A 2253   5.038   8.095   5.974
  147POPC   C1B 2254   4.985   8.407   7.153
  147POPC   C2B 2255   4.961   8.544   6.709
  147POPC   C3B 2256   4.933   8.531   6.271
  147POPC   C4B 2257   5.146   8.618   5.869
  148POPC   NC3 2258   0.794  11.174   8.232
  148POPC   PO4 2259   0.163  11.375   8.113
  148POPC   GL1 2260   0.217  11.472   7.692
  148POPC   GL2 2261   0.538  11.315   7.734
  148POPC   C1A 2262   0.252  11.251   7.280
  148POPC   D2A 2263   0.121  10.996   6.925
  148POPC   C3A 2264   0.201  11.184   6.528
  148POPC   C4A 2265   0.157  11.440   6.135
  148POPC   C1B 2266   0.604  10.919   7.435
  148POPC   C2B 2267   0.625  10.996   6.971
  148POPC   C3B 2268   0.635  10.852   6.531
  148POPC   C4B 2269   0.577  11.172   6.198
  149POPC   NC3 2270   0.857   5.505   7.747
  149POPC   PO4 2271   0.986   4.892   7.950
  149POPC   GL1 2272   1.113   5.090   7.625
  149POPC   GL2 2273   1.415   5.123   7.702
  149POPC   C1A 2274   1.156   5.172   7.203
  149POPC   D2A 2275   0.980   4.993   6.864
  149POPC   C3A 2276   0.964   5.350   6.648
  149POPC   C4A 2277   1.020   5.258   6.244
  149POPC   C1B 2278   1.552   4.884   7.381
  149POPC   C2B 2279   1.467   4.809   6.972
  149POPC   C3B 2280   1.415   5.065   6.598
  149POPC   C4B 2281   1.344   4.894   6.200
  150POPC   NC3 2282   1.105   4.187   8.129
  150POPC   PO4 2283   1.667   4.614   8.039
  150POPC   GL1 2284   1.327   4.594   7.727
  150POPC   GL2 2285   1.128   4.295   7.641
  150POPC   C1A 2286   1.090   4.675   7.319
  150POPC   D2A 2287   1.051   4.458   6.952
  150POPC   C3A 2288   1.268   4.546   6.585
  150POPC   C4A 2289   1.184   4.418   6.182
  150POPC   C1B 2290   0.906   4.098   7.305
  150POPC   C2B 2291   0.963   3.964   6.877
  150POPC   C3B 2292   0.831   4.186   6.507
  150POPC   C4B 2293   0.870   4.045   6.091
  151POPC   NC3 2294   0.422   1.005   7.896
  151POPC   PO4 2295   0.810   1.528   8.092
  151POPC   GL1 2296   0.678   1.446   7.703
  151POPC   GL2 2297   0.311   1.465   7.664
  151POPC   C1A 2298   0.775   1.343   7.297
  151POPC   D2A 2299   0.674   1.069   6.933
  151POPC   C3A 2300   0.624   1.255   6.541
  151POPC   C4A 2301   0.799   1.427   6.137
  151POPC   C1B 2302   0.288   1.226   7.264
  151POPC   C2B 2303   0.154   1.003   6.871
  151POPC   C3B 2304   0.087   1.015   6.431
  151POPC   C4B 2305   0.413   1.063   6.118
  152POPC   NC3 2306   0.417   1.830   8.051
  152POPC   PO4 2307  11.465   2.385   8.075
  152POPC   GL1 2308   0.046   2.245   7.632
  152POPC   GL2 2309   0.255   1.984   7.617
  152POPC   C1A 2310   0.340   2.301   7.254
  152POPC   D2A 2311   0.412   2.095   6.899
  152POPC   C3A 2312   0.524   2.248   6.535
  152POPC   C4A 2313   0.392   2.348   6.154
  152POPC   C1B 2314   0.549   1.805   7.330
  152POPC   C2B 2315   0.507   1.591   6.925
  152POPC   C3B 2316   0.645   1.756   6.521
  152POPC   C4B 2317   0.566   1.889   6.074
  153POPC   NC3 2318   9.433   6.259   8.049
  153POPC   PO4 2319   9.248   6.881   8.181
  153POPC   GL1 2320   9.462   6.716   7.765
  153POPC   GL2 2321   9.802   6.597   7.719
  153POPC   C1A 2322   9.503   6.559   7.297
  153POPC   D2A 2323   9.534   6.766   6.859
  153POPC   C3A 2324   9.485   6.558   6.440
  153POPC   C4A 2325   9.154   6.325   6.263
  153POPC   C1B 2326  10.018   6.423   7.380
  153POPC   C2B 2327   9.945   6.493   6.987
  153POPC   C3B 2328   9.936   6.376   6.583
  153POPC   C4B 2329  10.081   6.653   6.299
  154POPC   NC3 2330   2.604   8.758   8.035
  154POPC   PO4 2331   3.050   9.283   8.072
  154POPC   GL1 2332   2.754   9.170   7.709
  154POPC   GL2 2333   2.797   8.865   7.578
  154POPC   C1A 2334   2.545   9.147   7.269
  154POPC   D2A 2335   2.686   8.975   6.863
  154POPC   C3A 2336   2.575   9.171   6.453
  154POPC   C4A 2337   2.438   9.320   5.970
  154POPC   C1B 2338   2.613   8.615   7.246
  154POPC   C2B 2339   2.678   8.465   6.820
  154POPC   C3B 2340   2.620   8.661   6.430
  154POPC   C4B 2341   2.670   8.882   6.042
  155POPC   NC3 2342   0.216   7.360   8.091
  155POPC   PO4 2343  11.023   7.275   8.191
  155POPC   GL1 2344  11.275   7.214   7.799
  155POPC   GL2 2345  11.089   7.416   7.588
  155POPC   C1A 2346   0.012   7.228   7.362
  155POPC   D2A 2347  11.440   7.168   6.879
  155POPC   C3A 2348   0.010   7.552   6.606
  155POPC   C4A 2349   0.004   7.736   6.176
  155POPC   C1B 2350  11.034   7.147   7.202
  155POPC   C2B 2351  10.830   7.180   6.819
  155POPC   C3B 2352  10.988   7.292   6.427
  155POPC   C4B 2353  11.379   7.238   6.243
  156POPC   NC3 2354  10.166   4.298   8.022
  156POPC   PO4 2355  10.722   4.629   8.064
  156POPC   GL1 2356  10.515   4.437   7.667
  156POPC   GL2 2357  10.501   4.049   7.718
  156POPC   C1A 2358  10.272   4.516   7.256
  156POPC   D2A 2359  10.007   4.276   6.967
  156POPC   C3A 2360  10.136   4.410   6.562
  156POPC   C4A 2361  10.023   4.459   6.159
  156POPC   C1B 2362  10.529   4.085   7.284
  156POPC   C2B 2363  10.513   4.232   6.870
  156POPC   C3B 2364  10.672   3.994   6.520
  156POPC   C4B 2365  10.455   4.194   6.204
  157POPC   NC3 2366  10.360  11.229   8.077
  157POPC   PO4 2367   9.758  11.332   8.170
  157POPC   GL1 2368   9.956  11.154   7.768
  157POPC   GL2 2369  10.218  11.365   7.606
  157POPC   C1A 2370   9.951  11.028   7.320
  157POPC   D2A 2371  10.109  11.308   6.967
  157POPC   C3A 2372  10.085  11.137   6.526
  157POPC   C4A 2373  10.219  11.283   6.122
  157POPC   C1B 2374  10.466  11.088   7.342
  157POPC   C2B 2375  10.640  11.187   6.951
  157POPC   C3B 2376  10.794  11.277   6.558
  157POPC   C4B 2377  10.594  11.004   6.302
  158POPC   NC3 2378   1.356  11.087   8.055
  158POPC   PO4 2379   0.842   0.095   8.081
  158POPC   GL1 2380   1.128  11.434   7.750
  158POPC   GL2 2381   0.996  11.103   7.702
  158POPC   C1A 2382   1.348  11.234   7.364
  158POPC   D2A 2383   1.131  11.063   6.991
  158POPC   C3A 2384   1.309  11.104   6.604
  158POPC   C4A 2385   1.578  11.225   6.276
  158POPC   C1B 2386   0.835  11.359   7.328
  158POPC   C2B 2387   0.761   0.034   6.937
  158POPC   C3B 2388   0.862  11.315   6.575
  158POPC   C4B 2389   1.065  11.069   6.172
  159POPC   NC3 2390   0.225   9.676   8.054
  159POPC   PO4 2391   0.795   9.359   8.212
  159POPC   GL1 2392   0.514   9.326   7.834
  159POPC   GL2 2393   0.549   9.679   7.681
  159POPC   C1A 2394   0.360   9.323   7.382
  159POPC   D2A 2395   0.681   9.399   7.064
  159POPC   C3A 2396   0.815   9.389   6.639
  159POPC   C4A 2397   0.832   9.242   6.229
  159POPC   C1B 2398   0.213   9.805   7.369
  159POPC   C2B 2399   0.215   9.590   6.941
  159POPC   C3B 2400   0.441   9.731   6.556
  159POPC   C4B 2401   0.380   9.995   6.176
  160POPC   NC3 2402   9.784   5.726   8.007
  160POPC   PO4 2403   9.116   5.944   7.964
  160POPC   GL1 2404   9.487   5.939   7.640
  160POPC   GL2 2405   9.717   5.663   7.530
  160POPC   C1A 2406   9.657   6.060   7.228
  160POPC   D2A 2407   9.507   6.247   6.860
  160POPC   C3A 2408   9.528   6.030   6.478
  160POPC   C4A 2409   9.326   5.715   6.214
  160POPC   C1B 2410   9.881   5.474   7.199
  160POPC   C2B 2411   9.760   5.694   6.850
  160POPC   C3B 2412   9.750   5.550   6.459
  160POPC   C4B 2413   9.843   5.812   6.133
  161POPC   NC3 2414   6.224  10.139   8.043
  161POPC   PO4 2415   5.961  10.714   8.136
  161POPC   GL1 2416   6.075  10.559   7.738
  161POPC   GL2 2417   5.821  10.827   7.620
  161POPC   C1A 2418   6.055  10.192   7.435
  161POPC   D2A 2419   6.099  10.355   7.042
  161POPC   C3A 2420   6.186  10.152   6.698
  161POPC   C4A 2421   5.991  10.257   6.349
  161POPC   C1B 2422   5.672  10.518   7.389
  161POPC   C2B 2423   5.583  10.335   7.025
  161POPC   C3B 2424   5.603  10.434   6.639
  161POPC   C4B 2425   5.498  10.279   6.263
  162POPC   NC3 2426   4.354   2.279   8.034
  162POPC   PO4 2427   4.554   1.671   8.084
  162POPC   GL1 2428   4.405   1.605   7.671
  162POPC   GL2 2429   4.218   1.914   7.686
  162POPC   C1A 2430   4.413   1.833   7.236
  162POPC   D2A 2431   4.294   1.884   6.802
  162POPC   C3A 2432   4.557   2.032   6.459
  162POPC   C4A 2433   4.425   1.931   6.040
  162POPC   C1B 2434   4.140   2.248   7.364
  162POPC   C2B 2435   4.015   2.317   6.942
  162POPC   C3B 2436   4.133   2.322   6.525
  162POPC   C4B 2437   4.009   2.195   6.139
  163POPC   NC3 2438   8.890   5.563   8.058
  163POPC   PO4 2439   9.456   5.419   8.075
  163POPC   GL1 2440   9.280   5.444   7.656
  163POPC   GL2 2441   9.031   5.689   7.541
  163POPC   C1A 2442   9.363   5.561   7.188
  163POPC   D2A 2443   9.269   5.654   6.733
  163POPC   C3A 2444   8.924   5.504   6.431
  163POPC   C4A 2445   8.931   5.461   5.958
  163POPC   C1B 2446   9.142   6.020   7.200
  163POPC   C2B 2447   9.031   6.103   6.743
  163POPC   C3B 2448   8.791   6.005   6.374
  163POPC   C4B 2449   8.700   6.311   6.031
  164POPC   NC3 2450   7.775   2.987   7.927
  164POPC   PO4 2451   8.148   2.507   8.067
  164POPC   GL1 2452   7.918   2.366   7.693
  164POPC   GL2 2453   7.825   2.659   7.562
  164POPC   C1A 2454   7.939   2.339   7.201
  164POPC   D2A 2455   7.936   2.685   6.839
  164POPC   C3A 2456   8.088   2.633   6.400
  164POPC   C4A 2457   8.046   2.317   6.088
  164POPC   C1B 2458   8.162   2.814   7.284
  164POPC   C2B 2459   8.411   2.965   6.890
  164POPC   C3B 2460   8.281   3.109   6.446
  164POPC   C4B 2461   8.257   3.090   5.955
  165POPC   NC3 2462   1.155   0.420   7.979
  165POPC   PO4 2463   1.591   0.908   8.014
  165POPC   GL1 2464   1.506   0.677   7.598
  165POPC   GL2 2465   1.140   0.644   7.528
  165POPC   C1A 2466   1.435   0.612   7.111
  165POPC   D2A 2467   1.007   0.502   6.898
  165POPC   C3A 2468   1.101   0.558   6.467
  165POPC   C4A 2469   1.529   0.586   6.453
  165POPC   C1B 2470   1.194   0.227   7.320
  165POPC   C2B 2471   1.299   0.049   6.899
  165POPC   C3B 2472   1.281   0.098   6.450
  165POPC   C4B 2473   0.882   0.166   6.210
  166POPC   NC3 2474   9.520   2.811   8.142
  166POPC   PO4 2475  10.117   2.494   8.343
  166POPC   GL1 2476   9.969   2.702   7.900
  166POPC   GL2 2477   9.673   2.481   7.767
  166POPC   C1A 2478   9.821   2.827   7.442
  166POPC   D2A 2479   9.844   2.574   7.056
  166POPC   C3A 2480  10.087   2.753   6.724
  166POPC   C4A 2481   9.974   2.701   6.293
  166POPC   C1B 2482   9.481   2.342   7.361
  166POPC   C2B 2483   9.346   2.467   6.932
  166POPC   C3B 2484   9.445   2.807   6.712
  166POPC   C4B 2485   9.476   2.820   6.270
  167POPC   NC3 2486  10.448   8.481   7.834
  167POPC   PO4 2487  10.048   8.873   8.296
  167POPC   GL1 2488  10.121   8.941   7.795
  167POPC   GL2 2489  10.241   9.272   7.719
  167POPC   C1A 2490  10.166   8.770   7.328
  167POPC   D2A 2491  10.397   8.598   6.943
  167POPC   C3A 2492  10.313   8.808   6.540
  167POPC   C4A 2493  10.398   8.676   6.114
  167POPC   C1B 2494  10.058   9.278   7.309
  167POPC   C2B 2495  10.299   9.119   6.963
  167POPC   C3B 2496  10.636   9.191   6.678
  167POPC   C4B 2497  10.603   9.164   6.228
  168POPC   NC3 2498   1.652   1.192   3.949
  168POPC   PO4 2499   1.010   0.922   3.957
  168POPC   GL1 2500   1.260   1.100   4.236
  168POPC   GL2 2501   1.061   1.358   4.364
  168POPC   C1A 2502   1.490   1.125   4.610
  168POPC   D2A 2503   1.344   1.161   5.034
  168POPC   C3A 2504   1.585   1.349   5.378
  168POPC   C4A 2505   1.666   0.945   5.612
  168POPC   C1B 2506   0.944   0.992   4.631
  168POPC   C2B 2507   0.879   0.894   5.072
  168POPC   C3B 2508   1.130   0.955   5.445
  168POPC   C4B 2509   1.142   1.401   5.636
  169POPC   NC3 2510  10.865   3.425   3.806
  169POPC   PO4 2511  10.197   3.444   3.810
  169POPC   GL1 2512  10.197   3.685   4.203
  169POPC   GL2 2513  10.567   3.691   4.221
  169POPC   C1A 2514  10.087   3.519   4.626
  169POPC   D2A 2515  10.208   3.223   4.976
  169POPC   C3A 2516   9.975   3.222   5.359
  169POPC   C4A 2517  10.103   3.345   5.750
  169POPC   C1B 2518  10.571   3.568   4.686
  169POPC   C2B 2519  10.389   3.696   5.117
  169POPC   C3B 2520  10.409   3.724   5.594
  169POPC   C4B 2521  10.697   3.827   5.959
  170POPC   NC3 2522   9.697   5.706   3.703
  170POPC   PO4 2523   9.313   5.331   3.936
  170POPC   GL1 2524   9.640   5.448   4.186
  170POPC   GL2 2525   9.652   5.799   4.234
  170POPC   C1A 2526   9.675   5.446   4.617
  170POPC   D2A 2527   9.445   5.450   4.983
  170POPC   C3A 2528   9.650   5.622   5.336
  170POPC   C4A 2529   9.556   5.631   5.763
  170POPC   C1B 2530   9.841   5.931   4.690
  170POPC   C2B 2531   9.859   6.049   5.151
  170POPC   C3B 2532   9.581   6.202   5.501
  170POPC   C4B 2533   9.493   6.114   5.936
  171POPC   NC3 2534   3.767  10.329   3.925
  171POPC   PO4 2535   3.862  10.873   4.037
  171POPC   GL1 2536   3.727  10.638   4.346
  171POPC   GL2 2537   3.379  10.590   4.252
  171POPC   C1A 2538   3.885  10.610   4.756
  171POPC   D2A 2539   3.907  10.811   5.143
  171POPC   C3A 2540   3.860  10.507   5.495
  171POPC   C4A 2541   3.769  10.319   5.922
  171POPC   C1B 2542   3.405  10.375   4.673
  171POPC   C2B 2543   3.456  10.530   5.113
  171POPC   C3B 2544   3.357  10.372   5.536
  171POPC   C4B 2545   3.361  10.024   5.780
  172POPC   NC3 2546  10.506   2.108   4.061
  172POPC   PO4 2547   9.871   1.950   4.091
  172POPC   GL1 2548  10.097   2.178   4.381
  172POPC   GL2 2549  10.282   1.883   4.468
  172POPC   C1A 2550  10.328   2.271   4.781
  172POPC   D2A 2551  10.399   2.023   5.151
  172POPC   C3A 2552  10.315   2.313   5.491
  172POPC   C4A 2553  10.430   2.327   5.928
  172POPC   C1B 2554  10.566   1.632   4.733
  172POPC   C2B 2555  10.557   1.457   5.137
  172POPC   C3B 2556  10.527   1.604   5.561
  172POPC   C4B 2557  10.218   1.889   5.759
  173POPC   NC3 2558  10.157  11.197   3.888
  173POPC   PO4 2559  10.702  10.677   3.822
  173POPC   GL1 2560  10.475  10.912   4.211
  173POPC   GL2 2561  10.396  11.279   4.333
  173POPC   C1A 2562  10.346  10.930   4.686
  173POPC   D2A 2563  10.112  10.858   5.079
  173POPC   C3A 2564  10.383  10.761   5.411
  173POPC   C4A 2565  10.544  10.903   5.792
  173POPC   C1B 2566  10.140  11.452   4.684
  173POPC   C2B 2567  10.032  11.374   5.120
  173POPC   C3B 2568  10.165   0.136   5.473
  173POPC   C4B 2569  10.485  11.461   5.729
  174POPC   NC3 2570   6.427  11.363   3.887
  174POPC   PO4 2571   7.097  11.441   4.017
  174POPC   GL1 2572   6.770  11.307   4.260
  174POPC   GL2 2573   6.749  10.950   4.304
  174POPC   C1A 2574   6.493  11.340   4.591
  174POPC   D2A 2575   6.615  11.331   5.032
  174POPC   C3A 2576   6.363  11.483   5.371
  174POPC   C4A 2577   6.226  11.373   5.782
  174POPC   C1B 2578   6.606  10.873   4.744
  174POPC   C2B 2579   6.304  10.892   5.109
  174POPC   C3B 2580   6.483  10.933   5.528
  174POPC   C4B 2581   6.906  10.883   5.711
  175POPC   NC3 2582   2.951   9.879   4.011
  175POPC   PO4 2583   3.579   9.938   3.802
  175POPC   GL1 2584   3.705   9.862   4.226
  175POPC   GL2 2585   3.633   9.517   4.190
  175POPC   C1A 2586   3.739   9.973   4.684
  175POPC   D2A 2587   3.541  10.010   5.119
  175POPC   C3A 2588   3.804   9.963   5.510
  175POPC   C4A 2589   3.793   9.807   5.945
  175POPC   C1B 2590   3.415   9.567   4.608
  175POPC   C2B 2591   3.347   9.523   5.074
  175POPC   C3B 2592   3.455   9.579   5.512
  175POPC   C4B 2593   3.372   9.534   5.966
  176POPC   NC3 2594  10.542   7.946   3.802
  176POPC   PO4 2595  10.671   8.589   3.937
  176POPC   GL1 2596  10.461   8.436   4.307
  176POPC   GL2 2597  10.481   8.062   4.328
  176POPC   C1A 2598  10.443   8.304   4.760
  176POPC   D2A 2599  10.675   8.092   5.095
  176POPC   C3A 2600  10.503   8.361   5.373
  176POPC   C4A 2601  10.216   8.490   5.643
  176POPC   C1B 2602  10.394   7.798   4.736
  176POPC   C2B 2603  10.208   7.891   5.140
  176POPC   C3B 2604  10.249   7.962   5.577
  176POPC   C4B 2605  10.209   7.708   5.976
  177POPC   NC3 2606   9.573   2.251   4.276
  177POPC   PO4 2607   9.589   2.899   3.963
  177POPC   GL1 2608   9.612   2.789   4.339
  177POPC   GL2 2609   9.918   2.649   4.289
  177POPC   C1A 2610   9.428   2.762   4.734
  177POPC   D2A 2611   9.355   3.007   5.073
  177POPC   C3A 2612   9.516   2.905   5.424
  177POPC   C4A 2613   9.313   2.917   5.782
  177POPC   C1B 2614   9.899   2.548   4.726
  177POPC   C2B 2615   9.882   2.803   5.060
  177POPC   C3B 2616   9.990   2.711   5.471
  177POPC   C4B 2617   9.767   2.679   5.840
  178POPC   NC3 2618  10.827   0.425   3.742
  178POPC   PO4 2619  11.293   0.196   4.165
  178POPC   GL1 2620  11.307   0.573   4.402
  178POPC   GL2 2621   0.156   0.627   4.320
  178POPC   C1A 2622  11.051   0.550   4.818
  178POPC   D2A 2623  10.949   0.179   5.104
  178POPC   C3A 2624  11.063   0.266   5.555
  178POPC   C4A 2625  11.059   0.682   5.750
  178POPC   C1B 2626   0.153   0.378   4.712
  178POPC   C2B 2627  11.460   0.413   5.084
  178POPC   C3B 2628   0.030   0.492   5.474
  178POPC   C4B 2629  11.492   0.340   5.855
  179POPC   NC3 2630   6.652   9.574   3.854
  179POPC   PO4 2631   6.181   9.944   3.781
  179POPC   GL1 2632   6.384   9.919   4.195
  179POPC   GL2 2633   6.614   9.668   4.359
  179POPC   C1A 2634   6.363  10.027   4.647
  179POPC   D2A 2635   6.406   9.812   5.036
  179POPC   C3A 2636   6.242   9.841   5.453
  179POPC   C4A 2637   6.382   9.531   5.770
  179POPC   C1B 2638   6.843   9.858   4.736
  179POPC   C2B 2639   6.847  10.054   5.146
  179POPC   C3B 2640   6.740   9.852   5.523
  179POPC   C4B 2641   6.701   9.868   5.962
  180POPC   NC3 2642   9.275   8.978   3.795
  180POPC   PO4 2643   9.967   9.079   3.789
  180POPC   GL1 2644   9.609   9.206   4.135
  180POPC   GL2 2645   9.452   8.891   4.278
  180POPC   C1A 2646   9.556   9.311   4.602
  180POPC   D2A 2647   9.765   9.177   5.000
  180POPC   C3A 2648   9.600   9.222   5.420
  180POPC   C4A 2649   9.692   9.101   5.829
  180POPC   C1B 2650   9.449   8.832   4.727
  180POPC   C2B 2651   9.317   8.868   5.147
  180POPC   C3B 2652   9.373   8.783   5.588
  180POPC   C4B 2653   9.752   8.596   5.737
  181POPC   NC3 2654  11.150   8.349   4.060
  181POPC   PO4 2655  10.957   7.806   3.690
  181POPC   GL1 2656  10.980   7.892   4.160
  181POPC   GL2 2657  11.288   7.852   4.197
  181POPC   C1A 2658  10.922   8.053   4.632
  181POPC   D2A 2659  11.182   8.186   5.038
  181POPC   C3A 2660  10.991   8.311   5.468
  181POPC   C4A 2661  10.721   8.357   5.848
  181POPC   C1B 2662  11.343   7.746   4.626
  181POPC   C2B 2663  11.135   7.626   5.008
  181POPC   C3B 2664  11.063   7.806   5.418
  181POPC   C4B 2665  11.413   7.936   5.704
  182POPC   NC3 2666   5.698  10.933   3.929
  182POPC   PO4 2667   6.406  10.913   3.673
  182POPC   GL1 2668   6.212  10.920   4.120
  182POPC   GL2 2669   6.018  11.251   4.188
  182POPC   C1A 2670   6.134  10.979   4.590
  182POPC   D2A 2671   6.085  11.328   4.925
  182POPC   C3A 2672   5.938  11.205   5.356
  182POPC   C4A 2673   6.003  10.921   5.709
  182POPC   C1B 2674   5.715  11.261   4.568
  182POPC   C2B 2675   5.552  11.297   5.012
  182POPC   C3B 2676   5.478  11.438   5.452
  182POPC   C4B 2677   5.694  11.340   5.834
  183POPC   NC3 2678   1.110   8.114   3.786
  183POPC   PO4 2679   1.650   8.398   3.986
  183POPC   GL1 2680   1.372   8.148   4.228
  183POPC   GL2 2681   1.046   8.173   4.300
  183POPC   C1A 2682   1.421   8.042   4.660
  183POPC   D2A 2683   1.251   8.160   5.077
  183POPC   C3A 2684   1.345   7.908   5.453
  183POPC   C4A 2685   1.461   8.159   5.808
  183POPC   C1B 2686   0.918   8.024   4.704
  183POPC   C2B 2687   0.748   8.175   5.112
  183POPC   C3B 2688   0.908   8.151   5.507
  183POPC   C4B 2689   0.978   7.906   5.872
  184POPC   NC3 2690  11.006  10.989   4.044
  184POPC   PO4 2691  10.639   0.058   3.982
  184POPC   GL1 2692  10.903  11.382   4.352
  184POPC   GL2 2693  11.260  11.245   4.402
  184POPC   C1A 2694  10.805  11.225   4.752
  184POPC   D2A 2695  10.561  11.286   5.146
  184POPC   C3A 2696  10.882  11.289   5.472
  184POPC   C4A 2697  10.895  11.226   5.935
  184POPC   C1B 2698  11.324  11.446   4.817
  184POPC   C2B 2699  11.380  11.450   5.271
  184POPC   C3B 2700  11.363  11.359   5.694
  184POPC   C4B 2701  11.368  11.041   5.981
  185POPC   NC3 2702   1.985  11.202   4.011
  185POPC   PO4 2703   2.456  10.750   3.934
  185POPC   GL1 2704   2.247  10.698   4.328
  185POPC   GL2 2705   2.134  10.992   4.446
  185POPC   C1A 2706   2.464  10.800   4.760
  185POPC   D2A 2707   2.286  11.099   5.013
  185POPC   C3A 2708   2.105  10.968   5.364
  185POPC   C4A 2709   2.207  11.095   5.737
  185POPC   C1B 2710   1.841  11.125   4.716
  185POPC   C2B 2711   1.696  11.155   5.094
  185POPC   C3B 2712   1.618  11.055   5.473
  185POPC   C4B 2713   1.744  11.309   5.790
  186POPC   NC3 2714   3.620   2.850   3.816
  186POPC   PO4 2715   2.959   3.102   3.985
  186POPC   GL1 2716   3.340   2.962   4.264
  186POPC   GL2 2717   3.392   2.587   4.261
  186POPC   C1A 2718   3.370   2.816   4.736
  186POPC   D2A 2719   3.241   2.810   5.200
  186POPC   C3A 2720   3.580   2.827   5.545
  186POPC   C4A 2721   3.786   2.975   5.972
  186POPC   C1B 2722   3.119   2.381   4.627
  186POPC   C2B 2723   3.223   2.290   5.074
  186POPC   C3B 2724   3.215   2.424   5.558
  186POPC   C4B 2725   3.132   2.394   6.046
  187POPC   NC3 2726   9.703   1.525   4.187
  187POPC   PO4 2727   9.302   2.145   3.933
  187POPC   GL1 2728   9.156   1.960   4.357
  187POPC   GL2 2729   9.483   1.826   4.531
  187POPC   C1A 2730   9.065   1.812   4.812
  187POPC   D2A 2731   9.457   1.828   5.083
  187POPC   C3A 2732   9.559   1.732   5.522
  187POPC   C4A 2733   9.516   1.896   5.928
  187POPC   C1B 2734   9.869   1.972   4.800
  187POPC   C2B 2735   9.921   2.247   5.168
  187POPC   C3B 2736   9.816   2.207   5.624
  187POPC   C4B 2737   9.912   2.221   6.077
  188POPC   NC3 2738   2.719   7.363   3.912
  188POPC   PO4 2739   2.987   6.895   3.968
  188POPC   GL1 2740   2.879   7.175   4.378
  188POPC   GL2 2741   2.658   7.492   4.408
  188POPC   C1A 2742   2.845   7.244   4.866
  188POPC   D2A 2743   2.970   7.031   5.266
  188POPC   C3A 2744   3.004   7.257   5.660
  188POPC   C4A 2745   2.959   7.264   6.112
  188POPC   C1B 2746   2.423   7.148   4.611
  188POPC   C2B 2747   2.285   7.111   5.049
  188POPC   C3B 2748   2.515   7.219   5.433
  188POPC   C4B 2749   2.581   7.474   5.833
  189POPC   NC3 2750   8.489  11.277   4.127
  189POPC   PO4 2751   8.358  10.696   3.742
  189POPC   GL1 2752   8.307  10.786   4.202
  189POPC   GL2 2753   8.068  11.026   4.279
  189POPC   C1A 2754   8.374  10.915   4.668
  189POPC   D2A 2755   8.162  11.236   4.925
  189POPC   C3A 2756   8.093  11.139   5.350
  189POPC   C4A 2757   8.285  11.042   5.740
  189POPC   C1B 2758   7.831  11.313   4.525
  189POPC   C2B 2759   7.641  11.324   4.913
  189POPC   C3B 2760   7.591  11.288   5.342
  189POPC   C4B 2761   7.770  11.276   5.732
  190POPC   NC3 2762   5.712   0.180   3.582
  190POPC   PO4 2763   5.284   0.484   3.956
  190POPC   GL1 2764   4.992   0.468   4.326
  190POPC   GL2 2765   4.868   0.123   4.460
  190POPC   C1A 2766   5.111   0.476   4.762
  190POPC   D2A 2767   5.286   0.241   5.066
  190POPC   C3A 2768   5.295   0.448   5.429
  190POPC   C4A 2769   5.099   0.420   5.792
  190POPC   C1B 2770   4.622   0.319   4.701
  190POPC   C2B 2771   4.664   0.506   5.043
  190POPC   C3B 2772   4.747   0.501   5.421
  190POPC   C4B 2773   4.701   0.714   5.780
  191POPC   NC3 2774   4.808   1.778   3.870
  191POPC   PO4 2775   4.804   2.450   3.934
  191POPC   GL1 2776   4.886   2.204   4.304
  191POPC   GL2 2777   5.042   1.878   4.315
  191POPC   C1A 2778   4.730   2.179   4.746
  191POPC   D2A 2779   4.514   2.155   5.153
  191POPC   C3A 2780   4.816   2.252   5.480
  191POPC   C4A 2781   4.851   2.157   5.915
  191POPC   C1B 2782   4.872   1.699   4.703
  191POPC   C2B 2783   4.910   1.834   5.148
  191POPC   C3B 2784   5.082   1.815   5.607
  191POPC   C4B 2785   5.282   1.911   6.037
  192POPC   NC3 2786   4.127   0.258   3.778
  192POPC   PO4 2787   4.638  11.500   4.010
  192POPC   GL1 2788   4.334   0.254   4.297
  192POPC   GL2 2789   4.263   0.610   4.295
  192POPC   C1A 2790   4.125   0.187   4.726
  192POPC   D2A 2791   4.383   0.058   5.092
  192POPC   C3A 2792   4.351   0.171   5.506
  192POPC   C4A 2793   4.646   0.193   5.824
  192POPC   C1B 2794   4.271   0.686   4.750
  192POPC   C2B 2795   4.161   0.539   5.157
  192POPC   C3B 2796   4.245   0.682   5.557
  192POPC   C4B 2797   4.257   0.863   5.977
  193POPC   NC3 2798   1.386   2.156   3.965
  193POPC   PO4 2799   1.679   1.657   3.969
  193POPC   GL1 2800   1.521   1.597   4.350
  193POPC   GL2 2801   1.262   1.858   4.353
  193POPC   C1A 2802   1.334   1.584   4.762
  193POPC   D2A 2803   1.052   1.607   5.113
  193POPC   C3A 2804   1.243   1.871   5.397
  193POPC   C4A 2805   1.458   1.784   5.766
  193POPC   C1B 2806   0.910   1.885   4.669
  193POPC   C2B 2807   0.783   2.078   5.069
  193POPC   C3B 2808   0.966   2.348   5.347
  193POPC   C4B 2809   1.175   2.227   5.748
  194POPC   NC3 2810   5.817   0.502   4.074
  194POPC   PO4 2811   5.583  11.415   3.937
  194POPC   GL1 2812   5.495   0.177   4.356
  194POPC   GL2 2813   5.490   0.552   4.443
  194POPC   C1A 2814   5.716   0.242   4.784
  194POPC   D2A 2815   5.991   0.282   5.155
  194POPC   C3A 2816   5.907   0.228   5.572
  194POPC   C4A 2817   5.601   0.371   5.836
  194POPC   C1B 2818   5.889   0.719   4.658
  194POPC   C2B 2819   6.151   0.735   4.983
  194POPC   C3B 2820   6.070   0.895   5.396
  194POPC   C4B 2821   5.959   0.724   5.799
  195POPC   NC3 2822   3.979   9.711   3.807
  195POPC   PO4 2823   4.654   9.499   4.091
  195POPC   GL1 2824   4.224   9.530   4.197
  195POPC   GL2 2825   4.223   9.860   4.283
  195POPC   C1A 2826   3.959   9.506   4.574
  195POPC   D2A 2827   3.982   9.635   5.010
  195POPC   C3A 2828   4.213   9.369   5.320
  195POPC   C4A 2829   3.958   9.442   5.645
  195POPC   C1B 2830   4.433   9.727   4.705
  195POPC   C2B 2831   4.459   9.773   5.178
  195POPC   C3B 2832   4.493   9.765   5.644
  195POPC   C4B 2833   4.704  10.173   5.782
  196POPC   NC3 2834   3.052   1.754   3.968
  196POPC   PO4 2835   2.459   1.489   3.709
  196POPC   GL1 2836   2.478   1.659   4.189
  196POPC   GL2 2837   2.605   1.959   4.107
  196POPC   C1A 2838   2.316   1.760   4.605
  196POPC   D2A 2839   2.587   1.621   4.952
  196POPC   C3A 2840   2.537   1.758   5.396
  196POPC   C4A 2841   2.725   1.675   5.814
  196POPC   C1B 2842   2.758   1.998   4.535
  196POPC   C2B 2843   2.620   2.122   4.952
  196POPC   C3B 2844   2.819   2.166   5.346
  196POPC   C4B 2845   2.734   2.205   5.776
  197POPC   NC3 2846   7.582  11.418   3.878
  197POPC   PO4 2847   7.248   0.528   3.710
  197POPC   GL1 2848   7.416   0.513   4.184
  197POPC   GL2 2849   7.647   0.242   4.243
  197POPC   C1A 2850   7.230   0.628   4.630
  197POPC   D2A 2851   7.376   0.871   4.999
  197POPC   C3A 2852   7.252   0.735   5.402
  197POPC   C4A 2853   7.030   0.487   5.686
  197POPC   C1B 2854   7.399   0.142   4.590
  197POPC   C2B 2855   7.485   0.309   4.993
  197POPC   C3B 2856   7.369   0.230   5.396
  197POPC   C4B 2857   7.466   0.219   5.813
  198POPC   NC3 2858   1.148   7.605   3.716
  198POPC   PO4 2859   1.541   7.010   3.876
  198POPC   GL1 2860   1.373   7.325   4.186
  198POPC   GL2 2861   1.154   7.142   4.424
  198POPC   C1A 2862   1.474   7.530   4.594
  198POPC   D2A 2863   1.291   7.645   5.003
  198POPC   C3A 2864   1.385   7.314   5.320
  198POPC   C4A 2865   1.494   7.059   5.713
  198POPC   C1B 2866   0.927   7.506   4.621
  198POPC   C2B 2867   0.729   7.654   5.016
  198POPC   C3B 2868   0.901   7.648   5.423
  198POPC   C4B 2869   1.197   7.475   5.752
  199POPC   NC3 2870   0.817   3.709   4.016
  199POPC   PO4 2871   0.544   3.052   3.891
  199POPC   GL1 2872   0.499   3.328   4.269
  199POPC   GL2 2873   0.604   3.650   4.462
  199POPC   C1A 2874   0.417   3.249   4.701
  199POPC   D2A 2875   0.626   3.514   4.980
  199POPC   C3A 2876   0.639   3.367   5.387
  199POPC   C4A 2877   0.395   3.176   5.704
  199POPC   C1B 2878   0.213   3.724   4.674
  199POPC   C2B 2879   0.101   3.520   5.056
  199POPC   C3B 2880   0.211   3.607   5.484
  199POPC   C4B 2881   0.082   3.688   5.873
  200POPC   NC3 2882  10.461   5.775   3.966
  200POPC   PO4 2883  10.002   5.267   3.879
  200POPC   GL1 2884  10.154   5.510   4.271
  200POPC   GL2 2885  10.543   5.541   4.401
  200POPC   C1A 2886  10.172   5.402   4.702
  200POPC   D2A 2887  10.138   5.636   5.060
  200POPC   C3A 2888  10.141   5.520   5.492
  200POPC   C4A 2889   9.972   5.920   5.660
  200POPC   C1B 2890  10.467   5.863   4.701
  200POPC   C2B 2891  10.425   6.040   5.130
  200POPC   C3B 2892  10.470   5.911   5.549
  200POPC   C4B 2893  10.715   6.147   5.819
  201POPC   NC3 2894   8.946   5.599   3.797
  201POPC   PO4 2895   8.466   5.837   4.096
  201POPC   GL1 2896   8.805   5.572   4.321
  201POPC   GL2 2897   9.166   5.560   4.350
  201POPC   C1A 2898   8.930   5.618   4.795
  201POPC   D2A 2899   8.827   5.929   5.138
  201POPC   C3A 2900   8.666   5.773   5.559
  201POPC   C4A 2901   8.525   5.796   6.001
  201POPC   C1B 2902   9.324   5.893   4.615
  201POPC   C2B 2903   9.361   5.970   5.058
  201POPC   C3B 2904   9.195   5.861   5.482
  201POPC   C4B 2905   9.018   5.962   5.882
  202POPC   NC3 2906   6.033   1.481   3.955
  202POPC   PO4 2907   5.708   0.932   3.986
  202POPC   GL1 2908   5.527   1.059   4.373
  202POPC   GL2 2909   5.556   1.389   4.305
  202POPC   C1A 2910   5.455   0.941   4.804
  202POPC   D2A 2911   5.647   0.697   5.144
  202POPC   C3A 2912   5.561   0.932   5.533
  202POPC   C4A 2913   5.395   1.375   5.601
  202POPC   C1B 2914   5.959   1.241   4.547
  202POPC   C2B 2915   5.935   1.186   4.968
  202POPC   C3B 2916   5.838   1.383   5.331
  202POPC   C4B 2917   5.914   1.245   5.744
  203POPC   NC3 2918   7.030   1.415   3.972
  203POPC   PO4 2919   6.951   2.118   3.905
  203POPC   GL1 2920   7.295   1.952   4.190
  203POPC   GL2 2921   7.553   2.177   4.308
  203POPC   C1A 2922   7.471   1.785   4.599
  203POPC   D2A 2923   7.312   1.679   5.004
  203POPC   C3A 2924   7.331   1.719   5.444
  203POPC   C4A 2925   7.015   1.808   5.708
  203POPC   C1B 2926   7.649   2.261   4.757
  203POPC   C2B 2927   7.521   2.144   5.185
  203POPC   C3B 2928   7.321   2.225   5.593
  203POPC   C4B 2929   7.435   2.347   6.005
  204POPC   NC3 2930   8.013   1.484   3.798
  204POPC   PO4 2931   7.927   0.817   3.863
  204POPC   GL1 2932   8.283   0.939   4.134
  204POPC   GL2 2933   8.098   1.204   4.213
  204POPC   C1A 2934   8.491   1.107   4.523
  204POPC   D2A 2935   8.503   0.972   4.972
  204POPC   C3A 2936   8.491   1.222   5.349
  204POPC   C4A 2937   8.460   1.161   5.798
  204POPC   C1B 2938   8.013   1.182   4.639
  204POPC   C2B 2939   8.088   1.366   5.049
  204POPC   C3B 2940   8.020   1.315   5.503
  204POPC   C4B 2941   8.128   1.559   5.835
  205POPC   NC3 2942   8.650   9.218   3.878
  205POPC   PO4 2943   8.948   8.628   3.830
  205POPC   GL1 2944   8.947   8.908   4.215
  205POPC   GL2 2945   8.664   8.981   4.408
  205POPC   C1A 2946   9.066   9.165   4.628
  205POPC   D2A 2947   8.846   9.042   5.002
  205POPC   C3A 2948   8.961   9.074   5.455
  205POPC   C4A 2949   8.643   8.932   5.713
  205POPC   C1B 2950   8.948   8.667   4.672
  205POPC   C2B 2951   8.924   8.537   5.128
  205POPC   C3B 2952   8.935   8.525   5.598
  205POPC   C4B 2953   8.918   8.676   6.039
  206POPC   NC3 2954   4.865  11.176   3.761
  206POPC   PO4 2955   4.192  11.301   3.741
  206POPC   GL1 2956   4.230  11.272   4.232
  206POPC   GL2 2957   4.105  11.002   4.441
  206POPC   C1A 2958   4.463  11.307   4.623
  206POPC   D2A 2959   4.322  11.075   4.961
  206POPC   C3A 2960   4.626  11.103   5.276
  206POPC   C4A 2961   4.646  11.193   5.696
  206POPC   C1B 2962   3.843  11.209   4.727
  206POPC   C2B 2963   3.882  11.386   5.133
  206POPC   C3B 2964   4.128  11.206   5.454
  206POPC   C4B 2965   4.020  10.933   5.790
  207POPC   NC3 2966   0.496  10.808   3.924
  207POPC   PO4 2967   0.736  11.497   3.984
  207POPC   GL1 2968   0.602  11.189   4.251
  207POPC   GL2 2969   0.240  11.146   4.201
  207POPC   C1A 2970   0.732  11.050   4.670
  207POPC   D2A 2971   0.905  11.310   4.997
  207POPC   C3A 2972   0.716  11.193   5.394
  207POPC   C4A 2973   0.807  11.341   5.788
  207POPC   C1B 2974   0.241  11.195   4.636
  207POPC   C2B 2975   0.333  10.993   5.023
  207POPC   C3B 2976   0.216  11.090   5.405
  207POPC   C4B 2977   0.328  11.112   5.774
  208POPC   NC3 2978   8.735  10.489   3.947
  208POPC   PO4 2979   9.342  10.519   3.751
  208POPC   GL1 2980   9.157  10.598   4.305
  208POPC   GL2 2981   8.889  10.404   4.424
  208POPC   C1A 2982   8.866  10.749   4.762
  208POPC   D2A 2983   8.531  10.695   5.108
  208POPC   C3A 2984   8.690  10.786   5.543
  208POPC   C4A 2985   9.087  10.586   5.652
  208POPC   C1B 2986   9.191  10.365   4.761
  208POPC   C2B 2987   9.009  10.430   5.158
  208POPC   C3B 2988   8.676  10.300   5.426
  208POPC   C4B 2989   8.781  10.240   5.865
  209POPC   NC3 2990   5.093   0.056   4.030
  209POPC   PO4 2991   5.291  11.016   3.705
  209POPC   GL1 2992   5.203  11.075   4.177
  209POPC   GL2 2993   4.831  11.108   4.301
  209POPC   C1A 2994   5.196  11.280   4.631
  209POPC   D2A 2995   4.876  11.440   4.959
  209POPC   C3A 2996   4.959   0.015   5.429
  209POPC   C4A 2997   5.137  11.422   5.872
  209POPC   C1B 2998   4.823  10.939   4.768
  209POPC   C2B 2999   5.042  10.809   5.179
  209POPC   C3B 3000   5.194  10.981   5.606
  209POPC   C4B 3001   4.955  10.976   6.040
  210POPC   NC3 3002   0.516  10.181   3.647
  210POPC   PO4 3003  11.432   9.989   3.918
  210POPC   GL1 3004   0.313  10.183   4.183
  210POPC   GL2 3005   0.410  10.478   4.277
  210POPC   C1A 3006   0.288  10.132   4.660
  210POPC   D2A 3007   0.088  10.076   5.089
  210POPC   C3A 3008   0.365  10.187   5.448
  210POPC   C4A 3009   0.361  10.401   5.856
  210POPC   C1B 3010   0.337  10.652   4.648
  210POPC   C2B 3011   0.494  10.505   5.056
  210POPC   C3B 3012   0.553  10.695   5.464
  210POPC   C4B 3013   0.698  10.791   5.881
  211POPC   NC3 3014   2.125   1.754   3.871
  211POPC   PO4 3015   2.224   2.431   3.888
  211POPC   GL1 3016   2.165   2.163   4.237
  211POPC   GL2 3017   1.846   2.027   4.265
  211POPC   C1A 3018   2.146   2.242   4.668
  211POPC   D2A 3019   1.969   2.241   5.059
  211POPC   C3A 3020   2.288   2.222   5.347
  211POPC   C4A 3021   2.208   2.250   5.749
  211POPC   C1B 3022   1.684   1.977   4.680
  211POPC   C2B 3023   1.654   1.809   5.091
  211POPC   C3B 3024   1.847   1.925   5.461
  211POPC   C4B 3025   1.684   2.232   5.708
  212POPC   NC3 3026  10.914   8.897   3.704
  212POPC   PO4 3027  11.449   8.610   3.816
  212POPC   GL1 3028  11.374   8.794   4.221
  212POPC   GL2 3029  11.172   9.046   4.167
  212POPC   C1A 3030  11.273   8.685   4.677
  212POPC   D2A 3031  11.319   8.716   5.111
  212POPC   C3A 3032  11.473   8.437   5.429
  212POPC   C4A 3033  11.224   8.779   5.654
  212POPC   C1B 3034  11.235   9.175   4.618
  212POPC   C2B 3035  11.027   9.127   4.979
  212POPC   C3B 3036  11.094   9.191   5.392
  212POPC   C4B 3037  10.906   9.194   5.785
  213POPC   NC3 3038   7.125  10.945   3.910
  213POPC   PO4 3039   7.840  11.013   3.836
  213POPC   GL1 3040   7.589  10.865   4.177
  213POPC   GL2 3041   7.414  11.152   4.279
  213POPC   C1A 3042   7.570  10.871   4.651
  213POPC   D2A 3043   7.471  10.871   5.081
  213POPC   C3A 3044   7.643  10.780   5.446
  213POPC   C4A 3045   7.456  10.879   5.818
  213POPC   C1B 3046   7.132  11.183   4.616
  213POPC   C2B 3047   7.132  11.377   4.983
  213POPC   C3B 3048   7.083  11.157   5.327
  213POPC   C4B 3049   7.217  11.307   5.701
  214POPC   NC3 3050   4.092   1.413   4.097
  214POPC   PO4 3051   3.445   1.477   3.870
  214POPC   GL1 3052   3.352   1.398   4.293
  214POPC   GL2 3053   3.631   1.165   4.288
  214POPC   C1A 3054   3.557   1.439   4.716
  214POPC   D2A 3055   3.940   1.523   4.967
  214POPC   C3A 3056   3.741   1.516   5.350
  214POPC   C4A 3057   3.498   1.548   5.694
  214POPC   C1B 3058   3.348   0.947   4.583
  214POPC   C2B 3059   3.315   0.846   5.005
  214POPC   C3B 3060   3.332   0.836   5.422
  214POPC   C4B 3061   3.545   1.046   5.699
  215POPC   NC3 3062   9.736   6.646   4.024
  215POPC   PO4 3063  10.061   6.052   3.869
  215POPC   GL1 3064   9.883   6.245   4.287
  215POPC   GL2 3065   9.494   6.330   4.360
  215POPC   C1A 3066   9.833   6.488   4.691
  215POPC   D2A 3067   9.623   6.504   5.095
  215POPC   C3A 3068   9.865   6.693   5.478
  215POPC   C4A 3069   9.862   6.446   5.867
  215POPC   C1B 3070   9.385   6.743   4.653
  215POPC   C2B 3071   9.399   6.947   5.097
  215POPC   C3B 3072   9.369   6.734   5.510
  215POPC   C4B 3073   9.397   6.614   5.926
  216POPC   NC3 3074   4.471   9.070   4.033
  216POPC   PO4 3075   3.898   9.218   3.884
  216POPC   GL1 3076   4.012   9.056   4.300
  216POPC   GL2 3077   4.337   9.155   4.507
  216POPC   C1A 3078   3.918   9.015   4.765
  216POPC   D2A 3079   3.767   9.171   5.178
  216POPC   C3A 3080   4.004   8.947   5.516
  216POPC   C4A 3081   4.141   8.531   5.662
  216POPC   C1B 3082   4.526   8.887   4.787
  216POPC   C2B 3083   4.405   8.851   5.212
  216POPC   C3B 3084   4.567   8.809   5.611
  216POPC   C4B 3085   4.736   8.905   5.994
  217POPC   NC3 3086   1.181   4.368   3.915
  217POPC   PO4 3087   1.717   4.752   4.117
  217POPC   GL1 3088   1.410   4.402   4.354
  217POPC   GL2 3089   1.162   4.042   4.295
  217POPC   C1A 3090   1.123   4.323   4.702
  217POPC   D2A 3091   1.265   4.481   5.048
  217POPC   C3A 3092   1.285   4.351   5.445
  217POPC   C4A 3093   1.432   4.595   5.780
  217POPC   C1B 3094   1.037   3.805   4.693
  217POPC   C2B 3095   0.945   3.889   5.146
  217POPC   C3B 3096   0.981   3.965   5.593
  217POPC   C4B 3097   1.347   4.062   5.875
  218POPC   NC3 3098   1.635   3.668   3.694
  218POPC   PO4 3099   2.187   3.738   3.968
  218POPC   GL1 3100   2.024   3.612   4.329
  218POPC   GL2 3101   2.172   3.308   4.310
  218POPC   C1A 3102   1.935   3.753   4.723
  218POPC   D2A 3103   1.867   3.925   5.119
  218POPC   C3A 3104   1.950   3.673   5.464
  218POPC   C4A 3105   2.164   3.740   5.841
  218POPC   C1B 3106   1.935   3.234   4.710
  218POPC   C2B 3107   2.053   3.207   5.156
  218POPC   C3B 3108   1.947   3.182   5.606
  218POPC   C4B 3109   2.137   3.265   5.980
  219POPC   NC3 3110  10.608   1.144   3.816
  219POPC   PO4 3111   9.953   1.248   3.895
  219POPC   GL1 3112  10.229   1.094   4.265
  219POPC   GL2 3113  10.631   1.094   4.317
  219POPC   C1A 3114  10.322   1.144   4.724
  219POPC   D2A 3115  10.069   1.254   5.086
  219POPC   C3A 3116  10.047   1.635   5.304
  219POPC   C4A 3117   9.984   1.434   5.691
  219POPC   C1B 3118  10.830   1.037   4.723
  219POPC   C2B 3119  10.652   0.948   5.117
  219POPC   C3B 3120  10.440   1.086   5.497
  219POPC   C4B 3121  10.641   1.036   5.899
  220POPC   NC3 3122   8.696   3.570   3.876
  220POPC   PO4 3123   9.282   3.303   3.691
  220POPC   GL1 3124   9.165   3.328   4.175
  220POPC   GL2 3125   8.841   3.394   4.327
  220POPC   C1A 3126   9.238   3.502   4.636
  220POPC   D2A 3127   9.227   3.809   5.019
  220POPC   C3A 3128   9.127   3.581   5.403
  220POPC   C4A 3129   8.989   3.409   5.789
  220POPC   C1B 3130   8.562   3.322   4.688
  220POPC   C2B 3131   8.478   3.214   5.143
  220POPC   C3B 3132   8.518   3.381   5.562
  220POPC   C4B 3133   8.370   3.668   5.895
  221POPC   NC3 3134   0.888   0.480   3.870
  221POPC   PO4 3135   1.462   0.182   3.703
  221POPC   GL1 3136   1.212   0.266   4.167
  221POPC   GL2 3137   1.177   0.596   4.312
  221POPC   C1A 3138   1.059   0.218   4.611
  221POPC   D2A 3139   0.981   0.390   5.012
  221POPC   C3A 3140   0.834   0.182   5.357
  221POPC   C4A 3141   0.978   0.339   5.734
  221POPC   C1B 3142   1.354   0.645   4.744
  221POPC   C2B 3143   1.548   0.603   5.176
  221POPC   C3B 3144   1.571   0.359   5.584
  221POPC   C4B 3145   1.380   0.524   5.973
  222POPC   NC3 3146   1.499   8.833   4.118
  222POPC   PO4 3147   0.838   8.842   3.922
  222POPC   GL1 3148   1.034   8.684   4.277
  222POPC   GL2 3149   1.089   9.024   4.392
  222POPC   C1A 3150   1.222   8.526   4.671
  222POPC   D2A 3151   1.019   8.631   5.074
  222POPC   C3A 3152   1.236   8.529   5.453
  222POPC   C4A 3153   1.346   8.665   5.853
  222POPC   C1B 3154   1.277   9.024   4.797
  222POPC   C2B 3155   1.338   9.016   5.219
  222POPC   C3B 3156   1.010   8.993   5.486
  222POPC   C4B 3157   1.151   9.142   5.851
  223POPC   NC3 3158   9.977   0.622   3.859
  223POPC   PO4 3159   9.772  11.462   3.826
  223POPC   GL1 3160   9.758   0.248   4.175
  223POPC   GL2 3161   9.428   0.298   4.187
  223POPC   C1A 3162   9.685   0.276   4.633
  223POPC   D2A 3163   9.906   0.339   4.994
  223POPC   C3A 3164   9.715   0.390   5.359
  223POPC   C4A 3165   9.804   0.471   5.774
  223POPC   C1B 3166   9.285   0.565   4.509
  223POPC   C2B 3167   9.297   0.465   4.953
  223POPC   C3B 3168   9.292   0.658   5.362
  223POPC   C4B 3169   9.352   0.708   5.773
  224POPC   NC3 3170   8.090   2.942   4.009
  224POPC   PO4 3171   7.887   2.345   3.635
  224POPC   GL1 3172   8.135   2.446   4.047
  224POPC   GL2 3173   7.953   2.473   4.333
  224POPC   C1A 3174   8.442   2.535   4.436
  224POPC   D2A 3175   8.515   2.806   4.827
  224POPC   C3A 3176   8.519   2.718   5.315
  224POPC   C4A 3177   8.393   2.557   5.756
  224POPC   C1B 3178   7.995   2.725   4.688
  224POPC   C2B 3179   8.033   2.943   5.072
  224POPC   C3B 3180   8.066   2.871   5.511
  224POPC   C4B 3181   7.865   2.735   5.893
  225POPC   NC3 3182   7.462   0.905   3.859
  225POPC   PO4 3183   7.579   1.614   3.901
  225POPC   GL1 3184   7.607   1.362   4.304
  225POPC   GL2 3185   7.439   1.023   4.363
  225POPC   C1A 3186   7.546   1.300   4.769
  225POPC   D2A 3187   7.591   1.317   5.214
  225POPC   C3A 3188   7.546   1.124   5.595
  225POPC   C4A 3189   7.605   1.471   5.817
  225POPC   C1B 3190   7.058   1.154   4.662
  225POPC   C2B 3191   6.901   1.372   5.047
  225POPC   C3B 3192   7.083   1.248   5.436
  225POPC   C4B 3193   7.061   0.972   5.818
  226POPC   NC3 3194  10.295   4.891   3.826
  226POPC   PO4 3195  10.804   5.389   3.962
  226POPC   GL1 3196  10.557   5.070   4.233
  226POPC   GL2 3197  10.149   5.007   4.296
  226POPC   C1A 3198  10.615   5.114   4.693
  226POPC   D2A 3199  10.434   5.228   5.097
  226POPC   C3A 3200  10.626   5.266   5.491
  226POPC   C4A 3201  10.398   5.170   5.866
  226POPC   C1B 3202  10.320   4.707   4.562
  226POPC   C2B 3203  10.328   4.738   5.018
  226POPC   C3B 3204  10.222   4.918   5.438
  226POPC   C4B 3205  10.004   4.765   5.771
  227POPC   NC3 3206   2.174   4.205   3.981
  227POPC   PO4 3207   1.523   4.113   3.758
  227POPC   GL1 3208   1.646   3.955   4.227
  227POPC   GL2 3209   1.879   4.140   4.368
  227POPC   C1A 3210   1.573   4.111   4.751
  227POPC   D2A 3211   1.739   4.392   5.171
  227POPC   C3A 3212   1.756   4.146   5.578
  227POPC   C4A 3213   1.849   4.083   6.032
  227POPC   C1B 3214   2.097   4.240   4.727
  227POPC   C2B 3215   2.246   4.243   5.127
  227POPC   C3B 3216   2.268   4.099   5.511
  227POPC   C4B 3217   2.337   4.246   5.948
  228POPC   NC3 3218  11.052   4.255   3.873
  228POPC   PO4 3219  11.485   4.737   3.895
  228POPC   GL1 3220   0.006   4.536   4.277
  228POPC   GL2 3221  11.143   4.543   4.312
  228POPC   C1A 3222   0.182   4.421   4.693
  228POPC   D2A 3223   0.223   4.408   5.145
  228POPC   C3A 3224  11.358   4.340   5.411
  228POPC   C4A 3225  11.164   4.549   5.785
  228POPC   C1B 3226  11.265   4.140   4.545
  228POPC   C2B 3227  11.399   3.992   4.977
  228POPC   C3B 3228  11.265   3.820   5.385
  228POPC   C4B 3229  11.147   4.023   5.765
  229POPC   NC3 3230   3.447   5.747   4.016
  229POPC   PO4 3231   3.867   5.526   4.287
  229POPC   GL1 3232   3.595   5.792   4.555
  229POPC   GL2 3233   3.342   6.023   4.437
  229POPC   C1A 3234   3.515   5.916   5.007
  229POPC   D2A 3235   3.602   5.746   5.442
  229POPC   C3A 3236   3.747   6.021   5.777
  229POPC   C4A 3237   3.634   6.083   6.193
  229POPC   C1B 3238   3.110   5.723   4.731
  229POPC   C2B 3239   3.141   5.598   5.183
  229POPC   C3B 3240   3.149   5.614   5.623
  229POPC   C4B 3241   3.239   5.937   5.872
  230POPC   NC3 3242   9.114   2.907   3.847
  230POPC   PO4 3243   8.512   3.139   3.977
  230POPC   GL1 3244   8.790   2.882   4.254
  230POPC   GL2 3245   8.881   2.512   4.134
  230POPC   C1A 3246   8.995   3.025   4.643
  230POPC   D2A 3247   8.963   3.299   5.001
  230POPC   C3A 3248   8.939   3.091   5.385
  230POPC   C4A 3249   8.723   2.956   5.747
  230POPC   C1B 3250   8.951   2.511   4.600
  230POPC   C2B 3251   8.967   2.676   5.038
  230POPC   C3B 3252   9.039   2.602   5.483
  230POPC   C4B 3253   8.937   2.530   5.926
  231POPC   NC3 3254   9.976   3.147   4.088
  231POPC   PO4 3255  10.249   2.467   3.950
  231POPC   GL1 3256  10.431   2.572   4.325
  231POPC   GL2 3257  10.780   2.572   4.277
  231POPC   C1A 3258  10.318   2.818   4.683
  231POPC   D2A 3259  10.394   2.729   5.127
  231POPC   C3A 3260  10.421   3.008   5.495
  231POPC   C4A 3261  10.286   2.826   5.886
  231POPC   C1B 3262  10.749   2.556   4.743
  231POPC   C2B 3263  10.780   2.400   5.155
  231POPC   C3B 3264  10.720   2.594   5.591
  231POPC   C4B 3265  10.767   2.726   6.043
  232POPC   NC3 3266   1.804   7.410   3.937
  232POPC   PO4 3267   2.403   7.706   3.963
  232POPC   GL1 3268   2.157   7.488   4.299
  232POPC   GL2 3269   2.060   7.129   4.252
  232POPC   C1A 3270   1.975   7.350   4.699
  232POPC   D2A 3271   1.790   7.478   5.053
  232POPC   C3A 3272   2.118   7.534   5.330
  232POPC   C4A 3273   2.189   7.749   5.729
  232POPC   C1B 3274   1.645   7.027   4.523
  232POPC   C2B 3275   1.642   6.958   4.982
  232POPC   C3B 3276   1.866   7.086   5.372
  232POPC   C4B 3277   2.120   7.227   5.751
  233POPC   NC3 3278   0.359   8.810   3.971
  233POPC   PO4 3279   0.061   8.292   4.285
  233POPC   GL1 3280   0.275   8.680   4.507
  233POPC   GL2 3281   0.576   8.902   4.408
  233POPC   C1A 3282   0.218   9.060   4.754
  233POPC   D2A 3283   0.037   9.201   5.129
  233POPC   C3A 3284   0.186   8.900   5.431
  233POPC   C4A 3285   0.227   8.657   5.820
  233POPC   C1B 3286   0.751   9.042   4.803
  233POPC   C2B 3287   0.571   9.171   5.210
  233POPC   C3B 3288   0.549   9.165   5.676
  233POPC   C4B 3289   0.736   8.825   5.897
  234POPC   NC3 3290   3.477   9.038   3.926
  234POPC   PO4 3291   3.255   8.469   4.047
  234POPC   GL1 3292   3.413   8.728   4.391
  234POPC   GL2 3293   3.506   9.074   4.431
  234POPC   C1A 3294   3.523   8.680   4.831
  234POPC   D2A 3295   3.751   8.644   5.212
  234POPC   C3A 3296   3.520   8.583   5.602
  234POPC   C4A 3297   3.444   8.454   6.047
  234POPC   C1B 3298   3.244   9.094   4.804
  234POPC   C2B 3299   3.302   8.973   5.257
  234POPC   C3B 3300   3.530   9.093   5.658
  234POPC   C4B 3301   3.363   9.032   6.078
  235POPC   NC3 3302   2.639   2.661   3.829
  235POPC   PO4 3303   3.184   2.173   3.786
  235POPC   GL1 3304   2.894   2.375   4.170
  235POPC   GL2 3305   2.900   2.733   4.313
  235POPC   C1A 3306   2.599   2.481   4.585
  235POPC   D2A 3307   2.811   2.589   5.006
  235POPC   C3A 3308   2.634   2.622   5.422
  235POPC   C4A 3309   2.827   2.726   5.814
  235POPC   C1B 3310   2.869   3.000   4.728
  235POPC   C2B 3311   2.575   3.073   5.144
  235POPC   C3B 3312   2.475   3.055   5.622
  235POPC   C4B 3313   2.516   2.984   6.108
  236POPC   NC3 3314   1.855   0.419   3.833
  236POPC   PO4 3315   1.609  11.412   4.164
  236POPC   GL1 3316   1.646   0.315   4.396
  236POPC   GL2 3317   1.694   0.681   4.290
  236POPC   C1A 3318   1.743   0.290   4.810
  236POPC   D2A 3319   2.096   0.073   4.954
  236POPC   C3A 3320   2.029  11.474   5.363
  236POPC   C4A 3321   2.158   0.153   5.718
  236POPC   C1B 3322   2.095   0.539   4.514
  236POPC   C2B 3323   2.143   0.604   4.972
  236POPC   C3B 3324   2.038   0.544   5.399
  236POPC   C4B 3325   2.377   0.632   5.701
  237POPC   NC3 3326   1.866   2.719   3.909
  237POPC   PO4 3327   2.361   3.043   3.772
  237POPC   GL1 3328   2.416   2.882   4.222
  237POPC   GL2 3329   2.139   2.671   4.347
  237POPC   C1A 3330   2.368   2.956   4.682
  237POPC   D2A 3331   2.306   2.633   4.998
  237POPC   C3A 3332   2.120   2.727   5.387
  237POPC   C4A 3333   2.149   2.753   5.841
  237POPC   C1B 3334   1.861   2.682   4.720
  237POPC   C2B 3335   1.515   2.467   4.946
  237POPC   C3B 3336   1.429   2.545   5.365
  237POPC   C4B 3337   1.685   2.719   5.659
  238POPC   NC3 3338   0.269   0.135   4.076
  238POPC   PO4 3339   0.451   0.743   3.847
  238POPC   GL1 3340   0.660   0.693   4.275
  238POPC   GL2 3341   0.669   0.356   4.322
  238POPC   C1A 3342   0.616   0.606   4.736
  238POPC   D2A 3343   0.474   0.477   5.126
  238POPC   C3A 3344   0.658   0.646   5.464
  238POPC   C4A 3345   0.398   0.723   5.743
  238POPC   C1B 3346   0.578   0.081   4.691
  238POPC   C2B 3347   0.368  11.490   5.080
  238POPC   C3B 3348   0.339   0.079   5.522
  238POPC   C4B 3349   0.499   0.246   5.892
  239POPC   NC3 3350   1.952   9.578   3.852
  239POPC   PO4 3351   2.602   9.459   4.100
  239POPC   GL1 3352   2.185   9.568   4.337
  239POPC   GL2 3353   1.806   9.616   4.311
  239POPC   C1A 3354   2.014   9.643   4.757
  239POPC   D2A 3355   2.178   9.558   5.120
  239POPC   C3A 3356   2.248   9.920   5.348
  239POPC   C4A 3357   2.061   9.664   5.675
  239POPC   C1B 3358   1.639   9.333   4.616
  239POPC   C2B 3359   1.512   9.453   5.006
  239POPC   C3B 3360   1.675   9.493   5.386
  239POPC   C4B 3361   1.540   9.500   5.779
  240POPC   NC3 3362   0.432   1.929   4.163
  240POPC   PO4 3363  11.494   2.351   3.830
  240POPC   GL1 3364   0.209   2.358   4.327
  240POPC   GL2 3365   0.555   2.257   4.520
  240POPC   C1A 3366   0.189   2.404   4.813
  240POPC   D2A 3367   0.353   2.362   5.232
  240POPC   C3A 3368   0.274   1.976   5.456
  240POPC   C4A 3369   0.089   1.884   5.868
  240POPC   C1B 3370   0.369   1.910   4.831
  240POPC   C2B 3371   0.521   1.626   5.187
  240POPC   C3B 3372   0.754   1.820   5.563
  240POPC   C4B 3373   0.646   2.256   5.722
  241POPC   NC3 3374   9.150   7.452   3.940
  241POPC   PO4 3375   8.670   7.790   4.074
  241POPC   GL1 3376   8.887   7.536   4.376
  241POPC   GL2 3377   9.047   7.192   4.412
  241POPC   C1A 3378   8.965   7.611   4.772
  241POPC   D2A 3379   8.825   7.557   5.188
  241POPC   C3A 3380   9.071   7.381   5.507
  241POPC   C4A 3381   8.889   7.293   5.941
  241POPC   C1B 3382   8.969   7.112   4.890
  241POPC   C2B 3383   8.924   6.912   5.338
  241POPC   C3B 3384   8.928   6.782   5.811
  241POPC   C4B 3385   9.124   6.894   6.250
  242POPC   NC3 3386   2.912  10.847   3.951
  242POPC   PO4 3387   2.389  11.423   3.912
  242POPC   GL1 3388   2.570  11.160   4.232
  242POPC   GL2 3389   2.911  11.204   4.300
  242POPC   C1A 3390   2.578  11.321   4.659
  242POPC   D2A 3391   2.796  11.450   5.036
  242POPC   C3A 3392   2.552  11.312   5.389
  242POPC   C4A 3393   2.719  11.063   5.672
  242POPC   C1B 3394   2.940  10.952   4.637
  242POPC   C2B 3395   2.922  10.943   5.075
  242POPC   C3B 3396   3.148  10.844   5.437
  242POPC   C4B 3397   3.055  10.732   5.819
  243POPC   NC3 3398   6.465   2.050   3.915
  243POPC   PO4 3399   6.464   1.346   3.830
  243POPC   GL1 3400   6.476   1.596   4.196
  243POPC   GL2 3401   6.784   1.782   4.272
  243POPC   C1A 3402   6.328   1.679   4.608
  243POPC   D2A 3403   6.279   1.587   5.048
  243POPC   C3A 3404   6.601   1.739   5.344
  243POPC   C4A 3405   6.518   1.890   5.760
  243POPC   C1B 3406   6.974   1.914   4.685
  243POPC   C2B 3407   6.998   2.041   5.157
  243POPC   C3B 3408   6.800   2.230   5.512
  243POPC   C4B 3409   6.556   2.410   5.857
  244POPC   NC3 3410   9.509   1.381   3.745
  244POPC   PO4 3411   9.516   0.712   3.880
  244POPC   GL1 3412   9.685   0.961   4.229
  244POPC   GL2 3413   9.390   1.100   4.407
  244POPC   C1A 3414   9.812   1.062   4.668
  244POPC   D2A 3415   9.656   0.813   4.980
  244POPC   C3A 3416   9.768   0.906   5.368
  244POPC   C4A 3417   9.788   0.971   5.773
  244POPC   C1B 3418   9.412   1.381   4.779
  244POPC   C2B 3419   9.557   1.329   5.170
  244POPC   C3B 3420   9.421   1.235   5.555
  244POPC   C4B 3421   9.530   1.388   5.966
  245POPC   NC3 3422   8.069   8.698   3.743
  245POPC   PO4 3423   8.178   9.258   3.730
  245POPC   GL1 3424   8.113   8.982   4.187
  245POPC   GL2 3425   7.914   9.187   4.391
  245POPC   C1A 3426   8.250   9.017   4.707
  245POPC   D2A 3427   7.961   9.007   5.036
  245POPC   C3A 3428   8.219   8.972   5.402
  245POPC   C4A 3429   8.190   9.124   5.828
  245POPC   C1B 3430   7.872   8.711   4.586
  245POPC   C2B 3431   7.758   8.527   5.001
  245POPC   C3B 3432   7.906   8.500   5.428
  245POPC   C4B 3433   8.217   8.604   5.748
  246POPC   NC3 3434   7.575   8.110   4.022
  246POPC   PO4 3435   7.124   7.683   3.873
  246POPC   GL1 3436   7.172   7.924   4.313
  246POPC   GL2 3437   7.222   8.301   4.330
  246POPC   C1A 3438   7.198   8.053   4.788
  246POPC   D2A 3439   7.512   8.097   5.161
  246POPC   C3A 3440   7.384   7.987   5.597
  246POPC   C4A 3441   7.280   7.919   6.054
  246POPC   C1B 3442   7.362   8.557   4.665
  246POPC   C2B 3443   7.218   8.500   5.071
  246POPC   C3B 3444   7.387   8.512   5.482
  246POPC   C4B 3445   7.160   8.377   5.851
  247POPC   NC3 3446   4.334   2.336   3.949
  247POPC   PO4 3447   4.168   1.708   3.722
  247POPC   GL1 3448   4.131   1.913   4.139
  247POPC   GL2 3449   4.432   1.952   4.361
  247POPC   C1A 3450   3.953   1.885   4.562
  247POPC   D2A 3451   4.036   2.154   4.932
  247POPC   C3A 3452   4.050   1.928   5.326
  247POPC   C4A 3453   4.086   1.657   5.710
  247POPC   C1B 3454   4.382   1.780   4.816
  247POPC   C2B 3455   4.429   1.579   5.228
  247POPC   C3B 3456   4.564   1.799   5.570
  247POPC   C4B 3457   4.338   2.207   5.644
  248POPC   NC3 3458  10.871   0.379   4.236
  248POPC   PO4 3459  10.452   0.694   3.788
  248POPC   GL1 3460  10.431   0.626   4.229
  248POPC   GL2 3461  10.271   0.313   4.294
  248POPC   C1A 3462  10.527   0.611   4.705
  248POPC   D2A 3463  10.432   0.315   5.036
  248POPC   C3A 3464  10.649   0.496   5.366
  248POPC   C4A 3465  10.599   0.447   5.772
  248POPC   C1B 3466  10.049   0.628   4.580
  248POPC   C2B 3467  10.164   0.763   5.035
  248POPC   C3B 3468  10.181   0.643   5.471
  248POPC   C4B 3469  10.230   0.774   5.905
  249POPC   NC3 3470   9.153   0.441   3.783
  249POPC   PO4 3471   8.780  11.346   3.766
  249POPC   GL1 3472   9.056  11.460   4.121
  249POPC   GL2 3473   8.888   0.244   4.257
  249POPC   C1A 3474   9.188   0.065   4.622
  249POPC   D2A 3475   8.999   0.084   5.116
  249POPC   C3A 3476   9.247   0.167   5.503
  249POPC   C4A 3477   9.130   0.290   5.935
  249POPC   C1B 3478   8.782   0.352   4.714
  249POPC   C2B 3479   8.831   0.582   5.122
  249POPC   C3B 3480   8.820   0.449   5.532
  249POPC   C4B 3481   8.736   0.705   5.855
  250POPC   NC3 3482   7.838   2.003   3.941
  250POPC   PO4 3483   8.443   1.664   3.831
  250POPC   GL1 3484   8.211   1.706   4.234
  250POPC   GL2 3485   8.189   2.024   4.328
  250POPC   C1A 3486   7.985   1.716   4.668
  250POPC   D2A 3487   8.082   1.896   5.102
  250POPC   C3A 3488   7.836   1.797   5.452
  250POPC   C4A 3489   7.756   1.959   5.863
  250POPC   C1B 3490   8.159   2.226   4.725
  250POPC   C2B 3491   8.078   2.435   5.119
  250POPC   C3B 3492   7.977   2.320   5.538
  250POPC   C4B 3493   8.255   2.029   5.706
  251POPC   NC3 3494   2.913   8.337   3.790
  251POPC   PO4 3495   2.283   8.522   3.958
  251POPC   GL1 3496   2.354   8.345   4.413
  251POPC   GL2 3497   2.331   7.959   4.445
  251POPC   C1A 3498   2.504   8.317   4.898
  251POPC   D2A 3499   2.859   8.195   5.231
  251POPC   C3A 3500   3.074   8.226   5.671
  251POPC   C4A 3501   2.888   8.316   6.094
  251POPC   C1B 3502   2.376   7.733   4.864
  251POPC   C2B 3503   2.389   7.964   5.283
  251POPC   C3B 3504   2.581   8.070   5.699
  251POPC   C4B 3505   2.467   7.946   6.125
  252POPC   NC3 3506   6.536   3.620   4.039
  252POPC   PO4 3507   6.927   3.453   4.220
  252POPC   GL1 3508   6.643   3.615   4.548
  252POPC   GL2 3509   6.348   3.403   4.486
  252POPC   C1A 3510   6.409   3.631   4.963
  252POPC   D2A 3511   6.270   3.922   5.284
  252POPC   C3A 3512   6.534   3.902   5.663
  252POPC   C4A 3513   6.852   3.556   5.784
  252POPC   C1B 3514   6.627   3.172   4.792
  252POPC   C2B 3515   6.740   3.292   5.211
  252POPC   C3B 3516   6.442   3.439   5.496
  252POPC   C4B 3517   6.169   3.527   5.840
  253POPC   NC3 3518   8.167   9.668   3.966
  253POPC   PO4 3519   7.656  10.051   4.044
  253POPC   GL1 3520   7.914   9.854   4.361
  253POPC   GL2 3521   8.288   9.833   4.436
  253POPC   C1A 3522   7.946  10.038   4.769
  253POPC   D2A 3523   7.911   9.789   5.123
  253POPC   C3A 3524   7.681   9.837   5.472
  253POPC   C4A 3525   7.667   9.858   5.916
  253POPC   C1B 3526   8.166   9.559   4.755
  253POPC   C2B 3527   8.252   9.407   5.114
  253POPC   C3B 3528   7.985   9.422   5.473
  253POPC   C4B 3529   8.136   9.680   5.801
  254POPC   NC3 3530   9.281   9.972   3.682
  254POPC   PO4 3531   9.079   9.346   4.008
  254POPC   GL1 3532   9.282   9.657   4.271
  254POPC   GL2 3533   9.689   9.712   4.326
  254POPC   C1A 3534   9.195   9.679   4.706
  254POPC   D2A 3535   9.244   9.387   5.068
  254POPC   C3A 3536   9.212   9.544   5.507
  254POPC   C4A 3537   9.463   9.538   5.905
  254POPC   C1B 3538   9.902   9.654   4.780
  254POPC   C2B 3539   9.861   9.636   5.254
  254POPC   C3B 3540   9.992   9.497   5.662
  254POPC   C4B 3541   9.994   9.449   6.123
  255POPC   NC3 3542   5.236   0.959   3.976
  255POPC   PO4 3543   5.154   1.566   3.629
  255POPC   GL1 3544   5.048   1.398   4.129
  255POPC   GL2 3545   4.802   1.078   4.228
  255POPC   C1A 3546   5.100   1.264   4.586
  255POPC   D2A 3547   5.204   1.377   5.006
  255POPC   C3A 3548   4.897   1.372   5.335
  255POPC   C4A 3549   4.910   1.374   5.779
  255POPC   C1B 3550   4.767   0.845   4.626
  255POPC   C2B 3551   4.983   0.908   5.030
  255POPC   C3B 3552   5.051   0.913   5.462
  255POPC   C4B 3553   5.163   0.958   5.877
  256POPC   NC3 3554   0.186   8.020   3.938
  256POPC   PO4 3555   0.843   7.795   3.997
  256POPC   GL1 3556   0.554   8.007   4.302
  256POPC   GL2 3557   0.579   8.376   4.226
  256POPC   C1A 3558   0.413   8.066   4.749
  256POPC   D2A 3559   0.173   7.908   5.098
  256POPC   C3A 3560   0.373   8.067   5.477
  256POPC   C4A 3561   0.443   7.840   5.857
  256POPC   C1B 3562   0.712   8.487   4.659
  256POPC   C2B 3563   0.493   8.645   5.034
  256POPC   C3B 3564   0.613   8.581   5.464
  256POPC   C4B 3565   0.617   8.324   5.862
  257POPC   NC3 3566  10.217   7.335   4.213
  257POPC   PO4 3567   9.614   7.501   3.912
  257POPC   GL1 3568   9.737   7.528   4.345
  257POPC   GL2 3569   9.407   7.556   4.373
  257POPC   C1A 3570   9.940   7.460   4.795
  257POPC   D2A 3571  10.096   7.397   5.228
  257POPC   C3A 3572   9.843   7.656   5.493
  257POPC   C4A 3573   9.654   7.549   5.908
  257POPC   C1B 3574   9.418   7.363   4.750
  257POPC   C2B 3575   9.507   7.449   5.165
  257POPC   C3B 3576   9.608   7.194   5.516
  257POPC   C4B 3577   9.349   7.119   5.851
  258POPC   NC3 3578   8.290  11.142   3.677
  258POPC   PO4 3579   8.789  10.926   4.138
  258POPC   GL1 3580   8.841  11.160   4.467
  258POPC   GL2 3581   9.148  11.091   4.467
  258POPC   C1A 3582   8.664  11.346   4.805
  258POPC   D2A 3583   8.615  11.190   5.215
  258POPC   C3A 3584   8.575  11.453   5.575
  258POPC   C4A 3585   8.793  11.440   5.971
  258POPC   C1B 3586   9.141  11.150   4.902
  258POPC   C2B 3587   9.081  10.936   5.237
  258POPC   C3B 3588   9.034  11.192   5.573
  258POPC   C4B 3589   9.334  11.313   5.895
  259POPC   NC3 3590   1.717   6.590   3.739
  259POPC   PO4 3591   2.212   6.240   3.767
  259POPC   GL1 3592   1.916   6.343   4.142
  259POPC   GL2 3593   1.867   6.668   4.224
  259POPC   C1A 3594   1.817   6.310   4.628
  259POPC   D2A 3595   1.714   6.184   5.085
  259POPC   C3A 3596   1.919   6.309   5.507
  259POPC   C4A 3597   2.283   6.391   5.823
  259POPC   C1B 3598   2.058   6.773   4.657
  259POPC   C2B 3599   2.086   6.620   5.088
  259POPC   C3B 3600   2.231   6.765   5.492
  259POPC   C4B 3601   1.901   6.763   5.794
  260POPC   NC3 3602  11.195   5.634   3.934
  260POPC   PO4 3603  10.756   6.187   3.984
  260POPC   GL1 3604  10.912   5.892   4.277
  260POPC   GL2 3605  11.280   5.914   4.347
  260POPC   C1A 3606  10.958   5.712   4.695
  260POPC   D2A 3607  10.738   5.627   5.085
  260POPC   C3A 3608  10.928   5.739   5.473
  260POPC   C4A 3609  10.790   5.576   5.861
  260POPC   C1B 3610  11.455   5.916   4.771
  260POPC   C2B 3611  11.386   5.922   5.218
  260POPC   C3B 3612  11.421   5.713   5.612
  260POPC   C4B 3613  11.164   5.903   5.950
  261POPC   NC3 3614   5.107   9.317   4.024
  261POPC   PO4 3615   5.187  10.030   3.834
  261POPC   GL1 3616   5.125   9.816   4.216
  261POPC   GL2 3617   5.259   9.539   4.449
  261POPC   C1A 3618   4.962   9.907   4.624
  261POPC   D2A 3619   4.961   9.737   5.023
  261POPC   C3A 3620   4.916   9.929   5.396
  261POPC   C4A 3621   4.990   9.738   5.796
  261POPC   C1B 3622   4.874   9.363   4.690
  261POPC   C2B 3623   4.689   9.297   5.119
  261POPC   C3B 3624   4.704   9.303   5.594
  261POPC   C4B 3625   4.679   9.398   6.053
  262POPC   NC3 3626  10.887   6.637   3.961
  262POPC   PO4 3627  11.355   6.991   3.980
  262POPC   GL1 3628  11.218   6.789   4.326
  262POPC   GL2 3629  11.216   6.426   4.282
  262POPC   C1A 3630  11.319   6.709   4.724
  262POPC   D2A 3631  11.163   6.553   5.072
  262POPC   C3A 3632  11.208   6.772   5.443
  262POPC   C4A 3633  11.312   7.010   5.797
  262POPC   C1B 3634  11.029   6.247   4.649
  262POPC   C2B 3635  10.933   6.098   5.054
  262POPC   C3B 3636  11.071   6.237   5.470
  262POPC   C4B 3637  11.173   6.419   5.854
  263POPC   NC3 3638  11.135   7.383   3.822
  263POPC   PO4 3639  10.548   6.900   3.757
  263POPC   GL1 3640  10.852   7.108   4.149
  263POPC   GL2 3641  11.102   7.375   4.311
  263POPC   C1A 3642  10.950   7.066   4.674
  263POPC   D2A 3643  10.843   6.991   5.131
  263POPC   C3A 3644  10.886   7.177   5.535
  263POPC   C4A 3645  10.840   7.033   5.972
  263POPC   C1B 3646  11.431   7.230   4.619
  263POPC   C2B 3647  11.344   7.125   5.065
  263POPC   C3B 3648  11.349   7.385   5.448
  263POPC   C4B 3649  11.131   7.506   5.861
  264POPC   NC3 3650   5.234  10.550   3.765
  264POPC   PO4 3651   5.836  10.448   3.939
  264POPC   GL1 3652   5.891  10.546   4.356
  264POPC   GL2 3653   6.013  10.219   4.354
  264POPC   C1A 3654   5.740  10.697   4.793
  264POPC   D2A 3655   5.568  10.813   5.229
  264POPC   C3A 3656   5.642  10.575   5.616
  264POPC   C4A 3657   5.735  10.655   6.059
  264POPC   C1B 3658   5.846  10.185   4.756
  264POPC   C2B 3659   5.676  10.295   5.134
  264POPC   C3B 3660   5.796  10.101   5.497
  264POPC   C4B 3661   5.827  10.165   5.896
  265POPC   NC3 3662   0.123   3.438   3.944
  265POPC   PO4 3663  11.114   3.815   3.788
  265POPC   GL1 3664  11.206   3.564   4.186
  265POPC   GL2 3665  10.955   3.362   4.317
  265POPC   C1A 3666  11.409   3.332   4.567
  265POPC   D2A 3667  11.211   3.207   4.974
  265POPC   C3A 3668  11.333   3.262   5.427
  265POPC   C4A 3669  11.412   3.169   5.876
  265POPC   C1B 3670  11.063   3.675   4.667
  265POPC   C2B 3671  10.915   3.631   5.063
  265POPC   C3B 3672  10.844   3.496   5.456
  265POPC   C4B 3673  11.077   3.529   5.825
  266POPC   NC3 3674   1.215  11.342   3.919
  266POPC   PO4 3675   1.302  10.698   3.779
  266POPC   GL1 3676   1.284  10.917   4.249
  266POPC   GL2 3677   1.118  11.243   4.396
  266POPC   C1A 3678   1.245  10.858   4.745
  266POPC   D2A 3679   0.975  10.819   5.156
  266POPC   C3A 3680   1.131  10.926   5.611
  266POPC   C4A 3681   1.495  10.868   5.920
  266POPC   C1B 3682   1.379  11.370   4.759
  266POPC   C2B 3683   1.380   0.086   5.140
  266POPC   C3B 3684   1.254  11.428   5.521
  266POPC   C4B 3685   1.282  11.479   5.947
  267POPC   NC3 3686   1.569   4.986   3.767
  267POPC   PO4 3687   0.946   5.347   3.750
  267POPC   GL1 3688   1.088   5.335   4.180
  267POPC   GL2 3689   1.275   5.032   4.190
  267POPC   C1A 3690   1.301   5.376   4.600
  267POPC   D2A 3691   1.151   5.373   5.041
  267POPC   C3A 3692   1.352   5.422   5.438
  267POPC   C4A 3693   1.486   5.151   5.784
  267POPC   C1B 3694   1.216   4.839   4.610
  267POPC   C2B 3695   0.995   4.890   4.999
  267POPC   C3B 3696   1.176   4.885   5.417
  267POPC   C4B 3697   0.992   4.909   5.842
  268POPC   NC3 3698   1.152   6.738   4.033
  268POPC   PO4 3699   1.492   6.181   3.822
  268POPC   GL1 3700   1.424   6.244   4.283
  268POPC   GL2 3701   1.416   6.571   4.430
  268POPC   C1A 3702   1.160   6.219   4.702
  268POPC   D2A 3703   1.232   6.381   5.133
  268POPC   C3A 3704   1.009   6.329   5.535
  268POPC   C4A 3705   1.415   6.508   5.717
  268POPC   C1B 3706   1.137   6.742   4.747
  268POPC   C2B 3707   1.120   6.901   5.156
  268POPC   C3B 3708   1.039   6.834   5.574
  268POPC   C4B 3709   1.039   7.010   5.950
  269POPC   NC3 3710   0.585   5.263   4.056
  269POPC   PO4 3711   0.755   4.545   3.936
  269POPC   GL1 3712   0.483   4.766   4.238
  269POPC   GL2 3713   0.793   4.899   4.344
  269POPC   C1A 3714   0.403   4.953   4.690
  269POPC   D2A 3715   0.516   4.820   5.153
  269POPC   C3A 3716   0.420   5.021   5.557
  269POPC   C4A 3717   0.450   4.899   6.014
  269POPC   C1B 3718   0.820   5.236   4.655
  269POPC   C2B 3719   0.653   5.296   5.066
  269POPC   C3B 3720   0.852   5.279   5.463
  269POPC   C4B 3721   0.697   5.327   5.872
  270POPC   NC3 3722   6.427   0.855   3.763
  270POPC   PO4 3723   7.025   0.938   4.048
  270POPC   GL1 3724   6.639   0.800   4.263
  270POPC   GL2 3725   6.355   1.057   4.249
  270POPC   C1A 3726   6.634   0.702   4.710
  270POPC   D2A 3727   6.870   0.857   5.065
  270POPC   C3A 3728   6.701   0.858   5.475
  270POPC   C4A 3729   6.432   0.918   5.827
  270POPC   C1B 3730   6.496   1.194   4.669
  270POPC   C2B 3731   6.440   1.121   5.110
  270POPC   C3B 3732   6.359   1.313   5.492
  270POPC   C4B 3733   6.705   1.389   5.727
  271POPC   NC3 3734  10.257   7.339   3.660
  271POPC   PO4 3735  10.584   7.611   4.129
  271POPC   GL1 3736  10.611   7.382   4.506
  271POPC   GL2 3737  10.489   7.004   4.474
  271POPC   C1A 3738  10.485   7.299   4.899
  271POPC   D2A 3739  10.654   7.533   5.194
  271POPC   C3A 3740  10.519   7.541   5.579
  271POPC   C4A 3741  10.697   7.871   5.786
  271POPC   C1B 3742  10.228   6.859   4.791
  271POPC   C2B 3743  10.343   6.899   5.217
  271POPC   C3B 3744  10.391   7.054   5.583
  271POPC   C4B 3745  10.068   7.286   5.741
  272POPC   NC3 3746   9.557   7.983   3.969
  272POPC   PO4 3747  10.105   7.789   3.644
  272POPC   GL1 3748  10.056   7.863   4.113
  272POPC   GL2 3749   9.976   8.234   4.181
  272POPC   C1A 3750   9.914   7.938   4.586
  272POPC   D2A 3751   9.709   7.911   5.007
  272POPC   C3A 3752   9.818   8.166   5.394
  272POPC   C4A 3753   9.819   8.029   5.831
  272POPC   C1B 3754   9.616   8.373   4.504
  272POPC   C2B 3755   9.364   8.369   4.911
  272POPC   C3B 3756   9.339   8.328   5.353
  272POPC   C4B 3757   9.376   8.269   5.796
  273POPC   NC3 3758   0.974   9.371   3.802
  273POPC   PO4 3759   1.605   9.257   3.974
  273POPC   GL1 3760   1.301   9.478   4.237
  273POPC   GL2 3761   1.342   9.861   4.279
  273POPC   C1A 3762   1.142   9.503   4.642
  273POPC   D2A 3763   0.939   9.490   5.033
  273POPC   C3A 3764   1.142   9.505   5.433
  273POPC   C4A 3765   0.869   9.557   5.802
  273POPC   C1B 3766   1.537   9.856   4.669
  273POPC   C2B 3767   1.263   9.895   5.005
  273POPC   C3B 3768   1.308  10.028   5.404
  273POPC   C4B 3769   1.218   9.918   5.815
  274POPC   NC3 3770   0.575   6.085   3.782
  274POPC   PO4 3771   0.684   6.749   3.981
  274POPC   GL1 3772   0.426   6.419   4.157
  274POPC   GL2 3773   0.654   6.185   4.305
  274POPC   C1A 3774   0.173   6.347   4.542
  274POPC   D2A 3775   0.244   6.536   4.961
  274POPC   C3A 3776   0.071   6.403   5.355
  274POPC   C4A 3777   0.123   6.626   5.732
  274POPC   C1B 3778   0.689   6.465   4.652
  274POPC   C2B 3779   0.732   6.418   5.094
  274POPC   C3B 3780   0.567   6.625   5.452
  274POPC   C4B 3781   0.556   6.906   5.805
  275POPC   NC3 3782   4.722  10.036   3.972
  275POPC   PO4 3783   4.847  10.738   3.934
  275POPC   GL1 3784   5.030  10.403   4.210
  275POPC   GL2 3785   5.404  10.333   4.190
  275POPC   C1A 3786   4.854  10.400   4.617
  275POPC   D2A 3787   4.651  10.175   4.945
  275POPC   C3A 3788   4.718  10.396   5.319
  275POPC   C4A 3789   4.790  10.683   5.649
  275POPC   C1B 3790   5.367  10.321   4.628
  275POPC   C2B 3791   5.154  10.269   5.019
  275POPC   C3B 3792   5.211  10.372   5.439
  275POPC   C4B 3793   5.339  10.122   5.762
  276POPC   NC3 3794   4.609   2.876   3.962
  276POPC   PO4 3795   4.003   3.045   3.993
  276POPC   GL1 3796   4.214   2.705   4.290
  276POPC   GL2 3797   4.076   2.371   4.398
  276POPC   C1A 3798   4.384   2.560   4.736
  276POPC   D2A 3799   4.226   2.577   5.174
  276POPC   C3A 3800   4.500   2.678   5.535
  276POPC   C4A 3801   4.854   2.667   5.821
  276POPC   C1B 3802   3.869   2.624   4.717
  276POPC   C2B 3803   3.684   2.499   5.115
  276POPC   C3B 3804   3.877   2.394   5.491
  276POPC   C4B 3805   4.087   2.601   5.833
  277POPC   NC3 3806   8.709   4.630   3.862
  277POPC   PO4 3807   8.774   4.018   3.850
  277POPC   GL1 3808   8.992   3.879   4.244
  277POPC   GL2 3809   9.110   4.170   4.423
  277POPC   C1A 3810   8.837   3.810   4.694
  277POPC   D2A 3811   8.693   3.698   5.139
  277POPC   C3A 3812   8.742   3.851   5.575
  277POPC   C4A 3813   8.530   4.160   5.809
  277POPC   C1B 3814   9.016   4.302   4.854
  277POPC   C2B 3815   8.965   4.194   5.293
  277POPC   C3B 3816   9.040   4.281   5.742
  277POPC   C4B 3817   8.847   4.341   6.164
  278POPC   NC3 3818   1.032   2.948   4.039
  278POPC   PO4 3819   1.209   3.588   3.829
  278POPC   GL1 3820   1.280   3.547   4.247
  278POPC   GL2 3821   1.012   3.360   4.342
  278POPC   C1A 3822   1.470   3.527   4.648
  278POPC   D2A 3823   1.626   3.504   5.060
  278POPC   C3A 3824   1.443   3.791   5.364
  278POPC   C4A 3825   1.548   3.612   5.763
  278POPC   C1B 3826   0.969   3.207   4.738
  278POPC   C2B 3827   1.129   3.396   5.094
  278POPC   C3B 3828   1.104   3.458   5.515
  278POPC   C4B 3829   0.889   3.195   5.822
  279POPC   NC3 3830   3.287   0.964   3.899
  279POPC   PO4 3831   2.861   1.363   4.105
  279POPC   GL1 3832   2.876   1.116   4.421
  279POPC   GL2 3833   2.569   0.922   4.322
  279POPC   C1A 3834   2.938   1.216   4.882
  279POPC   D2A 3835   3.255   1.319   5.223
  279POPC   C3A 3836   3.072   1.253   5.651
  279POPC   C4A 3837   2.977   1.032   6.049
  279POPC   C1B 3838   2.409   1.253   4.582
  279POPC   C2B 3839   2.360   1.176   4.988
  279POPC   C3B 3840   2.636   1.258   5.347
  279POPC   C4B 3841   2.574   1.186   5.779
  280POPC   NC3 3842   3.789  11.327   3.979
  280POPC   PO4 3843   3.107  11.348   3.823
  280POPC   GL1 3844   3.337  11.442   4.207
  280POPC   GL2 3845   3.456  11.105   4.311
  280POPC   C1A 3846   3.235  11.391   4.683
  280POPC   D2A 3847   3.332   0.044   5.115
  280POPC   C3A 3848   3.112  11.356   5.467
  280POPC   C4A 3849   3.317  11.213   5.842
  280POPC   C1B 3850   3.438  10.888   4.697
  280POPC   C2B 3851   3.454  11.059   5.083
  280POPC   C3B 3852   3.622  11.046   5.482
  280POPC   C4B 3853   3.551  10.761   5.822
  281POPC   NC3 3854   5.119   8.335   3.834
  281POPC   PO4 3855   4.785   8.758   3.933
  281POPC   GL1 3856   4.860   8.540   4.310
  281POPC   GL2 3857   5.023   8.210   4.327
  281POPC   C1A 3858   4.918   8.459   4.770
  281POPC   D2A 3859   4.942   8.163   5.111
  281POPC   C3A 3860   4.901   8.335   5.525
  281POPC   C4A 3861   4.619   8.386   5.889
  281POPC   C1B 3862   5.267   8.046   4.699
  281POPC   C2B 3863   5.237   7.753   5.057
  281POPC   C3B 3864   5.216   7.906   5.496
  281POPC   C4B 3865   5.471   8.211   5.739
  282POPC   NC3 3866   6.948   0.420   4.033
  282POPC   PO4 3867   6.271   0.365   3.852
  282POPC   GL1 3868   6.465   0.261   4.277
  282POPC   GL2 3869   6.104   0.205   4.417
  282POPC   C1A 3870   6.833   0.217   4.639
  282POPC   D2A 3871   6.996   0.370   5.042
  282POPC   C3A 3872   6.862   0.117   5.391
  282POPC   C4A 3873   6.725  11.359   5.736
  282POPC   C1B 3874   6.336   0.281   4.784
  282POPC   C2B 3875   6.512   0.434   5.145
  282POPC   C3B 3876   6.343   0.492   5.507
  282POPC   C4B 3877   6.559   0.331   5.769
  283POPC   NC3 3878   7.952  10.554   3.897
  283POPC   PO4 3879   8.483  10.035   3.914
  283POPC   GL1 3880   8.415  10.289   4.274
  283POPC   GL2 3881   8.095  10.311   4.305
  283POPC   C1A 3882   8.404  10.311   4.731
  283POPC   D2A 3883   8.398   9.949   5.050
  283POPC   C3A 3884   8.195  10.060   5.443
  283POPC   C4A 3885   8.289  10.298   5.791
  283POPC   C1B 3886   7.985  10.595   4.592
  283POPC   C2B 3887   7.986  10.740   5.017
  283POPC   C3B 3888   8.127  10.624   5.442
  283POPC   C4B 3889   7.942  10.687   5.875
  284POPC   NC3 3890   2.518   5.901   3.785
  284POPC   PO4 3891   3.192   5.957   3.688
  284POPC   GL1 3892   2.940   5.935   4.125
  284POPC   GL2 3893   2.597   5.826   4.283
  284POPC   C1A 3894   2.863   6.141   4.577
  284POPC   D2A 3895   2.721   6.167   5.049
  284POPC   C3A 3896   2.862   6.018   5.489
  284POPC   C4A 3897   2.752   6.094   5.944
  284POPC   C1B 3898   2.543   5.758   4.749
  284POPC   C2B 3899   2.637   5.670   5.195
  284POPC   C3B 3900   2.629   5.561   5.641
  284POPC   C4B 3901   2.432   5.717   6.045
  285POPC   NC3 3902   1.876   5.915   3.846
  285POPC   PO4 3903   2.339   5.518   3.970
  285POPC   GL1 3904   2.065   5.603   4.285
  285POPC   GL2 3905   2.005   5.902   4.355
  285POPC   C1A 3906   1.800   5.440   4.597
  285POPC   D2A 3907   1.656   5.466   5.015
  285POPC   C3A 3908   1.780   5.750   5.357
  285POPC   C4A 3909   1.639   5.660   5.792
  285POPC   C1B 3910   2.031   5.853   4.795
  285POPC   C2B 3911   2.225   6.034   5.143
  285POPC   C3B 3912   2.326   5.957   5.550
  285POPC   C4B 3913   2.030   5.948   5.872
  286POPC   NC3 3914   7.259   9.959   4.268
  286POPC   PO4 3915   7.304  10.523   3.878
  286POPC   GL1 3916   7.157  10.600   4.360
  286POPC   GL2 3917   7.179  10.291   4.618
  286POPC   C1A 3918   7.083  10.713   4.834
  286POPC   D2A 3919   7.223  10.419   5.218
  286POPC   C3A 3920   7.190  10.466   5.693
  286POPC   C4A 3921   7.129  10.662   6.138
  286POPC   C1B 3922   7.561  10.390   4.820
  286POPC   C2B 3923   7.765  10.297   5.207
  286POPC   C3B 3924   7.702  10.306   5.655
  286POPC   C4B 3925   7.517  10.331   6.077
  287POPC   NC3 3926   2.057   5.141   4.081
  287POPC   PO4 3927   2.360   4.627   3.912
  287POPC   GL1 3928   2.131   4.599   4.355
  287POPC   GL2 3929   2.151   4.903   4.532
  287POPC   C1A 3930   1.747   4.624   4.720
  287POPC   D2A 3931   1.533   4.928   5.023
  287POPC   C3A 3932   1.716   4.845   5.440
  287POPC   C4A 3933   1.965   4.569   5.754
  287POPC   C1B 3934   2.265   5.313   4.745
  287POPC   C2B 3935   2.169   5.509   5.150
  287POPC   C3B 3936   2.129   5.469   5.605
  287POPC   C4B 3937   2.047   5.075   5.782
  288POPC   NC3 3938   0.317   4.416   3.866
  288POPC   PO4 3939   0.379   3.829   4.036
  288POPC   GL1 3940   0.423   4.133   4.345
  288POPC   GL2 3941   0.722   4.289   4.352
  288POPC   C1A 3942   0.582   4.058   4.780
  288POPC   D2A 3943   0.406   3.932   5.153
  288POPC   C3A 3944   0.473   4.133   5.540
  288POPC   C4A 3945   0.288   4.533   5.655
  288POPC   C1B 3946   0.685   4.548   4.718
  288POPC   C2B 3947   0.768   4.382   5.133
  288POPC   C3B 3948   0.799   4.545   5.530
  288POPC   C4B 3949   0.707   4.484   5.959
  289POPC   NC3 3950   1.921   8.594   3.678
  289POPC   PO4 3951   2.200   9.156   3.762
  289POPC   GL1 3952   2.003   9.088   4.220
  289POPC   GL2 3953   1.974   8.728   4.318
  289POPC   C1A 3954   2.111   9.137   4.679
  289POPC   D2A 3955   1.882   9.108   5.096
  289POPC   C3A 3956   2.110   9.183   5.487
  289POPC   C4A 3957   2.228   8.869   5.765
  289POPC   C1B 3958   1.726   8.792   4.711
  289POPC   C2B 3959   1.592   8.569   5.071
  289POPC   C3B 3960   1.742   8.629   5.491
  289POPC   C4B 3961   1.647   9.024   5.659
  290POPC   NC3 3962   0.682   1.114   3.719
  290POPC   PO4 3963   0.208   1.519   3.951
  290POPC   GL1 3964   0.325   1.433   4.339
  290POPC   GL2 3965   0.575   1.188   4.228
  290POPC   C1A 3966   0.124   1.449   4.761
  290POPC   D2A 3967  11.453   1.687   5.115
  290POPC   C3A 3968   0.052   1.505   5.494
  290POPC   C4A 3969   0.406   1.485   5.776
  290POPC   C1B 3970   0.353   1.005   4.600
  290POPC   C2B 3971   0.265   0.942   5.045
  290POPC   C3B 3972   0.469   1.133   5.396
  290POPC   C4B 3973   0.744   1.099   5.741
  291POPC   NC3 3974   8.316   0.588   3.762
  291POPC   PO4 3975   8.093  11.487   3.947
  291POPC   GL1 3976   8.129   0.423   4.206
  291POPC   GL2 3977   7.882   0.680   4.374
  291POPC   C1A 3978   8.348   0.612   4.589
  291POPC   D2A 3979   8.348   0.457   5.044
  291POPC   C3A 3980   8.370   0.713   5.464
  291POPC   C4A 3981   8.228   0.650   5.935
  291POPC   C1B 3982   7.921   0.303   4.711
  291POPC   C2B 3983   7.943   0.150   5.194
  291POPC   C3B 3984   7.966   0.245   5.675
  291POPC   C4B 3985   7.822   0.155   6.148
  292POPC   NC3 3986   8.914   1.933   3.740
  292POPC   PO4 3987   9.239   1.497   4.120
  292POPC   GL1 3988   8.757   1.648   4.285
  292POPC   GL2 3989   8.665   2.003   4.168
  292POPC   C1A 3990   8.498   1.610   4.704
  292POPC   D2A 3991   8.597   1.816   5.131
  292POPC   C3A 3992   8.608   1.666   5.581
  292POPC   C4A 3993   8.650   1.619   6.040
  292POPC   C1B 3994   8.653   2.087   4.609
  292POPC   C2B 3995   8.582   2.312   5.006
  292POPC   C3B 3996   8.683   2.225   5.463
  292POPC   C4B 3997   9.106   2.100   5.637
  293POPC   NC3 3998   9.720  10.319   3.925
  293POPC   PO4 3999   9.090  10.157   4.051
  293POPC   GL1 4000   9.419  10.155   4.340
  293POPC   GL2 4001   9.655  10.418   4.411
  293POPC   C1A 4002   9.570  10.041   4.744
  293POPC   D2A 4003   9.421   9.876   5.121
  293POPC   C3A 4004   9.275  10.064   5.491
  293POPC   C4A 4005   9.674   9.934   5.672
  293POPC   C1B 4006   9.819  10.509   4.820
  293POPC   C2B 4007   9.530  10.423   5.150
  293POPC   C3B 4008   9.600  10.441   5.558
  293POPC   C4B 4009   9.934  10.700   5.669
  294POPC   NC3 4010   2.637   1.075   3.820
  294POPC   PO4 4011   1.989   0.862   3.881
  294POPC   GL1 4012   2.048   1.077   4.264
  294POPC   GL2 4013   2.014   1.438   4.289
  294POPC   C1A 4014   1.974   0.996   4.684
  294POPC   D2A 4015   1.858   1.028   5.101
  294POPC   C3A 4016   2.164   1.033   5.434
  294POPC   C4A 4017   2.107   1.039   5.873
  294POPC   C1B 4018   1.890   1.493   4.736
  294POPC   C2B 4019   2.106   1.586   5.141
  294POPC   C3B 4020   2.122   1.513   5.586
  294POPC   C4B 4021   1.778   1.406   5.858
  295POPC   NC3 4022   3.574   1.906   3.729
  295POPC   PO4 4023   3.890   2.464   3.929
  295POPC   GL1 4024   3.668   2.156   4.197
  295POPC   GL2 4025   3.333   2.068   4.251
  295POPC   C1A 4026   3.587   2.209   4.665
  295POPC   D2A 4027   3.585   1.899   4.992
  295POPC   C3A 4028   3.527   2.019   5.395
  295POPC   C4A 4029   3.728   2.000   5.777
  295POPC   C1B 4030   3.237   1.831   4.611
  295POPC   C2B 4031   3.061   1.794   5.018
  295POPC   C3B 4032   3.081   1.745   5.453
  295POPC   C4B 4033   3.217   1.966   5.808
  296POPC   NC3 4034   1.181   5.754   3.855
  296POPC   PO4 4035   1.749   5.416   3.855
  296POPC   GL1 4036   1.535   5.709   4.230
  296POPC   GL2 4037   1.163   5.817   4.350
  296POPC   C1A 4038   1.528   5.865   4.694
  296POPC   D2A 4039   1.301   5.859   5.114
  296POPC   C3A 4040   1.407   6.029   5.534
  296POPC   C4A 4041   1.343   6.075   6.003
  296POPC   C1B 4042   0.948   5.740   4.733
  296POPC   C2B 4043   0.791   5.783   5.137
  296POPC   C3B 4044   0.931   5.784   5.541
  296POPC   C4B 4045   1.135   5.609   5.895
  297POPC   NC3 4046   0.247   9.702   4.124
  297POPC   PO4 4047   0.818   9.824   3.733
  297POPC   GL1 4048   0.837   9.728   4.198
  297POPC   GL2 4049   0.713   9.412   4.352
  297POPC   C1A 4050   0.850   9.921   4.636
  297POPC   D2A 4051   0.622   9.977   5.016
  297POPC   C3A 4052   0.809   9.906   5.402
  297POPC   C4A 4053   0.736  10.069   5.809
  297POPC   C1B 4054   0.485   9.519   4.774
  297POPC   C2B 4055   0.312   9.626   5.215
  297POPC   C3B 4056   0.379   9.700   5.673
  297POPC   C4B 4057   0.442   9.502   6.080
  298POPC   NC3 4058   0.121   2.802   3.870
  298POPC   PO4 4059   0.638   2.307   3.992
  298POPC   GL1 4060   0.623   2.687   4.246
  298POPC   GL2 4061   0.306   2.858   4.326
  298POPC   C1A 4062   0.632   2.762   4.698
  298POPC   D2A 4063   0.625   2.971   5.085
  298POPC   C3A 4064   0.620   2.733   5.475
  298POPC   C4A 4065   0.622   2.751   5.926
  298POPC   C1B 4066   0.060   2.869   4.683
  298POPC   C2B 4067   0.122   2.944   5.125
  298POPC   C3B 4068   0.125   2.793   5.536
  298POPC   C4B 4069   0.133   2.389   5.715
  299POPC   NC3 4070   7.338   2.358   3.844
  299POPC   PO4 4071   7.666   2.791   4.092
  299POPC   GL1 4072   7.446   2.663   4.443
  299POPC   GL2 4073   7.143   2.468   4.323
  299POPC   C1A 4074   7.512   2.746   4.895
  299POPC   D2A 4075   7.643   2.629   5.309
  299POPC   C3A 4076   7.398   2.744   5.659
  299POPC   C4A 4077   7.139   3.109   5.807
  299POPC   C1B 4078   7.148   2.393   4.784
  299POPC   C2B 4079   7.128   2.547   5.219
  299POPC   C3B 4080   6.895   2.722   5.574
  299POPC   C4B 4081   6.996   2.647   6.010
  300POPC   NC3 4082   1.382  10.287   3.961
  300POPC   PO4 4083   0.781  10.548   3.670
  300POPC   GL1 4084   0.905  10.571   4.138
  300POPC   GL2 4085   0.941  10.233   4.237
  300POPC   C1A 4086   0.833  10.533   4.646
  300POPC   D2A 4087   0.997  10.320   5.071
  300POPC   C3A 4088   1.000  10.430   5.553
  300POPC   C4A 4089   1.116  10.569   6.018
  300POPC   C1B 4090   1.265  10.280   4.602
  300POPC   C2B 4091   1.523  10.366   4.971
  300POPC   C3B 4092   1.510  10.537   5.383
  300POPC   C4B 4093   1.486  10.359   5.778
  301POPC   NC3 4094   8.856   1.392   3.862
  301POPC   PO4 4095   8.760   0.704   3.743
  301POPC   GL1 4096   8.780   0.755   4.218
  301POPC   GL2 4097   8.911   1.085   4.247
  301POPC   C1A 4098   8.902   0.834   4.681
  301POPC   D2A 4099   9.164   0.992   5.012
  301POPC   C3A 4100   8.954   1.030   5.434
  301POPC   C4A 4101   9.055   1.100   5.871
  301POPC   C1B 4102   8.929   1.329   4.640
  301POPC   C2B 4103   8.850   1.384   5.032
  301POPC   C3B 4104   9.076   1.569   5.335
  301POPC   C4B 4105   9.103   1.601   5.764
  302POPC   NC3 4106   0.087   1.029   3.983
  302POPC   PO4 4107  10.962   0.852   3.946
  302POPC   GL1 4108  11.179   1.067   4.315
  302POPC   GL2 4109  11.300   1.430   4.336
  302POPC   C1A 4110  11.343   0.991   4.742
  302POPC   D2A 4111  11.212   0.869   5.182
  302POPC   C3A 4112  11.484   0.994   5.510
  302POPC   C4A 4113  11.479   0.889   5.930
  302POPC   C1B 4114  11.094   1.493   4.772
  302POPC   C2B 4115  11.063   1.357   5.221
  302POPC   C3B 4116  11.040   1.205   5.649
  302POPC   C4B 4117  10.897   1.436   6.042
  303POPC   NC3 4118   2.086   8.091   4.004
  303POPC   PO4 4119   1.551   7.785   3.845
  303POPC   GL1 4120   1.764   7.830   4.282
  303POPC   GL2 4121   1.839   8.217   4.413
  303POPC   C1A 4122   1.902   7.840   4.711
  303POPC   D2A 4123   1.734   8.021   5.064
  303POPC   C3A 4124   1.839   7.944   5.440
  303POPC   C4A 4125   1.716   7.545   5.664
  303POPC   C1B 4126   1.992   8.365   4.785
  303POPC   C2B 4127   2.132   8.628   5.127
  303POPC   C3B 4128   2.224   8.413   5.514
  303POPC   C4B 4129   1.992   8.205   5.845
  304POPC   NC3 4130   0.588   5.504   3.502
  304POPC   PO4 4131   0.756   5.753   4.048
  304POPC   GL1 4132   0.598   5.648   4.379
  304POPC   GL2 4133   0.286   5.823   4.323
  304POPC   C1A 4134   0.351   5.472   4.692
  304POPC   D2A 4135   0.204   5.554   5.093
  304POPC   C3A 4136   0.432   5.584   5.467
  304POPC   C4A 4137   0.435   5.747   5.878
  304POPC   C1B 4138   0.478   5.979   4.733
  304POPC   C2B 4139   0.370   6.054   5.124
  304POPC   C3B 4140   0.489   6.119   5.532
  304POPC   C4B 4141   0.121   6.130   5.796
  305POPC   NC3 4142  10.381   6.423   3.837
  305POPC   PO4 4143  10.082   6.912   4.124
  305POPC   GL1 4144  10.290   6.553   4.325
  305POPC   GL2 4145  10.652   6.514   4.378
  305POPC   C1A 4146  10.307   6.336   4.716
  305POPC   D2A 4147  10.138   6.458   5.108
  305POPC   C3A 4148  10.266   6.371   5.524
  305POPC   C4A 4149  10.310   6.644   5.857
  305POPC   C1B 4150  10.710   6.628   4.803
  305POPC   C2B 4151  10.670   6.504   5.233
  305POPC   C3B 4152  10.758   6.644   5.645
  305POPC   C4B 4153  10.725   6.561   6.124
  306POPC   NC3 4154   9.228  10.932   3.954
  306POPC   PO4 4155   9.956  10.722   3.999
  306POPC   GL1 4156   9.618  10.905   4.285
  306POPC   GL2 4157   9.546  11.264   4.224
  306POPC   C1A 4158   9.443  10.801   4.726
  306POPC   D2A 4159   9.610  10.979   5.142
  306POPC   C3A 4160   9.479  10.931   5.586
  306POPC   C4A 4161   9.444  10.690   5.983
  306POPC   C1B 4162   9.621  11.277   4.682
  306POPC   C2B 4163   9.513  11.490   5.077
  306POPC   C3B 4164   9.685  11.395   5.501
  306POPC   C4B 4165  10.067  11.172   5.638
  307POPC   NC3 4166   7.378   9.071   3.825
  307POPC   PO4 4167   7.675   8.534   3.908
  307POPC   GL1 4168   7.523   8.854   4.263
  307POPC   GL2 4169   7.177   8.944   4.344
  307POPC   C1A 4170   7.538   9.065   4.713
  307POPC   D2A 4171   7.466   8.916   5.140
  307POPC   C3A 4172   7.709   8.972   5.487
  307POPC   C4A 4173   7.771   8.851   5.881
  307POPC   C1B 4174   7.049   8.962   4.815
  307POPC   C2B 4175   7.071   9.196   5.239
  307POPC   C3B 4176   7.152   8.946   5.622
  307POPC   C4B 4177   6.941   8.806   6.036
  308POPC   NC3 4178   9.643   4.976   3.947
  308POPC   PO4 4179   9.129   4.545   4.050
  308POPC   GL1 4180   9.397   4.630   4.410
  308POPC   GL2 4181   9.583   4.963   4.439
  308POPC   C1A 4182   9.451   4.711   4.861
  308POPC   D2A 4183   9.459   4.953   5.241
  308POPC   C3A 4184   9.487   4.719   5.636
  308POPC   C4A 4185   9.142   4.742   5.951
  308POPC   C1B 4186   9.894   4.974   4.763
  308POPC   C2B 4187   9.903   5.190   5.148
  308POPC   C3B 4188   9.766   5.180   5.599
  308POPC   C4B 4189   9.902   5.290   6.031
  309POPC   NC3 4190  11.111   9.461   3.841
  309POPC   PO4 4191   0.137   9.262   4.056
  309POPC   GL1 4192  11.322   9.547   4.315
  309POPC   GL2 4193  10.956   9.484   4.323
  309POPC   C1A 4194  11.453   9.639   4.763
  309POPC   D2A 4195  11.244   9.653   5.154
  309POPC   C3A 4196  11.395   9.566   5.552
  309POPC   C4A 4197   0.013   9.200   5.805
  309POPC   C1B 4198  10.922   9.592   4.735
  309POPC   C2B 4199  10.737   9.536   5.113
  309POPC   C3B 4200  10.860   9.621   5.512
  309POPC   C4B 4201  10.986   9.700   5.939
  310POPC   NC3 4202   9.747   3.309   3.616
  310POPC   PO4 4203   9.757   3.884   3.976
  310POPC   GL1 4204   9.558   3.730   4.322
  310POPC   GL2 4205   9.639   3.369   4.368
  310POPC   C1A 4206   9.671   3.756   4.761
  310POPC   D2A 4207   9.853   3.988   5.101
  310POPC   C3A 4208   9.896   3.771   5.498
  310POPC   C4A 4209   9.765   3.700   5.925
  310POPC   C1B 4210   9.699   3.239   4.796
  310POPC   C2B 4211   9.574   3.465   5.185
  310POPC   C3B 4212   9.531   3.369   5.638
  310POPC   C4B 4213   9.730   3.166   6.017
  311POPC   NC3 4214   3.144   0.248   3.594
  311POPC   PO4 4215   3.693   0.310   3.909
  311POPC   GL1 4216   3.481   0.438   4.314
  311POPC   GL2 4217   3.742   0.669   4.393
  311POPC   C1A 4218   3.286   0.410   4.753
  311POPC   D2A 4219   3.011   0.439   5.159
  311POPC   C3A 4220   3.247   0.342   5.538
  311POPC   C4A 4221   3.628   0.058   5.580
  311POPC   C1B 4222   3.761   0.572   4.823
  311POPC   C2B 4223   3.643   0.463   5.230
  311POPC   C3B 4224   3.737   0.576   5.667
  311POPC   C4B 4225   3.775   0.738   6.120
  312POPC   NC3 4226   4.339  10.885   3.937
  312POPC   PO4 4227   4.197  10.164   3.853
  312POPC   GL1 4228   4.179  10.383   4.234
  312POPC   GL2 4229   4.510  10.466   4.221
  312POPC   C1A 4230   4.208  10.207   4.664
  312POPC   D2A 4231   4.023  10.183   5.081
  312POPC   C3A 4232   4.269  10.179   5.459
  312POPC   C4A 4233   4.216  10.074   5.937
  312POPC   C1B 4234   4.420  10.667   4.610
  312POPC   C2B 4235   4.347  10.577   5.024
  312POPC   C3B 4236   4.326  10.720   5.428
  312POPC   C4B 4237   4.322  10.534   5.811
  313POPC   NC3 4238   0.029   1.895   3.733
  313POPC   PO4 4239  10.864   1.998   3.810
  313POPC   GL1 4240  11.015   2.109   4.243
  313POPC   GL2 4241  11.359   1.998   4.210
  313POPC   C1A 4242  10.879   2.061   4.716
  313POPC   D2A 4243  10.900   1.851   5.143
  313POPC   C3A 4244  10.759   2.069   5.530
  313POPC   C4A 4245  10.972   2.260   5.882
  313POPC   C1B 4246  11.383   1.947   4.655
  313POPC   C2B 4247  11.304   2.170   5.056
  313POPC   C3B 4248  11.271   2.058   5.483
  313POPC   C4B 4249  11.093   1.708   5.659
  314POPC   NC3 4250  11.122   5.026   3.928
  314POPC   PO4 4251   0.140   5.477   3.918
  314POPC   GL1 4252  11.493   5.146   4.258
  314POPC   GL2 4253  11.119   5.242   4.382
  314POPC   C1A 4254  11.408   4.888   4.653
  314POPC   D2A 4255   0.068   5.044   5.076
  314POPC   C3A 4256  11.435   4.870   5.471
  314POPC   C4A 4257  11.453   4.988   5.918
  314POPC   C1B 4258  11.345   5.392   4.746
  314POPC   C2B 4259  11.219   5.425   5.192
  314POPC   C3B 4260  11.142   5.281   5.628
  314POPC   C4B 4261  10.897   5.078   5.966
  315POPC   NC3 4262  11.091  10.424   3.939
  315POPC   PO4 4263   0.070  10.871   3.744
  315POPC   GL1 4264  11.438  10.742   4.224
  315POPC   GL2 4265  11.389  10.403   4.378
  315POPC   C1A 4266  11.372  10.850   4.705
  315POPC   D2A 4267  11.306  10.935   5.161
  315POPC   C3A 4268   0.018  10.627   5.492
  315POPC   C4A 4269  11.378  10.519   5.921
  315POPC   C1B 4270  11.153  10.063   4.634
  315POPC   C2B 4271  10.912  10.025   5.049
  315POPC   C3B 4272  11.099  10.063   5.491
  315POPC   C4B 4273  11.476  10.046   5.753
  316POPC   NC3 4274   6.307  10.370   3.908
  316POPC   PO4 4275   6.871   9.958   4.016
  316POPC   GL1 4276   6.739  10.255   4.348
  316POPC   GL2 4277   6.461  10.514   4.364
  316POPC   C1A 4278   6.710  10.368   4.787
  316POPC   D2A 4279   6.710  10.587   5.176
  316POPC   C3A 4280   6.705  10.368   5.542
  316POPC   C4A 4281   6.696  10.500   5.954
  316POPC   C1B 4282   6.230  10.512   4.746
  316POPC   C2B 4283   6.219  10.309   5.126
  316POPC   C3B 4284   6.183  10.455   5.537
  316POPC   C4B 4285   6.320  10.175   5.825
  317POPC   NC3 4286   5.724   9.944   3.893
  317POPC   PO4 4287   5.563   9.298   4.091
  317POPC   GL1 4288   5.770   9.637   4.298
  317POPC   GL2 4289   5.600   9.917   4.394
  317POPC   C1A 4290   5.978   9.700   4.680
  317POPC   D2A 4291   5.881   9.791   5.102
  317POPC   C3A 4292   5.840   9.411   5.353
  317POPC   C4A 4293   5.650   9.194   5.733
  317POPC   C1B 4294   5.447   9.848   4.822
  317POPC   C2B 4295   5.395   9.882   5.265
  317POPC   C3B 4296   5.481   9.666   5.624
  317POPC   C4B 4297   5.881   9.669   5.783
  318POPC   NC3 4298   2.576   3.423   3.926
  318POPC   PO4 4299   2.633   4.047   3.948
  318POPC   GL1 4300   2.531   3.723   4.347
  318POPC   GL2 4301   2.706   3.357   4.393
  318POPC   C1A 4302   2.377   3.502   4.734
  318POPC   D2A 4303   2.294   3.678   5.097
  318POPC   C3A 4304   2.452   3.522   5.465
  318POPC   C4A 4305   2.595   3.471   5.901
  318POPC   C1B 4306   2.879   3.524   4.779
  318POPC   C2B 4307   3.026   3.306   5.152
  318POPC   C3B 4308   2.963   3.246   5.605
  318POPC   C4B 4309   3.094   3.603   5.878
  319POPC   NC3 4310  11.017   2.436   3.817
  319POPC   PO4 4311  11.228   3.093   3.855
  319POPC   GL1 4312  11.294   2.958   4.237
  319POPC   GL2 4313  11.288   2.617   4.214
  319POPC   C1A 4314  11.041   2.935   4.575
  319POPC   D2A 4315  10.725   3.082   4.865
  319POPC   C3A 4316  10.869   2.956   5.259
  319POPC   C4A 4317  10.935   3.051   5.680
  319POPC   C1B 4318  11.229   2.446   4.592
  319POPC   C2B 4319  11.201   2.662   4.987
  319POPC   C3B 4320  11.197   2.560   5.411
  319POPC   C4B 4321  11.229   2.682   5.827
  320POPC   NC3 4322   9.369   4.147   3.985
  320POPC   PO4 4323   9.951   4.564   3.869
  320POPC   GL1 4324   9.889   4.547   4.314
  320POPC   GL2 4325   9.748   4.224   4.361
  320POPC   C1A 4326   9.935   4.461   4.786
  320POPC   D2A 4327   9.859   4.635   5.192
  320POPC   C3A 4328   9.817   4.337   5.487
  320POPC   C4A 4329   9.671   4.261   5.849
  320POPC   C1B 4330   9.501   4.220   4.729
  320POPC   C2B 4331   9.441   4.293   5.160
  320POPC   C3B 4332   9.419   3.989   5.491
  320POPC   C4B 4333   9.311   3.900   5.921
  321POPC   NC3 4334   7.268  10.063   3.772
  321POPC   PO4 4335   7.082   9.411   3.857
  321POPC   GL1 4336   7.105   9.466   4.314
  321POPC   GL2 4337   7.453   9.395   4.307
  321POPC   C1A 4338   7.196   9.455   4.801
  321POPC   D2A 4339   7.570   9.404   5.137
  321POPC   C3A 4340   7.439   9.390   5.573
  321POPC   C4A 4341   7.019   9.456   5.708
  321POPC   C1B 4342   7.660   9.586   4.673
  321POPC   C2B 4343   7.444   9.890   4.948
  321POPC   C3B 4344   7.210   9.749   5.296
  321POPC   C4B 4345   7.210   9.958   5.696
  322POPC   NC3 4346  10.333  10.422   3.951
  322POPC   PO4 4347  10.902  10.632   4.311
  322POPC   GL1 4348  10.509  10.464   4.484
  322POPC   GL2 4349  10.163  10.526   4.423
  322POPC   C1A 4350  10.361  10.422   4.920
  322POPC   D2A 4351  10.527  10.263   5.311
  322POPC   C3A 4352  10.808  10.484   5.609
  322POPC   C4A 4353  11.070  10.844   5.620
  322POPC   C1B 4354  10.071  10.122   4.626
  322POPC   C2B 4355   9.947  10.103   5.091
  322POPC   C3B 4356  10.061  10.213   5.505
  322POPC   C4B 4357  10.337  10.403   5.798
  323POPC   NC3 4358   2.404  10.295   3.971
  323POPC   PO4 4359   1.772  10.022   3.958
  323POPC   GL1 4360   1.884  10.361   4.159
  323POPC   GL2 4361   2.062  10.136   4.377
  323POPC   C1A 4362   1.780  10.575   4.553
  323POPC   D2A 4363   1.997  10.676   4.939
  323POPC   C3A 4364   2.035  10.452   5.323
  323POPC   C4A 4365   1.932  10.627   5.723
  323POPC   C1B 4366   1.992  10.154   4.820
  323POPC   C2B 4367   1.772   9.934   5.132
  323POPC   C3B 4368   1.797  10.063   5.530
  323POPC   C4B 4369   2.147  10.172   5.829
  324POPC   NC3 4370   2.637   9.291   3.669
  324POPC   PO4 4371   2.629  10.007   3.687
  324POPC   GL1 4372   2.546   9.936   4.282
  324POPC   GL2 4373   2.849   9.742   4.477
  324POPC   C1A 4374   2.485   9.848   4.787
  324POPC   D2A 4375   2.717   9.553   5.081
  324POPC   C3A 4376   2.544   9.543   5.500
  324POPC   C4A 4377   2.521   9.831   5.842
  324POPC   C1B 4378   3.061   9.949   4.842
  324POPC   C2B 4379   3.071   9.918   5.306
  324POPC   C3B 4380   2.980   9.721   5.692
  324POPC   C4B 4381   2.998   9.860   6.130
  325POPC   NC3 4382  10.235   8.714   3.888
  325POPC   PO4 4383  10.684   9.292   3.755
  325POPC   GL1 4384  10.662   9.086   4.145
  325POPC   GL2 4385  10.371   8.984   4.285
  325POPC   C1A 4386  10.803   8.890   4.552
  325POPC   D2A 4387  10.832   8.589   4.921
  325POPC   C3A 4388  10.823   8.772   5.309
  325POPC   C4A 4389  10.594   8.818   5.655
  325POPC   C1B 4390  10.305   8.978   4.721
  325POPC   C2B 4391  10.323   8.833   5.154
  325POPC   C3B 4392  10.066   8.967   5.488
  325POPC   C4B 4393  10.221   9.082   5.874
  326POPC   NC3 4394  10.135   4.109   3.868
  326POPC   PO4 4395  10.669   4.524   3.859
  326POPC   GL1 4396  10.587   4.195   4.144
  326POPC   GL2 4397  10.278   4.213   4.331
  326POPC   C1A 4398  10.709   4.055   4.571
  326POPC   D2A 4399  10.909   4.138   4.969
  326POPC   C3A 4400  10.760   4.027   5.379
  326POPC   C4A 4401  10.701   4.279   5.740
  326POPC   C1B 4402  10.199   4.014   4.705
  326POPC   C2B 4403  10.336   4.217   5.073
  326POPC   C3B 4404  10.306   4.406   5.463
  326POPC   C4B 4405  10.168   4.125   5.799
  327POPC   NC3 4406   2.481   9.003   4.114
  327POPC   PO4 4407   3.051   9.104   3.758
  327POPC   GL1 4408   2.980   8.993   4.245
  327POPC   GL2 4409   2.820   8.647   4.259
  327POPC   C1A 4410   2.734   9.092   4.705
  327POPC   D2A 4411   2.432   9.085   5.092
  327POPC   C3A 4412   2.640   9.059   5.509
  327POPC   C4A 4413   3.041   9.215   5.647
  327POPC   C1B 4414   2.974   8.635   4.707
  327POPC   C2B 4415   2.786   8.704   5.138
  327POPC   C3B 4416   2.716   8.574   5.587
  327POPC   C4B 4417   3.075   8.719   5.817
  328POPC   NC3 4418   0.685   2.649   3.695
  328POPC   PO4 4419   1.378   2.617   3.928
  328POPC   GL1 4420   1.100   2.443   4.267
  328POPC   GL2 4421   1.432   2.349   4.437
  328POPC   C1A 4422   1.015   2.409   4.726
  328POPC   D2A 4423   1.080   2.762   4.996
  328POPC   C3A 4424   1.059   2.953   5.371
  328POPC   C4A 4425   1.083   2.716   5.717
  328POPC   C1B 4426   1.366   2.784   4.568
  328POPC   C2B 4427   1.479   3.052   4.879
  328POPC   C3B 4428   1.551   3.063   5.303
  328POPC   C4B 4429   1.403   3.119   5.727
  329POPC   NC3 4430   5.370   2.230   3.977
  329POPC   PO4 4431   6.009   1.949   3.969
  329POPC   GL1 4432   5.893   1.771   4.351
  329POPC   GL2 4433   5.562   1.906   4.362
  329POPC   C1A 4434   5.823   1.664   4.789
  329POPC   D2A 4435   5.898   1.910   5.144
  329POPC   C3A 4436   6.082   1.784   5.529
  329POPC   C4A 4437   6.092   2.183   5.747
  329POPC   C1B 4438   5.348   1.846   4.773
  329POPC   C2B 4439   5.422   1.775   5.224
  329POPC   C3B 4440   5.595   1.911   5.617
  329POPC   C4B 4441   5.721   1.655   5.954
  330POPC   NC3 4442  10.141   9.391   4.075
  330POPC   PO4 4443  10.018   9.949   3.778
  330POPC   GL1 4444  10.224   9.854   4.231
  330POPC   GL2 4445  10.550   9.725   4.142
  330POPC   C1A 4446  10.392   9.517   4.633
  330POPC   D2A 4447  10.251   9.360   5.073
  330POPC   C3A 4448  10.477   9.281   5.468
  330POPC   C4A 4449  10.490   9.515   5.871
  330POPC   C1B 4450  10.600   9.970   4.568
  330POPC   C2B 4451  10.387   9.886   4.978
  330POPC   C3B 4452  10.360   9.786   5.418
  330POPC   C4B 4453  10.622   9.999   5.729
  331POPC   NC3 4454   2.924  10.210   3.401
  331POPC   PO4 4455   2.999  10.369   3.996
  331POPC   GL1 4456   2.927  10.289   4.394
  331POPC   GL2 4457   2.725  10.583   4.360
  331POPC   C1A 4458   2.913  10.465   4.813
  331POPC   D2A 4459   2.950  10.420   5.222
  331POPC   C3A 4460   2.668  10.203   5.481
  331POPC   C4A 4461   2.861  10.246   5.844
  331POPC   C1B 4462   2.460  10.321   4.616
  331POPC   C2B 4463   2.442  10.342   5.034
  331POPC   C3B 4464   2.522  10.689   5.315
  331POPC   C4B 4465   2.486  10.624   5.757
  332POPC   NC3 4466   8.775   8.204   3.924
  332POPC   PO4 4467   9.241   7.832   3.687
  332POPC   GL1 4468   9.131   7.956   4.199
  332POPC   GL2 4469   9.112   8.324   4.305
  332POPC   C1A 4470   9.330   7.951   4.639
  332POPC   D2A 4471   9.212   7.897   5.100
  332POPC   C3A 4472   9.035   7.939   5.518
  332POPC   C4A 4473   9.180   7.725   5.861
  332POPC   C1B 4474   8.879   8.155   4.709
  332POPC   C2B 4475   8.708   8.073   5.153
  332POPC   C3B 4476   8.553   8.189   5.610
  332POPC   C4B 4477   8.472   8.319   6.082
  333POPC   NC3 4478   2.788   4.469   3.959
  333POPC   PO4 4479   3.210   4.771   4.304
  333POPC   GL1 4480   2.699   4.665   4.411
  333POPC   GL2 4481   2.533   4.287   4.384
  333POPC   C1A 4482   2.504   4.557   4.808
  333POPC   D2A 4483   2.727   4.362   5.176
  333POPC   C3A 4484   2.581   4.507   5.579
  333POPC   C4A 4485   2.679   4.735   5.956
  333POPC   C1B 4486   2.566   4.008   4.779
  333POPC   C2B 4487   2.755   3.845   5.192
  333POPC   C3B 4488   2.723   3.918   5.655
  333POPC   C4B 4489   2.862   4.226   5.941
  334POPC   NC3 4490   8.875   9.761   3.938
  334POPC   PO4 4491   8.399   9.376   4.218
  334POPC   GL1 4492   8.755   9.523   4.389
  334POPC   GL2 4493   8.794   9.891   4.400
  334POPC   C1A 4494   8.699   9.538   4.817
  334POPC   D2A 4495   8.753   9.473   5.222
  334POPC   C3A 4496   8.510   9.404   5.551
  334POPC   C4A 4497   8.762   9.399   5.887
  334POPC   C1B 4498   8.822  10.034   4.774
  334POPC   C2B 4499   8.917   9.929   5.153
  334POPC   C3B 4500   8.784   9.832   5.572
  334POPC   C4B 4501   9.031   9.815   5.921
  335POPC   NC3 4502   0.313   7.029   3.981
  335POPC   PO4 4503   0.035   7.613   3.795
  335POPC   GL1 4504   0.204   7.550   4.218
  335POPC   GL2 4505   0.542   7.460   4.255
  335POPC   C1A 4506   0.324   7.578   4.679
  335POPC   D2A 4507   0.312   7.345   5.049
  335POPC   C3A 4508   0.346   7.540   5.449
  335POPC   C4A 4509   0.187   7.358   5.845
  335POPC   C1B 4510   0.578   7.116   4.585
  335POPC   C2B 4511   0.628   6.927   5.001
  335POPC   C3B 4512   0.706   7.170   5.388
  335POPC   C4B 4513   0.701   7.389   5.812
  336POPC   NC3 4514   4.432   1.468   3.444
  336POPC   PO4 4515   4.538   1.499   4.094
  336POPC   GL1 4516   4.492   1.419   4.482
  336POPC   GL2 4517   4.311   1.116   4.477
  336POPC   C1A 4518   4.637   1.272   4.876
  336POPC   D2A 4519   4.489   0.978   5.192
  336POPC   C3A 4520   4.507   1.148   5.605
  336POPC   C4A 4521   4.437   1.416   5.977
  336POPC   C1B 4522   3.912   1.056   4.733
  336POPC   C2B 4523   3.808   0.984   5.188
  336POPC   C3B 4524   4.013   1.141   5.573
  336POPC   C4B 4525   3.933   1.250   6.010
  337POPC   NC3 4526   2.787   0.106   4.016
  337POPC   PO4 4527   2.960   0.663   3.752
  337POPC   GL1 4528   2.984   0.602   4.264
  337POPC   GL2 4529   2.904   0.265   4.472
  337POPC   C1A 4530   2.876   0.721   4.731
  337POPC   D2A 4531   2.638   0.785   5.147
  337POPC   C3A 4532   2.853   0.760   5.577
  337POPC   C4A 4533   2.795   0.557   6.003
  337POPC   C1B 4534   2.549   0.332   4.788
  337POPC   C2B 4535   2.477   0.309   5.247
  337POPC   C3B 4536   2.720   0.237   5.609
  337POPC   C4B 4537   2.586  11.468   5.946
  338W        W 4538   4.585   7.100   1.893
  339W        W 4539   5.146   6.013   0.005
  340W        W 4540   7.845   4.664  10.374
  341W        W 4541  10.009   0.243  10.598
  342W        W 4542   0.198   4.692   3.421
  343W        W 4543   7.489   3.861  10.492
  344W        W 4544  10.867   8.804  11.762
  345W        W 4545   8.570   3.196   8.926
  346W        W 4546   1.431   0.898   0.883
  347W        W 4547   1.259   6.502  10.837
  348W        W 4548   4.324   9.019   2.204
  349W        W 4549   7.670   6.539   2.747
  350W        W 4550  11.362   0.995   2.134
  351W        W 4551  10.025   2.843   3.679
  352W        W 4552   0.473  11.450   3.255
  353W        W 4553   2.250  10.427  10.438
  354W        W 4554  10.715   5.804  11.464
  355W        W 4555   3.831   7.647   0.905
  356W        W 4556  11.495   8.166  11.801
  357W        W 4557  11.109   7.993   2.201
  358W        W 4558   5.979   3.630   7.956
  359W        W 4559   5.959   4.076   3.950
  360W        W 4560   2.543   3.031   0.097
  361W        W 4561   9.182   5.299   2.909
  362W        W 4562   2.419  10.288   0.433
  363W        W 4563   2.675  11.104   3.587
  364W        W 4564   4.642   0.367   0.458
  365W        W 4565   6.228   0.386   2.825
  366W        W 4566   2.328   5.760   0.951
  367W        W 4567   9.331  11.130  10.328
  368W        W 4568   7.270   6.152  10.499
  369W        W 4569   5.807   6.833  11.548
  370W        W 4570  11.290  10.562  11.311
  371W        W 4571   2.249  10.896   3.308
  372W        W 4572   7.963   8.402   1.861
  373W        W 4573   7.002   4.722   1.416
  374W        W 4574   0.896   1.400  10.445
  375W        W 4575   5.660   0.497   0.015
  376W        W 4576  10.454   2.789   3.186
  377W        W 4577   2.669   8.774   3.713
  378W        W 4578   3.276   8.563   0.822
  379W        W 4579   5.245   2.422  10.771
  380W        W 4580   2.709   2.561   9.901
  381W        W 4581   2.672   4.715   3.396
  382W        W 4582   3.783   8.989   3.016
  383W        W 4583   6.075   0.507   9.316
  384W        W 4584   6.753   6.479   1.992
  385W        W 4585   5.835   4.134   8.154
  386W        W 4586   0.612   2.473  11.835
  387W        W 4587   1.779   5.360  10.360
  388W        W 4588   0.578   2.811   0.685
  389W        W 4589   3.238   1.511   0.041
  390W        W 4590   6.611   1.009   0.883
  391W        W 4591   6.072   7.401  10.281
  392W        W 4592   4.430   8.923   0.753
  393W        W 4593   2.649   4.136   9.768
  394W        W 4594   3.701   4.741  11.651
  395W        W 4595  10.780   6.742  11.084
  396W        W 4596   1.004  10.448   2.811
  397W        W 4597   9.539   0.298   1.937
  398W        W 4598   8.903   2.462  10.955
  399W        W 4599   9.180   8.947   3.026
  400W        W 4600   9.159  10.819   9.954
  401W        W 4601   8.983  11.301   1.677
  402W        W 4602   9.046   9.537   9.905
  403W        W 4603   5.254   9.274   1.351
  404W        W 4604   9.394  10.415  11.433
  405W        W 4605   7.675   5.234   0.733
  406W        W 4606   1.493   2.807   1.469
  407W        W 4607   3.868   4.646   2.730
  408W        W 4608   5.683  10.340  11.320
  409W        W 4609  10.476   3.218   9.031
  410W        W 4610   9.857  10.625  11.475
  411W        W 4611   4.249   1.771  10.586
  412W        W 4612   3.203   8.196   9.586
  413W        W 4613  10.509   4.643   1.465
  414W        W 4614   1.094   8.337   8.862
  415W        W 4615  11.360   4.364   0.552
  416W        W 4616  10.458   7.398   1.663
  417W        W 4617   6.563   7.576  11.457
  418W        W 4618   5.521   6.161   0.321
  419W        W 4619   4.202   2.815   0.449
  420W        W 4620   4.712   6.229   0.160
  421W        W 4621   8.047   9.984  10.877
  422W        W 4622   9.456  11.292   1.894
  423W        W 4623   4.309   0.164   9.738
  424W        W 4624   7.101   4.283   0.085
  425W        W 4625   9.179   7.344   3.437
  426W        W 4626   9.468   4.228  11.519
  427W        W 4627   5.418   3.559   9.134
  428W        W 4628  10.600   8.830   0.314
  429W        W 4629   5.654  11.228   2.174
  430W        W 4630   5.703   4.502   2.958
  431W        W 4631   5.115  11.463  10.604
  432W        W 4632   5.753   3.284  10.308
  433W        W 4633  10.933   8.060  11.111
  434W        W 4634   1.823   3.226   3.120
  435W        W 4635  11.234   0.355  10.840
  436W        W 4636   5.999  10.069  11.702
  437W        W 4637   3.674   5.184   8.153
  438W        W 4638   4.752   8.905   8.151
  439W        W 4639   2.263  10.246   9.912
  440W        W 4640   1.745   9.809   0.024
  441W        W 4641   6.972   2.680   1.607
  442W        W 4642  10.043   2.381  10.859
  443W        W 4643   0.345   0.390   9.002
  444W        W 4644   6.469   0.180  11.028
  445W        W 4645   6.487   3.835   9.853
  446W        W 4646   1.011   6.253   3.953
  447W        W 4647   9.291   9.390   8.922
  448W        W 4648   5.234   7.358   1.704
  449W        W 4649  10.231   7.672   0.845
  450W        W 4650   9.128   5.049  11.939
  451W        W 4651   4.984  10.536  10.650
  452W        W 4652   1.344   3.409  10.630
  453W        W 4653   2.692   4.036  11.967
  454W        W 4654   4.463   0.345   8.817
  455W        W 4655   4.741   3.157   2.754
  456W        W 4656   4.032   4.289  11.434
  457W        W 4657   2.600  10.329   0.926
  458W        W 4658  10.801   1.757  10.925
  459W        W 4659   6.953   9.754   3.489
  460W        W 4660  10.903   0.927   0.248
  461W        W 4661   9.838   1.259   9.797
  462W        W 4662   8.446   9.156   9.004
  463W        W 4663   2.466   5.360   1.674
  464W        W 4664   7.733   3.850   4.036
  465W        W 4665   0.964   6.604   8.400
  466W        W 4666   7.397   7.509  10.724
  467W        W 4667   2.151   6.521   3.300
  468W        W 4668   8.769   9.466   1.801
  469W        W 4669   9.525   0.605   9.805
  470W        W 4670   8.146   4.640  10.781
  471W        W 4671   2.118   2.310   0.225
  472W        W 4672  11.174   4.967  11.118
  473W        W 4673   8.384   5.586   0.344
  474W        W 4674   1.352   3.388  11.626
  475W        W 4675   2.386   3.756  10.046
  476W        W 4676   6.220   1.037   9.903
  477W        W 4677   6.567   6.907   2.225
  478W        W 4678  11.037  11.285   2.206
  479W        W 4679   3.512   6.189   1.715
  480W        W 4680   4.671   2.209  11.294
  481W        W 4681   9.583   0.274  11.392
  482W        W 4682   9.451   9.128  10.284
  483W        W 4683  10.438   8.682  11.441
  484W        W 4684   6.013   6.921   0.837
  485W        W 4685   2.504   8.191   9.111
  486W        W 4686   2.853  10.696   3.266
  487W        W 4687   5.759   3.671  11.376
  488W        W 4688   9.652   7.200   9.504
  489W        W 4689  10.570   7.024  11.900
  490W        W 4690   3.310   6.947  11.444
  491W        W 4691  11.293  11.134   0.045
  492W        W 4692   2.740   4.548   0.064
  493W        W 4693   6.561   4.073   9.388
  494W        W 4694   4.041   8.342   3.520
  495W        W 4695   1.254   9.935  10.751
  496W        W 4696   7.630  11.059   1.665
  497W        W 4697  10.003   3.756  11.618
  498W        W 4698  11.128   5.463  10.864
  499W        W 4699   7.222   3.978   2.461
  500W        W 4700   1.865   6.117  11.334
  501W        W 4701   9.755   9.039   0.892
  502W        W 4702   8.445   1.624  10.843
  503W        W 4703   9.645  11.216   2.738
  504W        W 4704   1.375   1.765   0.676
  505W        W 4705   4.363   9.189   1.188
  506W        W 4706   0.337   4.740  11.705
  507W        W 4707   0.588   4.213   0.731
  508W        W 4708  10.506  10.226   0.682
  509W        W 4709   0.806   0.345  11.816
  510W        W 4710   8.460   5.456   3.738
  511W        W 4711   0.855  10.782   9.874
  512W        W 4712   4.703   0.905   2.146
  513W        W 4713   3.600   8.559  11.739
  514W        W 4714   3.437   8.060   3.143
  515W        W 4715   4.259   3.323   2.820
  516W        W 4716   1.169   7.828   1.078
  517W        W 4717   8.755   1.526   2.993
  518W        W 4718   5.286   8.688   8.633
  519W        W 4719   8.096   1.180   9.307
  520W        W 4720   0.911  11.268   0.944
  521W        W 4721   6.630   5.553   2.477
  522W        W 4722   4.358   1.354   9.482
  523W        W 4723   2.167   6.587   1.305
  524W        W 4724   0.875   7.925   9.106
  525W        W 4725   3.543   0.475   2.324
  526W        W 4726   1.600   3.476   8.483
  527W        W 4727   7.156   1.401  11.439
  528W        W 4728   3.689   6.603   3.105
  529W        W 4729   0.823   6.606  10.017
  530W        W 4730   1.595   5.325   0.820
  531W        W 4731   1.603   2.715  11.674
  532W        W 4732   6.418   8.867  10.269
  533W        W 4733   3.163  11.079   3.393
  534W        W 4734  10.607   0.310   1.748
  535W        W 4735  10.010   8.600   9.665
  536W        W 4736   5.261   3.556  11.339
  537W        W 4737  10.574   3.093  11.569
  538W        W 4738   1.828   0.523   2.671
  539W        W 4739   5.509   3.490   4.258
  540W        W 4740   2.470   8.574  10.770
  541W        W 4741   1.718   7.942   3.025
  542W        W 4742   7.991   3.455   2.115
  543W        W 4743   9.674   9.632   0.081
  544W        W 4744   7.928  11.312   2.965
  545W        W 4745  10.012   7.425   0.466
  546W        W 4746   5.558   8.562  10.692
  547W        W 4747   2.120   0.962   9.382
  548W        W 4748   7.251   1.255   2.262
  549W        W 4749   7.149  10.392  10.877
  550W        W 4750   0.705   6.464   2.751
  551W        W 4751   2.295   1.723   2.435
  552W        W 4752   5.692   4.211   0.113
  553W        W 4753   2.030   5.232  11.723
  554W        W 4754   0.558   5.083   2.787
  555W        W 4755   4.155   8.510  10.501
  556W        W 4756   3.359   9.365   1.885
  557W        W 4757   5.263   8.247   2.946
  558W        W 4758  10.032   3.524   0.059
  559W        W 4759   0.685   3.605   2.820
  560W        W 4760   9.598   1.404  10.614
  561W        W 4761   4.331   6.565   1.721
  562W        W 4762  11.134   9.514   9.530
  563W        W 4763   9.268   9.436   3.105
  564W        W 4764   3.986  10.996   3.161
  565W        W 4765   7.038  11.065   1.544
  566W        W 4766   2.181   9.746  10.813
  567W        W 4767   4.112   2.644   2.341
  568W        W 4768   6.211   4.113   8.651
  569W        W 4769   3.293   0.046   2.199
  570W        W 4770   6.081   7.192   3.933
  571W        W 4771  10.493   6.478   2.823
  572W        W 4772   3.433   8.948   3.413
  573W        W 4773   6.743  11.070   0.551
  574W        W 4774   6.136   3.005   8.622
  575W        W 4775   5.565   5.556  10.010
  576W        W 4776   1.343   4.233   2.907
  577W        W 4777   7.620   0.501  11.575
  578W        W 4778   6.915   6.526   0.698
  579W        W 4779   2.326   4.811  10.953
  580W        W 4780   0.509   1.290   9.890
  581W        W 4781   5.930   0.596   9.832
  582W        W 4782   7.600   2.472   1.207
  583W        W 4783   3.803   2.321  11.766
  584W        W 4784   8.246   1.303   1.744
  585W        W 4785   0.719   9.087   3.035
  586W        W 4786   9.967  11.414   9.848
  587W        W 4787   4.873   1.802   3.300
  588W        W 4788   3.638   1.633   9.038
  589W        W 4789   7.375   7.135  11.487
  590W        W 4790   3.147   4.235   2.775
  591W        W 4791   5.621   7.545  10.449
  592W        W 4792  10.460   4.709   1.955
  593W        W 4793   5.147   5.599   0.310
  594W        W 4794   9.442   7.695   9.421
  595W        W 4795   4.963   1.413  11.554
  596W        W 4796   4.967   3.062   8.698
  597W        W 4797   0.317   9.053   9.295
  598W        W 4798   3.760   5.171   2.665
  599W        W 4799  10.333   4.734   2.430
  600W        W 4800   4.352   1.705  11.508
  601W        W 4801   2.225   3.605   1.759
  602W        W 4802  10.900   8.461  11.406
  603W        W 4803   3.728  11.325  10.886
  604W        W 4804   5.719   0.120   1.822
  605W        W 4805   1.656   1.885   1.756
  606W        W 4806   6.214   3.408   0.024
  607W        W 4807   5.059   8.110  11.286
  608W        W 4808   2.858   7.400   0.679
  609W        W 4809   3.529   2.867  11.265
  610W        W 4810   4.242   9.562   8.933
  611W        W 4811   5.638   6.623   1.112
  612W        W 4812  10.712   9.455  11.113
  613W        W 4813   3.723   7.518   3.075
  614W        W 4814   1.308   8.668  11.900
  615W        W 4815   0.209   3.018   9.286
  616W        W 4816   2.707   3.611   1.527
  617W        W 4817   3.179   2.969   2.314
  618W        W 4818   1.922   8.545   9.918
  619W        W 4819   4.653   2.902  11.832
  620W        W 4820   1.959   9.440   2.559
  621W        W 4821   4.075  10.277  11.841
  622W        W 4822   3.635   6.269  11.887
  623W        W 4823   1.269   9.044   0.712
  624W        W 4824   5.168   1.039   9.958
  625W        W 4825   9.074   8.079   2.944
  626W        W 4826   2.746   8.357   1.520
  627W        W 4827   0.859   3.026  11.034
  628W        W 4828   9.127   0.968   8.655
  629W        W 4829   4.294   8.052  11.994
  630W        W 4830   6.133   8.693   3.639
  631W        W 4831   7.784   2.062  11.875
  632W        W 4832   1.312   9.901   2.993
  633W        W 4833   3.261   0.410   1.852
  634W        W 4834   4.190   5.860   8.281
  635W        W 4835   3.165   6.170   0.722
  636W        W 4836   7.612   6.877   9.974
  637W        W 4837  11.211   5.679   2.764
  638W        W 4838   1.430   9.511  10.496
  639W        W 4839   7.428  11.171  11.869
  640W        W 4840   2.042   2.300  10.488
  641W        W 4841   9.291   9.917  11.384
  642W        W 4842   2.350  11.036   9.132
  643W        W 4843   8.368   6.133   3.129
  644W        W 4844   3.385   3.430   4.000
  645W        W 4845   6.525   1.830   0.457
  646W        W 4846   5.304   7.648   0.805
  647W        W 4847  10.844   6.384   3.521
  648W        W 4848   9.450   0.867   9.053
  649W        W 4849   3.603   4.982  10.770
  650W        W 4850   6.049   9.932  11.202
  651W        W 4851   1.685   4.154   9.423
  652W        W 4852   1.645   7.117   0.995
  653W        W 4853   8.156   3.395   2.611
  654W        W 4854   7.349   0.929  11.402
  655W        W 4855   7.021   1.886   1.648
  656W        W 4856   5.233   2.657  11.798
  657W        W 4857   7.931   8.966   0.850
  658W        W 4858  10.068   4.315   9.379
  659W        W 4859   9.907   3.925   3.002
  660W        W 4860   7.428   5.993   9.876
  661W        W 4861   8.515   1.398  11.454
  662W        W 4862   1.442   8.180   1.331
  663W        W 4863   8.018  10.789   0.561
  664W        W 4864   5.232   0.637   0.937
  665W        W 4865   8.234   6.100   0.360
  666W        W 4866   9.071   8.070  10.736
  667W        W 4867   5.471   6.539   9.172
  668W        W 4868   6.217   9.858   8.648
  669W        W 4869   9.912   5.631   9.032
  670W        W 4870  11.193   3.815   2.685
  671W        W 4871   7.514   4.705   1.637
  672W        W 4872   8.513   8.955  11.977
  673W        W 4873   2.719   6.142   2.006
  674W        W 4874   1.240   6.569  10.324
  675W        W 4875   4.824   9.474   1.151
  676W        W 4876   5.189   9.401   9.981
  677W        W 4877   5.184   8.534   2.057
  678W        W 4878  11.416   2.965   8.863
  679W        W 4879   0.805   9.084   0.499
  680W        W 4880   6.075   2.054   2.767
  681W        W 4881   4.084   2.885  11.095
  682W        W 4882   7.048   0.104   9.244
  683W        W 4883   1.732   7.948   0.392
  684W        W 4884  10.915   6.364   9.315
  685W        W 4885   1.279   6.492   9.780
  686W        W 4886   9.004  10.855   2.019
  687W        W 4887   8.049   7.155   0.677
  688W        W 4888   1.211  10.883   9.513
  689W        W 4889   1.390   6.962  10.991
  690W        W 4890   8.597   9.804   9.806
  691W        W 4891   8.843   4.068  11.760
  692W        W 4892   6.283   2.282   3.203
  693W        W 4893   6.046   9.459   0.814
  694W        W 4894   1.129   0.290  10.869
  695W        W 4895   4.738   5.646   0.632
  696W        W 4896   4.214   7.545  10.518
  697W        W 4897   9.001   8.685   8.487
  698W        W 4898   2.957   5.303   1.588
  699W        W 4899   6.313   3.305   1.336
  700W        W 4900   6.521   8.365  11.025
  701W        W 4901   4.066   7.275   2.757
  702W        W 4902  10.763   4.195  10.046
  703W        W 4903   2.676   1.210  10.832
  704W        W 4904   9.219   5.888  10.785
  705W        W 4905   6.983   0.616  11.210
  706W        W 4906   7.162   6.270   2.234
  707W        W 4907   3.089   3.139   9.544
  708W        W 4908   4.944   5.223  11.481
  709W        W 4909   4.108   0.262   1.520
  710W        W 4910   0.882   1.255   1.454
  711W        W 4911   4.664   2.774   3.459
  712W        W 4912  10.331   6.452   9.017
  713W        W 4913   2.625   6.169   2.849
  714W        W 4914   9.976   8.876  11.574
  715W        W 4915   8.256   0.302  10.498
  716W        W 4916   8.845   0.250   1.857
  717W        W 4917   6.593   8.154   1.967
  718W        W 4918   4.146   6.059   0.846
  719W        W 4919   6.318   1.451  11.621
  720W        W 4920   8.013   6.471   0.008
  721W        W 4921   2.653   3.287   0.546
  722W        W 4922   1.260   0.755   9.953
  723W        W 4923   4.687   5.680  11.512
  724W        W 4924   2.995   3.741   2.825
  725W        W 4925  11.085   1.642   2.792
  726W        W 4926   6.920   7.508  11.851
  727W        W 4927   3.771  10.877   8.991
  728W        W 4928   4.914  10.779   3.435
  729W        W 4929   4.403   0.716  11.652
  730W        W 4930  10.487   6.909  10.687
  731W        W 4931   6.640   1.568   0.875
  732W        W 4932   0.226   3.498   9.906
  733W        W 4933   5.014  10.363  11.972
  734W        W 4934   0.826   7.184   0.513
  735W        W 4935   6.098   2.688   1.208
  736W        W 4936   8.908   1.455   1.728
  737W        W 4937   1.209  10.096   3.506
  738W        W 4938  10.947   1.312  10.670
  739W        W 4939   1.649  11.438  10.117
  740W        W 4940   1.136   7.315   1.035
  741W        W 4941   2.096   6.214   0.905
  742W        W 4942   4.519   3.213   2.227
  743W        W 4943  10.056  10.841  10.886
  744W        W 4944  10.340   8.836  10.926
  745W        W 4945   8.098  10.171  10.417
  746W        W 4946  10.005   7.203   1.877
  747W        W 4947   5.466   8.427   9.050
  748W        W 4948   3.817  10.436   1.434
  749W        W 4949   4.806   0.999  11.794
  750W        W 4950   1.309  10.670   1.916
  751W        W 4951   1.822   2.418   2.847
  752W        W 4952   6.677   5.222   1.381
  753W        W 4953  10.033   8.427   9.181
  754W        W 4954   3.369   4.664   2.600
  755W        W 4955   4.590   3.752   1.987
  756W        W 4956   4.301   2.438  10.975
  757W        W 4957   8.598   1.969   9.376
  758W        W 4958  11.302   4.239   9.385
  759W        W 4959   9.452   5.505   9.994
  760W        W 4960   8.385   8.076  10.005
  761W        W 4961   6.936   4.180   0.581
  762W        W 4962   1.270   5.342   1.261
  763W        W 4963   3.464   3.279  10.410
  764W        W 4964   4.703   0.373   9.397
  765W        W 4965   9.749   6.724   8.211
  766W        W 4966   8.201   0.434   9.977
  767W        W 4967   6.318   6.122  11.482
  768W        W 4968   5.176   4.841  11.743
  769W        W 4969   2.330   3.871   9.004
  770W        W 4970  11.489  11.216   0.983
  771W        W 4971   9.915   6.130   8.873
  772W        W 4972   1.133   9.536   9.015
  773W        W 4973   6.282   5.297   1.748
  774W        W 4974   7.927   9.795  11.796
  775W        W 4975   4.549   2.306  10.017
  776W        W 4976   0.369   0.313   1.917
  777W        W 4977   7.497   1.050   3.038
  778W        W 4978   7.473   1.472  10.488
  779W        W 4979   0.073   7.283   0.330
  780W        W 4980  10.746   2.971   9.444
  781W        W 4981   8.480   2.384  11.239
  782W        W 4982   5.752   3.678   2.288
  783W        W 4983   7.223   8.443  11.943
  784W        W 4984   7.799   4.235   1.582
  785W        W 4985   0.141   6.144   9.874
  786W        W 4986   4.757   4.112   9.603
  787W        W 4987   7.672   9.549   9.784
  788W        W 4988   5.574   0.287  11.544
  789W        W 4989   5.563   9.877   8.549
  790W        W 4990  11.230   2.269  10.571
  791W        W 4991   7.797   7.914   0.604
  792W        W 4992  11.061   7.008  11.935
  793W        W 4993   7.961   4.288   2.817
  794W        W 4994   6.755   8.086   0.239
  795W        W 4995  11.278   0.406   9.942
  796W        W 4996   7.541  10.595   2.612
  797W        W 4997   4.537   0.842  10.333
  798W        W 4998   7.464   5.226  11.761
  799W        W 4999   7.213   0.884   9.793
  800W        W 5000   6.638  11.336   9.121
  801W        W 5001   7.942   6.152   8.742
  802W        W 5002   4.610   3.079   0.302
  803W        W 5003   3.052   9.058  11.468
  804W        W 5004   7.555   1.704  11.076
  805W        W 5005   8.846   7.988   2.018
  806W        W 5006  11.307  10.789   0.737
  807W        W 5007   0.791   7.502  11.740
  808W        W 5008   4.715   7.485  11.330
  809W        W 5009   1.029   7.960   9.600
  810W        W 5010   9.844   6.549  11.783
  811W        W 5011   0.092  11.465  11.757
  812W        W 5012  10.537   0.307   9.279
  813W        W 5013   5.348   6.632   2.106
  814W        W 5014   2.912  10.118   1.778
  815W        W 5015   5.320   6.749  11.625
  816W        W 5016  10.224   5.675   9.435
  817W        W 5017  11.081   4.481  10.365
  818W        W 5018   6.448   3.763   8.964
  819W        W 5019   4.194   6.529   2.213
  820W        W 5020   4.034   6.708  10.028
  821W        W 5021   8.860   9.908  11.149
  822W        W 5022   8.951   1.083  11.434
  823W        W 5023   9.719   8.155   1.744
  824W        W 5024   3.745   9.504   2.285
  825W        W 5025   0.267   7.507   1.927
  826W        W 5026   4.697   9.823   8.823
  827W        W 5027   7.089   9.353  11.698
  828W        W 5028   5.429  10.347  10.321
  829W        W 5029   5.467   3.771   8.658
  830W        W 5030  10.473  11.362   9.828
  831W        W 5031  11.474   8.473  10.817
  832W        W 5032   1.278  10.871   2.974
  833W        W 5033   8.893   1.443  10.676
  834W        W 5034   7.257   0.090   9.709
  835W        W 5035  10.332   5.656   0.401
  836W        W 5036   8.609   3.821   8.227
  837W        W 5037  10.306   7.311  10.346
  838W        W 5038  10.356   2.906   9.754
  839W        W 5039   0.464   2.215  10.790
  840W        W 5040  10.940   0.068   0.789
  841W        W 5041   7.882   5.728   0.321
  842W        W 5042  10.868   0.720   9.929
  843W        W 5043   4.068   5.539  11.792
  844W        W 5044   3.741   8.940  10.094
  845W        W 5045   9.543  10.566  11.892
  846W        W 5046   4.675   0.488   0.962
  847W        W 5047   1.008   2.683   2.136
  848W        W 5048   1.972   0.440  11.050
  849W        W 5049  10.908   6.170  11.801
  850W        W 5050   9.352   5.669   0.665
  851W        W 5051   5.915   3.645   8.958
  852W        W 5052   1.653   9.350   2.143
  853W        W 5053   0.029   7.154   3.515
  854W        W 5054   8.017   7.210   2.558
  855W        W 5055   0.862   3.287  11.466
  856W        W 5056   6.564   0.283   1.993
  857W        W 5057   8.097   0.489   3.311
  858W        W 5058  10.696   9.786  11.513
  859W        W 5059   7.701   2.227   2.172
  860W        W 5060   5.116   7.010  10.459
  861W        W 5061   9.645   2.061   1.808
  862W        W 5062   6.629  11.269  10.769
  863W        W 5063   4.411   9.740   0.952
  864W        W 5064   5.933   6.620  10.404
  865W        W 5065   1.251   7.563   9.238
  866W        W 5066   1.904  10.610   9.857
  867W        W 5067  10.739   8.336   0.360
  868W        W 5068   8.860   9.974   1.046
  869W        W 5069   0.676   5.967   2.833
  870W        W 5070  10.787   9.579  10.054
  871W        W 5071   9.997  10.078   1.688
  872W        W 5072   2.647   2.168   3.639
  873W        W 5073   5.605  11.483   3.124
  874W        W 5074  11.030  11.166   8.973
  875W        W 5075   7.989   1.859   1.946
  876W        W 5076   2.966   0.659   9.540
  877W        W 5077  10.857   9.149   9.766
  878W        W 5078   4.634   1.936   2.489
  879W        W 5079   5.444   7.159  11.924
  880W        W 5080   8.577   3.226  11.292
  881W        W 5081   9.958   9.993   9.224
  882W        W 5082   0.326   6.081   9.412
  883W        W 5083   4.122   1.608  11.948
  884W        W 5084   8.502   1.717   8.938
  885W        W 5085  10.502   9.797   0.410
  886W        W 5086   4.198   7.226  10.907
  887W        W 5087   5.454   9.887   2.419
  888W        W 5088   4.980   6.910  11.960
  889W        W 5089   5.041   4.530   1.229
  890W        W 5090   4.351  11.297   2.972
  891W        W 5091   7.101   7.488   2.655
  892W        W 5092  11.163  10.300   2.349
  893W        W 5093   0.517   9.985   1.878
  894W        W 5094   0.804   0.676   9.095
  895W        W 5095   5.658   0.887  11.678
  896W        W 5096   7.849  10.400   0.281
  897W        W 5097   6.621   7.157   1.762
  898W        W 5098   9.412   7.339   1.848
  899W        W 5099   6.433   3.197   9.554
  900W        W 5100   6.199   6.981   3.055
  901W        W 5101   6.184   3.556  10.297
  902W        W 5102   3.391   9.332   0.273
  903W        W 5103   3.870   1.660  10.927
  904W        W 5104   2.004   0.462   9.527
  905W        W 5105   1.884   1.557   2.689
  906W        W 5106   5.165   6.950   9.262
  907W        W 5107  10.648   5.043  10.352
  908W        W 5108   8.960   9.315   9.326
  909W        W 5109   1.359   3.167   9.798
  910W        W 5110   3.818   3.740   2.161
  911W        W 5111   5.887   7.463   9.319
  912W        W 5112   6.734   7.818   3.222
  913W        W 5113   6.351  10.039   2.897
  914W        W 5114   0.916   3.665   9.323
  915W        W 5115   5.696  10.394  10.787
  916W        W 5116   3.527   0.803  10.471
  917W        W 5117   7.123   6.925   9.810
  918W        W 5118   9.731  11.434  10.313
  919W        W 5119   4.959   8.368   0.263
  920W        W 5120   7.063   0.483   2.683
  921W        W 5121   0.299   7.343  10.349
  922W        W 5122   3.567  10.385   2.504
  923W        W 5123   6.981   7.421   9.823
  924W        W 5124   9.060   6.447   8.401
  925W        W 5125   3.953   9.843  11.571
  926W        W 5126  10.425   7.657  11.530
  927W        W 5127   9.874   6.665  10.769
  928W        W 5128   2.857   1.317   3.380
  929W        W 5129   2.971   9.867   9.473
  930W        W 5130   7.634   6.682   0.307
  931W        W 5131   9.371  10.599   0.367
  932W        W 5132   0.246   4.608   0.805
  933W        W 5133  11.056   2.678  10.813
  934W        W 5134   1.844  10.415   2.632
  935W        W 5135   2.444   0.693   1.635
  936W        W 5136   9.819   4.150  11.909
  937W        W 5137  10.030   3.697  11.127
  938W        W 5138   1.359   7.543   3.274
  939W        W 5139   5.038   3.625  10.079
  940W        W 5140   8.675  10.515   0.912
  941W        W 5141   1.882   8.384   1.554
  942W        W 5142   9.347   2.890   1.572
  943W        W 5143   9.286   5.752   8.414
  944W        W 5144   6.785   7.574   0.782
  945W        W 5145   3.125   7.446   0.206
  946W        W 5146   4.756   9.515   3.236
  947W        W 5147   4.492   1.202  11.451
  948W        W 5148   7.618   3.342   2.450
  949W        W 5149   3.150  10.362  11.759
  950W        W 5150   6.683   8.973   9.844
  951W        W 5151   0.337   2.610   9.995
  952W        W 5152   2.322   7.199   9.060
  953W        W 5153   6.261   3.777  11.447
  954W        W 5154   0.692   7.315   2.656
  955W        W 5155   3.637   9.411   0.749
  956W        W 5156   0.478   1.693   9.085
  957W        W 5157  11.467  11.495   8.893
  958W        W 5158   6.749   9.798   0.380
  959W        W 5159   5.881   7.300  11.707
  960W        W 5160   4.950   7.988  10.658
  961W        W 5161   3.271   2.142   9.209
  962W        W 5162   3.691   1.982  11.317
  963W        W 5163   7.220   3.125  10.159
  964W        W 5164   7.723   9.558   0.243
  965W        W 5165   9.917   5.157   9.251
  966W        W 5166   4.459  11.006   0.873
  967W        W 5167   9.765   2.393  11.290
  968W        W 5168  10.814   9.428   9.098
  969W        W 5169   5.302   5.116   0.331
  970W        W 5170   9.149   5.921  10.240
  971W        W 5171   6.067   9.492   2.983
  972W        W 5172  11.288   6.520  11.889
  973W        W 5173   1.001   0.268   9.585
  974W        W 5174   1.011   0.518  10.417
  975W        W 5175   7.335   7.949  10.456
  976W        W 5176   0.224   0.778   2.896
  977W        W 5177   6.065   7.568  11.280
  978W        W 5178   4.547   4.538   1.334
  979W        W 5179  10.352  10.832   1.952
  980W        W 5180   3.082   0.828   1.219
  981W        W 5181   8.620   4.703   1.747
  982W        W 5182   4.708   7.588  10.326
  983W        W 5183   8.608   4.795   0.003
  984W        W 5184   3.227   7.385  11.709
  985W        W 5185   7.258   2.319   1.843
  986W        W 5186   8.445   2.733   3.549
  987W        W 5187   5.711  10.824   9.466
  988W        W 5188  11.378   8.653  11.630
  989W        W 5189   8.989   4.541   8.358
  990W        W 5190   9.314   0.356   1.067
  991W        W 5191   7.058   5.513   0.005
  992W        W 5192   3.916   2.193   2.951
  993W        W 5193   8.126   6.524   1.377
  994W        W 5194   3.898   6.652   8.988
  995W        W 5195   5.262  11.474   9.705
  996W        W 5196   6.917   8.609   1.310
  997W        W 5197  10.927  10.105  11.877
  998W        W 5198   1.901   5.019  10.726
  999W        W 5199   4.296   8.161   1.390
 1000W        W 5200   1.002   5.009   2.556
 1001W        W 5201  10.388   8.964  11.861
 1002W        W 5202   2.683   1.187  10.324
 1003W        W 5203   8.884   2.804   1.810
 1004W        W 5204   8.011   9.044   2.664
 1005W        W 5205   7.135   3.089  10.690
 1006W        W 5206  11.024   5.666  11.838
 1007W        W 5207   2.701   3.114   9.879
 1008W        W 5208   3.927   0.738   1.580
 1009W        W 5209   7.208   9.033  11.266
 1010W        W 5210   7.596   3.621  10.953
 1011W        W 5211   2.676   4.125   1.508
 1012W        W 5212   1.348   3.919   3.327
 1013W        W 5213  10.918  10.630   1.698
 1014W        W 5214   0.758   6.069   2.343
 1015W        W 5215  10.186   8.046   8.832
 1016W        W 5216   3.759  10.445   1.966
 1017W        W 5217  10.793   2.438   9.327
 1018W        W 5218   0.539   0.470   9.493
 1019W        W 5219   6.125  11.445   3.319
 1020W        W 5220   5.267   7.275   2.773
 1021W        W 5221   9.478  10.686   3.262
 1022W        W 5222   0.068   5.869   3.609
 1023W        W 5223   5.943   9.949   3.218
 1024W        W 5224   5.181   6.552   9.607
 1025W        W 5225   6.745  10.961  10.325
 1026W        W 5226   7.876   2.212  10.217
 1027W        W 5227   0.196  10.906   1.785
 1028W        W 5228   9.078   5.069   8.179
 1029W        W 5229   5.639   3.725   0.261
 1030W        W 5230   0.849   2.841   3.130
 1031W        W 5231   1.276   2.559  10.412
 1032W        W 5232   9.092   2.127   9.432
 1033W        W 5233   6.878   8.104  10.712
 1034W        W 5234   2.914   8.041   0.008
 1035W        W 5235   4.036   0.227   2.317
 1036W        W 5236   9.454   3.756   8.951
 1037W        W 5237  10.799   6.587   0.093
 1038W        W 5238   8.241   4.897   0.551
 1039W        W 5239   0.897  11.154   8.984
 1040W        W 5240  10.940   9.813   8.734
 1041W        W 5241   8.873   7.646   3.149
 1042W        W 5242   1.013   2.051   8.609
 1043W        W 5243   5.924   1.283   1.206
 1044W        W 5244   5.746   5.799   2.488
 1045W        W 5245   7.455   8.562   9.652
 1046W        W 5246  11.212   0.735   2.550
 1047W        W 5247   9.011   9.006  10.719
 1048W        W 5248   5.590   4.548  11.201
 1049W        W 5249   2.868   0.433   0.755
 1050W        W 5250   4.203  10.090   8.753
 1051W        W 5251   3.184   6.739  10.786
 1052W        W 5252   0.484  11.457   8.713
 1053W        W 5253   7.113   0.753   1.834
 1054W        W 5254   5.224   0.016   3.519
 1055W        W 5255   1.579   7.215  10.220
 1056W        W 5256   4.767   8.625   8.594
 1057W        W 5257   3.471   0.265   3.187
 1058W        W 5258   3.188   5.755   1.540
 1059W        W 5259   7.290   6.074   1.425
 1060W        W 5260   6.134   2.157   1.276
 1061W        W 5261   3.679   8.534   3.206
 1062W        W 5262   7.587   9.745   2.300
 1063W        W 5263   4.834   9.625  10.272
 1064W        W 5264   5.492   7.578   1.245
 1065W        W 5265   7.426   4.952   9.457
 1066W        W 5266  11.311   0.952   9.973
 1067W        W 5267   3.269   9.384   3.206
 1068W        W 5268   5.727   7.477   1.657
 1069W        W 5269   2.776   4.578  11.176
 1070W        W 5270   9.798   1.881  11.408
 1071W        W 5271   0.157   1.300   8.919
 1072W        W 5272   9.516   3.144  11.059
 1073W        W 5273   1.441   3.925  10.433
 1074W        W 5274   4.314   4.161   0.641
 1075W        W 5275   5.750  10.314   2.289
 1076W        W 5276   9.151   3.177   2.587
 1077W        W 5277   5.818  11.074   1.721
 1078W        W 5278   1.185   2.678   3.461
 1079W        W 5279  10.916  11.425  10.859
 1080W        W 5280   7.659  11.280   2.119
 1081W        W 5281   7.094   0.996   2.675
 1082W        W 5282   2.529   4.370  11.592
 1083W        W 5283   1.002   4.612  10.911
 1084W        W 5284   2.037   1.516   8.489
 1085W        W 5285   7.301   2.209  11.881
 1086W        W 5286   0.783   3.767   1.326
 1087W        W 5287   9.742   9.521   2.002
 1088W        W 5288   7.777   3.896  11.375
 1089W        W 5289   6.414   7.429   3.147
 1090W        W 5290   8.663   5.113   0.412
 1091W        W 5291   4.784   9.146   3.603
 1092W        W 5292   4.266   6.525   9.531
 1093W        W 5293   4.174   4.161   1.211
 1094W        W 5294   8.090   5.149   3.926
 1095W        W 5295   7.075   3.950   9.518
 1096W        W 5296   2.864   1.267   9.282
 1097W        W 5297   5.517   3.238   3.061
 1098W        W 5298   6.933   0.978   9.351
 1099W        W 5299   7.974   9.429   3.006
 1100W        W 5300   4.530   6.518   9.962
 1101W        W 5301   5.126   2.380   1.328
 1102W        W 5302   4.535   6.553  11.460
 1103W        W 5303   7.675   7.473   0.883
 1104W        W 5304   5.462  10.368   0.277
 1105W        W 5305  10.910   2.278  11.984
 1106W        W 5306   5.106   2.029  10.443
 1107W        W 5307   4.660   5.589  11.005
 1108W        W 5308   2.807   0.836   2.638
 1109W        W 5309   1.191   0.446   0.211
 1110W        W 5310  10.478   0.783   1.906
 1111W        W 5311   6.050   7.877  10.494
 1112W        W 5312   5.129   4.455   3.382
 1113W        W 5313   0.503   6.180   8.868
 1114W        W 5314   3.815   4.079   0.854
 1115W        W 5315   4.853   2.719   9.047
 1116W        W 5316   3.302   9.136  10.566
 1117W        W 5317   6.658   9.028  11.712
 1118W        W 5318   5.824   3.270  11.683
 1119W        W 5319   5.084   4.673   2.163
 1120W        W 5320   5.343   6.104  10.003
 1121W        W 5321   4.603   5.117  10.702
 1122W        W 5322   5.243   0.323   1.801
 1123W        W 5323   2.563  11.104   1.538
 1124W        W 5324   1.793   7.782  10.923
 1125W        W 5325   3.630   0.727   0.178
 1126W        W 5326   9.348   0.366  11.880
 1127W        W 5327   4.964   0.219   8.845
 1128W        W 5328   8.171   8.924  11.238
 1129W        W 5329   7.459   0.166  11.939
 1130W        W 5330  10.365  10.336   3.154
 1131W        W 5331   0.596   8.779   1.290
 1132W        W 5332   7.515   9.398   3.301
 1133W        W 5333   0.483   8.192   2.120
 1134W        W 5334  10.447   6.924   1.858
 1135W        W 5335   6.426   0.044  11.909
 1136W        W 5336   5.745   7.549   2.152
 1137W        W 5337   7.006   6.506  11.818
 1138W        W 5338   9.892   8.097   1.279
 1139W        W 5339   6.060   9.622   9.157
 1140W        W 5340   7.220  10.860   3.309
 1141W        W 5341   5.248  11.291   0.473
 1142W        W 5342   4.599  11.400  10.608
 1143W        W 5343  10.485   1.002   8.805
 1144W        W 5344   6.180   2.958   1.721
 1145W        W 5345  11.230   2.719   1.417
 1146W        W 5346   0.902   7.074  11.999
 1147W        W 5347   9.471  10.744   2.755
 1148W        W 5348  10.873   1.144  10.196
 1149W        W 5349   3.431   0.835   1.631
 1150W        W 5350   8.848   2.476   0.933
 1151W        W 5351   8.472  10.248   1.325
 1152W        W 5352   0.989   7.062   9.283
 1153W        W 5353   7.392   1.124   0.730
 1154W        W 5354   6.647   7.589   0.283
 1155W        W 5355   5.079   9.847  11.820
 1156W        W 5356  11.055   3.227   1.333
 1157W        W 5357   1.419   1.461  10.635
 1158W        W 5358   5.021   1.694   2.287
 1159W        W 5359   0.111   6.470   0.509
 1160W        W 5360   0.402   6.602  11.525
 1161W        W 5361   4.825   3.301  11.459
 1162W        W 5362   4.803  11.322  11.582
 1163W        W 5363   7.960   4.412   2.055
 1164W        W 5364   5.145   0.887   2.495
 1165W        W 5365   9.841   0.876   1.054
 1166W        W 5366   8.750   3.588   8.650
 1167W        W 5367   4.093   2.399   9.810
 1168W        W 5368   2.462   1.890   0.965
 1169W        W 5369   0.460  10.871   3.404
 1170W        W 5370   0.115   8.209  10.412
 1171W        W 5371   2.288   9.668   8.935
 1172W        W 5372   5.018   5.669   1.369
 1173W        W 5373   9.304   4.230   9.097
 1174W        W 5374  11.285   5.219   0.540
 1175W        W 5375   1.731   1.044   8.807
 1176W        W 5376   3.573   7.239   1.030
 1177W        W 5377   3.611   4.933   9.452
 1178W        W 5378   7.377  10.899   1.211
 1179W        W 5379   3.134   1.186  11.070
 1180W        W 5380   9.883   9.009  11.086
 1181W        W 5381   3.446   7.457   9.842
 1182W        W 5382  11.226   1.882  11.882
 1183W        W 5383   0.009   1.378   9.802
 1184W        W 5384   7.867   4.615   1.253
 1185W        W 5385   7.884  10.679  10.495
 1186W        W 5386  10.009   5.235   2.938
 1187W        W 5387   7.523   4.119  10.940
 1188W        W 5388   0.087   0.858  11.728
 1189W        W 5389   5.853   1.329  11.847
 1190W        W 5390   2.787   4.070  11.009
 1191W        W 5391   6.776   8.218  11.590
 1192W        W 5392   9.205   1.146  10.426
 1193W        W 5393   4.805   0.169   9.872
 1194W        W 5394   7.960   5.228   1.449
 1195W        W 5395   5.059  10.865   1.724
 1196W        W 5396   8.319  10.984   0.930
 1197W        W 5397  10.278   8.951   0.988
 1198W        W 5398  11.464   5.140   3.570
 1199W        W 5399   1.738   5.161   8.976
 1200W        W 5400   2.554   7.996   0.938
 1201W        W 5401   6.152   6.712   3.782
 1202W        W 5402   7.031   5.645   1.443
 1203W        W 5403   8.733   4.077   2.297
 1204W        W 5404  11.470   1.956   9.037
 1205W        W 5405   9.053   2.378   2.976
 1206W        W 5406   1.442   1.747   0.174
 1207W        W 5407   1.766   2.383   1.777
 1208W        W 5408   0.818   9.807   9.876
 1209W        W 5409   6.892   9.936  10.924
 1210W        W 5410   4.545   4.819   8.268
 1211W        W 5411   7.928   8.925  10.394
 1212W        W 5412   4.653   3.810   0.859
 1213W        W 5413   8.963   9.867  10.616
 1214W        W 5414   1.976   7.569  11.358
 1215W        W 5415   6.017   3.575   4.106
 1216W        W 5416   0.012   0.389  10.413
 1217W        W 5417   8.005  10.776  11.545
 1218W        W 5418   5.826   3.094   1.388
 1219W        W 5419   2.278   4.108  10.578
 1220W        W 5420   0.670   8.738   9.032
 1221W        W 5421   6.213   4.549   9.394
 1222W        W 5422  11.385   9.793   1.634
 1223W        W 5423   1.794  10.090  11.585
 1224W        W 5424   0.895   1.924   9.396
 1225W        W 5425   8.439   9.535   2.782
 1226W        W 5426   5.480   0.833   9.587
 1227W        W 5427   5.421   3.326   1.096
 1228W        W 5428   9.228   2.031   0.384
 1229W        W 5429   5.692   8.987   2.011
 1230W        W 5430  10.014   9.919   2.714
 1231W        W 5431   6.652   4.175   3.145
 1232W        W 5432   9.906   9.887   1.215
 1233W        W 5433   9.191   0.628  10.401
 1234W        W 5434   3.797   8.036  10.018
 1235W        W 5435   8.711   2.179   0.247
 1236W        W 5436   9.089   9.478   1.373
 1237W        W 5437   1.832   2.627  10.126
 1238W        W 5438   8.924   7.178   9.986
 1239W        W 5439   5.614   9.552   8.928
 1240W        W 5440   3.143   2.366  10.116
 1241W        W 5441   1.257   4.724   0.149
 1242W        W 5442  11.412   1.869   1.858
 1243W        W 5443   9.438   5.153   9.041
 1244W        W 5444  11.250  11.260   0.528
 1245W        W 5445   2.590  10.751   9.565
 1246W        W 5446   8.553   9.542   0.790
 1247W        W 5447   3.868   0.426   9.688
 1248W        W 5448   5.924   4.754  11.840
 1249W        W 5449   0.782   0.097   0.259
 1250W        W 5450   7.214   2.288   9.346
 1251W        W 5451   2.584   2.333   0.416
 1252W        W 5452   3.197   1.725   2.474
 1253W        W 5453  10.855   7.986  11.604
 1254W        W 5454   8.495   1.740   1.876
 1255W        W 5455   9.369   7.653   3.065
 1256W        W 5456   8.484   5.735  11.834
 1257W        W 5457   5.638   2.127  10.891
 1258W        W 5458   2.167   6.582   8.518
 1259W        W 5459  10.879   4.138   9.089
 1260W        W 5460   4.824  10.228   9.160
 1261W        W 5461   3.341   6.108  10.198
 1262W        W 5462  11.258   2.339   2.968
 1263W        W 5463   1.172   1.804  10.308
 1264W        W 5464   8.899   9.939   2.040
 1265W        W 5465   3.215   1.579   9.600
 1266W        W 5466   0.749  10.692   8.792
 1267W        W 5467  10.530   1.338  11.050
 1268W        W 5468  11.366   8.829  11.151
 1269W        W 5469   8.771   3.194   3.527
 1270W        W 5470   2.157  11.396   1.390
 1271W        W 5471   3.413  11.156   2.526
 1272W        W 5472   5.895   4.175  11.448
 1273W        W 5473   2.260   9.032   1.004
 1274W        W 5474   0.913   0.384   2.568
 1275W        W 5475   7.647  11.105   2.586
 1276W        W 5476   3.797   8.150   8.723
 1277W        W 5477   6.084   6.500   0.313
 1278W        W 5478  11.358   7.416  11.903
 1279W        W 5479   1.577   4.260   8.918
 1280W        W 5480   5.510  11.396   2.628
 1281W        W 5481  11.433   7.580   1.090
 1282W        W 5482   6.111   4.846   0.849
 1283W        W 5483   4.676   3.579  10.986
 1284W        W 5484   8.523   2.479   1.366
 1285W        W 5485   1.963  10.886  10.960
 1286W        W 5486   7.710   4.375   3.265
 1287W        W 5487   6.684   8.363   9.007
 1288W        W 5488   7.722   2.244   2.682
 1289W        W 5489   1.577   7.037  11.539
 1290W        W 5490   7.108   1.888  11.293
 1291W        W 5491   5.566   6.605   2.605
 1292W        W 5492   9.024   3.319   1.144
 1293W        W 5493   9.384   7.447   0.412
 1294W        W 5494   8.000   2.937  11.857
 1295W        W 5495   0.491   7.094  11.721
 1296W        W 5496  10.866  10.995   2.613
 1297W        W 5497   5.496   2.368   3.514
 1298W        W 5498   1.112   2.452  11.686
 1299W        W 5499   9.923   9.468   2.475
 1300W        W 5500   0.949   8.348   8.335
 1301W        W 5501   9.170   4.225   2.105
 1302W        W 5502   6.211  10.405   1.999
 1303W        W 5503   5.686   4.131   3.522
 1304W        W 5504   3.782   9.818   8.914
 1305W        W 5505  11.037  11.021  10.504
 1306W        W 5506   3.825   9.810  10.610
 1307W        W 5507   2.530   7.517   1.140
 1308W        W 5508  10.896  10.007   0.891
 1309W        W 5509   0.945   3.650   1.831
 1310W        W 5510   2.137   0.858   9.879
 1311W        W 5511   7.021   1.282   1.020
 1312W        W 5512   6.691   4.325  11.773
 1313W        W 5513  10.932   8.526   1.868
 1314W        W 5514   1.048   0.828  10.860
 1315W        W 5515   3.600  11.241  10.389
 1316W        W 5516   9.328   1.038   2.585
 1317W        W 5517   9.507   2.414   0.115
 1318W        W 5518   1.779  10.814   0.139
 1319W        W 5519  10.034   6.105  11.984
 1320W        W 5520   6.560   4.781   1.111
 1321W        W 5521   2.749   7.403   8.862
 1322W        W 5522   8.941  11.440   3.232
 1323W        W 5523  10.959   9.965   3.696
 1324W        W 5524   1.096   5.596   3.347
 1325W        W 5525   2.393   7.929   1.449
 1326W        W 5526   0.438   3.137   2.794
 1327W        W 5527   6.424   6.692   0.638
 1328W        W 5528   3.230   9.895   3.160
 1329W        W 5529   3.582   0.356   1.426
 1330W        W 5530   2.554   1.105   9.671
 1331W        W 5531   3.334   7.164   0.570
 1332W        W 5532  11.000   1.611   9.254
 1333W        W 5533   2.619   3.501  11.800
 1334W        W 5534   5.727   5.259   1.198
 1335W        W 5535   6.149   2.896  11.805
 1336W        W 5536   6.005   1.312  10.295
 1337W        W 5537   4.626   7.955  11.548
 1338W        W 5538  11.329   9.299   9.106
 1339W        W 5539  11.314   9.774   0.710
 1340W        W 5540   7.482   6.831   9.446
 1341W        W 5541   3.323  10.610   9.120
 1342W        W 5542   2.249   6.923   2.294
 1343W        W 5543   8.693   4.679  10.631
 1344W        W 5544   8.967   3.280   3.058
 1345W        W 5545   7.505   7.029   2.672
 1346W        W 5546   9.092   6.481   0.953
 1347W        W 5547   5.319   0.018   9.178
 1348W        W 5548   0.879   9.782  11.831
 1349W        W 5549  10.733  11.117   1.786
 1350W        W 5550   5.792  10.476   2.839
 1351W        W 5551   3.916   1.614   2.053
 1352W        W 5552   3.223   4.665  11.863
 1353W        W 5553   7.067   9.507   3.035
 1354W        W 5554   4.052   1.296  10.611
 1355W        W 5555   3.600  10.727  10.341
 1356W        W 5556   5.386   4.040  11.422
 1357W        W 5557   6.958   9.032   1.060
 1358W        W 5558   8.905   1.430  10.134
 1359W        W 5559   1.942   3.862  10.270
 1360W        W 5560   0.245   5.018   9.411
 1361W        W 5561   3.339   7.648  11.290
 1362W        W 5562   6.502   2.577   1.822
 1363W        W 5563   4.146  11.273   9.415
 1364W        W 5564   1.268   4.435   3.410
 1365W        W 5565   4.095   8.184   2.295
 1366W        W 5566   5.626   1.199  10.912
 1367W        W 5567   1.849   7.103   9.797
 1368W        W 5568   1.809   3.611  11.711
 1369W        W 5569   3.120   8.674   1.309
 1370W        W 5570   8.163   7.640   0.829
 1371W        W 5571   4.568   1.861   9.410
 1372W        W 5572   7.718   1.477   2.208
 1373W        W 5573   7.652   1.407   9.241
 1374W        W 5574   9.313   0.365   8.200
 1375W        W 5575   3.345   2.556   3.486
 1376W        W 5576   2.978   9.624   1.667
 1377W        W 5577   1.283   0.268  10.061
 1378W        W 5578   3.993   4.058  10.560
 1379W        W 5579   2.165   5.310   1.133
 1380W        W 5580   5.095   3.598   3.902
 1381W        W 5581   3.744   8.797  11.113
 1382W        W 5582   7.113   8.922   9.555
 1383W        W 5583   9.059  10.336   9.291
 1384W        W 5584   6.580   1.394   3.342
 1385W        W 5585   2.180   9.930   3.168
 1386W        W 5586   4.162   6.211  10.763
 1387W        W 5587   4.147   9.356   0.745
 1388W        W 5588   4.535   0.103   2.339
 1389W        W 5589   1.438   1.136  11.039
 1390W        W 5590   2.693  11.126  11.733
 1391W        W 5591   8.482   1.002   1.095
 1392W        W 5592   5.093   3.273  10.962
 1393W        W 5593   9.303   0.778   3.021
 1394W        W 5594   3.237   2.552   2.915
 1395W        W 5595  11.210   2.162   3.451
 1396W        W 5596   8.520   9.624   3.602
 1397W        W 5597   5.999   7.292   8.624
 1398W        W 5598   3.084   2.368   0.463
 1399W        W 5599   3.621  10.610  11.747
 1400W        W 5600   2.342   4.145   0.875
 1401W        W 5601   8.452   0.737  10.710
 1402W        W 5602  10.296  10.474   9.746
 1403W        W 5603   2.735   7.863   0.461
 1404W        W 5604   8.490   8.844   8.585
 1405W        W 5605   8.156   5.989   8.281
 1406W        W 5606   5.767  10.310   1.746
 1407W        W 5607   6.616   8.082   0.709
 1408W        W 5608   5.649   2.360   8.675
 1409W        W 5609   3.496   1.945   2.132
 1410W        W 5610   3.313   5.724  10.546
 1411W        W 5611  11.315   2.690   3.463
 1412W        W 5612   6.033   2.814   3.663
 1413W        W 5613   6.187  10.558   1.516
 1414W        W 5614   9.672   1.474  11.121
 1415W        W 5615  10.451   0.703   0.450
 1416W        W 5616   2.580   5.625   2.557
 1417W        W 5617   6.085   8.863   2.813
 1418W        W 5618   5.595   8.642   9.931
 1419W        W 5619  10.990   9.927   0.356
 1420W        W 5620   6.531   4.367   8.970
 1421W        W 5621   8.683   8.099   0.069
 1422W        W 5622   7.441   4.328  10.309
 1423W        W 5623   4.635   5.639  10.494
 1424W        W 5624   8.828   4.815   0.823
 1425W        W 5625   4.909   9.633   3.693
 1426W        W 5626   2.391   7.062   1.433
 1427W        W 5627   9.934   2.842  11.104
 1428W        W 5628   1.348   1.656   9.332
 1429W        W 5629   9.698   9.175   0.407
 1430W        W 5630  10.421   1.663   0.225
 1431W        W 5631   4.194   4.701   9.356
 1432W        W 5632   2.218   6.372   9.391
 1433W        W 5633   9.569   6.489   9.098
 1434W        W 5634   7.720   9.403  10.285
 1435W        W 5635   2.406   8.169   1.902
 1436W        W 5636   8.112   8.618   8.912
 1437W        W 5637   9.707   2.072   0.696
 1438W        W 5638   8.979   7.508  11.499
 1439W        W 5639   8.475   4.750   2.679
 1440W        W 5640   8.593   6.467   9.705
 1441W        W 5641   1.694  10.992   1.877
 1442W        W 5642   8.159   6.390   9.459
 1443W        W 5643  11.335   6.008   3.166
 1444W        W 5644   8.027   0.269  11.326
 1445W        W 5645   7.573   7.172   0.483
 1446W        W 5646   0.307   5.844   2.256
 1447W        W 5647   5.208  10.816  10.263
 1448W        W 5648   7.372   7.822   2.314
 1449W        W 5649   6.029   2.030   8.866
 1450W        W 5650   6.326   6.071  10.139
 1451W        W 5651   8.690   4.068   3.338
 1452W        W 5652   5.602   9.299  11.320
 1453W        W 5653   7.259   9.750   0.048
 1454W        W 5654   8.668   3.716   0.423
 1455W        W 5655   8.883  11.191  11.904
 1456W        W 5656   4.960  11.170   0.902
 1457W        W 5657   4.882   3.244   9.189
 1458W        W 5658   1.931   4.706   8.844
 1459W        W 5659   5.436   6.611  10.364
 1460W        W 5660   1.255   1.242   0.038
 1461W        W 5661   6.230   8.007   0.238
 1462W        W 5662   9.772   8.634   0.578
 1463W        W 5663  10.759   2.799   1.201
 1464W        W 5664   0.301  10.361  11.312
 1465W        W 5665   6.025   0.873   0.045
 1466W        W 5666   1.375   9.092  11.633
 1467W        W 5667   2.295   1.437  10.601
 1468W        W 5668   2.087   9.360   9.340
 1469W        W 5669   5.209   9.259   3.311
 1470W        W 5670   6.496   9.493   2.328
 1471W        W 5671   5.977   5.517  10.356
 1472W        W 5672   8.452   3.062   3.088
 1473W        W 5673   3.917   0.447  10.933
 1474W        W 5674   7.250   5.083   9.945
 1475W        W 5675   7.582   5.886  11.207
 1476W        W 5676   2.939   1.245   0.428
 1477W        W 5677   8.420   9.758   1.266
 1478W        W 5678  10.686   5.275  11.757
 1479W        W 5679   3.207   4.576   3.418
 1480W        W 5680   0.582   0.813  11.748
 1481W        W 5681   8.588   6.911  10.254
 1482W        W 5682   0.682   8.159  10.035
 1483W        W 5683   0.392   0.766  11.277
 1484W        W 5684   5.929   9.001   0.997
 1485W        W 5685   4.732   0.489   1.822
 1486W        W 5686   2.849   0.445   8.957
 1487W        W 5687   7.809   3.083   2.861
 1488W        W 5688   9.129   3.300   9.485
 1489W        W 5689   2.856   4.223   3.521
 1490W        W 5690   1.729   2.694  10.632
 1491W        W 5691  10.879   9.917   9.241
 1492W        W 5692   0.282   7.629  10.824
 1493W        W 5693   9.148   6.244   2.290
 1494W        W 5694   7.502   5.758  11.732
 1495W        W 5695   5.947   5.195  11.398
 1496W        W 5696   1.463   6.191   1.655
 1497W        W 5697   1.913   6.144   1.408
 1498W        W 5698  10.936   4.068   0.589
 1499W        W 5699   9.476   5.953   9.756
 1500W        W 5700   2.567   5.259  11.810
 1501W        W 5701   7.900   1.373   3.171
 1502W        W 5702   2.388   0.972   0.008
 1503W        W 5703   6.122   1.258  10.795
 1504W        W 5704   5.254   1.547  10.601
 1505W        W 5705   0.064   0.291   9.497
 1506W        W 5706   0.377   8.419   0.979
 1507W        W 5707   2.070   4.035  11.400
 1508W        W 5708   2.867   0.326   9.923
 1509W        W 5709   0.288   5.580   2.707
 1510W        W 5710   6.467   2.067  11.862
 1511W        W 5711   4.256   2.551  11.874
 1512W        W 5712   3.585   2.084   9.997
 1513W        W 5713   1.024   2.070   0.084
 1514W        W 5714   6.573   8.137   9.504
 1515W        W 5715   0.153  10.449   2.413
 1516W        W 5716   1.306   3.999   1.939
 1517W        W 5717   4.347  10.980   9.007
 1518W        W 5718  10.953   6.722   9.745
 1519W        W 5719   1.623  10.391   3.517
 1520W        W 5720   2.493   5.783   9.999
 1521W        W 5721   4.938   2.317   3.431
 1522W        W 5722   3.279   5.030  10.076
 1523W        W 5723   2.111   4.574  11.402
 1524W        W 5724  11.344   3.308  10.582
 1525W        W 5725   1.675   7.477   1.726
 1526W        W 5726   6.572   0.778   8.919
 1527W        W 5727   7.823   9.867  11.303
 1528W        W 5728  10.667   4.290  11.761
 1529W        W 5729   6.816   1.003  11.518
 1530W        W 5730   3.169   9.756   0.471
 1531W        W 5731   3.739   2.787   1.171
 1532W        W 5732   7.353   5.601  10.814
 1533W        W 5733   7.162   4.855  11.170
 1534W        W 5734   8.494   8.655   4.058
 1535W        W 5735   8.001   5.744  10.036
 1536W        W 5736  10.552   5.974   2.747
 1537W        W 5737   6.456   4.728  10.191
 1538W        W 5738   2.511   0.563   8.582
 1539W        W 5739   3.324   2.756  10.423
 1540W        W 5740   5.699   1.812   8.539
 1541W        W 5741   5.822   6.132   1.359
 1542W        W 5742   1.837   7.437   9.067
 1543W        W 5743   9.979   9.850  11.717
 1544W        W 5744   1.484   3.265   2.707
 1545W        W 5745   7.742   0.061   0.356
 1546W        W 5746   8.481  11.447   2.128
 1547W        W 5747   5.192   3.964   3.558
 1548W        W 5748   3.784   8.513   0.715
 1549W        W 5749   7.959   1.421   2.673
 1550W        W 5750   3.716   0.717   0.710
 1551W        W 5751   8.046   8.503   2.373
 1552W        W 5752  10.472   2.305   2.981
 1553W        W 5753   2.223   8.113   9.926
 1554W        W 5754  10.983   7.190  10.985
 1555W        W 5755   4.552   3.521   8.637
 1556W        W 5756   5.027   3.557   8.809
 1557W        W 5757   3.824   1.243   1.700
 1558W        W 5758  11.067   0.417   2.921
 1559W        W 5759  10.561   5.198   2.253
 1560W        W 5760   7.195   5.263  10.436
 1561W        W 5761   4.811   3.569   2.434
 1562W        W 5762   8.954   1.964   8.944
 1563W        W 5763   8.624   3.321   0.788
 1564W        W 5764   5.700   2.706   0.024
 1565W        W 5765   4.583  10.781   9.433
 1566W        W 5766   0.860   4.709  10.426
 1567W        W 5767   2.747   1.330   2.860
 1568W        W 5768   5.287   5.093   1.961
 1569W        W 5769   3.263   7.473   8.989
 1570W        W 5770   5.530   2.683   1.439
 1571W        W 5771   4.238   0.745   9.073
 1572W        W 5772   5.532   4.966  10.881
 1573W        W 5773  10.366   4.772  10.719
 1574W        W 5774  10.901   9.840   2.203
 1575W        W 5775   7.960   6.560   2.304
 1576W        W 5776   0.350   5.651   1.055
 1577W        W 5777   8.614   0.748   9.870
 1578W        W 5778  10.524   2.379  11.035
 1579W        W 5779   8.005   7.890   1.776
 1580W        W 5780   5.546   3.811   1.095
 1581W        W 5781   9.110   8.396   0.034
 1582W        W 5782   9.727   5.059  10.008
 1583W        W 5783   9.950   9.113   9.606
 1584W        W 5784  11.298   7.210   0.766
 1585W        W 5785   4.664  10.685  11.039
 1586W        W 5786   9.521  10.099   0.345
 1587W        W 5787   0.726   0.644   0.216
 1588W        W 5788   2.774   6.637   1.801
 1589W        W 5789   3.181   0.428  10.516
 1590W        W 5790   4.825   5.129   0.523
 1591W        W 5791   0.868   4.552   9.898
 1592W        W 5792   1.519   1.874   1.145
 1593W        W 5793   3.974   2.637   9.078
 1594W        W 5794   4.420   6.625   9.061
 1595W        W 5795   9.496   0.106   9.900
 1596W        W 5796  10.565   8.549   0.805
 1597W        W 5797  10.803   2.708   0.705
 1598W        W 5798   0.837  11.085   3.161
 1599W        W 5799   9.010  11.352   2.202
 1600W        W 5800  10.423   3.838  10.850
 1601W        W 5801   1.717   7.259  10.714
 1602W        W 5802   0.863  11.353   2.441
 1603W        W 5803   4.014   1.100   1.221
 1604W        W 5804   0.106   4.587   9.189
 1605W        W 5805  11.380  10.837   1.330
 1606W        W 5806   1.284   8.646  11.375
 1607W        W 5807   1.839   3.305   8.895
 1608W        W 5808   4.347   2.281  10.497
 1609W        W 5809   0.618   3.268   3.231
 1610W        W 5810   3.018   9.524   2.771
 1611W        W 5811   7.608   7.201  11.969
 1612W        W 5812   1.646   0.170  10.749
 1613W        W 5813   7.405   9.833  11.566
 1614W        W 5814  11.408   4.545  11.477
 1615W        W 5815  10.925   2.051   9.002
 1616W        W 5816   8.627   6.408  10.247
 1617W        W 5817   0.259  11.014  11.939
 1618W        W 5818   2.688   6.368   3.961
 1619W        W 5819   4.629   7.046  11.602
 1620W        W 5820   9.846   1.214   1.682
 1621W        W 5821   5.184   1.351   2.786
 1622W        W 5822   1.717   4.903   1.859
 1623W        W 5823   3.849   9.879   2.663
 1624W        W 5824   8.849   2.820   2.320
 1625W        W 5825   4.479   8.211   9.074
 1626W        W 5826   6.724   3.589   9.453
 1627W        W 5827   9.810   6.958   9.086
 1628W        W 5828   4.418   2.773   9.278
 1629W        W 5829   8.610   8.884   2.440
 1630W        W 5830   2.206   0.976  10.357
 1631W        W 5831   2.526   4.503   0.547
 1632W        W 5832   6.066   7.938   9.529
 1633W        W 5833   1.540   1.333   2.251
 1634W        W 5834   4.314   1.458   1.743
 1635W        W 5835   1.461   8.665   1.516
 1636W        W 5836   2.893   2.345  11.602
 1637W        W 5837   8.356   1.389   3.408
 1638W        W 5838   5.001   7.237   9.647
 1639W        W 5839   2.542   3.543   2.580
 1640W        W 5840  10.337   7.953   0.430
 1641W        W 5841   3.835   5.969   0.466
 1642W        W 5842   3.800   0.938  10.889
 1643W        W 5843   5.433   3.326   1.609
 1644W        W 5844   7.284   3.828  11.365
 1645W        W 5845   3.533   0.847   3.311
 1646W        W 5846   2.208   1.758  11.007
 1647W        W 5847   2.233   5.216   0.189
 1648W        W 5848   0.022   4.218  10.267
 1649W        W 5849   2.794   5.066   2.553
 1650W        W 5850   7.931   5.050   9.522
 1651W        W 5851   2.888   9.908   0.882
 1652W        W 5852   4.034   9.840   0.074
 1653W        W 5853   9.085   3.948  11.255
 1654W        W 5854  10.758  10.782   9.138
 1655W        W 5855  11.448   0.073   3.644
 1656W        W 5856   0.539   7.462   0.192
 1657W        W 5857   4.711   2.101  10.795
 1658W        W 5858   8.118   3.195   1.168
 1659W        W 5859   9.162   6.264   2.810
 1660W        W 5860   1.638   8.259   8.772
 1661W        W 5861  10.895   5.750   9.975
 1662W        W 5862   5.537   0.258   0.467
 1663W        W 5863   2.190   8.113   2.821
 1664W        W 5864   0.368  11.278   3.714
 1665W        W 5865   1.091   2.256   2.375
 1666W        W 5866   8.019   7.556   2.153
 1667W        W 5867   9.083   1.983   2.652
 1668W        W 5868   2.320   5.574  11.428
 1669W        W 5869   6.318   8.312  10.353
 1670W        W 5870   8.095   8.003  11.579
 1671W        W 5871   0.376   4.210   3.380
 1672W        W 5872  11.474   5.203   2.787
 1673W        W 5873   2.922  10.203   0.438
 1674W        W 5874   6.099   3.015   2.367
 1675W        W 5875   2.025   4.792   2.753
 1676W        W 5876   8.997  11.146  11.310
 1677W        W 5877   4.774   9.997   3.017
 1678W        W 5878   8.366   7.612  10.733
 1679W        W 5879   4.734   9.394   9.746
 1680W        W 5880   8.089   0.665  11.657
 1681W        W 5881   1.676   9.560   9.632
 1682W        W 5882   7.546   2.008   3.469
 1683W        W 5883   8.941   1.449   8.812
 1684W        W 5884   1.987   7.637   9.932
 1685W        W 5885   0.055  10.916  10.629
 1686W        W 5886   0.232   0.238  10.975
 1687W        W 5887   4.345  10.450   9.097
 1688W        W 5888   6.612   4.378   8.454
 1689W        W 5889   8.583  11.404  11.432
 1690W        W 5890   4.711   2.062   8.487
 1691W        W 5891   9.449   4.126   3.120
 1692W        W 5892   9.026   8.780   9.369
 1693W        W 5893   2.089   7.208   1.875
 1694W        W 5894   9.555   2.625  10.854
 1695W        W 5895   3.267   2.916   1.359
 1696W        W 5896   7.067   1.812   9.464
 1697W        W 5897   3.552   3.849  11.815
 1698W        W 5898  11.132   4.983  10.489
 1699W        W 5899   8.914   9.121   3.431
 1700W        W 5900  11.211   9.342   2.466
 1701W        W 5901   4.318   2.445   3.209
 1702W        W 5902   0.305   7.517   0.724
 1703W        W 5903   3.047   6.149   9.345
 1704W        W 5904   1.326   0.324  11.732
 1705W        W 5905  10.472   9.373   1.269
 1706W        W 5906   8.993   3.762  10.786
 1707W        W 5907   6.011   2.306  10.103
 1708W        W 5908  11.290   3.303  10.080
 1709W        W 5909   8.823   7.115   2.573
 1710W        W 5910   8.355   9.866  11.311
 1711W        W 5911   2.753  11.389   0.690
 1712W        W 5912   7.524   2.713   2.662
 1713W        W 5913  10.472   9.533   8.729
 1714W        W 5914   4.567   8.694   3.442
 1715W        W 5915   0.425   1.862   3.389
 1716W        W 5916   2.355   2.841   1.319
 1717W        W 5917   6.064   9.353  11.064
 1718W        W 5918   7.325   7.820   1.451
 1719W        W 5919   6.144   0.502   8.796
 1720W        W 5920   6.531  10.923   8.818
 1721W        W 5921   7.933   0.481   8.827
 1722W        W 5922   7.101   7.229   9.362
 1723W        W 5923   5.947   7.568   0.247
 1724W        W 5924   1.735   7.410   2.987
 1725W        W 5925  10.458   3.147   2.383
 1726W        W 5926   1.393   9.723   3.802
 1727W        W 5927  10.678   6.970   1.383
 1728W        W 5928   8.352   6.870   9.359
 1729W        W 5929   7.082  10.024   9.092
 1730W        W 5930   4.455   8.208   3.243
 1731W        W 5931   4.582   7.086  10.530
 1732W        W 5932   2.874   9.398  10.913
 1733W        W 5933   3.066   9.986  11.038
 1734W        W 5934   8.140   6.645  10.390
 1735W        W 5935  11.290   1.376   1.800
 1736W        W 5936   4.222   7.665   3.129
 1737W        W 5937   2.151   7.145   0.980
 1738W        W 5938   0.337   1.283   9.408
 1739W        W 5939  11.050  11.244   1.289
 1740W        W 5940   4.483   5.279   0.970
 1741W        W 5941   5.241   7.838   1.630
 1742W        W 5942   9.693   5.546   9.504
 1743W        W 5943   9.116   4.889   8.709
 1744W        W 5944  11.329   5.464  10.390
 1745W        W 5945  10.717   0.556   2.509
 1746W        W 5946   8.243   1.472   2.232
 1747W        W 5947   9.632   7.133  11.806
 1748W        W 5948   1.786   0.566  11.514
 1749W        W 5949   8.528   0.468   2.265
 1750W        W 5950  10.958   7.177   3.100
 1751W        W 5951  10.849   9.117   2.730
 1752W        W 5952   1.723   2.693  11.152
 1753W        W 5953   2.605   7.216   2.807
 1754W        W 5954   6.490   0.174   0.981
 1755W        W 5955   8.652   1.004   1.578
 1756W        W 5956   7.091   8.910  10.769
 1757W        W 5957   9.013   7.438   9.072
 1758W        W 5958   4.874   3.213   3.647
 1759W        W 5959   0.372   8.596  11.842
 1760W        W 5960   5.628   2.746   2.366
 1761W        W 5961  11.415   5.957   0.556
 1762W        W 5962   1.451   2.728   2.500
 1763W        W 5963   1.481   7.190   8.558
 1764W        W 5964   7.169   3.378  11.124
 1765W        W 5965  10.837   7.466  11.803
 1766W        W 5966   6.671   0.546   0.679
 1767W        W 5967   4.363   2.059  11.922
 1768W        W 5968  10.094   6.849  10.338
 1769W        W 5969   1.769  11.286  11.946
 1770W        W 5970   2.229   5.653   0.469
 1771W        W 5971   3.097  11.432  10.125
 1772W        W 5972   3.200   6.479   1.163
 1773W        W 5973  10.873   3.850   3.136
 1774W        W 5974   3.671   9.811   0.418
 1775W        W 5975   3.327   3.749   2.039
 1776W        W 5976   3.399  11.154  11.543
 1777W        W 5977   3.370   4.240   1.789
 1778W        W 5978   3.612   4.813   0.160
 1779W        W 5979   2.968   4.248   0.434
 1780W        W 5980   2.432  11.454   1.896
 1781W        W 5981   8.399   3.136   2.184
 1782W        W 5982   6.283  10.935   1.857
 1783W        W 5983   3.235  11.066   2.037
 1784W        W 5984   0.873   3.224   9.970
 1785W        W 5985   7.994  10.485  10.035
 1786W        W 5986   7.413   8.991  10.380
 1787W        W 5987   8.167   5.169   2.709
 1788W        W 5988   5.699  10.334   9.372
 1789W        W 5989   6.621   7.305   9.178
 1790W        W 5990   2.083   5.619   2.427
 1791W        W 5991   5.432   5.136  11.352
 1792W        W 5992   6.251   0.858   1.431
 1793W        W 5993   7.884   4.543   0.707
 1794W        W 5994   4.127   5.135  10.035
 1795W        W 5995   6.169   3.310  11.251
 1796W        W 5996  10.377   0.251   2.247
 1797W        W 5997   4.278  10.575   0.544
 1798W        W 5998   2.813   5.049   9.876
 1799W        W 5999   7.643   7.573   2.749
 1800W        W 6000   0.518   1.494  10.822
 1801W        W 6001   2.470   9.822   9.375
 1802W        W 6002   9.075   0.388   9.937
 1803W        W 6003   8.956  10.503  10.313
 1804W        W 6004   9.411   1.487   9.590
 1805W        W 6005  11.319   0.908   8.843
 1806W        W 6006   8.603   3.334   9.433
 1807W        W 6007   0.311   5.740  11.352
 1808W        W 6008   4.351   8.328  10.050
 1809W        W 6009   1.532   7.813  11.462
 1810W        W 6010   6.886   3.318   0.490
 1811W        W 6011   8.057   0.684   1.014
 1812W        W 6012   9.924  10.991   9.463
 1813W        W 6013   2.839   3.936   1.970
 1814W        W 6014   5.462   5.284   0.770
 1815W        W 6015   9.544   7.060   4.275
 1816W        W 6016   8.118  10.581   9.183
 1817W        W 6017   5.595   5.723  11.977
 1818W        W 6018  10.013   9.996   0.214
 1819W        W 6019   3.740  11.336   2.179
 1820W        W 6020   3.780   1.225  11.967
 1821W        W 6021   6.310   4.337   1.767
 1822W        W 6022   1.923   2.644   2.266
 1823W        W 6023   3.715   0.187   0.804
 1824W        W 6024  11.464   2.135   0.308
 1825W        W 6025   0.800   9.581   0.318
 1826W        W 6026   9.335   5.500  10.483
 1827W        W 6027   4.255   9.597   1.486
 1828W        W 6028   7.910   4.942  11.868
 1829W        W 6029   7.764   8.658   1.298
 1830W        W 6030   0.387   5.223   2.329
 1831W        W 6031   5.023   0.986   9.442
 1832W        W 6032   2.090   7.468   1.398
 1833W        W 6033   4.946   8.377   3.338
 1834W        W 6034   0.582   8.380  10.506
 1835W        W 6035   6.105   4.052  10.138
 1836W        W 6036  10.007   4.619  11.062
 1837W        W 6037   5.971   3.305   0.946
 1838W        W 6038   7.599  10.490   0.721
 1839W        W 6039   5.300   6.952   0.385
 1840W        W 6040   6.026   2.379  11.758
 1841W        W 6041   4.672   4.789  11.566
 1842W        W 6042   1.571   0.834  11.911
 1843W        W 6043   3.609   5.089  11.280
 1844W        W 6044   5.416   5.736   9.177
 1845W        W 6045  10.253   0.391  11.031
 1846W        W 6046   6.287   6.549   3.320
 1847W        W 6047   6.480   5.552  11.027
 1848W        W 6048   7.922   0.570   2.423
 1849W        W 6049   8.672   2.470   9.445
 1850W        W 6050  11.295   7.037  10.250
 1851W        W 6051   9.540   3.281   1.316
 1852W        W 6052   9.135   5.992   4.086
 1853W        W 6053  11.382  10.359   1.519
 1854W        W 6054   7.164   6.866   0.416
 1855W        W 6055   1.940   5.533  10.808
 1856W        W 6056   8.668   3.235  10.765
 1857W        W 6057   9.075   3.692   2.476
 1858W        W 6058   4.116   0.349  11.469
 1859W        W 6059   3.352   2.382   1.301
 1860W        W 6060   0.390   4.174   2.025
 1861W        W 6061   5.206   6.731   1.635
 1862W        W 6062   6.766   6.712   1.535
 1863W        W 6063  10.089   8.180   0.800
 1864W        W 6064   3.098   1.242   8.816
 1865W        W 6065   4.535   9.456   8.479
 1866W        W 6066   6.157   2.187   0.264
 1867W        W 6067  10.751   0.451  10.938
 1868W        W 6068   8.597   9.990   8.850
 1869W        W 6069   1.184   5.220   9.016
 1870W        W 6070   3.732   9.309   8.980
 1871W        W 6071   5.023  11.280   0.028
 1872W        W 6072  10.321   3.101   0.029
 1873W        W 6073   6.882   2.241  11.621
 1874W        W 6074   2.286   1.263  11.173
 1875W        W 6075   7.130   2.703  11.740
 1876W        W 6076   4.158   3.328   0.375
 1877W        W 6077   4.482   3.518   1.249
 1878W        W 6078   5.316   2.089   3.131
 1879W        W 6079   3.496   2.851   9.476
 1880W        W 6080   9.643   6.237   1.892
 1881W        W 6081   3.114   8.768   8.696
 1882W        W 6082   2.716   9.446  11.453
 1883W        W 6083  10.278  10.051  10.463
 1884W        W 6084   0.297   6.712  11.014
 1885W        W 6085   2.360   9.886   0.878
 1886W        W 6086  10.075   9.524   0.409
 1887W        W 6087   0.348   2.322   0.622
 1888W        W 6088   1.926   0.152   0.417
 1889W        W 6089   9.465   9.401   2.651
 1890W        W 6090  11.408   6.613   9.979
 1891W        W 6091   3.113   8.380   2.404
 1892W        W 6092   3.105   8.487  11.851
 1893W        W 6093   5.633   1.666   0.223
 1894W        W 6094   3.038   4.927   3.828
 1895W        W 6095   4.725   6.124  10.267
 1896W        W 6096   1.631   6.777  10.579
 1897W        W 6097   2.310   6.235   1.729
 1898W        W 6098   1.190   3.673   2.909
 1899W        W 6099   4.323   3.159  11.489
 1900W        W 6100   7.436   6.133   8.660
 1901W        W 6101   9.920  10.929  10.375
 1902W        W 6102   5.890   7.126   3.428
 1903W        W 6103   2.295   8.625   1.706
 1904W        W 6104   1.857   6.086   2.465
 1905W        W 6105   1.338   0.958   1.513
 1906W        W 6106   6.968   4.251  11.337
 1907W        W 6107   6.103   1.277   2.598
 1908W        W 6108   8.667   5.337   1.464
 1909W        W 6109   5.811   3.825  10.534
 1910W        W 6110   3.197   0.706  11.476
 1911W        W 6111   4.712   3.693   3.476
 1912W        W 6112   5.916   4.582   3.424
 1913W        W 6113   0.461   1.430   1.205
 1914W        W 6114   9.533  10.063  11.814
 1915W        W 6115   2.770   8.112  10.792
 1916W        W 6116   2.247   3.506  11.433
 1917W        W 6117   3.632   5.245  11.827
 1918W        W 6118   2.490   4.717  10.110
 1919W        W 6119   7.982   9.646   3.482
 1920W        W 6120   1.113   2.232  10.027
 1921W        W 6121   1.620   9.421   9.137
 1922W        W 6122   7.191   4.197   3.265
 1923W        W 6123   2.251   1.468   9.457
 1924W        W 6124   7.361  11.318   3.047
 1925W        W 6125   3.238   5.248   9.626
 1926W        W 6126   2.509   7.691   9.878
 1927W        W 6127   1.385   8.312   2.802
 1928W        W 6128   2.012   5.605   9.967
 1929W        W 6129   2.378   2.331   1.208
 1930W        W 6130   2.178   6.660   9.944
 1931W        W 6131   0.756   9.954  10.534
 1932W        W 6132   4.676   7.975   2.393
 1933W        W 6133   2.097   6.154  10.012
 1934W        W 6134  10.732   5.875   9.444
 1935W        W 6135   0.244   8.429   3.465
 1936W        W 6136   1.435   2.315   1.380
 1937W        W 6137   3.086   5.072   3.335
 1938W        W 6138   0.675   8.587   2.731
 1939W        W 6139   1.395   4.877   1.437
 1940W        W 6140   9.073   8.469   8.960
 1941W        W 6141   3.190   4.013   3.232
 1942W        W 6142   5.579   8.099   3.917
 1943W        W 6143   9.965   4.687   9.054
 1944W        W 6144   8.155   9.759   9.560
 1945W        W 6145  10.747  11.342   9.376
 1946W        W 6146   0.321   6.586   1.622
 1947W        W 6147   7.384   2.183   9.863
 1948W        W 6148   9.545   9.121   8.491
 1949W        W 6149   8.109   5.245   9.976
 1950W        W 6150   3.999   9.434   2.892
 1951W        W 6151   0.362   6.555   0.957
 1952W        W 6152  10.899   9.041   3.221
 1953W        W 6153   0.432   2.817   8.863
 1954W        W 6154   3.284  11.423   0.385
 1955W        W 6155   0.786   5.912  11.277
 1956W        W 6156   6.453   8.460   0.418
 1957W        W 6157   6.445   1.682   2.551
 1958W        W 6158   6.612   2.723  11.099
 1959W        W 6159   2.819   8.433  10.404
 1960W        W 6160   6.051   5.501   2.183
 1961W        W 6161   0.942   2.202  10.536
 1962W        W 6162   4.761  10.488   2.847
 1963W        W 6163   4.668   9.371   0.682
 1964W        W 6164   8.900  10.399   9.780
 1965W        W 6165   2.020   2.160   2.458
 1966W        W 6166   8.666  10.737  10.782
 1967W        W 6167   1.262   0.473   1.370
 1968W        W 6168   5.632   0.947   3.268
 1969W        W 6169   8.381  10.317   2.120
 1970W        W 6170   4.389   1.341   0.363
 1971W        W 6171   0.388   1.287   2.950
 1972W        W 6172   1.244   5.781   8.524
 1973W        W 6173   4.171   3.685   0.733
 1974W        W 6174   7.459   5.066   8.921
 1975W        W 6175   4.757   4.425  11.916
 1976W        W 6176   2.677   3.507  10.896
 1977W        W 6177   3.180   9.562  11.293
 1978W        W 6178   5.616   8.494   1.262
 1979W        W 6179  10.585   0.034  11.754
 1980W        W 6180   9.021   4.413   3.119
 1981W        W 6181  11.106   4.607   9.078
 1982W        W 6182  11.117   0.546   0.898
 1983W        W 6183   1.513   0.633  10.941
 1984W        W 6184   2.759   5.384  10.265
 1985W        W 6185   3.110   5.112   1.142
 1986W        W 6186   8.247   5.238   1.861
 1987W        W 6187   9.806   0.960   3.475
 1988W        W 6188   1.872   7.968   9.131
 1989W        W 6189   2.215   4.337  11.995
 1990W        W 6190   2.817   2.270   0.899
 1991W        W 6191   4.370   9.524  10.088
 1992W        W 6192   8.539   9.884   2.381
 1993W        W 6193   0.053  10.432   1.021
 1994W        W 6194   5.135   7.659  11.093
 1995W        W 6195   1.876   1.373  10.878
 1996W        W 6196   4.120   3.152   1.403
 1997W        W 6197   7.279   9.266   0.175
 1998W        W 6198   6.742   1.397   9.582
 1999W        W 6199  10.197   1.805  11.732
 2000W        W 6200  10.490  10.919   9.555
 2001W        W 6201   1.872   1.375  10.346
 2002W        W 6202   4.740   6.706   0.403
 2003W        W 6203   0.252   6.969   0.695
 2004W        W 6204  11.281   4.575   2.383
 2005W        W 6205  10.053   8.118   2.151
 2006W        W 6206   3.361   5.114   2.347
 2007W        W 6207  10.087   8.715   1.532
 2008W        W 6208   5.646  10.981   2.943
 2009W        W 6209  11.013  11.427   2.806
 2010W        W 6210  10.885  10.290   1.330
 2011W        W 6211   5.013  10.961  11.294
 2012W        W 6212   8.175   8.954   1.307
 2013W        W 6213   8.710   8.143   9.133
 2014W        W 6214   6.053   8.231   1.218
 2015W        W 6215   8.853   3.768   0.919
 2016W        W 6216   2.291   3.804  11.003
 2017W        W 6217   9.794   2.562   1.813
 2018W        W 6218   1.149   4.765   3.034
 2019W        W 6219   4.257   4.590   0.908
 2020W        W 6220   7.115  10.950   0.198
 2021W        W 6221   9.008  11.340   9.988
 2022W        W 6222  11.351   2.387   9.994
 2023W        W 6223   7.267   4.114   1.537
 2024W        W 6224   1.215   6.947   9.997
 2025W        W 6225   3.242   8.997   2.855
 2026W        W 6226   2.436   0.178   0.977
 2027W        W 6227   3.740   5.757   1.945
 2028W        W 6228   9.982   3.654   9.069
 2029W        W 6229   6.081   0.887   1.947
 2030W        W 6230  10.009   3.689  10.043
 2031W        W 6231   8.442  10.043   0.785
 2032W        W 6232   4.819   2.081   0.159
 2033W        W 6233   6.687   8.645   9.434
 2034W        W 6234   1.706   8.856   0.290
 2035W        W 6235   4.393   5.887   2.508
 2036W        W 6236  10.860   1.133   9.134
 2037W        W 6237  11.041   7.381   0.306
 2038W        W 6238  11.097   5.523   9.545
 2039W        W 6239   9.090   7.937  11.232
 2040W        W 6240   5.804   4.869   9.583
 2041W        W 6241   5.742   3.836   9.396
 2042W        W 6242   0.240   5.555   0.556
 2043W        W 6243   9.608   8.860   9.886
 2044W        W 6244   1.780   6.263   0.517
 2045W        W 6245   3.869   7.523  10.123
 2046W        W 6246   7.182   1.708   9.948
 2047W        W 6247   0.137   5.116   0.059
 2048W        W 6248   3.481   0.777   9.541
 2049W        W 6249   3.630   3.290   1.347
 2050W        W 6250  10.448  10.610   8.734
 2051W        W 6251   6.911   4.919  10.730
 2052W        W 6252   9.113   8.584   1.345
 2053W        W 6253   9.595   3.263   8.967
 2054W        W 6254   1.457   5.236  10.923
 2055W        W 6255   4.668   3.652   2.937
 2056W        W 6256   0.587   5.993  11.752
 2057W        W 6257   2.340   4.307  11.044
 2058W        W 6258   1.836   4.639   2.304
 2059W        W 6259   6.507   8.854   8.938
 2060W        W 6260   8.183   3.316  10.933
 2061W        W 6261   9.213   5.551  11.744
 2062W        W 6262   8.291   4.412   1.477
 2063W        W 6263   3.262   4.678  11.342
 2064W        W 6264   9.538   5.029  10.492
 2065W        W 6265   8.510   0.575   0.778
 2066W        W 6266   8.316   8.016   0.473
 2067W        W 6267   5.438   3.291   2.110
 2068W        W 6268   8.176  10.467   0.939
 2069W        W 6269   6.854   0.753  10.739
 2070W        W 6270   8.283   3.772   3.481
 2071W        W 6271   7.569  10.250   2.165
 2072W        W 6272   9.126   5.211   0.964
 2073W        W 6273   8.788  10.047   3.498
 2074W        W 6274   0.091   8.030   8.653
 2075W        W 6275   3.718   7.654   8.849
 2076W        W 6276   9.868   5.138   8.740
 2077W        W 6277   3.548  11.403   3.543
 2078W        W 6278   8.012   3.101  11.362
 2079W        W 6279  10.093   0.416   1.835
 2080W        W 6280   1.045   4.120   1.028
 2081W        W 6281   7.761  11.161  10.517
 2082W        W 6282   9.983   3.729  10.574
 2083W        W 6283   6.625   3.168   8.670
 2084W        W 6284   7.610   8.108   2.733
 2085W        W 6285   4.475   1.373  10.330
 2086W        W 6286   8.360   2.386   0.883
 2087W        W 6287   3.253  10.406   2.993
 2088W        W 6288   4.047   8.639  11.500
 2089W        W 6289  11.202   6.968   1.311
 2090W        W 6290  10.868   2.105   2.724
 2091W        W 6291   5.852   6.589   3.044
 2092W        W 6292   6.179   9.472   4.041
 2093W        W 6293   6.301  10.542   2.984
 2094W        W 6294   2.363   9.572   2.856
 2095W        W 6295   8.977   4.054   8.535
 2096W        W 6296   3.258   8.957  11.943
 2097W        W 6297   4.754   4.787  10.320
 2098W        W 6298   0.300   6.241   3.323
 2099W        W 6299   1.589   2.994   3.538
 2100W        W 6300   9.590   8.023  11.780
 2101W        W 6301   2.256   9.512   2.153
 2102W        W 6302   8.615   8.032  10.984
 2103W        W 6303   2.730   8.184   9.969
 2104W        W 6304   2.916   9.479   1.170
 2105W        W 6305   6.112   1.666   1.537
 2106W        W 6306   6.539   1.897   3.431
 2107W        W 6307  10.347   2.708   2.647
 2108W        W 6308   3.143   3.417   1.246
 2109W        W 6309   7.995   2.582  11.299
 2110W        W 6310   5.983   6.215  11.085
 2111W        W 6311   2.764   3.312   2.989
 2112W        W 6312   0.469  10.487   9.666
 2113W        W 6313  11.375   9.514   1.184
 2114W        W 6314   6.325   7.115  11.525
 2115W        W 6315   0.323   2.627   0.224
 2116W        W 6316   9.408   6.061   1.000
 2117W        W 6317   2.608   8.508   0.019
 2118W        W 6318   4.678   8.105   1.002
 2119W        W 6319   6.831   3.485   0.013
 2120W        W 6320   1.973   5.574   8.748
 2121W        W 6321  10.968   0.363  11.397
 2122W        W 6322   9.082   7.591  10.650
 2123W        W 6323   5.320   0.842   0.405
 2124W        W 6324   7.337  10.497   0.272
 2125W        W 6325  10.699   1.828  11.823
 2126W        W 6326   5.668   6.725   0.071
 2127W        W 6327   9.836   4.170   8.930
 2128W        W 6328   7.709   6.428   9.729
 2129W        W 6329   9.391   2.954   0.384
 2130W        W 6330   7.950   7.241  10.062
 2131W        W 6331   1.784   8.089   2.531
 2132W        W 6332   5.586   3.532  10.910
 2133W        W 6333   9.794   1.718   1.040
 2134W        W 6334   1.358   6.241   0.221
 2135W        W 6335   5.297   8.657   9.489
 2136W        W 6336   3.406   0.525   8.777
 2137W        W 6337   3.393   9.493   1.367
 2138W        W 6338   8.017   2.630   2.846
 2139W        W 6339   2.329   1.583   1.943
 2140W        W 6340   9.866   9.389  11.512
 2141W        W 6341   4.995   3.764   8.333
 2142W        W 6342   0.264   1.333   0.413
 2143W        W 6343   2.559   4.254   9.264
 2144W        W 6344   3.679   5.258   9.863
 2145W        W 6345   5.926   5.805  10.776
 2146W        W 6346   5.607   6.230   2.256
 2147W        W 6347   2.189   0.776   2.333
 2148W        W 6348   8.919   6.733   2.200
 2149W        W 6349   3.697   5.578  11.388
 2150W        W 6350   5.770   1.651  10.666
 2151W        W 6351   0.791   7.914   0.233
 2152W        W 6352  11.320   1.901   2.377
 2153W        W 6353   7.011   5.061   1.033
 2154W        W 6354  11.182   2.412  11.533
 2155W        W 6355   7.049   8.010   2.812
 2156W        W 6356   9.480   6.429   1.366
 2157W        W 6357   1.196   3.659   9.937
 2158W        W 6358   7.701   5.618   2.059
 2159W        W 6359   3.400   9.043   1.054
 2160W        W 6360   2.933   3.886   1.137
 2161W        W 6361   9.511   9.966   0.853
 2162W        W 6362   5.250   8.737   3.118
 2163W        W 6363   8.793   8.207   0.558
 2164W        W 6364   6.949   9.394   2.012
 2165W        W 6365   5.651   1.518   0.746
 2166W        W 6366   7.456   8.053   9.554
 2167W        W 6367   1.968  10.711   3.744
 2168W        W 6368   8.360   1.185   2.939
 2169W        W 6369   9.215   5.522   9.326
 2170W        W 6370  10.485   9.327   0.704
 2171W        W 6371   8.583   5.935   3.584
 2172W        W 6372   2.264   6.328  10.867
 2173W        W 6373   7.989   4.756   3.042
 2174W        W 6374   5.327   2.407   0.337
 2175W        W 6375   9.558   6.505   3.073
 2176W        W 6376  11.290   3.972   0.218
 2177W        W 6377  10.811   3.653   1.483
 2178W        W 6378   6.540   7.373  10.540
 2179W        W 6379   9.571  10.765  11.064
 2180W        W 6380   5.663   0.513   8.999
 2181W        W 6381   1.869   5.868  10.378
 2182W        W 6382   6.942   9.715   9.997
 2183W        W 6383   3.694   1.937   1.156
 2184W        W 6384   6.409   4.255  11.363
 2185W        W 6385   2.468  10.721   2.352
 2186W        W 6386   1.895   8.964   9.041
 2187W        W 6387   5.358   4.165   1.436
 2188W        W 6388   6.136   5.463   3.158
 2189W        W 6389  10.803  10.044  10.473
 2190W        W 6390   4.522   0.864   9.482
 2191W        W 6391   5.781   2.377   3.085
 2192W        W 6392   1.673   6.691  10.078
 2193W        W 6393   4.616   5.714   9.971
 2194W        W 6394   3.113   7.987   2.744
 2195W        W 6395   1.426  10.228   1.709
 2196W        W 6396   0.829   3.153   1.918
 2197W        W 6397   7.824   8.592   2.823
 2198W        W 6398   8.991   3.132  11.609
 2199W        W 6399  10.483   4.198   0.398
 2200W        W 6400   9.083   7.955  11.756
 2201W        W 6401  10.027   1.560   2.908
 2202W        W 6402   0.687   8.826   9.556
 2203W        W 6403   9.311   9.923   1.309
 2204W        W 6404   6.262   2.359   9.180
 2205W        W 6405   8.851   5.554   0.625
 2206W        W 6406  10.632   1.520   8.857
 2207W        W 6407   3.576  10.257   3.415
 2208W        W 6408   3.731   8.579   1.733
 2209W        W 6409   8.723   0.986  10.312
 2210W        W 6410   5.234   7.649   2.130
 2211W        W 6411   7.192  10.055  10.497
 2212W        W 6412  10.324   6.191   9.478
 2213W        W 6413   2.834   1.494   9.934
 2214W        W 6414  10.350   6.035   1.692
 2215W        W 6415  10.076   2.470   3.315
 2216W        W 6416   5.591   2.178  10.382
 2217W        W 6417   0.831   2.690  10.175
 2218W        W 6418   5.679   8.960   1.481
 2219W        W 6419   9.099   6.271   0.372
 2220W        W 6420  11.019   8.344  11.925
 2221W        W 6421  10.868   1.626  10.037
 2222W        W 6422  10.980   8.063   8.831
 2223W        W 6423   3.647   1.645  11.714
 2224W        W 6424  10.004  10.347  11.075
 2225W        W 6425  10.861   4.755   1.134
 2226W        W 6426   9.973   0.878   2.046
 2227W        W 6427   7.443   4.805   3.275
 2228W        W 6428   1.605   7.580   1.206
 2229W        W 6429   7.155   2.846   9.341
 2230W        W 6430  10.528  11.299   1.365
 2231W        W 6431   1.261   9.086   0.194
 2232W        W 6432   1.291   2.923  10.788
 2233W        W 6433   5.680   9.696  11.946
 2234W        W 6434   2.401  10.058   1.815
 2235W        W 6435   5.649  11.031  11.858
 2236W        W 6436   8.881   1.957  10.851
 2237W        W 6437   3.822   6.250   9.973
 2238W        W 6438   7.439   1.529   3.312
 2239W        W 6439   7.268   1.428   1.762
 2240W        W 6440  10.037   3.239   8.713
 2241W        W 6441   3.228   8.142  11.110
 2242W        W 6442   6.573   0.768   1.823
 2243W        W 6443   7.618   1.383   0.327
 2244W        W 6444   6.399   3.199   0.481
 2245W        W 6445   6.142   5.544   1.242
 2246W        W 6446   3.333   0.714  10.973
 2247W        W 6447   4.189   2.420   1.884
 2248W        W 6448   9.859   3.087   0.931
 2249W        W 6449   4.089  10.119   3.345
 2250W        W 6450   3.455   6.067  11.445
 2251W        W 6451   4.917   4.058   4.055
 2252W        W 6452   0.603   6.488   0.467
 2253W        W 6453   9.880   7.529   8.656
 2254W        W 6454   4.763   8.943   2.531
 2255W        W 6455   8.157   9.161  10.785
 2256W        W 6456   3.701   2.384   9.478
 2257W        W 6457   3.947   3.878   9.303
 2258W        W 6458   5.264   2.132   2.286
 2259W        W 6459   9.994   4.782   9.623
 2260W        W 6460   9.373   0.014   9.011
 2261W        W 6461   4.811  10.723   8.998
 2262W        W 6462   3.713   1.242  10.261
 2263W        W 6463   5.935   3.676   9.841
 2264W        W 6464   9.712   4.191   3.568
 2265W        W 6465   0.398   8.153  10.915
 2266W        W 6466   0.172   4.176  10.760
 2267W        W 6467   0.112   8.820   1.424
 2268W        W 6468   3.807   8.088   1.256
 2269W        W 6469   8.187  11.253   0.330
 2270W        W 6470   5.721  11.332   9.479
 2271W        W 6471   2.691   9.928   3.054
 2272W        W 6472  10.288   5.499  11.476
 2273W        W 6473   5.930   0.684   3.594
 2274W        W 6474   1.515   0.550  10.431
 2275W        W 6475   8.255  10.359   8.707
 2276W        W 6476   1.870   6.025   3.340
 2277W        W 6477   5.616   7.944   0.452
 2278W        W 6478   0.645   6.979  11.259
 2279W        W 6479   5.846   5.319   2.676
 2280W        W 6480   6.670   4.142  10.923
 2281W        W 6481   2.168   2.793  10.906
 2282W        W 6482   9.285  10.867   0.801
 2283W        W 6483   8.969   7.057   1.805
 2284W        W 6484   6.475   0.631  11.276
 2285W        W 6485   5.199   0.922  10.911
 2286W        W 6486   3.210   0.881   2.099
 2287W        W 6487   8.081   5.963  11.047
 2288W        W 6488   3.626   2.613   9.938
 2289W        W 6489   5.486   0.422   2.261
 2290W        W 6490   6.076   1.909  11.501
 2291W        W 6491   1.004   1.730   1.046
 2292W        W 6492  10.715   6.280  11.274
 2293W        W 6493   0.781   7.509   9.490
 2294W        W 6494   0.195   8.540   2.962
 2295W        W 6495   3.876   9.404   1.200
 2296W        W 6496   2.260   2.323  10.028
 2297W        W 6497   4.892   4.312   1.685
 2298W        W 6498   6.019   4.573   0.351
 2299W        W 6499  10.221   6.996   0.264
 2300W        W 6500   3.142   4.225   9.631
 2301W        W 6501   0.818   7.656   0.733
 2302W        W 6502   1.099   7.511   0.208
 2303W        W 6503   0.201   4.791   2.569
 2304W        W 6504   6.975   6.592  10.423
 2305W        W 6505   8.402   1.900   1.022
 2306W        W 6506   2.199   0.227   2.968
 2307W        W 6507   9.791   5.767   0.259
 2308W        W 6508   9.997  11.441   0.647
 2309W        W 6509   5.093   0.216  11.731
 2310W        W 6510   1.467   3.009  10.292
 2311W        W 6511   7.665  11.193   3.413
 2312W        W 6512   3.153   9.970   1.344
 2313W        W 6513  10.439  11.029   2.893
 2314W        W 6514   4.011   5.036   1.025
 2315W        W 6515   9.419  11.030   2.319
 2316W        W 6516   2.815   6.768  11.356
 2317W        W 6517   4.410   0.717   1.377
 2318W        W 6518  10.024   5.677  10.835
 2319W        W 6519   0.747   6.570   2.258
 2320W        W 6520   5.626   8.517   2.316
 2321W        W 6521   4.109   9.393  11.841
 2322W        W 6522   2.839   1.860  10.814
 2323W        W 6523   1.917   2.593   1.331
 2324W        W 6524   2.847   2.619   1.287
 2325W        W 6525   2.816   2.836  10.313
 2326W        W 6526  11.363   5.658   9.111
 2327W        W 6527  10.339  10.984   0.945
 2328W        W 6528   1.818   4.649   9.376
 2329W        W 6529  10.841   1.382   0.512
 2330W        W 6530   4.458   7.150   3.084
 2331W        W 6531   4.171   0.269   9.256
 2332W        W 6532   9.056   4.914   3.244
 2333W        W 6533  10.490   8.939   2.407
 2334W        W 6534   8.475   0.709   2.732
 2335W        W 6535   8.182   5.641   2.199
 2336W        W 6536  10.660   0.814   2.950
 2337W        W 6537  10.380   6.126   1.154
 2338W        W 6538   0.986   7.945  10.420
 2339W        W 6539   8.600   6.489  11.168
 2340W        W 6540   0.558   1.015  10.876
 2341W        W 6541   6.007   2.368   9.607
 2342W        W 6542   6.462   8.608  11.501
 2343W        W 6543   3.185  10.693   2.413
 2344W        W 6544  10.834   6.560  10.219
 2345W        W 6545   6.087   7.848   2.737
 2346W        W 6546   0.867   4.071  10.086
 2347W        W 6547   9.409   5.264   8.549
 2348W        W 6548   7.726  11.285   1.231
 2349W        W 6549   6.359  10.755   0.321
 2350W        W 6550   7.858   5.047   3.474
 2351W        W 6551   2.940   7.287  11.292
 2352W        W 6552   9.129   1.812   9.854
 2353W        W 6553   3.637  10.417  10.850
 2354W        W 6554   0.493  10.253   2.823
 2355W        W 6555   0.096   3.717  10.374
 2356W        W 6556   4.667  10.896  10.334
 2357W        W 6557   1.816   1.813  10.605
 2358W        W 6558   1.965   1.846   0.905
 2359W        W 6559   9.239   7.023   0.097
 2360W        W 6560   3.231   9.105  10.046
 2361W        W 6561   5.185   8.855   1.652
 2362W        W 6562   3.158  10.329   9.533
 2363W        W 6563   1.187   6.321   1.240
 2364W        W 6564  11.238   3.430   3.464
 2365W        W 6565   3.384   3.893   0.373
 2366W        W 6566   0.064   2.486   9.036
 2367W        W 6567   0.220   9.768  10.395
 2368W        W 6568   2.124   1.327   8.974
 2369W        W 6569   7.772  10.490   8.795
 2370W        W 6570   7.846   4.029   0.641
 2371W        W 6571  11.177   6.160  10.068
 2372W        W 6572   5.240   1.261   2.179
 2373W        W 6573   9.737   7.585   0.058
 2374W        W 6574   2.679   5.493   0.266
 2375W        W 6575   7.342   3.266   2.864
 2376W        W 6576   5.250   8.997   2.266
 2377W        W 6577   2.863   5.419   4.036
 2378W        W 6578   7.151   8.614   3.938
 2379W        W 6579   3.874   4.206   1.692
 2380W        W 6580  10.317   8.549   2.134
 2381W        W 6581   0.363   9.277   0.311
 2382W        W 6582  11.405   2.231   1.399
 2383W        W 6583   7.598   4.325   0.278
 2384W        W 6584   2.278   1.333   1.496
 2385W        W 6585   3.678   6.741   1.133
 2386W        W 6586   1.167  10.999   8.557
 2387W        W 6587   9.516   2.980   9.418
 2388W        W 6588   1.414  10.416   0.019
 2389W        W 6589   4.288   3.632   2.398
 2390W        W 6590   0.478   5.037  10.568
 2391W        W 6591   3.228   7.352  10.416
 2392W        W 6592   4.104   5.590   9.760
 2393W        W 6593  10.397   5.895   9.877
 2394W        W 6594   2.602   5.079   1.265
 2395W        W 6595   0.856   6.618   8.988
 2396W        W 6596   4.437   3.658  11.437
 2397W        W 6597   2.361   6.644   2.756
 2398W        W 6598   1.622   7.463   0.276
 2399W        W 6599   2.353   9.386   0.241
 2400W        W 6600   0.841   3.501   2.323
 2401W        W 6601   8.167   6.069   2.493
 2402W        W 6602   7.652  10.099   2.660
 2403W        W 6603   6.399   5.123   2.230
 2404W        W 6604   7.144   4.869   1.956
 2405W        W 6605   1.587   7.015   2.727
 2406W        W 6606   4.184   1.812   2.686
 2407W        W 6607   3.661  10.783  11.241
 2408W        W 6608   1.576   2.278   2.237
 2409W        W 6609   6.461   0.669  10.194
 2410W        W 6610   4.649   9.915   1.368
 2411W        W 6611   5.474   9.197   8.596
 2412W        W 6612   0.852   6.618   9.509
 2413W        W 6613   9.577  10.190   3.351
 2414W        W 6614   1.351   4.381  11.739
 2415W        W 6615   1.057   5.901  11.970
 2416W        W 6616   0.537   1.443   2.477
 2417W        W 6617   8.524   9.620   9.223
 2418W        W 6618   7.181   4.537   2.355
 2419W        W 6619   0.974   1.167   9.997
 2420W        W 6620   5.132   2.920   1.204
 2421W        W 6621   0.411   7.883   1.110
 2422W        W 6622   9.459   9.684  10.362
 2423W        W 6623   9.119  11.348   2.725
 2424W        W 6624  10.649   8.083   1.980
 2425W        W 6625   9.432   7.642   2.267
 2426W        W 6626   9.562   8.345   8.994
 2427W        W 6627  10.802  10.150   2.666
 2428W        W 6628   3.353   0.485   0.996
 2429W        W 6629   7.219   8.035  11.458
 2430W        W 6630   7.551   2.752   3.573
 2431W        W 6631   8.382  10.676  10.356
 2432W        W 6632   9.527   2.430   1.371
 2433W        W 6633   5.466  10.674   3.333
 2434W        W 6634  11.399   2.879   9.837
 2435W        W 6635   5.197   2.904   1.813
 2436W        W 6636   7.093   9.025   3.215
 2437W        W 6637  11.396   3.313  11.091
 2438W        W 6638   4.608   2.749   2.487
 2439W        W 6639   6.423   0.876   9.399
 2440W        W 6640   0.766  10.244   1.390
 2441W        W 6641   8.619   4.939   8.682
 2442W        W 6642   2.320   1.229   3.281
 2443W        W 6643  10.273   3.384   0.978
 2444W        W 6644   2.614   8.879   0.397
 2445W        W 6645   5.524   8.957  10.359
 2446W        W 6646   6.624   4.309   1.327
 2447W        W 6647  10.904   6.229   3.021
 2448W        W 6648   8.428   3.776  11.954
 2449W        W 6649   8.883   0.368   0.216
 2450W        W 6650   4.606   3.019   1.190
 2451W        W 6651   9.294   2.220   0.949
 2452W        W 6652   1.965   9.533   1.755
 2453W        W 6653   1.019   9.066   9.228
 2454W        W 6654   4.798   8.065  10.162
 2455W        W 6655   2.365   5.025  11.399
 2456W        W 6656   1.000   2.755   1.628
 2457W        W 6657   4.298   6.074   9.773
 2458W        W 6658   0.555   2.672   1.913
 2459W        W 6659   9.497   3.984   2.632
 2460W        W 6660   3.869   3.790  11.422
 2461W        W 6661   2.236   7.963   2.326
 2462W        W 6662   0.270   4.910  11.198
 2463W        W 6663   8.397   6.978  11.508
 2464W        W 6664   3.420   3.900   9.335
 2465W        W 6665   0.972   3.716  11.733
 2466W        W 6666   8.131   8.182  11.044
 2467W        W 6667   6.547   9.922  11.328
 2468W        W 6668   1.106   1.855   2.784
 2469W        W 6669  10.141  10.950   9.924
 2470W        W 6670   2.741   4.116   8.806
 2471W        W 6671   0.622   8.087   8.660
 2472W        W 6672   4.959   3.350   1.424
 2473W        W 6673   9.814   3.692   8.574
 2474W        W 6674   5.994   8.488  11.340
 2475W        W 6675   5.186   9.318  10.491
 2476W        W 6676  11.098   5.928  10.517
 2477W        W 6677  10.885  10.238  11.366
 2478W        W 6678   4.361   4.314   1.733
 2479W        W 6679   1.337   1.421   1.288
 2480W        W 6680   6.490   3.434   2.714
 2481W        W 6681   7.466  10.081   1.675
 2482W        W 6682  10.004   7.436   9.163
 2483W        W 6683   4.153   3.433   1.919
 2484W        W 6684   6.902   2.047   0.167
 2485W        W 6685   6.259   2.686   0.259
 2486W        W 6686  11.377   6.104  10.908
 2487W        W 6687   2.602   3.880  11.448
 2488W        W 6688   1.713   1.275   9.288
 2489W        W 6689   8.916   2.832   1.298
 2490W        W 6690   6.572   1.817   1.363
 2491W        W 6691   2.902   6.616   2.691
 2492W        W 6692   8.440   4.523  11.589
 2493W        W 6693   0.296   4.641   0.303
 2494W        W 6694   1.857  11.194   9.091
 2495W        W 6695   0.488   4.327  11.957
 2496W        W 6696  10.696   2.249  11.511
 2497W        W 6697   8.357   7.265  11.962
 2498W        W 6698   2.718   1.743   9.490
 2499W        W 6699   6.231   3.028  10.328
 2500W        W 6700   9.976   8.102   3.237
 2501W        W 6701   2.864   2.286  11.095
 2502W        W 6702   9.197  11.451   9.514
 2503W        W 6703   2.689   3.803   3.241
 2504W        W 6704   6.626   8.640   2.116
 2505W        W 6705   1.891   1.626   1.375
 2506W        W 6706   7.130  11.150  10.904
 2507W        W 6707   4.197   3.041  11.974
 2508W        W 6708   1.632  10.725   1.426
 2509W        W 6709   4.783   8.849  10.996
 2510W        W 6710   3.205   5.121  11.581
 2511W        W 6711   5.677  10.510   0.714
 2512W        W 6712   6.479   3.849  11.896
 2513W        W 6713   3.513   4.984   3.612
 2514W        W 6714   2.217  10.733   2.805
 2515W        W 6715   4.762   2.412  11.761
 2516W        W 6716   3.088   8.385   0.366
 2517W        W 6717   0.756   6.606   1.297
 2518W        W 6718  10.039  11.321   1.194
 2519W        W 6719   7.580   2.851  10.521
 2520W        W 6720   7.957  10.273   1.833
 2521W        W 6721   5.445   1.414   1.207
 2522W        W 6722   0.983   6.878   2.590
 2523W        W 6723   3.144   2.746  10.935
 2524W        W 6724   3.078   4.233  10.596
 2525W        W 6725   5.593   1.863   3.635
 2526W        W 6726  10.036   6.650   2.705
 2527W        W 6727   6.646   9.935   1.300
 2528W        W 6728   8.233   7.644  10.226
 2529W        W 6729   4.318  10.154  11.327
 2530W        W 6730   3.562   0.923   1.157
 2531W        W 6731  10.778   1.419   1.937
 2532W        W 6732   3.298   5.744   9.557
 2533W        W 6733   0.976   3.672   0.264
 2534W        W 6734   2.953   1.782   1.025
 2535W        W 6735  10.039   2.826  10.602
 2536W        W 6736   7.094   9.021   2.713
 2537W        W 6737   8.497   6.252  11.922
 2538W        W 6738   2.437   0.241   0.459
 2539W        W 6739  11.253   3.614   1.785
 2540W        W 6740  10.286   9.419   9.827
 2541W        W 6741   7.482   6.693  11.811
 2542W        W 6742   5.486   7.213   8.524
 2543W        W 6743   3.623   4.451  10.701
 2544W        W 6744   0.917   3.277   1.435
 2545W        W 6745   6.277   3.277   3.733
 2546W        W 6746   1.418   1.396  10.123
 2547W        W 6747  10.205   7.102  11.271
 2548W        W 6748   6.693   9.154   9.357
 2549W        W 6749   3.114  10.478  10.837
 2550W        W 6750   2.658   1.800   3.261
 2551W        W 6751   3.699   2.625  10.760
 2552W        W 6752   9.478   4.596   9.998
 2553W        W 6753   8.145   0.866   1.482
 2554W        W 6754   2.409   6.587  10.390
 2555W        W 6755   5.837   6.096   9.165
 2556W        W 6756   0.886   6.017   1.525
 2557W        W 6757   6.980   5.245  11.560
 2558W        W 6758  10.006   2.248   9.903
 2559W        W 6759   3.345   6.988   2.384
 2560W        W 6760   4.606   0.231   1.388
 2561W        W 6761  11.002   0.533   1.998
 2562W        W 6762  10.452   9.953   1.921
 2563W        W 6763   6.466   5.220  11.454
 2564W        W 6764   5.930  11.462  11.755
 2565W        W 6765   9.512   0.152  10.760
 2566W        W 6766   1.283   8.415   1.937
 2567W        W 6767   6.407   4.901   9.712
 2568W        W 6768   5.062   9.051   0.242
 2569W        W 6769  11.221   4.001   1.422
 2570W        W 6770  10.044   6.288   3.091
 2571W        W 6771   1.101   7.126  11.396
 2572W        W 6772   8.685  10.048   0.242
 2573W        W 6773   7.602   2.983   1.193
 2574W        W 6774   2.600   4.626   9.623
 2575W        W 6775   8.298  11.017   9.642
 2576W        W 6776   0.449   6.652   8.653
 2577W        W 6777   7.504   1.202  10.920
 2578W        W 6778   5.329  10.616  11.619
 2579W        W 6779  10.941   0.968   1.731
 2580W        W 6780  10.571   3.509  11.228
 2581W        W 6781   6.894   3.703   0.804
 2582W        W 6782   8.119   2.956   8.750
 2583W        W 6783   1.906   8.821   1.301
 2584W        W 6784   1.708   0.678   1.240
 2585W        W 6785   2.634   9.396   2.464
 2586W        W 6786  10.779   2.791   8.956
 2587W        W 6787   1.227   5.738  11.491
 2588W        W 6788   4.990   5.302   0.996
 2589W        W 6789  10.771   6.244   9.786
 2590W        W 6790  10.757   5.126  10.847
 2591W        W 6791   0.608   9.477  11.481
 2592W        W 6792   7.657   6.139   2.398
 2593W        W 6793   1.405   7.138   1.449
 2594W        W 6794   5.637   2.199  11.427
 2595W        W 6795   5.798  11.139   9.939
 2596W        W 6796   0.348   1.013   2.306
 2597W        W 6797   6.056   5.707  11.250
 2598W        W 6798   0.793   1.432   3.331
 2599W        W 6799   6.714   1.727   2.980
 2600W        W 6800   8.673   6.106   2.736
 2601W        W 6801   4.069   5.140   9.538
 2602W        W 6802  11.499   2.397  11.043
 2603W        W 6803  11.453   4.585  10.968
 2604W        W 6804   1.392   3.251   1.216
 2605W        W 6805   9.429  10.629   9.543
 2606W        W 6806   1.928   4.434   0.911
 2607W        W 6807   8.542   0.213   3.501
 2608W        W 6808   4.924   7.653   9.349
 2609W        W 6809   5.289   2.798   9.832
 2610W        W 6810   8.576   2.338  11.749
 2611W        W 6811   5.811   8.797   8.620
 2612W        W 6812   6.944   2.650   2.126
 2613W        W 6813   4.714   9.386   2.759
 2614W        W 6814   8.951   6.311   3.724
 2615W        W 6815   2.706   9.091  11.866
 2616W        W 6816  10.536   7.474   0.386
 2617W        W 6817   3.060   6.504   9.940
 2618W        W 6818  10.757   4.723   3.108
 2619W        W 6819   0.373  10.146  11.776
 2620W        W 6820   7.523   4.192   8.757
 2621W        W 6821   1.362   3.645   1.537
 2622W        W 6822  10.951   4.396   0.193
 2623W        W 6823   1.158  10.554   1.414
 2624W        W 6824   6.530   6.154   9.689
 2625W        W 6825   3.608   1.196   8.724
 2626W        W 6826   3.342   1.021  11.840
 2627W        W 6827  10.416   6.690   0.995
 2628W        W 6828   2.098   3.222   0.401
 2629W        W 6829   9.005   4.779   2.749
 2630W        W 6830   2.464   9.415   9.671
 2631W        W 6831   1.702   8.359   0.082
 2632W        W 6832   1.207   7.363   9.709
 2633W        W 6833   0.315   5.757   3.171
 2634W        W 6834  10.922   4.828   2.119
 2635W        W 6835   3.508  10.705   0.698
 2636W        W 6836   6.634   6.235   8.784
 2637W        W 6837   1.519   2.233  11.958
 2638W        W 6838   3.855   2.330   1.462
 2639W        W 6839   8.418   5.560  11.309
 2640W        W 6840   7.905   3.607  11.830
 2641W        W 6841   7.987  11.492  10.193
 2642W        W 6842   0.157   0.831   3.427
 2643W        W 6843   6.729   3.089   0.919
 2644W        W 6844   9.882  10.392   3.006
 2645W        W 6845  11.036   0.265   9.494
 2646W        W 6846   2.075   6.930   3.654
 2647W        W 6847   6.438   9.074   0.896
 2648W        W 6848   5.605   5.593  11.479
 2649W        W 6849   8.149   1.767   1.474
 2650W        W 6850   4.701   4.588   9.435
 2651W        W 6851   7.606   9.389  11.776
 2652W        W 6852   8.807   6.800   3.570
 2653W        W 6853   5.706   0.455   0.898
 2654W        W 6854  10.486   5.055   2.781
 2655W        W 6855   0.513   2.110   0.176
 2656W        W 6856   1.455   6.160  10.521
 2657W        W 6857   0.400   0.807   1.852
 2658W        W 6858   5.464   2.889   0.452
 2659W        W 6859   6.185   1.337   0.233
 2660W        W 6860   7.095   3.543  10.438
 2661W        W 6861   6.090   6.106   3.099
 2662W        W 6862   5.011   2.786   0.237
 2663W        W 6863  10.880   0.459  11.914
 2664W        W 6864  10.380   5.185   0.149
 2665W        W 6865   6.361   6.040   0.360
 2666W        W 6866  11.107   3.943  10.389
 2667W        W 6867   5.611   8.055   2.610
 2668W        W 6868   5.946   8.065   2.235
 2669W        W 6869   4.043   5.993   0.005
 2670W        W 6870   1.828   6.902  11.966
 2671W        W 6871  11.153   6.363   0.367
 2672W        W 6872   6.780   2.170   2.021
 2673W        W 6873   1.070   0.801  11.850
 2674W        W 6874   8.221   7.165  10.500
 2675W        W 6875   1.737   2.242  10.878
 2676W        W 6876   6.218   9.950   2.270
 2677W        W 6877   9.105   0.900   9.976
 2678W        W 6878   6.896   9.118  10.323
 2679W        W 6879   6.812   0.730   2.276
 2680W        W 6880   9.973   4.212  11.393
 2681W        W 6881   9.936   6.699   1.730
 2682W        W 6882   8.525  10.888  11.251
 2683W        W 6883   7.241   4.672   4.128
 2684W        W 6884  10.910   2.143  10.121
 2685W        W 6885   9.279   4.128  10.162
 2686W        W 6886   3.810   6.632   1.642
 2687W        W 6887   5.626   1.792  11.735
 2688W        W 6888   4.347   6.973   9.746
 2689W        W 6889   2.958  11.418   1.733
 2690W        W 6890   8.495   8.892  10.425
 2691W        W 6891   3.890  11.077  11.668
 2692W        W 6892   6.539   7.877  11.851
 2693W        W 6893   4.195   2.208  11.470
 2694W        W 6894   8.075   3.814  10.912
 2695W        W 6895   5.704   2.910   1.876
 2696W        W 6896   6.430   7.800   1.076
 2697W        W 6897   8.707   5.134  11.136
 2698W        W 6898   0.745   5.558   2.502
 2699W        W 6899   3.651   0.522  11.353
 2700W        W 6900   4.931  11.028  10.770
 2701W        W 6901   2.882   8.937   0.899
 2702W        W 6902   8.041   2.696  10.297
 2703W        W 6903   7.110   0.778   0.952
 2704W        W 6904   4.756   7.177   2.657
 2705W        W 6905   6.719   3.683   2.217
 2706W        W 6906  10.079   1.498  10.782
 2707W        W 6907   4.572   9.955   3.494
 2708W        W 6908   8.887   5.628   2.639
 2709W        W 6909   8.229   4.249   3.240
 2710W        W 6910   1.756   6.535  11.028
 2711W        W 6911   0.819   1.844   2.377
 2712W        W 6912   1.300   7.543  10.524
 2713W        W 6913   8.818   7.090  11.796
 2714W        W 6914   0.008   3.752   2.241
 2715W        W 6915   4.719   6.649   1.428
 2716W        W 6916   7.490   4.089   2.878
 2717W        W 6917   7.791  10.682  11.096
 2718W        W 6918   7.912   7.699   1.281
 2719W        W 6919   0.788   6.436  10.532
 2720W        W 6920   7.539   4.672   9.952
 2721W        W 6921   6.559   0.885   3.249
 2722W        W 6922   6.098   5.592   0.276
 2723W        W 6923   9.081   6.689   3.139
 2724W        W 6924   5.434   8.913   1.017
 2725W        W 6925   5.517  10.919  11.247
 2726W        W 6926   6.541  10.953   1.427
 2727W        W 6927   9.046   9.947   9.612
 2728W        W 6928   2.866   6.070   3.306
 2729W        W 6929   3.205   5.553  10.064
 2730W        W 6930   8.430   5.941   9.627
 2731W        W 6931   2.165   5.601   3.483
 2732W        W 6932   5.055   3.783   1.172
 2733W        W 6933   5.585   9.318   9.380
 2734W        W 6934   7.563  10.010   0.401
 2735W        W 6935  10.638   4.525   8.843
 2736W        W 6936   2.687   8.915   1.812
 2737W        W 6937   2.805   7.678  11.672
 2738W        W 6938  11.238  11.476  10.296
 2739W        W 6939   7.561  10.569   1.713
 2740W        W 6940   0.437   9.149   2.223
 2741W        W 6941   4.785  10.201  11.021
 2742W        W 6942   1.883   0.063  11.520
 2743W        W 6943   9.020   6.702  10.965
 2744W        W 6944   3.805   2.721   0.116
 2745W        W 6945   7.877   9.781   1.734
 2746W        W 6946  10.240   5.024  11.660
 2747W        W 6947  10.996   2.963   3.175
 2748W        W 6948   7.104   8.714  10.048
 2749W        W 6949  10.345   7.684   2.076
 2750W        W 6950   6.956   1.272  10.037
 2751W        W 6951   9.109   0.376   2.263
 2752W        W 6952   4.745  11.398   3.308
 2753W        W 6953   8.890   3.540  10.341
 2754W        W 6954   0.008   8.018   1.380
 2755W        W 6955   7.443   7.259   3.123
 2756W        W 6956   5.238  10.802   0.646
 2757W        W 6957  10.682   7.130  11.419
 2758W        W 6958   1.692   9.874   0.525
 2759W        W 6959   2.204   1.864  10.281
 2760W        W 6960   8.460   7.652   1.853
 2761W        W 6961   8.418   4.186  10.752
 2762W        W 6962   2.138   9.854   1.395
 2763W        W 6963   5.059   7.786   0.402
 2764W        W 6964   3.158  11.412  10.626
 2765W        W 6965   5.288   6.929   9.962
 2766W        W 6966   8.649   5.856   1.377
 2767W        W 6967   1.839   8.614  11.333
 2768W        W 6968   1.882   9.387   1.245
 2769W        W 6969   7.539   9.185   9.453
 2770W        W 6970   2.362   6.996   3.199
 2771W        W 6971   1.910   9.000   3.331
 2772W        W 6972   0.851   9.057   2.544
 2773W        W 6973   2.625  11.369  10.875
 2774W        W 6974   6.212  10.433  11.357
 2775W        W 6975   1.235  11.468   1.299
 2776W        W 6976   8.001   7.611   8.850
 2777W        W 6977   6.542   6.699  11.717
 2778W        W 6978   4.198   3.866   8.830
 2779W        W 6979   2.689  10.166  11.976
 2780W        W 6980   6.818   6.555   2.504
 2781W        W 6981   1.106   7.111   1.873
 2782W        W 6982   0.732   8.338   9.372
 2783W        W 6983   7.512   2.548   0.701
 2784W        W 6984   3.537  10.013   9.691
 2785W        W 6985   9.773   1.492   3.342
 2786W        W 6986   9.046   6.162   1.370
 2787W        W 6987   7.649   4.270   2.424
 2788W        W 6988   5.629   5.669   0.486
 2789W        W 6989   2.653   5.076   8.891
 2790W        W 6990  10.121  11.270   2.546
 2791W        W 6991   4.766   0.669   9.900
 2792W        W 6992   1.309   4.403  10.223
 2793W        W 6993   1.321   1.807   9.809
 2794W        W 6994   3.944   8.124   3.050
 2795W        W 6995   3.966   6.457   2.674
 2796W        W 6996  11.283   8.572   9.515
 2797W        W 6997   2.186   7.704   1.873
 2798W        W 6998   5.671   4.299  10.253
 2799W        W 6999   5.214  10.746   8.701
 2800W        W 7000  11.276   2.843  11.247
 2801W        W 7001  10.924   8.488   9.143
 2802W        W 7002   2.490   5.534   8.707
 2803W        W 7003   0.178   9.137  10.842
 2804W        W 7004   8.925   5.711   8.925
 2805W        W 7005   2.730   9.434   3.192
 2806W        W 7006   5.790   8.885  11.004
 2807W        W 7007   0.387   8.931   0.808
 2808W        W 7008   8.558   9.784  10.306
 2809W        W 7009   4.550   3.976  11.814
 2810W        W 7010   6.832   2.269  11.110
 2811W        W 7011   0.333   4.026   9.895
 2812W        W 7012   4.204   0.430   0.035
 2813W        W 7013   4.916   2.801  11.424
 2814W        W 7014   1.776   0.943  10.647
 2815W        W 7015   6.010   5.119   9.996
 2816W        W 7016   9.561   9.876   2.431
 2817W        W 7017  11.435   0.376   1.651
 2818W        W 7018   8.903   1.752   2.193
 2819W        W 7019  11.046   0.036   1.727
 2820W        W 7020   2.862   8.519  11.085
 2821W        W 7021   6.553   3.638  10.862
 2822W        W 7022  10.325   9.172  11.330
 2823W        W 7023   3.878   1.405   3.432
 2824W        W 7024   5.193   4.119  11.909
 2825W        W 7025   1.846   1.949   3.046
 2826W        W 7026   3.274   8.603  11.365
 2827W        W 7027   6.675   6.649   3.659
 2828W        W 7028   2.797  11.491   2.243
 2829W        W 7029   1.105   5.420   0.760
 2830W        W 7030   9.977   1.219  10.324
 2831W        W 7031   2.866   5.890  10.356
 2832W        W 7032   4.870   9.534   0.215
 2833W        W 7033   6.237   5.823   9.401
 2834W        W 7034   5.542   1.934   9.546
 2835W        W 7035   0.454   0.947   1.349
 2836W        W 7036   9.084   5.029   4.272
 2837W        W 7037   6.758   2.595   4.002
 2838W        W 7038   3.249   0.523   2.789
 2839W        W 7039   0.236   2.169   2.810
 2840W        W 7040   6.452  11.178   0.968
 2841W        W 7041   4.505   8.583   0.229
 2842W        W 7042   8.135  10.042   9.119
 2843W        W 7043   0.844  11.069   3.707
 2844W        W 7044  10.042  10.345  11.838
 2845W        W 7045   2.677   8.147   2.923
 2846W        W 7046   9.941   6.236   1.470
 2847W        W 7047   3.279   9.220   2.379
 2848W        W 7048   8.311   0.779   8.991
 2849W        W 7049   0.028   0.671   1.188
 2850W        W 7050   5.249  10.137  10.805
 2851W        W 7051   8.916   9.517   0.403
 2852W        W 7052   9.331   2.241  10.098
 2853W        W 7053   5.630   7.054   9.028
 2854W        W 7054   6.578   9.573   2.872
 2855W        W 7055   8.466   9.022   1.743
 2856W        W 7056   4.576   9.742  10.995
 2857W        W 7057   4.373   9.564  11.446
 2858W        W 7058   4.168  10.048   0.523
 2859W        W 7059   7.937  10.082   0.728
 2860W        W 7060   4.318   1.431  11.031
 2861W        W 7061   8.968   0.653   9.498
 2862W        W 7062   7.569  10.397   1.235
 2863W        W 7063   0.447   9.910   9.507
 2864W        W 7064  10.819   0.215   1.275
 2865W        W 7065   2.763   7.386  10.208
 2866W        W 7066   9.909   6.518   0.289
 2867W        W 7067  10.375   1.293   9.256
 2868W        W 7068   8.373   5.038  11.511
 2869W        W 7069   7.410   0.949   9.162
 2870W        W 7070   8.752   7.550  11.052
 2871W        W 7071   0.736   2.323   9.670
 2872W        W 7072   2.167   9.101   2.886
 2873W        W 7073   8.418   3.212   8.429
 2874W        W 7074   0.302   1.717  10.081
 2875W        W 7075   8.331   4.109   0.510
 2876W        W 7076   6.271   5.738   0.779
 2877W        W 7077   6.076   0.994   8.996
 2878W        W 7078   6.064   7.457   9.789
 2879W        W 7079   2.330   0.245  11.352
 2880W        W 7080   4.326   6.828   2.680
 2881W        W 7081   2.075   7.878   1.050
 2882W        W 7082   8.037   9.257   9.568
 2883W        W 7083   7.619   6.711  11.321
 2884W        W 7084  10.858  11.439   0.211
 2885W        W 7085   2.220   7.500   3.082
 2886W        W 7086   2.423   5.279   2.179
 2887W        W 7087   3.299   4.723   8.975
 2888W        W 7088   2.179   2.893   9.310
 2889W        W 7089  10.489   9.953   3.485
 2890W        W 7090   8.840   0.631   8.971
 2891W        W 7091   3.428  10.964   3.820
 2892W        W 7092   0.115   1.477   2.193
 2893W        W 7093   6.802   7.950  11.181
 2894W        W 7094   2.700  10.671  10.434
 2895W        W 7095   4.610   4.021   2.554
 2896W        W 7096   8.155   3.648   0.357
 2897W        W 7097   2.362   7.565   0.674
 2898W        W 7098   6.466   9.398  10.406
 2899W        W 7099   4.099   6.413  11.235
 2900W        W 7100  10.967   5.372  11.345
 2901W        W 7101   0.892   6.717  11.626
 2902W        W 7102   0.283   0.401   9.954
 2903W        W 7103   7.173  11.318   3.536
 2904W        W 7104   5.941   8.017  10.990
 2905W        W 7105   7.406   9.598   1.841
 2906W        W 7106   5.684  11.372   1.338
 2907W        W 7107   7.954   3.666  10.434
 2908W        W 7108   2.216   1.152   2.770
 2909W        W 7109   0.063   4.168   2.553
 2910W        W 7110   4.072   3.368   8.815
 2911W        W 7111   9.388   6.552   3.559
 2912W        W 7112   5.326  11.304   1.730
 2913W        W 7113   9.025   2.293   1.377
 2914W        W 7114   8.951   9.024   1.552
 2915W        W 7115   9.886   0.447   2.315
 2916W        W 7116   0.346   9.245   1.209
 2917W        W 7117   0.702   9.514   1.943
 2918W        W 7118   5.108   9.602   8.555
 2919W        W 7119   0.350   8.066   3.140
 2920W        W 7120   8.013   9.514   2.482
 2921W        W 7121  11.451  11.370   2.518
 2922W        W 7122   7.124   2.957   4.093
 2923W        W 7123   4.853  10.842   9.862
 2924W        W 7124   6.437   2.355  10.807
 2925W        W 7125   5.182   6.935   3.561
 2926W        W 7126   4.096  11.059  11.181
 2927W        W 7127   2.719  11.028   2.013
 2928W        W 7128  10.613   0.474   0.883
 2929W        W 7129   5.240   2.614   0.819
 2930W        W 7130   0.220   6.961   1.252
 2931W        W 7131   0.574   1.772   2.888
 2932W        W 7132   0.870   7.678   9.994
 2933W        W 7133   1.568   2.158  10.302
 2934W        W 7134   0.168   9.575   2.061
 2935W        W 7135   2.885   2.125   0.059
 2936W        W 7136   8.430   6.763  11.983
 2937W        W 7137  10.615   8.582  10.479
 2938W        W 7138   1.806   9.295  11.863
 2939W        W 7139   6.301  10.475  11.881
 2940W        W 7140   0.340   3.383   2.368
 2941W        W 7141   7.268   2.417  11.338
 2942W        W 7142   3.358   5.712   2.824
 2943W        W 7143   3.572   4.339   3.052
 2944W        W 7144  11.134   0.859  10.944
 2945W        W 7145   3.214   5.193   2.840
 2946W        W 7146   0.812   9.496  10.293
 2947W        W 7147  10.366   0.430  11.996
 2948W        W 7148   5.073  10.155   2.605
 2949W        W 7149   9.549   5.039   2.656
 2950W        W 7150   9.505   6.973   8.646
 2951W        W 7151   2.660   1.981   1.862
 2952W        W 7152   3.861   1.446   9.465
 2953W        W 7153  10.888   5.675   0.732
 2954W        W 7154   3.954  11.301   9.991
 2955W        W 7155   2.660  10.220  10.757
 2956W        W 7156   0.310   5.197   3.206
 2957W        W 7157   7.566   3.350  10.507
 2958W        W 7158   9.885   9.622   9.559
 2959W        W 7159   5.157   9.332   9.010
 2960W        W 7160   5.523   6.322  11.836
 2961W        W 7161   1.222   3.236   0.184
 2962W        W 7162   5.975   1.747   2.377
 2963W        W 7163   0.903  10.353   1.864
 2964W        W 7164   3.835   1.243   2.410
 2965W        W 7165   9.392   2.799   1.048
 2966W        W 7166   7.413   5.011   3.758
 2967W        W 7167   5.051   6.077   0.513
 2968W        W 7168   4.911  10.132   1.741
 2969W        W 7169   9.376   8.135   1.363
 2970W        W 7170   7.936   9.063   9.106
 2971W        W 7171   3.858   5.512   0.251
 2972W        W 7172   1.703   3.159  10.941
 2973W        W 7173   8.941   8.836   0.258
 2974W        W 7174   2.910  10.280   9.096
 2975W        W 7175   9.085   1.485   2.603
 2976W        W 7176   5.133   7.328   8.900
 2977W        W 7177  10.784   3.279   0.906
 2978W        W 7178   2.728   1.834   2.709
 2979W        W 7179   5.844   3.297   9.390
 2980W        W 7180  10.030   9.477   0.910
 2981W        W 7181   8.978   2.939   0.769
 2982W        W 7182   0.182   4.047  11.660
 2983W        W 7183   5.202   1.435  11.091
 2984W        W 7184   2.164   4.276   9.585
 2985W        W 7185   6.836   2.020   2.539
 2986W        W 7186   0.509   0.442  10.402
 2987W        W 7187  10.167   7.083   9.505
 2988W        W 7188   3.546   6.701   9.837
 2989W        W 7189   6.145   6.527   9.945
 2990W        W 7190   2.701   6.742   8.262
 2991W        W 7191   0.344   0.065   1.146
 2992W        W 7192   2.065   4.282   9.080
 2993W        W 7193  11.412   3.895   0.751
 2994W        W 7194   3.708   0.844   9.079
 2995W        W 7195   6.525   4.585  10.709
 2996W        W 7196   8.647  10.483   9.024
 2997W        W 7197   0.137   0.362   3.225
 2998W        W 7198   8.852   4.865  11.535
 2999W        W 7199   9.775  11.336  11.712
 3000W        W 7200   0.483   3.315   8.932
 3001W        W 7201   2.218   0.018   0.018
 3002W        W 7202  10.934   0.444   0.431
 3003W        W 7203   4.869   1.473   9.571
 3004W        W 7204   0.898   1.376   2.838
 3005W        W 7205   4.332   2.317   2.655
 3006W        W 7206   7.267   2.809   3.102
 3007W        W 7207   3.523   9.456   2.759
 3008W        W 7208   4.383   3.702  10.574
 3009W        W 7209  10.773   0.821  10.582
 3010W        W 7210   9.906   7.682   2.966
 3011W        W 7211   1.221   5.787   1.860
 3012W        W 7212   0.778   8.513  11.219
 3013W        W 7213   2.967   5.997   9.858
 3014W        W 7214   1.301   3.168   1.746
 3015W        W 7215   7.409   2.094   0.932
 3016W        W 7216   1.379   8.581   0.948
 3017W        W 7217   4.105   9.198  10.430
 3018W        W 7218   0.686   8.395   3.723
 3019W        W 7219   3.749   4.893  10.277
 3020W        W 7220   9.596   5.112  11.715
 3021W        W 7221  10.004   8.118   2.693
 3022W        W 7222   2.274   1.960   9.257
 3023W        W 7223   5.686   9.022   2.530
 3024W        W 7224   5.142   3.814  10.926
 3025W        W 7225   6.696   2.643   8.562
 3026W        W 7226   4.268   1.123  11.909
 3027W        W 7227   6.555   1.664   8.748
 3028W        W 7228   3.211   5.301  11.054
 3029W        W 7229   2.639   0.600   1.186
 3030W        W 7230   3.842   5.850   1.467
 3031W        W 7231   3.629   4.332   1.255
 3032W        W 7232   5.079   5.712  10.207
 3033W        W 7233   0.691   7.992  11.342
 3034W        W 7234   8.677   7.422  10.365
 3035W        W 7235   4.624   7.955  11.043
 3036W        W 7236  11.220  11.040   1.795
 3037W        W 7237  10.059   5.173   2.445
 3038W        W 7238   6.256   3.264   9.063
 3039W        W 7239   1.393   5.728  10.196
 3040W        W 7240   2.657   1.692  10.367
 3041W        W 7241  10.139   9.594   1.626
 3042W        W 7242   2.646   0.168  11.808
 3043W        W 7243   0.151   2.609   1.000
 3044W        W 7244   3.134   7.536   1.677
 3045W        W 7245   3.728   9.794   3.163
 3046W        W 7246   0.926  10.787  11.945
 3047W        W 7247   6.288   7.672   0.615
 3048W        W 7248   6.041   1.375   8.457
 3049W        W 7249   9.878   5.159  11.297
 3050W        W 7250   9.202   7.938   9.025
 3051W        W 7251   7.964   4.708   2.522
 3052W        W 7252   6.766   8.813  11.142
 3053W        W 7253   7.724   3.650   2.812
 3054W        W 7254   3.144  10.885  11.907
 3055W        W 7255   7.744   7.601  10.368
 3056W        W 7256  11.058   0.017   3.310
 3057W        W 7257   7.048   0.576   9.062
 3058W        W 7258   0.520  10.858  11.556
 3059W        W 7259   9.915   7.609   9.635
 3060W        W 7260   0.902   0.472   0.659
 3061W        W 7261   2.332   7.207   9.944
 3062W        W 7262   1.183   1.192   9.170
 3063W        W 7263   4.429   2.666  11.409
 3064W        W 7264   3.705  11.380   9.096
 3065W        W 7265  10.412   8.176  11.478
 3066W        W 7266  10.934   2.740   0.212
 3067W        W 7267   9.939   4.856   3.445
 3068W        W 7268   8.870   7.245   0.323
 3069W        W 7269   2.775   1.804  11.649
 3070W        W 7270   7.458  10.390   9.796
 3071W        W 7271   9.431   8.861   8.952
 3072W        W 7272   7.490   6.750   3.226
 3073W        W 7273   5.502  10.732   1.945
 3074W        W 7274   1.452   5.267  11.477
 3075W        W 7275   0.024  10.088   2.025
 3076W        W 7276   5.533   0.619  10.155
 3077W        W 7277   5.822   7.574   0.789
 3078W        W 7278   5.244   3.759   2.238
 3079W        W 7279  10.531   1.406   2.909
 3080W        W 7280   8.189   5.045  10.455
 3081W        W 7281   6.645  10.478   1.243
 3082W        W 7282   6.768   3.746  11.319
 3083W        W 7283   6.052  11.019   1.259
 3084W        W 7284   9.864   4.690  11.553
 3085W        W 7285  11.338   9.241   3.436
 3086W        W 7286   0.538   5.893  10.834
 3087W        W 7287   7.456   8.502  11.478
 3088W        W 7288   5.194   5.733   9.677
 3089W        W 7289   8.054   0.011   3.434
 3090W        W 7290   2.676  10.186  10.255
 3091W        W 7291   8.319   0.779  11.205
 3092W        W 7292   9.431   7.376   1.044
 3093W        W 7293   8.970   1.611   9.327
 3094W        W 7294   5.606   4.487   1.085
 3095W        W 7295   2.915   4.665   8.621
 3096W        W 7296   5.341  10.986   9.792
 3097W        W 7297   1.844   6.560   2.778
 3098W        W 7298   4.150  11.435   8.852
 3099W        W 7299   6.615   9.846   8.955
 3100W        W 7300   5.816   6.054  11.545
 3101W        W 7301   0.838   2.655  10.703
 3102W        W 7302   4.578   5.450   1.453
 3103W        W 7303   4.284   7.831  10.081
 3104W        W 7304   2.835   7.517   2.096
 3105W        W 7305   1.451   8.133  10.528
 3106W        W 7306   7.497   2.757   1.642
 3107W        W 7307  11.386   1.227   0.058
 3108W        W 7308   8.053   0.830   1.990
 3109W        W 7309   6.136   0.451  11.770
 3110W        W 7310   5.261  10.525   1.071
 3111W        W 7311   8.115   2.446  11.930
 3112W        W 7312   7.040   4.095   1.083
 3113W        W 7313   3.261   8.650   9.363
 3114W        W 7314   3.589   5.763  11.868
 3115W        W 7315   5.818  10.766   0.275
 3116W        W 7316   4.037   0.776  10.437
 3117W        W 7317  11.409   5.195   9.742
 3118W        W 7318   6.440   4.771  11.717
 3119W        W 7319   1.194   8.588   9.316
 3120W        W 7320   3.256   7.907   0.378
 3121W        W 7321   3.298   8.190   1.264
 3122W        W 7322   1.809  11.221  10.568
 3123W        W 7323   4.564   0.007   0.901
 3124W        W 7324   8.438  11.335   2.645
 3125W        W 7325   6.170   1.291   0.746
 3126W        W 7326   0.903   7.233   3.993
 3127W        W 7327   0.376   3.805   1.000
 3128W        W 7328   3.731   3.198  11.889
 3129W        W 7329   1.630  10.313   9.018
 3130W        W 7330   3.523  11.254   3.039
 3131W        W 7331  11.035   8.728   0.558
 3132W        W 7332   5.707   2.300   9.201
 3133W        W 7333   2.545   5.075   3.777
 3134W        W 7334   6.763  10.500   9.027
 3135W        W 7335   5.750   2.829  10.034
 3136W        W 7336   3.966   4.668   9.812
 3137W        W 7337   4.555   9.090   0.268
 3138W        W 7338   7.766   8.321   9.234
 3139W        W 7339   0.234   0.836  10.243
 3140W        W 7340  11.470   1.266   1.301
 3141W        W 7341  11.119  10.770   3.531
 3142W        W 7342   1.291  11.368  10.496
 3143W        W 7343   6.855   7.865   2.340
 3144W        W 7344   6.512   4.474   2.601
 3145W        W 7345   1.030   4.519   1.331
 3146W        W 7346   4.262  10.325   1.969
 3147W        W 7347   0.621  10.058   0.198
 3148W        W 7348   1.411   9.530  11.018
 3149W        W 7349   8.980   1.084   9.174
 3150W        W 7350   2.904   0.266   0.253
 3151W        W 7351  11.301   8.740   3.341
 3152W        W 7352  11.182   4.723   3.407
 3153W        W 7353  11.229   4.337   9.878
 3154W        W 7354   1.919   1.873   0.035
 3155W        W 7355   6.969   9.796   0.917
 3156W        W 7356   5.285   8.956  10.998
 3157W        W 7357   1.886   3.887   0.853
 3158W        W 7358  10.498   8.445  11.917
 3159W        W 7359   4.395   9.940   9.240
 3160W        W 7360   2.536   1.229   2.386
 3161W        W 7361   8.435   5.526   8.947
 3162W        W 7362   1.549  10.417   1.001
 3163W        W 7363   3.737   1.759  10.427
 3164W        W 7364   5.611   1.672   1.621
 3165W        W 7365   8.181   1.015   2.458
 3166W        W 7366  10.525   9.332   0.184
 3167W        W 7367   6.242   5.085  10.475
 3168W        W 7368   3.601  10.981   9.458
 3169W        W 7369   8.490   2.669   9.980
 3170W        W 7370   2.304   8.668   9.101
 3171W        W 7371  10.899   9.550   3.362
 3172W        W 7372   9.308   4.219   9.660
 3173W        W 7373   5.744   7.993   9.096
 3174W        W 7374   3.161   6.957   1.036
 3175W        W 7375   9.988   4.582  10.127
 3176W        W 7376   2.826   2.805   0.476
 3177W        W 7377   5.601   2.851   3.387
 3178W        W 7378   6.963   0.785  10.241
 3179W        W 7379  11.414  10.928   2.291
 3180W        W 7380   2.111   6.117  11.768
 3181W        W 7381  11.343   7.609   1.627
 3182W        W 7382   1.682   0.695   9.172
 3183W        W 7383  10.581   8.856   1.390
 3184W        W 7384   3.217   8.870   1.974
 3185W        W 7385   6.089   8.302   1.776
 3186W        W 7386   0.354  11.067   1.320
 3187W        W 7387   5.992  10.909  11.446
 3188W        W 7388   9.872   2.243  11.776
 3189W        W 7389   8.942   0.874  10.758
 3190W        W 7390   8.600   3.769   2.664
 3191W        W 7391   1.223   6.512   3.539
 3192W        W 7392   8.887   1.233   9.667
 3193W        W 7393   3.810   7.781  11.436
 3194W        W 7394   8.303   9.528   2.036
 3195W        W 7395   9.314   7.850   1.832
 3196W        W 7396   0.954   9.881   9.378
 3197W        W 7397   8.777   4.564   1.272
 3198W        W 7398   1.096  11.292  11.945
 3199W        W 7399   1.178   0.992   2.650
 3200W        W 7400   5.769   3.258   8.362
 3201W        W 7401   9.937   6.185   9.839
 3202W        W 7402   5.638   0.934   2.216
 3203W        W 7403   2.695   7.177  11.740
 3204W        W 7404   5.756  11.271   0.430
 3205W        W 7405   2.657   2.840   9.463
 3206W        W 7406   3.824   2.596   3.268
 3207W        W 7407  10.932   8.970   9.292
 3208W        W 7408   2.183  11.232   2.811
 3209W        W 7409   9.069   4.662   9.682
 3210W        W 7410   8.142   9.388   1.570
 3211W        W 7411   7.563   9.049   2.911
 3212W        W 7412   2.006   7.634   2.631
 3213W        W 7413   8.718  11.356   0.383
 3214W        W 7414   0.802   1.600  11.350
 3215W        W 7415   8.455   0.569   1.768
 3216W        W 7416   7.504   7.981   1.009
 3217W        W 7417   3.992   2.843   9.557
 3218W        W 7418   0.831   8.796   0.060
 3219W        W 7419  10.771   4.884  11.427
 3220W        W 7420  11.284   8.174   0.367
 3221W        W 7421   2.733   1.533  11.219
 3222W        W 7422   6.617   0.756   2.750
 3223W        W 7423   4.192   1.003   3.348
 3224W        W 7424  10.787  10.790  10.914
 3225W        W 7425   7.258   1.346   9.576
 3226W        W 7426  10.959   2.592   9.770
 3227W        W 7427   9.431   6.628   0.326
 3228W        W 7428   1.883   2.907   2.711
 3229W        W 7429   3.479   4.403   0.454
 3230W        W 7430   9.568   6.552   0.817
 3231W        W 7431  10.245   1.280   3.338
 3232W        W 7432   7.515   9.432  11.290
 3233W        W 7433   9.883   9.479  10.527
 3234W        W 7434   3.923  10.068   9.348
 3235W        W 7435   3.439   7.953   1.753
 3236W        W 7436  10.501   1.822   9.235
 3237W        W 7437  10.806   0.847   3.439
 3238W        W 7438   3.602   8.959   0.567
 3239W        W 7439   6.996   4.304   2.777
 3240W        W 7440   3.139   3.215   0.457
 3241W        W 7441   6.458   9.189   8.491
 3242W        W 7442   6.130   5.214  11.898
 3243W        W 7443   4.328   8.619   2.552
 3244W        W 7444   6.285  11.293   0.384
 3245W        W 7445   3.656   6.496   2.137
 3246W        W 7446   2.816   4.332   0.930
 3247W        W 7447   1.249  10.074   1.262
 3248W        W 7448  11.303  10.289   9.951
 3249W        W 7449   8.085  10.308  11.284
 3250W        W 7450   0.908   5.670   9.982
 3251W        W 7451   8.422   7.114   9.824
 3252W        W 7452   0.777   7.787  10.866
 3253W        W 7453   3.948   3.210   0.896
 3254W        W 7454   6.390   5.754  10.562
 3255W        W 7455  10.432   9.785   0.933
 3256W        W 7456   0.773   9.970   0.674
 3257W        W 7457   0.391  11.026   9.952
 3258W        W 7458   4.658   4.390  10.015
 3259W        W 7459   0.850   1.266  11.726
 3260W        W 7460  11.494   0.162   0.704
 3261W        W 7461  10.906   1.293   3.219
 3262W        W 7462   1.970  10.410   3.133
 3263W        W 7463   6.299   6.031   1.205
 3264W        W 7464   0.316  11.458  10.257
 3265W        W 7465  10.238   0.534   2.709
 3266W        W 7466   5.378  10.106   0.768
 3267W        W 7467   5.988  11.396   2.813
 3268W        W 7468   2.785   9.384   9.276
 3269W        W 7469   8.392   9.271   3.257
 3270W        W 7470   9.914   2.833   0.465
 3271W        W 7471   9.383   0.052   1.463
 3272W        W 7472   5.036   0.003   2.486
 3273W        W 7473   9.705   0.018   0.172
 3274W        W 7474   8.411   8.611   2.049
 3275W        W 7475   3.354   8.476   2.835
 3276W        W 7476   0.368   6.079   0.753
 3277W        W 7477   4.195   6.541   8.579
 3278W        W 7478   5.056   2.373   9.987
 3279W        W 7479   1.131   8.758   2.925
 3280W        W 7480   2.614   8.450   3.330
 3281W        W 7481   0.374  10.997   8.439
 3282W        W 7482   7.499   1.426   1.202
 3283W        W 7483   1.355   2.181   3.285
 3284W        W 7484   9.965   7.189   9.953
 3285W        W 7485   1.359   0.613   2.392
 3286W        W 7486   2.680   3.470   1.022
 3287W        W 7487  11.272   6.863   0.368
 3288W        W 7488   7.479   8.195   0.309
 3289W        W 7489   6.970  10.175   0.069
 3290W        W 7490   0.466   0.454   1.449
 3291W        W 7491   5.504   3.248   0.090
 3292W        W 7492   8.649   5.919  10.087
 3293W        W 7493   2.211   4.119   1.747
 3294W        W 7494   0.401   2.971  11.843
 3295W        W 7495   7.660   0.076   1.670
 3296W        W 7496   1.931   5.133   2.335
 3297W        W 7497   7.472   2.681   2.154
 3298W        W 7498   1.432   6.939   9.538
 3299W        W 7499   8.512   0.271   2.998
 3300W        W 7500   1.565   9.443   0.839
 3301W        W 7501  11.327   1.609   0.427
 3302W        W 7502   6.616   7.102   9.667
 3303W        W 7503   9.055   8.903  11.225
 3304W        W 7504   3.750   4.626   0.836
 3305W        W 7505   1.797   0.466  10.015
 3306W        W 7506   8.375   8.888   9.432
 3307W        W 7507   1.034   7.931  11.745
 3308W        W 7508   0.452   5.543  10.469
 3309W        W 7509   2.961   9.490   9.812
 3310W        W 7510  10.852   0.654   8.935
 3311W        W 7511   3.244   8.209  10.098
 3312W        W 7512   7.473   0.527   0.281
 3313W        W 7513  11.319   6.430  10.475
 3314W        W 7514   3.185   1.276   1.568
 3315W        W 7515   3.187   7.692  10.802
 3316W        W 7516   6.712   9.048   2.393
 3317W        W 7517   8.002   0.515   0.273
 3318W        W 7518   1.880   3.085   1.262
 3319W        W 7519   4.989  10.360   0.502
 3320W        W 7520  10.349   3.666   8.707
 3321W        W 7521   3.884   2.344   0.910
 3322W        W 7522   7.545   5.616   1.554
 3323W        W 7523   1.375   8.916   1.976
 3324W        W 7524   6.203  10.143   1.209
 3325W        W 7525  10.593   6.095   0.679
 3326W        W 7526   3.986   2.170   3.519
 3327W        W 7527   9.761   3.068   1.857
 3328W        W 7528   0.153   4.479   2.971
 3329W        W 7529   0.554   3.888  10.583
 3330W        W 7530   6.054  10.582   1.028
 3331W        W 7531  10.492  11.206   0.490
 3332W        W 7532  10.372  10.467   9.223
 3333W        W 7533   4.364   5.992  11.174
 3334W        W 7534   9.349   0.998   9.535
 3335W        W 7535   3.061   1.454  10.568
 3336W        W 7536   4.734   6.787   9.495
 3337W        W 7537   4.621   1.110   2.937
 3338W        W 7538  10.708   3.619   2.668
 3339W        W 7539   0.605   9.044  10.520
 3340W        W 7540   8.552   1.448   8.455
 3341W        W 7541   0.927   0.607   3.009
 3342W        W 7542   0.536   2.309   8.824
 3343W        W 7543   6.186  11.477   9.872
 3344W        W 7544   4.085   1.624   1.304
 3345W        W 7545   9.935   6.661  11.289
 3346W        W 7546   4.059   5.055   0.054
 3347W        W 7547   8.041  10.541   1.420
 3348W        W 7548   7.280   5.485   1.034
 3349W        W 7549  11.355   6.018   2.403
 3350W        W 7550   9.473   8.400   2.787
 3351W        W 7551   0.581   7.489  11.249
 3352W        W 7552   7.464   6.034   1.905
 3353W        W 7553   2.996   9.661   3.556
 3354W        W 7554   6.796   4.200   2.263
 3355W        W 7555   3.440   6.571   2.654
 3356W        W 7556   4.988   7.543   1.263
 3357W        W 7557   0.872   8.418  11.709
 3358W        W 7558   7.412   9.911  10.039
 3359W        W 7559   0.953   5.661  10.495
 3360W        W 7560   8.021   8.923   3.189
 3361W        W 7561   5.699   3.123  11.187
 3362W        W 7562  11.465   2.814   2.949
 3363W        W 7563   5.206  10.535  11.113
 3364W        W 7564   2.228   8.569   0.777
 3365W        W 7565   0.377   1.755  11.600
 3366W        W 7566   2.883   7.170  10.800
 3367W        W 7567   8.354   5.659   2.737
 3368W        W 7568   0.938   8.040   1.483
 3369W        W 7569   6.727   9.145   4.141
 3370W        W 7570   1.097  11.252   0.476
 3371W        W 7571   6.580   3.046   0.036
 3372W        W 7572   9.180   6.431   1.803
 3373W        W 7573   2.845   2.958   1.913
 3374W        W 7574   6.499   4.373   9.813
 3375W        W 7575   3.197   3.490   3.217
 3376W        W 7576   4.761   0.769  11.297
 3377W        W 7577   9.370   4.068  10.655
 3378W        W 7578   7.791   3.364   8.765
 3379W        W 7579   3.780   6.455   9.454
 3380W        W 7580  10.328   9.501  11.741
 3381W        W 7581   3.827   4.121   2.649
 3382W        W 7582   4.532   7.296   9.410
 3383W        W 7583   6.932   0.492   9.591
 3384W        W 7584   1.024   6.199   8.739
 3385W        W 7585   1.282   2.441  10.922
 3386W        W 7586   4.898   6.564  10.608
 3387W        W 7587   9.362   2.319  11.622
 3388W        W 7588  10.944   6.743   2.663
 3389W        W 7589   4.272   5.305   1.854
 3390W        W 7590   5.040   2.382   1.843
 3391W        W 7591   5.484   4.963   2.776
 3392W        W 7592   9.778   9.948  11.269
 3393W        W 7593   4.391   7.017   0.635
 3394W        W 7594   8.272   6.960   3.356
 3395W        W 7595  10.824  11.060  11.831
 3396W        W 7596  10.504   6.072   3.282
 3397W        W 7597   5.245   2.241   8.978
 3398W        W 7598   7.017   1.022   8.807
 3399W        W 7599   7.069   2.890  11.245
 3400W        W 7600   6.798   7.046  10.193
 3401W        W 7601   5.239   5.730   0.850
 3402W        W 7602  10.042   7.157  10.795
 3403W        W 7603   9.016   6.184   9.797
 3404W        W 7604   4.186   1.951   1.691
 3405W        W 7605   2.956   8.641   9.928
 3406W        W 7606   0.399   9.593   8.530
 3407W        W 7607   9.874   8.696   8.746
 3408W        W 7608   6.504   9.644   9.422
 3409W        W 7609   3.115   1.697   1.888
 3410W        W 7610   8.389   2.511   8.525
 3411W        W 7611   5.226   1.426   9.195
 3412W        W 7612   4.135   3.185   9.901
 3413W        W 7613   9.507  10.277  10.951
 3414W        W 7614   3.015   3.177  10.641
 3415W        W 7615   3.544   8.583   0.242
 3416W        W 7616   1.370   2.651   9.899
 3417W        W 7617   1.781   7.659  10.415
 3418W        W 7618   4.106   6.737  10.841
 3419W        W 7619   7.859   6.914   1.541
 3420W        W 7620   1.949   2.855   1.781
 3421W        W 7621   8.412   6.293   0.818
 3422W        W 7622   6.687  11.269   2.382
 3423W        W 7623   2.757   2.557   9.056
 3424W        W 7624   2.337   6.893   9.516
 3425W        W 7625   4.315   0.367  10.608
 3426W        W 7626   3.118  10.830   9.556
 3427W        W 7627   7.121   5.010   0.081
 3428W        W 7628  10.823   8.999   0.959
 3429W        W 7629   9.595   1.477   2.618
 3430W        W 7630   4.323   9.877   2.812
 3431W        W 7631   0.675   0.920   2.689
 3432W        W 7632   6.748  10.616   3.219
 3433W        W 7633  10.933  10.918   0.321
 3434W        W 7634  10.923   8.073   2.716
 3435W        W 7635   5.832   6.672  10.916
 3436W        W 7636   8.959   4.405  11.387
 3437W        W 7637   2.196   8.383   9.496
 3438W        W 7638   4.099   3.048   3.249
 3439W        W 7639   2.511   2.185   2.323
 3440W        W 7640   4.161   3.648  10.128
 3441W        W 7641   6.536  10.504  10.196
 3442W        W 7642   3.479   8.757   2.417
 3443W        W 7643   6.639   5.190  11.988
 3444W        W 7644   9.915   2.704   9.584
 3445W        W 7645  10.830   8.946  11.238
 3446W        W 7646   1.336   5.205   0.362
 3447W        W 7647   7.199   6.969   0.923
 3448W        W 7648   2.316   1.076   1.932
 3449W        W 7649   8.659   7.790   0.875
 3450W        W 7650   6.983   3.907  11.766
 3451W        W 7651   7.106   8.557   3.427
 3452W        W 7652   9.804   4.570   1.027
 3453W        W 7653   8.632  11.232   1.276
 3454W        W 7654   1.676   0.840   9.650
 3455W        W 7655   8.083   0.974   3.415
 3456W        W 7656   8.203  10.476  10.819
 3457W        W 7657  10.853   5.709   3.130
 3458W        W 7658   2.064   4.971   3.605
 3459W        W 7659   5.280   7.882  10.278
 3460W        W 7660   1.771   2.718   9.587
 3461W        W 7661   0.112   1.725  10.576
 3462W        W 7662   9.404   2.722   3.024
 3463W        W 7663   3.412   1.236   9.274
 3464W        W 7664   7.126   3.926   1.974
 3465W        W 7665   8.879   5.195   9.045
 3466W        W 7666   0.272   8.282   0.232
 3467W        W 7667   7.696   8.045  11.269
 3468W        W 7668   5.125   6.845   2.532
 3469W        W 7669   2.429   9.465  10.178
 3470W        W 7670   6.700   6.915  10.706
 3471W        W 7671   5.079   4.225   2.393
 3472W        W 7672   0.045   9.644  10.920
 3473W        W 7673   5.895   7.534   3.109
 3474W        W 7674  11.369   8.789   9.059
 3475W        W 7675   7.730   8.543  11.951
 3476W        W 7676   5.166   9.342   1.888
 3477W        W 7677   1.829   9.478   3.046
 3478W        W 7678   3.031   5.260   0.636
 3479W        W 7679   5.953   6.059   0.068
 3480W        W 7680  10.861   4.483   9.524
 3481W        W 7681   9.011   6.706   1.408
 3482W        W 7682   0.782  10.799   1.179
 3483W        W 7683   5.982   0.807  10.331
 3484W        W 7684  11.485   1.256  10.795
 3485W        W 7685   9.585   5.423  10.932
 3486W        W 7686   4.292   9.451   9.463
 3487W        W 7687  10.283   2.788   8.769
 3488W        W 7688   4.026   5.550   2.366
 3489W        W 7689  10.812   8.192  10.139
 3490W        W 7690   4.685   0.820   3.340
 3491W        W 7691   1.378   6.117  11.161
 3492W        W 7692   6.061   6.462  11.798
 3493W        W 7693   9.768   4.126  10.318
 3494W        W 7694   8.325   1.435   0.858
 3495W        W 7695   5.744   5.759   0.989
 3496W        W 7696   3.569   8.310   2.144
 3497W        W 7697   8.553   4.677   3.192
 3498W        W 7698   1.236   8.623   0.434
 3499W        W 7699   8.886  10.476   0.462
 3500W        W 7700   0.815   4.708   2.160
 3501W        W 7701   0.543  10.592  10.903
 3502W        W 7702  10.055   1.807   9.554
 3503W        W 7703   4.316   3.720   9.641
 3504W        W 7704   2.402   3.052   3.260
 3505W        W 7705   3.313   9.581   8.844
 3506W        W 7706   2.382   5.324  10.969
 3507W        W 7707   9.368   7.017   0.677
 3508W        W 7708   7.509   4.593   2.802
 3509W        W 7709  11.104  11.415   8.516
 3510W        W 7710   1.582   8.611   3.197
 3511W        W 7711  10.847   8.361   1.287
 3512W        W 7712   6.777   5.227   1.884
 3513W        W 7713  11.312   5.762   1.922
 3514W        W 7714   8.301  11.194  10.491
 3515W        W 7715   2.791   5.037  10.878
 3516W        W 7716   2.251   6.624  11.294
 3517W        W 7717   1.591   8.526   2.347
 3518W        W 7718   3.033  10.546   0.792
 3519W        W 7719   3.253   5.609   9.039
 3520W        W 7720   1.041  10.719  11.004
 3521W        W 7721   1.806   6.576  11.554
 3522W        W 7722   8.142   8.418   3.206
 3523W        W 7723   4.600   9.035   9.379
 3524W        W 7724  11.362   3.310   9.549
 3525W        W 7725   3.193   4.176  11.986
 3526W        W 7726   9.054   2.271   2.234
 3527W        W 7727   1.314   0.743  11.396
 3528W        W 7728   3.122   4.750   9.519
 3529W        W 7729   5.264   1.400   0.430
 3530W        W 7730   9.325   4.682   2.324
 3531W        W 7731   0.508   0.303   2.877
 3532W        W 7732   0.791   6.432  11.158
 3533W        W 7733   3.716   2.621   2.731
 3534W        W 7734   1.053  10.405   0.895
 3535W        W 7735   6.142   7.683   8.928
 3536W        W 7736   0.729   3.333  11.977
 3537W        W 7737   1.737   9.830   8.846
 3538W        W 7738   4.319   1.856   0.384
 3539W        W 7739   3.315   4.619  10.353
 3540W        W 7740  10.427  10.875   0.095
 3541W        W 7741   6.571   9.289  11.186
 3542W        W 7742   8.154   2.140  11.533
 3543W        W 7743   0.936   3.763  11.233
 3544W        W 7744   4.628   1.501  11.936
 3545W        W 7745   5.243  10.622   9.300
 3546W        W 7746   8.856  10.407   2.272
 3547W        W 7747  11.131   5.181  11.993
 3548W        W 7748   8.058  10.393   2.944
 3549W        W 7749   9.385   5.528   2.462
 3550W        W 7750   1.629   1.846  11.611
 3551W        W 7751   6.438   9.361   8.965
 3552W        W 7752   6.005  10.431  10.358
 3553W        W 7753   7.894   8.928   1.743
 3554W        W 7754  10.962   7.430   1.349
 3555W        W 7755   1.878   8.951   2.400
 3556W        W 7756   4.944   8.313  11.746
 3557W        W 7757  10.200  11.390   0.085
 3558W        W 7758   6.697  11.286   1.861
 3559W        W 7759   4.769   9.888   9.572
 3560W        W 7760   8.585  10.333  11.111
 3561W        W 7761   5.400   7.326   3.280
 3562W        W 7762   6.310   3.878   1.382
 3563W        W 7763   2.729   3.043  11.069
 3564W        W 7764  11.356   5.566   0.907
 3565W        W 7765   7.924   3.201   9.599
 3566W        W 7766   5.227  11.096   3.213
 3567W        W 7767   1.284   0.112   2.295
 3568W        W 7768   1.315   9.193   3.134
 3569W        W 7769   7.124   7.403   2.114
 3570W        W 7770   4.092   6.474  11.764
 3571W        W 7771  10.909   1.891   1.731
 3572W        W 7772   9.293  11.461   3.639
 3573W        W 7773   6.166   2.484   8.655
 3574W        W 7774   6.700   9.936   2.521
 3575W        W 7775   3.645   3.597   8.992
 3576W        W 7776   3.112  10.050   9.987
 3577W        W 7777   8.026   0.260   0.741
 3578W        W 7778  10.007  10.341   8.856
 3579W        W 7779   8.699   2.395   2.574
 3580W        W 7780   0.405   2.289   1.319
 3581W        W 7781   3.654   0.370   9.237
 3582W        W 7782  11.423  11.020   8.677
 3583W        W 7783  11.026   2.320   2.301
 3584W        W 7784   1.832   6.041  10.847
 3585W        W 7785   3.446   8.611   9.836
 3586W        W 7786   2.583   7.100   1.931
 3587W        W 7787   9.944   4.845   0.627
 3588W        W 7788   7.665   8.835   2.320
 3589W        W 7789  11.353  10.563   1.965
 3590W        W 7790   0.918   5.434   1.621
 3591W        W 7791   6.988   1.884   0.665
 3592W        W 7792   1.981   2.305  11.744
 3593W        W 7793   6.544   5.696   1.504
 3594W        W 7794   9.100   3.448  11.205
 3595W        W 7795   3.513   7.537   2.605
 3596W        W 7796   3.598   7.078  10.187
 3597W        W 7797   7.258   6.208  11.010
 3598W        W 7798   4.005   9.332   8.521
 3599W        W 7799   6.150   2.847   0.737
 3600W        W 7800   9.552   9.053  11.766
 3601W        W 7801   2.407   9.161   8.986
 3602W        W 7802   9.194   5.805   3.046
 3603W        W 7803   4.989   6.661  11.237
 3604W        W 7804   4.242   4.725  11.252
 3605W        W 7805   5.351   8.841  11.892
 3606W        W 7806   3.241   7.908   2.244
 3607W        W 7807   8.443   1.809   0.517
 3608W        W 7808  11.407   7.852   3.032
 3609W        W 7809   1.004   8.272  10.817
 3610W        W 7810   1.134   4.279  11.275
 3611W        W 7811   6.084   5.293   9.488
 3612W        W 7812   6.674  10.212   0.817
 3613W        W 7813   6.814   0.301  10.071
 3614W        W 7814   5.628   4.075   9.817
 3615W        W 7815   4.628   1.612   2.893
 3616W        W 7816   8.089   8.120   0.983
 3617W        W 7817   1.894  10.298   0.230
 3618W        W 7818   1.316   2.736   9.323
 3619W        W 7819   6.486   2.651   2.327
 3620W        W 7820   4.110   7.553   9.652
 3621W        W 7821   2.293   5.558  10.429
 3622W        W 7822   9.534   8.260  10.736
 3623W        W 7823   1.899   6.980   9.272
 3624W        W 7824   9.977   0.870   0.554
 3625W        W 7825   6.140   8.536   2.243
 3626W        W 7826  11.297   1.102   0.553
 3627W        W 7827   7.495   7.675   0.226
 3628W        W 7828  11.072   6.173   0.864
 3629W        W 7829   2.142   9.010   0.514
 3630W        W 7830   8.390   6.885   2.327
 3631W        W 7831   3.258   4.688   2.090
 3632W        W 7832  10.934   1.401   1.449
 3633W        W 7833   4.668   1.908   0.908
 3634W        W 7834   5.651   0.640   1.783
 3635W        W 7835   3.212   7.566   3.040
 3636W        W 7836   1.064   7.638  11.325
 3637W        W 7837  10.025   9.950   3.239
 3638W        W 7838   5.771   2.216   2.364
 3639W        W 7839   9.044  10.826   1.521
 3640W        W 7840   6.544   8.181   2.901
 3641W        W 7841   1.839  10.409  10.735
 3642W        W 7842   9.936   8.756   0.079
 3643W        W 7843   1.748   4.204   9.934
 3644W        W 7844   4.249   8.486   0.943
 3645W        W 7845   9.834   5.680  11.309
 3646W        W 7846   0.171   1.712   0.059
 3647W        W 7847   3.661  10.473   9.478
 3648W        W 7848   8.524  10.871   0.432
 3649W        W 7849   5.017   3.876   9.219
 3650W        W 7850   7.986   0.032   2.439
 3651W        W 7851   5.446   7.444   0.368
 3652W        W 7852  10.419   0.848  10.944
 3653W        W 7853   8.225   1.916   0.070
 3654W        W 7854   0.704   0.054  11.063
 3655W        W 7855   8.078  10.322   3.449
 3656W        W 7856   8.569   6.604   3.133
 3657W        W 7857  10.973   8.573  10.899
 3658W        W 7858   1.354   0.299   2.800
 3659W        W 7859   5.035   5.243  10.438
 3660W        W 7860   8.540   4.635  11.113
 3661W        W 7861   2.307   5.217   2.677
 3662W        W 7862   9.436   2.358   9.113
 3663W        W 7863   4.053   1.226   9.049
 3664W        W 7864   2.607   6.553   2.286
 3665W        W 7865   7.292   7.946  10.968
 3666W        W 7866   5.107   3.867   2.738
 3667W        W 7867   4.502   9.869   1.873
 3668W        W 7868   8.371  11.445   9.262
 3669W        W 7869   8.436   0.301   8.914
 3670W        W 7870   0.903   2.283   1.435
 3671W        W 7871   2.873  10.524   9.926
 3672W        W 7872   5.105   3.246   0.462
 3673W        W 7873   9.648   3.489   9.431
 3674W        W 7874  10.069   7.180   2.814
 3675W        W 7875  10.598   2.670  11.842
 3676W        W 7876   5.056   3.063   3.182
 3677W        W 7877   6.331   6.587  10.857
 3678W        W 7878   0.350  10.829   0.878
 3679W        W 7879  11.399   3.063   0.075
 3680W        W 7880   1.270   0.358   9.111
 3681W        W 7881  11.203   2.353   1.836
 3682W        W 7882   3.774   5.236   2.043
 3683W        W 7883   2.381   3.111   1.761
 3684W        W 7884   4.299   9.252  10.946
 3685W        W 7885   6.011   5.310  10.880
 3686W        W 7886   5.653   1.343   3.605
 3687W        W 7887   3.313   8.663  10.857
 3688W        W 7888   8.732   5.140   1.952
 3689W        W 7889   6.289   3.990  10.609
 3690W        W 7890   2.343  10.365   1.372
 3691W        W 7891   4.893   4.076   3.136
 3692W        W 7892   8.154  10.747   0.069
 3693W        W 7893   7.295   2.124  10.897
 3694W        W 7894   2.842  11.027   9.938
 3695W        W 7895   6.517   5.676   2.001
 3696W        W 7896   7.078   7.549  11.332
 3697W        W 7897   4.355   5.964   1.532
 3698W        W 7898   9.752   0.104   3.335
 3699W        W 7899   4.157   9.101   1.681
 3700W        W 7900   9.488   4.541   2.809
 3701W        W 7901   3.388   2.281  10.997
 3702W        W 7902   6.136   5.634   9.887
 3703W        W 7903   2.385   7.974  11.516
 3704W        W 7904   2.263   5.672  11.956
 3705W        W 7905   0.380   6.560   9.193
 3706W        W 7906   9.938   1.035  11.039
 3707W        W 7907   0.446  11.333   1.813
 3708W        W 7908  11.335   2.758  10.356
 3709W        W 7909   7.953   6.666   3.712
 3710W        W 7910   2.675   6.658  10.827
 3711W        W 7911   3.196   5.927   2.022
 3712W        W 7912   5.751   6.678   1.616
 3713W        W 7913  11.370   9.063   2.923
 3714W        W 7914   1.111   2.961  11.769
 3715W        W 7915  11.052   7.954   9.345
 3716W        W 7916   5.659   9.427   1.722
 3717W        W 7917   3.834   2.458  11.225
 3718W        W 7918   9.584   5.217   0.730
 3719W        W 7919   8.523   7.420   1.385
 3720W        W 7920   9.522   3.264  11.562
 3721W        W 7921   2.294   3.579  10.532
 3722W        W 7922   9.649   9.661   3.467
 3723W        W 7923   8.585  11.290  10.919
 3724W        W 7924   7.112   2.658  10.321
 3725W        W 7925   3.140   6.193   2.874
 3726W        W 7926   1.125   0.907   0.428
 3727W        W 7927   8.550   5.649   1.841
 3728W        W 7928  10.074   6.132   2.607
 3729W        W 7929   4.161   7.738  10.994
 3730W        W 7930  10.439  11.499   0.916
 3731W        W 7931   0.156   2.635   8.485
 3732W        W 7932   6.134   2.784  11.306
 3733W        W 7933   4.250   0.059   0.455
 3734W        W 7934   6.342   6.945   1.317
 3735W        W 7935   6.070   4.823   1.789
 3736W        W 7936   7.784   5.582   1.107
 3737W        W 7937   7.302   9.384   0.991
 3738W        W 7938   5.148   9.194   0.717
 3739W        W 7939   1.896  10.040   1.830
 3740W        W 7940   5.280   4.652  10.283
 3741W        W 7941   4.302   3.801   0.236
 3742W        W 7942   3.087   2.553   9.478
 3743W        W 7943   6.897   4.713   9.861
 3744W        W 7944   5.078   9.683   0.729
 3745W        W 7945   5.173   0.879   3.012
 3746W        W 7946   9.381   3.563   2.911
 3747W        W 7947   0.292   6.321  10.671
 3748W        W 7948   0.785  11.277   1.429
 3749W        W 7949   3.273   4.244  11.055
 3750W        W 7950   4.051   0.297  10.169
 3751W        W 7951   0.437   5.767   1.566
 3752W        W 7952  10.829   3.223   0.016
 3753W        W 7953   8.155   8.188   2.754
 3754W        W 7954   6.227   8.301  11.823
 3755W        W 7955   9.099   6.493   9.371
 3756W        W 7956   2.161   3.883   2.636
 3757W        W 7957   3.511  10.844   1.253
 3758W        W 7958   9.628   1.889   9.848
 3759W        W 7959   8.303   4.325   2.437
 3760W        W 7960   9.480  10.767   1.841
 3761W        W 7961   9.536   8.538  11.784
 3762W        W 7962   3.303   1.943   0.296
 3763W        W 7963   3.897   9.069   2.521
 3764W        W 7964   9.252   1.360   3.081
 3765W        W 7965   6.109   0.315  10.248
 3766W        W 7966   7.636   4.614  10.969
 3767W        W 7967  10.857  11.060   0.830
 3768W        W 7968   6.060   8.118   0.710
 3769W        W 7969   6.675   4.673  11.226
 3770W        W 7970   2.225   4.263  10.093
 3771W        W 7971   8.519   3.647   9.972
 3772W        W 7972   0.753   9.789   1.157
 3773W        W 7973   3.036   0.463   2.336
 3774W        W 7974   8.442   3.638  10.546
 3775W        W 7975   2.927   5.110   2.066
 3776W        W 7976   6.081   4.112   9.133
 3777W        W 7977   9.261   5.370   3.425
 3778W        W 7978   2.570   5.691   3.067
 3779W        W 7979   6.958  10.707   8.596
 3780W        W 7980   4.164   5.637  10.257
 3781W        W 7981   6.690   3.145   2.331
 3782W        W 7982   0.813  11.242   9.486
 3783W        W 7983   0.386   7.642   8.843
 3784W        W 7984   7.990   1.874   2.449
 3785W        W 7985   9.806   7.896   0.466
 3786W        W 7986   9.835   6.040   9.367
 3787W        W 7987   3.363   3.333  11.564
 3788W        W 7988   5.628   0.884   2.741
 3789W        W 7989  10.987   9.991   3.116
 3790W        W 7990   2.165   8.191   8.724
 3791W        W 7991   8.595  10.096   9.380
 3792W        W 7992   1.818   5.970   9.107
 3793W        W 7993  11.277   7.494   2.122
 3794W        W 7994  10.085   5.347   1.514
 3795W        W 7995   7.949   8.177   9.703
 3796W        W 7996   8.033   1.934   8.926
 3797W        W 7997   9.824   0.908   2.536
 3798W        W 7998   5.698   9.886   0.442
 3799W        W 7999  10.788   2.724  11.289
 3800W        W 8000   9.785   1.522  11.801
 3801W        W 8001   8.990   2.970  11.086
 3802W        W 8002   3.394   5.676   0.573
 3803W        W 8003   0.682   1.194   9.049
 3804W        W 8004   2.560   2.217  10.453
 3805W        W 8005   1.834   3.599   1.299
 3806W        W 8006   3.645   7.860   9.579
 3807W        W 8007   7.900   7.400  10.819
 3808W        W 8008   5.259   3.510  10.533
 3809W        W 8009   4.721  10.035  10.544
 3810W        W 8010   7.954   3.796   9.083
 3811W        W 8011   3.636   8.589   1.215
 3812W        W 8012   6.671   7.384   2.326
 3813W        W 8013   7.587   7.552  11.214
 3814W        W 8014   3.147  10.464  10.339
 3815W        W 8015   0.619   2.804   1.231
 3816W        W 8016   9.808   2.354  10.389
 3817W        W 8017   8.489   9.371  11.139
 3818W        W 8018   8.505  10.572   9.519
 3819W        W 8019   4.454  11.353  10.125
 3820W        W 8020  11.214   9.147  11.528
 3821W        W 8021   1.626   9.393   3.492
 3822W        W 8022   8.083   5.447   8.214
 3823W        W 8023   2.006   8.878   9.540
 3824W        W 8024   8.756   5.310   3.360
 3825W        W 8025   8.436   8.179   1.784
 3826W        W 8026  10.955   1.232   9.673
 3827W        W 8027   9.096   8.125   2.443
 3828W        W 8028   3.973   9.969   1.768
 3829W        W 8029   8.199   5.490   9.463
 3830W        W 8030  10.678   2.335   1.903
 3831W        W 8031   7.387   4.470   1.210
 3832W        W 8032   9.446   6.961  10.817
 3833W        W 8033   0.455   6.865   2.566
 3834W        W 8034  10.377   6.556   0.483
 3835W        W 8035   1.778   4.109  11.829
 3836W        W 8036   4.673   4.097  10.902
 3837W        W 8037   0.532   4.955   3.678
 3838W        W 8038   1.833  10.257   1.376
 3839W        W 8039   7.221  11.424   0.346
 3840W        W 8040   6.305   6.992  10.069
 3841W        W 8041  10.000   9.769   8.762
 3842W        W 8042   2.498  10.581   1.815
 3843W        W 8043   8.921   2.962   0.176
 3844W        W 8044   9.428   0.420   9.337
 3845W        W 8045  10.282   1.283   1.984
 3846W        W 8046   0.806   3.483  10.825
 3847W        W 8047   6.938   1.496   2.589
 3848W        W 8048   8.445  10.500  11.578
 3849W        W 8049  11.010  10.333  10.861
 3850W        W 8050   9.505   1.921  11.934
 3851W        W 8051   3.518   3.343   2.347
 3852W        W 8052  10.018   0.379   0.362
 3853W        W 8053   3.780   8.981  11.989
 3854W        W 8054   8.987  10.361   1.356
 3855W        W 8055   3.783   0.256   0.300
 3856W        W 8056   2.307   1.410  10.034
 3857W        W 8057   9.416   3.615  10.331
 3858W        W 8058   6.996   9.484   9.563
 3859W        W 8059   8.604   5.128   4.106
 3860W        W 8060  10.133   0.789   1.475
 3861W        W 8061   1.398   1.446   2.719
 3862W        W 8062   0.809   9.386   1.466
 3863W        W 8063   7.276  10.953   0.695
 3864W        W 8064   6.492   2.352   2.737
 3865W        W 8065   9.566   1.813   3.004
 3866W        W 8066   4.964   3.389   1.933
 3867W        W 8067   2.470   1.343  11.644
 3868W        W 8068   7.198   3.478   2.201
 3869W        W 8069   8.500  10.956   9.174
 3870W        W 8070  10.445  10.974  10.588
 3871W        W 8071   9.804   3.569   1.814
 3872W        W 8072  11.449   6.690   8.928
 3873W        W 8073   0.265   9.535   3.639
 3874W        W 8074   3.543   5.414   1.374
 3875W        W 8075   6.003   1.866   9.343
 3876W        W 8076   4.718   4.304   0.917
 3877W        W 8077   6.045   1.739   0.514
 3878W        W 8078   3.151   3.454   9.142
 3879W        W 8079   6.080   7.454  10.780
 3880W        W 8080   4.485   8.894  10.581
 3881W        W 8081  10.938   9.437   0.495
 3882W        W 8082   5.126   4.667   0.707
 3883W        W 8083   4.481   8.709   9.004
 3884W        W 8084   5.790   1.871   3.149
 3885W        W 8085  10.324  10.148  11.439
 3886W        W 8086   5.730   4.378   9.420
 3887W        W 8087   9.517   7.378   9.018
 3888W        W 8088   4.769   0.689  10.764
 3889W        W 8089   4.263   4.234   9.541
 3890W        W 8090   7.209   1.829   2.938
 3891W        W 8091   1.334  10.435  11.507
 3892W        W 8092   4.470   1.269   1.283
 3893W        W 8093   4.804   3.619   9.600
 3894W        W 8094   3.394   7.115   3.273
 3895W        W 8095   9.035  10.734  11.730
 3896W        W 8096  11.268   5.795  11.353
 3897W        W 8097   4.796  10.640   0.872
 3898W        W 8098  11.320   0.167   0.190
 3899W        W 8099   4.187   9.868   9.749
 3900W        W 8100   3.595   8.084   2.614
 3901W        W 8101   3.137   9.910   0.000
 3902W        W 8102   2.701   9.075   9.943
 3903W        W 8103   9.445   9.290  10.754
 3904W        W 8104   5.527   4.695   0.161
 3905W        W 8105   8.444   0.500  11.975
 3906W        W 8106  10.913  11.240  11.352
 3907W        W 8107   8.837   5.864  11.468
 3908W        W 8108   9.550   3.620  10.849
 3909W        W 8109   6.333   5.213   2.741
 3910W        W 8110   5.229  10.132   9.461
 3911W        W 8111   0.468   3.304   0.877
 3912W        W 8112  11.402   1.361   3.109
 3913W        W 8113   8.362   1.245  10.546
 3914W        W 8114   4.917  10.854  11.788
 3915W        W 8115   1.764   0.184   9.163
 3916W        W 8116   4.628   8.426  10.734
 3917W        W 8117   5.604  11.285  10.781
 3918W        W 8118   8.534   1.758   2.558
 3919W        W 8119   6.371   7.296   0.950
 3920W        W 8120   0.239   9.034   8.809
 3921W        W 8121  10.512   2.266   2.382
 3922W        W 8122   4.189   9.493   1.999
 3923W        W 8123  10.381   8.496   2.648
 3924W        W 8124  11.318   3.814   9.955
 3925W        W 8125   7.152   0.322  11.575
 3926W        W 8126   2.302   5.766   1.977
 3927W        W 8127   0.442   3.654   1.940
 3928W        W 8128   8.050   2.212   1.255
 3929W        W 8129   7.249   7.825   9.964
 3930W        W 8130   2.750   7.973   2.333
 3931W        W 8131   7.404   5.240   2.277
 3932W        W 8132   8.415   6.428   3.584
 3933W        W 8133   7.657   5.084   2.707
 3934W        W 8134   9.662  10.251   2.043
 3935W        W 8135   6.079   7.781   1.828
 3936W        W 8136  10.400  11.465  10.767
 3937W        W 8137   5.660   1.718  11.183
 3938W        W 8138   7.186   5.181   1.550
 3939W        W 8139   8.568   1.839  11.729
 3940W        W 8140   3.288   2.704   1.853
 3941W        W 8141   0.508   4.345  10.346
 3942W        W 8142   1.220  11.034   1.568
 3943W        W 8143   3.892   4.102   0.360
 3944W        W 8144   9.462   4.768   8.346
 3945W        W 8145   9.036   4.758  11.032
 3946W        W 8146   7.666   1.024   2.507
 3947W        W 8147   4.578  10.825   8.549
 3948W        W 8148   7.198   8.415   0.902
 3949W        W 8149   7.590   8.363   3.217
 3950W        W 8150   5.409   7.759   3.005
 3951W        W 8151   6.283  11.339  11.402
 3952W        W 8152   3.780   2.801   1.671
 3953W        W 8153   7.515   3.102  11.841
 3954W        W 8154   3.256   1.812   1.410
 3955W        W 8155   7.918   3.158   1.620
 3956W        W 8156   1.963   9.437  10.382
 3957W        W 8157   1.062   5.575  11.008
 3958W        W 8158   9.321   2.872   2.085
 3959W        W 8159   2.717   7.574   3.175
 3960W        W 8160   8.461   4.288   0.031
 3961W        W 8161   7.126   7.352   1.617
 3962W        W 8162   7.146   4.552   3.636
 3963W        W 8163   6.656   3.082   1.814
 3964W        W 8164   4.198   3.840   2.860
 3965W        W 8165   4.266   8.848  10.100
 3966W        W 8166   7.886   4.445  11.713
 3967W        W 8167   2.178   7.424  10.868
 3968W        W 8168   9.542   4.598  11.929
 3969W        W 8169   2.118   6.151   2.892
 3970W        W 8170   1.353   8.652  10.613
 3971W        W 8171   8.346   5.073   9.141
 3972W        W 8172   4.820  10.415   1.339
 3973W        W 8173   6.058   3.210   9.884
 3974W        W 8174   9.068   5.612   1.612
 3975W        W 8175   8.457   7.129   1.875
 3976W        W 8176   9.036   4.723   0.350
 3977W        W 8177   5.861   2.619  10.485
 3978W        W 8178   2.069   5.637   2.954
 3979W        W 8179   1.792   8.792  11.792
 3980W        W 8180  11.433   9.016   0.452
 3981W        W 8181   0.705   7.721   2.987
 3982W        W 8182   5.142   9.958   9.937
 3983W        W 8183   8.633   9.296  10.122
 3984W        W 8184   4.784   0.730   9.011
 3985W        W 8185   7.707   2.188   9.237
 3986W        W 8186   4.848   0.817   0.622
 3987W        W 8187   7.643  11.189  11.063
 3988W        W 8188   2.379   3.827   2.180
 3989W        W 8189   8.090   7.216   1.185
 3990W        W 8190   6.747   4.969   0.593
 3991W        W 8191   6.638  10.912   2.770
 3992W        W 8192   1.244   3.802   2.414
 3993W        W 8193   0.708   5.709   0.668
 3994W        W 8194   4.714   1.717   8.933
 3995W        W 8195   8.972   9.563   2.711
 3996W        W 8196   2.031   0.491  10.528
 3997W        W 8197   6.569   1.267   9.089
 3998W        W 8198   6.138   6.938  11.991
 3999W        W 8199   8.926   7.742   0.423
 4000W        W 8200   5.276   8.043   0.034
 4001W        W 8201   2.212   0.904   1.204
 4002W        W 8202   9.478   4.602   3.340
 4003W        W 8203  10.427   0.517   9.735
 4004W        W 8204   7.413   9.271   2.380
 4005W        W 8205  11.259   1.748   1.275
 4006W        W 8206   7.617   8.469  10.994
 4007W        W 8207   1.943  10.800   2.305
 4008W        W 8208   4.258   9.645   3.252
 4009W        W 8209   4.218   2.797   2.825
 4010W        W 8210   9.623   5.988   2.358
 4011W        W 8211   7.964   3.767   9.939
 4012W        W 8212   3.312   5.433   1.931
 4013W        W 8213   4.655   4.351   2.142
 4014W        W 8214   5.915   4.043   3.059
 4015W        W 8215   7.169  10.944   2.782
 4016W        W 8216   9.325   4.607   1.329
 4017W        W 8217   2.643   7.606  10.711
 4018W        W 8218  10.718   2.164  10.610
 4019W        W 8219   1.317   2.280   0.446
 4020W        W 8220   6.083   6.417   0.923
 4021W        W 8221   3.388   1.364   3.285
 4022W        W 8222   6.603   7.058   3.984
 4023W        W 8223   5.702   8.213  10.346
 4024W        W 8224   1.336   5.152   3.352
 4025W        W 8225   2.894   9.270   8.773
 4026W        W 8226   8.233   5.642   3.304
 4027W        W 8227   0.333   2.840   3.353
 4028W        W 8228   2.926   0.803   1.686
 4029W        W 8229   5.699  10.834   8.564
 4030W        W 8230   5.950   1.311  11.297
 4031W        W 8231   6.448   6.153   1.738
 4032W        W 8232   1.261   0.805   8.853
 4033W        W 8233   9.516   4.168   0.843
 4034W        W 8234   3.871   6.880   2.409
 4035W        W 8235   4.322   8.529   9.483
 4036W        W 8236   4.604   8.051   0.495
 4037W        W 8237   3.002   5.113   0.046
 4038W        W 8238   9.385   1.397   9.082
 4039W        W 8239   6.887  10.588   0.505
 4040W        W 8240   5.680   1.152   1.670
 4041W        W 8241  11.320   6.640   1.789
 4042W        W 8242   4.020  10.604   3.538
 4043W        W 8243   3.741   0.288  11.798
 4044W        W 8244   4.026   8.510   0.023
 4045W        W 8245   2.482   0.567   9.644
 4046W        W 8246   2.753  11.378   9.031
 4047W        W 8247   1.785   3.620  11.197
 4048W        W 8248   3.640   6.406   8.605
 4049W        W 8249   1.202   1.874   1.538
 4050W        W 8250  11.300   7.507  10.060
 4051W        W 8251   6.744   7.849   8.295
 4052W        W 8252   0.420  11.261  10.736
 4053W        W 8253   8.772   7.587  11.956
 4054W        W 8254   5.528   3.030  10.690
 4055W        W 8255   6.642   1.874  10.841
 4056W        W 8256  11.271   5.134   9.226
 4057W        W 8257   8.099   9.324  11.962
 4058W        W 8258   7.443   0.534   9.492
 4059W        W 8259   3.244   4.632   0.928
 4060W        W 8260   7.678   9.987   9.530
 4061W        W 8261   4.024   8.464   9.069
 4062W        W 8262   1.762  11.170   0.491
 4063W        W 8263   9.452  11.070   8.722
 4064W        W 8264   0.544   6.197   1.883
 4065W        W 8265   5.036   3.825   1.690
 4066W        W 8266   5.543   5.203  11.857
 4067W        W 8267   2.146   8.410  11.744
 4068W        W 8268   2.253   3.522   8.633
 4069W        W 8269  10.791   5.532  10.459
 4070W        W 8270   3.987   0.936   9.517
 4071W        W 8271   7.625   3.749   1.651
 4072W        W 8272   4.736   9.123  10.197
 4073W        W 8273  10.810   3.905   0.071
 4074W        W 8274   7.952  11.182  11.877
 4075W        W 8275   5.639   0.224  10.489
 4076W        W 8276   3.069   5.135   9.179
 4077W        W 8277   6.765  10.630   0.013
 4078W        W 8278   2.225   9.900  11.870
 4079W        W 8279   4.025   3.175   2.360
 4080W        W 8280   3.225   6.366   4.010
 4081W        W 8281   7.520   0.104   2.667
 4082W        W 8282   3.095  10.013  10.539
 4083W        W 8283   2.999  10.610   1.930
 4084W        W 8284   6.830   1.997   8.409
 4085W        W 8285   8.464   7.495  11.508
 4086W        W 8286   9.524   4.598   8.824
 4087W        W 8287   6.310   8.042  11.379
 4088W        W 8288   1.034   6.271   1.936
 4089W        W 8289  11.008   1.790  11.416
 4090W        W 8290   2.649   7.501   9.371
 4091W        W 8291   8.315   7.766  11.966
 4092W        W 8292   9.528   4.899   0.331
 4093W        W 8293   0.038   2.890  10.812
 4094W        W 8294   6.719  10.285  10.598
 4095W        W 8295   3.742   3.873   8.564
 4096W        W 8296   5.767   8.847   9.477
 4097W        W 8297   3.523   5.359   3.223
 4098W        W 8298   6.625   6.817  11.205
 4099W        W 8299   0.557   9.472   0.781
 4100W        W 8300   3.737   1.707   3.039
 4101W        W 8301   0.552   3.833   0.004
 4102W        W 8302   9.777   1.946  10.879
 4103W        W 8303   5.688   2.164   0.086
 4104W        W 8304   6.407   6.578   2.818
 4105W        W 8305   2.314   4.810  11.862
 4106W        W 8306   0.794   8.499   1.764
 4107W        W 8307  11.084  10.603  11.827
 4108W        W 8308   5.004   4.749   9.853
 4109W        W 8309   2.989   0.783   8.557
 4110W        W 8310   4.471   4.825   9.824
 4111W        W 8311   0.515   7.443   3.741
 4112W        W 8312  10.892   9.511   0.986
 4113W        W 8313   9.819   9.510  11.021
 4114W        W 8314   3.950   0.018   3.228
 4115W        W 8315   9.633   5.942  10.461
 4116W        W 8316   1.957   0.824   1.674
 4117W        W 8317  11.230   2.764   2.434
 4118W        W 8318   3.181   6.660   3.119
 4119W        W 8319   9.938   7.665  10.128
 4120W        W 8320   6.969  11.219   8.697
 4121W        W 8321   2.184   1.381   0.984
 4122W        W 8322   5.276   0.964   1.379
 4123W        W 8323   0.362  10.573   1.411
 4124W        W 8324   8.448   6.162   8.662
 4125W        W 8325  10.836  10.321   8.958
 4126W        W 8326   1.736   8.501   9.257
 4127W        W 8327  10.861   7.867   0.466
 4128W        W 8328   0.055   6.219   1.965
 4129W        W 8329  11.448   7.638   9.595
 4130W        W 8330  10.008   8.495  11.225
 4131W        W 8331  11.359   4.106  11.236
 4132W        W 8332   0.023  10.017   2.887
 4133W        W 8333   6.057   3.762  10.985
 4134W        W 8334   9.816   4.113  10.907
 4135W        W 8335  11.008   6.830  10.618
 4136W        W 8336   2.441  10.507   9.148
 4137W        W 8337   4.330   4.310   0.148
 4138W        W 8338   2.778   0.746  10.992
 4139W        W 8339   6.557   1.246   2.851
 4140W        W 8340   9.484   4.116   8.568
 4141W        W 8341   6.747   2.715   3.150
 4142W        W 8342   6.592  11.045   9.841
 4143W        W 8343   8.807  11.033   0.826
 4144W        W 8344   0.153   2.651  11.536
 4145W        W 8345   6.816   0.830   0.265
 4146W        W 8346   0.319   4.364  11.264
 4147W        W 8347   1.071   4.957   1.804
 4148W        W 8348   6.710  10.340  11.605
 4149W        W 8349   4.026   4.609   0.404
 4150W        W 8350   0.988   3.376   8.888
 4151W        W 8351   0.842  10.833   0.669
 4152W        W 8352   8.201   6.649   1.860
 4153W        W 8353   1.763   9.874   1.031
 4154W        W 8354   7.732   9.616   0.791
 4155W        W 8355  10.095   1.752   0.626
 4156W        W 8356   7.609   4.002   1.151
 4157W        W 8357   9.524   6.216   0.034
 4158W        W 8358   2.831  10.837   9.116
 4159W        W 8359   1.652   4.324  11.314
 4160W        W 8360   7.042   3.231   3.292
 4161W        W 8361   3.654   6.123   2.895
 4162W        W 8362   9.456  11.211   3.202
 4163W        W 8363  10.709   7.117   9.501
 4164W        W 8364   8.146  10.975  10.905
 4165W        W 8365   5.644   7.776   3.488
 4166W        W 8366   2.987   6.501   3.571
 4167W        W 8367  10.516   6.152   0.175
 4168W        W 8368   2.682   3.446   2.004
 4169W        W 8369   6.584   1.865  11.378
 4170W        W 8370  11.275   8.933  10.610
 4171W        W 8371   8.775   6.976   9.060
 4172W        W 8372  10.677  10.331   2.185
 4173W        W 8373  10.041   9.021   3.257
 4174W        W 8374   2.783   6.130  10.842
 4175W        W 8375   9.842   1.068  11.590
 4176W        W 8376   9.599  10.564   8.569
 4177W        W 8377   9.162  10.365   0.882
 4178W        W 8378  10.422   2.142   1.485
 4179W        W 8379   3.504   1.509  11.227
 4180W        W 8380   5.615   1.367   2.511
 4181W        W 8381   3.959   0.738   2.471
 4182W        W 8382  10.819   4.143   8.555
 4183W        W 8383   7.649  10.702  11.910
 4184W        W 8384   7.728   9.028   0.116
 4185W        W 8385  10.662  10.190   8.506
 4186W        W 8386   6.075   4.295  10.966
 4187W        W 8387   8.982   2.777   3.333
 4188W        W 8388   9.891   8.563   2.462
 4189W        W 8389   3.137   3.714  10.860
 4190W        W 8390   2.390   4.676   8.313
 4191W        W 8391   1.902   7.053  11.146
 4192W        W 8392   2.040   1.275   2.299
 4193W        W 8393   2.772   0.465  11.405
 4194W        W 8394   9.921  11.070   1.815
 4195W        W 8395   1.812  10.253  10.216
 4196W        W 8396   9.603   8.583   1.469
 4197W        W 8397  10.714  10.313  10.013
 4198W        W 8398   9.500   6.976   3.282
 4199W        W 8399   5.545   5.265  10.460
 4200W        W 8400   5.715   7.693   8.398
 4201W        W 8401  11.421   6.758  11.437
 4202W        W 8402   9.725   8.306   0.192
 4203W        W 8403   3.764  11.489  11.367
 4204W        W 8404  10.304   8.169  10.592
 4205W        W 8405  10.809   0.946   0.769
 4206W        W 8406   0.800   7.428  10.457
 4207W        W 8407   8.169   6.550   8.451
 4208W        W 8408  10.870   5.172   0.836
 4209W        W 8409   7.607   2.565  10.969
 4210W        W 8410   4.652   7.498  10.825
 4211W        W 8411  10.371   6.432  10.504
 4212W        W 8412   6.068   0.372  10.761
 4213W        W 8413   3.922  11.251   2.679
 4214W        W 8414   2.830   4.552   2.493
 4215W        W 8415   5.000  11.191   8.865
 4216W        W 8416   1.679  11.232   1.431
 4217W        W 8417   2.912   6.014   2.451
 4218W        W 8418   9.879   1.641   2.030
 4219W        W 8419   4.704   1.237   9.124
 4220W        W 8420   4.223   2.765   0.955
 4221W        W 8421   6.607   0.280   2.507
 4222W        W 8422   7.466   0.730   8.700
 4223W        W 8423   7.923   8.203   3.600
 4224W        W 8424   9.478   0.052   2.396
 4225W        W 8425   6.747   5.666   1.009
 4226W        W 8426   9.619   3.433   0.383
 4227W        W 8427  10.848   2.647   2.780
 4228W        W 8428   2.723   9.774   2.107
 4229W        W 8429   8.016   9.395  11.410
 4230W        W 8430   8.340   9.908   3.210
 4231W        W 8431  10.009   3.143   9.264
 4232W        W 8432   4.916   0.012   2.006
 4233W        W 8433  11.499   8.065   0.857
 4234W        W 8434   8.819   6.900   0.968
 4235W        W 8435   3.701   4.485   3.542
 4236W        W 8436  10.430   2.273   9.010
 4237W        W 8437   2.845   7.790  11.172
 4238W        W 8438   3.692   8.441  10.287
 4239W        W 8439   9.116   4.160   1.207
 4240W        W 8440   1.700   5.713   1.640
 4241W        W 8441   8.260   8.393   9.344
 4242W        W 8442  10.900   1.845   0.295
 4243W        W 8443   9.515   7.885   9.893
 4244W        W 8444   7.801   6.105   1.523
 4245W        W 8445   9.716   7.196   1.444
 4246W        W 8446   1.222   4.952   0.945
 4247W        W 8447  10.802   4.997   9.025
 4248W        W 8448   5.060   7.050   2.061
 4249W        W 8449   4.012  10.920   1.379
 4250W        W 8450   4.323   9.630  10.583
 4251W        W 8451  11.148   4.229  10.797
 4252W        W 8452   9.135   0.816   0.323
 4253W        W 8453   0.956   3.120  10.461
 4254W        W 8454   6.830   6.203  11.378
 4255W        W 8455   4.303   1.104   2.556
 4256W        W 8456   8.071   1.168  11.644
 4257W        W 8457   8.355   6.099  11.457
 4258W        W 8458   0.930  10.438   0.359
 4259W        W 8459   0.357   4.716   8.491
 4260W        W 8460   3.892   8.844   8.732
 4261W        W 8461   5.359   9.884   1.713
 4262W        W 8462   0.813   8.160   0.950
 4263W        W 8463   3.448   1.349   2.076
 4264W        W 8464   9.112   1.371   0.463
 4265W        W 8465   8.440   4.291   1.952
 4266W        W 8466  10.270   9.564   9.204
 4267W        W 8467   0.993   8.484   9.785
 4268W        W 8468   7.254   2.326   2.869
 4269W        W 8469   9.430   4.405   0.403
 4270W        W 8470  10.417   6.671  11.481
 4271W        W 8471   2.929   8.963   3.284
 4272W        W 8472   6.051   4.785   2.656
 4273W        W 8473   5.341   3.120   9.383
 4274W        W 8474   0.804   0.147   9.111
 4275W        W 8475   7.228   1.926  10.402
 4276W        W 8476   1.441   7.080   9.050
 4277W        W 8477   4.205   7.426  11.416
 4278W        W 8478  10.959   5.702   2.299
 4279W        W 8479   9.180   9.796   0.088
 4280W        W 8480   8.002   4.068   0.083
 4281W        W 8481  11.054   8.046   1.656
 4282W        W 8482  10.978   5.192   3.021
 4283W        W 8483   1.355   6.615  11.864
 4284W        W 8484   7.929   4.320   9.064
 4285W        W 8485   0.243   8.525   2.453
 4286W        W 8486   0.307   1.834  11.096
 4287W        W 8487   8.874   0.965   0.752
 4288W        W 8488   6.306   2.149   2.283
 4289W        W 8489  10.187   1.034   2.874
 4290W        W 8490   0.031   3.802   9.503
 4291W        W 8491   7.958   7.758   3.850
 4292W        W 8492   9.526   9.110   2.227
 4293W        W 8493  11.255   6.995   2.180
 4294W        W 8494   7.111  10.348   1.931
 4295W        W 8495   7.102  10.131   0.556
 4296W        W 8496   0.937   7.988   1.986
 4297W        W 8497   4.257   8.451   8.614
 4298W        W 8498  10.055   9.017   2.699
 4299W        W 8499   2.421   8.962   3.309
 4300W        W 8500   0.620   0.449   3.420
 4301W        W 8501   8.259   3.232   3.551
 4302W        W 8502   4.075   7.171   1.024
 4303W        W 8503   4.732   6.077   3.530
 4304W        W 8504  10.788   8.505   2.999
 4305W        W 8505   8.174   9.516  10.009
 4306W        W 8506   3.128   6.522   2.190
 4307W        W 8507   0.295   6.486   0.020
 4308W        W 8508   1.673   1.420   0.917
 4309W        W 8509   2.764   8.455   1.001
 4310W        W 8510   7.674   5.130  10.242
 4311W        W 8511   8.134   7.706   2.637
 4312W        W 8512   4.643   0.290  11.484
 4313W        W 8513   6.554   6.228  11.922
 4314W        W 8514   7.052   1.194  10.536
 4315W        W 8515  10.955   1.153   2.717
 4316W        W 8516   0.616   4.654   9.439
 4317W        W 8517   9.456  10.941  11.526
 4318W        W 8518   9.370   9.855   1.839
 4319W        W 8519   9.052   3.636   9.875
 4320W        W 8520   9.967   4.768   2.803
 4321W        W 8521   3.824   5.953   9.521
 4322W        W 8522   8.936   9.003   8.891
 4323W        W 8523   6.814   2.200   3.083
 4324W        W 8524   7.711   6.199   0.466
 4325W        W 8525   4.558   3.434  11.929
 4326W        W 8526   6.477   3.186   3.204
 4327W        W 8527   4.509   2.072   3.554
 4328W        W 8528   7.529   1.901   1.406
 4329W        W 8529   9.825   3.574   2.642
 4330W        W 8530  11.149   9.435   1.952
 4331W        W 8531   9.145   8.559   9.872
 4332W        W 8532   4.545  10.272   0.227
 4333W        W 8533   2.800   4.269   7.775
 4334W        W 8534   2.720  10.624  11.671
 4335W        W 8535  10.481   5.950  10.729
 4336W        W 8536   6.047   3.704   3.602
 4337W        W 8537   6.221   3.659   9.413
 4338W        W 8538   1.181   7.045  10.508
 4339W        W 8539   6.167   0.930  11.565
 4340W        W 8540   7.193  10.510  11.736
 4341W        W 8541   4.679   2.484   1.100
 4342W        W 8542   3.179  11.288  11.108
 4343W        W 8543  10.165   4.144   8.528
 4344W        W 8544   8.418  10.011  11.806
 4345W        W 8545   9.172   3.125  10.226
 4346W        W 8546   6.446   9.795   3.356
 4347W        W 8547   6.259  10.292   3.407
 4348W        W 8548   1.243   5.316   2.882
 4349W        W 8549   9.348   4.731  11.468
 4350W        W 8550   1.753   2.559   0.465
 4351W        W 8551   8.917   4.274  10.882
 4352W        W 8552   2.750   0.368   1.911
 4353W        W 8553   0.663   8.678   2.228
 4354W        W 8554   4.470   0.833   0.273
 4355W        W 8555  10.366   7.930  10.156
 4356W        W 8556   6.983  11.306  10.020
 4357W        W 8557   6.690   0.157  11.476
 4358W        W 8558  10.016   8.387  11.730
 4359W        W 8559   4.076   8.853   0.401
 4360W        W 8560  10.912   6.554   1.180
 4361W        W 8561   8.868   0.529   8.442
 4362W        W 8562   5.032   3.225   9.781
 4363W        W 8563   1.154  10.535   9.116
 4364W        W 8564   3.880  10.334   0.894
 4365W        W 8565   2.991   3.163  11.880
 4366W        W 8566   5.940   6.627   8.966
 4367W        W 8567   8.730   6.838   8.199
 4368W        W 8568   9.854   1.386   9.297
 4369W        W 8569  11.310  10.275   3.432
 4370W        W 8570   2.406   2.001  11.950
 4371W        W 8571   6.134  10.039   9.444
 4372W        W 8572  10.284   2.589   1.272
 4373W        W 8573   5.243   2.592   3.132
 4374W        W 8574   7.591   3.403  11.432
 4375W        W 8575   4.069   7.045  10.420
 4376W        W 8576   4.524   6.648  11.949
 4377W        W 8577   3.822   2.225   2.435
 4378W        W 8578   3.152   1.022   2.972
 4379W        W 8579   6.155   9.038  11.543
 4380W        W 8580   0.620   0.944   3.234
 4381W        W 8581   8.335   6.018   9.128
 4382W        W 8582   2.788  10.549   2.741
 4383W        W 8583   8.125   3.293   9.149
 4384W        W 8584  11.261   9.565   2.958
 4385W        W 8585  11.366   8.461   1.142
 4386W        W 8586   4.433   0.045   1.847
 4387W        W 8587   8.062   7.420   3.062
 4388W        W 8588  11.438   3.229   2.646
 4389W        W 8589   4.806   2.582  10.978
 4390W        W 8590  10.374   7.634   3.227
 4391W        W 8591   9.413   2.670  10.378
 4392W        W 8592  10.968   7.113   1.769
 4393W        W 8593   9.321   8.816   1.835
 4394W        W 8594   0.884   4.131   3.179
 4395W        W 8595   6.064   2.264  11.133
 4396W        W 8596   7.837  10.824   1.042
 4397W        W 8597   7.218  11.344  11.390
 4398W        W 8598   3.269   4.165  10.122
 4399W        W 8599   7.530   7.088  10.982
 4400W        W 8600   9.857   0.029   1.616
 4401W        W 8601  11.411   5.035  11.594
 4402W        W 8602   9.556   6.181   3.870
 4403W        W 8603   3.701   6.783  11.904
 4404W        W 8604  10.909  10.785   2.168
 4405W        W 8605   9.919   6.696   9.875
 4406W        W 8606   4.718   9.453   1.656
 4407W        W 8607   0.595   6.015  10.322
 4408W        W 8608   4.579   2.526   0.264
 4409W        W 8609   4.950   0.400   3.229
 4410W        W 8610   7.740   4.546   9.512
 4411W        W 8611   3.129   1.303   1.053
 4412W        W 8612   8.480   2.218   8.941
 4413W        W 8613   0.802   2.857   0.161
 4414W        W 8614   4.330   9.049   2.810
 4415W        W 8615   7.993   2.848   3.310
 4416W        W 8616   0.332   3.129   1.941
 4417W        W 8617   3.465   6.676   3.570
 4418W        W 8618   0.154   2.569   9.533
 4419W        W 8619   8.928   2.478   9.000
 4420W        W 8620   9.224   8.334   1.825
 4421W        W 8621   9.844   9.954  10.726
 4422W        W 8622  10.361   9.020  10.417
 4423W        W 8623   6.384   7.987   3.699
 4424W        W 8624   5.591   3.354   0.613
 4425W        W 8625   9.943   4.407   3.166
 4426W        W 8626  11.011   3.602   2.247
 4427W        W 8627  10.859   1.975   9.622
 4428W        W 8628   3.475   7.679   1.304
 4429W        W 8629   3.259   1.959  11.747
 4430W        W 8630   9.004   6.127  11.875
 4431W        W 8631   0.733   1.191   1.954
 4432W        W 8632   3.792   9.506   1.694
 4433W        W 8633   5.782   1.352   3.005
 4434W        W 8634  10.726   2.732   2.267
 4435W        W 8635   8.726   9.123   2.886
 4436W        W 8636   1.167   1.555   8.468
 4437W        W 8637  10.282  10.977   9.078
 4438W        W 8638   6.631   0.020   3.435
 4439W        W 8639   1.438   4.743   9.048
 4440W        W 8640   4.593  11.365   8.581
 4441W        W 8641   9.800   3.614   0.840
 4442W        W 8642   2.794   2.468   1.804
 4443W        W 8643   6.813   6.295   9.277
 4444W        W 8644   2.359   8.436  11.260
 4445W        W 8645   3.196   0.035   0.872
 4446W        W 8646   3.056   3.739  11.747
 4447W        W 8647   7.567   0.266   2.185
 4448W        W 8648   0.222   2.850   2.432
 4449W        W 8649   5.153   8.167   2.435
 4450W        W 8650  11.328   0.464   9.085
 4451W        W 8651   1.320   1.822   2.177
 4452W        W 8652   1.256   3.257   9.311
 4453W        W 8653   9.966   4.350   0.400
 4454W        W 8654   9.441   1.566   1.773
 4455W        W 8655   2.609   8.354   0.516
 4456W        W 8656   9.802  10.581   9.919
 4457W        W 8657   1.296   3.315   0.708
 4458W        W 8658   1.691   1.454   3.511
 4459W        W 8659   1.966   9.863   9.317
 4460W        W 8660   2.359   5.824  10.896
 4461W        W 8661   0.987   5.015   9.596
 4462W        W 8662   7.569   3.148   9.198
 4463W        W 8663   0.087   5.944  10.362
 4464W        W 8664   9.256   4.568  10.588
 4465W        W 8665   3.081   0.611   3.256
 4466W        W 8666   9.260   1.190  10.999
 4467W        W 8667  10.405   6.777   2.384
 4468W        W 8668   9.010   1.199   1.280
 4469W        W 8669   4.757   1.707  11.191
 4470W        W 8670   9.405   6.353  10.117
 4471W        W 8671   1.823   3.747   3.196
 4472W        W 8672   9.491   5.029   9.539
 4473W        W 8673  10.924   4.397  11.307
 4474W        W 8674   6.124   9.215   1.513
 4475W        W 8675   4.434   7.790   9.343
 4476W        W 8676   7.015   8.902   9.048
 4477W        W 8677   8.210   0.846  10.265
 4478W        W 8678   8.644   6.640   8.673
 4479W        W 8679   2.890   9.296   2.047
 4480W        W 8680   6.033   6.829   2.595
 4481W        W 8681   3.403   6.221   9.695
 4482W        W 8682   6.767   9.358   0.109
 4483W        W 8683   7.047   3.238  11.616
 4484W        W 8684   1.522   6.107  11.726
 4485W        W 8685   1.132   8.453   3.392
 4486W        W 8686   8.917   6.616   0.017
 4487W        W 8687   3.151   6.128   8.785
 4488W        W 8688   8.024   2.841  10.809
 4489W        W 8689  11.366  10.829   9.169
 4490W        W 8690   1.286   2.253   9.529
 4491W        W 8691   2.575   6.811   3.644
 4492W        W 8692   2.267   3.376   9.134
 4493W        W 8693   0.918   1.665   1.910
 4494W        W 8694   4.052   5.096  11.536
 4495W        W 8695   3.762   0.803  10.003
 4496W        W 8696  10.958   3.965   9.637
 4497W        W 8697   5.690   0.143   9.969
 4498W        W 8698   8.629   1.766   9.855
 4499W        W 8699   7.468   1.855   1.929
 4500W        W 8700  10.837   4.297   3.398
 4501W        W 8701   0.941   2.848   8.965
 4502W        W 8702   4.782   8.041   1.495
 4503W        W 8703   9.068   1.220   2.160
 4504W        W 8704   9.955   5.078  10.792
 4505W        W 8705   5.882   4.110   1.288
 4506W        W 8706   2.155   8.492   0.276
 4507W        W 8707   8.818   3.036   9.789
 4508W        W 8708  10.827   1.844   2.269
 4509W        W 8709   4.240   4.651  10.251
 4510W        W 8710   5.525   5.471  10.939
 4511W        W 8711   1.740   4.265   3.254
 4512W        W 8712   0.444   2.673  11.044
 4513W        W 8713   4.365   0.899   0.855
 4514W        W 8714   4.502  10.565  11.833
 4515W        W 8715  10.573   0.075  11.239
 4516W        W 8716   4.849   6.160   1.521
 4517W        W 8717   8.903   0.686   1.186
 4518W        W 8718  10.799   0.869  11.316
 4519W        W 8719   8.096   2.463   2.364
 4520W        W 8720   7.646  10.863   3.031
 4521W        W 8721   5.626   7.579  10.951
 4522W        W 8722   8.405   2.826   2.591
 4523W        W 8723   4.256   0.733   2.922
 4524W        W 8724   8.541   9.326   9.633
 4525W        W 8725   3.097   1.924  10.351
 4526W        W 8726   8.859   2.927   9.255
 4527W        W 8727   3.381   6.074   0.271
 4528W        W 8728   1.943   9.358   8.722
 4529W        W 8729   3.564   9.031  11.531
 4530W        W 8730   6.104   4.528   8.371
 4531W        W 8731   9.415   5.749   1.966
 4532W        W 8732   4.722  11.319   0.448
 4533W        W 8733   6.300   1.649  10.522
 4534W        W 8734   3.582   1.029  11.368
 4535W        W 8735   0.002   3.160  11.581
 4536W        W 8736   3.901   4.381   8.582
 4537W        W 8737   6.508   2.350   9.849
 4538W        W 8738   5.207   9.128   2.794
 4539W        W 8739   1.880   0.933  11.172
 4540W        W 8740   3.941   0.521   3.365
 4541W        W 8741   6.983   3.636   9.925
 4542W        W 8742   2.138   2.061   1.953
 4543W        W 8743   3.469   4.593   9.858
 4544W        W 8744   6.524   7.297  11.042
 4545W        W 8745   7.166   6.423   9.633
 4546W        W 8746   2.184   3.306  10.971
 4547W        W 8747   7.280   4.969   8.410
 4548W        W 8748   8.560   4.124  11.254
 4549W        W 8749  10.753   9.521  10.586
 4550W        W 8750   4.147   7.079  11.820
 4551W        W 8751   6.873   2.251  10.579
 4552W        W 8752  10.518   1.771  11.347
 4553W        W 8753   3.896   9.354   0.306
 4554W        W 8754   6.523   7.456  10.046
 4555W        W 8755   7.139   0.345   0.640
 4556W        W 8756   4.597   4.157   9.095
 4557W        W 8757   6.945   3.514   1.747
 4558W        W 8758   9.668   3.997   9.369
 4559W        W 8759   9.101  11.004   3.495
 4560W        W 8760   3.585   3.805   3.012
 4561W        W 8761   7.812   3.525   0.702
 4562W        W 8762   4.215   9.926   2.293
 4563W        W 8763   7.211   0.443  10.552
 4564W        W 8764   9.438   6.849   1.678
 4565W        W 8765   2.889   6.531   9.053
 4566W        W 8766   0.042   0.665   0.635
 4567W        W 8767   2.686  10.287   2.213
 4568W        W 8768   3.150   8.501   3.319
 4569W        W 8769   8.608   8.646   9.060
 4570W        W 8770  11.355   7.526  11.095
 4571W        W 8771   4.193   3.348  10.924
 4572W        W 8772   7.138   2.271   1.327
 4573W        W 8773   5.253   3.115   4.001
 4574W        W 8774   6.568   8.803   3.343
 4575W        W 8775   8.864   1.980   0.766
 4576W        W 8776  10.084   7.947  11.972
 4577W        W 8777  11.329   6.819   3.150
 4578W        W 8778   3.291   9.494   9.361
 4579W        W 8779   0.085   6.973   9.344
 4580W        W 8780   4.625  11.259  11.110
 4581W        W 8781  10.007   9.907   2.189
 4582W        W 8782  10.899   3.101  10.452
 4583W        W 8783  10.314  10.321   2.648
 4584W        W 8784   2.408   9.480   1.187
 4585W        W 8785   2.308   7.379   3.569
 4586W        W 8786  10.809   6.717   3.148
 4587W        W 8787  11.217   7.538   3.355
 4588W        W 8788   6.569   4.248  10.292
 4589W        W 8789   9.527   9.474   1.022
 4590W        W 8790   2.149   7.386   9.496
 4591W        W 8791   8.983   1.733   8.386
 4592W        W 8792   0.345   3.138   0.344
 4593W        W 8793   9.078  10.022   2.516
 4594W        W 8794   0.532   3.505   3.662
 4595W        W 8795   8.788   2.853   8.618
 4596W        W 8796  11.353   7.462  10.568
 4597W        W 8797  10.318   2.864   0.828
 4598W        W 8798   5.083   4.797  11.219
 4599W        W 8799   2.826   5.533   9.694
 4600W        W 8800   1.483   2.754   1.987
 4601W        W 8801   6.406   3.536   1.779
 4602W        W 8802   5.188   1.654   8.722
 4603W        W 8803   3.406   3.839   2.529
 4604W        W 8804   9.638  10.453   0.775
 4605W        W 8805   5.635   6.259  10.698
 4606W        W 8806   8.711   8.463  10.159
 4607W        W 8807   1.749   2.253   9.269
 4608W        W 8808  10.517   3.789   9.834
 4609W        W 8809   3.803   4.701   9.008
 4610W        W 8810   5.381   7.406   9.327
 4611W        W 8811   5.539   2.433   1.951
 4612W        W 8812   5.570   0.715  11.215
 4613W        W 8813   6.681   8.512  11.973
 4614W        W 8814   1.845   6.672   0.832
 4615W        W 8815   2.845   9.279  10.394
 4616W        W 8816  10.461   1.158   0.244
 4617W        W 8817   6.999   7.802   9.469
 4618W        W 8818   1.395  10.371  10.994
 4619W        W 8819   3.460   0.921   2.550
 4620W        W 8820  10.798   5.449   0.274
 4621W        W 8821   8.162   3.157   0.672
 4622W        W 8822   3.123   1.417  11.551
 4623W        W 8823   8.304   3.169   9.930
 4624W        W 8824   1.837  10.557  11.732
 4625W        W 8825  10.876   7.525   0.831
 4626W        W 8826   0.043  10.473  10.865
 4627W        W 8827  11.015   2.210  11.076
 4628W        W 8828  11.162   4.146  11.725
 4629W        W 8829   1.508   2.302  11.390
 4630W        W 8830   8.874   0.185  11.749
 4631W        W 8831  10.805   5.757   1.803
 4632W        W 8832   9.213   0.126  10.358
 4633W        W 8833   5.057   7.698   2.611
 4634W        W 8834   9.035   6.743  10.456
 4635W        W 8835   3.548   9.086   9.624
 4636W        W 8836   4.223   6.146  10.267
 4637W        W 8837   2.335   2.588   2.616
 4638W        W 8838   6.674   9.329   3.345
 4639W        W 8839   6.113   8.837   9.854
 4640W        W 8840   8.201   4.060  11.604
 4641W        W 8841   1.289  10.889   1.021
 4642W        W 8842   3.139   2.932   9.089
 4643W        W 8843   6.990   0.142  10.996
 4644W        W 8844   3.782   1.951   0.126
 4645W        W 8845   5.741   2.632  10.984
 4646W        W 8846   3.608   4.904   8.585
 4647W        W 8847  10.373   3.369   9.526
 4648W        W 8848  10.499   7.390   1.157
 4649W        W 8849   2.678   9.651  11.926
 4650W        W 8850  10.425   3.343  10.029
 4651W        W 8851   9.867   2.567   0.958
 4652W        W 8852   6.456   6.590  10.361
 4653W        W 8853  10.770  10.576  10.443
 4654W        W 8854   3.601  10.129  11.988
 4655W        W 8855   4.759   4.067   0.336
 4656W        W 8856  11.255   7.683   2.593
 4657W        W 8857   7.267   9.625   0.541
 4658W        W 8858  10.715   3.398   3.323
 4659W        W 8859  10.288   9.343  10.827
 4660W        W 8860   1.887   6.062   1.942
 4661W        W 8861   8.973   3.765   1.956
 4662W        W 8862  10.231  10.868   1.434
 4663W        W 8863   0.305   6.365   2.403
 4664W        W 8864   5.214   0.689  11.891
 4665W        W 8865   5.758   5.264   1.783
 4666W        W 8866   3.463   1.181   0.356
 4667W        W 8867   9.525   7.772  10.945
 4668W        W 8868   9.992   6.574   9.383
 4669W        W 8869   9.980   0.613  11.415
 4670W        W 8870   2.233   8.931   0.022
 4671W        W 8871  10.014   5.253   1.005
 4672W        W 8872  10.108   6.103   0.503
 4673W        W 8873   9.508   9.881   8.982
 4674W        W 8874   7.734   0.270   9.830
 4675W        W 8875   7.978   0.844   2.919
 4676W        W 8876   4.310   5.364   2.743
 4677W        W 8877   1.355   4.796  10.590
 4678W        W 8878   2.694   4.295   3.023
 4679W        W 8879   1.202   4.892  10.094
 4680W        W 8880   4.773   1.379   1.961
 4681W        W 8881  11.016   9.090   0.142
 4682W        W 8882   9.694   7.148  11.265
 4683W        W 8883   2.646   6.390   8.627
 4684W        W 8884   6.226   7.704   8.370
 4685W        W 8885  10.504   6.660   9.475
 4686W        W 8886   4.825   8.805  11.859
 4687W        W 8887   5.173   2.657   4.215
 4688W        W 8888   5.661   2.738   9.494
 4689W        W 8889   5.892   9.970   2.684
 4690W        W 8890   9.625   6.916   2.793
 4691W        W 8891   5.020   3.227  11.955
 4692W        W 8892   8.884   0.349  10.756
 4693W        W 8893  11.359   8.374   9.983
 4694W        W 8894   1.019   9.296  10.716
 4695W        W 8895   2.615   7.442   0.204
 4696W        W 8896   4.049   3.351   9.340
 4697W        W 8897   5.629   7.549   8.880
 4698W        W 8898   2.537   3.054  11.569
 4699W        W 8899   6.640  11.112   0.052
 4700W        W 8900   8.132   9.613  10.512
 4701W        W 8901  10.211   7.993   1.675
 4702W        W 8902   0.736   0.957   9.523
 4703W        W 8903   7.621   4.864   0.341
 4704W        W 8904   6.494   1.055  11.941
 4705W        W 8905   4.615   3.060  11.066
 4706W        W 8906  10.516   4.127   9.467
 4707W        W 8907   1.459  10.856  11.252
 4708W        W 8908   5.186   0.785   3.509
 4709W        W 8909   9.106  10.297   0.019
 4710W        W 8910   9.986   3.827   2.226
 4711W        W 8911   0.272   6.609   2.974
 4712W        W 8912   3.535   3.368   9.447
 4713W        W 8913   3.710   3.376   3.265
 4714W        W 8914   8.360   4.571   8.926
 4715W        W 8915   3.759   4.107  11.045
 4716W        W 8916   6.867   3.110   2.835
 4717W        W 8917   0.986   1.642   8.964
 4718W        W 8918   8.475   6.385   2.216
 4719W        W 8919   5.244   4.235   9.527
 4720W        W 8920   3.369  10.080   8.678
 4721W        W 8921   5.658   6.614   0.587
 4722W        W 8922   0.259   8.649   1.928
 4723W        W 8923   8.188   8.413   8.437
 4724W        W 8924   1.421   4.323  10.811
 4725W        W 8925   3.562   1.215   9.783
 4726W        W 8926   5.181   8.814   3.605
 4727W        W 8927  10.892   4.421   1.793
 4728W        W 8928  10.462   4.987   9.877
 4729W        W 8929  11.290   7.756  11.542
 4730W        W 8930   0.837   0.755   2.208
 4731W        W 8931   5.555   4.487  10.700
 4732W        W 8932   8.190  11.500   1.159
 4733W        W 8933  11.267   0.874  10.463
 4734W        W 8934   7.009   1.121  11.048
 4735W        W 8935   0.782   0.192  10.051
 4736W        W 8936   1.941  11.332   3.235
 4737W        W 8937   9.012   1.721   1.284
 4738W        W 8938   4.722   2.350   9.532
 4739W        W 8939   9.856   2.929   3.213
 4740W        W 8940   3.808   3.638   0.200
 4741W        W 8941   7.701   0.279   1.155
 4742W        W 8942   8.219   9.007   9.979
 4743W        W 8943  10.045   9.222   8.690
 4744W        W 8944   7.402  10.868   9.551
 4745W        W 8945  11.475   1.166   2.630
 4746W        W 8946  10.950   5.920   0.288
 4747W        W 8947   5.560   2.170   1.510
 4748W        W 8948   4.582   3.234   3.222
 4749W        W 8949   8.569   5.232   0.945
 4750W        W 8950   8.313   7.035   8.839
 4751W        W 8951   3.286  10.488   0.235
 4752W        W 8952  10.365   6.541   1.479
 4753W        W 8953   7.938   2.948   2.383
 4754W        W 8954   3.206   3.862   8.835
 4755W        W 8955   5.529   5.786  10.469
 4756W        W 8956   3.226   8.068   8.670
 4757W        W 8957   9.040   0.163  11.237
 4758W        W 8958   4.219   6.751   1.261
 4759W        W 8959   0.802   0.053  10.554
 4760W        W 8960  10.813   4.677   2.601
 4761W        W 8961  11.085   6.846   9.268
 4762W        W 8962  11.490   3.977   8.992
 4763W        W 8963  10.917   5.381   1.471
 4764W        W 8964  11.413   6.497   9.471
 4765W        W 8965   9.989   1.361   0.265
 4766W        W 8966   4.115   6.999   9.296
 4767W        W 8967   1.793   3.332   1.737
 4768W        W 8968  10.118  10.549   0.754
 4769W        W 8969   8.360   2.214   9.761
 4770W        W 8970   6.730   4.560   9.408
 4771W        W 8971  10.564   2.790   1.689
 4772W        W 8972   4.987   6.988   3.082
 4773W        W 8973   0.236   2.137   9.793
 4774W        W 8974   7.845   8.030   2.272
 4775W        W 8975   3.966   6.004  11.514
 4776W        W 8976  11.345   4.628   1.865
 4777W        W 8977   4.580   7.568   0.334
 4778W        W 8978   5.606   4.581   2.459
 4779W        W 8979  10.471   7.543   9.354
 4780W        W 8980   7.476   4.339  11.401
 4781W        W 8981   8.333   8.692   2.815
 4782W        W 8982   3.668   3.259   1.870
 4783W        W 8983   2.028   7.001  10.305
 4784W        W 8984  10.280   1.777   1.138
 4785W        W 8985  11.393   8.786   8.524
 4786W        W 8986  10.147   2.194   1.933
 4787W        W 8987   7.168   9.927   2.733
 4788W        W 8988   0.310   6.222  11.170
 4789W        W 8989   1.234   0.993   2.018
 4790W        W 8990  10.465   9.853   2.965
 4791W        W 8991   8.713  11.496  10.443
 4792W        W 8992   9.332   2.206  11.114
 4793W        W 8993   8.535   3.496   1.271
 4794W        W 8994   9.138   5.210  10.843
 4795W        W 8995   4.778   7.922   0.022
 4796W        W 8996  11.427  11.393  10.755
 4797W        W 8997   0.674   9.502   3.335
 4798W        W 8998   0.457  11.488   9.727
 4799W        W 8999   1.946   7.926  11.801
 4800W        W 9000  10.434   8.519   8.859
 4801W        W 9001   3.821   2.918  10.338
 4802W        W 9002   4.874   4.997   1.400
 4803W        W 9003   1.136   2.814   0.586
 4804W        W 9004   7.383   3.778   0.743
 4805W        W 9005   8.535   6.770  10.739
 4806W        W 9006   2.128   4.739   0.349
 4807W        W 9007   4.748   1.602  10.700
 4808W        W 9008   1.533   2.856   0.923
 4809W        W 9009   9.041  10.976   0.353
 4810W        W 9010   0.687   7.109   2.177
 4811W        W 9011   1.240   2.809  11.299
 4812W        W 9012  11.017  10.138   1.815
 4813W        W 9013   4.783   1.287   2.480
 4814W        W 9014   9.599   9.797   2.968
 4815W        W 9015  10.804   4.567   0.660
 4816W        W 9016   5.969   6.102   9.737
 4817W        W 9017   9.957   5.304   0.408
 4818W        W 9018   9.187   4.737   9.194
 4819W        W 9019   9.097   7.656  10.135
 4820W        W 9020   0.238   2.266   1.823
 4821W        W 9021   9.933  11.089  11.305
 4822W        W 9022   9.511  10.120   9.465
 4823W        W 9023   9.428   6.622  11.255
 4824W        W 9024   1.162   9.606   3.373
 4825W        W 9025   9.787   8.602   1.968
 4826W        W 9026   8.062   4.570   0.204
 4827W        W 9027   9.956   1.887   0.161
 4828W        W 9028   6.579   7.506   8.697
 4829W        W 9029   7.137   4.555   8.685
 4830W        W 9030   0.498   7.922   9.603
 4831W        W 9031   3.444   6.050   1.219
 4832W        W 9032   1.587   6.172  10.029
 4833W        W 9033   1.728   0.859   2.126
 4834W        W 9034   5.945   1.373   2.050
 4835W        W 9035   1.096   8.532   2.430
 4836W        W 9036   1.853   4.047  10.901
 4837W        W 9037   6.692   2.376   3.544
 4838W        W 9038   6.529   8.533   1.630
 4839W        W 9039   0.902   3.653   0.814
 4840W        W 9040   6.866  11.177   3.143
 4841W        W 9041   1.208   5.549   9.410
 4842W        W 9042   6.854   1.187   1.943
 4843W        W 9043  10.439   9.975  11.924
 4844W        W 9044   6.713   4.688   0.155
 4845W        W 9045   1.606   7.984   0.876
 4846W        W 9046   0.284   3.493  10.798
 4847W        W 9047  10.015   7.562  11.119
 4848W        W 9048   7.110  10.179  11.329
 4849W        W 9049   7.981   5.227   0.308
 4850W        W 9050   5.624   1.367   8.800
 4851W        W 9051   8.917   6.206   8.855
 4852W        W 9052   2.273   4.138   8.525
 4853W        W 9053   5.132   5.649  11.241
 4854W        W 9054   4.733   8.580  10.254
 4855W        W 9055   7.740   1.827   2.974
 4856W        W 9056   0.159   9.469   9.508
 4857W        W 9057   7.676   1.327  11.383
 4858W        W 9058   6.315   4.033   2.244
 4859W        W 9059   0.618   2.213  10.145
 4860W        W 9060   7.582   6.218  11.956
 4861W        W 9061   0.806   5.215  10.222
 4862W        W 9062   7.975   2.460   8.852
 4863W        W 9063   7.407   4.285   0.744
 4864W        W 9064   8.363   3.284  11.767
 4865W        W 9065   8.580   4.573   9.804
 4866W        W 9066   0.386   0.305  11.488
 4867W        W 9067   3.023   3.494   2.376
 4868W        W 9068   8.996   0.450   0.697
 4869W        W 9069   0.333   8.345  11.408
 4870W        W 9070   3.062   5.597   3.208
 4871W        W 9071   2.007   1.016  11.680
 4872W        W 9072  10.514   8.373  11.016
 4873W        W 9073   5.852  10.041   8.951
 4874W        W 9074   2.573   5.985   9.515
 4875W        W 9075   4.157   0.540   0.547
 4876W        W 9076   4.348   8.141   2.744
 4877W        W 9077   8.767   7.106   3.149
 4878W        W 9078   8.043   1.924  11.011
 4879W        W 9079   3.947   8.658   2.210
 4880W        W 9080   2.633  11.014   2.951
 4881W        W 9081   9.659   4.249   2.224
 4882W        W 9082   5.563   1.828   9.041
 4883W        W 9083   3.750   4.619  11.152
 4884W        W 9084   0.410   5.242  11.572
 4885W        W 9085   5.631   4.800   0.661
 4886W        W 9086   7.905   8.746   9.525
 4887W        W 9087   0.735   3.077   8.531
 4888W        W 9088   2.885   7.039   1.484
 4889W        W 9089   5.765  10.876  10.404
 4890W        W 9090   1.278  11.388   9.315
 4891W        W 9091   2.504   2.553   3.127
 4892W        W 9092   0.595   2.658   9.311
 4893W        W 9093   9.755   9.071   1.754
 4894W        W 9094   1.453   6.162   2.179
 4895W        W 9095   9.359   2.827  11.834
 4896W        W 9096   6.157  11.041   9.594
 4897W        W 9097   1.809   3.595  10.684
 4898W        W 9098   1.746   9.908  10.583
 4899W        W 9099   4.384  10.492  10.086
 4900W        W 9100   7.707   0.846  11.945
 4901W        W 9101   5.123   8.506   1.083
 4902W        W 9102   3.229   2.190   1.760
 4903W        W 9103   0.660   9.150  11.075
 4904W        W 9104   9.546   2.341   9.625
 4905W        W 9105   9.943   2.160   1.289
 4906W        W 9106   9.281  11.407  11.659
 4907W        W 9107   7.927   5.502  10.500
 4908W        W 9108  10.602   3.112   0.465
 4909W        W 9109   5.662   8.503   0.742
 4910W        W 9110   5.095   6.334   2.429
 4911W        W 9111   7.458   1.318   8.769
 4912W        W 9112   6.541   1.151  10.334
 4913W        W 9113   7.589   6.518   1.319
 4914W        W 9114   0.552  10.360   0.945
 4915W        W 9115   4.005   7.611   1.377
 4916W        W 9116   5.787   9.958  10.307
 4917W        W 9117   8.493   2.655  10.533
 4918W        W 9118   9.344   7.945   0.223
 4919W        W 9119   3.064   9.127   1.529
 4920W        W 9120   1.872   4.510   3.682
 4921W        W 9121   1.684   0.179   1.207
 4922W        W 9122   7.480   0.909  10.451
 4923W        W 9123   7.377   7.322  10.152
 4924W        W 9124   1.812   1.238   3.080
 4925W        W 9125   9.497   7.626  11.455
 4926W        W 9126   6.600   3.946   2.680
 4927W        W 9127   1.111   5.142  11.868
 4928W        W 9128   0.029   7.248   8.907
 4929W        W 9129   2.048   5.926   9.568
 4930W        W 9130   9.388   9.784  10.891
 4931W        W 9131   1.788   4.912   1.047
 4932W        W 9132   2.862  11.068   2.505
 4933W        W 9133   0.450   1.733   9.592
 4934W        W 9134  10.368   2.228  11.944
 4935W        W 9135   7.019   9.573  11.249
 4936W        W 9136  11.301   6.700   0.852
 4937W        W 9137   6.943   6.095  10.056
 4938W        W 9138   4.641   4.526   3.130
 4939W        W 9139   3.290   3.158   3.583
 4940W        W 9140   5.147   8.886   9.993
 4941W        W 9141   3.883  10.873  10.738
 4942W        W 9142   4.337   0.943  10.831
 4943W        W 9143   4.754   2.814   0.715
 4944W        W 9144   9.829   7.683   1.899
 4945W        W 9145   2.776  11.460  11.359
 4946W        W 9146   7.229  11.396   1.871
 4947W        W 9147  10.851   2.601  10.321
 4948W        W 9148   9.889   6.377  10.310
 4949W        W 9149   2.681   3.091   2.374
 4950W        W 9150   6.421   8.733   8.260
 4951W        W 9151  10.941   9.589  11.968
 4952W        W 9152   0.823   2.432   0.422
 4953W        W 9153   5.462   4.102   9.065
 4954W        W 9154   2.896  10.945  10.812
 4955W        W 9155   8.613   6.406   1.270
 4956W        W 9156   5.112   9.453   2.429
 4957W        W 9157   5.860   6.684   2.141
 4958W        W 9158   9.985   1.976   3.438
 4959W        W 9159   0.805   6.261   0.912
 4960W        W 9160   0.725  10.830   1.697
 4961W        W 9161   5.748   9.183  11.833
 4962W        W 9162   2.655   2.258   9.497
 4963W        W 9163   0.275   1.340   3.467
 4964W        W 9164   9.920   4.292   2.655
 4965W        W 9165   3.823   8.109  11.805
 4966W        W 9166   2.978   5.646   8.592
 4967W        W 9167  10.002   6.173  10.774
 4968W        W 9168   5.496   0.980   9.106
 4969W        W 9169  11.389   2.650   0.524
 4970W        W 9170   9.801  10.927   0.939
 4971W        W 9171   9.993  10.806   2.733
 4972W        W 9172   2.743   7.983   9.510
 4973W        W 9173  10.777   7.640   2.386
 4974W        W 9174   4.745   7.574   1.723
 4975W        W 9175  10.753   4.942   3.586
 4976W        W 9176  10.310   1.929  10.923
 4977W        W 9177   1.605   6.152   0.996
 4978W        W 9178  10.338   6.974   9.044
 4979W        W 9179   8.106   9.948   0.256
 4980W        W 9180   6.939   4.407   1.811
 4981W        W 9181   4.630   4.719   3.606
 4982W        W 9182   6.567   5.457   0.457
 4983W        W 9183   7.920   9.967   9.991
 4984W        W 9184   5.031   4.539   3.890
 4985W        W 9185   2.229   3.291   2.220
 4986W        W 9186   5.659   9.088   3.046
 4987W        W 9187   5.541   4.101   2.581
 4988W        W 9188   2.536   2.682   0.870
 4989W        W 9189  10.253   7.265   2.337
 4990W        W 9190   5.662   3.183   8.877
 4991W        W 9191   8.439  11.001  11.741
 4992W        W 9192   1.035   4.088   0.522
 4993W        W 9193   3.382   6.609  10.324
 4994W        W 9194  10.311   6.572  11.972
 4995W        W 9195   4.163   9.084   9.105
 4996W        W 9196   9.921   5.696   9.945
 4997W        W 9197   3.495   8.501   8.933
 4998W        W 9198   4.372  10.980  10.753
 4999W        W 9199  10.022   1.664  10.058
 5000W        W 9200  10.096   1.354   8.828
 5001W        W 9201  10.056   0.858   0.036
 5002W        W 9202   6.083   5.781   1.704
 5003W        W 9203   1.257   9.446  10.014
 5004W        W 9204   2.515   7.714   2.708
 5005W        W 9205   9.961   0.836   8.913
 5006W        W 9206   3.987   1.336  11.481
 5007W        W 9207   2.129   1.701   3.376
 5008W        W 9208   8.662   3.074  10.279
 5009W        W 9209  10.489  10.808   3.364
 5010W        W 9210   2.289   9.361  11.187
 5011W        W 9211   8.445   2.648   2.043
 5012W        W 9212   7.475  11.329   8.799
 5013W        W 9213   8.107   0.846   8.464
 5014W        W 9214   0.189   6.077   2.798
 5015W        W 9215   8.697   9.996   2.862
 5016W        W 9216   4.545   5.304   9.668
 5017W        W 9217   5.966   6.271   2.632
 5018W        W 9218   3.676  10.796   2.788
 5019W        W 9219   1.595   5.598   3.182
 5020W        W 9220   4.726   4.528   2.616
 5021W        W 9221   8.112   4.617   3.551
 5022W        W 9222   6.844   9.365   0.669
 5023W        W 9223   0.092   5.655  10.815
 5024W        W 9224   0.636   1.470   0.730
 5025W        W 9225   2.342   0.655   0.773
 5026W        W 9226   8.360   2.147   3.719
 5027W        W 9227   4.908   6.079   1.009
 5028W        W 9228  10.217  11.410   9.383
 5029W        W 9229   7.101   2.633   9.798
 5030W        W 9230  10.903   7.554   9.658
 5031W        W 9231   5.546   6.438  11.282
 5032W        W 9232   0.968   2.350   9.126
 5033W        W 9233   5.493   0.003   0.022
 5034W        W 9234   1.612   3.486  10.192
 5035W        W 9235   4.724   2.812   2.006
 5036W        W 9236   4.956   8.067   1.978
 5037W        W 9237   8.555   5.474   9.840
 5038W        W 9238   0.707   4.163  11.001
 5039W        W 9239  11.264   2.258   9.449
 5040W        W 9240   9.620   8.369   9.915
 5041W        W 9241   5.783   9.864   2.013
 5042W        W 9242   6.970   4.570   0.905
 5043W        W 9243   4.798   1.652   0.429
 5044W        W 9244   2.288  11.250  11.431
 5045W        W 9245   1.255   0.483   1.906
 5046W        W 9246   4.084   2.322   0.302
 5047W        W 9247   7.231   4.460   9.553
 5048W        W 9248   9.896  10.477   9.398
 5049W        W 9249   1.932   6.387  10.449
 5050W        W 9250   7.013   8.296   9.731
 5051W        W 9251   0.754   8.397   0.399
 5052W        W 9252   9.389   3.910   1.667
 5053W        W 9253   9.866   2.615   2.825
 5054W        W 9254   6.758  10.745   1.868
 5055W        W 9255   5.479   8.097   2.024
 5056W        W 9256   9.402   0.945  11.884
 5057W        W 9257   5.505  11.035   9.044
 5058W        W 9258   6.230   2.751   9.884
 5059W        W 9259   2.270   7.102   0.069
 5060W        W 9260  11.328  11.332   9.364
 5061W        W 9261   5.662   0.698  10.713
 5062W        W 9262  10.856   8.337   9.635
 5063W        W 9263  10.284   5.968  11.197
 5064W        W 9264   6.967   3.168   1.374
 5065W        W 9265   2.747   8.496   9.478
 5066W        W 9266  10.858   7.621   1.866
 5067W        W 9267   9.404   4.394  11.053
 5068W        W 9268   7.476  11.337   9.320
 5069W        W 9269  10.816   3.925   1.904
 5070W        W 9270   2.583   6.300   9.997
 5071W        W 9271  10.591   7.874   0.009
 5072W        W 9272   0.455  11.330   0.699
 5073W        W 9273  11.432   5.025   2.166
 5074W        W 9274   4.604  11.430   9.123
 5075W        W 9275   8.912   5.370   8.554
 5076W        W 9276   8.880   2.832   2.831
 5077W        W 9277   0.483   3.611  11.541
 5078W        W 9278   8.443   2.951   1.550
 5079W        W 9279   8.066   3.921   1.912
 5080W        W 9280   0.506   5.374  11.002
 5081W        W 9281   2.454   2.529  11.866
 5082W        W 9282   2.775   3.115   1.426
 5083W        W 9283   6.176  10.561   9.407
 5084W        W 9284   4.667  10.890   1.329
 5085W        W 9285   1.040   9.501   0.784
 5086W        W 9286   4.661   6.814   2.302
 5087W        W 9287   5.200   9.859   9.021
 5088W        W 9288   0.278   9.906   0.927
 5089W        W 9289   5.811   7.087   0.387
 5090W        W 9290   7.898   6.942   2.985
 5091W        W 9291   3.847  10.794   9.877
 5092W        W 9292   2.597   6.207  11.888
 5093W        W 9293   1.378   2.024   8.977
 5094W        W 9294   0.832   1.884  10.925
 5095W        W 9295   4.094   0.867  11.285
 5096W        W 9296   2.033  11.112  10.090
 5097W        W 9297   1.338   7.837   8.808
 5098W        W 9298   2.163   4.953   1.501
 5099W        W 9299   2.651   9.737  10.567
 5100W        W 9300  10.537  11.239   2.263
 5101W        W 9301   6.290   0.442   3.333
 5102W        W 9302   3.857   7.347   2.240
 5103W        W 9303   3.851   8.528   2.706
 5104W        W 9304  10.035   3.303   1.433
 5105W        W 9305   3.483   2.218  10.493
 5106W        W 9306   0.367   9.607   1.566
 5107W        W 9307   8.852   4.123   9.889
 5108W        W 9308   0.178   3.665   2.760
 5109W        W 9309   0.501   3.060  10.679
 5110W        W 9310   4.167  10.819   1.881
 5111W        W 9311   4.133  10.912  10.299
 5112W        W 9312   5.368   9.465   0.321
 5113W        W 9313   0.257  10.434   3.237
 5114W        W 9314  10.578   0.885  11.836
 5115W        W 9315   2.878   8.611   2.884
 5116W        W 9316   9.524   2.710   3.514
 5117W        W 9317   5.760   7.793  10.031
 5118W        W 9318   8.550   1.470   1.337
 5119W        W 9319   8.118   9.411   1.052
 5120W        W 9320   9.370   2.731  11.322
 5121W        W 9321   6.751   7.888   9.916
 5122W        W 9322   5.778   4.816  10.354
 5123W        W 9323   7.655  10.295  10.798
 5124W        W 9324   5.099   5.712  10.734
 5125W        W 9325   9.151   3.740   0.200
 5126W        W 9326   2.175   0.802   8.900
 5127W        W 9327   0.270   7.564   3.291
 5128W        W 9328   6.856   8.592   2.970
 5129W        W 9329   0.663  10.355   2.348
 5130W        W 9330   2.944   0.263  10.958
 5131W        W 9331   2.973   4.574   9.975
 5132W        W 9332   6.495   4.046   0.831
 5133W        W 9333   3.771   4.663   8.165
 5134W        W 9334   4.804   2.725   1.534
 5135W        W 9335   8.148   1.811   9.987
 5136W        W 9336   3.361   2.373   0.015
 5137W        W 9337   8.498   1.883  11.245
 5138W        W 9338   3.759  10.349   8.954
 5139W        W 9339   9.603   0.620   0.238
 5140W        W 9340   8.595   5.007  10.130
 5141W        W 9341   6.663  10.374  11.101
 5142W        W 9342   9.557   2.364   2.214
 5143W        W 9343  10.699   1.333  11.547
 5144W        W 9344   1.415   3.886  11.476
 5145W        W 9345   8.052   2.779   0.357
 5146W        W 9346   0.406   5.712   9.954
 5147W        W 9347   4.148   7.459   9.075
 5148W        W 9348  10.365   4.567  11.447
 5149W        W 9349   4.695   3.554   0.432
 5150W        W 9350   6.778   3.146   9.177
 5151W        W 9351   7.674   5.782   8.334
 5152W        W 9352   4.576   6.364   2.517
 5153W        W 9353   5.573   8.977   0.424
 5154W        W 9354   2.740   3.424  10.289
 5155W        W 9355   2.800   2.327   2.751
 5156W        W 9356   5.434   2.388   2.702
 5157W        W 9357   6.719   2.808   0.465
 5158W        W 9358   3.160   0.827   9.109
 5159W        W 9359   8.988  10.008  10.124
 5160W        W 9360  11.371   5.576   0.211
 5161W        W 9361   4.507   3.213   9.536
 5162W        W 9362   8.041   1.839   3.440
 5163W        W 9363   8.477   6.961   0.466
 5164W        W 9364  10.446   8.080   2.962
 5165W        W 9365   7.625   0.708   3.387
 5166W        W 9366   4.087  11.387  10.512
 5167W        W 9367   1.910   5.205  11.217
 5168W        W 9368   4.540   5.446   2.269
 5169W        W 9369   5.587   3.695   3.803
 5170W        W 9370   7.377   4.790  10.540
 5171W        W 9371  11.319   6.414   2.805
 5172W        W 9372   1.697   2.324   0.928
 5173W        W 9373   5.033   9.811   2.100
 5174W        W 9374  11.479  11.475   2.020
 5175W        W 9375   9.183   9.546   2.243
 5176W        W 9376   0.773   7.181   9.967
 5177W        W 9377   6.965   1.254  11.942
 5178W        W 9378   0.774   7.497   1.807
 5179W        W 9379   0.876   9.117   1.048
 5180W        W 9380   5.162   5.577  11.756
 5181W        W 9381  10.139   5.020  10.307
 5182W        W 9382  10.139   1.960  10.456
 5183W        W 9383   4.987   1.517  10.123
 5184W        W 9384   8.840   6.902   9.552
 5185W        W 9385   0.800   2.041  11.622
 5186W        W 9386   0.738   5.502   3.007
 5187W        W 9387   6.288   5.024   0.375
 5188W        W 9388   1.283   5.276  10.422
 5189W        W 9389   5.334   6.719  10.855
 5190W        W 9390   1.616   5.069  11.968
 5191W        W 9391   0.270  11.438   0.234
 5192W        W 9392   0.491   4.595  10.828
 5193W        W 9393  11.303   8.896   1.876
 5194W        W 9394   8.729  11.258   9.570
 5195W        W 9395  10.505   7.366  10.953
 5196W        W 9396   9.099   9.061   2.521
 5197W        W 9397  11.260   4.788   0.815
 5198W        W 9398   3.274   2.647   0.857
 5199W        W 9399   8.543   0.943   9.413
 5200W        W 9400   7.056   8.369   1.945
 5201W        W 9401   5.129   0.008   2.976
 5202W        W 9402   3.000   3.732   4.165
 5203W        W 9403   1.190   8.111   0.607
 5204W        W 9404   1.331   9.545   0.397
 5205W        W 9405   0.721   0.928  10.409
 5206W        W 9406  10.325   2.702   9.275
 5207W        W 9407  10.519   1.572   9.664
 5208W        W 9408  10.228   8.461   0.381
 5209W        W 9409   2.353  10.250   2.790
 5210W        W 9410   9.964   8.063  10.957
 5211W        W 9411   2.277  11.253   0.485
 5212W        W 9412   7.651   2.450   3.164
 5213W        W 9413  10.135   0.326  10.111
 5214W        W 9414   8.425  11.285   3.166
 5215W        W 9415   9.445   6.684   2.159
 5216W        W 9416   4.130   8.083   9.641
 5217W        W 9417   9.829   0.848   9.429
 5218W        W 9418   7.160  10.369   3.403
 5219W        W 9419   0.665   6.923  10.387
 5220W        W 9420  11.304   1.761  10.977
 5221W        W 9421   2.182   2.924   8.776
 5222W        W 9422   7.735   7.723   9.865
 5223W        W 9423   8.592   6.010  10.998
 5224W        W 9424   7.498   7.072   1.862
 5225W        W 9425   1.749  10.982   2.783
 5226W        W 9426   1.822  10.480  11.241
 5227W        W 9427   2.964   7.865  10.384
 5228W        W 9428   1.881   3.677   2.235
 5229W        W 9429   9.438   8.782   0.215
 5230W        W 9430   0.397   6.034   0.248
 5231W        W 9431   0.499   3.876   2.415
 5232W        W 9432   4.743   2.673   2.975
 5233W        W 9433   0.721   0.691   9.959
 5234W        W 9434  10.401   7.465   9.860
 5235W        W 9435   3.216   0.143   9.144
 5236W        W 9436   3.747   0.578   2.895
 5237W        W 9437   1.192   5.752   2.374
 5238W        W 9438   7.579   1.052   1.932
 5239W        W 9439   7.438   8.355   2.307
 5240W        W 9440   8.602   6.452   0.381
 5241W        W 9441  10.203   2.209   0.844
 5242W        W 9442   6.640   9.860   2.015
 5243W        W 9443   3.677  11.460   9.592
 5244W        W 9444   4.660   4.625  10.957
 5245W        W 9445   4.794   9.000   3.092
 5246W        W 9446   2.690   1.121   1.313
 5247W        W 9447   4.771   6.994  10.047
 5248W        W 9448   1.345   9.516  11.906
 5249W        W 9449   2.367   3.786   9.511
 5250W        W 9450   4.661   4.751   1.800
 5251W        W 9451   2.892   9.952  11.534
 5252W        W 9452   9.238   7.354  11.079
 5253W        W 9453   8.813   8.682   0.750
 5254W        W 9454   8.097   1.441   8.722
 5255W        W 9455   9.633   9.549   1.506
 5256W        W 9456   0.720   4.669  11.329
 5257W        W 9457   8.080   8.860  11.748
 5258W        W 9458   1.822   7.406  11.817
 5259W        W 9459   4.725   8.513   0.714
 5260W        W 9460   6.334   7.458   1.470
 5261W        W 9461   3.742   8.860  10.599
 5262W        W 9462  10.355   5.049  11.155
 5263W        W 9463   1.439   5.247   2.399
 5264W        W 9464   1.881   0.464   0.817
 5265W        W 9465   2.816   7.036   2.381
 5266W        W 9466   7.909   5.224  11.425
 5267W        W 9467   1.767   5.219   2.845
 5268W        W 9468   6.378   1.259   1.749
 5269W        W 9469   1.628   3.042   0.447
 5270W        W 9470  11.068   0.938   1.232
 5271W        W 9471   1.456   0.028   0.257
 5272W        W 9472   4.091   3.521  11.790
 5273W        W 9473   5.181   0.817   1.929
 5274W        W 9474  10.042   8.956   9.144
 5275W        W 9475   2.013  10.393   9.401
 5276W        W 9476   2.745   4.617   1.348
 5277W        W 9477   4.533   5.135  11.208
 5278W        W 9478   9.018   5.679   9.766
 5279W        W 9479   4.641   4.012   1.360
 5280W        W 9480   7.813   9.522  10.897
 5281W        W 9481   4.182   1.390   2.990
 5282W        W 9482   9.386   8.624   2.322
 5283W        W 9483   1.432   5.550  11.928
 5284W        W 9484   3.802   1.076   2.930
 5285W        W 9485   9.980   2.750  10.094
 5286W        W 9486   1.161   7.295   2.867
 5287W        W 9487   5.917   5.589   9.068
 5288W        W 9488   6.535   2.859   3.603
 5289W        W 9489   9.697   1.130   2.987
 5290W        W 9490   4.080  11.341   0.877
 5291W        W 9491   0.912  11.052  10.652
 5292W        W 9492   8.304   6.788   0.946
 5293W        W 9493   7.124   7.028  11.941
 5294W        W 9494   9.937  10.894  11.929
 5295W        W 9495   3.728   6.923  11.153
 5296W        W 9496   2.195   8.053   0.568
 5297W        W 9497   9.642   4.200   1.331
 5298W        W 9498  10.637   0.685   1.380
 5299W        W 9499   7.585   7.339   2.294
 5300W        W 9500   1.992   5.352   1.871
 5301W        W 9501  10.567  10.479  11.770
 5302W        W 9502   1.604   7.007   1.908
 5303W        W 9503   8.301   4.029  10.266
 5304W        W 9504   5.655   3.222   2.550
 5305W        W 9505   6.061   0.288   2.271
 5306W        W 9506   9.571   7.681   1.436
 5307W        W 9507   9.951   3.211   9.786
 5308W        W 9508   9.609   4.899   1.711
 5309W        W 9509   8.213   3.652   9.519
 5310W        W 9510   6.670   3.970   1.749
 5311W        W 9511   9.971   8.525  10.712
 5312W        W 9512   8.472  10.260  10.036
 5313W        W 9513   0.351  11.446   9.235
 5314W        W 9514   3.658   3.608  10.989
 5315W        W 9515  11.454  10.716   9.685
 5316W        W 9516   0.177   7.193  11.329
 5317W        W 9517   8.944   9.365  11.425
 5318W        W 9518   2.608   0.835   9.214
 5319W        W 9519   0.545   3.445  10.320
 5320W        W 9520  10.232   2.719   2.101
 5321W        W 9521   5.635   8.537   1.784
 5322W        W 9522   3.958   7.992   1.758
 5323W        W 9523   8.265   3.848   3.988
 5324W        W 9524   1.214   4.077   9.239
 5325W        W 9525   2.258   1.882   9.766
 5326W        W 9526   9.863  10.778   2.228
 5327W        W 9527   5.182   9.842   3.339
 5328W        W 9528   1.970   2.111  11.291
 5329W        W 9529   7.992  10.423   2.425
 5330W        W 9530   2.005   3.174   8.352
 5331W        W 9531   0.400  10.018  10.932
 5332W        W 9532   8.568   3.564   3.132
 5333W        W 9533   9.937   7.685   2.411
 5334W        W 9534   6.586  10.881   9.337
 5335W        W 9535   2.786   5.297  11.341
 5336W        W 9536   4.973   2.518   8.623
 5337W        W 9537   6.732   8.638   0.817
 5338W        W 9538   1.862   6.914   8.764
 5339W        W 9539   3.605   0.134   2.687
 5340W        W 9540   4.987   8.303   8.936
 5341W        W 9541   6.950   9.403   8.533
 5342W        W 9542   1.248   7.577   2.068
 5343W        W 9543   8.004   5.924   0.780
 5344W        W 9544   5.631  10.976   0.947
 5345W        W 9545   0.669   8.777  10.082
 5346W        W 9546   4.002   6.203   1.839
 5347W        W 9547  10.735   7.385   3.508
 5348W        W 9548   1.640   6.672   8.312
 5349W        W 9549   0.300  11.002   9.461
 5350W        W 9550   5.219   4.698   1.657
 5351W        W 9551   2.791   4.825  11.625
 5352W        W 9552   3.156   3.336   1.760
 5353W        W 9553   0.147   7.912   9.999
 5354W        W 9554   6.320   6.468   2.311
 5355W        W 9555   2.202  10.997   1.893
 5356W        W 9556   0.434   0.526   2.417
 5357W        W 9557   9.718   7.046   0.299
 5358W        W 9558   0.890   7.088   1.417
 5359W        W 9559   5.207   1.374   1.690
 5360W        W 9560   1.745   4.802  10.270
 5361W        W 9561   5.800   5.152   0.300
 5362W        W 9562   1.771   8.095   9.623
 5363W        W 9563   1.190   1.931  11.286
 5364W        W 9564  10.961   9.960   9.741
 5365W        W 9565   3.856   9.349   3.389
 5366W        W 9566   6.913   2.633   2.650
 5367W        W 9567   6.377   2.534  10.337
 5368W        W 9568   2.228   1.468   0.074
 5369W        W 9569   1.224   1.272   3.664
 5370W        W 9570   7.783   0.356   3.727
 5371W        W 9571   2.279   5.770   9.133
 5372W        W 9572   8.947   7.474   2.151
 5373W        W 9573  11.243   5.130   1.197
 5374W        W 9574   1.478  10.389   3.009
 5375W        W 9575   2.798   3.263   3.500
 5376W        W 9576  10.455   8.887   2.961
 5377W        W 9577   8.635   7.358   9.437
 5378W        W 9578   1.896   4.543  10.908
 5379W        W 9579  10.086   1.303   1.218
 5380W        W 9580   7.573   1.786   9.582
 5381W        W 9581   3.148   5.615   0.099
 5382W        W 9582   4.044   5.157  11.022
 5383W        W 9583   2.645   3.066   8.991
 5384W        W 9584   0.218   1.819   1.430
 5385W        W 9585   9.800   1.306   0.764
 5386W        W 9586   8.945   0.755   1.928
 5387W        W 9587   7.550   5.059   1.227
 5388W        W 9588   6.696  10.410   2.705
 5389W        W 9589   0.830  10.292  10.090
 5390W        W 9590   0.084   9.367   0.755
 5391W        W 9591   7.659   1.023   9.594
 5392W        W 9592   7.699   6.518   1.842
 5393W        W 9593   8.132   6.702   9.886
 5394W        W 9594   3.743   9.067   2.015
 5395W        W 9595   1.655   8.879  10.933
 5396W        W 9596   7.016   5.991  11.830
 5397W        W 9597   6.195   0.775   2.448
 5398W        W 9598   8.071  10.851   2.738
 5399W        W 9599   0.215   5.456   1.903
 5400W        W 9600   8.099   3.762   1.403
 5401W        W 9601  10.897   1.391   0.009
 5402W        W 9602   8.977   8.580   2.716
 5403W        W 9603   8.475   1.470   9.469
 5404W        W 9604   0.289   7.579  11.701
 5405W        W 9605   7.101   6.684  11.344
 5406W        W 9606   2.319   7.928  10.995
 5407W        W 9607   0.353   1.282  11.846
 5408W        W 9608   3.955   6.303   1.277
 5409W        W 9609   6.654   7.517   3.661
 5410W        W 9610  11.326   8.459   2.181
 5411W        W 9611   9.122  11.431   0.722
 5412W        W 9612   0.161   5.160   0.926
 5413W        W 9613   9.869   0.378  11.852
 5414W        W 9614   5.086   0.254   0.238
 5415W        W 9615   6.242   3.495   2.258
 5416W        W 9616  10.805  10.383   3.405
 5417W        W 9617  11.172   5.288   8.747
 5418W        W 9618   5.746   8.656   3.303
 5419W        W 9619   8.988   3.659   3.439
 5420W        W 9620  11.118   1.361   8.743
 5421W        W 9621   2.728  11.242   0.216
 5422W        W 9622   5.708   2.384   1.034
 5423W        W 9623   5.088   7.732  11.645
 5424W        W 9624   1.178   8.237   0.114
 5425W        W 9625  10.624   7.848   1.413
 5426W        W 9626   7.661   3.049   0.697
 5427W        W 9627  11.395   3.817   3.155
 5428W        W 9628   4.365   5.002   1.413
 5429W        W 9629   0.181   9.237  10.324
 5430W        W 9630   8.729   7.951  10.375
 5431W        W 9631   1.715  10.831   9.419
 5432W        W 9632   9.363   6.643  11.787
 5433W        W 9633   9.144   7.325   9.569
 5434W        W 9634  11.474  11.422   9.847
 5435W        W 9635  10.791   0.225   9.956
 5436W        W 9636   1.980  10.699   8.979
 5437W        W 9637   7.745   6.304   8.270
 5438W        W 9638   0.193   5.551   9.500
 5439W        W 9639  10.802   7.184   8.978
 5440W        W 9640   6.444   2.792   8.985
 5441W        W 9641  10.070   0.755  10.553
 5442W        W 9642   6.791   6.109   1.314
 5443W        W 9643   9.511   3.305   2.272
 5444W        W 9644   5.255   5.818   2.352
 5445W        W 9645   7.314   0.462  10.053
 5446W        W 9646   8.893   0.812   2.431
 5447W        W 9647   3.665   3.604   0.713
 5448W        W 9648   0.223   3.064  10.235
 5449W        W 9649   0.422   8.691  10.890
 5450W        W 9650   7.599   6.336   3.506
 5451W        W 9651   1.291   7.849  10.926
 5452W        W 9652   3.999   1.013   0.406
 5453W        W 9653   9.499   2.790   9.900
 5454W        W 9654   7.294   1.003   0.257
 5455W        W 9655   6.787   0.636   8.463
 5456W        W 9656   5.538   3.789   1.806
 5457W        W 9657   9.527   1.368   1.303
 5458W        W 9658   0.510   7.034   9.019
 5459W        W 9659   0.209   8.720  10.391
 5460W        W 9660   0.305   3.862  11.145
 5461W        W 9661   1.416  10.875  11.791
 5462W        W 9662  10.745   9.354   2.257
 5463W        W 9663   2.050   8.363   3.246
 5464W        W 9664   1.650  10.357   2.161
 5465W        W 9665   4.651   8.115   9.666
 5466W        W 9666   9.431   6.898   9.859
 5467W        W 9667   3.677   5.411  10.351
 5468W        W 9668  11.388   6.043   0.043
 5469W        W 9669   3.349   7.216  10.962
 5470W        W 9670  10.924   8.559   8.638
 5471W        W 9671  10.733   6.989   0.397
 5472W        W 9672   3.351   9.137  11.066
 5473W        W 9673   1.628   9.617  11.482
 5474W        W 9674   5.881   1.519   9.797
 5475W        W 9675   4.893  10.406  10.178
 5476W        W 9676   1.329   5.735   0.391
 5477W        W 9677   2.151   1.734  11.587
 5478W        W 9678   9.824   0.634   3.021
 5479W        W 9679   7.701   9.044   9.917
 5480W        W 9680   7.155   7.099  10.553
 5481W        W 9681  11.458   9.839   8.713
 5482W        W 9682   1.357  10.439   9.979
 5483W        W 9683   5.510  10.772   2.468
 5484W        W 9684   5.103   7.882   3.391
 5485W        W 9685   3.254   0.180  11.462
 5486W        W 9686   2.261   7.504  10.356
 5487W        W 9687   1.475   4.263   2.368
 5488W        W 9688  10.502   2.468   9.957
 5489W        W 9689   4.950   6.409  11.726
 5490W        W 9690   7.070   1.770   1.155
 5491W        W 9691   0.417   0.353   0.500
 5492W        W 9692   8.366   7.185  11.016
 5493W        W 9693   2.354   3.086   2.759
 5494W        W 9694  10.571   6.006   2.197
 5495W        W 9695   4.298  11.380  11.531
 5496W        W 9696   2.421  10.205  11.515
 5497W        W 9697   0.989  11.493   8.589
 5498W        W 9698   9.434   0.764   2.142
 5499W        W 9699   7.712   6.613   8.699
 5500W        W 9700   6.613   8.580   3.827
 5501W        W 9701   2.365   0.393   9.152
 5502W        W 9702   8.439   5.033   9.634
 5503W        W 9703   3.723   0.866   2.045
 5504W        W 9704   1.706   0.383   1.671
 5505W        W 9705   4.269   2.271   9.285
 5506W        W 9706   0.363   8.074   9.121
 5507W        W 9707  10.011  10.033   0.722
 5508W        W 9708   0.419   3.389   1.486
 5509W        W 9709   4.208   0.030  11.009
 5510W        W 9710  11.125   1.420   2.316
 5511W        W 9711   5.098   6.991   1.017
 5512W        W 9712  11.460   5.573   1.431
 5513W        W 9713   1.380   7.070   0.104
 5514W        W 9714   1.405   3.738   1.020
 5515W        W 9715   3.302   7.627   0.809
 5516W        W 9716   6.091   1.675   3.503
 5517W        W 9717   8.482   8.426   3.585
 5518W        W 9718  10.026  10.413   3.527
 5519W        W 9719   9.522   7.738  10.422
 5520W        W 9720   8.051  10.991  10.089
 5521W        W 9721  10.862   8.689  10.012
 5522W        W 9722   2.504   4.329   2.135
 5523W        W 9723   8.684   8.520  11.758
 5524W        W 9724   2.385   6.071  10.436
 5525W        W 9725   2.882   8.888  10.720
 5526W        W 9726   7.124   5.737  11.376
 5527W        W 9727   2.881   9.334   0.279
 5528W        W 9728   5.097   9.076  11.480
 5529W        W 9729   3.445   0.221  10.983
 5530W        W 9730   4.622   4.562   0.495
 5531W        W 9731   0.647   0.519  10.869
 5532W        W 9732   8.396   7.876   3.104
 5533W        W 9733  10.391   5.618   0.906
 5534W        W 9734   1.836   5.693  11.643
 5535W        W 9735   2.041   4.691   9.864
 5536W        W 9736  11.046   5.307   1.968
 5537W        W 9737   4.839  10.450  11.470
 5538W        W 9738   4.403   4.075   3.248
 5539W        W 9739   7.260   2.266   8.788
 5540W        W 9740   3.686   1.853   1.664
 5541W        W 9741   8.390   4.144   9.249
 5542W        W 9742   7.858   3.255   0.236
 5543W        W 9743   4.356   3.239   3.672
 5544W        W 9744   9.053   5.019   1.438
 5545W        W 9745   4.245   7.025   8.785
 5546W        W 9746   7.778   0.926   0.448
 5547W        W 9747   6.134   4.547   1.318
 5548W        W 9748  10.351   6.424   9.995
 5549W        W 9749   5.873   9.401   0.334
 5550W        W 9750   4.179   1.381   0.826
 5551W        W 9751  11.196   9.851  10.201
 5552W        W 9752   7.229   9.547  10.377
 5553W        W 9753   6.025   4.272   2.610
 5554W        W 9754   4.922   2.347   2.623
 5555W        W 9755  10.336   9.527  10.318
 5556W        W 9756   2.590   9.828  11.115
 5557W        W 9757   1.414   1.692   3.161
 5558W        W 9758   5.546   5.396   2.258
 5559W        W 9759   4.880   7.106   1.478
 5560W        W 9760   0.397   1.300  11.312
 5561W        W 9761   5.569   4.624   9.015
 5562W        W 9762   5.916   6.525   9.465
 5563W        W 9763   0.241   6.794   2.095
 5564W        W 9764   9.914  10.433   1.231
 5565W        W 9765   2.297   3.353   1.328
 5566W        W 9766   4.965   9.105   8.569
 5567W        W 9767   8.535   3.864   1.699
 5568W        W 9768   1.512   4.784   2.682
 5569W        W 9769   6.242  11.457   1.396
 5570W        W 9770   1.868   6.916   3.147
 5571W        W 9771   3.158   3.608   0.768
 5572W        W 9772   7.705   9.204   1.294
 5573W        W 9773   7.885   8.071  10.205
 5574W        W 9774   9.578  11.407   0.992
 5575W        W 9775   6.755   6.575   9.944
 5576W        W 9776   3.053   5.506   2.452
 5577W        W 9777   7.321   8.558   2.768
 5578W        W 9778   3.395  10.921  10.806
 5579W        W 9779   8.036   1.307   1.263
 5580W        W 9780   5.929   3.072   0.315
 5581W        W 9781  11.250   1.097   3.572
 5582W        W 9782  10.309   3.701   1.702
 5583W        W 9783   4.597   3.360  10.034
 5584W        W 9784   8.517   7.669   9.051
 5585W        W 9785   7.692   5.266   8.504
 5586W        W 9786   1.733   3.138   2.246
 5587W        W 9787   3.146   7.030   9.916
 5588W        W 9788   2.286   2.465   1.684
 5589W        W 9789   9.499   7.392   9.961
 5590W        W 9790   7.495   0.240  11.153
 5591W        W 9791   6.628   2.339   1.379
 5592W        W 9792   8.647   7.628   9.886
 5593W        W 9793  10.972   3.584   0.455
 5594W        W 9794   3.597   2.344   0.466
 5595W        W 9795   8.123   6.608  11.284
 5596W        W 9796   6.942   0.347   1.132
 5597W        W 9797   0.941   5.701   8.986
 5598W        W 9798  10.297   5.643   2.442
 5599W        W 9799   4.190   6.910  11.342
 5600W        W 9800   0.137   0.727  10.799
 5601W        W 9801   1.456  11.365   0.848
 5602W        W 9802   9.992   0.320   9.122
 5603W        W 9803   2.262   1.952   8.730
 5604W        W 9804   1.356   1.440   1.791
 5605W        W 9805   9.143   9.955   3.145
 5606W        W 9806   8.625   1.155  11.018
 5607W        W 9807   9.284   2.653   2.544
 5608W        W 9808   9.200  11.472   0.208
 5609W        W 9809   7.509   8.766   9.169
 5610W        W 9810   2.774   1.597   1.498
 5611W        W 9811  10.722  10.597   2.907
 5612W        W 9812  10.428   8.294   3.436
 5613W        W 9813   8.379   7.909   1.357
 5614W        W 9814   2.332   0.672   2.804
 5615W        W 9815   6.444   1.152  11.195
 5616W        W 9816   7.200   6.470   1.726
 5617W        W 9817   5.430   5.281   9.549
 5618W        W 9818   0.108   1.648   2.705
 5619W        W 9819   3.165   2.822   9.919
 5620W        W 9820   3.011   4.721   2.963
 5621W        W 9821   2.047   5.149   0.658
 5622W        W 9822   6.045   9.359   9.613
 5623W        W 9823   9.046   5.135   2.391
 5624W        W 9824   8.461   0.451   1.261
 5625W        W 9825  10.334   6.485  11.006
 5626W        W 9826   7.084   8.414  11.094
 5627W        W 9827   4.054   4.742  10.717
 5628W        W 9828   2.324   7.719   8.970
 5629W        W 9829   6.561   3.076   4.131
 5630W        W 9830  11.226  11.009  11.026
 5631W        W 9831   0.014   3.455   9.072
 5632W        W 9832   3.002   8.354   9.043
 5633W        W 9833   6.239   9.332  11.983
 5634W        W 9834   2.257   2.809   9.830
 5635W        W 9835   9.905   6.161  11.473
 5636W        W 9836   8.689   6.577   1.772
 5637W        W 9837  10.407  10.457  10.783
 5638W        W 9838  10.031   4.090   0.892
 5639W        W 9839   7.061   0.750   3.141
 5640W        W 9840  10.382   4.465   2.859
 5641W        W 9841   8.754   2.308   1.826
 5642W        W 9842   9.211   3.791   9.409
 5643W        W 9843   5.479   5.040   9.995
 5644W        W 9844   6.940  10.782   2.362
 5645W        W 9845   3.514   7.730  11.956
 5646W        W 9846   0.222   2.720   1.527
 5647W        W 9847   1.859   8.183   2.012
 5648W        W 9848   9.153   9.068   9.768
 5649W        W 9849   1.197   4.801  11.487
 5650W        W 9850  11.384   9.825   9.230
 5651W        W 9851   8.597   9.345  10.628
 5652W        W 9852   7.978   2.343  10.699
 5653W        W 9853   0.502   8.043  11.821
 5654W        W 9854   4.489   2.813  10.649
 5655W        W 9855   8.922   1.564  11.181
 5656W        W 9856   3.483   3.798   1.170
 5657W        W 9857   6.433   3.518   0.877
 5658W        W 9858   6.558   2.853   1.361
 5659W        W 9859  10.444   3.295  10.623
 5660W        W 9860   3.701   8.287  11.297
 5661W        W 9861   4.139   6.575   0.776
 5662W        W 9862   4.749   0.315  10.360
 5663W        W 9863  10.135   0.111  11.494
 5664W        W 9864  10.984  11.250   9.920
 5665W        W 9865   0.824   5.078   3.275
 5666W        W 9866  10.071   1.362   2.441
 5667W        W 9867   8.900   4.186   0.270
 5668W        W 9868   0.819   9.994   3.191
 5669W        W 9869  10.847   9.641   2.689
 5670W        W 9870   3.433   3.150   0.885
 5671W        W 9871  11.031   6.946   3.565
 5672W        W 9872   1.308   2.348   2.819
 5673W        W 9873   2.141  10.855   1.389
 5674W        W 9874   7.139  10.325   2.433
 5675W        W 9875   3.422  11.076   9.931
 5676W        W 9876   2.247   3.296   9.642
 5677W        W 9877   3.505   3.959  10.628
 5678W        W 9878   1.843   5.505   9.342
 5679W        W 9879   8.680   5.195   2.861
 5680W        W 9880   5.548   7.369   9.807
 5681W        W 9881   4.312   7.513   0.760
 5682W        W 9882   0.960   2.687   2.656
 5683W        W 9883   0.180   6.817  10.508
 5684W        W 9884   5.426   4.133   3.998
 5685W        W 9885   8.205   8.084   8.954
 5686W        W 9886   8.908   5.439  10.208
 5687W        W 9887   7.477   2.363  10.492
 5688W        W 9888   7.705  11.241   9.782
 5689W        W 9889   0.182   5.283   8.948
 5690W        W 9890   1.886   6.991   1.457
 5691W        W 9891   1.000   5.315   2.139
 5692W        W 9892   7.645   0.575   1.789
 5693W        W 9893  11.401   5.682   9.933
 5694W        W 9894   2.630  11.242   9.516
 5695W        W 9895  10.853   7.173  10.007
 5696W        W 9896   3.749   4.769   2.248
 5697W        W 9897   4.674   9.904   0.536
 5698W        W 9898   7.884   1.554  11.926
 5699W        W 9899   0.721   0.430   8.639
 5700W        W 9900  11.341   0.023  11.270
 5701W        W 9901   0.448   8.004   0.610
 5702W        W 9902  10.232  11.339  10.289
 5703W        W 9903   1.436   4.236   0.231
 5704W        W 9904   4.955   1.285   3.256
 5705W        W 9905   7.672   8.979  10.878
 5706W        W 9906   6.866   8.888   8.548
 5707W        W 9907   3.668   5.489  10.864
 5708W        W 9908   4.941   4.345  10.512
 5709W        W 9909   0.383   8.772   0.323
 5710W        W 9910   6.951   4.583  10.347
 5711W        W 9911   8.237   9.608   8.797
 5712W        W 9912   5.026   2.892  10.631
 5713W        W 9913   9.773   4.584  10.609
 5714W        W 9914  11.140   8.479  10.420
 5715W        W 9915   4.456   7.986   1.896
 5716W        W 9916   6.418   1.311   1.243
 5717W        W 9917   1.423   9.075   1.208
 5718W        W 9918   9.919   6.467   3.577
 5719W        W 9919   1.319   7.154   2.331
 5720W        W 9920   8.087   4.174   1.067
 5721W        W 9921   4.808   5.234   1.866
 5722W        W 9922   0.405   3.487   9.420
 5723W        W 9923   6.984   1.696   2.124
 5724W        W 9924   4.431  10.272   0.925
 5725W        W 9925  10.029   8.084   9.823
 5726W        W 9926  10.300   3.974  11.978
 5727W        W 9927   8.390   6.161   1.704
 5728W        W 9928  11.293   3.406   0.861
 5729W        W 9929   4.463   6.302   1.165
 5730W        W 9930   0.019   8.547   0.644
 5731W        W 9931   8.817   1.174   3.387
 5732W        W 9932   3.880   7.111   1.488
 5733W        W 9933   9.018   4.338   0.740
 5734W        W 9934   7.760   1.482   1.668
 5735W        W 9935  11.368  10.128  11.634
 5736W        W 9936   4.164   5.065   2.333
 5737W        W 9937   8.927   7.585   1.656
 5738W        W 9938   3.178   7.704   9.432
 5739W        W 9939   2.294   4.797   0.957
 5740W        W 9940   1.445  11.433   8.822
 5741W        W 9941   1.436  11.315  11.546
 5742W        W 9942   7.117   2.918   8.820
 5743W        W 9943  11.181   9.278  10.999
 5744W        W 9944   0.409   3.726   3.227
 5745W        W 9945   1.019   8.468  10.304
 5746W        W 9946   8.844   5.980   8.396
 5747W        W 9947   6.359   0.808  10.689
 5748W        W 9948   5.509   3.708   8.147
 5749W        W 9949   9.552   8.662   3.223
 5750W        W 9950   5.903   3.385   1.877
 5751W        W 9951   2.275   8.437  10.319
 5752W        W 9952   5.656   9.106   3.575
 5753W        W 9953   3.605   1.885   9.507
 5754W        W 9954   1.342   4.765   2.198
 5755W        W 9955   6.052   8.346   2.699
 5756W        W 9956  10.382   6.573   3.355
 5757W        W 9957   0.296  10.559   9.171
 5758W        W 9958   9.550   5.549   1.125
 5759W        W 9959   8.532   1.008   2.080
 5760W        W 9960   2.893   7.884   1.323
 5761W        W 9961   0.093  10.587  11.731
 5762W        W 9962   5.193   0.962  11.444
 5763W        W 9963   9.072   7.603   2.644
 5764W        W 9964   2.270   0.857  10.846
 5765W        W 9965   6.283  10.512  10.787
 5766W        W 9966   3.504   3.745   3.559
 5767W        W 9967  10.576   9.992  10.986
 5768W        W 9968   6.163   1.744  11.017
 5769W        W 9969   8.105   7.677  11.186
 5770W        W 9970   2.160   8.901  11.031
 5771W        W 9971   8.912   6.047   0.781
 5772W        W 9972  10.188   4.273  10.594
 5773W        W 9973   3.285   9.077   9.078
 5774W        W 9974  10.505   9.037   8.913
 5775W        W 9975  10.032   9.015   2.184
 5776W        W 9976  10.345   5.353  10.632
 5777W        W 9977   1.653   3.828   2.714
 5778W        W 9978  11.263  10.275   0.624
 5779W        W 9979   1.924  11.454   1.853
 5780W        W 9980   4.522  10.913  11.461
 5781W        W 9981   2.755   2.047   9.043
 5782W        W 9982   6.176   9.048   2.313
 5783W        W 9983   8.959   0.419   2.764
 5784W        W 9984   9.541   6.443   9.616
 5785W        W 9985   1.367   3.829  10.946
 5786W        W 9986   7.429   7.608  11.707
 5787W        W 9987   0.988   3.680  10.394
 5788W        W 9988   4.888   7.206   0.556
 5789W        W 9989  10.432  10.764   2.445
 5790W        W 9990   3.333   3.750   9.809
 5791W        W 9991   1.666  11.223   3.642
 5792W        W 9992   7.193   7.483   1.082
 5793W        W 9993   3.131  10.802  11.286
 5794W        W 9994   0.285  10.073   1.405
 5795W        W 9995   8.621   1.985   1.462
 5796W        W 9996   5.168   1.933  10.945
 5797W        W 9997   4.713   6.061  10.778
 5798W        W 9998  10.071   7.594   1.362
 5799W        W 9999   2.360   9.893   2.450
 5800W        W10000  10.339   4.945   8.832
 5801W        W10001   4.672  10.578   1.828
 5802W        W10002   6.997   0.373   0.132
 5803W        W10003   0.601  11.363  11.785
 5804W        W10004   9.212   5.213  11.345
 5805W        W10005   8.020   5.656   8.686
 5806W        W10006   8.554  11.046   1.778
 5807W        W10007   2.514   4.771   2.877
 5808W        W10008   3.695   3.070   9.047
 5809W        W10009   3.458   9.468   3.676
 5810W        W10010   2.591   9.335   0.718
 5811W        W10011   2.701   4.264  10.256
 5812W        W10012   3.691   4.262   2.181
 5813W        W10013   8.469   9.593   0.164
 5814W        W10014   7.720   6.425   9.184
 5815W        W10015   1.922   0.984   0.750
 5816W        W10016   8.978  10.872   2.520
 5817W        W10017   2.833   5.557  10.764
 5818W        W10018  10.891  10.529   0.880
 5819W        W10019   5.650  10.136   9.839
 5820W        W10020   5.606   9.573   3.225
 5821W        W10021   6.535   1.193   2.334
 5822W        W10022   6.104   1.520   8.969
 5823W        W10023   0.886   4.873   8.483
 5824W        W10024   8.699   4.748   9.287
 5825W        W10025   6.220   1.609   3.012
 5826W        W10026   6.673   0.579  11.767
 5827W        W10027   4.696   1.313   0.796
 5828W        W10028   9.454   8.771  10.836
 5829W        W10029   2.644   8.995  11.158
 5830W        W10030   3.685   2.376   1.953
 5831W        W10031  11.495   8.945   2.346
 5832W        W10032   1.829   8.702   1.934
 5833W        W10033   8.944   8.453  11.035
 5834W        W10034   8.021   4.793   1.728
 5835W        W10035   7.095   6.496   1.178
 5836W        W10036   5.968   8.484   0.320
 5837W        W10037   9.903   1.865   2.486
 5838W        W10038   8.632   6.483   9.177
 5839W        W10039   6.229   3.639   3.135
 5840W        W10040   2.609   8.827   1.320
 5841W        W10041   3.666   9.935   1.345
 5842W        W10042   0.872   4.616  11.818
 5843W        W10043  11.415   3.658  11.471
 5844W        W10044  10.476   5.712  11.917
 5845W        W10045   7.491   4.072   9.816
 5846W        W10046   7.889   7.926   3.134
 5847W        W10047   1.460   9.893   9.288
 5848W        W10048  10.499   0.062   2.770
 5849W        W10049   2.219  10.671   0.900
 5850W        W10050   2.886   3.432  11.369
 5851W        W10051  11.451   1.062  11.285
 5852W        W10052   8.280   3.716   0.869
 5853W        W10053   5.330   9.788   1.189
 5854W        W10054   0.314   7.445   9.305
 5855W        W10055  10.409   4.215   1.779
 5856W        W10056   8.908   0.128   8.768
 5857W        W10057   0.374   8.361   1.496
 5858W        W10058  10.770   1.838   1.231
 5859W        W10059   1.162  10.342   2.307
 5860W        W10060  10.073   3.255  11.466
 5861W        W10061   6.414   7.817  10.896
 5862W        W10062   6.041   4.334   0.833
 5863W        W10063   6.645   1.289   0.442
 5864W        W10064   8.032   4.264  11.126
 5865W        W10065   8.759   5.779  10.568
 5866W        W10066   7.415   8.290  10.086
 5867W        W10067   8.928   8.073   9.889
 5868W        W10068   6.746  11.427   1.355
 5869W        W10069   1.607   6.184   9.513
 5870W        W10070   1.696   0.951  10.144
 5871W        W10071   1.681   2.481   3.507
 5872W        W10072   6.847   1.410   1.485
 5873W        W10073   5.233   2.150  11.847
 5874W        W10074  11.361   0.412  11.728
 5875W        W10075   2.205   9.034   2.012
 5876W        W10076   8.915   8.535   2.185
 5877W        W10077   3.934   7.059   3.227
 5878W        W10078  10.869   5.865   3.612
 5879W        W10079   2.483   7.077  10.519
 5880W        W10080  10.490   5.646   1.404
 5881W        W10081   3.193   5.626  11.530
 5882W        W10082   7.929   7.053   9.589
 5883W        W10083   6.702   0.348   3.037
 5884W        W10084   9.434   3.313   8.430
 5885W        W10085   4.722   7.039   9.021
 5886W        W10086   5.083   7.156  10.982
 5887W        W10087   8.325   4.816   2.168
 5888W        W10088  11.300   4.786   0.281
 5889W        W10089   2.363   8.621   2.909
 5890W        W10090   6.472   8.018   8.684
 5891W        W10091  11.041   2.851   1.881
 5892W        W10092   6.533   8.467   9.912
 5893W        W10093   5.552   3.280   9.825
 5894W        W10094  10.554   5.544  11.047
 5895W        W10095  10.282   0.277   1.343
 5896W        W10096   3.414  10.196   0.634
 5897W        W10097   4.919   1.154  10.509
 5898W        W10098   2.659  10.963  11.252
 5899W        W10099   7.534  10.171  11.923
 5900W        W10100   2.108   6.657   0.365
 5901W        W10101  10.466   1.032   9.702
 5902W        W10102   7.336   8.352   1.418
 5903W        W10103   2.532   8.871  10.356
 5904W        W10104   2.679   5.841   1.596
 5905W        W10105   7.534   9.576   2.794
 5906W        W10106   8.656   3.269   2.630
 5907W        W10107   6.486  11.404   2.875
 5908W        W10108   5.299   4.771   9.425
 5909W        W10109   1.668   9.759  10.103
 5910W        W10110   0.271   7.616   2.745
 5911W        W10111   2.905  10.416   1.369
 5912W        W10112  10.402   3.819   1.210
 5913W        W10113   6.220   8.169   9.097
 5914W        W10114   9.527   0.234   0.594
 5915W        W10115   6.049   7.096   1.702
 5916W        W10116   4.485  10.494  10.593
 5917W        W10117   0.371  11.017   8.957
 5918W        W10118  11.088   1.883   0.799
 5919W        W10119   3.382   9.789   0.938
 5920W        W10120   5.432   1.057  10.436
 5921W        W10121   6.561   9.529   1.636
 5922W        W10122   6.237   1.912   8.416
 5923W        W10123   0.269   8.503   8.795
 5924W        W10124   1.663   3.154  11.950
 5925W        W10125   9.045   8.530   3.289
 5926W        W10126   4.668   8.778   9.796
 5927W        W10127   9.277   2.859   8.963
 5928W        W10128   7.266  11.487   1.326
 5929W        W10129   6.286   8.820   0.027
 5930W        W10130   9.410   6.174   8.708
 5931W        W10131  10.000   4.566   1.791
 5932W        W10132   1.735   1.975   3.571
 5933W        W10133   1.004   2.241   3.650
 5934W        W10134  11.266   9.460  10.523
 5935W        W10135   2.594   1.095   8.771
 5936W        W10136  10.892   4.733   9.970
 5937W        W10137   2.122   6.804  10.767
 5938W        W10138   7.141   7.947  11.964
 5939W        W10139   1.446  10.892  10.741
 5940W        W10140   9.266   7.495  11.913
 5941W        W10141   4.233   8.451   1.842
 5942W        W10142  10.007   5.772   1.231
 5943W        W10143   4.479  10.686   2.301
 5944W        W10144  10.077   2.660  11.975
 5945W        W10145   2.794   8.472   2.027
 5946W        W10146  10.496   4.568  10.275
 5947W        W10147   7.402   9.869  10.987
 5948W        W10148   4.221  11.187   2.258
 5949W        W10149   8.258   8.575   0.805
 5950W        W10150   8.970   6.769   0.503
 5951W        W10151   6.708   1.861   9.815
 5952W        W10152   1.609   0.679   0.424
 5953W        W10153   9.184   6.741   2.638
 5954W        W10154   8.997   7.387   0.797
 5955W        W10155   7.112   5.576   9.970
 5956W        W10156   2.645   9.929   1.350
 5957W        W10157  11.324   0.680   0.157
 5958W        W10158   7.119   2.528   0.257
 5959W        W10159   5.305   5.251   1.485
 5960W        W10160   5.220   0.220  10.187
 5961W        W10161  10.994   8.891   2.286
 5962W        W10162   0.694   9.263   8.852
 5963W        W10163   7.447   1.851   2.455
 5964W        W10164  10.970   5.974   8.988
 5965W        W10165   2.597  11.478   2.714
 5966W        W10166   0.700   4.124  11.536
 5967W        W10167   8.874   5.594  11.036
 5968W        W10168  11.181   7.212  11.472
 5969W        W10169   5.792   6.991  10.068
 5970W        W10170   9.201   2.328   3.479
 5971W        W10171   1.775  11.292   2.323
 5972W        W10172   6.937   2.226  10.085
 5973W        W10173  10.398   7.533   8.844
 5974W        W10174   0.901   0.221   1.625
 5975W        W10175   8.612   8.974  11.482
 5976W        W10176   1.434   9.805   1.991
 5977W        W10177   4.284   4.329   2.798
 5978W        W10178  10.070   5.067   1.946
 5979W        W10179  10.333  11.093  11.630
 5980W        W10180  10.618   3.154   2.879
 5981W        W10181  10.963   7.674  10.795
 5982W        W10182   7.025   7.123  11.053
 5983W        W10183   9.360   9.524  11.690
 5984W        W10184  10.605   8.012   0.899
 5985W        W10185   5.049   5.237  10.960
 5986W        W10186   1.570   1.948   2.618
 5987W        W10187   1.461   4.515   1.087
 5988W        W10188   9.244   7.062  11.509
 5989W        W10189   0.187   9.450   2.592
 5990W        W10190   1.057   6.702   0.324
 5991W        W10191  11.423   1.490  11.582
 5992W        W10192   6.245   8.957   9.366
 5993W        W10193   3.812  10.842   2.295
 5994W        W10194   6.135   5.699  11.751
 5995W        W10195   5.560   1.861   2.682
 5996W        W10196   2.503   8.957   9.479
 5997W        W10197  10.039  10.963   0.450
 5998W        W10198   9.960   8.549   3.501
 5999W        W10199   6.950   7.085   3.603
 6000W        W10200   4.206  10.025  10.291
 6001W        W10201   3.327  10.345  11.283
 6002W        W10202   3.011   6.237   1.593
 6003W        W10203   2.757   0.404   2.916
 6004W        W10204   6.152  11.016  11.930
 6005W        W10205   7.990   6.106   2.010
 6006W        W10206   4.536   4.314  11.386
 6007W        W10207   5.037   0.184   0.749
 6008W        W10208   4.060   9.703  11.069
 6009W        W10209   9.997   8.568   2.978
 6010W        W10210   5.130   3.594   3.188
 6011W        W10211  10.444   1.953  10.021
 6012W        W10212   2.696   5.490   3.535
 6013W        W10213   7.670   9.860  10.510
 6014W        W10214   8.273   5.542   1.231
 6015W        W10215   3.892   0.779  11.743
 6016W        W10216   1.021   6.968   3.592
 6017W        W10217   2.375   7.954   3.302
 6018W        W10218   0.549   7.921   3.582
 6019W        W10219   7.927   1.424   9.744
 6020W        W10220   1.350   2.530   8.820
 6021W        W10221   8.251   8.061  10.559
 6022W        W10222  10.850   0.979   2.237
 6023W        W10223   0.525   1.907   0.998
 6024W        W10224   9.384   9.619   9.419
 6025W        W10225   7.929   5.177   2.257
 6026W        W10226   8.796   4.604   2.266
 6027W        W10227   5.133   3.692   0.201
 6028W        W10228   9.295   7.145   2.348
 6029W        W10229   8.351   0.456   9.430
 6030W        W10230   7.914  11.255   0.758
 6031W        W10231   1.006   7.323  10.924
 6032W        W10232   9.209   5.064   9.966
 6033W        W10233   6.513  10.263   0.322
 6034W        W10234   6.988   3.580   2.665
 6035W        W10235   6.191  11.435   1.892
 6036W        W10236   6.027   9.508   3.535
 6037W        W10237   1.472   8.898   3.607
 6038W        W10238   5.547   9.504   0.780
 6039W        W10239  11.023   3.235   9.108
 6040W        W10240   0.717   6.506   3.496
 6041W        W10241   0.003   5.358  11.224
 6042W        W10242   2.725   4.034   2.507
 6043W        W10243   9.773   3.087   0.025
 6044W        W10244   7.106   4.435  10.847
 6045W        W10245   3.807   6.960   0.634
 6046W        W10246   7.440   6.715   2.253
 6047W        W10247  11.022  10.939   9.531
 6048W        W10248   6.984   8.671  11.566
 6049W        W10249   4.641   7.218   1.028
 6050W        W10250   1.728   0.324   2.181
 6051W        W10251   5.496   4.555   9.844
 6052W        W10252  10.390   3.056  11.094
 6053W        W10253  10.189   7.047   1.399
 6054W        W10254   2.439   8.627   9.878
 6055W        W10255   8.431   0.290  10.995
 6056W        W10256  11.002   5.373   3.505
 6057W        W10257  10.594   1.396   2.412
 6058W        W10258   9.592   8.244   0.888
 6059W        W10259   3.675   9.486  11.337
 6060W        W10260   6.592   0.335  10.559
 6061W        W10261   3.659   5.766   9.970
 6062W        W10262   6.977   1.754  11.760
 6063W        W10263   9.849   8.144  10.331
 6064W        W10264  10.300   3.950   2.625
 6065W        W10265   8.241   2.181   2.753
 6066W        W10266  10.210   2.175  11.379
 6067W        W10267   2.454  10.382   3.285
 6068W        W10268   3.802   9.810  10.086
 6069W        W10269   8.615   0.943   8.599
 6070W        W10270   2.588   4.862   1.784
 6071W        W10271   6.046   3.231   2.861
 6072W        W10272   2.688   3.387   9.398
 6073W        W10273  10.011   7.680  10.624
 6074W        W10274   6.901   5.854  10.926
 6075W        W10275   5.943  10.794   2.209
 6076W        W10276   4.490   7.682   1.242
 6077W        W10277   9.608  11.087   1.415
 6078W        W10278   5.893   5.021   2.241
 6079W        W10279   9.944   2.279   9.293
 6080W        W10280   4.547   4.442   4.051
 6081W        W10281   9.083   8.231   0.968
 6082W        W10282   6.065   8.482  10.783
 6083W        W10283  10.179  10.376   2.137
 6084W        W10284   6.268   8.490   8.678
 6085W        W10285   7.700   3.491   1.192
 6086W        W10286   1.834   1.743   2.207
 6087W        W10287   3.132  11.340   9.592
 6088W        W10288   8.953   0.689  11.793
 6089W        W10289   0.776   9.270   9.834
 6090W        W10290   9.355   4.748   0.806
 6091W        W10291   2.197   5.728   1.464
 6092W        W10292   0.772   4.299   9.088
 6093W        W10293   8.912   3.911   9.021
 6094W        W10294   0.290   9.767   0.443
 6095W        W10295   1.860   7.741   8.666
 6096W        W10296   4.856   8.952   1.053
 6097W        W10297  10.873   5.030   9.543
 6098W        W10298   7.383   9.648   9.290
 6099W        W10299   4.283   9.458   2.489
 6100W        W10300  11.088   4.304   1.014
 6101W        W10301   0.895   4.166   2.185
 6102W        W10302   5.807   6.147  10.220
 6103W        W10303   3.462   9.532   9.841
 6104W        W10304   9.925   1.704   1.531
 6105W        W10305   9.514   5.372   0.136
 6106W        W10306   2.836   5.731   0.708
 6107W        W10307   6.992   4.724  11.655
 6108W        W10308   8.768   8.571   1.706
 6109W        W10309   3.902   9.820   0.894
 6110W        W10310   9.559   3.744  11.352
 6111W        W10311   3.681   0.246  10.531
 6112W        W10312   4.617   6.995  11.072
 6113W        W10313   7.823   0.853  11.237
 6114W        W10314   8.489  11.290  10.036
 6115W        W10315   2.755  10.648   0.190
 6116W        W10316   8.977   2.818  10.599
 6117W        W10317   4.436  10.972   3.429
 6118W        W10318  10.343  10.647  11.309
 6119W        W10319   3.722   8.104   0.304
 6120W        W10320   2.852   8.190  11.494
 6121W        W10321   4.756   3.317  10.533
 6122W        W10322   1.163   8.965   9.747
 6123W        W10323  10.117   1.464  11.344
 6124W        W10324   6.242   1.381   9.475
 6125W        W10325   0.483   7.844  10.404
 6126W        W10326   3.122   8.895   0.435
 6127W        W10327   3.336   0.422   0.495
 6128W        W10328   5.189   8.159   9.423
 6129W        W10329  11.222   2.791   9.336
 6130W        W10330   9.341  10.519   2.322
 6131W        W10331   9.014  10.484   3.343
 6132W        W10332   0.346   8.853  11.375
 6133W        W10333   2.167   2.393   9.534
 6134W        W10334   8.038   0.371   1.511
 6135W        W10335   9.696  11.470   9.424
 6136W        W10336   1.706   4.818  11.543
 6137W        W10337   1.969  10.549   1.788
 6138W        W10338   8.142   8.901   0.367
 6139W        W10339   6.307   6.690   1.849
 6140W        W10340   4.208   4.636  11.770
 6141W        W10341   7.106   8.951   0.576
 6142W        W10342   4.195   2.726   3.633
 6143W        W10343   2.988   3.713   3.656
 6144W        W10344   3.733   8.841   9.235
 6145W        W10345   6.439   0.464   0.207
 6146W        W10346   6.168  11.257   2.356
 6147W        W10347   5.139   6.565   0.690
 6148W        W10348   5.145  11.041   2.710
 6149W        W10349   2.732   0.191  10.435
 6150W        W10350   7.715  10.769   2.161
 6151W        W10351   8.144  11.044   1.413
 6152W        W10352   5.453   8.025  10.757
 6153W        W10353  10.301   1.297   0.690
 6154W        W10354   5.614   8.605   3.792
 6155W        W10355   9.518   2.527   0.608
 6156W        W10356   5.191   4.480   2.845
 6157W        W10357   0.958   3.157   3.587
 6158W        W10358   2.372  11.159   0.993
 6159W        W10359   3.644   6.907  10.660
 6160W        W10360   6.610   5.635  10.109
 6161W        W10361   6.437   2.387  11.451
 6162W        W10362   1.992   8.448  10.880
 6163W        W10363   1.193   9.449   9.516
 6164W        W10364   6.307   7.189   0.433
 6165W        W10365   8.824   1.677   0.177
 6166W        W10366   9.779   2.829   2.342
 6167W        W10367   4.027   4.625   1.385
 6168W        W10368   5.465  10.064   2.964
 6169W        W10369   6.304  10.268   8.991
 6170W        W10370   7.069  10.918   9.097
 6171W        W10371   5.692   2.821   2.873
 6172W        W10372   1.155   1.682  11.752
 6173W        W10373  11.484   9.094  11.951
 6174W        W10374   7.907   5.466  11.884
 6175W        W10375   5.561   7.089  11.165
 6176W        W10376   4.300   2.040   8.799
 6177W        W10377   6.182   6.477   1.420
 6178W        W10378   3.354   9.953   2.676
 6179W        W10379   0.721   1.157   0.197
 6180W        W10380   0.282  10.060   9.036
 6181W        W10381   7.139   9.995   9.602
 6182W        W10382  10.908   6.252   2.502
 6183W        W10383   6.669  10.342   2.205
 6184W        W10384  10.870   3.454   9.621
 6185W        W10385   7.939   1.310  10.257
 6186W        W10386   9.820   4.229   9.807
 6187W        W10387   7.334   0.708   2.294
 6188W        W10388   0.902   8.056   2.514
 6189W        W10389  10.388   9.913   9.972
 6190W        W10390   3.729   6.483   0.350
 6191W        W10391   5.356   5.491   2.737
 6192W        W10392   1.857   4.108   1.318
 6193W        W10393   9.122  10.736   8.958
 6194W        W10394  10.010   1.839   9.030
 6195W        W10395  10.278   0.759   3.306
 6196W        W10396   1.323   6.606  11.346
 6197W        W10397   6.513   1.762   9.269
 6198W        W10398   9.301   0.472   8.746
 6199W        W10399   6.618  10.526   9.702
 6200W        W10400   1.785   8.514  10.415
 6201W        W10401   6.559   4.207   0.251
 6202W        W10402   0.749   4.564   3.424
 6203W        W10403   9.319   4.136  11.979
 6204W        W10404   6.684   9.446   1.153
 6205W        W10405   9.938  10.574   1.731
 6206W        W10406   2.105   7.611   0.243
 6207W        W10407   8.871   1.018   2.902
 6208W        W10408   8.529  10.405   3.158
 6209W        W10409   6.975  11.445  11.871
 6210W        W10410   3.411   9.878   1.789
 6211W        W10411   6.204   8.588   0.849
 6212W        W10412  11.200   7.923  10.362
 6213W        W10413  11.231   0.885   3.067
 6214W        W10414   7.737   0.764  10.028
 6215W        W10415   8.136   5.429   0.749
 6216W        W10416   9.050   5.689   1.109
 6217W        W10417   6.137   7.554   3.568
 6218W        W10418   8.830   1.469   0.880
 6219W        W10419   5.977  11.344  10.379
 6220W        W10420   5.963   8.083   8.633
 6221W        W10421   8.469   7.419   2.334
 6222W        W10422   4.583   0.062   0.002
 6223W        W10423  10.006   3.306   2.259
 6224W        W10424   8.718   8.411   9.570
 6225W        W10425  11.348   3.211   2.146
 6226W        W10426   0.694   1.657   0.023
 6227W        W10427   4.887   2.298   0.621
 6228W        W10428   9.421   8.447   3.696
 6229W        W10429  10.281   2.672  11.443
 6230W        W10430  10.583   8.118   9.185
 6231W        W10431   8.573   8.787   3.252
 6232W        W10432   0.917  10.289  11.847
 6233W        W10433   8.215   5.973  10.477
 6234W        W10434   2.087  10.189   3.595
 6235W        W10435   3.614   7.238   0.089
 6236W        W10436   4.749   9.909  11.446
 6237W        W10437   0.376  10.300  10.496
 6238W        W10438   9.284   0.562  10.971
 6239W        W10439   5.057   1.859   2.772
 6240W        W10440   1.999  10.231   0.745
 6241W        W10441   1.018   6.059  10.802
 6242W        W10442   4.897   7.502   3.069
 6243W        W10443   5.465   0.464   3.200
 6244W        W10444   7.928   0.488  10.875
 6245W        W10445   4.556   3.196   1.685
 6246W        W10446   2.265   6.733   1.798
 6247W        W10447   9.329   1.446   0.016
 6248W        W10448   3.771   0.322   1.898
 6249W        W10449   7.491   3.557  10.019
 6250W        W10450   4.528   7.515  11.818
 6251W        W10451   4.607   3.885  10.050
 6252W        W10452   5.748   5.687   9.551
 6253W        W10453   8.904  10.274  11.529
 6254W        W10454   5.481   1.365  11.506
 6255W        W10455   5.199   0.474   9.757
 6256W        W10456  11.455   6.888   2.650
 6257W        W10457   1.930   8.112  11.301
 6258W        W10458   5.973   5.334   0.743
 6259W        W10459  10.822   7.286  10.501
 6260W        W10460   5.684   8.061   1.545
 6261W        W10461   0.837  10.911   2.681
 6262W        W10462   0.816   6.380   0.007
 6263W        W10463   1.317  11.275   2.678
 6264W        W10464   7.268   6.903   1.434
 6265W        W10465   4.751   9.319  11.207
 6266W        W10466   8.908   9.029   2.048
 6267W        W10467   8.580   4.542   0.468
 6268W        W10468   8.895   4.237   1.672
 6269W        W10469   7.855   3.534   3.641
 6270W        W10470   5.634   8.030   0.986
 6271W        W10471   0.875   9.682  11.027
 6272W        W10472   9.908  11.472   2.132
 6273W        W10473   1.754   0.351   3.200
 6274W        W10474   9.061   6.220  11.153
 6275W        W10475   9.881  10.459  10.602
 6276W        W10476   7.830   5.622   2.573
 6277W        W10477  11.322   6.517   2.307
 6278W        W10478   0.159   2.161  10.327
 6279W        W10479   3.527   4.260  11.502
 6280W        W10480  10.489   0.391  10.485
 6281W        W10481   9.669   0.717   1.671
 6282W        W10482   3.974   3.652   1.199
 6283W        W10483   2.593   6.181   0.742
 6284W        W10484  11.079   4.698  11.811
 6285W        W10485   1.642   4.803   0.534
 6286W        W10486   4.153  10.551  11.014
 6287W        W10487   1.620   1.844   8.521
 6288W        W10488   3.687   8.352   9.433
 6289W        W10489   1.421  10.719   2.502
 6290W        W10490   4.292  10.347   9.598
 6291W        W10491   7.295   3.687   3.147
 6292W        W10492   1.191   4.558   0.637
 6293W        W10493   7.595  10.346  11.440
 6294W        W10494   9.005   9.820   9.122
 6295W        W10495   3.303   2.115   0.854
 6296W        W10496   4.212   2.018   2.204
 6297W        W10497   3.374   1.808  10.800
 6298W        W10498   1.354   8.044   2.296
 6299W        W10499   3.112   4.275   9.123
 6300W        W10500   7.140   3.055   1.915
 6301W        W10501   2.686   9.074   2.848
 6302W        W10502   7.666   3.644   9.514
 6303W        W10503  10.924  11.030   3.133
 6304W        W10504   7.722   0.397  10.401
 6305W        W10505   2.335   4.363   2.630
 6306W        W10506   8.386   2.888   9.503
 6307W        W10507   3.376   4.439   8.529
 6308W        W10508   9.215   6.653   4.044
 6309W        W10509   6.701   2.843  10.070
 6310W        W10510   7.857   1.011   8.893
 6311W        W10511   3.861   6.479  10.447
 6312W        W10512   5.695   1.865   1.123
 6313W        W10513   9.573   1.895   9.333
 6314W        W10514   8.946  11.220   9.098
 6315W        W10515   1.474   0.752   3.001
 6316W        W10516   2.723   8.677  11.554
 6317W        W10517   6.829  10.072   3.097
 6318W        W10518   6.922   1.944   8.999
 6319W        W10519   3.654   9.393  10.327
 6320W        W10520   9.495   0.524   3.411
 6321W        W10521   5.049   4.628   8.181
 6322W        W10522  10.000   2.340   0.373
 6323W        W10523   2.142   4.606   1.886
 6324W        W10524   6.761   8.391   8.486
 6325W        W10525  10.665   6.080  10.277
 6326W        W10526   7.484   1.255  10.028
 6327W        W10527   4.101   1.917   9.618
 6328W        W10528   5.946   9.140   9.003
 6329W        W10529   1.435   3.642   8.987
 6330W        W10530   9.584   6.134  11.061
 6331W        W10531   1.065   4.510   2.568
 6332W        W10532   1.868   3.852   8.755
 6333W        W10533   1.922   2.113   1.362
 6334W        W10534   3.717   3.128  10.830
 6335W        W10535   5.661   1.004   0.837
 6336W        W10536   9.446   0.804  11.383
 6337W        W10537   5.478   7.064   1.367
 6338W        W10538   3.623   9.581  11.890
 6339W        W10539  10.418   7.084   3.226
 6340W        W10540   0.170   2.336   3.314
 6341W        W10541  10.392   4.072   3.185
 6342W        W10542   9.415   3.168   3.238
 6343W        W10543   0.906   4.050   2.681
 6344W        W10544   8.193   3.855   2.931
 6345W        W10545   7.915   7.993   0.125
 6346W        W10546   0.755   4.689   0.916
 6347W        W10547   8.176   2.361   9.324
 6348W        W10548   5.603   4.709   1.983
 6349W        W10549   3.935   8.942   0.971
 6350W        W10550   8.884   6.032   1.861
 6351W        W10551   6.702   0.901   9.813
 6352W        W10552   8.805   3.440  11.983
 6353W        W10553   6.560   2.592   0.920
 6354W        W10554   6.937   6.003   1.820
 6355W        W10555   9.537   8.629   9.432
 6356W        W10556   1.303  10.809   0.344
 6357W        W10557   3.729   8.381  10.793
 6358W        W10558   0.814   1.763   9.945
 6359W        W10559   1.808   9.378   0.359
 6360W        W10560   2.320   5.197   9.997
 6361W        W10561   9.311   1.705   0.859
 6362W        W10562   9.849   0.184   2.762
 6363W        W10563   9.429  11.053   9.259
 6364W        W10564   2.002   2.740   3.208
 6365W        W10565   9.301   1.075   1.713
 6366W        W10566  10.415   5.941   9.032
 6367W        W10567   3.082   1.104   9.701
 6368W        W10568   8.456   7.513   0.420
 6369W        W10569   5.554  10.193   3.480
 6370W        W10570   9.095   1.913   3.184
 6371W        W10571   9.465   3.304   9.872
 6372W        W10572   9.316   5.735  11.274
 6373W        W10573   0.521   6.988   3.501
 6374W        W10574  10.238   3.222   3.362
 6375W        W10575   3.622   3.134   9.902
 6376W        W10576   1.381   8.101   9.251
 6377W        W10577   0.505   9.738   2.868
 6378W        W10578   1.254   0.384   3.302
 6379W        W10579   6.601   7.073   2.722
 6380W        W10580   7.349   3.572  11.881
 6381W        W10581   7.643  11.046   0.323
 6382W        W10582   4.812   8.933   2.021
 6383W        W10583   4.225   4.363   3.644
 6384W        W10584   5.466   8.474   0.240
 6385W        W10585   1.739   2.226   9.801
 6386W        W10586   8.610   5.897   2.285
 6387W        W10587   1.193   9.934  10.250
 6388W        W10588   3.033   7.419   1.182
 6389W        W10589   9.832   2.842   1.386
 6390W        W10590   6.074   0.394   1.224
 6391W        W10591   4.337  11.308   1.334
 6392W        W10592   5.964   6.269   1.858
 6393W        W10593   0.820  10.495  11.393
 6394W        W10594   7.119   2.752   1.112
 6395W        W10595   5.326   4.164   8.311
 6396W        W10596   1.399  10.966   9.029
 6397W        W10597   4.615   9.196   8.903
 6398W        W10598   1.141   9.985   0.241
 6399W        W10599   4.921   3.352   0.916
 6400W        W10600  11.166   1.623   3.513
 6401W        W10601   4.904   2.828   9.518
 6402W        W10602  10.142   7.941   9.337
 6403W        W10603   5.210  10.101  11.358
 6404W        W10604   2.728   3.859  10.543
 6405W        W10605   7.189   3.021   2.431
 6406W        W10606   2.851   6.036   0.296
 6407W        W10607   9.436   5.664   8.889
 6408W        W10608   8.500   4.079   8.741
 6409W        W10609  11.008   2.298   0.491
 6410W        W10610   5.238   2.407   9.468
 6411W        W10611   2.154   9.043  10.029
 6412W        W10612   4.065  10.396   2.447
 6413W        W10613   0.465   6.933   0.229
 6414W        W10614   9.576   5.038   1.213
 6415W        W10615   3.353  10.377   1.642
 6416W        W10616   3.377   6.662   0.679
 6417W        W10617   3.266   1.580   0.648
 6418W        W10618   4.617   8.419  11.252
 6419W        W10619   7.951   2.809   9.242
 6420W        W10620  10.380   1.814   3.183
 6421W        W10621   3.674   1.273   0.806
 6422W        W10622   1.654   9.101   9.877
 6423W        W10623   4.583   5.243  10.187
 6424W        W10624   5.149   0.430  11.260
 6425W        W10625   8.149  10.753   1.878
 6426W        W10626   2.407   9.271  10.692
 6427W        W10627  10.433   3.982  11.405
 6428W        W10628   6.142   2.832   9.392
 6429W        W10629   1.338   7.592   0.663
 6430W        W10630   4.049   2.878   8.606
 6431W        W10631  10.113   3.828   0.461
 6432W        W10632  11.335   1.378  10.291
 6433W        W10633   8.014   6.992   0.202
 6434W        W10634   1.113   9.495  11.450
 6435W        W10635  11.351   9.826   2.447
 6436W        W10636   9.644  11.150  10.740
 6437W        W10637   4.179   8.139  11.432
 6438W        W10638   9.410   6.889   1.163
 6439W        W10639   4.738   5.740   1.832
 6440W        W10640   3.145  10.967  10.353
 6441W        W10641   7.174   2.911   0.623
 6442W        W10642   6.671   0.029   9.639
 6443W        W10643   7.132  10.486   0.944
 6444W        W10644   9.601   1.240   2.162
 6445W        W10645   3.803  11.274   0.444
 6446W        W10646   6.736   7.995   4.059
 6447W        W10647   1.253   9.382   1.748
 6448W        W10648   4.209   6.624   3.130
 6449W        W10649   9.531   8.727  11.330
 6450W        W10650   1.180   5.922   0.842
 6451W        W10651  11.484   0.495   2.177
 6452W        W10652   2.905   7.977   1.837
 6453W        W10653   4.742   4.431   8.571
 6454W        W10654  10.453   3.750  10.353
 6455W        W10655   6.064   4.573   8.891
 6456W        W10656   3.434   0.021   8.672
 6457W        W10657   0.944   5.117  10.779
 6458W        W10658   0.202  10.573  10.108
 6459W        W10659   9.181  10.822  10.726
 6460W        W10660   7.595   6.071   1.037
 6461W        W10661   9.561   9.148   3.409
 6462W        W10662   7.687   2.145  11.316
 6463W        W10663   0.453   9.104  11.810
 6464W        W10664  10.365   5.459  10.140
 6465W        W10665   8.902   3.298   2.148
 6466W        W10666   0.341   8.977   2.721
 6467W        W10667   9.165   3.293  10.711
 6468W        W10668   4.813   8.514   9.375
 6469W        W10669  11.237   4.764   2.873
 6470W        W10670   7.206  11.247   2.360
 6471W        W10671   6.099   4.045   0.391
 6472W        W10672   1.903   3.664   9.782
 6473W        W10673  11.216   8.637   2.679
 6474W        W10674   1.550   8.288  11.620
 6475W        W10675   8.007  11.468   8.880
 6476W        W10676   0.701   5.294   8.742
 6477W        W10677   3.786   9.318  10.842
 6478W        W10678   2.771   6.996   9.261
 6479W        W10679   8.038   5.974  11.907
 6480W        W10680   3.899   2.397  10.307
 6481W        W10681   8.410   1.297   9.993
 6482W        W10682   0.433  11.006   2.279
 6483W        W10683   0.866   2.361  11.184
 6484W        W10684   9.628   6.107   3.368
 6485W        W10685   2.708   5.209   3.041
 6486W        W10686   1.757   8.925   0.824
 6487W        W10687   7.012  10.715  11.258
 6488W        W10688  11.065   7.229   2.593
 6489W        W10689   9.854   5.449  10.397
 6490W        W10690   1.274   3.249   3.197
 6491W        W10691   7.540   2.831   0.258
 6492W        W10692   4.398   0.505  11.086
 6493W        W10693   0.903   9.975   2.658
 6494W        W10694  10.344   0.892   0.998
 6495W        W10695   5.584   6.920   9.540
 6496W        W10696   0.228   6.605   3.696
 6497W        W10697   6.420   8.123   2.427
 6498W        W10698   5.620   3.667   2.806
 6499W        W10699   5.266   3.125  10.225
 6500W        W10700   1.326   5.833   1.322
 6501W        W10701   8.417   7.935   9.504
 6502W        W10702   5.718   0.879   8.620
 6503W        W10703   7.455   0.017  10.701
 6504W        W10704   9.023   2.018  11.866
 6505W        W10705   8.847   9.911   1.546
 6506W        W10706   4.192   8.237  10.937
 6507W        W10707  10.039   8.636  10.195
 6508W        W10708   6.411   0.458   9.727
 6509W        W10709   5.151  11.083   2.191
 6510W        W10710   2.882   6.974   0.371
 6511W        W10711   1.815   1.773   9.516
 6512W        W10712   7.885   0.184   9.332
 6513W        W10713   9.314   1.728  10.879
 6514W        W10714   4.005  11.296   1.753
 6515W        W10715   0.469   0.581   0.952
 6516W        W10716  11.386   9.508   0.266
 6517W        W10717   2.216  10.997  11.901
 6518W        W10718  10.439   0.822  10.189
 6519W        W10719   8.783   9.490   8.783
 6520W        W10720   0.032   8.131   9.537
 6521W        W10721   9.583   1.644   0.424
 6522W        W10722   5.240   4.268   0.394
 6523W        W10723   0.644   5.022   0.043
 6524W        W10724   3.478   7.806  10.353
 6525W        W10725  10.098   6.981  11.748
 6526W        W10726   4.083  11.417   0.001
 6527W        W10727   4.176   0.344   1.023
 6528W        W10728   1.762   8.087  10.129
 6529W        W10729   7.556   8.844   3.402
 6530W        W10730  10.447   9.863   2.432
 6531W        W10731   6.102   7.156   2.203
 6532W        W10732  10.338   4.699   0.950
 6533W        W10733  10.489   5.143   1.202
 6534W        W10734   7.839   9.921   3.094
 6535W        W10735  11.478   7.124   1.727
 6536W        W10736   6.149  10.329   9.875
 6537W        W10737   7.645   0.218   3.208
 6538W        W10738   2.877   6.616   0.765
 6539W        W10739   2.787  10.400  11.220
 6540W        W10740   4.202   3.579   3.294
 6541W        W10741  10.485   8.440   1.672
 6542W        W10742   0.205   0.827   9.222
 6543W        W10743   5.566   8.801  11.436
 6544W        W10744   5.985   8.309   9.931
 6545W        W10745   7.360   2.100   0.418
 6546W        W10746   3.145   1.742   2.987
 6547W        W10747   1.421   5.318   1.820
 6548W        W10748   5.952   8.609   9.071
 6549W        W10749   0.317   1.824   0.537
 6550W        W10750   0.317   4.703   2.072
 6551W        W10751   1.690   9.896   3.372
 6552W        W10752   1.247   6.673   2.159
 6553W        W10753   0.530   4.400   2.469
 6554W        W10754   5.756   0.800   1.298
 6555W        W10755   1.573   6.124   2.900
 6556W        W10756   0.427   8.097   2.649
 6557W        W10757   9.019   7.220   1.312
 6558W        W10758   1.704  10.844   3.283
 6559W        W10759   9.796   5.605   8.507
 6560W        W10760   0.624   7.669   2.283
 6561W        W10761   6.228   7.929   3.220
 6562W        W10762   4.403   5.385   0.259
 6563W        W10763   4.914   5.214   0.015
 6564W        W10764   6.578   0.366   9.233
 6565W        W10765   0.875   6.829  10.847
 6566W        W10766   6.516   9.122   1.926
 6567W        W10767   2.709   2.032   9.982
 6568W        W10768   5.021   8.409   9.850
 6569W        W10769   9.288   3.290   0.017
 6570W        W10770   8.401   7.922   3.619
 6571W        W10771   1.235   6.809   1.105
 6572W        W10772   8.908   2.130  11.383
 6573W        W10773   8.573   4.057   1.228
 6574W        W10774  10.153   5.921  10.339
 6575W        W10775   1.716   1.026   2.624
 6576W        W10776   4.220   4.330  10.939
 6577W        W10777   6.002  11.444   0.909
 6578W        W10778   1.051   6.231  11.571
 6579W        W10779   8.948   6.629  11.500
 6580W        W10780   5.473   6.197   0.835
 6581W        W10781   0.865   0.497  11.328
 6582W        W10782   2.562   0.195   1.481
 6583W        W10783   6.871   2.518   9.040
 6584W        W10784   7.814   9.357   2.029
 6585W        W10785   9.530   7.916   2.679
 6586W        W10786   5.612   5.669   1.492
 6587W        W10787   4.166   8.301   0.469
 6588W        W10788   7.710   6.919   1.004
 6589W        W10789   1.257   1.779   3.643
 6590W        W10790   6.157   6.210  10.590
 6591W        W10791   9.463   1.921   1.357
 6592W        W10792   2.305   3.138   0.877
 6593W        W10793   2.241   9.128   1.523
 6594W        W10794   7.109   3.796   0.298
 6595W        W10795   4.104   4.304   9.054
 6596W        W10796   2.792   0.662  11.868
 6597W        W10797   4.271  10.380   2.926
 6598W        W10798   9.532   4.891  11.005
 6599W        W10799   8.987   9.462  10.935
 6600W        W10800  11.196   1.846   8.587
 6601W        W10801   8.023  11.480  10.854
 6602W        W10802   8.640   1.804  10.385
 6603W        W10803   4.743   8.486   1.772
 6604W        W10804   8.632   0.216   9.785
 6605W        W10805   4.086   5.124   9.026
 6606W        W10806   3.210   7.208   9.443
 6607W        W10807   3.720   7.261  11.584
 6608W        W10808   5.540   7.146   0.831
 6609W        W10809   4.945   1.398   1.261
 6610W        W10810   9.449   7.033   3.777
 6611W        W10811   0.949   0.024   3.496
 6612W        W10812   3.793   9.579   9.427
 6613W        W10813  11.323   0.180   1.182
 6614W        W10814   0.919   8.783  10.809
 6615W        W10815   1.471  10.395   9.489
 6616W        W10816   6.206  10.393   2.515
 6617W        W10817   9.436  11.053   0.025
 6618W        W10818   0.397   2.165   9.301
 6619W        W10819   7.379   3.350   0.395
 6620W        W10820   2.444   4.546   8.795
 6621W        W10821   9.931   7.252   0.977
 6622W        W10822   0.503   3.829   9.031
 6623W        W10823   9.546   3.803   9.844
 6624W        W10824   8.606   1.298   0.442
 6625W        W10825   0.295   9.049   9.839
 6626W        W10826   8.007  10.318  11.798
 6627W        W10827   6.256   7.892  10.003
 6628W        W10828   2.752   0.953   0.822
 6629W        W10829   2.898   4.443   1.832
 6630W        W10830   6.084  10.058  10.723
 6631W        W10831  10.438   1.653   1.629
 6632W        W10832   0.450  11.271   2.774
 6633W        W10833   2.119   6.438   2.190
 6634W        W10834   5.404   4.085   3.094
 6635W        W10835   3.117   0.805   0.243
 6636W        W10836   7.647  10.669   3.511
 6637W        W10837   4.553   7.111   0.142
 6638W        W10838  10.830   6.601   1.685
 6639W        W10839   2.447  10.767   8.698
 6640W        W10840   7.029   6.909   1.940
 6641W        W10841   0.336   1.950   2.355
 6642W        W10842   2.665   7.043   0.997
 6643W        W10843   1.554   6.173   8.723
 6644W        W10844   6.064   9.267  10.127
 6645W        W10845   6.128   0.811   0.929
 6646W        W10846   6.139  10.202   0.687
 6647W        W10847   3.653   7.886  10.921
 6648W        W10848   7.442   4.641  11.907
 6649W        W10849   9.783   0.536  10.959
 6650W        W10850   7.129   7.903   0.558
 6651W        W10851   1.399   3.060   8.867
 6652W        W10852  10.796   9.024   1.839
 6653W        W10853   8.585   8.882  10.949
 6654W        W10854   9.070   8.883  11.757
 6655W        W10855   1.731   6.734   2.315
 6656W        W10856   7.470  10.878  11.450
 6657W        W10857   1.769   3.862   1.768
 6658W        W10858   1.491   5.615   8.948
 6659W        W10859   5.438   8.271   3.435
 6660W        W10860   9.423   9.594   0.521
 6661W        W10861   0.844   1.954   0.588
 6662W        W10862   4.873   3.935  11.331
 6663W        W10863  10.162   4.306   2.210
 6664W        W10864   8.524   0.935  11.688
 6665W        W10865   2.186   4.609  10.494
 6666W        W10866   1.090   9.012  10.277
 6667W        W10867   7.977   2.715   0.905
 6668W        W10868   2.238  11.498  10.420
 6669W        W10869   7.062   1.435   9.113
 6670W        W10870   1.019   8.497   1.290
 6671W        W10871   7.424   0.701  10.935
 6672W        W10872   6.489   8.621   2.615
 6673W        W10873  10.246   4.137  10.101
 6674W        W10874   1.479   1.483   8.863
 6675W        W10875   2.258  10.694  11.426
 6676W        W10876   0.986   0.016  11.472
 6677W        W10877   1.265   8.133  10.023
 6678W        W10878   2.366   4.282   3.528
 6679W        W10879   1.644   6.570   1.293
 6680W        W10880   1.360   6.655   8.753
 6681W        W10881   9.266   2.440   1.804
 6682W        W10882   8.363   4.113   9.770
 6683W        W10883   5.025   5.284   9.911
 6684W        W10884   0.260   4.096   0.358
 6685W        W10885   4.142   1.883   0.856
 6686W        W10886   7.033   4.268   9.105
 6687W        W10887   2.367   6.647   0.834
 6688W        W10888   7.017   4.081  10.467
 6689W        W10889   8.887   2.639  11.465
 6690W        W10890   8.993   2.669  10.096
 6691W        W10891  10.497   3.556   0.252
 6692W        W10892   4.036   4.017  11.858
 6693W        W10893   9.862   5.561   2.165
 6694W        W10894   7.933   7.164  11.291
 6695W        W10895   8.231   8.211   4.012
 6696W        W10896   8.700   5.553   9.369
 6697W        W10897   7.572   9.190   0.577
 6698W        W10898   8.017   6.513   3.228
 6699W        W10899   5.448   8.131   8.630
 6700W        W10900   0.086   4.226   1.124
 6701W        W10901   1.193   2.193   0.929
 6702W        W10902   9.977   9.194   1.327
 6703W        W10903   1.351   8.993   2.472
 6704W        W10904   3.690   1.878   0.642
 6705W        W10905   5.096   8.603  11.358
 6706W        W10906  10.872  10.416   0.295
 6707W        W10907   6.159   7.092   9.081
 6708W        W10908   0.920   6.098   0.430
 6709W        W10909   6.205   8.473   3.169
 6710W        W10910  11.292   0.733   9.522
 6711W        W10911   0.936   0.803   1.114
 6712W        W10912   7.508   8.093   1.859
 6713W        W10913   7.615  10.026   9.009
 6714W        W10914   5.268   8.822   4.114
 6715W        W10915  11.197   0.516   3.413
 6716W        W10916   6.051   3.551   0.490
 6717W        W10917   5.291  10.412   1.576
 6718W        W10918   8.504  11.296   8.778
 6719W        W10919   6.677   3.225  11.140
 6720W        W10920  10.877   3.771  11.574
 6721W        W10921   9.796  10.147  10.220
 6722W        W10922   0.430   5.709   9.065
 6723W        W10923   8.593   9.289   1.306
 6724W        W10924   7.573   2.585   9.547
 6725W        W10925   0.780   4.146   1.677
 6726W        W10926   8.680   3.660  11.520
 6727W        W10927   3.980   7.768   2.679
 6728W        W10928   5.763  11.358  11.285
 6729W        W10929   7.097   7.375   0.362
 6730W        W10930   7.415   1.819   9.057
 6731W        W10931   8.817   0.206   9.280
 6732W        W10932   7.423   9.244   8.955
 6733W        W10933   4.229  10.850   2.712
 6734W        W10934  11.171   2.408   0.971
 6735W        W10935   2.985   2.228   3.241
 6736W        W10936  10.983   9.280   1.434
 6737W        W10937   1.409   3.775  11.988
 6738W        W10938   1.586   1.275   8.380
 6739W        W10939   2.782   0.209   9.424
 6740W        W10940   8.447   2.707   9.031
 6741W        W10941   7.040  10.772   9.915
 6742W        W10942   2.397   2.736   2.108
 6743W        W10943   9.110   1.948   1.760
 6744W        W10944   1.583   5.722   9.723
 6745W        W10945   2.028   8.064  10.568
 6746W        W10946   1.065   6.128  10.164
 6747W        W10947  11.368   4.250   3.465
 6748W        W10948   7.499   5.686  10.293
 6749W        W10949   7.894   6.090   2.930
 6750W        W10950   7.676   4.695   8.627
 6751W        W10951   9.434   9.061   1.339
 6752W        W10952   4.075   4.558   3.194
 6753W        W10953   3.168   6.687   9.474
 6754W        W10954   7.820   1.857   0.386
 6755W        W10955   9.297   3.739   0.681
 6756W        W10956  10.566   1.674  10.475
 6757W        W10957   4.148   4.781   1.882
 6758W        W10958   8.113  11.072   2.289
 6759W        W10959   4.655   2.130   2.999
 6760W        W10960   1.770  10.671   0.617
 6761W        W10961   2.001   2.776   0.016
 6762W        W10962  10.656   9.518   1.759
 6763W        W10963  10.834   5.488   9.115
 6764W        W10964   9.848   5.626   2.674
 6765W        W10965   2.822   4.705   8.043
 6766W        W10966  10.088   5.279   9.724
 6767W        W10967   4.343   7.317  10.090
 6768W        W10968   4.224   3.828   1.616
 6769W        W10969   7.942   2.702   1.925
 6770W        W10970   6.161   4.559   2.209
 6771W        W10971   2.880   4.882  10.386
 6772W        W10972   0.670   6.152   9.809
 6773W        W10973   5.216   8.188   0.678
 6774W        W10974   5.189   9.619   9.502
 6775W        W10975   3.734   4.139   9.730
 6776W        W10976  11.043   9.796  10.882
 6777W        W10977   7.101   6.801   2.886
 6778W        W10978   3.350   7.433   2.137
 6779W        W10979   3.742   5.730   0.958
 6780W        W10980   8.728   5.946   0.287
 6781W        W10981   0.269  10.296   0.517
 6782W        W10982   0.126   6.169  11.631
 6783W        W10983   1.666   7.582   9.537
 6784W        W10984   5.112   8.430  10.880
 6785W        W10985   7.529   5.727   0.673
 6786W        W10986  10.813   8.135  10.637
 6787W        W10987   5.663   2.890   0.935
 6788W        W10988  10.660   4.337   2.246
 6789W        W10989  11.046   1.341  11.167
 6790W        W10990   3.715   7.421  10.605
 6791W        W10991   1.324   1.957  10.762
 6792W        W10992   6.758  11.189  11.265
 6793W        W10993   4.127   1.210   9.945
 6794W        W10994   5.818   2.535   0.500
 6795W        W10995   0.030   0.343   2.693
 6796W        W10996   4.325  10.509   1.458
 6797W        W10997   6.973   7.572  10.326
 6798W        W10998   5.732   5.739   2.994
 6799W        W10999   6.798   1.647  10.357
 6800W        W11000   8.829  11.010  10.377
 6801W        W11001   8.445   9.044   0.883
 6802W        W11002  10.950   3.170   2.500
 6803W        W11003   1.818   3.159  11.447
 6804W        W11004   6.214   0.008   9.367
 6805W        W11005   0.897   5.461   0.242
 6806W        W11006   9.966   7.944  11.453
 6807W        W11007   9.644   5.611   3.161
 6808W        W11008   5.568   7.661  11.921
 6809W        W11009   5.134   9.660   2.880
 6810W        W11010   5.243   0.640   8.712
 6811W        W11011   4.097   8.971   9.603
 6812W        W11012   5.187   9.941   0.300
 6813W        W11013  10.780   6.153   1.472
 6814W        W11014   9.632   3.944   0.358
 6815W        W11015   9.899   5.786   1.720
 6816W        W11016   9.112   4.702   1.849
 6817W        W11017   5.369   3.296   3.541
 6818W        W11018   4.104   5.478   1.258
 6819W        W11019   1.769   2.738   9.050
 6820W        W11020   7.848   1.296   0.796
 6821W        W11021  11.105   0.241   2.412
 6822W        W11022   0.385  10.469   1.929
 6823W        W11023   2.065   8.914  10.542
 6824W        W11024   9.960   9.160  10.118
 6825W        W11025   0.859   8.211   3.009
 6826W        W11026   2.364   4.795   2.343
 6827W        W11027   6.947   5.335  11.046
 6828W        W11028   5.778   8.133   3.084
 6829W        W11029   1.837   4.315   2.744
 6830W        W11030   9.856   8.986  10.580
 6831W        W11031  10.889   2.331   1.412
 6832W        W11032   8.823   0.648  11.198
 6833W        W11033   2.212   6.213   8.880
 6834W        W11034   0.669   0.948   0.658
 6835W        W11035  10.023   3.253  10.313
 6836W        W11036   8.019   2.694   1.418
 6837W        W11037   0.138   9.322  11.324
 6838W        W11038   5.234   9.115   8.137
 6839W        W11039   6.210   2.823  10.799
 6840W        W11040   8.391   2.239  10.257
 6841W        W11041   8.439  11.481  11.938
 6842W        W11042   6.658  10.266   1.697
 6843W        W11043   6.491   7.618   9.564
 6844W        W11044   8.484   2.874   1.020
 6845W        W11045   7.441   1.430   2.726
 6846W        W11046   9.652   5.795  11.770
 6847W        W11047   3.166   3.830   1.574
 6848W        W11048   4.539   9.832  11.914
 6849W        W11049   2.278   4.417   1.323
 6850W        W11050   8.874   7.143  10.744
 6851W        W11051   5.369   1.446   9.701
 6852W        W11052   4.259   0.701   9.911
 6853W        W11053   6.117   0.897   2.969
 6854W        W11054   1.874   8.535   2.780
 6855W        W11055   7.031   1.319   3.075
 6856W        W11056   8.447   2.123   2.213
 6857W        W11057   7.259   6.690  10.849
 6858W        W11058  11.337  10.321   9.024
 6859W        W11059   4.379   2.328   0.715
 6860W        W11060   8.836   6.038   9.336
 6861W        W11061   1.452   3.690   9.505
 6862W        W11062  11.467   5.660   8.533
 6863W        W11063   7.450  10.017   0.908
 6864W        W11064  11.434   1.778   9.511
 6865W        W11065   1.652   5.653   2.149
 6866W        W11066   0.985   8.974   3.451
 6867W        W11067  11.337   1.211   9.318
 6868W        W11068  10.865   7.586  11.287
 6869W        W11069   0.708   5.711   9.509
 6870W        W11070   4.467   6.106  11.714
 6871W        W11071   9.321   1.187   0.874
 6872W        W11072   1.515   8.342  11.005
 6873W        W11073   1.271   1.195   3.158
 6874W        W11074   9.954  10.989   8.543
 6875W        W11075   0.828   7.438   8.973
 6876W        W11076   8.999   3.897   2.962
 6877W        W11077  10.455   3.545  11.744
 6878W        W11078   7.158   4.640   0.434
 6879W        W11079  10.852   6.663   2.173
 6880W        W11080   1.251  11.068   3.441
 6881W        W11081   8.382   4.936   1.377
 6882W        W11082   8.710   3.817   9.508
 6883W        W11083   1.854   1.792   9.002
 6884W        W11084   8.079  10.952   8.836
 6885W        W11085   7.872   9.574   9.181
 6886W        W11086   5.922   6.070   0.603
 6887W        W11087   9.355  10.168  10.472
 6888W        W11088   0.848   7.381   3.338
 6889W        W11089   2.824   8.854   9.107
 6890W        W11090   9.549   8.200  11.274
 6891W        W11091   1.203   7.588   1.542
 6892W        W11092   1.260   3.347  11.130
 6893W        W11093   6.140   8.708   1.347
 6894W        W11094   1.435  11.427   3.162
 6895W        W11095   8.693   0.477  10.287
 6896W        W11096  10.502   2.147   0.427
 6897W        W11097   9.479   5.920   1.483
 6898W        W11098  10.913   6.676  11.579
 6899W        W11099   1.769   3.223   9.414
 6900W        W11100   5.899  10.859  10.913
 6901W        W11101   2.164  10.317   2.215
 6902W        W11102   2.292   2.729  10.354
 6903W        W11103   8.503   9.798  10.822
 6904W        W11104   6.394   1.512  10.007
 6905W        W11105  11.444   0.891   1.642
 6906W        W11106   0.409   2.253  11.363
 6907W        W11107   8.137   1.260  11.132
 6908W        W11108   9.630   6.035   2.870
 6909W        W11109   7.040   2.800   3.602
 6910W        W11110   9.651   1.859  10.371
 6911W        W11111   1.887   7.092   0.502
 6912W        W11112   5.142   2.759   3.635
 6913W        W11113   4.863   6.146   9.766
 6914W        W11114   8.038   3.881   2.439
 6915W        W11115   4.649   1.156   9.902
 6916W        W11116   8.399   2.801  11.534
 6917W        W11117   2.776   5.786  11.227
 6918W        W11118   8.446   0.062   1.612
 6919W        W11119   3.808  11.404   1.295
 6920W        W11120  11.398  10.590   0.231
 6921W        W11121   5.828   0.689   0.467
 6922W        W11122   1.783   4.314  10.443
 6923W        W11123   5.082   4.793  10.717
 6924W        W11124  10.595   1.757   0.738
 6925W        W11125   3.574  11.192   0.884
 6926W        W11126   0.106   4.673  10.496
 6927W        W11127   6.215   9.642   1.262
 6928W        W11128  11.447   7.757   9.088
 6929W        W11129   4.544   6.495  10.966
 6930W        W11130   5.264  10.283   2.099
 6931W        W11131   1.491   7.583   2.566
 6932W        W11132   5.970   7.744   1.274
 6933W        W11133   7.344   5.878   0.230
 6934W        W11134   0.185   7.269   2.374
 6935W        W11135   6.076   7.060  11.099
 6936W        W11136   9.584   0.957  10.157
 6937W        W11137   9.918   9.681  10.067
 6938W        W11138   0.987   3.898   8.815
 6939W        W11139   0.743  10.767   9.322
 6940W        W11140   8.657   7.905   2.659
 6941W        W11141  11.169   9.655  11.352
 6942W        W11142   3.336   3.805  11.329
 6943W        W11143  10.426   2.647   0.346
 6944W        W11144   5.712   7.079   2.926
 6945W        W11145   7.224   2.296   2.364
 6946W        W11146   2.477   5.038   7.854
 6947W        W11147  10.018   2.356   2.421
 6948W        W11148   9.602   5.138   2.173
 6949W        W11149   5.259  11.023   1.290
 6950W        W11150   4.405   2.530   8.827
 6951W        W11151  11.482   4.409  11.993
 6952W        W11152   9.028   3.348   0.477
 6953W        W11153   7.560  10.818  10.079
 6954W        W11154   8.874   4.284   9.387
 6955W        W11155  10.297   3.201   1.866
 6956W        W11156   7.429   6.515   0.773
 6957W        W11157  11.022   5.797   1.216
 6958W        W11158   3.211   5.228  10.544
 6959W        W11159  10.718   5.492   2.688
 6960W        W11160  11.410   9.350   8.584
 6961W        W11161   5.220   4.195   0.912
 6962W        W11162   8.988   7.061   8.599
 6963W        W11163   7.449   4.785   0.826
 6964W        W11164   3.141   1.880  11.259
 6965W        W11165  11.048   5.154   2.496
 6966W        W11166   3.647   4.677   1.742
 6967W        W11167   0.731   2.384   0.938
 6968W        W11168   2.700   6.601   1.274
 6969W        W11169   2.284   3.538   3.045
 6970W        W11170   5.704   1.064   9.965
 6971W        W11171   9.557   8.153   2.226
 6972W        W11172   8.061   1.658  11.460
 6973W        W11173  10.418   8.406   9.915
 6974W        W11174   0.369   7.466   9.837
 6975W        W11175   7.236   8.461  10.569
 6976W        W11176  11.492   9.275   1.612
 6977W        W11177  10.465  11.444   8.916
 6978W        W11178   5.139   1.660  11.983
 6979W        W11179  10.854   2.477   3.292
 6980W        W11180   7.879  10.749   9.627
 6981W        W11181   7.428   5.321  11.253
 6982W        W11182   1.726   9.972  11.082
 6983W        W11183  10.477   3.629   2.190
 6984W        W11184  11.246   6.013   9.540
 6985W        W11185   4.201   4.080   2.164
 6986W        W11186   8.159   5.152   8.666
 6987W        W11187   3.264   5.818  11.043
 6988W        W11188   6.067  11.058   9.099
 6989W        W11189   7.337   6.247  11.509
 6990W        W11190   3.216   5.616   1.039
 6991W        W11191   0.714   1.795   1.466
 6992W        W11192   7.463   4.574   9.091
 6993W        W11193   1.067   0.821   3.465
 6994W        W11194   6.916   8.371   2.460
 6995W        W11195   5.624   9.137   9.872
 6996W        W11196   3.023   2.853  11.447
 6997W        W11197   8.648   8.338   8.647
 6998W        W11198   6.030   3.306  10.743
 6999W        W11199  11.468   9.840   9.772
 7000W        W11200   8.467   3.674   9.073
 7001W        W11201   2.342   0.766  11.351
 7002W        W11202   0.314  11.324  11.322
 7003W        W11203   5.355   2.631  10.320
 7004W        W11204   7.980   8.415   0.395
 7005W        W11205   8.858   8.078   3.426
 7006W        W11206   0.029   5.128  10.771
 7007W        W11207   0.544   7.036   9.540
 7008W        W11208   0.820   6.166   9.274
 7009W        W11209   9.357   2.207  10.618
 7010W        W11210   8.642  10.555   0.030
 7011W        W11211   4.174   5.671  10.789
 7012W        W11212   4.866   1.165   0.259
 7013W        W11213  10.936   8.411   3.523
 7014W        W11214   1.518   8.988   9.384
 7015W        W11215   6.107   4.447  10.461
 7016W        W11216  10.429  10.008   8.953
 7017W        W11217  10.432   9.970   1.402
 7018W        W11218   0.391   3.168  11.220
 7019W        W11219   7.640   0.930   1.161
 7020W        W11220   3.428   2.105   2.745
 7021W        W11221   0.616   1.822  10.456
 7022W        W11222   4.729   4.211   3.608
 7023W        W11223   3.088  11.425  11.882
 7024W        W11224   1.158   6.248   2.587
 7025W        W11225   4.706   6.709   8.633
 7026W        W11226   2.592   8.423   2.497
 7027W        W11227   2.338   5.508   9.568
 7028W        W11228   1.370   4.156   1.455
 7029W        W11229  11.451   4.848   8.777
 7030W        W11230   2.402   3.578   0.233
 7031W        W11231   7.084   3.823  10.891
 7032W        W11232   2.618   7.508   1.632
 7033W        W11233   4.607   2.261   1.612
 7034W        W11234   3.641   9.039   1.506
 7035W        W11235   3.943   8.533   9.838
 7036W        W11236  11.447   6.503   1.289
 7037W        W11237   6.977   0.285   1.671
 7038W        W11238   7.229   3.666   1.292
 7039W        W11239  11.083   1.786  10.487
 7040W        W11240   9.659   0.457  10.293
 7041W        W11241   5.463   4.828   3.281
 7042W        W11242   5.731   0.358   2.740
 7043W        W11243   4.118   7.790   0.390
 7044W        W11244   8.008   0.315   2.854
 7045W        W11245   9.367   8.704   0.926
 7046W        W11246   6.009   9.516   2.461
 7047W        W11247   9.249   7.200  10.375
 7048W        W11248   4.527  10.450   3.367
 7049W        W11249   3.049   1.242   2.423
 7050W        W11250  10.919   9.790   1.411
 7051W        W11251   8.463   7.449   3.397
 7052W        W11252  10.696   2.244   0.926
 7053W        W11253   8.118   1.427   0.373
 7054W        W11254   8.534  10.802   2.259
 7055W        W11255   0.214   9.415   3.122
 7056W        W11256   8.840   3.281   1.633
 7057W        W11257   5.964   2.469   1.637
 7058W        W11258   4.295   1.938  11.056
 7059W        W11259   6.721   6.626   0.225
 7060W        W11260   1.423   0.678   3.851
 7061W        W11261   2.529   5.302   0.759
 7062W        W11262   3.905   4.043   3.331
 7063W        W11263   3.878   3.550  10.541
 7064W        W11264   5.263  10.485   9.829
 7065W        W11265   0.709   9.996  11.402
 7066W        W11266   9.008  10.660  11.200
 7067W        W11267   7.948   7.502  11.695
 7068W        W11268   8.222   8.363  11.920
 7069W        W11269  10.872   1.909   3.191
 7070W        W11270  11.460   7.074  10.879
 7071W        W11271   4.287   8.923  11.876
 7072W        W11272   4.969  11.265  10.132
 7073W        W11273   5.216   0.437  10.729
 7074W        W11274   3.693   5.464   9.393
 7075W        W11275   6.879   8.152   1.521
 7076W        W11276   2.946   8.022   3.340
 7077W        W11277   1.863   9.869   2.299
 7078W        W11278   2.922   6.026   1.142
 7079W        W11279   1.863   1.347   1.822
 7080W        W11280   6.065   9.064  10.613
 7081W        W11281   6.078   1.770  11.990
 7082W        W11282   7.606   3.810   2.164
 7083W        W11283   7.568   2.636  10.055
 7084W        W11284   2.004   4.175   2.233
 7085W        W11285  11.022   3.303  11.452
 7086W        W11286  10.729  11.416  10.364
 7087W        W11287   2.598   6.524   0.339
 7088W        W11288  10.519   7.707  10.575
 7089W        W11289   2.282   3.622   0.727
 7090W        W11290   5.927   3.742   8.461
 7091W        W11291   5.278   2.121   0.911
 7092W        W11292   6.954   9.466   9.049
 7093W        W11293  10.593   3.696   9.214
 7094W        W11294   3.421   6.114   2.430
 7095W        W11295   7.222   6.382   0.283
 7096W        W11296   2.897   6.401  10.414
 7097W        W11297   2.665   6.563   3.177
 7098W        W11298   6.754   3.642   3.122
 7099W        W11299   5.146   4.158  10.041
 7100W        W11300   9.570   0.888  10.670
 7101W        W11301   9.016  10.329  10.821
 7102W        W11302   0.978   4.143   0.008
 7103W        W11303   8.034   6.075   3.496
 7104W        W11304   9.283   6.964   9.231
 7105W        W11305   9.470   0.530   2.609
 7106W        W11306   4.984   8.844   9.034
 7107W        W11307   3.248   0.913   0.729
 7108W        W11308   6.697   6.156  10.509
 7109W        W11309   5.738   9.421   1.228
 7110W        W11310   3.816  10.282  11.355
 7111W        W11311   2.549   0.408   2.418
 7112W        W11312   9.462  11.321  11.180
 7113W        W11313   9.579   5.075   3.163
 7114W        W11314   7.587   7.317   1.380
 7115W        W11315   6.582   9.008   1.415
 7116W        W11316   1.386   9.923   2.484
 7117W        W11317  11.359   9.060   9.571
 7118W        W11318   6.585   1.588   0.026
 7119W        W11319   0.360   9.942   2.405
 7120W        W11320   3.339   8.077  11.616
 7121W        W11321   2.742   5.540   9.176
 7122W        W11322  10.114   3.297   0.506
 7123W        W11323   3.522   4.850   3.088
 7124W        W11324   7.885   2.208   0.765
 7125W        W11325   2.236  11.480   8.864
 7126W        W11326   1.148   4.543   9.447
 7127W        W11327   1.857   1.309   9.792
 7128W        W11328   8.215   6.217  10.000
 7129W        W11329   4.136   8.689   1.390
 7130W        W11330   1.524   4.651   9.792
 7131W        W11331   6.106   4.113   9.638
 7132W        W11332   7.210   5.147   0.569
 7133W        W11333   9.910   7.295   3.294
 7134W        W11334   3.045   8.079   0.816
 7135W        W11335   8.480   8.485  11.275
 7136W        W11336   3.679   6.288   0.836
 7137W        W11337   8.382   6.976   2.835
 7138W        W11338  10.812   8.422   2.362
 7139W        W11339   0.477   7.889   1.655
 7140W        W11340  10.259   1.311  11.817
 7141W        W11341   5.288   2.820  11.100
 7142W        W11342  11.430   3.143   1.648
 7143W        W11343   7.626   7.385   9.180
 7144W        W11344   7.592  10.892   9.064
 7145W        W11345   4.642   1.871   1.952
 7146W        W11346   2.388  10.746  10.036
 7147W        W11347   2.862   6.245  11.447
 7148W        W11348  11.342   3.763  10.845
 7149W        W11349   8.507   2.558   3.022
 7150W        W11350   8.632   8.744   1.248
 7151W        W11351   5.632   8.589   2.819
 7152W        W11352   1.779   0.346  11.977
 7153W        W11353   2.355   7.428   2.299
 7154W        W11354   2.259   8.894  11.523
 7155W        W11355   5.671   7.056  10.606
 7156W        W11356   0.997   1.361  10.942
 7157W        W11357   0.273   8.944   3.299
 7158W        W11358   1.297   9.944   9.760
 7159W        W11359   2.160   9.846   0.376
 7160W        W11360  10.551   7.938   9.684
 7161W        W11361   2.639   2.643  10.763
 7162W        W11362   6.112   6.195   8.721
 7163W        W11363   0.048   2.365   2.339
 7164W        W11364  11.349   4.639   1.333
 7165W        W11365   9.879  11.305   8.977
 7166W        W11366   6.201   9.825   0.319
 7167W        W11367   6.085   6.997   9.593
 7168W        W11368   4.648   4.924   2.289
 7169W        W11369   7.954  11.157   9.306
 7170W        W11370   8.956   1.532  11.689
 7171W        W11371   5.271  10.563   2.875
 7172W        W11372   3.856   5.079   0.532
 7173W        W11373   2.985   0.005   3.170
 7174W        W11374   6.939   8.868   1.772
 7175W        W11375  10.439   2.906  10.260
 7176W        W11376   4.450   7.994  10.546
 7177W        W11377  10.994  10.721   8.679
 7178W        W11378   9.467   3.787   2.151
 7179W        W11379   0.101   3.299   3.142
 7180W        W11380   0.445   6.186   1.292
 7181W        W11381   4.328  10.944   9.834
 7182W        W11382   2.860   1.166  11.929
 7183W        W11383   7.345   9.916   3.215
 7184W        W11384   5.254   7.852   9.024
 7185W        W11385   6.724   8.578  10.579
 7186W        W11386   9.057  10.918   3.014
 7187W        W11387   2.230   9.452   3.355
 7188W        W11388  10.050   4.860   1.373
 7189W        W11389  10.464   8.039   2.448
 7190W        W11390   6.096   4.678  11.338
 7191W        W11391   6.553  10.000   9.834
 7192W        W11392   4.678   6.708   0.924
 7193W        W11393   3.134   1.767   3.480
 7194W        W11394   1.645   1.769  11.097
 7195W        W11395   3.771  10.303   2.958
 7196W        W11396   1.306   7.433  11.742
 7197W        W11397   3.925   6.065   2.333
 7198W        W11398   8.483   2.771   0.030
 7199W        W11399   9.043   9.412  10.405
 7200W        W11400   8.507   8.547   0.313
 7201W        W11401   0.264   8.550   9.315
 7202W        W11402   0.821   3.241   0.496
 7203W        W11403   9.130   2.639   9.580
 7204W        W11404   9.370   0.210   3.008
 7205W        W11405   6.502   9.454   9.894
 7206W        W11406   9.279   0.993   3.495
 7207W        W11407   7.020   8.469   0.419
 7208W        W11408   5.585   9.495   2.728
 7209W        W11409  11.356   8.092   3.548
 7210W        W11410   1.457   5.691  10.697
 7211W        W11411   6.984  11.489   2.751
 7212W        W11412   0.338  10.762   2.799
 7213W        W11413   8.716   2.309   3.399
 7214W        W11414  11.390   7.971  10.843
 7215W        W11415   9.144  11.197   1.183
 7216W        W11416   5.267   3.329   8.392
 7217W        W11417  10.395   4.497   9.780
 7218W        W11418   4.663   6.722   3.386
 7219W        W11419   8.508   7.279   0.885
 7220W        W11420   5.679   4.833   1.470
 7221W        W11421   2.827   2.116   1.399
 7222W        W11422   9.558   9.365   9.850
 7223W        W11423   3.270   0.429  11.926
 7224W        W11424   9.402   3.257   0.813
 7225W        W11425   7.791   3.117  10.099
 7226W        W11426   6.981   7.978   1.056
 7227W        W11427   9.465   0.726   0.728
 7228W        W11428   5.889  10.589   8.971
 7229W        W11429  10.736   4.165   1.385
 7230W        W11430   9.908   6.206   0.958
 7231W        W11431   5.327   4.922   1.101
 7232W        W11432   1.342   1.240  11.536
 7233W        W11433   9.812  10.352   2.509
 7234W        W11434   3.670   6.533  11.459
 7235W        W11435  10.155   4.292   1.341
 7236W        W11436   3.099   0.039   2.675
 7237W        W11437   0.672   9.444   9.355
 7238W        W11438   2.125  11.448  10.940
 7239W        W11439  10.416   1.349  10.097
 7240W        W11440   5.213   8.393  10.336
 7241W        W11441   6.185  10.844  10.074
 7242W        W11442   7.627  10.442   9.313
 7243W        W11443   0.476   9.077   1.709
 7244W        W11444  10.407   1.846   2.664
 7245W        W11445   8.506   1.975   8.488
 7246W        W11446   4.743   0.528  11.971
 7247W        W11447  10.277   9.477   2.115
 7248W        W11448   4.818   0.929   1.125
 7249W        W11449   8.466   3.223   0.284
 7250W        W11450   8.349   7.968   2.244
 7251W        W11451   0.665   8.617   3.245
 7252W        W11452   3.771   8.632   3.989
 7253W        W11453   5.924   4.990   3.096
 7254W        W11454   2.319   2.129   2.879
 7255W        W11455   5.276  10.827   0.143
 7256W        W11456  10.419   6.927   9.929
 7257W        W11457   3.225   6.523  11.714
 7258W        W11458   3.597   7.001   1.940
 7259W        W11459   6.450   5.248   0.917
 7260W        W11460   4.649   7.604   9.802
 7261W        W11461   2.016   2.740   0.867
 7262W        W11462   1.703   9.122   1.655
 7263W        W11463   5.148   4.324  10.994
 7264W        W11464   6.399   7.084   3.522
 7265W        W11465   0.482   7.167  10.811
 7266W        W11466   5.682   2.061   0.612
 7267W        W11467   5.486   8.934   9.051
 7268W        W11468   8.627   0.802   0.326
 7269W        W11469   0.834   6.773   0.810
 7270W        W11470   1.306   7.049   0.624
 7271W        W11471   9.687   8.142   9.459
 7272W        W11472   0.118   3.087   1.176
 7273W        W11473   2.755   1.659   2.238
 7274W        W11474   8.488   5.637   8.460
 7275W        W11475   8.584   8.437  10.671
 7276W        W11476   0.611   7.201   0.995
 7277W        W11477   2.119   9.736   9.832
 7278W        W11478   7.754   6.359  10.994
 7279W        W11479   5.126   0.045   1.250
 7280W        W11480   2.380   6.067   2.405
 7281W        W11481  10.002   9.474   3.000
 7282W        W11482   5.576   7.055   1.909
 7283W        W11483   3.610   6.911   9.344
 7284W        W11484   7.138   0.249   3.266
 7285W        W11485   4.741   2.214   9.035
 7286W        W11486   2.305   3.852   1.282
 7287W        W11487  10.967   3.781   1.018
 7288W        W11488   0.416   5.083   0.500
 7289W        W11489   4.104  10.654  11.512
 7290W        W11490   0.861   1.010  11.302
 7291W        W11491   6.360   2.493   8.186
 7292W        W11492   3.680   7.499   1.760
 7293W        W11493   0.903   5.189  11.322
 7294W        W11494   3.118  10.944   0.437
 7295W        W11495   4.341   4.983   0.580
 7296W        W11496   1.547  10.962   9.907
 7297W        W11497   3.919   2.812  11.595
 7298W        W11498   5.340   4.030  10.517
 7299W        W11499   6.673   4.695   2.145
 7300W        W11500   6.583   7.681   2.736
 7301W        W11501   8.996   6.660   9.965
 7302W        W11502   8.112  11.240  11.344
 7303W        W11503   7.585   3.218   3.314
 7304W        W11504   9.458   1.861   8.835
 7305W        W11505   3.055   0.938  10.609
 7306W        W11506   1.749   5.250   1.426
 7307W        W11507   8.770   5.356  11.612
 7308W        W11508   6.208   1.934   9.793
 7309W        W11509   2.899   7.857   9.035
 7310W        W11510   9.540   2.224   2.698
 7311W        W11511   8.565   6.353   8.189
 7312W        W11512   7.908   4.828   9.064
 7313W        W11513   4.742   8.474   2.301
 7314W        W11514   9.507   3.720   3.427
 7315W        W11515   0.359  10.088   9.999
 7316W        W11516   4.787   1.196   3.728
 7317W        W11517   6.425   2.891   2.764
 7318W        W11518   1.973   3.410   2.656
 7319W        W11519   1.444   7.957   1.793
 7320W        W11520   3.114   6.508   0.248
 7321W        W11521   4.238   0.552   1.956
 7322W        W11522   7.018   2.395   0.754
 7323W        W11523   1.717   8.432   0.581
 7324W        W11524   0.048   2.065   0.939
 7325W        W11525   5.581   2.715   3.895
 7326W        W11526   6.531   3.370  11.618
 7327W        W11527   5.596   4.603   8.266
 7328W        W11528   7.441   8.865   0.947
 7329W        W11529   0.407   9.635  11.944
 7330W        W11530   5.728   1.416   9.315
 7331W        W11531   5.562   2.362   9.872
 7332W        W11532   0.810   5.530  11.706
 7333W        W11533   3.594  10.883   0.201
 7334W        W11534   5.291   9.827  10.409
 7335W        W11535   8.849   9.332  11.927
 7336W        W11536  10.873   3.662   8.782
 7337W        W11537   4.260   7.702   2.275
 7338W        W11538   9.592   6.442   2.571
 7339W        W11539   4.461   8.455  11.733
 7340W        W11540   4.139   5.534   0.694
 7341W        W11541  11.357   8.965   0.985
 7342W        W11542   2.988   9.694   8.440
 7343W        W11543   4.233   1.863   3.188
 7344W        W11544  11.465   1.867   3.142
 7345W        W11545   0.486   3.643   0.481
 7346W        W11546   8.959   3.740   1.440
 7347W        W11547   0.900  10.511  10.545
 7348W        W11548   7.679   1.923  10.629
 7349W        W11549   3.097  11.021   0.956
 7350W        W11550   0.777   4.088   3.683
 7351W        W11551   1.716  11.338   9.586
 7352W        W11552   1.085   1.259   0.854
 7353W        W11553   4.487   4.666   8.944
 7354W        W11554   3.661   3.189   0.399
 7355W        W11555   8.174   7.539   9.709
 7356W        W11556   2.220  10.216  11.038
 7357W        W11557   1.913   3.770   0.241
 7358W        W11558  10.868   3.589  10.676
 7359W        W11559   3.552  10.760   3.277
 7360W        W11560   9.421   1.840   2.250
 7361W        W11561   3.275   0.642  10.023
 7362W        W11562   0.008  11.361   1.523
 7363W        W11563   2.286   2.749   0.437
 7364W        W11564  11.343   8.882  10.068
 7365W        W11565   4.702   5.952   4.046
 7366W        W11566   6.377  10.913  11.086
 7367W        W11567   6.630   5.712  11.502
 7368W        W11568   7.864   2.197   9.721
 7369W        W11569  11.112   3.714   9.238
 7370W        W11570  10.824   4.957   0.351
 7371W        W11571   2.280   9.383  11.714
 7372W        W11572   1.546   5.335   8.499
 7373W        W11573   0.974   9.510   2.884
 7374W        W11574   1.865   7.900   1.516
 7375W        W11575   1.802   5.688   1.143
 7376W        W11576   1.852   7.542   0.738
 7377W        W11577   3.839   3.581   2.644
 7378W        W11578   6.135   9.490   1.952
 7379W        W11579   7.644   4.551   3.752
 7380W        W11580   1.274   6.672   1.631
 7381W        W11581   9.865  10.496   0.301
 7382W        W11582   1.815   4.590   1.452
 7383W        W11583   1.625   5.664  11.181
 7384W        W11584   9.362  10.330   9.961
 7385W        W11585   2.729   5.550   1.185
 7386W        W11586   5.684   7.538   2.645
 7387W        W11587   0.981   4.199  10.571
 7388W        W11588   9.509   4.404   1.771
 7389W        W11589   2.643  10.256   9.558
 7390W        W11590   5.339   4.249   1.953
 7391W        W11591   0.424   1.766   1.896
 7392W        W11592   3.719   1.728   2.524
 7393W        W11593   0.876   0.752   1.654
 7394W        W11594   2.301   7.093   8.560
 7395W        W11595   8.375   5.246  11.970
 7396W        W11596  10.385   2.210   9.542
 7397W        W11597   1.160   5.820   2.894
 7398W        W11598   6.040   2.571   2.110
 7399W        W11599   3.552   5.179   8.998
 7400W        W11600   8.024   5.692   3.835
 7401W        W11601   2.372   6.069   3.320
 7402W        W11602  11.028   8.280   0.795
 7403W        W11603   4.416   0.324   3.251
 7404W        W11604   9.207   0.506   1.581
 7405W        W11605   5.618   4.050  10.972
 7406W        W11606   9.608   7.399   2.673
 7407W        W11607   0.046  10.248   9.489
 7408W        W11608   5.963  10.266   0.197
 7409W        W11609   2.858   9.977   2.572
 7410W        W11610   1.833   7.245   2.322
 7411W        W11611   1.431   8.645  10.061
 7412W        W11612   8.942   5.139   9.546
 7413W        W11613   4.069  10.767   9.402
 7414W        W11614   6.404   7.991   1.528
 7415W        W11615  10.369   4.702   0.379
 7416W        W11616   7.307   5.762   2.372
 7417W        W11617   3.274   8.213  10.609
 7418W        W11618   2.661   0.875   3.145
 7419W        W11619  10.486   9.358   3.150
 7420W        W11620   6.651   3.751  10.333
 7421W        W11621   3.223   6.953   8.999
 7422W        W11622   8.452   0.197   8.414
 7423W        W11623   3.749   2.778   0.667
 7424W        W11624   2.475  11.402   3.233
 7425W        W11625  11.139   7.950   9.847
 7426W        W11626   5.012   3.102   2.328
 7427W        W11627   6.755   9.803  10.449
 7428W        W11628   3.539   4.440   9.371
 7429W        W11629  11.090   8.791   1.421
 7430W        W11630   3.058  10.925   1.518
 7431W        W11631   6.994  11.162   9.528
 7432W        W11632   6.391   9.386   0.462
 7433W        W11633   8.377   9.954   1.757
 7434W        W11634   4.959   3.690  11.742
 7435W        W11635   7.661   1.761  10.108
 7436W        W11636   3.643  10.912   1.757
 7437W        W11637   0.338   4.322   8.821
 7438W        W11638   4.713   5.720   0.030
 7439W        W11639  10.796   0.730   9.433
 7440W        W11640   1.194  11.325   9.829
 7441W        W11641   2.395   8.909   2.464
 7442W        W11642  10.542   4.221   0.921
 7443W        W11643   0.167   2.194  11.822
 7444W        W11644   2.937   2.663   0.001
 7445W        W11645  10.691   5.254   8.564
 7446W        W11646   7.600   8.094  11.768
 7447W        W11647   0.589   5.115   1.872
 7448W        W11648   2.239   3.848  11.838
 7449W        W11649  10.316   0.999  11.412
 7450W        W11650  11.376  10.083  11.135
 7451W        W11651  10.536  11.370   3.273
 7452W        W11652   7.046   1.865   3.438
 7453W        W11653   3.006   2.120   2.221
 7454W        W11654   8.163   9.962   2.707
 7455W        W11655   3.198   9.608  10.263
 7456W        W11656  10.681   0.382   3.248
 7457W        W11657   3.286   4.123   0.838
 7458W        W11658   4.099   6.969   1.939
 7459W        W11659  11.033  10.716   9.993
 7460W        W11660   5.123   7.217  11.511
 7461W        W11661   8.107  10.848   3.280
 7462W        W11662   2.215   5.081   8.630
 7463W        W11663  10.762   0.327   8.519
 7464W        W11664   5.546   7.257   3.779
 7465W        W11665  10.361   5.446   8.909
 7466W        W11666   2.935   2.808   3.299
 7467W        W11667  10.745   9.277  11.618
 7468W        W11668  10.337   5.604   3.029
 7469W        W11669   8.108  10.265   9.593
 7470W        W11670   1.781  10.096   9.737
 7471W        W11671   5.512   4.566   3.734
 7472W        W11672   4.690   9.307  11.775
 7473W        W11673   7.609   4.771   2.163
 7474W        W11674   7.137   8.419   9.257
 7475W        W11675   1.079   4.853   3.694
 7476W        W11676   1.584   8.179   3.501
 7477W        W11677   4.015   7.598  11.898
 7478W        W11678   9.157   3.659  11.675
 7479W        W11679   5.620   0.334   9.488
 7480W        W11680   8.621   8.008  11.527
 7481W        W11681  11.317  10.013   1.163
 7482W        W11682  11.385   8.277   9.070
 7483W        W11683   3.399  10.357   1.119
 7484W        W11684   1.845   8.379   1.058
 7485W        W11685   1.198   9.080  11.140
 7486W        W11686   2.653   9.774   0.436
 7487W        W11687   5.035   5.318   2.346
 7488W        W11688   7.750   2.370   0.278
 7489W        W11689  10.301   9.122   1.744
 7490W        W11690   8.950  10.448   2.816
 7491W        W11691   1.114   4.421   8.710
 7492W        W11692   2.906   8.862   2.405
 7493W        W11693   1.722   1.411  11.892
 7494W        W11694   3.483   2.562   9.027
 7495W        W11695   7.147   8.795   2.245
 7496W        W11696   6.799   7.657   1.401
 7497W        W11697   2.656   0.363   3.427
 7498W        W11698   1.235   9.555   1.241
 7499W        W11699   7.824   8.572  10.011
 7500W        W11700   6.156   7.335   2.690
 7501W        W11701   2.640   0.714   0.367
 7502W        W11702   3.112   1.671   9.107
 7503W        W11703   8.043   4.732  11.294
 7504W        W11704   4.644   8.527   1.271
 7505W        W11705   5.075   6.093   1.977
 7506W        W11706   4.711   4.832   0.942
 7507W        W11707   1.210   0.751   9.436
 7508W        W11708   7.505   2.627   9.050
 7509W        W11709   6.570   9.034  10.730
 7510W        W11710   1.818   6.616   9.600
 7511W        W11711  10.481   0.200   0.450
 7512W        W11712   8.214   8.491  10.314
 7513W        W11713   4.489   5.256  11.738
 7514W        W11714   0.933   3.101   0.968
 7515W        W11715   9.981   6.819   0.700
 7516W        W11716   2.392   8.023   0.069
 7517W        W11717   0.718   5.709   1.990
 7518W        W11718   8.670   2.051   2.949
 7519W        W11719   5.035   4.393  11.500
 7520W        W11720   9.282   8.391   0.513
 7521W        W11721   8.880   2.289  10.436
 7522W        W11722   3.943   2.375   8.612
 7523W        W11723  10.987   5.248  10.026
 7524W        W11724   6.772   5.132  10.141
 7525W        W11725   9.038   2.524   0.460
 7526W        W11726   8.873   4.445   8.880
 7527W        W11727   3.223   8.411   1.746
 7528W        W11728   3.563   4.869   1.257
 7529W        W11729  10.548   3.740   0.721
 7530W        W11730   6.562   3.340  10.021
 7531W        W11731   0.936   4.787   9.046
 7532W        W11732   5.442   8.372  11.688
 7533W        W11733   1.902   3.713   9.255
 7534W        W11734   3.899   2.148  10.788
 7535W        W11735  10.428   1.185  10.570
 7536W        W11736   3.399   5.228   4.105
 7537W        W11737   6.123   2.786   3.160
 7538W        W11738   4.062   9.139  11.384
 7539W        W11739   6.009   4.786  10.836
 7540W        W11740   8.235   8.442   1.392
 7541W        W11741   9.305   1.812  11.444
 7542W        W11742   1.637   6.475   3.255
 7543W        W11743   8.161   7.340   9.243
 7544W        W11744   8.257   1.713   2.987
 7545W        W11745   8.569  10.854   2.847
 7546W        W11746   2.212   4.092   3.086
 7547W        W11747  11.434   9.592  11.769
 7548W        W11748   0.451   2.633   2.865
 7549W        W11749   6.174   5.046   1.326
 7550W        W11750   6.592   9.055   2.899
 7551W        W11751   7.686  11.450  11.527
 7552W        W11752   6.323   0.885   0.460
 7553W        W11753   0.863   8.932  11.526
 7554W        W11754   2.132   9.798  11.360
 7555W        W11755   5.003   7.415   0.051
 7556W        W11756  10.735  10.833   1.278
 7557W        W11757   3.968   7.955   9.179
 7558W        W11758   5.052   4.066   8.744
 7559W        W11759   9.072   3.371   8.986
 7560W        W11760   4.362   9.557   0.318
 7561W        W11761   2.355   6.694   9.008
 7562W        W11762   6.158   5.989   2.233
 7563W        W11763   6.233   4.481   3.037
 7564W        W11764   0.852   5.656   1.163
 7565W        W11765   0.371   9.559   9.959
 7566W        W11766   8.553   5.183   8.224
 7567W        W11767   3.354   2.467   2.366
 7568W        W11768  10.372   0.494   8.814
 7569W        W11769   8.564   3.672  11.031
 7570W        W11770  11.357   8.256  11.288
 7571W        W11771  10.196   0.275   3.151
 7572W        W11772   6.192   6.603  11.336
 7573W        W11773  10.805   3.309   1.871
 7574W        W11774   5.136   7.404  10.111
 7575W        W11775   0.517  10.833  10.419
 7576W        W11776   5.166   8.638   2.610
 7577W        W11777   9.923   0.007  11.034
 7578W        W11778   7.075   9.335   1.494
 7579W        W11779   9.184   8.247   9.441
 7580W        W11780   5.232   1.921   0.422
 7581W        W11781   4.228   4.558   2.346
 7582W        W11782   8.984   8.920  10.225
 7583W        W11783   0.676   2.373   3.267
 7584W        W11784   7.590   6.431   4.019
 7585W        W11785   8.993   6.480   7.894
 7586W        W11786   7.978   6.847  10.854
 7587W        W11787   2.815  11.370   1.195
 7588W        W11788   9.605   4.533   9.397
 7589W        W11789   6.903   7.591  10.834
 7590W        W11790   5.642   9.818  10.869
 7591W        W11791   0.374   6.568   9.696
 7592W        W11792   2.128   0.412   1.332
 7593W        W11793   3.023   2.356  10.618
 7594W        W11794  10.826  10.754  11.415
 7595W        W11795   1.201   7.840   2.890
 7596W        W11796   0.388   7.122   3.023
 7597W        W11797   5.043   8.838  10.551
 7598W        W11798   7.451   1.642   0.732
 7599W        W11799   5.602   0.252  11.006
 7600W        W11800   7.915   7.808   9.343
 7601W        W11801   6.436   9.688  10.866
 7602W        W11802   5.206   2.865   2.719
 7603W        W11803   5.182   6.161  10.474
 7604W        W11804   5.229   2.105   8.497
 7605W        W11805   1.461   0.232  11.250
 7606W        W11806   2.719   1.620   0.130
 7607W        W11807   0.859   6.860   3.098
 7608W        W11808   8.219   3.645   8.632
 7609W        W11809   0.905   9.065   2.022
 7610W        W11810   6.109  11.343  10.893
 7611W        W11811   5.624   9.461  10.284
 7612W        W11812   3.556   0.159  10.050
 7613W        W11813  11.220  10.438   2.876
 7614W        W11814   6.616   8.941   0.415
 7615W        W11815   0.338   4.179   9.363
 7616W        W11816   1.502   7.415  11.162
 7617W        W11817   8.492   2.823  11.010
 7618W        W11818   2.843   9.782   8.962
 7619W        W11819   4.825   2.461  10.443
 7620W        W11820   3.517   1.315  10.724
 7621W        W11821   4.793   7.658   0.807
 7622W        W11822   1.503   5.090   9.447
 7623W        W11823   3.472   5.465   8.535
 7624W        W11824  10.331   5.574   1.932
 7625W        W11825   2.734   5.731  11.744
 7626W        W11826   9.214   5.206   1.887
 7627W        W11827   2.725   3.584   8.902
 7628W        W11828   5.974  10.302   8.506
 7629W        W11829   6.659  10.142   9.369
 7630W        W11830   2.229   2.437   9.025
 7631W        W11831   6.351   8.204   8.225
 7632W        W11832   6.980  11.498  10.487
 7633W        W11833   8.652  10.814   9.942
 7634W        W11834   6.019   4.547   9.934
 7635W        W11835   5.663   2.710  11.504
 7636W        W11836   4.103  10.638   8.681
 7637W        W11837   5.760   3.209   3.853
 7638W        W11838   5.062   0.705  10.326
 7639W        W11839   2.662   4.528  10.686
 7640W        W11840  11.088  11.494  11.748
 7641W        W11841   7.458   1.269  11.837
 7642W        W11842   5.555   5.941  11.099
 7643W        W11843   1.809   6.403   0.034
 7644W        W11844   5.459  11.272  10.280
 7645W        W11845   2.964   8.395   8.371
 7646W        W11846   4.219   5.536  11.309
 7647W        W11847   4.753   7.481   2.234
 7648W        W11848   6.059   2.110  10.599
 7649W        W11849   9.278   8.163  10.260
 7650W        W11850   2.804   1.264   1.916
 7651W        W11851   8.886   1.153   0.019
 7652W        W11852   4.730   9.323  10.691
 7653W        W11853   0.929  11.273   1.926
 7654W        W11854   1.119   2.659   1.135
 7655W        W11855   8.203   6.049   1.225
 7656W        W11856   9.945   0.372   9.623
 7657W        W11857   0.282   6.970  10.000
 7658W        W11858   2.631   8.542   8.734
 7659W        W11859   2.696   5.068   8.391
 7660W        W11860   2.757   4.275   8.318
 7661W        W11861  11.399   4.803  10.062
 7662W        W11862   4.274   2.721  10.211
 7663W        W11863   5.049   4.427   9.100
 7664W        W11864   5.635   9.835   9.357
 7665W        W11865   5.874   3.602   1.416
 7666W        W11866   9.507  10.397   9.047
 7667W        W11867   6.188   5.719   2.703
 7668W        W11868  10.417   5.167   9.330
 7669W        W11869   9.315   7.470   8.558
 7670W        W11870  11.251   8.316   3.088
 7671W        W11871  11.497   6.022   1.096
 7672W        W11872  11.294   4.739   9.557
 7673W        W11873  11.326   1.859  10.018
 7674W        W11874   2.953   6.908  10.368
 7675W        W11875   6.839   7.124  11.535
 7676W        W11876   6.443   6.638   9.541
 7677W        W11877   5.162   2.354  11.320
 7678W        W11878   7.755   5.068  10.758
 7679W        W11879   6.729   3.628   1.291
 7680W        W11880   2.656   1.452   0.791
 7681W        W11881   2.838   2.595   2.316
 7682W        W11882   7.146  10.457   2.916
 7683W        W11883   9.780   9.428   9.095
 7684W        W11884  10.602   4.779  11.922
 7685W        W11885   7.591  10.361   3.116
 7686W        W11886   0.879   1.439   9.520
 7687W        W11887   3.692   3.866  10.169
 7688W        W11888  10.536   5.153   1.719
 7689W        W11889   0.686   9.541   2.446
 7690W        W11890   1.750   5.151   9.899
 7691W        W11891   3.839   3.278  11.353
 7692W        W11892   9.948  10.094   9.741
 7693W        W11893  10.310  11.406   1.821
 7694W        W11894   7.127   2.602  10.839
 7695W        W11895   4.751   9.527   9.240
 7696W        W11896   5.156   9.581  11.380
 7697W        W11897  10.008   2.104   2.924
 7698W        W11898   7.974   5.730  11.474
 7699W        W11899   9.953   4.908   0.066
 7700W        W11900   1.209  10.850  10.276
 7701W        W11901   7.584   0.584   0.774
 7702W        W11902   6.807   7.156   1.230
 7703W        W11903  10.316   0.769   9.269
 7704W        W11904   0.058   6.946  11.909
 7705W        W11905   6.488   4.536   0.640
 7706W        W11906   8.157  11.497   9.713
 7707W        W11907   0.690   3.002   2.370
 7708W        W11908   5.162   8.005   1.156
 7709W        W11909  10.355   0.926   2.394
 7710W        W11910   0.223   9.821  11.398
 7711W        W11911   8.462   9.483  11.643
 7712W        W11912   2.132   0.719   3.289
 7713W        W11913   2.295  10.483  11.944
 7714W        W11914   0.074   1.557   0.886
 7715W        W11915   2.311   8.389   1.248
 7716W        W11916   3.781   3.113   2.811
 7717W        W11917   4.383   9.446   3.685
 7718W        W11918   2.346  11.210   2.337
 7719W        W11919   3.654   7.584   0.440
 7720W        W11920   2.632   4.970   0.362
 7721W        W11921   1.333   9.989  11.760
 7722W        W11922   7.915   1.485  10.749
 7723W        W11923  10.488   1.153   1.534
 7724W        W11924   0.761   3.150   9.338
 7725W        W11925   7.104   1.624  10.829
 7726W        W11926   6.251   7.653   2.290
 7727W        W11927   6.576   6.536   1.100
 7728W        W11928   1.767   2.043   0.486
 7729W        W11929   9.395   1.315  11.514
 7730W        W11930   3.688   3.727   1.648
 7731W        W11931   7.448   4.316   1.965
 7732W        W11932   1.906   1.542   0.471
 7733W        W11933   1.156   9.447   2.268
 7734W        W11934   9.910   6.623   8.711
 7735W        W11935   5.968  10.712   3.329
 7736W        W11936   0.269   9.525   9.016
 7737W        W11937   7.857   5.507  11.005
 7738W        W11938   8.178   9.040   2.186
 7739W        W11939   0.975   3.195   2.764
 7740W        W11940   3.008   4.217  11.502
 7741W        W11941  10.195   4.481  11.927
 7742W        W11942   7.573  10.330  10.291
 7743W        W11943   1.675   8.998   2.861
 7744W        W11944  10.830   6.577   0.676
 7745W        W11945   6.710   0.076   0.437
 7746W        W11946  11.281   6.103   1.550
 7747W        W11947   9.590   3.688  11.909
 7748W        W11948   1.985  11.458   0.878
 7749W        W11949   3.740   7.824   2.189
 7750W        W11950   1.770   5.785   0.656
 7751W        W11951   8.866   8.109   1.484
 7752W        W11952   4.933   6.529   9.090
 7753W        W11953   0.019   2.728   1.985
 7754W        W11954  10.442  11.104  11.121
 7755W        W11955   6.710   2.207   9.410
 7756W        W11956   4.376   1.530   2.272
 7757W        W11957   3.603   4.184   8.945
 7758W        W11958   4.795   0.215  10.956
 7759W        W11959   2.866   7.063   3.284
 7760W        W11960   5.729  10.631   9.951
 7761W        W11961  10.975   4.815   8.566
 7762W        W11962   9.233   9.101   0.614
 7763W        W11963  10.568   2.776  10.725
 7764W        W11964   6.178   1.732   1.009
 7765W        W11965   6.493  10.690   0.809
 7766W        W11966   3.162   4.214   2.262
 7767W        W11967   5.222   6.824   8.770
 7768W        W11968   0.415   5.553   0.049
 7769W        W11969  11.465   6.178   9.061
 7770W        W11970  10.913   5.904  10.998
 7771W        W11971   4.244  10.095  10.803
 7772W        W11972   8.987   9.061   1.052
 7773W        W11973   5.053  11.093   9.368
 7774W        W11974   8.537   5.320   2.376
 7775W        W11975   3.156   3.313  10.015
 7776W        W11976   8.191   0.969   0.106
 7777W        W11977   1.388  10.378  10.484
 7778W        W11978   1.907   4.270   0.424
 7779W        W11979   6.547   3.710   0.399
 7780W        W11980   6.441  10.799   2.315
 7781W        W11981   0.698   9.787   8.934
 7782W        W11982   6.181   4.300  11.887
 7783W        W11983   9.561  11.094   9.816
 7784W        W11984   2.409   5.067  10.508
 7785W        W11985   8.220   5.117  10.991
 7786W        W11986   9.408   3.744   1.173
 7787W        W11987   7.040   7.021   2.436
 7788W        W11988   1.761   7.719   2.163
 7789W        W11989  11.320   9.390   9.989
 7790W        W11990   2.490   3.112  10.614
 7791W        W11991   8.872   9.797  11.685
 7792W        W11992   5.157   1.885   1.828
 7793W        W11993   4.819  11.302   1.563
 7794W        W11994   2.914   3.655   0.247
 7795W        W11995   5.368   2.732   9.047
 7796W        W11996   7.981   0.208  11.866
 7797W        W11997   6.398   9.126   3.727
 7798W        W11998   8.341   3.408   1.744
 7799W        W11999   5.997   0.183   0.213
 7800W        W12000   6.507  10.841  11.581
 7801W        W12001  10.475   2.216   3.529
 7802W        W12002   0.796   6.704   1.790
 7803W        W12003   8.423   1.408  11.959
 7804W        W12004   1.781   1.765  10.033
 7805W        W12005   3.259   8.685  10.344
 7806W        W12006   6.603   6.130   0.799
 7807W        W12007   9.450   8.135   3.281
 7808W        W12008   1.438   3.527   2.051
 7809W        W12009   6.273   8.850  11.085
 7810W        W12010   8.885   6.201   3.235
 7811W        W12011   8.774   9.590   3.171
 7812W        W12012   5.703   5.117   9.145
 7813W        W12013   9.318   3.385   1.793
 7814W        W12014   7.635   5.424   9.815
 7815W        W12015   3.133   2.073   9.696
 7816W        W12016   0.922   1.919   3.250
 7817W        W12017   8.967   0.477   3.290
 7818W        W12018  10.410   6.439   1.989
 7819W        W12019   7.912   4.277  10.032
 7820W        W12020   6.673   2.534  11.988
 7821W        W12021   4.500   5.780   1.070
 7822W        W12022  10.849   7.022   0.915
 7823W        W12023   4.445   3.242   0.775
 7824W        W12024  10.648   9.593   9.554
 7825W        W12025  11.383   5.498   3.208
 7826W        W12026   6.655   2.726   9.500
 7827W        W12027   5.490  10.158  11.808
 7828W        W12028   2.789   4.845   0.839
 7829W        W12029   2.483   9.548   1.695
 7830W        W12030   5.137   6.499   1.188
 7831W        W12031   1.806   3.363   0.828
 7832W        W12032  10.454   9.131   9.421
 7833W        W12033   4.268   8.649   3.861
 7834W        W12034   0.843   0.259   1.120
 7835W        W12035   5.942   8.217   3.565
 7836W        W12036   7.637   6.560  10.532
 7837W        W12037   4.457   4.217  10.457
 7838W        W12038   8.959  10.822   9.455
 7839W        W12039   7.870   6.926   9.096
 7840W        W12040   8.511   6.907   1.406
 7841W        W12041   2.672  10.793   1.151
 7842W        W12042  10.043  11.298   3.055
 7843W        W12043   3.088   7.045   1.943
 7844W        W12044   3.791   5.963  11.031
 7845W        W12045   4.818   6.141  11.306
 7846W        W12046   9.548   8.619  10.353
 7847W        W12047   3.391  10.014   9.193
 7848W        W12048   2.243   7.875   9.467
 7849W        W12049   3.349   3.463   0.075
 7850W        W12050   1.477   7.851  11.974
 7851W        W12051   4.475   2.758   9.769
 7852W        W12052   8.584   9.153   0.426
 7853W        W12053   9.095  11.336  10.789
 7854W        W12054   7.185   2.371   3.371
 7855W        W12055   2.553   2.625  11.289
 7856W        W12056   0.341   4.812   1.251
 7857W        W12057   4.672   0.158   2.827
 7858W        W12058   5.787   4.370   1.684
 7859W        W12059   6.675   6.070   2.282
 7860W        W12060   5.876   2.730   8.980
 7861W        W12061   8.293   5.142   3.205
 7862W        W12062   6.910   5.102   2.374
 7863W        W12063   9.124   8.412  11.505
 7864W        W12064   2.237   5.268   9.098
 7865W        W12065   1.274   4.148   9.761
 7866W        W12066   0.822   0.246   2.108
 7867W        W12067   7.461  11.484  10.184
 7868W        W12068   0.745   2.174   1.963
 7869W        W12069   7.170   0.760  11.840
 7870W        W12070   8.348   4.536  10.287
 7871W        W12071  11.108   4.110   2.288
 7872W        W12072   9.908   3.778   1.331
 7873W        W12073   3.132   9.337   0.732
 7874W        W12074   3.824   1.631   9.936
 7875W        W12075  10.862   4.638  10.821
 7876W        W12076   8.241   6.371  10.810
 7877W        W12077  10.098   3.811   9.549
 7878W        W12078  10.690   4.177  10.564
 7879W        W12079   5.138   7.507  10.612
 7880W        W12080  11.342  10.955   2.813
 7881W        W12081   0.434   5.286   1.407
 7882W        W12082  10.045   3.783   3.470
 7883W        W12083   6.339   3.942   8.189
 7884W        W12084   3.220   5.430   3.667
 7885W        W12085   8.529   0.761   3.250
 7886W        W12086   1.797   6.497   9.079
 7887W        W12087   2.316   1.858   0.448
 7888W        W12088  10.874   3.918  11.086
 7889W        W12089   5.226   1.839  11.434
 7890W        W12090   5.456   8.170   9.896
 7891W        W12091   5.879   2.012   1.910
 7892W        W12092   2.316   7.545  11.788
 7893W        W12093   3.052   0.318   1.385
 7894W        W12094   7.609   3.110  10.970
 7895W        W12095   2.442  10.664  10.901
 7896W        W12096   4.251   3.212  10.413
 7897W        W12097   8.595   4.255   2.853
 7898W        W12098   1.364   0.383   0.854
 7899W        W12099   0.304   0.404  11.994
 7900W        W12100   7.042   0.238   2.219
 7901W        W12101   9.142   6.650   8.863
 7902W        W12102   4.199   7.481   1.837
 7903W        W12103   8.590   1.820   3.376
 7904W        W12104   1.508   0.331   9.593
 7905W        W12105   1.517   2.954   8.381
 7906W        W12106   7.342   6.465  10.102
 7907W        W12107  10.582   7.129   2.734
 7908W        W12108  11.353   9.760   3.436
 7909W        W12109   6.446   9.768   0.811
 7910W        W12110   1.920   7.747   3.472
 7911W        W12111   2.842   1.895   0.541
 7912W        W12112   7.030   4.837   9.113
 7913W        W12113   3.292   6.221  10.703
 7914W        W12114   9.618   3.103   2.758
 7915W        W12115   6.454   6.073  10.988
 7916W        W12116  10.358  10.381   0.233
 7917W        W12117   3.122   6.051  11.842
 7918W        W12118   5.349   1.913  10.010
 7919W        W12119   7.715   5.945  10.693
 7920W        W12120   7.503   5.390   0.242
 7921W        W12121   9.421  10.247   2.826
 7922W        W12122   1.004   9.845   1.651
 7923W        W12123   4.609   1.770   1.424
 7924W        W12124   6.154   2.257   0.772
 7925W        W12125   1.812   2.279   8.747
 7926W        W12126   2.184   7.084  11.565
 7927W        W12127   9.477   9.127   9.383
 7928W        W12128   4.647   1.892  10.291
 7929W        W12129   1.372   6.992   3.232
 7930W        W12130   9.978   3.282  10.846
 7931W        W12131   8.969   5.043   3.739
 7932W        W12132   6.471   9.965  11.898
 7933W        W12133   5.206   8.341   1.570
 7934W        W12134   6.597   2.327   0.469
 7935W        W12135  11.280  10.534  10.417
 7936W        W12136   4.796   0.991   1.626
 7937W        W12137   7.704   8.963  11.405
 7938W        W12138   5.528   7.551  11.436
 7939W        W12139   7.619   3.131   2.010
 7940W        W12140   7.943   6.884  11.711
 7941W        W12141   4.680   9.412   2.166
 7942W        W12142   2.242   6.146   0.282
 7943W        W12143   3.923   0.411   8.797
 7944W        W12144   5.934   0.980   9.483
 7945W        W12145   7.503   4.092   9.273
 7946W        W12146   9.502   1.901   3.538
 7947W        W12147   4.648  11.072   1.998
 7948W        W12148   5.719   1.175   0.345
 7949W        W12149   5.399  10.822  10.745
 7950W        W12150   6.980   4.196   9.961
 7951W        W12151   7.685   7.073  10.480
 7952W        W12152   3.681   6.456  10.931
 7953W        W12153  10.035   8.340   8.422
 7954W        W12154  10.994   0.417  10.384
 7955W        W12155  10.770   4.147   2.716
 7956W        W12156   1.321   6.620   2.884
 7957W        W12157   2.296   4.737   9.229
 7958W        W12158   2.322   1.617   2.928
 7959W        W12159   2.987   7.518   2.572
 7960W        W12160   5.484  11.469   0.887
 7961W        W12161   9.581   5.405   1.611
 7962W        W12162   1.000   7.030   8.717
 7963W        W12163   7.081   3.034   0.116
 7964W        W12164   1.786   5.421   0.299
 7965W        W12165   6.812   3.277   3.739
 7966W        W12166   6.684   5.350  10.593
 7967W        W12167   3.593   1.440   1.286
 7968W        W12168   4.192   7.991   0.890
 7969W        W12169   4.349   4.844   2.779
 7970W        W12170   2.191   0.404   1.964
 7971W        W12171   8.341  10.394   0.434
 7972W        W12172   5.255   9.368  11.848
 7973W        W12173   7.638   2.572  11.804
 7974W        W12174   2.821   2.840   2.792
 7975W        W12175   4.821   2.875  10.133
 7976W        W12176   0.772   7.586   1.288
 7977W        W12177   8.640  10.870   3.360
 7978W        W12178   0.797   4.138   9.575
 7979W        W12179   6.126   0.425   1.736
 7980W        W12180  10.546  10.717   0.568
 7981W        W12181   4.994  10.636   2.394
 7982W        W12182   5.606   9.637   9.813
 7983W        W12183   8.044   7.380   1.670
 7984W        W12184   3.031   9.044   9.561
 7985W        W12185  10.322   3.592   3.012
 7986W        W12186   5.122   1.648   0.850
 7987W        W12187   5.108   1.131   8.791
 7988W        W12188   9.973  10.842   3.257
 7989W        W12189   8.498   0.400  11.493
 7990W        W12190   8.532   7.450   2.841
 7991W        W12191   4.432   0.584   2.440
 7992W        W12192   7.454   3.045   9.717
 7993W        W12193   7.250  10.882   1.975
 7994W        W12194   0.008   5.532  11.725
 7995W        W12195   5.066  10.325   3.296
 7996W        W12196   8.685   9.383   2.337
 7997W        W12197   9.549   1.116   0.363
 7998W        W12198   6.561   9.515  11.639
 7999W        W12199   1.789   5.899   0.133
 8000W        W12200   5.629   3.676   3.304
 8001W        W12201   8.639   1.260   2.509
 8002W        W12202   9.030   4.534  11.877
 8003W        W12203  11.012   9.055   8.776
 8004W        W12204   2.459   7.045  11.081
 8005W        W12205   0.941   9.912   2.160
 8006W        W12206   9.644  10.984   3.657
 8007W        W12207   8.814   7.076  11.249
 8008W        W12208   6.540   2.186   8.790
 8009W        W12209   3.237   6.464  11.194
 8010W        W12210   0.698   3.673   9.802
 8011W        W12211   8.107   6.223   3.975
 8012W        W12212  10.475   8.612   9.404
 8013W        W12213  10.775   9.037  10.746
 8014W        W12214   6.553   4.788   1.644
 8015W        W12215   7.957   4.131   3.665
 8016W        W12216   7.551   2.857  11.400
 8017W        W12217   3.343   2.782   0.325
 8018W        W12218   2.695   6.508   9.537
 8019W        W12219   7.214   6.642   3.692
 8020W        W12220   1.486   2.795   3.040
 8021W        W12221   1.354   6.025   3.367
 8022W        W12222   0.669   5.221   0.932
 8023W        W12223   8.339   5.587  10.811
 8024W        W12224   8.686  10.508   1.770
 8025W        W12225   2.657   8.032   8.609
 8026W        W12226   6.920   9.859  11.678
 8027W        W12227   9.147   1.806  10.384
 8028W        W12228   2.693   6.026   8.992
 8029W        W12229   2.255   6.617  11.849
 8030W        W12230   5.276   6.042  11.510
 8031W        W12231   5.843   2.702   8.317
 8032W        W12232   0.300   7.455   1.413
 8033W        W12233  10.805   7.669  10.148
 8034W        W12234   3.421   5.242   0.316
 8035W        W12235   9.291   9.320   1.808
 8036W        W12236   6.995   9.825   1.670
 8037W        W12237   5.941   8.668  10.313
 8038W        W12238   5.830   0.031   9.020
 8039W        W12239  10.879   7.991   3.230
 8040W        W12240   3.212  10.211   2.182
 8041W        W12241   6.499  11.408  10.269
 8042W        W12242   5.425   9.576   3.697
 8043W        W12243   4.455   1.642   9.886
 8044W        W12244   2.442   2.156  11.456
 8045W        W12245   6.129   8.816   1.833
 8046W        W12246   0.310   9.910   3.289
 8047W        W12247   3.412  10.519   9.918
 8048W        W12248   9.081  10.224   8.780
 8049W        W12249   6.991  10.975  11.689
 8050W        W12250   8.698   5.736   3.109
 8051W        W12251  10.323   2.431  10.423
 8052W        W12252   5.019   6.516  10.101
 8053W        W12253   6.895   8.981   3.679
 8054W        W12254   9.904   4.066   1.774
 8055W        W12255   9.336   6.038   9.239
 8056W        W12256   0.356   1.306  10.386
 8057W        W12257  11.189   4.260   2.976
 8058W        W12258   7.245  11.075  10.396
 8059W        W12259  10.346   1.775   2.153
 8060W        W12260   8.650   5.221  10.639
 8061W        W12261   7.576   4.836  11.456
 8062W        W12262   3.116   4.768   0.415
 8063W        W12263   3.439   8.014   9.126
 8064W        W12264   7.796   3.872   3.257
 8065W        W12265   2.468   7.491  11.307
 8066W        W12266   4.197   3.841  11.026
 8067W        W12267   0.400   0.850   8.751
 8068W        W12268   7.905   0.694   9.305
 8069W        W12269   9.801   2.815  11.587
 8070W        W12270  11.393   8.621   0.138
 8071W        W12271   3.422   9.923  11.556
 8072W        W12272   1.760   4.587   0.017
 8073W        W12273   0.941   0.037   2.960
 8074W        W12274   5.225   5.592   1.869
 8075W        W12275   6.757   0.508   3.550
 8076W        W12276   2.416   7.068   0.546
 8077W        W12277   9.552  11.179   0.516
 8078W        W12278   2.747   6.908   8.746
 8079W        W12279  10.383   5.066   3.274
 8080W        W12280   1.459   3.733   0.490
 8081W        W12281  10.391   5.147   0.661
 8082W        W12282  11.382   8.433   1.657
 8083W        W12283   4.168   4.155  10.033
 8084W        W12284   4.771   0.651   2.802
 8085W        W12285   9.618   2.290   3.204
 8086W        W12286   7.572   7.584   1.842
 8087W        W12287   6.605   2.079   0.932
 8088W        W12288  10.155   8.995   0.487
 8089W        W12289   6.541   0.414   1.443
 8090W        W12290   3.289   6.662   1.662
 8091W        W12291   3.558   8.071   0.800
 8092W        W12292   3.235   3.215   2.775
 8093W        W12293   0.772   2.229   2.791
 8094W        W12294   5.952   3.828  11.860
 8095W        W12295   0.436   3.046   9.742
 8096W        W12296  10.409  10.029   9.476
 8097W        W12297   9.033   4.987  10.415
 8098W        W12298   5.569   9.432   2.217
 8099W        W12299   3.121   5.140   8.682
 8100W        W12300   3.590   9.930  11.066
 8101W        W12301   4.287   2.665   1.452
 8102W        W12302   8.469  10.395   2.623
 8103W        W12303   2.185   2.282   0.734
 8104W        W12304   4.750   0.319   8.368
 8105W        W12305   9.811   7.015   2.332
 8106W        W12306   0.455   4.798  10.097
 8107W        W12307   3.782   5.944  10.483
 8108W        W12308  11.062   2.873  11.720
 8109W        W12309   2.783   0.809  10.017
 8110W        W12310   0.512   9.512  10.721
 8111W        W12311   6.950  11.404   0.874
 8112W        W12312   6.859   6.045   0.338
 8113W        W12313   0.821  11.202  10.173
 8114W        W12314   7.374   8.922  11.774
 8115W        W12315  10.482   8.814   3.459
 8116W        W12316   3.823   2.121   9.061
 8117W        W12317   4.141   1.980  10.130
 8118W        W12318   6.304   6.302   9.191
 8119W        W12319   5.182   1.142   0.854
 8120W        W12320   0.678   5.259   9.255
 8121W        W12321   8.062   5.696   1.677
 8122W        W12322   9.076   8.535  10.540
 8123W        W12323  10.928   9.134  10.273
 8124W        W12324   6.328  10.026  10.289
 8125W        W12325   8.186   6.542   8.961
 8126W        W12326   2.104   7.118   2.742
 8127W        W12327   7.090  10.573   1.481
 8128W        W12328   6.083   9.786   9.906
 8129W        W12329  10.982   4.899   1.612
 8130W        W12330   0.353   2.611  10.497
 8131W        W12331  10.011   0.794   9.922
 8132W        W12332   1.855  11.013  11.512
 8133W        W12333   0.212   4.512   9.740
 8134W        W12334   2.449   6.152   1.256
 8135W        W12335   7.509   9.708   1.329
 8136W        W12336  11.119   7.842   0.027
 8137W        W12337   4.372   8.959   8.524
 8138W        W12338   8.178   3.184  10.440
 8139W        W12339   1.236   9.966  11.270
 8140W        W12340   3.967  10.844   0.865
 8141W        W12341   6.277  10.964  10.559
 8142W        W12342   5.082   9.659  10.873
 8143W        W12343   5.145   2.626   2.266
 8144W        W12344   3.679   4.349  11.977
 8145W        W12345   2.686  11.187  10.402
 8146W        W12346   7.528   4.054  11.829
 8147W        W12347   9.055   9.541   0.878
 8148W        W12348   7.963   8.480  11.429
 8149W        W12349   2.247  10.949  10.521
 8150W        W12350   2.826   3.648   9.815
 8151W        W12351   7.449  10.782  10.745
 8152W        W12352   1.257   1.005  10.429
 8153W        W12353   6.029   3.820   0.912
 8154W        W12354   5.714   4.253   8.650
 8155W        W12355   2.928   3.030   0.935
 8156W        W12356  10.448   7.868  11.054
 8157W        W12357   1.424  10.323   0.511
 8158W        W12358   6.096   8.959   0.499
 8159W        W12359   2.693   0.812   2.141
 8160W        W12360   1.038   1.378   2.330
 8161W        W12361   5.532   1.486  10.190
 8162W        W12362   2.546  11.442   9.988
 8163W        W12363   7.278  10.474   8.942
 8164W        W12364  10.385   8.918   9.895
 8165W        W12365   1.602   9.040  10.387
 8166W        W12366   9.582   6.135   0.530
 8167W        W12367   3.615   7.043   2.820
 8168W        W12368   7.886   5.341   9.071
 8169W        W12369   8.511   1.234   8.998
 8170W        W12370  11.283   6.598  10.969
 8171W        W12371   3.668   2.845   2.194
 8172W        W12372  11.363   2.555  11.999
 8173W        W12373   3.563  10.183  10.339
 8174W        W12374  10.824   7.608   2.902
 8175W        W12375  10.243   9.677  11.253
 8176W        W12376   3.690   7.423   9.332
 8177W        W12377  11.418  11.009  10.145
 8178W        W12378   3.203   6.957  11.979
 8179W        W12379   5.524   4.461  11.696
 8180W        W12380   4.738  10.969   3.008
 8181W        W12381   4.593   6.277   0.665
 8182W        W12382   5.920   7.247   1.213
 8183W        W12383   5.663   6.694   3.558
 8184W        W12384   2.080   0.076   9.869
 8185W        W12385   3.894   5.104   1.563
 8186W        W12386   6.647   8.300   3.389
 8187W        W12387   8.921   7.791   9.456
 8188W        W12388   3.435   1.383   2.759
 8189W        W12389  10.610   5.447   9.695
 8190W        W12390   1.270   6.441   0.721
 8191W        W12391   8.116   6.592   0.494
 8192W        W12392   6.715  10.201   3.600
 8193W        W12393   3.516   8.320   3.633
 8194W        W12394   6.200   7.000  10.590
 8195W        W12395   0.192  10.862  11.158
 8196W        W12396   7.490   0.305   9.031
 8197W        W12397  11.202   2.913   0.946
 8198W        W12398   8.075   0.291   2.007
 8199W        W12399   0.337   8.481   9.818
 8200W        W12400   1.490   1.249   0.485
 8201W        W12401   7.713   8.431   0.831
 8202W        W12402   8.247   2.258   1.745
 8203W        W12403  11.098   1.375   0.949
 8204W        W12404   6.890  10.922   1.054
 8205W        W12405  11.454   0.559   3.846
 8206W        W12406   1.873   9.338  10.873
 8207W        W12407   9.951   6.519   2.216
 8208W        W12408   8.008   2.703   9.782
 8209W        W12409   2.209   9.917  10.316
 8210W        W12410   6.639   1.365  10.784
 8211W        W12411   8.701   6.603   2.644
 8212W        W12412   2.197   5.145   3.157
 8213W        W12413   8.116   8.642  10.809
 8214W        W12414   7.495   8.611   1.851
 8215W        W12415   5.170   6.243  10.967
 8216W        W12416   6.096  10.897   2.705
 8217W        W12417   5.332   6.044   1.292
 8218W        W12418   9.995   5.429  11.900
 8219W        W12419   7.112  10.577  10.395
 8220W        W12420   3.159  10.911   2.903
 8221W        W12421   4.509   3.611   9.162
 8222W        W12422   2.127  10.171   8.934
 8223W        W12423   7.246   3.305   0.931
 8224W        W12424   7.387   9.101   1.895
 8225W        W12425   2.151  11.014   9.608
 8226W        W12426   7.545   0.596   2.804
 8227W        W12427   8.940   4.546  10.175
 8228W        W12428   3.340   9.601  10.772
 8229W        W12429   7.186   5.550   1.923
 8230W        W12430   0.452   4.089   2.884
 8231W        W12431  10.352   7.614   2.707
 8232W        W12432   0.681  11.047  11.112
 8233W        W12433   2.321   2.276  10.940
 8234W        W12434   7.110   1.479   0.382
 8235W        W12435   2.223  10.756   0.378
 8236W        W12436   3.216   9.704   2.249
 8237W        W12437  11.060   7.911   1.144
 8238W        W12438   6.563   7.862  10.402
 8239W        W12439   0.100   3.823   3.616
 8240W        W12440  10.895   3.149  10.972
 8241W        W12441  10.939   0.155   8.985
 8242W        W12442   5.464   3.668  11.792
 8243W        W12443   6.221   4.159   3.458
 8244W        W12444   2.365   4.049   0.375
 8245W        W12445   2.110   2.740  11.501
 8246W        W12446  10.352   4.103   8.995
 8247W        W12447   1.365   2.707   0.134
 8248W        W12448   8.245   0.982   0.629
 8249W        W12449   7.938   4.087   9.526
 8250W        W12450   5.829   7.651   3.970
 8251W        W12451   8.076   4.741   9.904
 8252W        W12452   4.122   5.210  10.529
 8253W        W12453   1.151   4.466   1.826
 8254W        W12454  11.386  10.064  10.617
 8255W        W12455  11.208   6.295  11.378
 8256W        W12456   7.070   6.432   4.161
 8257W        W12457   5.017   4.723   0.216
 8258W        W12458   9.984   9.243  11.992
 8259W        W12459   0.926   3.648   3.372
 8260W        W12460   5.244   4.545   8.645
 8261W        W12461  11.480   3.511   0.392
 8262W        W12462   1.397  11.478   1.804
 8263W        W12463   1.314  11.108   2.193
 8264W        W12464   9.568   6.782  10.348
 8265W        W12465   5.626   6.521   9.891
 8266W        W12466   3.380   7.138   1.488
 8267W        W12467   1.295   6.029   9.154
 8268W        W12468   1.278   9.931   0.790
 8269W        W12469   0.396   0.027   2.332
 8270W        W12470   6.467   2.039  10.256
 8271W        W12471  10.274  10.550  10.264
 8272W        W12472   7.946   0.971  10.716
 8273W        W12473   6.614   7.821   9.116
 8274W        W12474   1.737   7.269   3.471
 8275W        W12475   4.067  10.755   0.042
 8276W        W12476   8.548  10.743   1.344
 8277W        W12477   6.580   5.718   0.016
 8278W        W12478   6.761   7.074   0.658
 8279W        W12479   6.650   3.271  10.525
 8280W        W12480   7.921   6.430   0.923
 8281W        W12481  10.069   5.865   3.390
 8282W        W12482   4.617  10.016  10.020
 8283W        W12483   9.430  10.650   1.227
 8284W        W12484   9.075   4.283   2.613
 8285W        W12485   8.966   5.575   2.134
 8286W        W12486   9.969   6.803   3.182
 8287W        W12487  11.082   0.941  11.741
 8288W        W12488   3.759   4.379  10.219
 8289W        W12489   9.250   5.808   0.194
 8290W        W12490   5.470   6.267   1.731
 8291W        W12491  11.424   7.314   2.952
 8292W        W12492  10.398   9.396   2.645
 8293W        W12493   6.542   8.310   1.155
 8294W        W12494   9.751   7.267  10.407
 8295W        W12495   4.335   7.204   2.334
 8296W        W12496  11.171   6.321   8.651
 8297W        W12497   4.125   4.842   8.591
 8298W        W12498  11.117   3.109   0.490
 8299W        W12499   1.575   6.696   0.378
 8300W        W12500   8.121   9.389   0.523
 8301W        W12501   8.042   9.944   2.207
 8302W        W12502   4.745  10.791   0.311
 8303W        W12503   8.696   8.863   9.819
 8304W        W12504   3.810  10.415   0.361
 8305W        W12505   9.573   8.897   2.717
 8306W        W12506   6.100   3.771   2.658
 8307W        W12507   0.720  10.273   9.158
 8308W        W12508   1.795   6.549   1.787
 8309W        W12509   0.013   5.060   1.636
 8310W        W12510   3.944   9.362   9.879
 8311W        W12511   1.676  11.288  11.092
 8312W        W12512   3.533   5.605   2.369
 8313W        W12513   2.167   0.213   3.497
 8314W        W12514   9.434   9.243  11.263
 8315W        W12515   6.424   1.682   2.039
 8316W        W12516  10.492   5.517   3.520
 8317W        W12517   1.947   3.134  10.490
 8318W        W12518   1.765   0.016   2.781
 8319W        W12519   6.909   8.247  10.228
 8320W        W12520   9.288   9.271   0.136
 8321W        W12521   2.478   7.966  10.362
 8322W        W12522   2.343   1.869   1.480
 8323W        W12523   4.813   8.004   2.936
 8324W        W12524  11.459  10.045   0.145
 8325W        W12525   7.631   5.167   1.822
 8326W        W12526   2.622   0.693  10.498
 8327W        W12527   3.412   6.471   9.079
 8328W        W12528   5.724  11.143   3.466
 8329W        W12529   4.712   9.807   2.499
 8330W        W12530   2.154   3.271  11.878
 8331W        W12531   3.852   7.124   9.748
 8332W        W12532   3.779   7.419  11.103
 8333W        W12533   7.736   8.448  10.505
 8334W        W12534   0.133   7.792   0.167
 8335W        W12535   1.613   5.669   2.665
 8336W        W12536  10.439   4.663   9.293
 8337W        W12537   6.120   1.158   3.430
 8338W        W12538   1.825   9.143  11.363
 8339W        W12539   8.555   2.731   0.532
 8340W        W12540   3.905  10.294   9.945
 8341W        W12541   9.067   9.979   0.569
 8342W        W12542   2.292   3.235  10.146
 8343W        W12543   8.624   0.065   0.865
 8344W        W12544   7.776   7.931  10.760
 8345W        W12545   1.601   9.775   1.504
 8346W        W12546  10.371   4.551   3.426
 8347W        W12547   6.127   9.064   3.280
 8348W        W12548   7.959  10.033   1.263
 8349W        W12549   8.854   5.474   0.106
 8350W        W12550  11.021   6.201   1.991
 8351W        W12551  11.330   7.690   0.576
 8352W        W12552   5.523   3.709  10.137
 8353W        W12553   8.450   2.179  10.769
 8354W        W12554   3.160   4.819   1.587
 8355W        W12555   1.481   4.760  11.083
 8356W        W12556   3.106   7.086   2.827
 8357W        W12557  10.842   6.347  10.733
 8358W        W12558   3.217  10.574   3.598
 8359W        W12559   6.241   9.962   1.711
 8360W        W12560   1.820   1.396  11.388
 8361W        W12561  10.805   6.644   8.889
 8362W        W12562   6.942   4.640   3.168
 8363W        W12563  10.341   8.324   1.216
 8364W        W12564   2.355   1.143   0.502
 8365W        W12565   0.570   2.451   2.378
 8366W        W12566   6.651   2.861  11.575
 8367W        W12567  10.782   2.891   3.638
 8368W        W12568   2.620   9.858   9.884
 8369W        W12569   2.244   0.514  11.798
 8370W        W12570   7.796   8.166   1.412
 8371W        W12571   0.295   1.306   1.702
 8372W        W12572  11.041  10.416   9.464
 8373W        W12573   5.493   6.150   9.526
 8374W        W12574   3.496   2.116   3.262
 8375W        W12575   0.476   7.079   1.709
 8376W        W12576   3.894   1.505   0.390
 8377W        W12577   5.565   7.820   9.543
 8378W        W12578   9.082   7.737   1.190
 8379W        W12579   7.511   8.688   0.422
 8380W        W12580  10.444  10.412   1.669
 8381W        W12581   4.189   8.628   3.086
 8382W        W12582   4.315   9.117   3.309
 8383W        W12583   8.626   8.322   3.017
 8384W        W12584   5.518   0.356   1.365
 8385W        W12585  11.091   3.410   2.965
 8386W        W12586   5.815  10.557  11.784
 8387W        W12587   4.534   4.873   0.098
 8388W        W12588   1.681   4.800   3.195
 8389W        W12589   8.094   1.830   9.444
 8390W        W12590   9.830   3.445   3.137
 8391W        W12591   7.880   1.761   1.022
 8392W        W12592  11.362  11.037  11.542
 8393W        W12593   5.173   6.499   0.181
 8394W        W12594   2.193  11.477   9.383
 8395W        W12595   0.656  11.089   0.256
 8396W        W12596   5.181   1.848   1.329
 8397W        W12597   6.452   5.044  10.957
 8398W        W12598   3.139   4.308   1.341
 8399W        W12599   1.805   9.935   2.814
 8400W        W12600   4.614   8.277   3.741
 8401W        W12601   6.987   8.879   0.083
 8402W        W12602   5.073   1.904   9.320
 8403W        W12603   2.017  11.071   8.601
 8404W        W12604   7.420   3.285   1.569
 8405W        W12605   0.228   1.070   0.886
 8406W        W12606   1.020  10.995  11.483
 8407W        W12607   4.478  11.074  11.943
 8408W        W12608   1.152  10.057   8.917
 8409W        W12609   5.614   9.809  11.436
 8410W        W12610   5.229   0.435   2.729
 8411W        W12611   3.267   3.258  11.070
 8412W        W12612  10.075   6.031   2.117
 8413W        W12613   0.472  10.567   0.105
 8414W        W12614   2.157   4.609   3.212
 8415W        W12615   3.381   2.413  11.486
 8416W        W12616   4.285   2.179   1.229
 8417W        W12617   5.845   8.654  11.839
 8418W        W12618   6.036   0.317  11.285
 8419W        W12619   4.148   0.247   2.803
 8420W        W12620   0.790   4.517   0.330
 8421W        W12621   9.921   8.590   1.067
 8422W        W12622   6.034   0.827  11.074
 8423W        W12623   5.200   0.531   9.238
 8424W        W12624   8.995   2.512  11.957
 8425W        W12625   7.759   6.167  10.231
 8426W        W12626   2.076   5.074   9.531
 8427W        W12627   2.441   0.358  10.848
 8428W        W12628   9.999   5.370   3.407
 8429W        W12629   5.101   9.119   9.493
 8430W        W12630   4.374   7.212   1.450
 8431W        W12631   8.408   0.241   0.406
 8432W        W12632   0.887  10.213  10.968
 8433W        W12633   2.083   9.474   0.769
 8434W        W12634   4.858   3.839  10.500
 8435W        W12635   3.529   5.242   0.872
 8436W        W12636   1.205   3.131   2.284
 8437W        W12637   7.331   0.546   1.385
 8438W        W12638   0.290   3.937   1.523
 8439W        W12639   8.846   2.238   9.890
 8440W        W12640   0.173  10.973   0.431
 8441W        W12641   9.474   9.854   9.888
 8442W        W12642  10.406   6.175  11.657
 8443W        W12643   1.299   6.533   9.253
 8444W        W12644   8.810   4.077  10.408
 8445W        W12645   7.968   7.500   0.284
 8446W        W12646   0.720   2.786  11.462
 8447W        W12647   6.340   7.618   4.055
 8448W        W12648   0.459   4.859   8.961
 8449W        W12649   4.939   0.463   2.290
 8450W        W12650   6.979  10.246  10.027
 8451W        W12651   3.926   8.849   3.525
 8452W        W12652   4.537   8.905  11.436
 8453W        W12653   4.625   2.341   2.173
 8454W        W12654   0.575   4.300   1.234
 8455W        W12655   3.736   7.136   8.899
 8456W        W12656   0.369   6.466  10.195
 8457W        W12657   0.259   0.866   9.727
 8458W        W12658   5.780   8.131  11.998
 8459W        W12659   5.613   9.308  10.780
 8460W        W12660   1.909   1.076   0.226
 8461W        W12661   2.806   4.676   9.138
 8462W        W12662  10.737   7.164   2.214
 8463W        W12663  10.376   7.141   0.737
 8464W        W12664  10.603   1.353   1.077
 8465W        W12665   6.173   0.372   0.652
 8466W        W12666  11.417   8.170   2.618
 8467W        W12667   2.563   1.579   9.007
 8468W        W12668   4.397   6.598  10.449
 8469W        W12669   8.587  10.239  10.563
 8470W        W12670   3.310   0.308   9.629
 8471W        W12671   3.176   3.707  10.333
 8472W        W12672   7.114   6.054   0.857
 8473W        W12673   7.045   7.580   8.976
 8474W        W12674   8.149   1.850  10.491
 8475W        W12675  11.406   4.120   1.875
 8476W        W12676   4.793   1.904  11.679
 8477W        W12677   6.989   5.733  10.442
 8478W        W12678   6.020   9.576  10.578
 8479W        W12679   5.106   7.817   9.800
 8480W        W12680   3.833   3.618   9.748
 8481W        W12681   1.030   8.940   1.545
 8482W        W12682   5.183   8.698   0.607
 8483W        W12683   7.960   7.043   2.069
 8484W        W12684   9.156   5.208   0.450
 8485W        W12685   4.797  10.376   9.666
 8486W        W12686   8.396   5.513  10.309
 8487W        W12687   2.646  10.878   0.644
 8488W        W12688   9.387   0.845   1.251
 8489W        W12689   9.799   2.738   9.055
 8490W        W12690  10.848   3.051   9.950
 8491W        W12691  11.432   0.554  11.258
 8492W        W12692   2.793   1.018  11.429
 8493W        W12693   2.156   2.238   3.383
 8494W        W12694   9.455   1.461  10.105
 8495W        W12695   5.926   1.817  10.202
 8496W        W12696   4.508   7.612   2.714
 8497W        W12697   5.448   6.114   2.755
 8498W        W12698   4.722   8.524   2.884
 8499W        W12699   4.201   2.926   1.924
 8500W        W12700   6.067  10.959   0.697
 8501W        W12701   7.908   4.193  10.582
 8502W        W12702   4.263  11.061   0.406
 8503W        W12703   5.197  11.415  11.106
 8504W        W12704   7.237   9.254   9.948
 8505W        W12705   9.389   6.182  11.541
 8506W        W12706  10.584   3.862   3.644
 8507W        W12707   3.944   7.997  10.507
 8508W        W12708   6.785  10.769  10.791
 8509W        W12709   4.909  10.099   0.958
 8510W        W12710   1.640   0.926   3.464
 8511W        W12711   7.076  10.486   9.440
 8512W        W12712   9.804  10.798   9.000
 8513W        W12713   2.128   0.153   2.449
 8514W        W12714   2.384   6.107  11.335
 8515W        W12715   4.155   1.718   9.151
 8516W        W12716  10.484   4.329  11.015
 8517W        W12717   9.774   0.404   1.278
 8518W        W12718   0.913   4.986   0.511
 8519W        W12719   1.277   5.339   9.880
 8520W        W12720   8.484   5.793   0.852
 8521W        W12721   1.160   8.158  11.311
 8522W        W12722   0.213   3.460  11.944
 8523W        W12723   2.729   3.862   0.673
 8524W        W12724   2.614   5.099   9.416
 8525W        W12725   9.877   5.698   0.749
 8526W        W12726   8.588   8.272   1.048
 8527W        W12727   5.975   9.414   8.568
 8528W        W12728   9.598   3.114  10.539
 8529W        W12729   6.347   2.098   1.744
 8530W        W12730   5.806   9.862   1.481
 8531W        W12731   7.116   9.880   2.184
 8532W        W12732   4.644  11.270   9.617
 8533W        W12733   5.708   8.330   9.486
 8534W        W12734   5.666   5.819   1.980
 8535ION    NA+12735   2.769   6.692  11.882
 8536ION    NA+12736   4.199   1.065   2.055
 8537ION    NA+12737   1.131  10.573   3.364
 8538ION    NA+12738   6.801   0.887   1.368
 8539ION    NA+12739   7.201   3.414   9.472
 8540ION    NA+12740  10.166   9.535   3.521
 8541ION    NA+12741  11.454   2.007  11.407
 8542ION    NA+12742   5.634   4.049   0.650
 8543ION    NA+12743  11.251   7.148   9.685
 8544ION    NA+12744   8.229   4.600   9.424
 8545ION    NA+12745   6.818   6.441  10.913
 8546ION    NA+12746   7.743   2.285   1.669
 8547ION    NA+12747   8.054   4.993   0.998
 8548ION    NA+12748   8.132   2.305   3.240
 8549ION    NA+12749   1.818  10.993   1.003
 8550ION    NA+12750   0.902   9.285  11.900
 8551ION    NA+12751   7.848   6.241  11.506
 8552ION    NA+12752   5.374   1.587   3.211
 8553ION    NA+12753   3.996  10.440  10.476
 8554ION    NA+12754   1.849   3.111   9.930
 8555ION    NA+12755   9.844   4.713   2.294
 8556ION    NA+12756   0.859   8.664   0.820
 8557ION    NA+12757   6.327   7.430  11.924
 8558ION    NA+12758   8.046   3.420   3.131
 8559ION    NA+12759   8.904   6.286  10.664
 8560ION    NA+12760   9.737   7.752   0.943
 8561ION    NA+12761   6.388  10.995   3.208
 8562ION    NA+12762   8.244   2.300   0.403
 8563ION    NA+12763   0.932   2.803   9.675
 8564ION    NA+12764   2.118   0.620   0.304
 8565ION    NA+12765   3.402   2.834  11.792
 8566ION    NA+12766   6.621   7.656   1.889
 8567ION    NA+12767   3.233   4.907   8.244
 8568ION    NA+12768   4.657  11.155   2.542
 8569ION    NA+12769   5.690  10.275   1.203
 8570ION    NA+12770   3.167   4.703  10.831
 8571ION    NA+12771  10.481   0.505  11.498
 8572ION    NA+12772   7.112   7.542   3.412
 8573ION    NA+12773   7.635   3.767   0.262
 8574ION    NA+12774  10.240   7.441  11.969
 8575ION    NA+12775   3.690   9.997   2.199
 8576ION    NA+12776   3.214   1.142  10.181
 8577ION    NA+12777   1.455   7.672  10.021
 8578ION    NA+12778   1.456   8.736   8.839
 8579ION    NA+12779   3.132   9.438  11.802
 8580ION    NA+12780   8.895   0.171   1.313
 8581ION    NA+12781   0.522   5.234   9.786
 8582ION    NA+12782   5.603   7.082   2.412
 8583ION    NA+12783   2.884   3.862   9.337
 8584ION    NA+12784   7.037   5.621   0.565
 8585ION    NA+12785   3.488  11.424   1.729
 8586ION    NA+12786   0.897  10.795   2.187
 8587ION    NA+12787   4.823   6.531   1.925
 8588ION    NA+12788   1.014   6.280   3.099
 8589ION    NA+12789   9.994   2.358   8.777
 8590ION    NA+12790   6.685   6.850   3.168
 8591ION    NA+12791   9.173  10.348   1.843
 8592ION    NA+12792   1.496   4.170   0.736
 8593ION    NA+12793   1.664   4.368   1.884
 8594ION    NA+12794   3.357   6.210   3.337
 8595ION    NA+12795   9.636   7.679   3.476
 8596ION    NA+12796   5.774   8.033  11.479
 8597ION    NA+12797   1.147   6.006   9.662
 8598ION    NA+12798   8.470   3.650   2.185
 8599ION    NA+12799   9.832   2.327   3.786
 8600ION    NA+12800   7.403   1.742   0.047
 8601ION    NA+12801   8.555   8.369   2.488
 8602ION    NA+12802  11.500  11.070   3.295
 8603ION    NA+12803   6.817   7.495   4.192
 8604ION    NA+12804   5.321  11.281  11.579
 8605ION    NA+12805   6.044   2.558   2.634
 8606ION    NA+12806   8.298   8.540   9.820
 8607ION    NA+12807   7.326   8.884   1.438
 8608ION    NA+12808   4.716  10.215   2.208
 8609ION    NA+12809   4.269   5.813   2.012
 8610ION    NA+12810   0.034   8.013   1.902
 8611ION    NA+12811   4.153  10.057   1.287
 8612ION    NA+12812   8.142   0.914   9.746
 8613ION    NA+12813   4.358   5.915   0.387
 8614ION    NA+12814  10.095   0.431   0.866
 8615ION    NA+12815   9.733   7.858   9.031
 8616ION    NA+12816   6.027   3.906   1.839
 8617ION    NA+12817   7.324   9.363  10.832
 8618ION    NA+12818   5.914   3.253   3.348
 8619ION    NA+12819   1.783   1.154   1.332
 8620ION    NA+12820   7.632   2.870   8.630
 8621ION    NA+12821   6.197   8.474   9.502
 8622ION    NA+12822   0.656   4.687   1.614
 8623ION    NA+12823   3.172   6.626   8.609
 8624ION    NA+12824   4.130   6.806   0.256
 8625ION    CL-12825   5.524   1.703   2.136
 8626ION    CL-12826   0.204   7.859  11.281
 8627ION    CL-12827  11.303   4.348   8.670
 8628ION    CL-12828   2.119   8.485   2.326
 8629ION    CL-12829   7.034   7.830   1.869
 8630ION    CL-12830   4.657   8.957   1.538
 8631ION    CL-12831   8.186   3.590  11.382
 8632ION    CL-12832   0.137   7.837   2.297
 8633ION    CL-12833   9.254   5.852   3.566
 8634ION    CL-12834   0.282   0.876   0.214
 8635ION    CL-12835   7.456  11.470   0.813
 8636ION    CL-12836   3.307  11.343   1.332
 8637ION    CL-12837   6.932   3.145   9.705
 8638ION    CL-12838   5.011   0.535   1.393
 8639ION    CL-12839  11.492  11.424   3.014
 8640ION    CL-12840   4.767   1.188  11.011
 8641ION    CL-12841   5.811   9.902   0.969
 8642ION    CL-12842  11.183   7.343   9.287
 8643ION    CL-12843   0.264   4.461   1.626
 8644ION    CL-12844   6.053   7.772  11.752
 8645ION    CL-12845  10.607  10.952  10.112
 8646ION    CL-12846   3.579  11.346  11.980
 8647ION    CL-12847   7.214   1.045   1.428
 8648ION    CL-12848   9.129   1.569   3.540
 8649ION    CL-12849   3.247  11.135   9.120
 8650ION    CL-12850   0.976  10.355   9.598
 8651ION    CL-12851   3.462   2.936   3.159
 8652ION    CL-12852   6.906   7.245   3.120
 8653ION    CL-12853   6.709   2.779  10.609
 8654ION    CL-12854  11.470   3.562   1.302
 8655ION    CL-12855   2.363   0.438  10.127
 8656ION    CL-12856   9.483  10.646  10.342
 8657ION    CL-12857   1.020   7.904   3.386
 8658ION    CL-12858   6.486   7.288   4.426
 8659ION    CL-12859   8.477   4.949   3.637
 8660ION    CL-12860   5.403   2.838   8.540
 8661ION    CL-12861   8.206   6.503   2.755
 8662ION    CL-12862   6.976   9.494   2.524
 8663ION    CL-12863   5.202   3.378   2.722
 8664ION    CL-12864  11.202   3.552  11.930
 8665ION    CL-12865  10.533   3.226   1.396
 8666ION    CL-12866   7.499   7.313   9.671
 8667ION    CL-12867   1.030   1.514   0.399
 8668ION    CL-12868   3.338   1.563  10.104
 8669ION    CL-12869  10.874   3.567  10.136
 8670ION    CL-12870   1.346   1.232   9.651
 8671ION    CL-12871  11.431   5.493   2.344
 8672ION    CL-12872   2.661   6.823   9.963
 8673ION    CL-12873   6.888   9.424  10.767
 8674ION    CL-12874   8.326   4.634   0.976
 8675ION    CL-12875   4.254   8.739  11.018
 8676ION    CL-12876   5.287   3.762   0.668
 8677ION    CL-12877   0.230   5.251  10.125
 8678ION    CL-12878   5.819   4.164   2.141
 8679ION    CL-12879   9.109   9.574   3.547
 8680ION    CL-12880  11.051   5.485   8.143
 8681ION    CL-12881   3.028   7.758   9.904
 8682ION    CL-12882   5.328   1.183  11.965
 8683ION    CL-12883   9.901   6.685   1.198
 8684ION    CL-12884   9.216   7.189   2.921
 8685ION    CL-12885   4.084   7.262   0.304
 8686ION    CL-12886   9.342   6.386  10.668
 8687ION    CL-12887   0.672   4.584   2.921
 8688ION    CL-12888  10.428  10.444   1.146
 8689ION    CL-12889   7.126  10.112   1.285
 8690ION    CL-12890   5.308   3.701   9.636
 8691ION    CL-12891   4.538   6.182   2.001
 8692ION    CL-12892   4.232   6.350   0.307
 8693ION    CL-12893  10.912   0.860   8.468
 8694ION    CL-12894   5.539   8.303  11.190
 8695ION    CL-12895   5.331   3.109  11.564
 8696ION    CL-12896   4.478   3.053   8.851
 8697ION    CL-12897   9.967   7.459  11.616
 8698ION    CL-12898   0.750   5.980   3.345
 8699ION    CL-12899  10.112   3.147   2.848
 8700ION    CL-12900   9.339   7.824   0.751
 8701ION    CL-12901   7.493   1.753  11.610
 8702ION    CL-12902   2.790   5.613   2.035
 8703ION    CL-12903   5.671  10.691   1.390
 8704ION    CL-12904   1.237   2.296   1.855
 8705ION    CL-12905   1.167  11.274  11.043
 8706ION    CL-12906   4.879   1.931   9.813
 8707ION    CL-12907   8.073  11.301   1.835
 8708ION    CL-12908   1.457   9.457   2.692
 8709ION    CL-12909   6.630   7.111   0.039
 8710ION    CL-12910   1.758  10.750  10.346
 8711ION    CL-12911   0.868   4.996   1.349
 8712ION    CL-12912   6.043   9.551  11.557
 8713ION    CL-12913   5.449  10.332   8.905
 8714ION    CL-12914   9.521  10.298   1.568
  11.50000  11.50000  12.00000
