Protein in INSANE! Membrane UpperLeaflet>POPC=1.0 LowerLeaflet>POPC=1.0
11125
    1AU     AUC    1   3.995   4.134   6.649 -0.1126  0.0276  0.0200
    1AU     AUC    2   4.247   4.036   6.858  0.0698  0.0420 -0.0173
    1AU     AUC    3   3.937   4.085   6.929 -0.0397 -0.0334  0.1198
    1AU     AUC    4   4.114   4.144   6.317 -0.0367  0.0357  0.0539
    1AU     AUC    5   3.800   4.256   6.435  0.0285  0.0158  0.0418
    1AU     AUC    6   4.064   4.415   6.536 -0.0174  0.0420  0.0428
    1AU     AUC    7   4.125   4.351   6.864  0.0802  0.0993 -0.0076
    1AU     AUC    8   3.912   3.899   6.425 -0.0137 -0.0107 -0.0129
    1AU     AUC    9   3.986   3.823   6.762 -0.0768 -0.0406  0.0348
    1AU     AUC   10   3.710   4.003   6.689  0.0198  0.0665 -0.1009
    1AU     AUC   11   3.811   4.338   6.763 -0.0429 -0.0397  0.0091
    1AU     AUC   12   4.235   3.922   6.571 -0.0812  0.0169  0.0169
    1AU     AUC   13   4.322   4.231   6.654  0.0150 -0.0331  0.0654
    1AU     AUC   14   4.485   3.942   7.148 -0.0065 -0.0814 -0.0072
    1AU     AUC   15   4.130   3.971   7.229  0.0724  0.0381 -0.0046
    1AU     AUC   16   3.774   4.075   7.268  0.0125 -0.0804 -0.0302
    1AU     AUC   17   4.207   4.141   5.978  0.0062  0.0141 -0.0776
    1AU     AUC   18   3.869   4.285   6.058  0.0582  0.0117  0.0015
    1AU     AUC   19   3.571   4.377   6.200  0.0426 -0.0156 -0.0669
    1AU     AUC   20   4.126   4.741   6.401 -0.0069  0.0821  0.0403
    1AU     AUC   21   4.215   4.684   6.760 -0.0247  0.0304  0.1078
    1AU     AUC   22   4.265   4.564   7.101 -0.0320  0.0039  0.0110
    1AU     AUC   23   3.797   3.677   6.198 -0.0693  0.0599 -0.0641
    1AU     AUC   24   3.870   3.555   6.505 -0.0498 -0.0318 -0.1049
    1AU     AUC   25   3.954   3.495   6.868  0.0133 -0.0267  0.0640
    1AU     AUC   26   3.402   3.902   6.719  0.0391 -0.0365 -0.0927
    1AU     AUC   27   3.449   4.269   6.803 -0.0080  0.0801 -0.0179
    1AU     AUC   28   3.583   4.597   6.872 -0.0555  0.0048 -0.0068
    1AU     AUC   29   4.476   3.693   6.494  0.0480 -0.0122 -0.0151
    1AU     AUC   30   4.596   3.987   6.516 -0.0646 -0.0070  0.1140
    1AU     AUC   31   4.635   4.323   6.561  0.0112  0.0289  0.0424
    1AU     AUC   32   3.552   3.957   6.999 -0.0098 -0.0233 -0.0386
    1AU     AUC   33   3.667   4.305   7.100  0.0293 -0.0166 -0.0139
    1AU     AUC   34   4.529   3.798   6.828 -0.0194 -0.0709  0.1266
    1AU     AUC   35   4.578   4.137   6.877 -0.0763 -0.0668 -0.0027
    1AU     AUC   36   3.445   4.187   6.458  0.0238  0.0094 -0.0020
    1AU     AUC   37   3.585   4.533   6.561 -0.0679  0.0288  0.0230
    1AU     AUC   38   4.329   3.924   6.208 -0.0090  0.0611 -0.0297
    1AU     AUC   39   4.442   4.215   6.234  0.0009  0.0420 -0.0368
    1AU     AUC   40   4.358   4.251   7.137  0.0776 -0.0384 -0.0440
    1AU     AUC   41   4.034   4.294   7.209 -0.0754 -0.0110 -0.0441
    1AU     AUC   42   4.158   4.476   6.163  0.0611  0.0304  0.0283
    1AU     AUC   43   3.822   4.573   6.290  0.0155 -0.0058 -0.0152
    1AU     AUC   44   4.211   3.700   7.047  0.0609  0.1403 -0.0265
    1AU     AUC   45   3.867   3.765   7.069  0.0318 -0.0594  0.0337
    1AU     AUC   46   3.972   3.928   6.074  0.0385  0.0261 -0.1023
    1AU     AUC   47   3.663   4.017   6.197  0.0870 -0.0865  0.0235
    1AU     AUC   48   3.881   4.717   6.673  0.0091 -0.1176  0.0044
    1AU     AUC   49   3.914   4.598   6.976  0.1308  0.1110  0.0147
    1AU     AUC   50   3.578   3.766   6.476  0.0179  0.0534  0.0337
    1AU     AUC   51   3.652   3.628   6.760 -0.0175 -0.0315  0.0160
    1AU     AUC   52   4.363   4.509   6.463 -0.0978 -0.0344  0.1501
    1AU     AUC   53   4.484   4.472   6.822 -0.0498 -0.0353  0.0016
    1AU     AUC   54   4.129   3.654   6.325 -0.0101  0.0585 -0.0135
    1AU     AUC   55   4.233   3.582   6.681 -0.0566 -0.0465  0.0010
    1AU    AUSL   56   3.391   4.058   7.326  0.0255  0.0416  0.0394
    1AU    AUSL   57   3.310   3.700   6.988 -0.1027 -0.0030 -0.0434
    1AU     AUL   58   3.242   3.740   7.375  0.0049  0.0433  0.0690
    1AU       S   59   3.255   3.275   7.221  0.1407  0.0810 -0.1558
    1AU     LIG   60   2.907   3.446   7.294  0.1857 -0.1719 -0.0178
    1AU     LIG   61   2.443   3.203   7.399 -0.3587 -0.0894 -0.2118
    1AU     LIG   62   2.158   2.879   7.388  0.2457 -0.0561  0.0319
    1AU     LIG   63   2.008   2.694   7.762 -0.2085 -0.1358 -0.1237
    1AU       S   64   2.960   4.092   7.427 -0.2512  0.2173 -0.0417
    1AU     LIG   65   2.534   3.768   7.364  0.0292 -0.0150  0.1842
    1AU     LIG   66   2.135   3.557   7.210 -0.1114 -0.0965  0.1373
    1AU     LIG   67   1.727   3.599   7.066  0.1051 -0.4538 -0.1125
    1AU     LIG   68   1.469   3.902   6.985  0.0273  0.0723 -0.2006
    1AU    AUSL   69   3.168   4.096   6.931  0.0395 -0.0346 -0.0729
    1AU    AUSL   70   3.188   4.528   6.801 -0.0013 -0.0578  0.1433
    1AU     AUL   71   2.977   4.449   7.068  0.0483  0.0512  0.0241
    1AU       S   72   2.959   3.966   7.060 -0.1611 -0.2751  0.0216
    1AU     LIG   73   2.729   3.718   6.779  0.4173 -0.0728 -0.1216
    1AU     LIG   74   2.431   3.482   6.742  0.1046  0.0606 -0.1811
    1AU     LIG   75   2.305   3.077   6.902  0.4106 -0.0174 -0.0586
    1AU     LIG   76   2.409   2.628   7.038  0.0154 -0.0232 -0.1255
    1AU       S   77   2.875   4.410   6.636 -0.1915  0.2862  0.1228
    1AU     LIG   78   2.638   4.686   6.893 -0.0039 -0.2200 -0.0321
    1AU     LIG   79   2.197   4.757   7.035  0.1812 -0.0942  0.0568
    1AU     LIG   80   2.032   4.362   7.055 -0.1982  0.0485  0.1533
    1AU     LIG   81   2.118   3.948   6.840  0.1183  0.0002  0.3576
    1AU    AUSL   82   3.482   4.399   7.054  0.1115  0.0572 -0.1163
    1AU    AUSL   83   3.653   4.386   7.457  0.0832 -0.1171 -0.0714
    1AU     AUL   84   3.314   4.399   7.401 -0.0121  0.0296  0.0156
    1AU       S   85   3.161   4.897   7.086 -0.1805  0.0086  0.0149
    1AU     LIG   86   2.741   5.146   7.103 -0.1446  0.1449  0.0061
    1AU     LIG   87   2.673   5.612   7.165  0.1960 -0.2261 -0.1093
    1AU     LIG   88   2.922   5.921   7.341  0.1627 -0.3089 -0.1201
    1AU     LIG   89   3.330   6.251   7.147  0.0882  0.0833 -0.1696
    1AU       S   90   3.582   4.639   7.728  0.2093  0.0363 -0.2403
    1AU     LIG   91   3.679   4.514   8.085  0.1696  0.0956  0.0981
    1AU     LIG   92   3.797   4.228   8.258 -0.1530  0.0131 -0.0430
    1AU     LIG   93   3.816   3.968   8.534 -0.1100  0.2894  0.1813
    1AU     LIG   94   3.499   3.736   8.773 -0.1263 -0.0759  0.2153
    1AU    AUSL   95   4.851   3.968   7.022 -0.0184 -0.0236 -0.0324
    1AU    AUSL   96   4.829   4.395   6.935 -0.0091 -0.0869  0.0695
    1AU     AUL   97   5.115   4.201   7.121 -0.0216  0.0522 -0.0292
    1AU       S   98   5.227   4.059   6.683 -0.3653  0.1762  0.1068
    1AU     LIG   99   5.361   4.522   6.883  0.4628  0.1206  0.1903
    1AU     LIG  100   5.568   4.807   6.663  0.1852  0.1426 -0.2441
    1AU     LIG  101   5.780   5.085   6.367 -0.0490 -0.3667  0.0293
    1AU     LIG  102   5.963   5.244   6.042  0.0187  0.1611  0.3374
    1AU       S  103   5.002   4.613   7.299 -0.0406 -0.0650 -0.4970
    1AU     LIG  104   5.465   4.459   7.376  0.1547 -0.2272  0.3252
    1AU     LIG  105   5.792   4.218   7.444  0.1750 -0.1295 -0.3977
    1AU     LIG  106   5.968   4.118   7.838  0.1543 -0.0561 -0.1086
    1AU     LIG  107   5.872   4.005   8.195  0.0862 -0.1207  0.0841
    1AU    AUSL  108   4.890   3.697   6.708 -0.0941 -0.0245 -0.0236
    1AU    AUSL  109   4.663   3.606   7.156 -0.0355  0.0006  0.0107
    1AU     AUL  110   5.023   3.711   7.088  0.0775 -0.0762  0.0003
    1AU       S  111   4.857   3.290   7.180  0.0958  0.3242  0.3526
    1AU     LIG  112   5.092   3.314   7.599  0.2782  0.4445 -0.1190
    1AU     LIG  113   5.285   3.554   7.489 -0.1349  0.3946 -0.1724
    1AU     LIG  114   5.427   3.892   7.319 -0.0466 -0.0238 -0.0009
    1AU     LIG  115   5.625   4.131   6.964 -0.1380  0.3062  0.2183
    1AU       S  116   5.254   3.862   6.711 -0.3189  0.1451  0.3646
    1AU     LIG  117   5.364   3.473   6.541 -0.2584  0.1529  0.2308
    1AU     LIG  118   5.477   3.032   6.380 -0.0031  0.2126 -0.3798
    1AU     LIG  119   5.662   2.676   6.730  0.0774 -0.2230 -0.2983
    1AU     LIG  120   5.728   2.582   7.189 -0.2920 -0.0811 -0.0360
    1AU    AUSL  121   4.779   4.106   6.612 -0.0359  0.0384  0.0110
    1AU    AUSL  122   4.712   3.784   6.319 -0.0795 -0.1254 -0.0094
    1AU     AUL  123   4.944   3.725   6.416 -0.0554 -0.0107 -0.0494
    1AU       S  124   5.096   3.817   5.947 -0.2418 -0.2116 -0.3707
    1AU     LIG  125   5.136   3.367   6.104 -0.0539 -0.1648  0.0239
    1AU     LIG  126   4.908   3.199   6.404 -0.0170 -0.2988  0.2582
    1AU     LIG  127   5.028   2.772   6.408  0.4225  0.0543  0.1340
    1AU     LIG  128   5.216   2.377   6.542  0.5514  0.2452 -0.0652
    1AU       S  129   5.085   4.157   6.615  0.2080 -0.1149 -0.2695
    1AU     LIG  130   5.248   4.507   6.307 -0.0312  0.2034 -0.0175
    1AU     LIG  131   5.326   4.933   5.997 -0.3346  0.3614 -0.1614
    1AU     LIG  132   5.438   5.402   6.065  0.0803 -0.1356  0.0880
    1AU     LIG  133   5.743   5.748   6.165  0.5483 -0.1201 -0.3946
    1AU    AUSL  134   3.245   4.544   6.364 -0.0721  0.0201 -0.0253
    1AU    AUSL  135   3.507   4.796   6.655 -0.0458  0.1262  0.0368
    1AU     AUL  136   3.170   4.785   6.570  0.0213 -0.0060  0.0535
    1AU       S  137   2.791   4.501   6.450  0.2037  0.0730 -0.0276
    1AU     LIG  138   2.582   4.921   6.497  0.0149 -0.0427 -0.1838
    1AU     LIG  139   2.318   5.206   6.413 -0.3429  0.3754  0.1563
    1AU     LIG  140   1.969   5.500   6.309  0.0788 -0.1168 -0.2082
    1AU     LIG  141   1.612   5.712   6.055 -0.0197  0.1184 -0.2184
    1AU       S  142   3.424   5.136   6.368  0.1990 -0.1089 -0.1459
    1AU     LIG  143   3.140   5.363   6.603 -0.2439 -0.3347 -0.1953
    1AU     LIG  144   2.694   5.453   6.693 -0.0240 -0.0745 -0.0575
    1AU     LIG  145   2.289   5.803   6.778 -0.0230 -0.1750  0.1450
    1AU     LIG  146   1.969   5.618   6.781  0.0999 -0.3521  0.3172
    1AU    AUSL  147   3.314   4.176   6.558 -0.0282  0.1166 -0.0207
    1AU    AUSL  148   3.225   4.152   6.136 -0.0379  0.0170  0.0764
    1AU     AUL  149   3.104   4.393   6.162  0.1111  0.0157 -0.0868
    1AU       S  150   2.863   3.975   6.150 -0.0368 -0.3733  0.0306
    1AU     LIG  151   2.498   4.301   5.984 -0.1434 -0.3240 -0.1568
    1AU     LIG  152   2.355   4.586   6.220 -0.2463 -0.4581  0.1991
    1AU     LIG  153   2.111   4.727   6.596  0.1960 -0.0545  0.1110
    1AU     LIG  154   1.839   5.073   6.630  0.0934  0.0560  0.1470
    1AU       S  155   2.872   4.211   6.545  0.3700 -0.2715  0.0564
    1AU     LIG  156   2.422   4.075   6.496 -0.1643 -0.0928 -0.1830
    1AU     LIG  157   1.980   4.233   6.416 -0.1883  0.0005 -0.0916
    1AU     LIG  158   1.684   4.548   6.410  0.1384 -0.1738 -0.0644
    1AU     LIG  159   1.334   4.850   6.534  0.1116  0.0912 -0.0730
    1AU    AUSL  160   4.590   3.978   5.965  0.0462  0.1109 -0.0395
    1AU    AUSL  161   4.328   3.652   6.191  0.0046  0.0276 -0.0196
    1AU     AUL  162   4.640   3.597   6.041 -0.0235 -0.1381 -0.0272
    1AU       S  163   4.951   3.841   5.799 -0.1716  0.1331  0.2328
    1AU     LIG  164   4.900   3.515   5.548  0.2511  0.1080  0.1317
    1AU     LIG  165   5.034   3.222   5.272 -0.0408  0.3581 -0.0399
    1AU     LIG  166   5.357   3.168   4.964  0.3337 -0.1106 -0.1778
    1AU     LIG  167   5.610   3.028   4.571 -0.1716 -0.1950 -0.1009
    1AU       S  168   4.380   3.471   5.679 -0.1066  0.2982 -0.1958
    1AU     LIG  169   4.721   3.160   5.865 -0.2832  0.1317  0.0695
    1AU     LIG  170   4.640   2.805   6.022  0.3924  0.0614  0.1714
    1AU     LIG  171   4.473   2.485   6.143  0.1462 -0.0584  0.0799
    1AU     LIG  172   4.120   2.162   6.012  0.2204  0.0746  0.0701
    1AU    AUSL  173   4.893   4.165   6.213  0.0381  0.1112 -0.0091
    1AU    AUSL  174   4.497   4.376   5.861  0.0796  0.0537  0.0148
    1AU     AUL  175   4.818   4.288   5.894 -0.0110  0.0662 -0.0956
    1AU       S  176   4.653   4.592   5.605  0.0990 -0.3751  0.0763
    1AU     LIG  177   5.234   4.459   5.700  0.3078 -0.3078 -0.2011
    1AU     LIG  178   5.568   4.305   6.035 -0.3229 -0.0025 -0.1501
    1AU     LIG  179   5.769   4.254   6.395 -0.1131 -0.1387  0.2866
    1AU     LIG  180   5.924   4.446   6.760  0.2909  0.1806 -0.2344
    1AU       S  181   5.183   4.001   6.013  0.0348  0.1243 -0.5713
    1AU     LIG  182   5.538   3.849   6.232 -0.2157  0.1139  0.1780
    1AU     LIG  183   5.859   3.818   6.621  0.0238 -0.1308 -0.2222
    1AU     LIG  184   6.228   3.924   6.713  0.1433 -0.1969 -0.1695
    1AU     LIG  185   6.600   4.175   6.850 -0.2752  0.0974 -0.0007
    1AU    AUSL  186   4.324   4.460   7.486  0.0385 -0.1006  0.0234
    1AU    AUSL  187   4.674   4.224   7.304  0.0190 -0.0223  0.0481
    1AU     AUL  188   4.628   4.354   7.718  0.0265  0.0934 -0.0038
    1AU       S  189   4.852   4.556   7.369 -0.1187 -0.0734 -0.2505
    1AU     LIG  190   5.124   4.134   7.625 -0.0439  0.3277 -0.0155
    1AU     LIG  191   4.831   3.774   7.578 -0.1427  0.1400 -0.0053
    1AU     LIG  192   4.623   3.299   7.771  0.0720  0.0716 -0.1470
    1AU     LIG  193   4.445   2.974   7.876 -0.1726 -0.0841  0.2497
    1AU       S  194   4.188   4.268   7.910  0.4561 -0.0587  0.0577
    1AU     LIG  195   4.384   4.571   8.091 -0.0087 -0.0889 -0.1628
    1AU     LIG  196   4.360   4.716   8.435 -0.1304 -0.1754 -0.1117
    1AU     LIG  197   4.184   4.781   8.919  0.0401  0.0982  0.0720
    1AU     LIG  198   4.192   4.531   9.241  0.4345 -0.3838 -0.2549
    1AU    AUSL  199   4.390   4.006   7.515 -0.0024 -0.0737 -0.0716
    1AU    AUSL  200   3.958   3.756   7.521 -0.0325 -0.0642 -0.0385
    1AU     AUL  201   4.340   3.725   7.709 -0.0536 -0.0511  0.0863
    1AU       S  202   4.149   4.108   7.833 -0.4408  0.0865  0.0335
    1AU     LIG  203   3.912   3.752   8.106 -0.0673 -0.1644  0.4371
    1AU     LIG  204   3.853   3.502   8.457  0.2085  0.0040 -0.1535
    1AU     LIG  205   3.571   3.243   8.710  0.2327  0.1870 -0.2206
    1AU     LIG  206   3.174   3.371   8.935  0.2663 -0.0225  0.1121
    1AU       S  207   4.016   3.375   7.762  0.1497 -0.4869  0.3657
    1AU     LIG  208   3.601   3.416   7.900 -0.2739 -0.0539  0.0665
    1AU     LIG  209   3.175   3.382   7.775  0.4658 -0.2475  0.0396
    1AU     LIG  210   2.778   3.409   7.767 -0.0556 -0.2167  0.0699
    1AU     LIG  211   2.324   3.560   7.759 -0.2744  0.4297 -0.2669
    1AU    AUSL  212   3.994   4.158   7.397 -0.0530  0.0757 -0.1147
    1AU    AUSL  213   3.971   4.590   7.248 -0.0261  0.0974 -0.1089
    1AU     AUL  214   4.013   4.545   7.592 -0.1132  0.0916 -0.0342
    1AU       S  215   3.661   4.802   7.697  0.0615 -0.3172 -0.0755
    1AU     LIG  216   4.042   4.932   8.027  0.1502  0.4581 -0.0297
    1AU     LIG  217   4.303   5.154   8.133  0.0756 -0.3615  0.1587
    1AU     LIG  218   4.645   5.019   8.245 -0.1549  0.3597 -0.1804
    1AU     LIG  219   4.770   4.778   8.665 -0.0532 -0.0042  0.0672
    1AU       S  220   3.924   4.142   7.800 -0.5317  0.0233  0.0330
    1AU     LIG  221   3.534   4.045   7.794  0.2485  0.1253 -0.0878
    1AU     LIG  222   3.162   3.855   7.841  0.0155  0.3834 -0.1842
    1AU     LIG  223   2.935   3.745   8.163  0.2218 -0.4173 -0.3142
    1AU     LIG  224   3.045   3.718   8.566  0.4794  0.1981 -0.0563
    1AU    AUSL  225   4.012   4.809   6.095 -0.0485 -0.0594  0.0008
    1AU    AUSL  226   3.602   4.699   6.237 -0.0462  0.0589 -0.0279
    1AU     AUL  227   3.782   5.020   5.986 -0.0268 -0.0393  0.0700
    1AU       S  228   3.390   4.952   6.183  0.3020 -0.2397 -0.2076
    1AU     LIG  229   2.973   4.961   6.087 -0.6597 -0.3229 -0.1400
    1AU     LIG  230   2.736   5.369   6.195  0.4966  0.2637 -0.2391
    1AU     LIG  231   2.495   5.752   6.291 -0.3962  0.1458 -0.0152
    1AU     LIG  232   2.524   6.163   6.498 -0.5747 -0.0455  0.0411
    1AU       S  233   4.201   5.150   6.110 -0.0536  0.2067 -0.0350
    1AU     LIG  234   4.433   5.484   5.856  0.0075  0.4176 -0.0456
    1AU     LIG  235   4.637   5.843   5.923 -0.0984 -0.0005  0.0668
    1AU     LIG  236   4.895   6.221   6.094  0.5640 -0.2683  0.4944
    1AU     LIG  237   4.948   6.654   6.352  0.1306  0.1791  0.1393
    1AU    AUSL  238   4.095   4.399   5.949 -0.0580  0.0133  0.0630
    1AU    AUSL  239   4.435   4.749   6.097 -0.0953  0.0217 -0.0241
    1AU     AUL  240   4.270   4.729   5.790 -0.0956  0.0151 -0.0743
    1AU       S  241   4.308   4.257   5.450  0.3425 -0.3181 -0.2410
    1AU     LIG  242   4.410   4.390   5.089 -0.0728 -0.1418 -0.0184
    1AU     LIG  243   4.601   4.874   4.997 -0.1022  0.1918 -0.1958
    1AU     LIG  244   4.810   5.331   5.106 -0.1836  0.3856  0.0280
    1AU     LIG  245   4.734   5.715   5.013  0.1034 -0.1422  0.0176
    1AU       S  246   4.633   5.013   5.930  0.0085 -0.1057 -0.1123
    1AU     LIG  247   4.980   5.270   6.037  0.4588  0.2848  0.4885
    1AU     LIG  248   5.064   5.735   6.184 -0.2152  0.1853  0.5932
    1AU     LIG  249   5.311   5.997   5.892  0.2713 -0.0505 -0.3550
    1AU     LIG  250   5.277   6.130   5.598 -0.0729  0.3001 -0.0758
    1AU    AUSL  251   3.706   4.564   5.858 -0.0392  0.0586  0.0583
    1AU    AUSL  252   3.888   4.149   5.681  0.0994  0.0145  0.0075
    1AU     AUL  253   3.890   4.507   5.603  0.0994  0.0120  0.0593
    1AU       S  254   3.567   4.152   5.481  0.1307 -0.3253 -0.3092
    1AU     LIG  255   3.515   4.636   5.273  0.1301 -0.1987 -0.1214
    1AU     LIG  256   3.563   5.092   5.431  0.0332 -0.1921  0.2101
    1AU     LIG  257   3.402   5.438   5.646 -0.0573  0.1501  0.0256
    1AU     LIG  258   3.175   5.441   6.004  0.1676 -0.5310 -0.0158
    1AU       S  259   3.455   4.689   5.788  0.0612 -0.0896  0.3869
    1AU     LIG  260   3.127   4.672   5.746  0.2725  0.0860  0.1149
    1AU     LIG  261   2.680   4.715   5.697  0.2333 -0.1251 -0.0721
    1AU     LIG  262   2.561   5.173   5.814  0.2265 -0.0953  0.2397
    1AU     LIG  263   2.350   5.509   5.797  0.2178  0.4607 -0.1218
    1AU    AUSL  264   3.977   3.439   7.227  0.0397 -0.1430 -0.0519
    1AU    AUSL  265   3.687   3.803   7.200 -0.0447  0.0103 -0.0206
    1AU     AUL  266   3.675   3.631   7.502 -0.0311 -0.0603  0.0016
    1AU       S  267   3.970   3.252   7.346  0.0460 -0.2107  0.3070
    1AU     LIG  268   4.228   2.912   7.312 -0.2065 -0.1948 -0.1315
    1AU     LIG  269   4.548   2.572   7.297  0.2699  0.1445  0.1083
    1AU     LIG  270   4.702   2.125   7.115 -0.0522 -0.0747 -0.2643
    1AU     LIG  271   5.057   1.815   7.304  0.5749 -0.1792 -0.3461
    1AU       S  272   3.487   3.249   7.335 -0.1030  0.1753 -0.2139
    1AU     LIG  273   3.628   3.036   7.604 -0.2504  0.0118 -0.3343
    1AU     LIG  274   3.967   2.830   7.793 -0.2683  0.2226 -0.0027
    1AU     LIG  275   4.217   2.492   7.666 -0.1284  0.6677  0.0360
    1AU     LIG  276   4.131   2.193   7.339  0.2824 -0.3601 -0.1926
    1AU    AUSL  277   4.288   3.747   7.221 -0.0202  0.0144 -0.0226
    1AU    AUSL  278   4.349   3.331   7.059  0.0525 -0.0676 -0.1279
    1AU     AUL  279   4.411   3.450   7.369 -0.0411 -0.0514  0.0067
    1AU       S  280   4.115   3.267   7.639 -0.2216  0.1666  0.0393
    1AU     LIG  281   4.272   3.367   8.147  0.5214 -0.0212 -0.0909
    1AU     LIG  282   4.224   3.127   8.511 -0.0907  0.1941 -0.1651
    1AU     LIG  283   4.522   2.866   8.670 -0.0102 -0.1766 -0.1132
    1AU     LIG  284   4.758   2.475   8.725  0.1309  0.0855 -0.2084
    1AU       S  285   4.704   3.079   7.190 -0.1112  0.1115 -0.4828
    1AU     LIG  286   4.796   2.887   7.568 -0.1513  0.0540  0.1280
    1AU     LIG  287   4.709   2.547   7.849  0.0753  0.2285  0.0578
    1AU     LIG  288   4.783   2.605   8.275 -0.2003  0.1839  0.3703
    1AU     LIG  289   5.091   2.842   8.572 -0.0025  0.3923 -0.3404
    1AU    AUSL  290   3.671   3.790   5.856  0.0865 -0.0092 -0.0278
    1AU    AUSL  291   4.181   3.918   5.869  0.0318  0.0626  0.0156
    1AU     AUL  292   3.893   3.858   5.563  0.0849  0.0091 -0.0396
    1AU       S  293   4.325   3.705   5.619 -0.2831 -0.1855  0.0403
    1AU     LIG  294   4.629   3.929   5.340  0.1618 -0.0846  0.3100
    1AU     LIG  295   4.876   4.358   5.239 -0.0833 -0.0088  0.0303
    1AU     LIG  296   5.052   4.716   5.226  0.0998  0.1634 -0.1183
    1AU     LIG  297   5.072   4.952   4.875  0.0164  0.1174 -0.0688
    1AU       S  298   3.446   4.044   5.516 -0.1302  0.0431  0.0823
    1AU     LIG  299   3.429   3.638   5.436  0.1289 -0.0562  0.3672
    1AU     LIG  300   3.597   3.317   5.697 -0.1597 -0.0621 -0.2414
    1AU     LIG  301   3.882   3.003   5.727 -0.3656 -0.0259 -0.2232
    1AU     LIG  302   4.104   2.760   5.989  0.1599 -0.1185 -0.2411
    1AU    AUSL  303   3.624   4.196   6.021  0.0987  0.0059 -0.0218
    1AU    AUSL  304   3.498   3.814   6.239  0.0533  0.0565 -0.0853
    1AU     AUL  305   3.336   3.865   5.920  0.0313  0.0140 -0.0143
    1AU       S  306   2.900   3.772   6.042  0.0674  0.0658  0.1460
    1AU     LIG  307   2.457   3.600   6.253 -0.1065  0.1126 -0.3739
    1AU     LIG  308   2.105   3.534   6.338  0.0605 -0.2185 -0.2251
    1AU     LIG  309   1.742   3.767   6.548  0.0481  0.0164  0.0799
    1AU     LIG  310   1.336   3.847   6.415  0.5761 -0.2619  0.1209
    1AU       S  311   3.400   4.234   5.655  0.1044 -0.3130 -0.2831
    1AU     LIG  312   2.970   4.212   5.707  0.1082  0.0259  0.0520
    1AU     LIG  313   2.584   4.332   5.409 -0.0558  0.0289 -0.4260
    1AU     LIG  314   2.344   4.219   5.091  0.1786 -0.1435  0.0121
    1AU     LIG  315   2.020   4.367   4.729  0.2694  0.4911  0.2821
    1AU    AUSL  316   3.815   4.891   6.917 -0.0460  0.1004 -0.1314
    1AU    AUSL  317   3.853   4.961   6.462 -0.0103  0.0355 -0.0256
    1AU     AUL  318   3.572   5.075   6.818 -0.0169 -0.0026  0.0616
    1AU       S  319   3.725   5.266   6.387 -0.1720 -0.0491  0.3944
    1AU     LIG  320   3.731   5.516   6.035  0.0957  0.3618  0.4648
    1AU     LIG  321   3.483   5.866   5.955  0.0839 -0.0399 -0.0621
    1AU     LIG  322   3.135   6.219   6.024 -0.0282 -0.1464 -0.1553
    1AU     LIG  323   2.844   6.489   6.091 -0.0737 -0.2528  0.1513
    1AU       S  324   3.876   5.347   7.036 -0.0606  0.6281  0.1852
    1AU     LIG  325   3.690   5.659   6.688  0.1322 -0.1204 -0.0300
    1AU     LIG  326   3.407   5.980   6.687 -0.2225 -0.3473 -0.0831
    1AU     LIG  327   3.029   6.267   6.554  0.2595 -0.3086  0.0310
    1AU     LIG  328   2.700   6.596   6.657  0.1980 -0.1582  0.0619
    1AU    AUSL  329   4.170   5.062   6.706 -0.0197 -0.0409 -0.1016
    1AU    AUSL  330   4.543   4.891   6.868 -0.0664  0.0073  0.0068
    1AU     AUL  331   4.503   5.226   6.868  0.1338  0.1099  0.0146
    1AU       S  332   4.036   5.271   6.832 -0.2235  0.0968 -0.0706
    1AU     LIG  333   4.122   5.564   6.455  0.1491  0.2747 -0.1415
    1AU     LIG  334   3.895   5.924   6.349  0.2163  0.2406 -0.1751
    1AU     LIG  335   3.573   6.280   6.236 -0.6155  0.1660 -0.3566
    1AU     LIG  336   3.421   6.615   6.097  0.0107  0.2285 -0.0711
    1AU       S  337   4.806   5.099   6.549 -0.2497  0.0279 -0.5139
    1AU     LIG  338   5.172   5.041   7.030 -0.0027 -0.1563 -0.2863
    1AU     LIG  339   5.606   4.893   7.113 -0.1546  0.0723 -0.0067
    1AU     LIG  340   5.807   4.846   7.359  0.1071 -0.0008 -0.3308
    1AU     LIG  341   6.029   4.609   7.695 -0.2447  0.0555  0.1031
    1AU    AUSL  342   4.197   4.903   7.122  0.0291 -0.0258 -0.0280
    1AU    AUSL  343   3.561   4.763   7.225 -0.0252 -0.0708 -0.0335
    1AU     AUL  344   3.886   4.936   7.284  0.0296 -0.0184 -0.0238
    1AU       S  345   3.462   4.870   7.509 -0.3242  0.0111 -0.1062
    1AU     LIG  346   3.410   5.251   7.298  0.0276 -0.2535 -0.1424
    1AU     LIG  347   3.260   5.635   7.122 -0.2223  0.3986  0.5172
    1AU     LIG  348   2.931   5.859   6.819 -0.2397 -0.0315  0.1780
    1AU     LIG  349   3.016   5.789   6.392 -0.1326  0.0034  0.0353
    1AU       S  350   4.167   5.275   7.139  0.4791 -0.7445 -0.4045
    1AU     LIG  351   4.245   5.689   6.984 -0.2136  0.2857 -0.0682
    1AU     LIG  352   4.261   6.119   6.788  0.5093 -0.0219  0.0392
    1AU     LIG  353   3.905   6.370   6.799  0.3802 -0.1489 -0.4119
    1AU     LIG  354   3.537   6.560   6.730 -0.1309 -0.1086  0.1961
    1AU    AUSL  355   3.395   3.532   6.589 -0.0474 -0.0338 -0.0148
    1AU    AUSL  356   3.655   3.459   6.955 -0.0099  0.0040  0.0937
    1AU     AUL  357   3.205   3.446   6.805 -0.0585  0.0798  0.0329
    1AU       S  358   3.253   3.077   6.529 -0.1570 -0.3421  0.0533
    1AU     LIG  359   3.067   2.695   6.511 -0.5263 -0.2355 -0.1626
    1AU     LIG  360   2.763   2.524   6.701  0.3382 -0.0392  0.1843
    1AU     LIG  361   2.895   2.069   6.744  0.1510  0.0994  0.4388
    1AU     LIG  362   2.955   1.725   6.443  0.4130 -0.3896  0.1701
    1AU       S  363   3.550   3.266   7.104 -0.2263 -0.1912  0.2425
    1AU     LIG  364   3.521   2.865   7.056 -0.3305 -0.0459  0.2507
    1AU     LIG  365   3.255   2.563   7.199  0.3854 -0.1460  0.0928
    1AU     LIG  366   3.088   2.477   7.652  0.1470  0.0048 -0.1088
    1AU     LIG  367   3.096   2.277   8.018 -0.2853 -0.2077  0.3228
    1AU    AUSL  368   3.617   3.409   6.210 -0.0682  0.1417 -0.0026
    1AU    AUSL  369   3.128   3.829   6.495  0.0828 -0.0326 -0.0204
    1AU     AUL  370   3.281   3.531   6.247  0.0423  0.0495 -0.0421
    1AU       S  371   3.377   3.042   6.338 -0.1922 -0.0902  0.1529
    1AU     LIG  372   3.518   2.797   6.047  0.1574  0.0342 -0.2676
    1AU     LIG  373   3.742   2.454   6.076  0.0479  0.0595 -0.1911
    1AU     LIG  374   3.747   2.133   6.423 -0.0796  0.0942  0.1238
    1AU     LIG  375   3.495   1.786   6.642  0.0335 -0.3218  0.1256
    1AU       S  376   2.920   3.803   6.340  0.0851  0.2528 -0.1546
    1AU     LIG  377   2.846   3.301   6.427  0.0455  0.2175 -0.1151
    1AU     LIG  378   2.788   3.141   6.727 -0.1724 -0.1514 -0.4113
    1AU     LIG  379   2.928   2.894   7.106  0.0103 -0.3740  0.1406
    1AU     LIG  380   3.036   2.969   7.537 -0.0039 -0.0378  0.0920
    1AU    AUSL  381   3.712   3.227   6.618 -0.0178  0.0288  0.0441
    1AU    AUSL  382   4.025   3.367   6.320  0.0013  0.0098 -0.0051
    1AU     AUL  383   3.816   3.113   6.218 -0.0311  0.0022 -0.0467
    1AU       S  384   4.123   2.942   6.484  0.3698  0.2316 -0.0678
    1AU     LIG  385   4.153   2.435   6.493 -0.3686 -0.1219  0.0151
    1AU     LIG  386   4.646   2.299   6.598 -0.0758 -0.0859  0.1622
    1AU     LIG  387   4.800   1.817   6.633  0.1179  0.1686 -0.0347
    1AU     LIG  388   4.535   1.549   6.561 -0.0738  0.1107 -0.0395
    1AU       S  389   3.528   3.084   6.607  0.1399  0.2826  0.1146
    1AU     LIG  390   3.614   2.620   6.545 -0.3046  0.4286  0.3352
    1AU     LIG  391   3.467   2.301   6.793 -0.1243 -0.1852  0.0749
    1AU     LIG  392   3.559   2.069   7.101  0.1078 -0.0164  0.3726
    1AU     LIG  393   3.818   1.647   7.070  0.1633  0.4021 -0.1664
    1AU    AUSL  394   4.757   4.613   6.580 -0.0674 -0.0150 -0.0264
    1AU    AUSL  395   4.479   4.552   7.097 -0.0739 -0.0177 -0.0132
    1AU     AUL  396   4.826   4.753   6.889 -0.0167  0.0000 -0.0028
    1AU       S  397   5.001   4.979   6.470  0.1384 -0.1742 -0.0893
    1AU     LIG  398   5.347   5.263   6.560 -0.3247  0.3110  0.0719
    1AU     LIG  399   5.409   5.670   6.538 -0.3940 -0.2095 -0.3496
    1AU     LIG  400   5.587   6.080   6.670  0.0226 -0.2535 -0.2558
    1AU     LIG  401   5.387   6.483   6.758 -0.4569 -0.0029  0.0973
    1AU       S  402   4.657   4.784   7.328  0.2705  0.1228 -0.0991
    1AU     LIG  403   4.367   4.939   7.575 -0.1471  0.0231  0.4151
    1AU     LIG  404   4.108   5.211   7.663  0.0743  0.2641  0.1509
    1AU     LIG  405   3.810   5.536   7.492  0.0029 -0.0318 -0.1229
    1AU     LIG  406   3.597   5.843   7.405  0.1191 -0.0644 -0.3382
    1AU    AUSL  407   4.343   4.755   6.493  0.0276 -0.0421  0.0006
    1AU    AUSL  408   4.550   4.381   6.299  0.0616 -0.0655 -0.0695
    1AU     AUL  409   4.742   4.662   6.246 -0.0173  0.0174 -0.0366
    1AU       S  410   4.575   5.083   6.413 -0.1283 -0.0613  0.3938
    1AU     LIG  411   4.634   5.518   6.303 -0.0483 -0.0094 -0.1632
    1AU     LIG  412   4.511   5.958   6.387 -0.2145  0.0980  0.1257
    1AU     LIG  413   4.604   6.369   6.492  0.3440 -0.4220 -0.0918
    1AU     LIG  414   4.402   6.655   6.647  0.3443 -0.1683  0.2030
    1AU       S  415   4.829   4.760   5.804 -0.2605 -0.0948 -0.1249
    1AU     LIG  416   5.067   5.106   5.590  0.0803  0.1494  0.1680
    1AU     LIG  417   5.267   5.290   5.204 -0.1290  0.0130 -0.0834
    1AU     LIG  418   5.482   5.355   4.798 -0.1403 -0.2717  0.1258
    1AU     LIG  419   5.901   5.349   4.611 -0.1978 -0.1913 -0.0042
    1AU    AUSL  420   4.448   3.292   6.444 -0.1453  0.1079 -0.0165
    1AU    AUSL  421   3.999   3.538   5.951  0.0823  0.0034 -0.0673
    1AU     AUL  422   4.279   3.262   6.107 -0.0526  0.0223  0.0577
    1AU       S  423   4.088   3.449   5.713  0.3381 -0.1033  0.1847
    1AU     LIG  424   4.064   3.441   5.244 -0.4055  0.1136  0.0081
    1AU     LIG  425   4.135   3.247   4.835 -0.1600 -0.4373  0.1784
    1AU     LIG  426   3.938   3.255   4.526  0.2699 -0.2752  0.3071
    1AU     LIG  427   4.078   2.999   4.242 -0.1291 -0.0410 -0.3353
    1AU       S  428   4.343   2.922   6.439 -0.3369 -0.0808 -0.3139
    1AU     LIG  429   4.537   2.719   6.819 -0.0606  0.2592  0.1123
    1AU     LIG  430   4.959   2.655   6.866  0.0392 -0.0476  0.0684
    1AU     LIG  431   5.092   2.403   7.094 -0.0643  0.1455  0.1374
    1AU     LIG  432   5.205   1.971   6.821  0.0604 -0.0291  0.0219
    1AU    AUSL  433   4.090   3.347   6.738  0.0608 -0.0697  0.0701
    1AU    AUSL  434   4.491   3.583   6.740  0.0218  0.0673 -0.0360
    1AU     AUL  435   4.485   3.227   6.785  0.1169 -0.0924  0.0296
    1AU       S  436   4.087   3.001   6.734  0.1523 -0.1743  0.0355
    1AU     LIG  437   4.055   2.629   6.945  0.2419  0.4797 -0.0133
    1AU     LIG  438   4.066   2.092   6.886  0.1370  0.0786 -0.0662
    1AU     LIG  439   4.365   1.822   6.907 -0.0510  0.0885  0.0414
    1AU     LIG  440   4.571   1.598   7.190  0.3017 -0.1437 -0.0633
    1AU       S  441   4.917   3.257   6.943  0.1448 -0.2193  0.0394
    1AU     LIG  442   5.268   3.019   6.795 -0.0715  0.2079  0.1787
    1AU     LIG  443   5.760   3.189   6.733 -0.3140 -0.0611  0.2803
    1AU     LIG  444   5.903   3.428   6.353  0.2378  0.3054 -0.0194
    1AU     LIG  445   6.246   3.806   6.226 -0.2057 -0.0946 -0.2658
    2POPC   NC3  446   4.616   8.587   8.882 -0.0739  0.0015 -0.2001
    2POPC   PO4  447   5.018   8.792   8.783  0.1535  0.2822 -0.0144
    2POPC   GL1  448   4.919   8.617   8.426 -0.3665  0.0885 -0.2279
    2POPC   GL2  449   4.550   8.598   8.386  0.0850 -0.0692 -0.0301
    2POPC   C1A  450   5.084   8.450   7.957 -0.3002 -0.3735 -0.4453
    2POPC   D2A  451   5.575   8.440   7.860  0.0806  0.0237 -0.3150
    2POPC   C3A  452   5.715   8.083   7.526 -0.4744  0.1218 -0.1625
    2POPC   C4A  453   5.722   7.931   6.975 -0.0250  0.1072  0.1195
    2POPC   C1B  454   4.527   8.846   8.021 -0.3238  0.0486 -0.0336
    2POPC   C2B  455   4.839   8.821   7.653  0.1785  0.0388 -0.2018
    2POPC   C3B  456   4.944   8.973   7.356 -0.4121 -0.1204 -0.2606
    2POPC   C4B  457   5.180   9.383   7.188  0.2310 -0.0582 -0.1719
    3POPC   NC3  458   5.342   4.858   9.836  0.1536 -0.1534 -0.0483
    3POPC   PO4  459   5.092   5.160   9.641 -0.2090  0.0423  0.3058
    3POPC   GL1  460   4.932   4.761   9.510 -0.1128 -0.1201 -0.2662
    3POPC   GL2  461   5.204   4.502   9.437 -0.0514 -0.1272  0.0924
    3POPC   C1A  462   4.683   4.608   9.119 -0.0799  0.1587  0.3340
    3POPC   D2A  463   4.480   4.400   8.828 -0.1848 -0.0407 -0.1235
    3POPC   C3A  464   4.239   4.040   8.876  0.0737 -0.0089  0.2124
    3POPC   C4A  465   4.184   3.619   8.790  0.1192 -0.3478 -0.0518
    3POPC   C1B  466   5.249   4.561   9.027  0.3773 -0.1586 -0.2957
    3POPC   C2B  467   5.161   4.444   8.609  0.2997 -0.2928 -0.0926
    3POPC   C3B  468   5.193   4.178   8.131 -0.0881  0.1328  0.2827
    3POPC   C4B  469   5.498   3.908   7.868  0.2399  0.0315 -0.0323
    4POPC   NC3  470   7.672   6.132   8.109  0.0808 -0.0544  0.1812
    4POPC   PO4  471   7.478   5.765   8.131  0.2808 -0.4134  0.0636
    4POPC   GL1  472   7.353   5.732   7.733  0.2005  0.1534  0.1040
    4POPC   GL2  473   7.310   5.428   7.626 -0.1751 -0.1939 -0.1863
    4POPC   C1A  474   7.347   5.873   7.325 -0.1730 -0.0279 -0.2410
    4POPC   D2A  475   7.350   6.114   7.004 -0.2634  0.0793 -0.3370
    4POPC   C3A  476   7.616   5.915   6.587 -0.0946 -0.0394  0.0234
    4POPC   C4A  477   7.771   5.929   6.124  0.0351  0.0187 -0.1966
    4POPC   C1B  478   7.093   5.383   7.195  0.1207 -0.0990 -0.3289
    4POPC   C2B  479   6.932   5.398   6.754 -0.0456  0.1121 -0.1683
    4POPC   C3B  480   6.616   5.480   6.629  0.0587  0.1032  0.1743
    4POPC   C4B  481   6.221   5.335   6.673  0.2252 -0.0453 -0.1640
    5POPC   NC3  482   6.208   8.902   8.651  0.2403 -0.0973  0.1720
    5POPC   PO4  483   6.413   9.312   8.554 -0.1437  0.4242 -0.1318
    5POPC   GL1  484   6.161   9.418   8.221  0.2943  0.3647  0.2046
    5POPC   GL2  485   5.813   9.342   8.213  0.0212  0.0406  0.2731
    5POPC   C1A  486   6.230   9.471   7.805  0.0301 -0.0852  0.0256
    5POPC   D2A  487   6.318   9.486   7.347 -0.2541 -0.1968  0.0344
    5POPC   C3A  488   6.523   9.165   7.123 -0.3215  0.1178  0.2472
    5POPC   C4A  489   6.866   9.046   7.090 -0.1658 -0.1276  0.0669
    5POPC   C1B  490   5.761   9.616   7.970  0.0946  0.1748  0.2234
    5POPC   C2B  491   5.493   9.877   7.725  0.0529 -0.1097 -0.0065
    5POPC   C3B  492   5.489   9.791   7.334  0.0653  0.1495 -0.1219
    5POPC   C4B  493   5.283   9.826   6.926 -0.0640 -0.0474 -0.0031
    6POPC   NC3  494   6.410   0.286   8.435 -0.0232  0.0771 -0.0491
    6POPC   PO4  495   6.683   0.695   8.527 -0.3212 -0.0820  0.0922
    6POPC   GL1  496   6.562   1.001   8.243  0.0328 -0.2747  0.1522
    6POPC   GL2  497   6.839   1.093   8.141  0.1153  0.0022  0.0208
    6POPC   C1A  498   6.403   1.317   7.972  0.0384 -0.1066  0.1272
    6POPC   D2A  499   6.719   1.436   7.601  0.2873 -0.0201  0.1073
    6POPC   C3A  500   6.740   1.867   7.528 -0.1326 -0.0088 -0.2375
    6POPC   C4A  501   6.562   2.212   7.352  0.1156 -0.1297  0.1246
    6POPC   C1B  502   6.882   0.999   7.713  0.0430  0.0019 -0.1459
    6POPC   C2B  503   7.140   0.918   7.491 -0.2274  0.1446 -0.0906
    6POPC   C3B  504   6.997   0.722   7.145 -0.0130  0.1602 -0.0906
    6POPC   C4B  505   6.640   0.570   6.940  0.3486 -0.1660 -0.0676
    7POPC   NC3  506   9.647   4.655   8.826 -0.2855 -0.3095  0.3539
    7POPC   PO4  507  10.070   4.372   8.853  0.0381  0.3614 -0.0521
    7POPC   GL1  508  10.401   4.384   8.470 -0.2033  0.2314 -0.4368
    7POPC   GL2  509  10.293   4.431   8.236  0.1564 -0.1693  0.0267
    7POPC   C1A  510  10.869   4.557   8.301 -0.0786  0.2634 -0.1446
    7POPC   D2A  511  11.264   4.735   8.175  0.1463 -0.2669 -0.0614
    7POPC   C3A  512  11.380   4.570   7.757  0.0670 -0.1337  0.0335
    7POPC   C4A  513  11.637   4.679   7.391 -0.1001  0.0343  0.3162
    7POPC   C1B  514  10.561   4.477   7.885  0.1484  0.1640  0.2308
    7POPC   C2B  515  10.709   4.492   7.409 -0.0750  0.2088  0.3489
    7POPC   C3B  516  10.884   4.610   6.970 -0.1329  0.0546 -0.1053
    7POPC   C4B  517  11.189   4.410   6.765  0.1693  0.0392  0.3642
    8POPC   NC3  518   9.119   2.434   8.478 -0.0422  0.0425 -0.0702
    8POPC   PO4  519   9.278   2.078   8.480  0.1202 -0.0095 -0.2356
    8POPC   GL1  520   9.468   2.051   8.072 -0.2442  0.0344  0.1145
    8POPC   GL2  521   9.851   1.992   8.108 -0.0725 -0.0779 -0.0858
    8POPC   C1A  522   9.210   1.939   7.817 -0.2393  0.1569  0.0807
    8POPC   D2A  523   9.014   1.685   7.435  0.0086 -0.1914 -0.0570
    8POPC   C3A  524   9.283   1.597   7.144 -0.1288  0.3218  0.1393
    8POPC   C4A  525   9.579   1.847   6.845  0.0950 -0.2852 -0.2059
    8POPC   C1B  526   9.777   1.972   7.656  0.3402 -0.2992  0.0812
    8POPC   C2B  527   9.410   2.058   7.403 -0.0420  0.0422  0.3562
    8POPC   C3B  528   9.111   2.033   7.045  0.4030 -0.1094 -0.3455
    8POPC   C4B  529   8.925   1.798   6.788  0.1036 -0.2314  0.3826
    9POPC   NC3  530   4.592   0.734   8.990 -0.1104  0.1706 -0.5226
    9POPC   PO4  531   4.470   1.139   8.900  0.1027 -0.2187 -0.0778
    9POPC   GL1  532   4.520   0.947   8.512 -0.0450 -0.1358 -0.0151
    9POPC   GL2  533   4.870   1.070   8.551  0.0621  0.0399 -0.1254
    9POPC   C1A  534   4.584   1.242   8.163 -0.2984  0.0251  0.0836
    9POPC   D2A  535   4.364   1.078   7.764 -0.1419 -0.2515 -0.3147
    9POPC   C3A  536   4.434   0.730   7.610 -0.0047  0.0911 -0.0124
    9POPC   C4A  537   4.787   0.604   7.498  0.1640 -0.1540 -0.0747
    9POPC   C1B  538   5.141   1.084   8.236  0.0210  0.1967  0.0186
    9POPC   C2B  539   5.475   1.061   7.931  0.1953 -0.2849  0.1482
    9POPC   C3B  540   5.692   1.147   7.485 -0.2108 -0.1052  0.3043
    9POPC   C4B  541   6.099   1.282   7.353 -0.1403  0.1715 -0.0979
   10POPC   NC3  542   0.042   7.741   8.460  0.2099  0.1659 -0.0427
   10POPC   PO4  543  -0.026   7.452   8.098 -0.0192  0.2226 -0.2807
   10POPC   GL1  544  -0.233   7.493   7.709  0.0939 -0.0022  0.1841
   10POPC   GL2  545  -0.363   7.137   7.676 -0.1041  0.0529 -0.0048
   10POPC   C1A  546  -0.302   7.742   7.352  0.0274 -0.0478 -0.0551
   10POPC   D2A  547  -0.206   8.023   7.083 -0.1194 -0.3288 -0.1155
   10POPC   C3A  548  -0.467   8.145   6.857  0.1208 -0.0249 -0.0772
   10POPC   C4A  549  -0.489   8.440   6.529 -0.3015  0.0007 -0.1199
   10POPC   C1B  550  -0.519   6.822   7.461  0.0755  0.2137  0.2188
   10POPC   C2B  551  -0.587   6.796   7.024  0.1815 -0.0009 -0.0833
   10POPC   C3B  552  -0.883   6.550   6.816  0.2818  0.0574 -0.0136
   10POPC   C4B  553  -1.345   6.617   6.832 -0.3343  0.0278  0.1508
   11POPC   NC3  554   5.680   6.338   8.885  0.2576  0.0565  0.1030
   11POPC   PO4  555   5.611   6.063   8.479  0.0313 -0.2764 -0.2195
   11POPC   GL1  556   5.438   6.314   8.169  0.1201 -0.3173 -0.3206
   11POPC   GL2  557   5.676   6.506   7.974 -0.1363 -0.2463  0.0431
   11POPC   C1A  558   5.234   6.111   7.904  0.0414 -0.1159  0.0723
   11POPC   D2A  559   5.103   6.205   7.495  0.1140 -0.0053  0.3228
   11POPC   C3A  560   5.196   6.104   7.110 -0.3506 -0.0394 -0.0313
   11POPC   C4A  561   5.063   6.113   6.714  0.1239  0.0598  0.1824
   11POPC   C1B  562   5.581   6.178   7.570 -0.4200  0.1299  0.0030
   11POPC   C2B  563   5.789   5.818   7.158 -0.0210 -0.1792 -0.0996
   11POPC   C3B  564   6.129   5.523   7.187 -0.0748 -0.3184  0.1211
   11POPC   C4B  565   6.551   5.447   7.145 -0.1164  0.2269  0.1802
   12POPC   NC3  566   7.807   9.106   8.845  0.3385  0.1087  0.3116
   12POPC   PO4  567   8.112   9.196   8.584  0.3442 -0.0477  0.0826
   12POPC   GL1  568   8.107   8.901   8.385  0.0153  0.2487  0.2022
   12POPC   GL2  569   8.063   9.057   8.095  0.2039 -0.0879  0.0824
   12POPC   C1A  570   8.418   8.719   8.010  0.0378 -0.0571 -0.0929
   12POPC   D2A  571   8.454   8.239   7.732 -0.0659  0.0494 -0.0624
   12POPC   C3A  572   8.876   8.247   7.548  0.1096 -0.0511 -0.1037
   12POPC   C4A  573   9.317   8.291   7.326  0.1170  0.2090 -0.1866
   12POPC   C1B  574   7.766   8.948   7.793 -0.1691  0.1309  0.3526
   12POPC   C2B  575   7.812   8.999   7.353 -0.1035  0.3784  0.0601
   12POPC   C3B  576   7.566   9.231   6.954 -0.3198 -0.0191  0.0944
   12POPC   C4B  577   7.228   9.248   6.830 -0.1166 -0.3867  0.2153
   13POPC   NC3  578   8.930   7.464   8.152  0.1540  0.2708  0.2197
   13POPC   PO4  579   9.024   7.040   8.035 -0.0916 -0.1878 -0.2651
   13POPC   GL1  580   9.084   7.228   7.659 -0.0076 -0.2586  0.3517
   13POPC   GL2  581   8.736   7.229   7.466  0.1680 -0.5106  0.1279
   13POPC   C1A  582   9.301   7.275   7.263 -0.1275  0.2346 -0.0785
   13POPC   D2A  583   9.136   7.449   6.861  0.2368 -0.1874 -0.2630
   13POPC   C3A  584   9.027   7.841   6.824 -0.2017 -0.1490 -0.2222
   13POPC   C4A  585   8.972   8.203   7.037 -0.0115 -0.1741  0.0529
   13POPC   C1B  586   8.318   7.225   7.143  0.2648  0.0488  0.0349
   13POPC   C2B  587   7.942   7.166   6.857 -0.0978  0.0280  0.1454
   13POPC   C3B  588   7.861   6.920   6.530  0.1286  0.0459 -0.5459
   13POPC   C4B  589   7.818   6.933   6.169  0.1632 -0.4828 -0.3453
   14POPC   NC3  590   2.224   0.706   8.538  0.1341  0.4919  0.0977
   14POPC   PO4  591   2.126   0.208   8.558 -0.1685 -0.4270  0.5429
   14POPC   GL1  592   2.064   0.294   8.175  0.2945  0.0462 -0.0193
   14POPC   GL2  593   1.934   0.085   7.961 -0.0120 -0.1867 -0.2842
   14POPC   C1A  594   2.054   0.683   7.914 -0.0373  0.0443  0.1825
   14POPC   D2A  595   2.116   1.106   7.751  0.1128 -0.2648  0.1226
   14POPC   C3A  596   1.919   1.233   7.320 -0.3058  0.0343  0.1769
   14POPC   C4A  597   1.768   1.126   6.938 -0.0121  0.1830 -0.0401
   14POPC   C1B  598   1.826   0.336   7.565 -0.2842  0.0113  0.0656
   14POPC   C2B  599   1.520   0.139   7.251  0.0065  0.2288  0.3730
   14POPC   C3B  600   1.126  -0.011   7.241 -0.2571  0.1901  0.0732
   14POPC   C4B  601   0.703  -0.228   7.172 -0.0036 -0.3012  0.3611
   15POPC   NC3  602   7.268   1.493   8.421  0.1180 -0.1475  0.1581
   15POPC   PO4  603   7.252   1.999   8.370 -0.0608  0.1778  0.2254
   15POPC   GL1  604   7.267   2.369   8.055 -0.0435 -0.1840  0.0242
   15POPC   GL2  605   6.930   2.250   7.883 -0.0054  0.1271 -0.1401
   15POPC   C1A  606   7.432   2.464   7.648  0.1880  0.2987  0.0544
   15POPC   D2A  607   7.606   2.223   7.284  0.0846 -0.2216 -0.0578
   15POPC   C3A  608   7.940   2.292   7.005 -0.3018 -0.0168 -0.0412
   15POPC   C4A  609   8.177   2.315   6.568  0.1767 -0.0478 -0.1239
   15POPC   C1B  610   6.789   2.559   7.645  0.0883  0.0064 -0.2690
   15POPC   C2B  611   6.690   2.839   7.248 -0.0998  0.0349  0.1559
   15POPC   C3B  612   6.556   3.190   6.982  0.1311 -0.0196  0.0058
   15POPC   C4B  613   6.463   3.412   6.646 -0.3613  0.1495  0.0716
   16POPC   NC3  614   7.350   0.261   8.482  0.0156  0.2968 -0.3323
   16POPC   PO4  615   7.633   0.020   8.586 -0.2660 -0.1780 -0.3152
   16POPC   GL1  616   7.888  -0.051   8.317 -0.2805 -0.1315  0.2063
   16POPC   GL2  617   8.180  -0.176   8.358  0.1658  0.3506  0.0838
   16POPC   C1A  618   7.970   0.094   7.930 -0.2064 -0.0942  0.1437
   16POPC   D2A  619   7.835   0.135   7.499 -0.3654  0.2940 -0.2371
   16POPC   C3A  620   7.918   0.481   7.180  0.1443 -0.0306  0.1023
   16POPC   C4A  621   8.268   0.700   6.877 -0.0298 -0.2504 -0.1516
   16POPC   C1B  622   8.029  -0.435   7.966 -0.1646 -0.0167  0.0298
   16POPC   C2B  623   8.199  -0.333   7.568 -0.2233 -0.2885 -0.1620
   16POPC   C3B  624   8.355  -0.198   7.087 -0.3067  0.2986 -0.0913
   16POPC   C4B  625   8.731  -0.260   6.840 -0.0871  0.4066  0.1477
   17POPC   NC3  626   0.992   5.341   8.770 -0.0255 -0.0478 -0.1919
   17POPC   PO4  627   0.696   5.102   8.489  0.1449  0.1042 -0.0119
   17POPC   GL1  628   0.655   4.953   8.132 -0.0707  0.2104 -0.0798
   17POPC   GL2  629   0.351   4.941   8.053  0.2781  0.0267 -0.1265
   17POPC   C1A  630   0.977   4.827   7.819  0.0764 -0.3257  0.2063
   17POPC   D2A  631   1.133   5.014   7.462  0.0795 -0.0607  0.0038
   17POPC   C3A  632   1.367   4.847   7.044  0.1040  0.1293 -0.1347
   17POPC   C4A  633   1.678   4.597   6.873  0.2225 -0.2980 -0.4657
   17POPC   C1B  634   0.492   4.931   7.671 -0.0867  0.0017  0.2329
   17POPC   C2B  635   0.359   4.758   7.183 -0.1015  0.0713  0.0335
   17POPC   C3B  636   0.497   4.731   6.782 -0.0157 -0.2953  0.2615
   17POPC   C4B  637   0.597   4.348   6.668 -0.1346 -0.0104  0.2061
   18POPC   NC3  638   1.699   3.958   9.577  0.2063  0.0007  0.0206
   18POPC   PO4  639   1.844   3.620   9.330 -0.0338 -0.0069  0.0702
   18POPC   GL1  640   1.929   3.661   8.937  0.0047 -0.1558  0.0136
   18POPC   GL2  641   1.742   3.480   8.784  0.0976  0.0091 -0.2467
   18POPC   C1A  642   2.284   3.625   8.682  0.1217  0.2924 -0.0293
   18POPC   D2A  643   2.422   3.740   8.323  0.0537  0.0271 -0.3529
   18POPC   C3A  644   2.278   4.011   8.071 -0.2233  0.2671 -0.0343
   18POPC   C4A  645   2.199   4.088   7.624  0.0558 -0.3285 -0.0636
   18POPC   C1B  646   2.021   3.169   8.788  0.3457  0.2309  0.0467
   18POPC   C2B  647   2.296   3.084   8.559  0.2459  0.0598 -0.2327
   18POPC   C3B  648   2.615   2.873   8.452  0.0962  0.3653  0.0922
   18POPC   C4B  649   2.830   2.491   8.434 -0.0709 -0.0651 -0.1337
   19POPC   NC3  650   7.988   4.804   8.461 -0.3430 -0.1343  0.2771
   19POPC   PO4  651   8.420   4.929   8.249  0.0219 -0.2149 -0.1995
   19POPC   GL1  652   8.306   4.923   7.746  0.2100  0.1183 -0.1045
   19POPC   GL2  653   8.638   4.859   7.592  0.0120  0.2253 -0.0068
   19POPC   C1A  654   8.428   5.353   7.467 -0.1287  0.0517 -0.2002
   19POPC   D2A  655   8.354   5.645   7.242 -0.0038 -0.3166  0.1230
   19POPC   C3A  656   8.586   5.736   6.884 -0.3481  0.2573 -0.1842
   19POPC   C4A  657   9.018   5.802   6.671 -0.4342 -0.1222 -0.0922
   19POPC   C1B  658   8.400   4.932   7.264  0.0866 -0.1414 -0.1308
   19POPC   C2B  659   8.459   5.222   6.916 -0.0379  0.1161  0.1500
   19POPC   C3B  660   8.710   5.147   6.607  0.5796  0.3177  0.0097
   19POPC   C4B  661   8.919   4.900   6.403 -0.1467 -0.2992  0.0229
   20POPC   NC3  662   7.564   4.633   8.823  0.0643 -0.0110  0.0466
   20POPC   PO4  663   7.637   4.426   8.430  0.0018 -0.2311 -0.2042
   20POPC   GL1  664   7.612   4.272   8.037  0.0206 -0.1435 -0.1290
   20POPC   GL2  665   7.819   4.033   8.015 -0.1083  0.2529  0.1075
   20POPC   C1A  666   7.336   4.363   7.625  0.1976  0.1131 -0.1389
   20POPC   D2A  667   7.057   4.642   7.509  0.2921  0.2928 -0.2456
   20POPC   C3A  668   6.847   4.441   7.149  0.0941  0.0313  0.1281
   20POPC   C4A  669   7.090   4.286   6.813 -0.2458  0.2332 -0.2572
   20POPC   C1B  670   7.815   4.035   7.582 -0.3602 -0.2299 -0.2209
   20POPC   C2B  671   7.999   4.167   7.170 -0.0445  0.1191 -0.0165
   20POPC   C3B  672   8.191   4.158   6.900 -0.1849  0.0836  0.1863
   20POPC   C4B  673   8.667   4.091   6.788  0.4328  0.1122 -0.1429
   21POPC   NC3  674   4.715   7.779   8.795  0.0907  0.1196 -0.1824
   21POPC   PO4  675   4.943   8.095   8.556  0.0492 -0.0036  0.1540
   21POPC   GL1  676   4.742   8.201   8.163 -0.0115 -0.1000  0.1174
   21POPC   GL2  677   4.314   8.114   8.151 -0.0851  0.1037 -0.0126
   21POPC   C1A  678   4.636   8.322   7.705 -0.2743  0.0744 -0.1237
   21POPC   D2A  679   4.502   8.599   7.437  0.0315  0.1273  0.0802
   21POPC   C3A  680   4.730   8.756   6.980 -0.0770  0.0363  0.1077
   21POPC   C4A  681   4.962   8.579   6.698  0.1448 -0.0395  0.0254
   21POPC   C1B  682   4.311   7.969   7.680 -0.0408 -0.3608  0.3370
   21POPC   C2B  683   4.272   7.666   7.358  0.2373  0.0176 -0.1652
   21POPC   C3B  684   4.186   7.310   7.121  0.1831 -0.4161  0.0250
   21POPC   C4B  685   4.121   6.831   7.017 -0.2848 -0.0450  0.5107
   22POPC   NC3  686   0.902   0.879   9.446  0.2816  0.1363 -0.0501
   22POPC   PO4  687   0.806   0.594   9.186 -0.1203 -0.1698  0.2695
   22POPC   GL1  688   0.856   0.514   8.780  0.0336 -0.1224 -0.0769
   22POPC   GL2  689   0.716   0.328   8.540 -0.1054  0.1259 -0.1278
   22POPC   C1A  690   0.864   0.722   8.327 -0.0495 -0.1291 -0.0623
   22POPC   D2A  691   1.073   0.375   8.101  0.4068  0.1550  0.1117
   22POPC   C3A  692   0.937   0.383   7.706 -0.1769 -0.1092  0.0286
   22POPC   C4A  693   0.741   0.334   7.296 -0.0021  0.0399 -0.1511
   22POPC   C1B  694   0.617   0.196   8.066 -0.0736 -0.1589  0.1570
   22POPC   C2B  695   0.415   0.197   7.656  0.0577  0.0094  0.0577
   22POPC   C3B  696   0.218   0.215   7.271 -0.0649  0.2625  0.0267
   22POPC   C4B  697  -0.075   0.224   7.038 -0.2293 -0.2629 -0.1589
   23POPC   NC3  698   1.403   8.738   8.627  0.3974 -0.2368  0.0093
   23POPC   PO4  699   1.343   8.377   8.534 -0.1565  0.0956  0.1465
   23POPC   GL1  700   1.472   8.013   8.057 -0.2245 -0.1620 -0.2344
   23POPC   GL2  701   1.377   7.678   7.883  0.2748 -0.2067 -0.1553
   23POPC   C1A  702   1.723   8.173   7.775 -0.2152  0.4145  0.2648
   23POPC   D2A  703   1.706   8.560   7.556  0.0043  0.1638  0.3015
   23POPC   C3A  704   1.769   8.605   7.018 -0.1138 -0.0870  0.2256
   23POPC   C4A  705   1.825   8.507   6.533 -0.0574  0.1638 -0.0322
   23POPC   C1B  706   1.149   7.821   7.562  0.0818 -0.5335 -0.0411
   23POPC   C2B  707   0.990   8.015   7.102  0.2261  0.0211  0.2345
   23POPC   C3B  708   0.775   8.386   6.953  0.2229 -0.1618 -0.0383
   23POPC   C4B  709   0.768   8.401   6.429  0.0128  0.0187 -0.2225
   24POPC   NC3  710   4.843   9.796   9.002  0.0373  0.0499 -0.0670
   24POPC   PO4  711   4.971   9.300   8.889  0.0078 -0.3185 -0.2204
   24POPC   GL1  712   5.184   9.145   8.540 -0.4165 -0.0908  0.1415
   24POPC   GL2  713   4.839   9.109   8.444  0.1160 -0.0954  0.0112
   24POPC   C1A  714   5.346   9.404   8.273 -0.2574 -0.0553 -0.2318
   24POPC   D2A  715   5.289   9.465   7.796  0.0752 -0.0694 -0.1670
   24POPC   C3A  716   5.749   9.425   7.509 -0.2894 -0.0910 -0.1909
   24POPC   C4A  717   6.030   9.136   7.258 -0.0552 -0.3776  0.3532
   24POPC   C1B  718   4.937   9.185   8.015  0.3858  0.2008  0.2928
   24POPC   C2B  719   4.859   9.319   7.632  0.3566  0.0565  0.1492
   24POPC   C3B  720   4.893   9.692   7.502  0.1693 -0.2473  0.0414
   24POPC   C4B  721   4.699  10.082   7.249  0.0429 -0.3031  0.0921
   25POPC   NC3  722   6.300   9.829   8.720 -0.2467  0.0811  0.3083
   25POPC   PO4  723   5.978  10.206   8.662  0.1859 -0.2628  0.0523
   25POPC   GL1  724   5.922  10.304   8.285 -0.2128  0.2784  0.1657
   25POPC   GL2  725   6.105  10.559   8.104  0.2531 -0.1805  0.0112
   25POPC   C1A  726   5.850  10.213   7.903 -0.0693  0.1425 -0.2852
   25POPC   D2A  727   5.645  10.321   7.434 -0.0618  0.2928  0.0367
   25POPC   C3A  728   5.525  10.544   7.103 -0.1281 -0.3435  0.1058
   25POPC   C4A  729   5.285  10.896   7.152  0.0293 -0.0185  0.0356
   25POPC   C1B  730   5.825  10.697   7.734  0.1106  0.1103  0.4549
   25POPC   C2B  731   5.995  10.755   7.279 -0.2348 -0.1570 -0.1736
   25POPC   C3B  732   5.705  10.988   6.901 -0.0697 -0.1021  0.0437
   25POPC   C4B  733   5.355  10.746   6.635 -0.2409  0.1203  0.3634
   26POPC   NC3  734   2.581   2.585   9.787  0.0181  0.0468 -0.2916
   26POPC   PO4  735   2.163   2.718  10.033  0.1590 -0.1649  0.0633
   26POPC   GL1  736   2.233   2.795   9.461 -0.0499  0.3649 -0.3723
   26POPC   GL2  737   2.265   3.111   9.323  0.6873  0.5716 -0.1623
   26POPC   C1A  738   2.254   2.675   8.982  0.2909  0.2736 -0.0684
   26POPC   D2A  739   2.331   2.514   8.616  0.0127 -0.1539  0.0224
   26POPC   C3A  740   2.109   2.426   8.240 -0.1908 -0.2519 -0.2041
   26POPC   C4A  741   1.720   2.464   8.101 -0.0341 -0.1944  0.1163
   26POPC   C1B  742   2.506   3.238   9.002 -0.1086 -0.1154  0.0901
   26POPC   C2B  743   2.707   3.339   8.698 -0.2351 -0.3759  0.0345
   26POPC   C3B  744   2.687   3.330   8.263  0.2110  0.0263  0.1822
   26POPC   C4B  745   2.922   3.031   8.047 -0.0584  0.0612 -0.0066
   27POPC   NC3  746   0.018   2.451   8.665 -0.0745 -0.0103  0.1299
   27POPC   PO4  747  -0.477   2.697   8.657  0.2464  0.1051  0.1303
   27POPC   GL1  748  -0.348   2.708   8.250 -0.0591  0.1040  0.2442
   27POPC   GL2  749  -0.050   2.562   8.158  0.0320  0.1185 -0.0917
   27POPC   C1A  750  -0.585   2.860   7.893 -0.2203 -0.2437  0.4477
   27POPC   D2A  751  -0.871   2.924   7.561  0.2296 -0.0713 -0.2597
   27POPC   C3A  752  -0.983   2.937   7.057 -0.1534 -0.0488  0.2742
   27POPC   C4A  753  -1.012   2.824   6.645 -0.0254  0.0803 -0.2795
   27POPC   C1B  754  -0.051   2.834   7.866 -0.1953  0.2300 -0.1903
   27POPC   C2B  755   0.074   2.890   7.400  0.2141 -0.0875  0.1636
   27POPC   C3B  756  -0.078   2.837   6.891 -0.2025  0.1789 -0.0160
   27POPC   C4B  757  -0.533   2.817   6.740 -0.1220 -0.1937  0.0453
   28POPC   NC3  758   0.456   3.687   8.854 -0.0241  0.0737  0.0398
   28POPC   PO4  759  -0.046   3.614   8.694  0.0866 -0.0011  0.0004
   28POPC   GL1  760   0.094   3.483   8.342  0.0020 -0.2206  0.0494
   28POPC   GL2  761   0.420   3.579   8.312  0.2525 -0.0980  0.1204
   28POPC   C1A  762   0.296   3.097   8.130  0.1148 -0.0158 -0.0667
   28POPC   D2A  763   0.483   3.101   7.758  0.3188  0.1096 -0.2763
   28POPC   C3A  764   0.365   3.262   7.310  0.2218 -0.1582  0.0260
   28POPC   C4A  765   0.327   3.605   6.960 -0.2643 -0.0344 -0.2993
   28POPC   C1B  766   0.392   3.641   7.870  0.1820  0.2012  0.0899
   28POPC   C2B  767   0.634   3.881   7.580  0.2108  0.2974 -0.1152
   28POPC   C3B  768   0.797   4.052   7.172 -0.2230 -0.0390 -0.1731
   28POPC   C4B  769   1.010   3.892   6.876  0.0953  0.0838  0.0651
   29POPC   NC3  770   9.184   7.907   8.342  0.0050  0.3350 -0.1090
   29POPC   PO4  771   9.482   8.209   8.350 -0.0308 -0.0875  0.0934
   29POPC   GL1  772   9.284   8.350   7.977 -0.0662 -0.0924 -0.2761
   29POPC   GL2  773   9.293   8.161   7.827 -0.1166  0.1061 -0.0562
   29POPC   C1A  774   9.199   8.696   7.723 -0.1405  0.1757 -0.1515
   29POPC   D2A  775   9.197   9.110   7.464 -0.1860 -0.1485  0.0110
   29POPC   C3A  776   9.174   9.130   7.065  0.0743 -0.1304 -0.2053
   29POPC   C4A  777   9.068   9.344   6.726 -0.1041 -0.0695  0.0358
   29POPC   C1B  778   9.690   8.234   7.680  0.3217  0.2643 -0.1027
   29POPC   C2B  779  10.010   7.942   7.529 -0.1314  0.1018  0.0449
   29POPC   C3B  780  10.104   7.680   7.187 -0.0962 -0.1752  0.1101
   29POPC   C4B  781  10.136   7.783   6.687  0.0397  0.0463  0.4468
   30POPC   NC3  782   6.475   6.822   8.582  0.1312 -0.0618 -0.2011
   30POPC   PO4  783   6.798   7.242   8.542  0.0818 -0.0560 -0.0578
   30POPC   GL1  784   6.643   7.473   8.223  0.3613 -0.0055  0.0447
   30POPC   GL2  785   6.634   7.152   7.968  0.3647 -0.1434 -0.2554
   30POPC   C1A  786   6.201   7.634   8.061 -0.1422  0.1688 -0.1959
   30POPC   D2A  787   6.267   7.540   7.709 -0.1978 -0.1009 -0.1344
   30POPC   C3A  788   6.627   7.643   7.435  0.1711  0.0125  0.0147
   30POPC   C4A  789   6.984   7.702   7.173 -0.1277 -0.0440 -0.1824
   30POPC   C1B  790   6.486   7.045   7.576  0.0585 -0.1299  0.0846
   30POPC   C2B  791   6.308   7.074   7.259 -0.1273  0.0810 -0.0845
   30POPC   C3B  792   6.106   7.439   7.125 -0.1572  0.1828 -0.0352
   30POPC   C4B  793   6.168   7.816   7.251 -0.4191 -0.0130  0.0273
   31POPC   NC3  794   2.350   6.120   9.349 -0.1919  0.3644 -0.1417
   31POPC   PO4  795   2.337   6.010   8.896  0.0395 -0.0174 -0.0915
   31POPC   GL1  796   2.215   5.664   8.577 -0.1494 -0.0280 -0.0509
   31POPC   GL2  797   2.228   5.912   8.380  0.0327  0.1367 -0.2017
   31POPC   C1A  798   2.293   5.310   8.357  0.0066  0.3882  0.4168
   31POPC   D2A  799   2.329   4.911   8.064 -0.0277 -0.1632 -0.1574
   31POPC   C3A  800   2.150   4.524   8.138 -0.1502  0.0024 -0.2097
   31POPC   C4A  801   1.982   4.389   7.940 -0.0243 -0.0564 -0.1122
   31POPC   C1B  802   2.396   6.169   8.010  0.0841 -0.1156  0.0150
   31POPC   C2B  803   2.682   6.267   7.708  0.0378  0.1725 -0.0499
   31POPC   C3B  804   2.934   6.479   7.425  0.1216  0.0583  0.1117
   31POPC   C4B  805   3.080   6.702   6.967 -0.2933  0.4187  0.0710
   32POPC   NC3  806   7.048   5.726   8.351 -0.1133 -0.3517  0.2353
   32POPC   PO4  807   6.899   5.309   8.395 -0.1881  0.5403 -0.0030
   32POPC   GL1  808   6.942   5.517   7.941  0.1658  0.2564  0.2241
   32POPC   GL2  809   6.894   5.831   7.882  0.1915  0.0846 -0.2962
   32POPC   C1A  810   6.590   5.536   7.636 -0.1125  0.2848  0.2659
   32POPC   D2A  811   6.166   5.835   7.629 -0.4878 -0.1079 -0.3984
   32POPC   C3A  812   6.096   6.164   7.388 -0.0281 -0.1428 -0.0981
   32POPC   C4A  813   5.689   6.378   7.177  0.0143  0.0654 -0.1857
   32POPC   C1B  814   6.629   6.033   7.500 -0.1279  0.2427 -0.0339
   32POPC   C2B  815   6.430   5.914   7.064  0.0878  0.1304  0.1599
   32POPC   C3B  816   6.430   6.027   6.643 -0.0852  0.1704 -0.3971
   32POPC   C4B  817   6.232   6.047   6.221  0.0557 -0.2032  0.2573
   33POPC   NC3  818   8.010   1.606   8.921  0.2055  0.0643 -0.0546
   33POPC   PO4  819   7.772   1.442   8.524 -0.1890 -0.0788 -0.0343
   33POPC   GL1  820   7.681   1.459   8.125  0.2452 -0.1438  0.0710
   33POPC   GL2  821   7.860   1.546   7.790  0.1142 -0.2249  0.0188
   33POPC   C1A  822   7.371   1.362   7.701 -0.3464 -0.1593 -0.0796
   33POPC   D2A  823   7.137   1.561   7.338 -0.2340  0.1703  0.2220
   33POPC   C3A  824   7.122   2.137   7.424  0.1486  0.1564 -0.0685
   33POPC   C4A  825   7.097   2.469   7.167  0.1905 -0.0725  0.0565
   33POPC   C1B  826   7.665   1.652   7.409  0.2762  0.0898 -0.1807
   33POPC   C2B  827   7.426   1.805   7.051 -0.2415  0.0336  0.1870
   33POPC   C3B  828   7.067   2.005   6.896  0.0173  0.0107  0.1330
   33POPC   C4B  829   6.670   1.938   6.851 -0.1163 -0.0771 -0.0086
   34POPC   NC3  830   0.118   9.562   8.702 -0.1937  0.0817  0.0468
   34POPC   PO4  831   0.443   9.299   8.676 -0.1227  0.2936 -0.2373
   34POPC   GL1  832   0.339   9.471   8.231  0.0231  0.1391 -0.1157
   34POPC   GL2  833   0.117   9.232   8.063 -0.1622 -0.1503  0.2769
   34POPC   C1A  834   0.593   9.640   7.962  0.0712  0.3665 -0.0260
   34POPC   D2A  835   0.810   9.831   7.648  0.2186  0.1008 -0.2143
   34POPC   C3A  836   1.190   9.835   7.835 -0.1728 -0.0551  0.3986
   34POPC   C4A  837   1.520   9.859   7.701  0.2093 -0.3050 -0.0890
   34POPC   C1B  838   0.108   9.706   7.826 -0.2388  0.0385 -0.3130
   34POPC   C2B  839  -0.105   9.833   7.526  0.0785 -0.1025  0.2171
   34POPC   C3B  840  -0.443  10.145   7.392  0.1664 -0.1851  0.1383
   34POPC   C4B  841  -0.600  10.427   7.191  0.2540 -0.0054  0.0762
   35POPC   NC3  842   4.214   9.020   9.253  0.0130 -0.1940 -0.2293
   35POPC   PO4  843   3.965   9.223   8.854  0.1158  0.2877 -0.0753
   35POPC   GL1  844   4.033   9.153   8.379  0.2308  0.2614  0.2418
   35POPC   GL2  845   4.347   9.274   8.277 -0.1926  0.1085  0.1052
   35POPC   C1A  846   3.933   9.039   7.974  0.0575 -0.3896 -0.1147
   35POPC   D2A  847   3.468   9.145   7.742  0.0280 -0.0423 -0.0925
   35POPC   C3A  848   3.430   9.118   7.352 -0.2202  0.2350 -0.1484
   35POPC   C4A  849   3.109   8.843   7.146 -0.0205  0.0683  0.1375
   35POPC   C1B  850   4.394   9.286   7.853  0.0913 -0.1978 -0.2315
   35POPC   C2B  851   4.404   9.044   7.393 -0.1670 -0.1381  0.1089
   35POPC   C3B  852   4.504   9.190   7.048 -0.1245 -0.0175 -0.2127
   35POPC   C4B  853   4.806   9.576   6.979  0.1048  0.1436 -0.1496
   36POPC   NC3  854   4.979   7.548   9.174 -0.1128 -0.2058  0.0157
   36POPC   PO4  855   5.077   7.407   8.815 -0.1469 -0.3694 -0.0894
   36POPC   GL1  856   4.873   7.527   8.318  0.0579 -0.2429 -0.0050
   36POPC   GL2  857   5.076   7.706   8.086  0.1330 -0.0521  0.1748
   36POPC   C1A  858   4.703   7.349   8.016  0.0153  0.4552  0.0020
   36POPC   D2A  859   4.544   7.292   7.577 -0.1746 -0.3111 -0.1501
   36POPC   C3A  860   4.622   7.051   7.202 -0.1166  0.3051 -0.3048
   36POPC   C4A  861   4.457   7.138   6.737 -0.1307 -0.1141 -0.0159
   36POPC   C1B  862   5.197   7.536   7.729  0.3356 -0.2894  0.0557
   36POPC   C2B  863   5.406   7.184   7.671  0.0630 -0.1072  0.0196
   36POPC   C3B  864   5.433   6.725   7.420 -0.0226 -0.1494  0.1161
   36POPC   C4B  865   5.139   6.657   7.211 -0.0599 -0.0668 -0.2805
   37POPC   NC3  866   1.730   6.837   8.835  0.1202  0.3484 -0.0228
   37POPC   PO4  867   1.354   7.094   8.637 -0.1785  0.0674 -0.0891
   37POPC   GL1  868   1.651   7.129   8.248  0.2177 -0.0894 -0.4729
   37POPC   GL2  869   1.995   7.102   8.284 -0.1451  0.3450  0.0123
   37POPC   C1A  870   1.681   6.931   7.876  0.0490  0.1284  0.0838
   37POPC   D2A  871   1.663   6.632   7.473 -0.0100 -0.2033 -0.3816
   37POPC   C3A  872   2.009   6.638   7.160 -0.0114  0.0815 -0.2489
   37POPC   C4A  873   2.133   6.314   6.871 -0.3780  0.2172  0.0065
   37POPC   C1B  874   2.226   7.296   7.950  0.2445 -0.0742  0.0180
   37POPC   C2B  875   2.264   7.472   7.562 -0.1229  0.0209 -0.3423
   37POPC   C3B  876   2.158   7.766   7.269 -0.1353  0.1897 -0.0089
   37POPC   C4B  877   1.946   8.171   7.353 -0.1681  0.0445 -0.1674
   38POPC   NC3  878   5.611   8.883   8.765  0.1102  0.2434 -0.3553
   38POPC   PO4  879   5.862   8.584   8.666  0.2184 -0.2057 -0.4447
   38POPC   GL1  880   5.859   8.678   8.303 -0.0464 -0.0139 -0.3525
   38POPC   GL2  881   5.411   8.813   8.213 -0.0676  0.3321  0.0039
   38POPC   C1A  882   6.016   8.577   7.880  0.0054 -0.2510  0.1498
   38POPC   D2A  883   5.840   8.745   7.517 -0.0131 -0.0625  0.1362
   38POPC   C3A  884   5.655   8.388   7.162 -0.2902 -0.0397 -0.0767
   38POPC   C4A  885   5.365   8.323   6.847  0.4290  0.0506 -0.0082
   38POPC   C1B  886   5.404   8.995   7.926 -0.3410 -0.1694 -0.0390
   38POPC   C2B  887   5.426   9.022   7.422 -0.2513  0.0014  0.0690
   38POPC   C3B  888   5.318   8.809   7.067 -0.2976  0.1054 -0.2467
   38POPC   C4B  889   5.705   8.795   6.919 -0.1673 -0.1350 -0.1490
   39POPC   NC3  890   0.177   5.993   8.665 -0.4912 -0.0351 -0.0267
   39POPC   PO4  891   0.227   5.959   8.194 -0.3059 -0.2930 -0.2289
   39POPC   GL1  892   0.284   5.680   7.875  0.0934 -0.1281  0.1080
   39POPC   GL2  893   0.564   5.487   7.961  0.0055 -0.2801  0.1763
   39POPC   C1A  894   0.078   5.648   7.405 -0.2428 -0.1674  0.4679
   39POPC   D2A  895  -0.204   5.963   7.207 -0.4833  0.0827  0.2593
   39POPC   C3A  896  -0.424   5.752   6.828  0.1316 -0.0019  0.0121
   39POPC   C4A  897  -0.415   5.686   6.411  0.2210  0.0054  0.1708
   39POPC   C1B  898   0.744   5.375   7.588 -0.0287  0.2987  0.1212
   39POPC   C2B  899   0.745   5.157   7.156 -0.1550 -0.3614  0.1140
   39POPC   C3B  900   0.841   5.099   6.750 -0.0061  0.1045 -0.0046
   39POPC   C4B  901   0.954   5.147   6.341  0.0120 -0.2002 -0.2964
   40POPC   NC3  902   1.006   6.713   8.257  0.0067 -0.1468 -0.2436
   40POPC   PO4  903   0.593   6.775   8.168 -0.2646 -0.4618  0.1014
   40POPC   GL1  904   0.507   6.475   7.849  0.0981  0.2483  0.2224
   40POPC   GL2  905   0.503   6.191   7.824  0.0698 -0.1624  0.0276
   40POPC   C1A  906   0.753   6.398   7.453 -0.0377 -0.0492 -0.0137
   40POPC   D2A  907   1.055   6.145   7.481  0.1024 -0.0596 -0.1624
   40POPC   C3A  908   1.375   6.234   7.177 -0.0961 -0.0407  0.3304
   40POPC   C4A  909   1.604   6.570   6.906 -0.1012  0.2329 -0.1115
   40POPC   C1B  910   0.616   5.835   7.440  0.0707 -0.1323  0.0824
   40POPC   C2B  911   0.655   5.663   7.032  0.0315 -0.3450 -0.2209
   40POPC   C3B  912   0.769   5.577   6.596 -0.4426  0.0913  0.2736
   40POPC   C4B  913   0.666   5.527   6.198  0.1966 -0.0538  0.1189
   41POPC   NC3  914   2.966   0.286   8.933  0.2963 -0.0316  0.0440
   41POPC   PO4  915   2.593   0.302   8.653 -0.1271 -0.1501 -0.0831
   41POPC   GL1  916   2.623   0.446   8.258  0.0396  0.0407  0.0470
   41POPC   GL2  917   2.743   0.170   8.175  0.1593  0.1377  0.0728
   41POPC   C1A  918   2.422   0.315   7.760 -0.3387 -0.0568  0.0574
   41POPC   D2A  919   2.391   0.329   7.380  0.3595  0.0586  0.0946
   41POPC   C3A  920   2.577   0.690   7.180 -0.0507 -0.0193 -0.3340
   41POPC   C4A  921   2.635   0.921   6.890 -0.0858  0.0430 -0.2155
   41POPC   C1B  922   3.034   0.020   7.788  0.1471  0.1033  0.1377
   41POPC   C2B  923   3.404   0.260   7.539 -0.0146 -0.2366  0.1588
   41POPC   C3B  924   3.634   0.424   7.099 -0.0895  0.1752 -0.4188
   41POPC   C4B  925   3.784   0.770   6.974  0.1570  0.1176 -0.2569
   42POPC   NC3  926   0.496   7.326   8.131 -0.1941  0.2479  0.0509
   42POPC   PO4  927   0.194   7.036   8.332 -0.1693 -0.1088  0.3528
   42POPC   GL1  928   0.156   7.073   7.837 -0.1890  0.1718 -0.1627
   42POPC   GL2  929   0.038   6.734   7.577 -0.0542  0.2246 -0.3155
   42POPC   C1A  930   0.090   7.217   7.421 -0.0357  0.0017  0.1187
   42POPC   D2A  931  -0.171   7.026   7.206  0.0177 -0.1723 -0.3008
   42POPC   C3A  932   0.002   7.012   6.779 -0.1463 -0.1926 -0.0425
   42POPC   C4A  933   0.037   7.226   6.418 -0.2019  0.0791  0.2635
   42POPC   C1B  934   0.425   6.851   7.478  0.1309  0.0737  0.0198
   42POPC   C2B  935   0.730   6.821   7.187 -0.2312 -0.0039 -0.1255
   42POPC   C3B  936   0.923   6.424   6.989 -0.0356  0.1221 -0.0438
   42POPC   C4B  937   1.152   6.256   6.694 -0.3734  0.0540  0.1118
   43POPC   NC3  938   4.148   0.784   9.100 -0.3205 -0.0454  0.0029
   43POPC   PO4  939   3.784   0.533   8.933 -0.0436 -0.3439 -0.0481
   43POPC   GL1  940   3.750   0.472   8.512  0.1305 -0.1062  0.0135
   43POPC   GL2  941   3.682   0.756   8.302  0.1984 -0.0962 -0.1882
   43POPC   C1A  942   3.713   0.228   8.159  0.0234  0.1536 -0.0940
   43POPC   D2A  943   3.834   0.055   7.814  0.2329  0.2446 -0.0612
   43POPC   C3A  944   4.122  -0.038   7.784 -0.0087  0.0720 -0.0820
   43POPC   C4A  945   4.380  -0.194   7.546 -0.1876 -0.1287 -0.0550
   43POPC   C1B  946   3.437   0.567   7.897 -0.3400  0.0798 -0.1703
   43POPC   C2B  947   3.371   0.738   7.498 -0.2645 -0.0853  0.0022
   43POPC   C3B  948   3.165   0.589   7.141  0.1696  0.1699  0.0065
   43POPC   C4B  949   2.946   0.509   6.756  0.2248  0.1345 -0.0976
   44POPC   NC3  950   6.170   5.112   8.787 -0.2317  0.3352  0.1527
   44POPC   PO4  951   6.005   4.953   9.169 -0.0081  0.0496 -0.2683
   44POPC   GL1  952   5.729   4.790   8.885  0.0812 -0.1637 -0.0288
   44POPC   GL2  953   5.949   4.694   8.588  0.3765  0.1936 -0.0996
   44POPC   C1A  954   5.500   4.801   8.498  0.1100  0.0365  0.3363
   44POPC   D2A  955   5.155   5.017   8.345 -0.2741  0.2193 -0.2173
   44POPC   C3A  956   4.974   5.303   8.020 -0.0366  0.1996  0.3846
   44POPC   C4A  957   4.550   5.367   7.784  0.1849 -0.2589 -0.3065
   44POPC   C1B  958   6.116   4.515   8.161  0.1481  0.1546  0.0518
   44POPC   C2B  959   6.520   4.645   7.935  0.1370 -0.1086 -0.1702
   44POPC   C3B  960   6.556   4.733   7.458 -0.1156 -0.0064  0.1041
   44POPC   C4B  961   6.295   4.476   7.174 -0.0767 -0.1976 -0.0837
   45POPC   NC3  962   6.747   7.518   8.920 -0.2528  0.0009  0.1719
   45POPC   PO4  963   6.933   7.904   8.872 -0.0399 -0.0309 -0.3407
   45POPC   GL1  964   7.016   8.036   8.458 -0.0395 -0.5872  0.1047
   45POPC   GL2  965   6.753   8.205   8.459 -0.1236  0.1458  0.3511
   45POPC   C1A  966   7.068   8.241   8.029  0.0024  0.0750 -0.0459
   45POPC   D2A  967   7.347   8.176   7.673  0.4784 -0.2560  0.1269
   45POPC   C3A  968   7.630   8.455   7.313 -0.1141 -0.4174  0.0546
   45POPC   C4A  969   7.964   8.690   6.972 -0.0718 -0.0259  0.1732
   45POPC   C1B  970   6.603   7.972   8.079  0.3445 -0.1457  0.0048
   45POPC   C2B  971   6.366   8.033   7.696 -0.1881  0.2014 -0.1128
   45POPC   C3B  972   6.144   8.310   7.372  0.1138 -0.1338  0.1930
   45POPC   C4B  973   6.254   8.706   7.189  0.1198 -0.3388  0.0162
   46POPC   NC3  974   8.014   5.761   8.223  0.2125 -0.0490  0.3273
   46POPC   PO4  975   8.232   6.175   8.051  0.1939  0.2717  0.1592
   46POPC   GL1  976   8.389   6.220   7.595  0.2266 -0.0795 -0.0228
   46POPC   GL2  977   8.689   6.353   7.573 -0.0967 -0.0133 -0.2182
   46POPC   C1A  978   8.097   6.435   7.339  0.2982 -0.2732  0.0048
   46POPC   D2A  979   7.911   6.867   7.246 -0.2264 -0.0364 -0.1740
   46POPC   C3A  980   7.553   6.896   6.967 -0.1071  0.0288  0.1818
   46POPC   C4A  981   7.263   6.725   6.860  0.2241  0.1338 -0.2233
   46POPC   C1B  982   8.772   6.784   7.399 -0.1164  0.3800  0.0787
   46POPC   C2B  983   8.868   6.995   7.071  0.5574 -0.1366 -0.0119
   46POPC   C3B  984   8.926   6.962   6.587 -0.1014 -0.0668 -0.0180
   46POPC   C4B  985   9.191   7.029   6.246  0.2179  0.2028  0.2351
   47POPC   NC3  986   5.294   3.576   9.634  0.3808  0.1608  0.3906
   47POPC   PO4  987   5.391   3.205   9.399 -0.1152 -0.1487  0.0686
   47POPC   GL1  988   5.031   3.124   9.145  0.0492 -0.2772 -0.3320
   47POPC   GL2  989   4.891   2.839   9.126 -0.2265 -0.0219 -0.1474
   47POPC   C1A  990   4.692   3.258   8.975  0.1324 -0.1885  0.2692
   47POPC   D2A  991   4.199   3.136   9.016  0.0694 -0.0386 -0.1206
   47POPC   C3A  992   4.129   2.706   8.969 -0.0998  0.0685 -0.3102
   47POPC   C4A  993   4.253   2.368   8.696 -0.2137  0.1926  0.3685
   47POPC   C1B  994   4.532   2.965   9.343 -0.0863  0.0639 -0.1478
   47POPC   C2B  995   4.374   3.352   9.464 -0.0140 -0.2660 -0.2793
   47POPC   C3B  996   4.146   3.713   9.262 -0.0035 -0.2001 -0.1150
   47POPC   C4B  997   3.943   4.089   9.285 -0.1080  0.0576 -0.2660
   48POPC   NC3  998   7.519   1.012   8.426  0.2956 -0.1635 -0.2495
   48POPC   PO4  999   7.185   0.692   8.299  0.0830 -0.2515 -0.0319
   48POPC   GL1 1000   7.047   0.604   7.915  0.3500  0.0205 -0.0588
   48POPC   GL2 1001   6.698   0.622   7.938  0.4726 -0.1125  0.0889
   48POPC   C1A 1002   6.760   0.514   7.490  0.1747 -0.0956  0.1006
   48POPC   D2A 1003   6.843   0.231   7.166 -0.1644 -0.0080 -0.0165
   48POPC   C3A 1004   6.482  -0.030   7.093 -0.1229  0.0929  0.0250
   48POPC   C4A 1005   6.434  -0.317   6.885 -0.1844 -0.2229  0.3954
   48POPC   C1B 1006   6.288   0.463   7.686 -0.1546 -0.0089  0.0625
   48POPC   C2B 1007   6.138   0.333   7.273 -0.2639  0.0469  0.2070
   48POPC   C3B 1008   6.131   0.487   6.815  0.1047 -0.1325  0.2175
   48POPC   C4B 1009   6.370   0.642   6.479 -0.1058 -0.1191  0.3142
   49POPC   NC3 1010   8.064   7.433   8.617  0.2015  0.0868 -0.1497
   49POPC   PO4 1011   8.003   7.152   8.189  0.2766 -0.1210 -0.1781
   49POPC   GL1 1012   7.851   7.381   7.801  0.4580  0.1743  0.0068
   49POPC   GL2 1013   7.555   7.384   7.925  0.0440  0.1766 -0.1048
   49POPC   C1A 1014   7.946   7.530   7.456 -0.2179  0.1462 -0.3578
   49POPC   D2A 1015   8.116   7.652   7.010  0.2613  0.1382 -0.0102
   49POPC   C3A 1016   7.998   7.979   6.832 -0.1153 -0.3054 -0.0348
   49POPC   C4A 1017   7.956   8.433   6.509 -0.2152 -0.1009 -0.1399
   49POPC   C1B 1018   7.430   7.637   7.561  0.0789 -0.0681 -0.0898
   49POPC   C2B 1019   7.636   7.938   7.246 -0.0285  0.1886 -0.0048
   49POPC   C3B 1020   8.001   8.157   7.390  0.1385 -0.0578  0.1458
   49POPC   C4B 1021   8.456   7.922   7.311 -0.1928  0.0153 -0.1539
   50POPC   NC3 1022   6.106   5.988   8.366 -0.1666  0.3490 -0.1082
   50POPC   PO4 1023   6.412   6.328   8.361  0.0365 -0.0721 -0.1244
   50POPC   GL1 1024   6.432   6.235   7.971  0.1622  0.0739  0.1414
   50POPC   GL2 1025   6.123   6.338   7.898 -0.1501  0.0522 -0.0565
   50POPC   C1A 1026   6.499   6.481   7.546  0.2993 -0.0074 -0.3666
   50POPC   D2A 1027   6.519   6.413   7.073  0.1319  0.1328  0.3142
   50POPC   C3A 1028   6.803   6.427   6.726 -0.1763 -0.2560 -0.4868
   50POPC   C4A 1029   7.254   6.314   6.536  0.3240 -0.0609 -0.1246
   50POPC   C1B 1030   5.973   6.580   7.541 -0.0221 -0.2230 -0.0131
   50POPC   C2B 1031   6.059   6.687   7.067 -0.1740 -0.3716  0.0409
   50POPC   C3B 1032   6.039   6.293   6.837  0.1095  0.3964  0.1520
   50POPC   C4B 1033   5.984   5.769   6.652  0.2044 -0.3062  0.0257
   51POPC   NC3 1034   3.850   1.636   9.333 -0.0835 -0.1797  0.0755
   51POPC   PO4 1035   4.173   2.031   9.220 -0.1777 -0.1130  0.4010
   51POPC   GL1 1036   3.811   2.070   8.919 -0.1891 -0.0223 -0.1145
   51POPC   GL2 1037   3.799   1.712   8.824  0.0502 -0.2455  0.3676
   51POPC   C1A 1038   3.658   2.423   8.777 -0.2075 -0.0367 -0.1340
   51POPC   D2A 1039   3.820   2.807   8.521 -0.1169 -0.0931  0.1709
   51POPC   C3A 1040   3.718   3.084   8.240 -0.2666 -0.2803 -0.2545
   51POPC   C4A 1041   3.276   3.246   8.327 -0.2152  0.1731 -0.0068
   51POPC   C1B 1042   3.748   1.923   8.413  0.4310 -0.1755 -0.0795
   51POPC   C2B 1043   3.562   1.986   8.001 -0.1318 -0.1143  0.2833
   51POPC   C3B 1044   3.653   2.338   7.635 -0.0528 -0.2256 -0.3198
   51POPC   C4B 1045   3.783   2.607   7.348  0.2401 -0.0362  0.1443
   52POPC   NC3 1046   6.894   0.279   8.298 -0.2257 -0.0043 -0.4081
   52POPC   PO4 1047   6.687  -0.160   8.348 -0.1554  0.0246  0.1343
   52POPC   GL1 1048   6.667   0.073   7.954  0.2697 -0.4032  0.0748
   52POPC   GL2 1049   6.970   0.048   7.806 -0.1965  0.1725 -0.0344
   52POPC   C1A 1050   6.395  -0.009   7.589  0.1156 -0.0599  0.0606
   52POPC   D2A 1051   5.986  -0.073   7.592  0.0236  0.0815 -0.0478
   52POPC   C3A 1052   5.941  -0.079   7.192 -0.1606 -0.0843 -0.2520
   52POPC   C4A 1053   5.656  -0.514   6.961  0.1035  0.1933  0.1434
   52POPC   C1B 1054   7.230   0.053   7.442  0.0533  0.0843 -0.3426
   52POPC   C2B 1055   7.408   0.212   7.085  0.1058  0.1791 -0.1412
   52POPC   C3B 1056   7.311   0.412   6.693 -0.2146 -0.2933 -0.0834
   52POPC   C4B 1057   7.314   0.759   6.393  0.1407  0.1835  0.3705
   53POPC   NC3 1058   5.525   1.930   9.144 -0.0335  0.1802  0.2112
   53POPC   PO4 1059   5.085   1.992   9.060 -0.0816  0.1547 -0.0819
   53POPC   GL1 1060   4.957   1.899   8.679 -0.2126 -0.1140  0.0864
   53POPC   GL2 1061   4.857   1.606   8.540 -0.3852 -0.0077  0.0672
   53POPC   C1A 1062   4.664   2.030   8.430  0.1061 -0.1707  0.0976
   53POPC   D2A 1063   4.494   2.247   8.137 -0.0107  0.1065 -0.0054
   53POPC   C3A 1064   4.096   2.025   7.886 -0.1051 -0.0106  0.1707
   53POPC   C4A 1065   3.827   1.883   7.536  0.3988  0.0610 -0.1028
   53POPC   C1B 1066   5.026   1.656   8.133  0.2344  0.0226 -0.1112
   53POPC   C2B 1067   5.202   1.414   7.685  0.1651  0.0706  0.0469
   53POPC   C3B 1068   5.441   1.460   7.210 -0.0111 -0.0570  0.0688
   53POPC   C4B 1069   5.576   1.637   6.843  0.1333 -0.1413  0.2448
   54POPC   NC3 1070   7.466   3.844   8.475 -0.0073  0.0803 -0.1891
   54POPC   PO4 1071   7.597   3.539   8.183  0.0882 -0.0157 -0.0696
   54POPC   GL1 1072   7.729   3.570   7.899  0.1546 -0.2262  0.0733
   54POPC   GL2 1073   7.481   3.388   7.688 -0.4051 -0.1057 -0.5763
   54POPC   C1A 1074   7.957   3.513   7.519  0.0063  0.1527 -0.0305
   54POPC   D2A 1075   7.816   3.713   7.164 -0.0210 -0.3577  0.0563
   54POPC   C3A 1076   7.415   3.701   6.923  0.3058  0.1465 -0.1556
   54POPC   C4A 1077   7.315   3.894   6.539 -0.0849  0.0797 -0.0813
   54POPC   C1B 1078   7.333   2.993   7.690 -0.3762 -0.0628 -0.0978
   54POPC   C2B 1079   7.172   2.845   7.397 -0.1325 -0.0780 -0.1779
   54POPC   C3B 1080   7.189   2.978   6.995  0.2775  0.3395  0.0243
   54POPC   C4B 1081   6.937   2.982   6.631 -0.2174  0.2619  0.0196
   55POPC   NC3 1082   7.345   5.328   8.142 -0.0029 -0.1177  0.1972
   55POPC   PO4 1083   7.466   4.969   8.377 -0.0977  0.1267 -0.1744
   55POPC   GL1 1084   7.314   4.793   8.007 -0.0647  0.0011  0.0672
   55POPC   GL2 1085   7.053   4.991   7.917 -0.1221  0.1641  0.0462
   55POPC   C1A 1086   7.485   4.927   7.641  0.0839  0.1295 -0.1116
   55POPC   D2A 1087   7.529   5.085   7.207  0.0190 -0.2125 -0.3265
   55POPC   C3A 1088   7.264   4.873   6.903 -0.3157 -0.1214 -0.0784
   55POPC   C4A 1089   7.088   4.981   6.490  0.6065 -0.0031 -0.0724
   55POPC   C1B 1090   6.879   5.096   7.565  0.3158 -0.1844  0.0700
   55POPC   C2B 1091   6.777   4.989   7.099 -0.1558  0.0297  0.0967
   55POPC   C3B 1092   6.648   4.979   6.736  0.0030 -0.1303 -0.0481
   55POPC   C4B 1093   6.470   5.018   6.244 -0.1983  0.4383 -0.4417
   56POPC   NC3 1094   9.945   5.268   7.934  0.0739  0.0743  0.4415
   56POPC   PO4 1095   9.772   5.126   8.428  0.2017  0.2569 -0.1989
   56POPC   GL1 1096   9.828   4.791   8.036 -0.0914 -0.3758 -0.0740
   56POPC   GL2 1097   9.511   4.639   7.972  0.1016 -0.2671 -0.2555
   56POPC   C1A 1098   9.953   4.500   7.696  0.1317 -0.1181  0.0864
   56POPC   D2A 1099   9.758   4.415   7.296  0.2513 -0.1026 -0.1967
   56POPC   C3A 1100   9.251   4.494   7.098 -0.0783 -0.0947  0.2000
   56POPC   C4A 1101   9.151   4.626   6.720  0.1671  0.2830 -0.3861
   56POPC   C1B 1102   9.675   4.190   7.992 -0.2854 -0.1963  0.0611
   56POPC   C2B 1103   9.856   3.817   7.857 -0.1735 -0.1354 -0.1714
   56POPC   C3B 1104  10.027   3.620   7.453 -0.4236  0.0230  0.2290
   56POPC   C4B 1105   9.854   3.335   7.035 -0.2156 -0.1632 -0.2076
   57POPC   NC3 1106   2.396   5.030   9.854  0.1115  0.0688 -0.2052
   57POPC   PO4 1107   2.154   4.814   9.548 -0.2572  0.0401  0.0602
   57POPC   GL1 1108   2.355   4.467   9.292  0.0060 -0.0013  0.0054
   57POPC   GL2 1109   2.467   4.463   8.962 -0.0666 -0.0232  0.0244
   57POPC   C1A 1110   2.625   4.105   9.348 -0.0188 -0.1596 -0.0820
   57POPC   D2A 1111   2.936   3.855   9.183  0.0367  0.0263 -0.0131
   57POPC   C3A 1112   2.849   3.295   9.327 -0.3655 -0.0081 -0.0435
   57POPC   C4A 1113   3.220   2.996   9.488  0.1172 -0.1686 -0.0983
   57POPC   C1B 1114   2.444   4.791   8.605 -0.1463 -0.0022 -0.1756
   57POPC   C2B 1115   2.771   4.861   8.381 -0.1277  0.0200  0.1216
   57POPC   C3B 1116   2.638   4.483   7.984  0.4139 -0.1142  0.2031
   57POPC   C4B 1117   2.676   4.099   7.787  0.0104 -0.1370  0.0559
   58POPC   NC3 1118   1.811   9.140   8.524  0.3531 -0.2781  0.1063
   58POPC   PO4 1119   2.194   9.250   8.258 -0.4051 -0.2307 -0.5112
   58POPC   GL1 1120   2.307   9.580   7.924  0.1516  0.0267  0.2054
   58POPC   GL2 1121   2.521   9.772   7.870 -0.2971 -0.4153  0.0774
   58POPC   C1A 1122   2.120   9.824   7.522  0.0272 -0.0143  0.3771
   58POPC   D2A 1123   2.059  10.043   7.128  0.3513 -0.0016  0.2719
   58POPC   C3A 1124   2.224   9.952   6.746 -0.4007  0.2840  0.0536
   58POPC   C4A 1125   2.087  10.188   6.342  0.1105  0.0469 -0.0305
   58POPC   C1B 1126   2.628   9.735   7.473 -0.0504  0.0081 -0.0595
   58POPC   C2B 1127   2.512   9.808   7.147 -0.0504 -0.3276 -0.0725
   58POPC   C3B 1128   2.635  10.157   6.936 -0.1309 -0.0670 -0.0686
   58POPC   C4B 1129   2.425  10.485   6.620  0.3282  0.2140  0.0048
   59POPC   NC3 1130   5.711   5.509   9.420  0.3020 -0.0109 -0.2810
   59POPC   PO4 1131   5.825   5.418   9.000 -0.1045  0.1101 -0.0595
   59POPC   GL1 1132   5.892   5.483   8.560  0.3280 -0.1849  0.1471
   59POPC   GL2 1133   5.755   5.207   8.496 -0.3042  0.1057  0.1739
   59POPC   C1A 1134   5.985   5.408   8.068 -0.0469  0.1001  0.1698
   59POPC   D2A 1135   5.790   5.543   7.614  0.1888 -0.3101  0.0902
   59POPC   C3A 1136   5.620   5.362   7.312  0.3549 -0.0080 -0.0115
   59POPC   C4A 1137   5.789   5.322   6.842 -0.1164  0.1987 -0.2217
   59POPC   C1B 1138   5.431   5.394   8.293  0.2303  0.2955 -0.3175
   59POPC   C2B 1139   5.327   5.644   7.885 -0.0419  0.4868 -0.1272
   59POPC   C3B 1140   5.306   5.744   7.483 -0.0684 -0.2495  0.2494
   59POPC   C4B 1141   5.251   5.543   6.984  0.1559 -0.1837  0.0715
   60POPC   NC3 1142   1.753   8.102   8.462  0.2501  0.1010  0.2793
   60POPC   PO4 1143   2.142   8.026   8.621  0.1722 -0.1266 -0.1604
   60POPC   GL1 1144   2.116   7.929   8.190 -0.2562  0.3305  0.0109
   60POPC   GL2 1145   1.930   7.626   8.089  0.1977  0.3633 -0.0963
   60POPC   C1A 1146   2.306   7.915   7.789 -0.1724 -0.2664 -0.1389
   60POPC   D2A 1147   2.451   8.142   7.439  0.1467  0.3526 -0.1009
   60POPC   C3A 1148   2.698   7.996   7.157  0.3520  0.6162 -0.0952
   60POPC   C4A 1149   2.810   8.157   6.767  0.1594 -0.3713  0.3321
   60POPC   C1B 1150   1.776   7.368   7.735  0.1270 -0.1085 -0.2569
   60POPC   C2B 1151   1.897   7.330   7.276 -0.1602 -0.1447 -0.1854
   60POPC   C3B 1152   1.878   7.093   6.952 -0.1460  0.2890  0.2079
   60POPC   C4B 1153   2.224   6.942   6.677  0.0686  0.0634 -0.0248
   61POPC   NC3 1154   4.169   9.792   9.246 -0.0301  0.0732 -0.1427
   61POPC   PO4 1155   4.427  10.157   9.049 -0.3684 -0.1969 -0.3942
   61POPC   GL1 1156   4.563  10.052   8.577  0.2574  0.3571  0.0922
   61POPC   GL2 1157   4.708  10.208   8.266  0.2002 -0.0221 -0.1293
   61POPC   C1A 1158   4.206  10.095   8.236 -0.1254 -0.0716  0.2618
   61POPC   D2A 1159   4.177  10.370   7.900  0.1381 -0.0893  0.3586
   61POPC   C3A 1160   4.227  10.269   7.466 -0.0496  0.2288  0.1387
   61POPC   C4A 1161   4.385  10.621   7.116  0.0618  0.2692 -0.1817
   61POPC   C1B 1162   4.511  10.503   8.254 -0.2165 -0.1173 -0.1815
   61POPC   C2B 1163   4.119  10.825   8.171  0.3213  0.0088  0.0595
   61POPC   C3B 1164   3.853  10.847   7.839 -0.2364 -0.2053  0.0464
   61POPC   C4B 1165   3.989  10.743   7.448  0.0511  0.3908  0.0494
   62POPC   NC3 1166   0.573   8.399   9.072 -0.3400 -0.1621  0.2082
   62POPC   PO4 1167   0.315   8.128   8.690 -0.1563 -0.1398  0.1750
   62POPC   GL1 1168   0.456   8.203   8.245  0.4001  0.0276  0.1455
   62POPC   GL2 1169   0.648   8.431   8.137 -0.0409  0.1651  0.1245
   62POPC   C1A 1170   0.285   8.342   7.722 -0.0465  0.1099  0.1902
   62POPC   D2A 1171   0.362   8.641   7.331 -0.2539 -0.0629  0.2139
   62POPC   C3A 1172   0.120   8.964   7.091 -0.1141  0.1010 -0.1911
   62POPC   C4A 1173  -0.278   9.083   7.063 -0.0902  0.2541 -0.3039
   62POPC   C1B 1174   0.773   8.514   7.747 -0.5168 -0.0829  0.0126
   62POPC   C2B 1175   0.870   8.758   7.274 -0.3208  0.1783  0.3182
   62POPC   C3B 1176   1.243   8.647   7.097 -0.0777 -0.2349  0.3576
   62POPC   C4B 1177   1.288   8.403   6.788 -0.0104 -0.2739  0.0030
   63POPC   NC3 1178   7.175   4.525   8.423  0.0314 -0.0369  0.0350
   63POPC   PO4 1179   7.069   4.130   8.647 -0.1755 -0.1103 -0.2449
   63POPC   GL1 1180   7.038   4.086   8.168  0.0735 -0.1207 -0.3167
   63POPC   GL2 1181   6.962   4.400   7.972  0.0288 -0.2170  0.1017
   63POPC   C1A 1182   7.279   3.918   7.859 -0.1285 -0.1672  0.1859
   63POPC   D2A 1183   7.370   3.771   7.426 -0.0636  0.2511 -0.0544
   63POPC   C3A 1184   7.485   4.119   7.170 -0.0216 -0.1219 -0.1702
   63POPC   C4A 1185   7.524   4.571   7.167  0.1509 -0.1849  0.0381
   63POPC   C1B 1186   6.833   4.140   7.655 -0.0318 -0.1892 -0.3687
   63POPC   C2B 1187   6.919   3.991   7.256 -0.0145 -0.1620  0.2100
   63POPC   C3B 1188   6.896   3.759   6.925  0.2621 -0.0685 -0.1312
   63POPC   C4B 1189   7.013   3.479   6.753  0.1327 -0.0951  0.0822
   64POPC   NC3 1190   6.509   3.792   9.113  0.2329 -0.3531  0.0528
   64POPC   PO4 1191   6.626   3.534   8.824  0.1233 -0.0191  0.0039
   64POPC   GL1 1192   6.275   3.517   8.621 -0.0995 -0.2131  0.1581
   64POPC   GL2 1193   6.108   3.604   8.835  0.2665 -0.2092  0.1732
   64POPC   C1A 1194   6.113   3.573   8.210  0.3715  0.1267 -0.0797
   64POPC   D2A 1195   6.255   3.684   7.765 -0.0292  0.0910  0.0256
   64POPC   C3A 1196   6.487   3.310   7.586 -0.1039 -0.2560 -0.0326
   64POPC   C4A 1197   6.796   3.059   7.741 -0.0622 -0.0772  0.0164
   64POPC   C1B 1198   5.732   3.697   8.610 -0.2671 -0.2356  0.0672
   64POPC   C2B 1199   5.532   3.512   8.280 -0.2353 -0.5707 -0.1581
   64POPC   C3B 1200   5.136   3.617   8.025  0.2196  0.0572  0.2905
   64POPC   C4B 1201   4.720   3.803   8.069  0.3426  0.1493 -0.1775
   65POPC   NC3 1202   1.161   1.482   8.824 -0.1604 -0.0800  0.2153
   65POPC   PO4 1203   0.786   1.693   8.763 -0.1564 -0.0948  0.0376
   65POPC   GL1 1204   0.877   1.454   8.398 -0.0239  0.1056 -0.0270
   65POPC   GL2 1205   0.750   1.325   8.050  0.1067 -0.0025  0.1186
   65POPC   C1A 1206   1.335   1.259   8.207  0.0424 -0.0484 -0.0333
   65POPC   D2A 1207   1.676   1.136   7.942  0.0004  0.0587 -0.2252
   65POPC   C3A 1208   1.674   0.867   7.612  0.2734  0.0216  0.2707
   65POPC   C4A 1209   1.604   0.683   7.171  0.1330  0.0330 -0.1562
   65POPC   C1B 1210   1.047   1.462   7.775 -0.0541  0.5512  0.3896
   65POPC   C2B 1211   1.353   1.780   7.577 -0.0445 -0.1158  0.0989
   65POPC   C3B 1212   1.261   2.082   7.223 -0.2529  0.0214  0.0259
   65POPC   C4B 1213   1.473   2.354   7.044  0.3812  0.2397 -0.2252
   66POPC   NC3 1214   3.696   9.651   8.954  0.1673  0.3243 -0.1215
   66POPC   PO4 1215   3.367   9.694   8.613 -0.2964  0.2465 -0.0813
   66POPC   GL1 1216   3.462   9.661   8.108  0.0872  0.1966  0.2244
   66POPC   GL2 1217   3.806   9.515   8.015 -0.1265  0.0236 -0.2412
   66POPC   C1A 1218   3.448   9.725   7.673  0.0918  0.1607  0.0317
   66POPC   D2A 1219   3.516   9.786   7.205  0.1207  0.1487  0.0333
   66POPC   C3A 1220   3.950   9.949   7.218  0.0317 -0.1408 -0.0446
   66POPC   C4A 1221   4.350   9.858   6.971 -0.0102 -0.2365  0.0731
   66POPC   C1B 1222   3.914   9.455   7.600 -0.1646 -0.0303 -0.0264
   66POPC   C2B 1223   4.046   9.345   7.216  0.2349  0.0651 -0.1161
   66POPC   C3B 1224   3.945   9.394   6.841  0.1235  0.0083  0.2131
   66POPC   C4B 1225   3.732   9.530   6.381  0.1376 -0.0874 -0.4329
   67POPC   NC3 1226   3.297   8.162   8.805  0.2256 -0.0053  0.2694
   67POPC   PO4 1227   3.264   7.744   8.700 -0.0222 -0.1566  0.1024
   67POPC   GL1 1228   3.030   7.837   8.377 -0.0519  0.2050  0.0352
   67POPC   GL2 1229   3.298   8.049   8.212  0.0440 -0.0338 -0.1716
   67POPC   C1A 1230   2.855   7.507   8.050 -0.0431  0.1530 -0.1055
   67POPC   D2A 1231   2.639   7.147   7.776 -0.2019  0.1812  0.2416
   67POPC   C3A 1232   2.711   6.900   7.383 -0.1878 -0.1277 -0.2569
   67POPC   C4A 1233   2.481   6.655   7.142  0.1246  0.1562 -0.2252
   67POPC   C1B 1234   2.965   7.949   7.899 -0.0645  0.1764  0.3094
   67POPC   C2B 1235   2.734   7.763   7.570 -0.2145  0.0598 -0.4283
   67POPC   C3B 1236   2.755   7.406   7.343 -0.0154  0.0390  0.1697
   67POPC   C4B 1237   2.692   7.072   6.872 -0.2735 -0.0281 -0.1847
   68POPC   NC3 1238   9.446   0.934   8.865 -0.1328  0.1540 -0.2416
   68POPC   PO4 1239   9.461   1.176   8.506 -0.3037  0.1050 -0.1559
   68POPC   GL1 1240   9.603   1.506   8.289  0.3354 -0.0550 -0.2213
   68POPC   GL2 1241   9.921   1.461   8.190  0.3592  0.1839 -0.2807
   68POPC   C1A 1242   9.607   1.602   7.863  0.1755  0.3137 -0.0244
   68POPC   D2A 1243   9.743   1.435   7.428  0.0297  0.0026 -0.0320
   68POPC   C3A 1244  10.089   1.597   7.336 -0.2313  0.5053  0.0397
   68POPC   C4A 1245  10.495   1.644   7.115  0.2496  0.4278  0.0350
   68POPC   C1B 1246  10.102   1.548   7.843 -0.0713  0.0142 -0.3983
   68POPC   C2B 1247  10.548   1.662   7.704  0.1069  0.0657  0.1217
   68POPC   C3B 1248  10.800   1.936   7.467  0.2183  0.0246  0.3306
   68POPC   C4B 1249  10.766   2.112   7.075  0.0470  0.1015 -0.0239
   69POPC   NC3 1250   1.455   7.626   8.401  0.1126 -0.0905 -0.1811
   69POPC   PO4 1251   1.183   7.345   8.182  0.1153  0.1978  0.2102
   69POPC   GL1 1252   1.099   7.105   7.875 -0.3007  0.1958 -0.1926
   69POPC   GL2 1253   0.837   7.220   7.755  0.0200 -0.2244  0.0740
   69POPC   C1A 1254   1.308   7.186   7.554  0.5396 -0.2091 -0.3118
   69POPC   D2A 1255   1.447   7.147   7.167 -0.0200 -0.0198 -0.1812
   69POPC   C3A 1256   1.399   7.336   6.710 -0.1467  0.4812  0.1533
   69POPC   C4A 1257   1.674   7.574   6.299  0.0533  0.0822  0.0305
   69POPC   C1B 1258   0.872   7.330   7.330 -0.1860  0.0781  0.0306
   69POPC   C2B 1259   1.152   7.529   7.111  0.2486  0.1513 -0.1015
   69POPC   C3B 1260   1.447   7.675   7.180 -0.3114 -0.3333 -0.0957
   69POPC   C4B 1261   1.631   7.772   7.482  0.2752 -0.0165  0.0698
   70POPC   NC3 1262   2.649   4.893   9.362 -0.0851 -0.0325 -0.2700
   70POPC   PO4 1263   2.814   4.994   9.020  0.0587 -0.1806 -0.0029
   70POPC   GL1 1264   2.975   5.223   8.707 -0.0978 -0.2135  0.2682
   70POPC   GL2 1265   3.312   5.344   8.799 -0.2199 -0.0501 -0.0797
   70POPC   C1A 1266   3.288   5.283   8.351 -0.1064  0.1170  0.2197
   70POPC   D2A 1267   3.482   5.000   8.240 -0.1624 -0.1447 -0.0205
   70POPC   C3A 1268   3.227   4.701   8.208  0.2046 -0.2508 -0.1412
   70POPC   C4A 1269   3.154   4.345   7.891  0.1544 -0.3013  0.2619
   70POPC   C1B 1270   3.373   4.897   8.713  0.1044 -0.2279 -0.2426
   70POPC   C2B 1271   3.349   4.530   8.631 -0.1198  0.0568  0.1210
   70POPC   C3B 1272   3.352   4.182   8.428  0.0484 -0.1582 -0.0677
   70POPC   C4B 1273   3.450   3.732   8.229 -0.0659  0.1418 -0.0361
   71POPC   NC3 1274   9.328   3.724   8.724  0.2209  0.2074 -0.1211
   71POPC   PO4 1275   8.985   3.707   8.501 -0.1394 -0.1155  0.2941
   71POPC   GL1 1276   9.063   3.916   8.096 -0.0869  0.0907  0.1090
   71POPC   GL2 1277   9.115   4.254   8.079 -0.2039  0.3589  0.0658
   71POPC   C1A 1278   8.951   3.913   7.660  0.4478  0.3127 -0.1181
   71POPC   D2A 1279   8.730   4.109   7.379  0.0653  0.0148 -0.0217
   71POPC   C3A 1280   8.756   4.485   7.222 -0.2086  0.2185 -0.1669
   71POPC   C4A 1281   8.843   4.857   6.990 -0.1415  0.2198  0.2411
   71POPC   C1B 1282   9.322   4.244   7.619  0.1385 -0.2210 -0.0338
   71POPC   C2B 1283   9.253   4.029   7.219 -0.0796 -0.5371 -0.2988
   71POPC   C3B 1284   9.157   3.843   6.913  0.2179 -0.0934  0.1465
   71POPC   C4B 1285   9.017   3.423   6.837 -0.0030 -0.0304  0.1485
   72POPC   NC3 1286   6.829   6.658   8.259 -0.0282 -0.0259 -0.1229
   72POPC   PO4 1287   6.945   6.188   8.203 -0.0209 -0.1936 -0.0621
   72POPC   GL1 1288   6.833   6.352   7.832  0.3262 -0.4437 -0.2771
   72POPC   GL2 1289   7.016   6.668   7.825 -0.1934 -0.0583 -0.1834
   72POPC   C1A 1290   6.980   6.311   7.388 -0.0796 -0.1603 -0.0879
   72POPC   D2A 1291   6.921   5.888   7.096 -0.2447 -0.0703  0.0525
   72POPC   C3A 1292   6.917   5.896   6.691 -0.1943  0.0481 -0.2074
   72POPC   C4A 1293   7.165   5.648   6.439 -0.1131 -0.3628 -0.1532
   72POPC   C1B 1294   7.159   6.748   7.419 -0.2080  0.0891  0.2472
   72POPC   C2B 1295   6.843   6.791   7.152  0.0403  0.0772  0.3181
   72POPC   C3B 1296   6.507   6.892   6.798  0.2475  0.4428  0.3736
   72POPC   C4B 1297   6.361   6.475   6.485  0.1582  0.1985 -0.0136
   73POPC   NC3 1298   1.579   0.119   8.362 -0.1036 -0.0392 -0.3781
   73POPC   PO4 1299   1.391  -0.350   8.414  0.0227  0.0550  0.0390
   73POPC   GL1 1300   1.493  -0.505   8.009 -0.1257  0.2181  0.0098
   73POPC   GL2 1301   1.717  -0.720   7.984 -0.0237 -0.0817  0.1049
   73POPC   C1A 1302   1.338  -0.514   7.566  0.1647  0.3589  0.2093
   73POPC   D2A 1303   1.140  -0.741   7.199  0.1095 -0.2376  0.0042
   73POPC   C3A 1304   0.991  -0.484   6.895 -0.1890  0.2398 -0.0811
   73POPC   C4A 1305   0.652  -0.355   6.519 -0.2044 -0.2965 -0.0067
   73POPC   C1B 1306   1.810  -0.510   7.555  0.1209  0.2165  0.0007
   73POPC   C2B 1307   2.038  -0.415   7.110  0.2110  0.2277 -0.0816
   73POPC   C3B 1308   2.251  -0.566   6.767 -0.0164 -0.2730  0.2642
   73POPC   C4B 1309   2.281  -0.544   6.246 -0.1556 -0.0069 -0.3375
   74POPC   NC3 1310   1.412   3.736   9.021  0.4049  0.2346 -0.0247
   74POPC   PO4 1311   1.533   4.142   9.133  0.1132  0.3596  0.2056
   74POPC   GL1 1312   1.756   4.097   8.706 -0.1548  0.1867  0.0796
   74POPC   GL2 1313   2.115   4.298   8.605  0.3028  0.3344  0.1269
   74POPC   C1A 1314   1.896   3.890   8.401 -0.2482 -0.0626 -0.2126
   74POPC   D2A 1315   1.812   3.909   8.097 -0.0864 -0.0703 -0.1739
   74POPC   C3A 1316   1.607   4.086   7.822 -0.1169 -0.0682  0.0237
   74POPC   C4A 1317   1.697   4.136   7.387 -0.1884 -0.3750 -0.2443
   74POPC   C1B 1318   2.553   4.308   8.467 -0.1548 -0.0586  0.0715
   74POPC   C2B 1319   2.876   4.309   8.697 -0.5111  0.1868 -0.4006
   74POPC   C3B 1320   3.274   4.153   8.949 -0.1679 -0.0614  0.2999
   74POPC   C4B 1321   3.442   3.913   9.229 -0.3719  0.3288  0.0648
   75POPC   NC3 1322   2.587   6.442   8.892 -0.0825 -0.0308  0.3754
   75POPC   PO4 1323   2.179   6.580   8.935 -0.1808  0.1275 -0.1002
   75POPC   GL1 1324   2.113   6.427   8.543 -0.3780  0.0703 -0.0262
   75POPC   GL2 1325   2.011   6.652   8.402 -0.0379 -0.0572 -0.0513
   75POPC   C1A 1326   1.758   6.178   8.345  0.0742 -0.3018  0.2398
   75POPC   D2A 1327   1.942   5.923   7.985 -0.2139  0.1259 -0.1666
   75POPC   C3A 1328   2.099   5.876   7.677 -0.2028 -0.0044 -0.1672
   75POPC   C4A 1329   2.083   5.729   7.255 -0.2735  0.1791 -0.1747
   75POPC   C1B 1330   2.006   6.453   7.983  0.0735  0.1432 -0.1187
   75POPC   C2B 1331   2.203   6.338   7.537 -0.0050 -0.1169  0.0076
   75POPC   C3B 1332   2.437   6.126   7.262 -0.2242  0.1822 -0.0082
   75POPC   C4B 1333   2.751   6.276   7.026 -0.2293 -0.2451  0.0240
   76POPC   NC3 1334   5.610   7.200   8.756  0.3964  0.2593 -0.0353
   76POPC   PO4 1335   5.235   7.171   8.378  0.0599 -0.2094 -0.0487
   76POPC   GL1 1336   5.173   7.021   8.048  0.2988  0.1315  0.2305
   76POPC   GL2 1337   5.220   6.747   7.945  0.0995  0.1325  0.0649
   76POPC   C1A 1338   4.944   7.035   7.639  0.1291  0.1437  0.0031
   76POPC   D2A 1339   5.188   7.139   7.207  0.0592  0.0116 -0.1711
   76POPC   C3A 1340   4.944   7.309   6.954 -0.1970  0.2066 -0.1003
   76POPC   C4A 1341   4.650   7.641   6.866  0.2410 -0.0894 -0.0375
   76POPC   C1B 1342   4.817   6.595   7.911  0.0892 -0.2485  0.0053
   76POPC   C2B 1343   4.553   6.626   7.535 -0.1489  0.1205  0.1601
   76POPC   C3B 1344   4.179   6.459   7.304 -0.2586  0.3330  0.2968
   76POPC   C4B 1345   3.742   6.316   7.449 -0.3809 -0.0454 -0.2588
   77POPC   NC3 1346   3.719   3.594  11.042 -0.0293  0.1633 -0.1945
   77POPC   PO4 1347   4.054   3.563  10.732 -0.2506 -0.2412  0.3623
   77POPC   GL1 1348   3.952   3.458  10.264 -0.2884  0.0169 -0.0744
   77POPC   GL2 1349   4.150   3.511   9.992 -0.0525  0.1774 -0.0357
   77POPC   C1A 1350   3.712   3.648  10.038 -0.1472  0.1094 -0.2157
   77POPC   D2A 1351   3.578   3.797   9.720  0.2526 -0.0925 -0.0536
   77POPC   C3A 1352   3.597   4.250   9.627 -0.3924 -0.0976 -0.0249
   77POPC   C4A 1353   3.807   4.501   9.619 -0.0868 -0.2530 -0.0227
   77POPC   C1B 1354   3.910   3.206   9.721 -0.6872 -0.2799 -0.2562
   77POPC   C2B 1355   3.806   2.966   9.376  0.1825  0.0044  0.0704
   77POPC   C3B 1356   3.453   2.758   9.108  0.4351 -0.0813 -0.2476
   77POPC   C4B 1357   3.097   2.396   8.940 -0.0704 -0.0960 -0.1275
   78POPC   NC3 1358   8.228   5.281   8.530  0.0709 -0.1788  0.1873
   78POPC   PO4 1359   7.869   5.316   8.327  0.3419 -0.2647 -0.1336
   78POPC   GL1 1360   7.787   5.450   7.868  0.1571 -0.2214  0.0046
   78POPC   GL2 1361   8.124   5.784   7.739  0.1096  0.0370  0.0211
   78POPC   C1A 1362   7.833   5.440   7.462  0.0322 -0.2620 -0.2064
   78POPC   D2A 1363   8.006   5.337   7.105  0.0480 -0.0517 -0.0589
   78POPC   C3A 1364   8.068   5.591   6.676 -0.4095  0.2536 -0.2542
   78POPC   C4A 1365   8.227   5.944   6.627  0.0950  0.2309 -0.0671
   78POPC   C1B 1366   7.800   6.020   7.551  0.3445 -0.3535 -0.1674
   78POPC   C2B 1367   7.858   5.937   7.080  0.3327 -0.0649  0.1309
   78POPC   C3B 1368   7.565   5.607   6.944 -0.2660  0.1280 -0.0352
   78POPC   C4B 1369   7.544   5.270   6.673  0.1563  0.4603 -0.0349
   79POPC   NC3 1370   0.268   3.212   8.886  0.1334 -0.1230  0.0209
   79POPC   PO4 1371   0.713   3.111   8.985  0.0093 -0.1156 -0.3631
   79POPC   GL1 1372   0.673   3.281   8.534 -0.0581  0.1957 -0.1499
   79POPC   GL2 1373   0.656   3.026   8.449 -0.1320  0.3008 -0.3419
   79POPC   C1A 1374   0.799   3.336   8.096 -0.1023  0.0411  0.1773
   79POPC   D2A 1375   1.287   3.360   7.906 -0.0073 -0.1151 -0.0868
   79POPC   C3A 1376   1.435   3.331   7.531 -0.4020  0.1621  0.0937
   79POPC   C4A 1377   1.795   3.168   7.326  0.0707 -0.0656 -0.1915
   79POPC   C1B 1378   0.871   2.771   8.121  0.1566 -0.0951  0.0811
   79POPC   C2B 1379   0.973   2.969   7.711 -0.3918 -0.2544 -0.1125
   79POPC   C3B 1380   0.918   3.372   7.566  0.0682  0.0029 -0.1294
   79POPC   C4B 1381   0.769   3.568   7.139  0.2386  0.0540  0.0720
   80POPC   NC3 1382   0.572   0.148   8.985 -0.2676 -0.0486  0.4219
   80POPC   PO4 1383   0.558  -0.185   8.631  0.0851  0.1816  0.0068
   80POPC   GL1 1384   0.226   0.053   8.404 -0.2525 -0.0350  0.1806
   80POPC   GL2 1385   0.016   0.340   8.492 -0.1832 -0.1476 -0.0005
   80POPC   C1A 1386   0.081   0.256   7.979  0.0920 -0.3339 -0.2594
   80POPC   D2A 1387  -0.025   0.499   7.614  0.2390 -0.0781  0.2219
   80POPC   C3A 1388   0.198   0.725   7.289  0.1117  0.0671  0.0679
   80POPC   C4A 1389   0.444   1.130   7.131  0.2700  0.1165 -0.1320
   80POPC   C1B 1390   0.365   0.616   8.251  0.1860 -0.0759  0.0798
   80POPC   C2B 1391   0.459   0.655   7.810 -0.2918  0.1522  0.1328
   80POPC   C3B 1392   0.784   0.804   7.517  0.0149  0.1551  0.1520
   80POPC   C4B 1393   0.862   0.871   7.079  0.1336  0.1054  0.2264
   81POPC   NC3 1394   5.695   8.136   8.915 -0.0081  0.2862 -0.0812
   81POPC   PO4 1395   6.066   8.091   8.835 -0.2174 -0.2991  0.0611
   81POPC   GL1 1396   6.226   8.319   8.492  0.1780  0.2323 -0.0827
   81POPC   GL2 1397   6.151   8.084   8.270 -0.2081 -0.0354 -0.0441
   81POPC   C1A 1398   6.401   8.422   8.026  0.1602 -0.1716  0.1457
   81POPC   D2A 1399   6.562   8.502   7.647 -0.0272  0.0230 -0.3027
   81POPC   C3A 1400   7.015   8.579   7.494 -0.1004  0.1764  0.0387
   81POPC   C4A 1401   7.024   8.420   7.044 -0.3266  0.2467  0.2427
   81POPC   C1B 1402   5.923   8.038   7.993 -0.1245 -0.0839 -0.0032
   81POPC   C2B 1403   5.507   7.902   7.920 -0.2736 -0.1123  0.0613
   81POPC   C3B 1404   5.201   8.046   7.609  0.3893  0.0618  0.1512
   81POPC   C4B 1405   5.252   8.526   7.460  0.1754 -0.0513  0.0798
   82POPC   NC3 1406   0.571   6.290   8.362 -0.1553  0.0031  0.0107
   82POPC   PO4 1407   0.701   5.893   8.708 -0.1938 -0.0213  0.0407
   82POPC   GL1 1408   0.809   5.820   8.299 -0.3193  0.1107  0.3448
   82POPC   GL2 1409   0.938   5.528   8.321  0.0466  0.1720 -0.1004
   82POPC   C1A 1410   1.055   5.810   7.890 -0.0865  0.0636  0.0409
   82POPC   D2A 1411   1.159   5.659   7.522 -0.4573  0.4054  0.3120
   82POPC   C3A 1412   1.264   5.398   7.177 -0.0609  0.1543  0.3559
   82POPC   C4A 1413   1.306   5.318   6.733 -0.2280 -0.1991  0.0016
   82POPC   C1B 1414   1.039   5.304   7.958 -0.0538  0.2301 -0.1741
   82POPC   C2B 1415   1.388   5.111   7.866  0.0727  0.0506  0.2813
   82POPC   C3B 1416   1.573   5.210   7.552  0.0195 -0.1019  0.4106
   82POPC   C4B 1417   1.740   5.211   7.097  0.0740 -0.3880 -0.2568
   83POPC   NC3 1418   2.055   8.329   9.086 -0.0825  0.2365 -0.1082
   83POPC   PO4 1419   1.873   8.513   8.702 -0.1634 -0.0996  0.0661
   83POPC   GL1 1420   2.095   8.455   8.341  0.0036 -0.4166 -0.4894
   83POPC   GL2 1421   2.407   8.315   8.309 -0.0968 -0.2805 -0.1626
   83POPC   C1A 1422   2.157   8.404   7.890  0.2783  0.1838  0.2314
   83POPC   D2A 1423   2.222   8.647   7.474  0.0122 -0.2320 -0.0129
   83POPC   C3A 1424   2.049   8.995   7.548 -0.2381 -0.4962  0.2743
   83POPC   C4A 1425   2.305   9.345   7.514 -0.0623  0.0425  0.1971
   83POPC   C1B 1426   2.637   8.299   7.880 -0.2370 -0.2118  0.1087
   83POPC   C2B 1427   2.693   8.548   7.526 -0.1963  0.2708  0.0098
   83POPC   C3B 1428   2.725   8.532   7.174 -0.0360 -0.0576 -0.0341
   83POPC   C4B 1429   2.682   8.796   6.859 -0.0445 -0.0934 -0.1050
   84POPC   NC3 1430   5.201   4.102  10.432 -0.0639 -0.0079 -0.1223
   84POPC   PO4 1431   4.901   4.019  10.096 -0.0312  0.1338 -0.3381
   84POPC   GL1 1432   4.964   4.070   9.636 -0.0751  0.1962  0.0213
   84POPC   GL2 1433   4.842   4.245   9.586 -0.1155 -0.0467 -0.1866
   84POPC   C1A 1434   4.928   4.172   9.064  0.0141 -0.3291  0.2872
   84POPC   D2A 1435   4.783   3.978   8.667  0.0524 -0.2410 -0.2239
   84POPC   C3A 1436   4.667   4.243   8.352 -0.3601  0.1082 -0.2909
   84POPC   C4A 1437   4.870   4.585   8.173 -0.2539 -0.0591 -0.0189
   84POPC   C1B 1438   4.492   4.115   9.326 -0.1301  0.3902  0.0113
   84POPC   C2B 1439   4.604   3.744   9.046 -0.3666  0.2085  0.0190
   84POPC   C3B 1440   4.993   3.647   8.983 -0.2518 -0.2366 -0.0159
   84POPC   C4B 1441   5.385   3.342   8.729  0.0797 -0.1066 -0.1696
   85POPC   NC3 1442   7.549   6.910   8.214 -0.4505 -0.1987  0.2880
   85POPC   PO4 1443   7.795   6.607   8.187 -0.2314 -0.0725  0.1256
   85POPC   GL1 1444   7.565   6.667   7.752  0.2022  0.2621 -0.1227
   85POPC   GL2 1445   7.727   6.904   7.747 -0.4825  0.2280 -0.0514
   85POPC   C1A 1446   7.535   6.464   7.306 -0.0255  0.0049  0.1629
   85POPC   D2A 1447   7.703   6.435   6.880  0.0949  0.2754 -0.2258
   85POPC   C3A 1448   8.103   6.533   6.788 -0.1434 -0.2760  0.2614
   85POPC   C4A 1449   8.357   6.559   6.441  0.2335 -0.1344 -0.0525
   85POPC   C1B 1450   7.471   7.189   7.420 -0.1647  0.0940 -0.2657
   85POPC   C2B 1451   7.568   7.461   7.036  0.0183  0.0862 -0.0833
   85POPC   C3B 1452   7.357   7.777   6.826  0.0553 -0.3521 -0.2130
   85POPC   C4B 1453   7.051   8.087   6.738  0.1569  0.0341 -0.0523
   86POPC   NC3 1454   6.579   2.370   8.670  0.0235 -0.0088 -0.0606
   86POPC   PO4 1455   6.753   2.060   8.540 -0.1156  0.1145  0.3259
   86POPC   GL1 1456   6.425   2.015   8.258 -0.0906 -0.0542 -0.0547
   86POPC   GL2 1457   6.521   1.776   7.984  0.1927  0.0007 -0.0997
   86POPC   C1A 1458   6.059   1.910   7.967 -0.2262 -0.1887 -0.1450
   86POPC   D2A 1459   5.701   2.122   7.876 -0.5108  0.2015  0.0135
   86POPC   C3A 1460   5.456   2.152   7.583  0.0786  0.1077  0.0644
   86POPC   C4A 1461   5.122   2.444   7.558  0.1442  0.0241 -0.0412
   86POPC   C1B 1462   6.288   1.688   7.560 -0.1312  0.0725  0.1126
   86POPC   C2B 1463   6.335   1.688   7.187  0.1954 -0.1000  0.4380
   86POPC   C3B 1464   6.380   1.348   6.883  0.3167  0.1748  0.2392
   86POPC   C4B 1465   6.425   1.002   6.830 -0.0019  0.0729  0.1017
   87POPC   NC3 1466   3.793   7.259   8.591 -0.0979  0.1050  0.1771
   87POPC   PO4 1467   3.423   7.278   8.984 -0.0626  0.0486  0.1153
   87POPC   GL1 1468   3.301   7.153   8.548  0.0312  0.0311 -0.3796
   87POPC   GL2 1469   3.426   7.434   8.293 -0.0501  0.1326 -0.3885
   87POPC   C1A 1470   3.308   7.016   8.113  0.1258 -0.1459  0.5384
   87POPC   D2A 1471   3.128   7.199   7.762  0.2929  0.0635 -0.0114
   87POPC   C3A 1472   3.176   7.155   7.309 -0.2430  0.0660 -0.5068
   87POPC   C4A 1473   3.198   7.203   6.888  0.2948 -0.0005  0.0519
   87POPC   C1B 1474   3.379   7.620   7.928 -0.3819  0.2021 -0.0917
   87POPC   C2B 1475   3.249   7.587   7.511  0.1022  0.0887  0.2828
   87POPC   C3B 1476   3.127   7.664   7.163  0.4506  0.4325  0.0331
   87POPC   C4B 1477   2.896   7.640   6.815 -0.0733  0.2808 -0.0048
   88POPC   NC3 1478   6.871   4.614   8.804  0.0611 -0.0913 -0.4924
   88POPC   PO4 1479   6.438   4.645   8.658  0.1076 -0.2232  0.2023
   88POPC   GL1 1480   6.563   4.230   8.394  0.0313 -0.0977  0.0974
   88POPC   GL2 1481   6.467   3.876   8.382 -0.3943 -0.2835  0.3145
   88POPC   C1A 1482   6.401   4.161   8.003  0.0034 -0.1939  0.1159
   88POPC   D2A 1483   6.392   4.151   7.538  0.1356 -0.0263  0.0167
   88POPC   C3A 1484   6.127   3.959   7.177 -0.0271  0.0959 -0.0347
   88POPC   C4A 1485   6.098   3.452   7.118  0.2957  0.1772  0.0934
   88POPC   C1B 1486   6.732   3.716   8.024  0.0017  0.2846 -0.0111
   88POPC   C2B 1487   7.027   3.570   7.737  0.0491 -0.0204  0.2159
   88POPC   C3B 1488   6.903   3.355   7.317  0.0907  0.1917  0.0732
   88POPC   C4B 1489   6.526   3.715   7.255  0.0664  0.1594  0.0929
   89POPC   NC3 1490   5.077   6.487   8.585  0.0059 -0.1338  0.0904
   89POPC   PO4 1491   5.491   6.694   8.457  0.1698 -0.0282 -0.1487
   89POPC   GL1 1492   5.683   6.953   8.164 -0.2563 -0.1357  0.3019
   89POPC   GL2 1493   5.851   7.254   8.290 -0.0149 -0.0954  0.0245
   89POPC   C1A 1494   5.855   7.018   7.737 -0.1290  0.0095  0.1429
   89POPC   D2A 1495   5.823   7.097   7.340 -0.3546 -0.0123 -0.0935
   89POPC   C3A 1496   5.597   6.872   6.974 -0.0590  0.1546 -0.1384
   89POPC   C4A 1497   5.252   6.947   6.654 -0.1030  0.2725 -0.1711
   89POPC   C1B 1498   5.777   7.490   7.983  0.4584 -0.3808 -0.0297
   89POPC   C2B 1499   5.763   7.516   7.560 -0.1466  0.1329 -0.1769
   89POPC   C3B 1500   5.530   7.512   7.272 -0.1595 -0.1661  0.0534
   89POPC   C4B 1501   5.648   7.385   6.923 -0.1486  0.2314  0.0666
   90POPC   NC3 1502   5.544   0.737   9.311 -0.2261  0.3022  0.1193
   90POPC   PO4 1503   5.512   0.327   9.093  0.0760  0.0248 -0.1370
   90POPC   GL1 1504   5.460   0.274   8.636  0.0024  0.0721  0.4798
   90POPC   GL2 1505   5.103   0.175   8.611  0.1357  0.2013  0.0955
   90POPC   C1A 1506   5.319   0.039   8.210 -0.0292 -0.5198  0.3216
   90POPC   D2A 1507   5.041  -0.052   8.008 -0.0909  0.0920 -0.4802
   90POPC   C3A 1508   5.088   0.151   7.639  0.2173 -0.1882  0.1648
   90POPC   C4A 1509   5.146   0.310   7.207 -0.0080 -0.1838 -0.1959
   90POPC   C1B 1510   5.106   0.619   8.392  0.1841 -0.0387  0.1885
   90POPC   C2B 1511   4.977   0.545   7.941 -0.1494 -0.2799 -0.1639
   90POPC   C3B 1512   4.578   0.195   7.779  0.0636 -0.0895  0.0030
   90POPC   C4B 1513   4.538  -0.181   8.038  0.1157  0.0182  0.1562
   91POPC   NC3 1514   4.268   6.398   9.612 -0.0570  0.4210 -0.0856
   91POPC   PO4 1515   4.442   6.488   9.141  0.1851  0.1552 -0.1898
   91POPC   GL1 1516   4.398   6.549   8.681  0.0321  0.0814 -0.4520
   91POPC   GL2 1517   4.071   6.374   8.657 -0.0580  0.0646 -0.1650
   91POPC   C1A 1518   4.330   6.526   8.185 -0.0130  0.0845  0.0707
   91POPC   D2A 1519   4.041   6.277   7.912 -0.1210 -0.3646 -0.0837
   91POPC   C3A 1520   4.093   6.015   7.578  0.4857 -0.1926  0.0157
   91POPC   C4A 1521   4.313   5.653   7.464  0.2234  0.3262  0.0812
   91POPC   C1B 1522   3.812   6.574   8.317  0.0018 -0.2339 -0.0487
   91POPC   C2B 1523   3.697   6.663   7.901  0.1099 -0.3237  0.1985
   91POPC   C3B 1524   3.342   6.743   7.706  0.1372 -0.0960  0.0730
   91POPC   C4B 1525   2.968   6.658   7.931  0.0213  0.1318  0.0697
   92POPC   NC3 1526   7.058   8.458   8.825  0.1892 -0.0136  0.0050
   92POPC   PO4 1527   7.521   8.614   8.784 -0.1215 -0.2928 -0.0164
   92POPC   GL1 1528   7.338   8.425   8.356  0.0465  0.2070 -0.0591
   92POPC   GL2 1529   7.155   8.638   8.370  0.1014  0.1361 -0.3337
   92POPC   C1A 1530   7.387   8.634   7.897 -0.2438  0.2081 -0.0905
   92POPC   D2A 1531   7.307   8.930   7.518  0.1744 -0.1088  0.1714
   92POPC   C3A 1532   7.192   9.361   7.339  0.0172  0.2083  0.1997
   92POPC   C4A 1533   7.389   9.682   7.055 -0.1202 -0.0412  0.0765
   92POPC   C1B 1534   6.900   8.727   8.017  0.1096 -0.1220  0.1228
   92POPC   C2B 1535   6.727   8.998   7.657 -0.0408  0.1109  0.0810
   92POPC   C3B 1536   6.296   8.951   7.629 -0.1079 -0.0581 -0.2799
   92POPC   C4B 1537   6.016   9.027   7.861 -0.1785 -0.0703  0.1384
   93POPC   NC3 1538   8.629   2.697   9.265  0.0358  0.1640  0.1144
   93POPC   PO4 1539   8.515   2.806   8.865  0.1164 -0.2036  0.1896
   93POPC   GL1 1540   8.640   2.767   8.400 -0.0583 -0.2681 -0.1237
   93POPC   GL2 1541   8.683   2.586   8.206  0.2393 -0.1585  0.0710
   93POPC   C1A 1542   8.793   3.043   8.075 -0.0451  0.0126  0.3738
   93POPC   D2A 1543   8.751   3.355   7.663  0.2670 -0.0529  0.3541
   93POPC   C3A 1544   9.116   3.450   7.399  0.0395 -0.0080  0.0947
   93POPC   C4A 1545   9.471   3.571   7.262  0.1104  0.0455  0.2144
   93POPC   C1B 1546   8.605   2.705   7.745 -0.1566 -0.1323  0.1344
   93POPC   C2B 1547   8.619   2.717   7.329 -0.2179 -0.1544 -0.0754
   93POPC   C3B 1548   8.334   2.793   7.004 -0.1103 -0.1372  0.1614
   93POPC   C4B 1549   7.974   2.785   6.719 -0.0030 -0.0769 -0.1546
   94POPC   NC3 1550   1.808   0.626   8.811 -0.3269  0.1338  0.2404
   94POPC   PO4 1551   1.718   0.605   8.458  0.0955 -0.0553 -0.1821
   94POPC   GL1 1552   1.483   0.718   8.130  0.1096  0.0674 -0.3278
   94POPC   GL2 1553   1.611   0.467   7.968 -0.2318 -0.0422  0.0721
   94POPC   C1A 1554   1.259   0.914   7.816 -0.2777 -0.2356  0.1197
   94POPC   D2A 1555   1.210   1.027   7.416  0.0338  0.2423 -0.4085
   94POPC   C3A 1556   1.418   1.394   7.261  0.2984  0.0981 -0.0802
   94POPC   C4A 1557   1.520   1.646   6.839  0.0311 -0.3473  0.1043
   94POPC   C1B 1558   1.389   0.489   7.592 -0.1878 -0.0797 -0.0006
   94POPC   C2B 1559   1.159   0.546   7.244  0.0063  0.1383  0.1066
   94POPC   C3B 1560   1.155   0.340   6.867  0.0063 -0.1132  0.1526
   94POPC   C4B 1561   0.800   0.185   6.809 -0.2892 -0.2010  0.0571
   95POPC   NC3 1562   8.764   9.215   8.898  0.2933 -0.0201 -0.0125
   95POPC   PO4 1563   8.570   9.456   8.666 -0.0241 -0.1007  0.4382
   95POPC   GL1 1564   8.497   9.351   8.207  0.0135  0.3208  0.2509
   95POPC   GL2 1565   8.558   9.659   7.993 -0.0686  0.2062 -0.0032
   95POPC   C1A 1566   8.366   9.231   7.739 -0.2247 -0.1546 -0.0900
   95POPC   D2A 1567   8.342   9.177   7.301  0.0910 -0.2676 -0.1263
   95POPC   C3A 1568   8.064   9.305   7.032 -0.1930 -0.0058  0.1169
   95POPC   C4A 1569   7.890   9.121   6.642  0.0671 -0.2340 -0.2183
   95POPC   C1B 1570   8.651   9.776   7.572 -0.4467  0.1303 -0.2372
   95POPC   C2B 1571   8.910   9.929   7.269 -0.2159  0.1804  0.0492
   95POPC   C3B 1572   8.983  10.208   6.926  0.0825 -0.0018  0.0677
   95POPC   C4B 1573   9.407  10.317   6.678  0.0323  0.1692  0.1612
   96POPC   NC3 1574   9.360   9.847   9.036 -0.1729  0.3167 -0.3204
   96POPC   PO4 1575   9.667   9.963   8.630 -0.1967  0.2298 -0.3572
   96POPC   GL1 1576   9.534   9.912   8.223 -0.2439 -0.1076 -0.0171
   96POPC   GL2 1577   9.726   9.601   8.137 -0.1913 -0.0395  0.0298
   96POPC   C1A 1578   9.516  10.251   7.883  0.1030 -0.1692  0.1208
   96POPC   D2A 1579   9.435  10.664   7.702 -0.2009  0.4335  0.3214
   96POPC   C3A 1580   9.093  10.656   7.606  0.2987  0.0333  0.0430
   96POPC   C4A 1581   8.631  10.545   7.637 -0.1808  0.4725 -0.0741
   96POPC   C1B 1582   9.316   9.390   7.991  0.3302 -0.2337 -0.0757
   96POPC   C2B 1583   8.905   9.342   7.748  0.2739 -0.1642 -0.1077
   96POPC   C3B 1584   8.824   9.422   7.252 -0.1546  0.2559  0.0890
   96POPC   C4B 1585   8.652   9.194   6.937  0.0866 -0.3668  0.2632
   97POPC   NC3 1586   0.428   1.294   8.779 -0.0625  0.0091 -0.3064
   97POPC   PO4 1587   0.337   1.633   8.463  0.0158 -0.0767 -0.1146
   97POPC   GL1 1588   0.737   1.905   8.306 -0.0247 -0.0273  0.0449
   97POPC   GL2 1589   0.827   2.273   8.286  0.0364  0.0185 -0.1507
   97POPC   C1A 1590   1.014   1.876   8.041  0.0585  0.0831 -0.2388
   97POPC   D2A 1591   1.406   2.054   8.003 -0.3849  0.1016 -0.3260
   97POPC   C3A 1592   1.608   2.311   7.602 -0.1345  0.1186 -0.1412
   97POPC   C4A 1593   1.867   2.531   7.248  0.3595 -0.0349 -0.2226
   97POPC   C1B 1594   0.986   2.366   7.876 -0.0100  0.0431  0.1755
   97POPC   C2B 1595   1.060   2.590   7.398 -0.1442  0.0340 -0.0977
   97POPC   C3B 1596   0.999   2.625   6.954  0.0369 -0.1262  0.0176
   97POPC   C4B 1597   0.806   2.731   6.706  0.0790 -0.0058 -0.0689
   98POPC   NC3 1598   1.502   4.907   8.861 -0.3866 -0.1461  0.2981
   98POPC   PO4 1599   1.755   4.603   9.028 -0.1117 -0.0655 -0.1842
   98POPC   GL1 1600   1.755   4.650   8.569 -0.1944  0.1901  0.0935
   98POPC   GL2 1601   1.805   4.869   8.246 -0.2195  0.0962  0.0284
   98POPC   C1A 1602   1.604   4.375   8.265 -0.0788  0.1701 -0.0187
   98POPC   D2A 1603   1.197   4.238   8.076  0.1911 -0.1085 -0.1195
   98POPC   C3A 1604   1.093   4.247   7.646 -0.3117  0.0005  0.2236
   98POPC   C4A 1605   1.263   4.348   7.275  0.4674  0.1181 -0.2541
   98POPC   C1B 1606   1.867   4.860   7.773 -0.0627  0.0807  0.3882
   98POPC   C2B 1607   2.196   4.692   7.521 -0.2319 -0.0756 -0.3729
   98POPC   C3B 1608   2.522   4.413   7.343 -0.2615 -0.2190 -0.0494
   98POPC   C4B 1609   2.543   4.136   6.987 -0.1268  0.0394  0.0626
   99POPC   NC3 1610   3.063   1.069   8.999  0.0226 -0.0519  0.0398
   99POPC   PO4 1611   2.746   0.717   9.045 -0.1429  0.0250 -0.1128
   99POPC   GL1 1612   2.867   0.739   8.665 -0.1384 -0.0131  0.2590
   99POPC   GL2 1613   2.662   0.882   8.525  0.5233 -0.0629  0.0834
   99POPC   C1A 1614   3.101   0.671   8.279  0.1065 -0.0141  0.1200
   99POPC   D2A 1615   2.966   0.726   7.898  0.1487 -0.0263  0.1790
   99POPC   C3A 1616   2.930   0.493   7.589  0.1526  0.0509  0.3315
   99POPC   C4A 1617   2.930   0.173   7.363 -0.1444 -0.5465  0.4596
   99POPC   C1B 1618   2.551   0.967   8.053 -0.1279  0.1110  0.1342
   99POPC   C2B 1619   2.522   0.798   7.678  0.0952  0.0708 -0.2560
   99POPC   C3B 1620   2.087   0.705   7.398 -0.1991 -0.0770  0.1834
   99POPC   C4B 1621   2.086   0.727   6.954 -0.0800 -0.1123  0.2086
  100POPC   NC3 1622   2.472   9.007   9.000 -0.2174  0.2789 -0.1133
  100POPC   PO4 1623   2.872   8.811   8.746  0.2834 -0.0171  0.2088
  100POPC   GL1 1624   3.142   8.795   8.518 -0.2981  0.0028  0.0390
  100POPC   GL2 1625   3.343   8.473   8.448 -0.3254  0.1518  0.0722
  100POPC   C1A 1626   3.463   8.798   8.122 -0.1167 -0.0201  0.0545
  100POPC   D2A 1627   3.651   8.681   7.741 -0.1609 -0.0972 -0.3428
  100POPC   C3A 1628   3.875   8.890   7.487  0.0724 -0.1640 -0.0672
  100POPC   C4A 1629   4.074   8.736   7.091  0.0824  0.0197  0.0140
  100POPC   C1B 1630   3.076   8.437   8.012  0.2576 -0.1093  0.2856
  100POPC   C2B 1631   3.207   8.590   7.602 -0.2199  0.5039 -0.3249
  100POPC   C3B 1632   3.576   8.553   7.257 -0.1588  0.1271  0.0023
  100POPC   C4B 1633   3.794   8.288   7.053  0.1056  0.1071 -0.0246
  101POPC   NC3 1634   8.267   3.150   8.662 -0.0853 -0.1406  0.0517
  101POPC   PO4 1635   8.026   3.387   8.454  0.0356  0.0943 -0.1505
  101POPC   GL1 1636   8.168   3.543   8.116 -0.3622  0.2822  0.2134
  101POPC   GL2 1637   8.315   3.770   7.932  0.0840 -0.1200  0.4653
  101POPC   C1A 1638   8.244   3.308   7.791  0.0767  0.0361  0.2541
  101POPC   D2A 1639   8.310   3.145   7.413 -0.0642  0.2219 -0.2700
  101POPC   C3A 1640   8.129   3.350   7.054  0.1230 -0.0448 -0.1238
  101POPC   C4A 1641   8.224   3.652   6.766 -0.1339  0.0525 -0.2967
  101POPC   C1B 1642   8.327   3.809   7.482 -0.2235 -0.1249  0.2432
  101POPC   C2B 1643   8.618   3.571   7.189  0.0852 -0.0084 -0.1597
  101POPC   C3B 1644   8.545   3.157   6.867 -0.3617  0.0187 -0.1618
  101POPC   C4B 1645   8.278   3.175   6.577  0.0803  0.0894 -0.1812
  102POPC   NC3 1646   9.325   5.359   8.488  0.0748  0.0206  0.0681
  102POPC   PO4 1647   9.393   5.121   8.049 -0.0861  0.2386  0.3713
  102POPC   GL1 1648   9.612   5.029   7.637  0.0112 -0.1863 -0.2005
  102POPC   GL2 1649   9.952   4.965   7.515  0.4784 -0.1439  0.3661
  102POPC   C1A 1650   9.657   4.895   7.159 -0.1233  0.0395  0.0100
  102POPC   D2A 1651   9.623   4.681   6.809 -0.0297  0.0858  0.0788
  102POPC   C3A 1652   9.629   4.261   6.785  0.2626  0.0606 -0.2150
  102POPC   C4A 1653   9.621   3.721   6.778 -0.0184 -0.2555 -0.1776
  102POPC   C1B 1654  10.174   5.224   7.276 -0.0581 -0.1159  0.0983
  102POPC   C2B 1655  10.290   5.336   6.811  0.2583  0.0211 -0.2378
  102POPC   C3B 1656  10.331   5.111   6.336 -0.0022 -0.1511 -0.1858
  102POPC   C4B 1657  10.535   5.092   5.924 -0.0289 -0.0898 -0.0266
  103POPC   NC3 1658   8.133   1.384   8.190 -0.0659  0.0127  0.1249
  103POPC   PO4 1659   7.949   1.859   8.284  0.0424 -0.3310 -0.1551
  103POPC   GL1 1660   8.378   2.000   8.131  0.0538 -0.2252 -0.0258
  103POPC   GL2 1661   8.584   1.639   8.052 -0.1290 -0.0877 -0.0265
  103POPC   C1A 1662   8.695   2.218   7.884  0.0169  0.0133 -0.1426
  103POPC   D2A 1663   9.033   2.446   7.893  0.0421  0.5273  0.2587
  103POPC   C3A 1664   9.547   2.387   7.792 -0.0198 -0.2243  0.1568
  103POPC   C4A 1665   9.991   2.438   7.549 -0.1145  0.2652  0.1783
  103POPC   C1B 1666   8.549   1.791   7.658  0.1730  0.2717 -0.2215
  103POPC   C2B 1667   8.541   1.712   7.232  0.2919  0.0686  0.0551
  103POPC   C3B 1668   8.495   2.028   6.975 -0.0017  0.1562  0.0446
  103POPC   C4B 1669   8.619   2.448   6.846  0.0536 -0.1435 -0.2565
  104POPC   NC3 1670   2.948   5.464   9.133  0.1232  0.1324  0.2621
  104POPC   PO4 1671   2.698   5.774   9.155 -0.1623 -0.1758  0.0339
  104POPC   GL1 1672   2.899   5.758   8.698 -0.1084 -0.3286 -0.2002
  104POPC   GL2 1673   2.694   5.933   8.531  0.3566 -0.1573 -0.1087
  104POPC   C1A 1674   3.209   5.812   8.434 -0.0969  0.0296 -0.2442
  104POPC   D2A 1675   3.358   5.730   8.075  0.1505  0.2051 -0.1043
  104POPC   C3A 1676   3.748   5.849   7.925  0.1443 -0.1663  0.1924
  104POPC   C4A 1677   4.124   5.608   7.938  0.2061 -0.2989  0.0684
  104POPC   C1B 1678   2.789   5.461   8.279  0.2233  0.1350  0.0310
  104POPC   C2B 1679   2.879   5.171   8.043  0.1261  0.0966  0.2209
  104POPC   C3B 1680   2.845   4.885   7.844 -0.3105 -0.1175  0.1876
  104POPC   C4B 1681   2.951   4.655   7.548  0.0898 -0.1966  0.2104
  105POPC   NC3 1682   7.479   8.063   8.642  0.2684  0.3503 -0.1384
  105POPC   PO4 1683   7.847   7.884   8.555 -0.0107  0.1064 -0.0473
  105POPC   GL1 1684   7.697   8.193   8.175  0.1204  0.2864  0.2714
  105POPC   GL2 1685   7.473   7.884   8.075  0.1132  0.3802 -0.1169
  105POPC   C1A 1686   8.049   8.382   7.919  0.0240  0.1910  0.2239
  105POPC   D2A 1687   8.122   8.638   7.579 -0.1776 -0.2070 -0.2356
  105POPC   C3A 1688   8.424   8.579   7.339 -0.0186 -0.0866 -0.2685
  105POPC   C4A 1689   8.520   8.579   6.933 -0.1186  0.1799  0.2009
  105POPC   C1B 1690   7.838   7.931   7.777  0.3093 -0.0309  0.1384
  105POPC   C2B 1691   8.237   7.773   7.813  0.1643  0.1745 -0.2608
  105POPC   C3B 1692   8.365   7.431   7.717  0.3278 -0.1984  0.3999
  105POPC   C4B 1693   8.259   7.027   7.614 -0.1140  0.0529  0.2469
  106POPC   NC3 1694   4.333   6.032   8.824 -0.0968  0.0176  0.0810
  106POPC   PO4 1695   4.693   6.150   8.749 -0.3780 -0.2308  0.0680
  106POPC   GL1 1696   4.780   6.162   8.280  0.0127 -0.4278 -0.0530
  106POPC   GL2 1697   4.947   5.870   8.311  0.0548  0.0763  0.1871
  106POPC   C1A 1698   4.557   6.190   7.813 -0.0916  0.1985  0.0366
  106POPC   D2A 1699   4.531   6.127   7.328 -0.2918 -0.1024 -0.3118
  106POPC   C3A 1700   4.650   6.372   7.057 -0.0667 -0.1072  0.0678
  106POPC   C4A 1701   4.839   6.791   6.821  0.2112 -0.0577  0.0493
  106POPC   C1B 1702   4.838   5.758   7.977  0.1556  0.0127  0.1181
  106POPC   C2B 1703   4.820   5.766   7.541 -0.1031 -0.3109 -0.2010
  106POPC   C3B 1704   4.793   5.754   7.067 -0.2756 -0.1243 -0.4126
  106POPC   C4B 1705   4.875   5.610   6.674  0.0104  0.0277 -0.0896
  107POPC   NC3 1706   3.053   9.323   8.601  0.0002 -0.0602  0.1075
  107POPC   PO4 1707   2.647   9.305   8.578  0.0048  0.0814  0.1260
  107POPC   GL1 1708   2.650   9.227   8.111 -0.3411  0.1964  0.0226
  107POPC   GL2 1709   2.957   9.127   8.066 -0.1743 -0.0428 -0.1063
  107POPC   C1A 1710   2.533   8.981   7.733  0.0230  0.0625  0.0449
  107POPC   D2A 1711   2.724   9.049   7.423 -0.1968  0.1556  0.0654
  107POPC   C3A 1712   2.629   9.338   7.064 -0.1898 -0.2963 -0.1189
  107POPC   C4A 1713   2.723   9.615   6.782  0.0014  0.0143  0.1162
  107POPC   C1B 1714   3.032   9.360   7.669  0.0636 -0.2124 -0.2175
  107POPC   C2B 1715   3.085   9.535   7.209 -0.1078  0.1387  0.0906
  107POPC   C3B 1716   3.113   9.893   6.928 -0.0145  0.0650 -0.0003
  107POPC   C4B 1717   2.995  10.073   6.393  0.2650  0.1050  0.0652
  108POPC   NC3 1718   9.859   1.463   8.730  0.2918  0.0785 -0.1729
  108POPC   PO4 1719   9.911   1.093   8.896 -0.2306 -0.0439 -0.0848
  108POPC   GL1 1720   9.932   0.973   8.503  0.3346  0.1545 -0.0731
  108POPC   GL2 1721  10.250   1.101   8.332  0.2425 -0.0849 -0.3457
  108POPC   C1A 1722   9.833   0.747   8.094 -0.1268  0.2987 -0.1229
  108POPC   D2A 1723   9.854   1.031   7.687 -0.3593  0.0643 -0.0315
  108POPC   C3A 1724   9.623   0.942   7.323  0.0519 -0.3738 -0.0303
  108POPC   C4A 1725   9.774   1.153   6.890  0.1077  0.3120  0.0152
  108POPC   C1B 1726  10.257   1.113   7.963  0.1163 -0.1242 -0.3948
  108POPC   C2B 1727  10.441   1.193   7.598  0.1511 -0.1733  0.6315
  108POPC   C3B 1728  10.814   1.381   7.317  0.0113 -0.0174  0.0483
  108POPC   C4B 1729  11.010   1.660   6.992  0.2540 -0.1648 -0.1961
  109POPC   NC3 1730   4.778   5.608   8.856 -0.0565  0.0680  0.0889
  109POPC   PO4 1731   4.516   5.627   8.568  0.0958  0.3040  0.2106
  109POPC   GL1 1732   4.136   5.531   8.553  0.2531  0.1520  0.0288
  109POPC   GL2 1733   3.982   5.345   8.806  0.1190 -0.1205 -0.1321
  109POPC   C1A 1734   3.855   5.343   8.240  0.0490 -0.2591 -0.0296
  109POPC   D2A 1735   3.690   5.291   7.884  0.0758 -0.1125 -0.0902
  109POPC   C3A 1736   3.325   5.171   7.842 -0.3030 -0.3575 -0.0656
  109POPC   C4A 1737   2.969   5.427   7.622  0.0823 -0.0084  0.0392
  109POPC   C1B 1738   3.656   5.634   8.701  0.0948  0.2721  0.2186
  109POPC   C2B 1739   3.760   5.932   8.376  0.0934 -0.3571 -0.1970
  109POPC   C3B 1740   3.489   6.235   8.187  0.3223  0.2780  0.3048
  109POPC   C4B 1741   3.304   6.183   7.748 -0.1776  0.1711 -0.1021
  110POPC   NC3 1742   0.633   4.366   8.983  0.1784  0.2474  0.0425
  110POPC   PO4 1743   1.041   4.081   9.068 -0.1576 -0.1275  0.2447
  110POPC   GL1 1744   1.098   3.975   8.686 -0.1654  0.0725  0.3043
  110POPC   GL2 1745   0.795   3.921   8.589  0.3242  0.0628 -0.3020
  110POPC   C1A 1746   1.221   3.756   8.273 -0.0890  0.0874 -0.1097
  110POPC   D2A 1747   1.039   3.809   7.923 -0.0093  0.2080 -0.2190
  110POPC   C3A 1748   1.232   3.826   7.486  0.0364  0.1169  0.1025
  110POPC   C4A 1749   1.272   3.450   7.078 -0.0580 -0.0551 -0.3472
  110POPC   C1B 1750   0.623   4.031   8.150  0.1674 -0.1329  0.1056
  110POPC   C2B 1751   0.256   4.151   7.845 -0.1459  0.2724 -0.1646
  110POPC   C3B 1752   0.310   4.303   7.351  0.1749  0.2145  0.0835
  110POPC   C4B 1753   0.208   4.278   6.881 -0.0599  0.1442 -0.1715
  111POPC   NC3 1754   8.487   0.847   8.321  0.3296 -0.0857 -0.1109
  111POPC   PO4 1755   8.042   0.907   8.361  0.3140 -0.0744  0.1932
  111POPC   GL1 1756   7.810   0.991   7.990  0.1576  0.2460  0.0009
  111POPC   GL2 1757   7.551   0.753   7.961  0.0987 -0.1999  0.3813
  111POPC   C1A 1758   7.675   0.982   7.504 -0.1056  0.1542 -0.1522
  111POPC   D2A 1759   7.921   0.956   7.125  0.2499  0.2507 -0.0226
  111POPC   C3A 1760   7.666   1.035   6.659  0.2148  0.0151  0.2435
  111POPC   C4A 1761   7.442   1.459   6.572  0.0185  0.0489  0.3024
  111POPC   C1B 1762   7.492   0.465   7.527  0.0771 -0.0322 -0.3423
  111POPC   C2B 1763   7.474   0.703   7.064 -0.1147 -0.2464  0.2595
  111POPC   C3B 1764   7.198   0.972   6.823 -0.0339  0.1574  0.0032
  111POPC   C4B 1765   6.856   0.863   6.637  0.2065 -0.2650 -0.3340
  112POPC   NC3 1766   9.634   3.149   8.904 -0.1265 -0.0157 -0.0452
  112POPC   PO4 1767   9.187   3.273   8.919  0.0694  0.2195 -0.3207
  112POPC   GL1 1768   9.377   3.205   8.444  0.0486 -0.4340  0.1966
  112POPC   GL2 1769   9.161   2.984   8.381 -0.2623 -0.0675  0.1166
  112POPC   C1A 1770   9.730   3.195   8.184  0.1530  0.2196 -0.1767
  112POPC   D2A 1771   9.825   3.314   7.863 -0.0757 -0.0596  0.0914
  112POPC   C3A 1772   9.548   3.217   7.556 -0.0297  0.0412 -0.0681
  112POPC   C4A 1773   9.403   3.108   7.117  0.4509  0.2545 -0.4142
  112POPC   C1B 1774   9.250   3.320   7.995  0.3145  0.3105  0.0383
  112POPC   C2B 1775   9.370   3.667   7.785  0.0562 -0.1143 -0.2217
  112POPC   C3B 1776   9.678   3.974   7.435 -0.1312  0.0446  0.3004
  112POPC   C4B 1777   9.869   3.910   7.135  0.3655  0.0198  0.1599
  113POPC   NC3 1778   0.639   2.176   8.779 -0.1489  0.1873  0.0663
  113POPC   PO4 1779   0.466   2.642   8.716 -0.2494  0.2073  0.1821
  113POPC   GL1 1780   0.417   2.547   8.361 -0.1114  0.0161  0.1238
  113POPC   GL2 1781   0.335   2.228   8.349  0.1128  0.1282  0.0954
  113POPC   C1A 1782   0.434   2.626   7.939  0.2334 -0.1971 -0.1243
  113POPC   D2A 1783   0.543   2.516   7.489 -0.0013  0.3965  0.2367
  113POPC   C3A 1784   0.650   2.820   7.233  0.0384 -0.1478  0.0776
  113POPC   C4A 1785   1.010   3.085   7.231  0.1534  0.1954  0.1185
  113POPC   C1B 1786   0.380   2.123   7.869  0.1355 -0.4802 -0.3693
  113POPC   C2B 1787   0.310   2.060   7.370  0.2716 -0.0820 -0.0536
  113POPC   C3B 1788   0.352   2.031   6.932  0.3463  0.1200  0.2107
  113POPC   C4B 1789   0.618   2.273   6.690  0.2465  0.0247  0.0972
  114POPC   NC3 1790   9.113   1.586   8.372  0.1248 -0.0365  0.1158
  114POPC   PO4 1791   8.727   1.275   8.437 -0.1630 -0.1111 -0.2493
  114POPC   GL1 1792   8.951   1.249   8.075 -0.2630  0.1390 -0.0303
  114POPC   GL2 1793   9.176   1.029   8.079  0.2381  0.4576 -0.2421
  114POPC   C1A 1794   8.816   1.199   7.704  0.3454  0.0648 -0.0185
  114POPC   D2A 1795   8.682   1.134   7.337  0.0305 -0.2968 -0.1952
  114POPC   C3A 1796   8.357   0.854   7.327 -0.0524 -0.0683 -0.4316
  114POPC   C4A 1797   8.100   0.604   7.706  0.0654  0.1289  0.0923
  114POPC   C1B 1798   9.380   1.182   7.726  0.1598 -0.0749  0.2129
  114POPC   C2B 1799   9.171   1.139   7.273 -0.0291  0.3277  0.1203
  114POPC   C3B 1800   9.223   0.859   6.908  0.0568  0.0233 -0.0355
  114POPC   C4B 1801   9.453   0.912   6.489 -0.3855  0.1274  0.2058
  115POPC   NC3 1802   1.886   5.240   9.157 -0.1800 -0.0161 -0.0895
  115POPC   PO4 1803   1.567   5.436   8.815  0.0376 -0.1792  0.0890
  115POPC   GL1 1804   1.769   5.545   8.368  0.0608 -0.3706  0.3024
  115POPC   GL2 1805   1.552   5.717   8.277  0.3389  0.0947  0.0904
  115POPC   C1A 1806   1.913   5.297   8.008 -0.2660 -0.3433  0.0518
  115POPC   D2A 1807   2.017   5.395   7.624  0.1187 -0.0112 -0.1577
  115POPC   C3A 1808   2.217   5.182   7.299  0.2408 -0.0883 -0.1433
  115POPC   C4A 1809   2.278   5.232   6.888 -0.1093 -0.1018 -0.2930
  115POPC   C1B 1810   1.524   5.605   7.828  0.1220 -0.0411  0.1107
  115POPC   C2B 1811   1.653   5.736   7.520 -0.0731  0.3919  0.0363
  115POPC   C3B 1812   1.535   5.794   7.042  0.0093 -0.1819  0.3949
  115POPC   C4B 1813   1.113   5.805   6.859 -0.4800  0.0318  0.0692
  116POPC   NC3 1814   1.187   6.552   8.996  0.0936 -0.1677 -0.1378
  116POPC   PO4 1815   1.014   6.262   8.609 -0.3318 -0.0981 -0.2242
  116POPC   GL1 1816   1.233   6.136   8.235  0.0426  0.3039  0.0952
  116POPC   GL2 1817   1.010   6.330   7.986 -0.0353  0.1358  0.0162
  116POPC   C1A 1818   1.438   6.209   7.977 -0.0437  0.0687  0.0323
  116POPC   D2A 1819   1.640   6.187   7.616  0.1391  0.1926 -0.0846
  116POPC   C3A 1820   1.848   6.173   7.217  0.0433 -0.0919  0.1410
  116POPC   C4A 1821   1.762   6.087   6.708  0.0889  0.0470  0.0446
  116POPC   C1B 1822   1.224   6.613   7.703 -0.0438  0.1169  0.4774
  116POPC   C2B 1823   1.188   6.775   7.350  0.0252  0.4519 -0.2118
  116POPC   C3B 1824   1.187   6.855   6.854  0.0826 -0.2960  0.2615
  116POPC   C4B 1825   1.359   6.646   6.493  0.0016  0.1054  0.2172
  117POPC   NC3 1826   6.275   2.898   9.438  0.1061  0.1505 -0.1099
  117POPC   PO4 1827   6.001   3.194   9.166  0.0592  0.1949  0.3318
  117POPC   GL1 1828   5.865   3.183   8.787 -0.2246 -0.1488  0.0417
  117POPC   GL2 1829   6.041   2.995   8.587  0.2188  0.0413  0.0074
  117POPC   C1A 1830   5.534   3.009   8.431 -0.3109 -0.1332 -0.2057
  117POPC   D2A 1831   5.557   3.111   7.986 -0.1083  0.1486  0.2742
  117POPC   C3A 1832   5.700   3.466   7.836 -0.3219  0.0859 -0.0394
  117POPC   C4A 1833   5.843   3.708   7.532  0.2387  0.1597 -0.1035
  117POPC   C1B 1834   6.014   3.047   8.153  0.1024  0.0210 -0.0433
  117POPC   C2B 1835   5.982   3.138   7.671 -0.0436 -0.2275  0.2773
  117POPC   C3B 1836   5.682   3.181   7.321 -0.3389  0.0690  0.0482
  117POPC   C4B 1837   5.451   3.432   7.030  0.0934  0.1254  0.1355
  118POPC   NC3 1838   3.756   2.265   9.438 -0.0855 -0.0962  0.0956
  118POPC   PO4 1839   3.489   1.924   9.239 -0.1926 -0.3025 -0.2773
  118POPC   GL1 1840   3.301   1.931   8.848 -0.1653  0.5790  0.0972
  118POPC   GL2 1841   3.230   1.621   8.770  0.2512  0.0559 -0.2539
  118POPC   C1A 1842   3.280   2.193   8.473  0.1758  0.0491 -0.0667
  118POPC   D2A 1843   3.559   2.382   8.287  0.1270 -0.1995 -0.2359
  118POPC   C3A 1844   4.005   2.366   8.221  0.0487 -0.2298 -0.0467
  118POPC   C4A 1845   4.262   2.696   8.263 -0.0767  0.1557 -0.1312
  118POPC   C1B 1846   3.274   1.691   8.296  0.0726 -0.1216 -0.0188
  118POPC   C2B 1847   3.204   1.674   7.892 -0.2350 -0.2870 -0.0367
  118POPC   C3B 1848   3.360   1.834   7.520 -0.3076 -0.0145 -0.2547
  118POPC   C4B 1849   3.019   2.108   7.246 -0.3083 -0.3194 -0.1411
  119POPC   NC3 1850   5.683   2.812   9.120 -0.2154 -0.0449 -0.2006
  119POPC   PO4 1851   5.766   2.355   9.285  0.0179  0.1419 -0.1219
  119POPC   GL1 1852   5.732   2.244   8.790  0.1565 -0.4578 -0.0083
  119POPC   GL2 1853   5.883   2.006   8.389  0.3138  0.1317  0.0794
  119POPC   C1A 1854   5.573   2.512   8.461  0.0106  0.0648  0.1550
  119POPC   D2A 1855   5.385   2.665   8.050 -0.2005  0.1507 -0.2153
  119POPC   C3A 1856   5.041   2.959   8.052 -0.0377 -0.1547 -0.0270
  119POPC   C4A 1857   4.685   3.062   8.264 -0.0619  0.2061  0.2108
  119POPC   C1B 1858   5.980   2.316   8.272 -0.0822  0.1329 -0.2143
  119POPC   C2B 1859   5.879   2.622   7.953 -0.1198 -0.2274 -0.1463
  119POPC   C3B 1860   5.638   2.730   7.638 -0.2575 -0.4699 -0.1360
  119POPC   C4B 1861   5.315   2.832   7.249 -0.1092 -0.0719 -0.0849
  120POPC   NC3 1862   8.614   4.028   8.307  0.1953 -0.0704  0.1158
  120POPC   PO4 1863   8.295   4.347   8.361 -0.0655  0.0666 -0.2927
  120POPC   GL1 1864   8.127   4.458   8.002  0.2757  0.0333  0.0059
  120POPC   GL2 1865   8.228   4.261   7.784  0.0365 -0.0724 -0.1602
  120POPC   C1A 1866   7.885   4.591   7.647 -0.1656 -0.0289  0.1276
  120POPC   D2A 1867   7.939   4.924   7.424  0.3188 -0.0012  0.0490
  120POPC   C3A 1868   7.994   4.834   6.930  0.2115 -0.1004  0.1436
  120POPC   C4A 1869   7.937   4.680   6.564  0.0748  0.0779  0.2733
  120POPC   C1B 1870   8.290   4.468   7.368  0.1747  0.2717 -0.0516
  120POPC   C2B 1871   8.409   4.629   6.848 -0.0189 -0.1990 -0.2009
  120POPC   C3B 1872   8.725   4.488   6.565 -0.1217 -0.2836 -0.0130
  120POPC   C4B 1873   9.028   4.155   6.486  0.0234 -0.1487 -0.1189
  121POPC   NC3 1874   5.593   1.361   9.110 -0.2161  0.1288  0.0007
  121POPC   PO4 1875   5.268   1.532   8.927 -0.2200 -0.1157  0.2785
  121POPC   GL1 1876   5.439   1.749   8.594 -0.0294  0.1073 -0.3309
  121POPC   GL2 1877   5.502   1.532   8.404  0.1750 -0.0460 -0.0757
  121POPC   C1A 1878   5.393   2.056   8.323  0.0869 -0.0781 -0.1598
  121POPC   D2A 1879   5.029   2.208   8.066 -0.1007  0.0748 -0.2474
  121POPC   C3A 1880   4.929   2.024   7.784  0.0989  0.0104  0.0055
  121POPC   C4A 1881   4.496   1.985   7.544 -0.2073 -0.1906 -0.0453
  121POPC   C1B 1882   5.560   1.656   8.010  0.0903 -0.2032  0.0033
  121POPC   C2B 1883   5.723   1.692   7.606  0.4251 -0.0907 -0.2279
  121POPC   C3B 1884   5.821   1.791   7.271  0.0670 -0.1346 -0.3160
  121POPC   C4B 1885   5.605   2.141   7.091 -0.0472 -0.1425 -0.2400
  122POPC   NC3 1886   4.467   9.051   8.816  0.0663  0.0137  0.0287
  122POPC   PO4 1887   4.183   8.620   8.730  0.2531  0.0242  0.0576
  122POPC   GL1 1888   4.038   8.669   8.325 -0.4243 -0.2123  0.4498
  122POPC   GL2 1889   3.901   8.412   8.329  0.0552 -0.1597 -0.0429
  122POPC   C1A 1890   4.111   8.531   7.919 -0.3110  0.2652  0.1312
  122POPC   D2A 1891   3.949   8.306   7.553  0.0455 -0.0812 -0.0316
  122POPC   C3A 1892   4.247   8.194   7.218 -0.1021 -0.0632 -0.2940
  122POPC   C4A 1893   4.706   8.230   7.208 -0.0142  0.2554 -0.0619
  122POPC   C1B 1894   3.744   8.173   7.972 -0.0403  0.0133  0.2041
  122POPC   C2B 1895   3.429   8.072   7.711 -0.0819  0.0727  0.1408
  122POPC   C3B 1896   3.110   8.113   7.403 -0.0439 -0.2895 -0.0882
  122POPC   C4B 1897   3.167   8.315   7.035  0.0419 -0.1409 -0.1360
  123POPC   NC3 1898   0.233   5.389   8.418  0.0748  0.0425  0.3389
  123POPC   PO4 1899  -0.146   5.666   8.288 -0.0486 -0.3225 -0.3614
  123POPC   GL1 1900  -0.237   5.722   7.865  0.0592  0.0748  0.2243
  123POPC   GL2 1901  -0.051   6.007   7.773 -0.0822  0.0977  0.0496
  123POPC   C1A 1902  -0.604   5.929   7.569 -0.0557  0.3199  0.2494
  123POPC   D2A 1903  -0.857   5.785   7.201 -0.0142  0.2643 -0.0507
  123POPC   C3A 1904  -1.114   6.118   7.064 -0.2089 -0.1349  0.0167
  123POPC   C4A 1905  -1.526   6.170   7.073  0.1962 -0.0574 -0.1979
  123POPC   C1B 1906   0.188   6.244   7.446  0.3272  0.0420  0.4465
  123POPC   C2B 1907   0.412   6.220   7.046 -0.0740 -0.2295  0.0338
  123POPC   C3B 1908   0.703   6.087   6.721  0.2214  0.0035 -0.0996
  123POPC   C4B 1909   0.803   6.054   6.300 -0.0218 -0.2194 -0.0734
  124POPC   NC3 1910   6.973   5.538   8.807 -0.1233 -0.1771  0.0146
  124POPC   PO4 1911   6.428   5.599   8.697  0.1434  0.1404  0.1028
  124POPC   GL1 1912   6.424   5.209   8.369 -0.1516 -0.0069  0.0224
  124POPC   GL2 1913   6.226   5.022   8.329 -0.1659  0.1687 -0.2971
  124POPC   C1A 1914   6.454   5.130   7.864 -0.1453  0.0865 -0.0904
  124POPC   D2A 1915   6.128   5.182   7.553  0.0981 -0.0573 -0.1122
  124POPC   C3A 1916   6.239   4.994   7.172  0.1508  0.0384 -0.0409
  124POPC   C4A 1917   6.206   4.812   6.712  0.1122 -0.5185 -0.0715
  124POPC   C1B 1918   5.873   4.953   7.950 -0.1646 -0.1735  0.2455
  124POPC   C2B 1919   5.518   5.175   7.842  0.0323  0.0898 -0.3119
  124POPC   C3B 1920   5.196   5.157   7.512  0.0596 -0.3111  0.2158
  124POPC   C4B 1921   4.746   5.282   7.287  0.3298  0.1042  0.1914
  125POPC   NC3 1922   2.217   1.883   9.942 -0.2837  0.0575  0.1953
  125POPC   PO4 1923   2.561   2.098   9.765 -0.0858  0.0347  0.2067
  125POPC   GL1 1924   2.542   2.288   9.410 -0.1327 -0.1093  0.0166
  125POPC   GL2 1925   2.286   2.254   9.219 -0.2428  0.1029 -0.1674
  125POPC   C1A 1926   2.666   2.675   9.167  0.0397 -0.1792  0.2742
  125POPC   D2A 1927   3.027   2.887   8.779  0.2546  0.1820 -0.0954
  125POPC   C3A 1928   3.248   2.771   8.388 -0.1893  0.0353  0.0499
  125POPC   C4A 1929   3.335   2.823   7.921 -0.1626 -0.1048 -0.2135
  125POPC   C1B 1930   2.608   2.252   8.919 -0.2355  0.1639 -0.4487
  125POPC   C2B 1931   2.855   2.006   8.691  0.0078 -0.0154  0.1229
  125POPC   C3B 1932   2.867   1.910   8.231  0.1530  0.2058 -0.2110
  125POPC   C4B 1933   2.805   1.974   7.755  0.1175  0.2767  0.3348
  126POPC   NC3 1934   1.565   1.992   9.093 -0.1504 -0.1177 -0.0666
  126POPC   PO4 1935   1.642   1.636   8.826  0.1086  0.3640 -0.1666
  126POPC   GL1 1936   1.785   1.700   8.409  0.1927  0.0237 -0.0796
  126POPC   GL2 1937   1.810   2.032   8.351 -0.2068  0.2152 -0.2763
  126POPC   C1A 1938   1.645   1.614   7.994  0.3051 -0.1863 -0.0313
  126POPC   D2A 1939   1.869   1.642   7.597  0.0339 -0.1907 -0.0938
  126POPC   C3A 1940   1.771   1.988   7.201 -0.3315 -0.2564 -0.0365
  126POPC   C4A 1941   1.714   2.108   6.730 -0.0487 -0.1493 -0.0017
  126POPC   C1B 1942   1.931   2.050   7.943 -0.0083 -0.2229  0.0713
  126POPC   C2B 1943   2.174   2.172   7.684 -0.2347  0.0472  0.0911
  126POPC   C3B 1944   2.238   2.173   7.242  0.2435  0.0053 -0.1725
  126POPC   C4B 1945   2.393   2.179   6.728  0.1135  0.1586 -0.1400
  127POPC   NC3 1946   8.980   4.826   8.038  0.0102 -0.0607  0.2127
  127POPC   PO4 1947   8.775   5.268   8.149  0.2688 -0.1104  0.0466
  127POPC   GL1 1948   8.889   5.241   7.732  0.0011 -0.2313 -0.3085
  127POPC   GL2 1949   9.210   5.379   7.619 -0.1716 -0.1580 -0.1451
  127POPC   C1A 1950   8.911   5.313   7.217 -0.2308  0.2210 -0.1569
  127POPC   D2A 1951   9.019   5.351   6.883  0.3186 -0.1188 -0.1287
  127POPC   C3A 1952   9.301   5.081   6.764  0.3286  0.4233 -0.1789
  127POPC   C4A 1953   9.458   5.202   6.350 -0.1460 -0.0632 -0.1798
  127POPC   C1B 1954   9.554   5.483   7.390 -0.1479 -0.0918  0.1177
  127POPC   C2B 1955   9.810   5.395   6.993  0.2974  0.4551  0.1821
  127POPC   C3B 1956   9.943   5.440   6.460 -0.0647  0.2862 -0.1969
  127POPC   C4B 1957   9.922   5.263   6.057 -0.0956  0.0068  0.0645
  128POPC   NC3 1958   0.554   9.010   8.324  0.0915 -0.0784 -0.0301
  128POPC   PO4 1959   0.958   8.756   8.434 -0.5501  0.2510 -0.0538
  128POPC   GL1 1960   0.962   8.871   7.993  0.0580  0.2325 -0.1485
  128POPC   GL2 1961   0.914   9.216   7.946 -0.1963  0.1244 -0.0262
  128POPC   C1A 1962   1.217   8.902   7.702 -0.0175  0.1489  0.1293
  128POPC   D2A 1963   1.589   9.006   7.569 -0.1010  0.2225  0.4497
  128POPC   C3A 1964   1.768   9.093   7.097  0.1109 -0.0206  0.1009
  128POPC   C4A 1965   1.813   9.199   6.704  0.0944 -0.0451  0.0299
  128POPC   C1B 1966   0.759   9.299   7.621 -0.1467  0.2795  0.1460
  128POPC   C2B 1967   0.618   9.167   7.268 -0.1099  0.0354 -0.2102
  128POPC   C3B 1968   0.538   9.260   6.932  0.1750  0.1379  0.1659
  128POPC   C4B 1969   0.193   9.302   6.685 -0.0068 -0.2176  0.4066
  129POPC   NC3 1970   6.333   1.193   8.660  0.1947 -0.1602  0.0461
  129POPC   PO4 1971   5.913   1.259   8.672  0.1501  0.0863  0.0985
  129POPC   GL1 1972   5.862   1.042   8.307 -0.1539 -0.2049  0.4214
  129POPC   GL2 1973   5.942   1.158   7.959 -0.0135 -0.1611  0.2033
  129POPC   C1A 1974   5.604   0.757   8.290 -0.0055 -0.2410  0.0059
  129POPC   D2A 1975   5.445   0.458   8.015  0.0965 -0.0799  0.2258
  129POPC   C3A 1976   5.248   0.744   7.584 -0.2793 -0.1218  0.4859
  129POPC   C4A 1977   4.910   1.029   7.781 -0.0456 -0.5234 -0.1107
  129POPC   C1B 1978   6.305   0.937   7.739  0.1095 -0.2031  0.2457
  129POPC   C2B 1979   6.510   0.956   7.342 -0.0220 -0.0105  0.0578
  129POPC   C3B 1980   6.778   1.141   7.156  0.3104  0.1485 -0.0885
  129POPC   C4B 1981   6.929   1.481   6.897 -0.1086  0.1243 -0.0984
  130POPC   NC3 1982   6.044   4.420   9.094  0.3269  0.1551  0.2065
  130POPC   PO4 1983   6.034   3.937   9.161  0.1603  0.1154 -0.3291
  130POPC   GL1 1984   5.697   4.086   8.997  0.0051  0.0491 -0.0759
  130POPC   GL2 1985   5.651   4.251   8.747 -0.0194 -0.1620 -0.3690
  130POPC   C1A 1986   5.271   3.887   8.650 -0.1147 -0.0089  0.0086
  130POPC   D2A 1987   4.981   3.438   8.490 -0.2609 -0.2555 -0.1796
  130POPC   C3A 1988   4.568   3.501   8.514  0.0232 -0.2828  0.3430
  130POPC   C4A 1989   4.315   3.883   8.375 -0.1232 -0.1561 -0.2081
  130POPC   C1B 1990   5.593   4.373   8.244  0.2663 -0.0581  0.1091
  130POPC   C2B 1991   5.526   4.471   7.908  0.2279  0.2148  0.2041
  130POPC   C3B 1992   5.204   4.731   7.828  0.2175 -0.1917 -0.2812
  130POPC   C4B 1993   4.809   4.903   7.777 -0.2460  0.0327  0.0308
  131POPC   NC3 1994   8.174   2.454   8.334 -0.1415  0.0144  0.2659
  131POPC   PO4 1995   8.174   2.860   8.266 -0.0239 -0.0625  0.1341
  131POPC   GL1 1996   8.061   2.775   7.871  0.3392 -0.1487  0.0903
  131POPC   GL2 1997   7.796   2.994   7.702 -0.2419 -0.0335  0.1594
  131POPC   C1A 1998   7.934   2.631   7.401  0.1869 -0.3359  0.4809
  131POPC   D2A 1999   7.607   2.706   7.082  0.0816  0.1373 -0.0602
  131POPC   C3A 2000   7.496   2.394   6.821  0.0157  0.1570  0.0561
  131POPC   C4A 2001   7.656   2.024   6.628  0.1695 -0.4991 -0.1417
  131POPC   C1B 2002   7.661   3.205   7.274 -0.0091 -0.0781  0.0352
  131POPC   C2B 2003   7.643   3.196   6.824  0.0414 -0.2128 -0.3390
  131POPC   C3B 2004   7.407   3.302   6.446  0.1093  0.1487 -0.0336
  131POPC   C4B 2005   7.323   3.573   6.129  0.1387 -0.0573 -0.0895
  132POPC   NC3 2006   9.597   6.861   8.411  0.2643  0.1795 -0.0288
  132POPC   PO4 2007   9.207   6.634   8.333  0.2114  0.0159 -0.2248
  132POPC   GL1 2008   9.372   6.579   7.920  0.3260 -0.0402 -0.0788
  132POPC   GL2 2009   9.142   6.578   7.800 -0.4015  0.1253  0.0408
  132POPC   C1A 2010   9.623   6.370   7.546 -0.1849 -0.0157  0.3012
  132POPC   D2A 2011   9.818   6.472   7.141  0.0071  0.0235 -0.1636
  132POPC   C3A 2012   9.797   6.267   6.674  0.1559  0.1439 -0.0224
  132POPC   C4A 2013   9.863   6.088   6.286  0.0838  0.0944 -0.2183
  132POPC   C1B 2014   9.162   6.396   7.430 -0.0376 -0.0656 -0.0627
  132POPC   C2B 2015   9.391   6.222   7.103  0.1891 -0.3860  0.1727
  132POPC   C3B 2016   9.282   6.197   6.578 -0.0347 -0.0599  0.2726
  132POPC   C4B 2017   9.260   6.010   6.117  0.0278 -0.0554  0.1439
  133POPC   NC3 2018   7.496   7.103   8.814  0.0102  0.0095  0.2155
  133POPC   PO4 2019   7.196   6.887   8.606 -0.0452 -0.1097 -0.1585
  133POPC   GL1 2020   7.103   7.132   8.186  0.3256  0.0152 -0.1333
  133POPC   GL2 2021   7.146   7.487   8.181  0.0155 -0.2056 -0.2898
  133POPC   C1A 2022   7.097   7.259   7.747 -0.0424  0.0112 -0.1409
  133POPC   D2A 2023   6.918   7.218   7.423  0.0238  0.1690  0.1196
  133POPC   C3A 2024   7.133   7.176   6.982  0.0069  0.2843 -0.0800
  133POPC   C4A 2025   6.949   7.056   6.677 -0.0943 -0.2475 -0.0692
  133POPC   C1B 2026   7.042   7.747   7.865 -0.2095 -0.1214  0.0306
  133POPC   C2B 2027   6.833   8.106   7.580  0.2364 -0.2976 -0.2802
  133POPC   C3B 2028   6.597   8.084   7.210  0.1482  0.1825 -0.1952
  133POPC   C4B 2029   6.535   8.247   6.843  0.1068  0.1441 -0.2202
  134POPC   NC3 2030   1.686   1.519   9.359  0.2345  0.3113  0.1346
  134POPC   PO4 2031   2.048   1.813   9.417  0.2380 -0.0670  0.2191
  134POPC   GL1 2032   2.062   1.859   8.946 -0.1926  0.0214  0.0579
  134POPC   GL2 2033   1.918   2.221   8.839 -0.0025  0.0895 -0.0424
  134POPC   C1A 2034   2.335   2.001   8.610  0.2275 -0.0796 -0.1100
  134POPC   D2A 2035   2.424   2.017   8.139 -0.1881 -0.0239  0.4075
  134POPC   C3A 2036   2.574   2.388   7.910  0.0127 -0.0981 -0.0596
  134POPC   C4A 2037   2.654   2.502   7.430 -0.0121  0.1551 -0.0380
  134POPC   C1B 2038   1.834   2.702   8.676  0.0339 -0.0120  0.0291
  134POPC   C2B 2039   1.865   2.925   8.257 -0.1522  0.0452  0.0014
  134POPC   C3B 2040   1.790   3.145   7.842 -0.1236 -0.2413  0.1643
  134POPC   C4B 2041   1.800   3.650   7.616 -0.0842  0.0190 -0.0538
  135POPC   NC3 2042   9.644   8.231   8.828  0.3385 -0.0281 -0.2126
  135POPC   PO4 2043   9.160   8.289   8.700 -0.1706  0.0752  0.0569
  135POPC   GL1 2044   8.997   8.486   8.378  0.2163 -0.0853  0.0893
  135POPC   GL2 2045   9.120   8.738   8.282  0.1323 -0.0018  0.2020
  135POPC   C1A 2046   8.798   8.315   8.054  0.0649  0.1279  0.1671
  135POPC   D2A 2047   8.736   7.840   7.890 -0.1497  0.4287  0.1845
  135POPC   C3A 2048   8.866   7.751   7.393 -0.1935  0.1890  0.0182
  135POPC   C4A 2049   9.202   7.782   7.254 -0.2995 -0.5731 -0.1845
  135POPC   C1B 2050   8.849   8.990   8.086  0.4007  0.0185  0.1035
  135POPC   C2B 2051   8.728   8.847   7.668  0.0004  0.0635  0.0480
  135POPC   C3B 2052   8.884   8.737   7.310 -0.3741  0.1492  0.0132
  135POPC   C4B 2053   9.208   8.632   6.981 -0.1749  0.1583 -0.1405
  136POPC   NC3 2054   1.391   3.295   9.350 -0.2804  0.2451 -0.0302
  136POPC   PO4 2055   1.174   3.084   8.981 -0.1121  0.1899 -0.0363
  136POPC   GL1 2056   1.398   3.089   8.641 -0.2228  0.1905 -0.0695
  136POPC   GL2 2057   1.200   3.047   8.318  0.0443  0.1019  0.1275
  136POPC   C1A 2058   1.575   3.385   8.315  0.1221 -0.1913  0.1625
  136POPC   D2A 2059   2.067   3.405   8.248  0.1891 -0.0232  0.1282
  136POPC   C3A 2060   2.370   3.019   8.086  0.2957 -0.0407 -0.0870
  136POPC   C4A 2061   2.546   2.874   7.763  0.1421  0.0316 -0.1470
  136POPC   C1B 2062   1.418   2.862   7.996  0.2661  0.0176 -0.0438
  136POPC   C2B 2063   1.495   2.803   7.488  0.2238  0.1805 -0.1924
  136POPC   C3B 2064   1.452   2.852   7.114  0.0980  0.3889  0.0914
  136POPC   C4B 2065   1.738   2.873   6.727  0.2673 -0.4628  0.0100
  137POPC   NC3 2066   8.614   0.052   8.603  0.2110  0.0572  0.0852
  137POPC   PO4 2067   8.660   0.467   8.714  0.2598 -0.1127  0.1243
  137POPC   GL1 2068   8.741   0.423   8.237 -0.1528  0.1615  0.0084
  137POPC   GL2 2069   9.006   0.485   8.016  0.0708  0.2228 -0.1287
  137POPC   C1A 2070   8.455   0.220   7.890 -0.0930  0.3658  0.3673
  137POPC   D2A 2071   8.317   0.170   7.419  0.0061 -0.0649  0.3632
  137POPC   C3A 2072   8.504   0.335   7.182 -0.0040 -0.0666  0.1624
  137POPC   C4A 2073   8.855   0.695   7.149 -0.2249  0.0581 -0.0161
  137POPC   C1B 2074   9.050   0.165   7.782  0.2302 -0.1838 -0.0455
  137POPC   C2B 2075   9.350  -0.177   7.718  0.0657  0.0622 -0.1676
  137POPC   C3B 2076   9.685  -0.592   7.608  0.1096 -0.2047 -0.0376
  137POPC   C4B 2077   9.541  -0.943   7.813 -0.0004 -0.1112  0.1830
  138POPC   NC3 2078   3.059   4.868  10.298 -0.1321 -0.0035 -0.1759
  138POPC   PO4 2079   2.967   4.867   9.899 -0.0836 -0.0741 -0.1591
  138POPC   GL1 2080   3.040   4.510   9.615 -0.2491  0.0023 -0.0634
  138POPC   GL2 2081   2.974   4.482   9.285 -0.0027  0.0551  0.0103
  138POPC   C1A 2082   3.172   4.058   9.649 -0.0093 -0.0193 -0.1496
  138POPC   D2A 2083   3.069   3.653   9.648  0.0337 -0.0185 -0.0456
  138POPC   C3A 2084   3.441   3.389   9.473 -0.0202  0.2384  0.1478
  138POPC   C4A 2085   3.695   3.461   9.156 -0.0390  0.2421 -0.2123
  138POPC   C1B 2086   3.384   4.577   9.198  0.3183 -0.0448  0.0176
  138POPC   C2B 2087   3.702   4.448   9.073 -0.0790 -0.2218  0.1330
  138POPC   C3B 2088   3.895   4.501   8.638 -0.0156 -0.0939  0.3332
  138POPC   C4B 2089   3.888   4.886   8.477 -0.0830 -0.0933  0.0586
  139POPC   NC3 2090   2.546   1.764   9.372  0.0180 -0.0944  0.0470
  139POPC   PO4 2091   3.001   1.498   9.241  0.1119 -0.3158  0.2889
  139POPC   GL1 2092   2.637   1.580   8.929  0.1063 -0.1309 -0.0388
  139POPC   GL2 2093   2.726   1.350   8.735 -0.0938  0.2925 -0.0182
  139POPC   C1A 2094   2.242   1.436   8.625 -0.1960  0.0170 -0.0798
  139POPC   D2A 2095   2.142   1.317   8.194  0.2189 -0.2364  0.0802
  139POPC   C3A 2096   2.222   1.656   7.961  0.2193 -0.0248  0.3622
  139POPC   C4A 2097   2.395   1.715   7.461  0.2351  0.2140  0.3120
  139POPC   C1B 2098   2.601   1.449   8.325 -0.1079  0.1864  0.2969
  139POPC   C2B 2099   2.676   1.434   7.884 -0.0650 -0.3262 -0.0218
  139POPC   C3B 2100   2.914   1.606   7.377 -0.0497  0.1843  0.0946
  139POPC   C4B 2101   3.161   1.668   7.031  0.0069  0.1615  0.0877
  140POPC   NC3 2102   3.669   7.740   8.953  0.0189  0.0335  0.0723
  140POPC   PO4 2103   3.780   7.798   8.602 -0.3151 -0.1399 -0.2456
  140POPC   GL1 2104   3.876   7.726   8.180  0.0375 -0.1719  0.0788
  140POPC   GL2 2105   4.030   7.478   8.176 -0.1724 -0.1934  0.2099
  140POPC   C1A 2106   3.851   7.759   7.684 -0.2338  0.2301 -0.0570
  140POPC   D2A 2107   3.744   7.877   7.362  0.0196 -0.3336  0.1086
  140POPC   C3A 2108   3.998   7.779   6.953 -0.1124  0.0377  0.0267
  140POPC   C4A 2109   4.239   7.669   6.552  0.1755  0.2306  0.1515
  140POPC   C1B 2110   4.289   7.571   7.928 -0.2126 -0.1207 -0.1947
  140POPC   C2B 2111   4.764   7.756   7.709 -0.2081  0.2540 -0.1094
  140POPC   C3B 2112   5.049   7.727   7.266  0.1765 -0.0013 -0.0292
  140POPC   C4B 2113   5.233   7.638   6.786  0.0943 -0.0871 -0.2681
  141POPC   NC3 2114   6.876   3.153   8.506  0.1817  0.0561 -0.3589
  141POPC   PO4 2115   6.520   2.850   8.503  0.0190 -0.2996 -0.0844
  141POPC   GL1 2116   6.484   2.641   8.157  0.1512  0.0537  0.0389
  141POPC   GL2 2117   6.406   2.877   7.928 -0.0603 -0.2790  0.1982
  141POPC   C1A 2118   6.327   2.295   7.808  0.0222  0.1687  0.2659
  141POPC   D2A 2119   5.995   2.230   7.493  0.2102 -0.0542 -0.1715
  141POPC   C3A 2120   6.155   2.309   7.031 -0.1282  0.3617  0.0916
  141POPC   C4A 2121   6.589   2.569   6.861  0.1122 -0.2844  0.2891
  141POPC   C1B 2122   6.271   2.753   7.474 -0.3168  0.2491 -0.0718
  141POPC   C2B 2123   6.178   2.803   7.091  0.2881  0.0062 -0.4008
  141POPC   C3B 2124   6.142   2.723   6.682  0.1032  0.1501 -0.1869
  141POPC   C4B 2125   5.976   2.862   6.287  0.1594  0.1763 -0.1337
  142POPC   NC3 2126   3.381   1.544   9.557 -0.0597  0.1594 -0.0639
  142POPC   PO4 2127   3.478   1.412   9.122 -0.2648  0.0410 -0.0670
  142POPC   GL1 2128   3.528   1.217   8.657  0.0859  0.2106  0.0171
  142POPC   GL2 2129   3.171   1.120   8.548  0.0355  0.0678  0.3689
  142POPC   C1A 2130   3.650   1.398   8.277  0.0375 -0.0679 -0.3200
  142POPC   D2A 2131   3.650   1.463   7.839 -0.0400 -0.1326 -0.4357
  142POPC   C3A 2132   3.681   1.257   7.462  0.1398 -0.0828 -0.3403
  142POPC   C4A 2133   3.389   1.209   7.136  0.2841  0.2406  0.0282
  142POPC   C1B 2134   3.244   1.115   8.114 -0.1922 -0.2657 -0.0032
  142POPC   C2B 2135   3.211   1.230   7.635 -0.0471 -0.2242 -0.3313
  142POPC   C3B 2136   2.861   1.121   7.387  0.0340  0.1500 -0.2384
  142POPC   C4B 2137   2.413   1.138   7.309 -0.0082  0.2876 -0.0819
  143POPC   NC3 2138   0.869   8.208   8.571 -0.2059  0.0131  0.1797
  143POPC   PO4 2139   1.048   7.949   8.392 -0.1428  0.3103  0.2446
  143POPC   GL1 2140   1.035   8.126   8.048  0.2319 -0.3568  0.1815
  143POPC   GL2 2141   1.155   8.409   8.096  0.1111 -0.0040 -0.1102
  143POPC   C1A 2142   0.699   8.041   7.705  0.2365  0.0355  0.0560
  143POPC   D2A 2143   0.549   7.977   7.387  0.4326 -0.0919 -0.1523
  143POPC   C3A 2144   0.666   7.637   7.039  0.0878 -0.1879 -0.1921
  143POPC   C4A 2145   0.705   7.188   6.844 -0.0561  0.0828  0.4289
  143POPC   C1B 2146   1.257   8.351   7.635 -0.1671 -0.1632  0.0287
  143POPC   C2B 2147   1.478   8.235   7.210  0.1444  0.2562  0.2801
  143POPC   C3B 2148   1.734   8.045   6.891  0.2711  0.0473  0.0121
  143POPC   C4B 2149   1.862   7.630   6.790  0.2204  0.0940 -0.1964
  144POPC   NC3 2150   9.571   8.648   8.579 -0.1006 -0.5134  0.1457
  144POPC   PO4 2151  10.052   8.897   8.502  0.3588 -0.1250 -0.0177
  144POPC   GL1 2152  10.167   8.715   8.041  0.3636 -0.0742 -0.0780
  144POPC   GL2 2153  10.375   8.936   7.846 -0.1926 -0.0553 -0.0016
  144POPC   C1A 2154   9.918   8.769   7.654 -0.0510  0.1544  0.1129
  144POPC   D2A 2155   9.600   8.740   7.367 -0.0987 -0.0317  0.2320
  144POPC   C3A 2156   9.784   8.559   7.064 -0.0165 -0.1215  0.1001
  144POPC   C4A 2157  10.166   8.217   7.057  0.1362 -0.2294  0.1904
  144POPC   C1B 2158  10.173   9.216   7.593 -0.1556 -0.3081 -0.2484
  144POPC   C2B 2159  10.110   9.496   7.231 -0.0741  0.0796  0.0514
  144POPC   C3B 2160   9.595   9.546   7.100  0.0304 -0.1046  0.2331
  144POPC   C4B 2161   9.245   9.788   6.873 -0.1832 -0.1783 -0.0376
  145POPC   NC3 2162   2.891   7.369   8.719 -0.0920 -0.1135  0.0733
  145POPC   PO4 2163   2.717   6.910   8.690 -0.0681 -0.0039  0.2780
  145POPC   GL1 2164   2.560   6.822   8.325 -0.2845  0.1671 -0.0137
  145POPC   GL2 2165   2.594   6.447   8.377 -0.0418  0.0914 -0.0675
  145POPC   C1A 2166   2.441   6.685   7.898  0.2265  0.1297 -0.1224
  145POPC   D2A 2167   2.180   6.880   7.551 -0.0159 -0.0354  0.3557
  145POPC   C3A 2168   2.319   7.172   7.166 -0.2734  0.2255 -0.0410
  145POPC   C4A 2169   2.373   7.461   6.977  0.1201 -0.0337  0.0267
  145POPC   C1B 2170   2.908   6.222   8.165 -0.0997 -0.2715 -0.0054
  145POPC   C2B 2171   2.910   5.865   7.930  0.1991 -0.2551  0.0793
  145POPC   C3B 2172   2.556   5.654   7.692 -0.0748 -0.0090 -0.1318
  145POPC   C4B 2173   2.527   5.201   7.648 -0.2177 -0.0322  0.0816
  146POPC   NC3 2174   4.689   6.872   8.860 -0.2278  0.0775  0.0885
  146POPC   PO4 2175   4.204   7.054   8.853  0.1140  0.0113 -0.0213
  146POPC   GL1 2176   4.161   6.971   8.422  0.5245  0.0544  0.1924
  146POPC   GL2 2177   3.844   7.055   8.202  0.2530  0.3216  0.3612
  146POPC   C1A 2178   4.295   7.046   8.051 -0.2430 -0.0569 -0.0450
  146POPC   D2A 2179   4.183   6.970   7.619  0.0203  0.2660 -0.2044
  146POPC   C3A 2180   3.783   6.831   7.453 -0.2658 -0.0269  0.0769
  146POPC   C4A 2181   3.541   6.860   7.244  0.0949  0.3236 -0.0139
  146POPC   C1B 2182   3.630   7.243   7.804 -0.0482  0.0609 -0.1596
  146POPC   C2B 2183   3.708   7.359   7.426 -0.2842 -0.2038 -0.4391
  146POPC   C3B 2184   3.593   7.421   7.058 -0.1198 -0.1705  0.1495
  146POPC   C4B 2185   3.551   7.450   6.636  0.1797  0.3322  0.0274
  147POPC   NC3 2186   7.683   2.251   8.347  0.4504  0.1741 -0.0908
  147POPC   PO4 2187   7.697   2.601   8.183 -0.0316 -0.2742  0.0588
  147POPC   GL1 2188   7.919   2.235   7.781 -0.2493 -0.2732  0.0096
  147POPC   GL2 2189   8.148   2.319   7.843  0.0654  0.0391  0.2522
  147POPC   C1A 2190   8.039   1.924   7.411  0.0197  0.1210  0.1144
  147POPC   D2A 2191   8.097   1.776   6.987  0.0056  0.1272  0.2616
  147POPC   C3A 2192   7.825   1.449   6.897 -0.2710 -0.2786 -0.1682
  147POPC   C4A 2193   7.525   1.293   7.061  0.2667 -0.0510 -0.0720
  147POPC   C1B 2194   8.393   2.223   7.507 -0.0710 -0.3833  0.0249
  147POPC   C2B 2195   8.814   2.228   7.352 -0.1926 -0.0822  0.3452
  147POPC   C3B 2196   9.124   2.519   7.286  0.4276  0.1854 -0.1928
  147POPC   C4B 2197   9.559   2.669   7.390  0.0606 -0.1386 -0.2947
  148POPC   NC3 2198   7.445   9.040   9.175 -0.0402 -0.1107 -0.2807
  148POPC   PO4 2199   7.232   9.062   8.705  0.0123  0.3337 -0.1706
  148POPC   GL1 2200   7.114   9.118   8.333  0.0543  0.5328 -0.2387
  148POPC   GL2 2201   6.777   9.286   8.113  0.0308  0.1656  0.3195
  148POPC   C1A 2202   7.266   9.189   7.963 -0.2332 -0.0034 -0.0830
  148POPC   D2A 2203   7.286   9.503   7.775  0.0255 -0.0586 -0.0132
  148POPC   C3A 2204   7.657   9.647   7.517  0.0530  0.5149 -0.1645
  148POPC   C4A 2205   7.872   9.743   7.132 -0.2332  0.3159 -0.2201
  148POPC   C1B 2206   6.720   9.568   7.710  0.0162  0.2408 -0.1968
  148POPC   C2B 2207   6.813   9.681   7.312 -0.1884 -0.1185 -0.2818
  148POPC   C3B 2208   6.961   9.750   6.789 -0.0918 -0.3983  0.0907
  148POPC   C4B 2209   7.289   9.731   6.567 -0.3138  0.0434 -0.1319
  149POPC   NC3 2210   4.779   1.591   9.070  0.1482  0.0508 -0.1290
  149POPC   PO4 2211   4.339   1.647   8.860  0.1023  0.1688  0.0205
  149POPC   GL1 2212   4.218   1.444   8.530  0.1409 -0.1579  0.3432
  149POPC   GL2 2213   4.225   1.799   8.396  0.1013  0.3267 -0.2407
  149POPC   C1A 2214   4.126   1.405   8.056 -0.0405  0.0447  0.1591
  149POPC   D2A 2215   4.184   1.548   7.609 -0.2864  0.0334  0.0955
  149POPC   C3A 2216   4.259   1.230   7.280  0.1157  0.5905  0.3032
  149POPC   C4A 2217   4.098   1.119   6.844 -0.0100  0.1637 -0.3014
  149POPC   C1B 2218   4.510   1.752   8.009  0.1728 -0.0119 -0.0374
  149POPC   C2B 2219   4.698   1.492   7.668 -0.2745 -0.0376  0.0844
  149POPC   C3B 2220   4.730   1.159   7.337  0.0012  0.1418  0.1137
  149POPC   C4B 2221   4.581   1.148   6.877  0.0849 -0.2936  0.1272
  150POPC   NC3 2222   7.746   5.639   4.371  0.2029  0.1536 -0.0771
  150POPC   PO4 2223   7.374   5.390   4.356  0.1154 -0.0615  0.1885
  150POPC   GL1 2224   7.168   5.313   4.771  0.0969 -0.1561 -0.0564
  150POPC   GL2 2225   7.308   5.171   5.082  0.3357 -0.1551  0.3728
  150POPC   C1A 2226   6.799   5.261   5.146 -0.0654 -0.0439 -0.1532
  150POPC   D2A 2227   6.831   5.285   5.600  0.2307  0.3545 -0.0968
  150POPC   C3A 2228   6.456   5.373   5.895  0.0696  0.1070  0.1141
  150POPC   C4A 2229   6.328   5.602   6.259  0.1305 -0.3244  0.2222
  150POPC   C1B 2230   7.262   5.391   5.456 -0.4473  0.0626 -0.1826
  150POPC   C2B 2231   7.205   5.605   5.868  0.0555 -0.0939  0.2928
  150POPC   C3B 2232   7.315   5.919   5.974  0.2638  0.2357  0.3102
  150POPC   C4B 2233   7.434   6.288   5.946 -0.0897 -0.2907  0.1638
  151POPC   NC3 2234   2.862   5.647   3.899 -0.0142  0.1323 -0.0721
  151POPC   PO4 2235   2.399   5.639   4.073 -0.3281 -0.3244  0.0541
  151POPC   GL1 2236   2.332   5.653   4.571 -0.0667  0.0549 -0.0491
  151POPC   GL2 2237   2.180   6.000   4.591 -0.4170 -0.0601  0.2149
  151POPC   C1A 2238   2.601   5.693   4.882  0.2148 -0.3338  0.1179
  151POPC   D2A 2239   2.538   5.667   5.346 -0.2374 -0.1549 -0.1240
  151POPC   C3A 2240   2.800   5.505   5.584 -0.3237 -0.1421 -0.1477
  151POPC   C4A 2241   2.980   5.093   5.525 -0.3633  0.2280 -0.2286
  151POPC   C1B 2242   2.081   5.822   4.981  0.1770 -0.4992  0.0933
  151POPC   C2B 2243   2.061   5.628   5.447 -0.2873 -0.1016 -0.1584
  151POPC   C3B 2244   1.988   5.854   5.805 -0.0921  0.1286  0.0650
  151POPC   C4B 2245   2.000   6.014   6.199  0.0499 -0.0382  0.2536
  152POPC   NC3 2246   1.438   4.061   4.059  0.0722  0.0375  0.4631
  152POPC   PO4 2247   1.005   4.264   4.118 -0.0254  0.0515 -0.3632
  152POPC   GL1 2248   1.227   4.382   4.450 -0.0054  0.1469  0.1606
  152POPC   GL2 2249   1.007   4.548   4.582  0.0318  0.0771  0.0861
  152POPC   C1A 2250   1.489   4.384   4.826 -0.0947 -0.1142 -0.0265
  152POPC   D2A 2251   1.723   4.083   5.083  0.0382 -0.3127 -0.0659
  152POPC   C3A 2252   1.961   3.955   4.964 -0.1874  0.1094 -0.2637
  152POPC   C4A 2253   2.210   3.887   4.738  0.2165  0.3673 -0.3014
  152POPC   C1B 2254   1.175   4.835   4.888 -0.1310 -0.0180  0.4124
  152POPC   C2B 2255   1.339   4.657   5.222 -0.1108  0.1017 -0.2153
  152POPC   C3B 2256   1.731   4.485   5.406  0.0152  0.2386  0.0732
  152POPC   C4B 2257   2.041   4.163   5.467 -0.0363  0.0170 -0.2566
  153POPC   NC3 2258   0.480   0.357   4.795 -0.0058 -0.0839 -0.1608
  153POPC   PO4 2259   0.448  -0.120   4.919  0.1187 -0.0416 -0.1916
  153POPC   GL1 2260   0.390  -0.214   5.388  0.0386  0.0868 -0.2216
  153POPC   GL2 2261   0.158  -0.049   5.558 -0.0601 -0.2348  0.0088
  153POPC   C1A 2262   0.466  -0.588   5.657 -0.1375 -0.2502  0.0912
  153POPC   D2A 2263   0.379  -0.687   6.088  0.0389  0.1054 -0.2457
  153POPC   C3A 2264   0.454  -1.024   6.522  0.0951  0.2237 -0.1412
  153POPC   C4A 2265   0.363  -1.290   6.846 -0.1434  0.2966 -0.3374
  153POPC   C1B 2266   0.156   0.305   5.806  0.2703  0.1396  0.0604
  153POPC   C2B 2267   0.261   0.738   5.909 -0.2257  0.1076  0.1479
  153POPC   C3B 2268   0.300   1.148   6.020  0.0034  0.1921 -0.2111
  153POPC   C4B 2269   0.004   1.336   6.359  0.1521  0.3146 -0.1453
  154POPC   NC3 2270   5.063   0.655   4.896  0.3434  0.3155 -0.0971
  154POPC   PO4 2271   5.254   0.940   4.617  0.1188  0.1854 -0.0034
  154POPC   GL1 2272   5.229   1.103   5.026  0.0690 -0.0243 -0.1302
  154POPC   GL2 2273   4.963   1.295   4.984  0.0215 -0.0932 -0.0698
  154POPC   C1A 2274   5.433   1.332   5.194  0.1158 -0.1794  0.2465
  154POPC   D2A 2275   5.343   1.542   5.567 -0.0972 -0.1418  0.0788
  154POPC   C3A 2276   5.340   1.393   6.020 -0.0898  0.0149  0.2268
  154POPC   C4A 2277   5.573   1.249   6.455  0.0889 -0.1011 -0.3889
  154POPC   C1B 2278   4.853   1.325   5.397 -0.0726  0.1837 -0.0345
  154POPC   C2B 2279   4.675   1.528   5.742 -0.0200  0.3234  0.1130
  154POPC   C3B 2280   4.834   1.484   6.186  0.1982 -0.0171 -0.0596
  154POPC   C4B 2281   5.182   1.562   6.469 -0.1250 -0.0754  0.1596
  155POPC   NC3 2282   9.087   5.164   4.344  0.0965 -0.1350 -0.1322
  155POPC   PO4 2283   8.893   5.383   4.640  0.1071  0.0077  0.2985
  155POPC   GL1 2284   9.009   5.689   4.942 -0.0438  0.1660 -0.0553
  155POPC   GL2 2285   9.064   5.562   5.202  0.3099 -0.1758  0.1257
  155POPC   C1A 2286   8.848   6.082   5.209 -0.1548  0.0432 -0.0784
  155POPC   D2A 2287   9.158   6.159   5.491 -0.0002  0.1378  0.2797
  155POPC   C3A 2288   9.465   5.768   5.608  0.0304 -0.0375 -0.1853
  155POPC   C4A 2289   9.765   5.691   5.978  0.0012 -0.0873 -0.0526
  155POPC   C1B 2290   8.930   5.398   5.569  0.2831 -0.0781  0.2045
  155POPC   C2B 2291   8.563   5.483   5.857  0.1232  0.0030  0.1758
  155POPC   C3B 2292   8.439   5.279   6.252  0.1000 -0.1291  0.1303
  155POPC   C4B 2293   8.147   5.148   6.511  0.0146  0.0646 -0.0365
  156POPC   NC3 2294   8.980   6.198   4.551 -0.0240  0.1628 -0.2427
  156POPC   PO4 2295   8.825   6.502   4.624 -0.4284 -0.1690 -0.2467
  156POPC   GL1 2296   8.677   6.515   4.980 -0.0151 -0.0166  0.0093
  156POPC   GL2 2297   8.460   6.703   5.039 -0.0880  0.0245 -0.2179
  156POPC   C1A 2298   8.564   6.437   5.417 -0.3366 -0.2901  0.1828
  156POPC   D2A 2299   8.409   6.182   5.836 -0.2334  0.0332  0.3257
  156POPC   C3A 2300   8.070   6.290   6.042  0.1125  0.1516 -0.3585
  156POPC   C4A 2301   7.789   6.365   6.425 -0.2621 -0.2239  0.2608
  156POPC   C1B 2302   8.633   6.961   5.488 -0.0023  0.2141  0.4139
  156POPC   C2B 2303   8.382   7.184   5.821  0.0206  0.3570 -0.1265
  156POPC   C3B 2304   8.328   7.080   6.203  0.0610 -0.0368 -0.0274
  156POPC   C4B 2305   8.451   7.078   6.596  0.3793  0.2680 -0.2444
  157POPC   NC3 2306   8.406   1.881   5.190 -0.0179  0.0919 -0.1029
  157POPC   PO4 2307   8.812   1.994   5.084 -0.0229 -0.0955  0.0166
  157POPC   GL1 2308   8.599   2.280   5.394  0.0020  0.3387  0.1640
  157POPC   GL2 2309   8.211   2.364   5.301 -0.0311  0.0483  0.0760
  157POPC   C1A 2310   8.502   2.589   5.714  0.1801 -0.0922 -0.0258
  157POPC   D2A 2311   8.454   3.007   5.655  0.1212  0.0448  0.0615
  157POPC   C3A 2312   8.331   3.152   6.100 -0.3692 -0.0817  0.1480
  157POPC   C4A 2313   8.326   3.547   6.245  0.1711  0.0036  0.3105
  157POPC   C1B 2314   8.065   2.241   5.672  0.2465  0.1019 -0.1172
  157POPC   C2B 2315   7.943   2.063   6.118  0.0158 -0.2424 -0.2446
  157POPC   C3B 2316   7.704   2.453   6.366 -0.1229 -0.1825 -0.2803
  157POPC   C4B 2317   7.479   2.790   6.498  0.1974  0.0555  0.1039
  158POPC   NC3 2318   8.248   0.399   4.949  0.0320 -0.2220 -0.1065
  158POPC   PO4 2319   8.206   0.874   5.002  0.1227  0.4372  0.0507
  158POPC   GL1 2320   7.980   0.609   5.369  0.1647  0.1200  0.0511
  158POPC   GL2 2321   8.120   0.760   5.639 -0.0763  0.2635  0.3253
  158POPC   C1A 2322   7.602   0.571   5.610  0.1536 -0.2529  0.0373
  158POPC   D2A 2323   7.318   0.671   5.919  0.1973 -0.0478  0.0536
  158POPC   C3A 2324   7.260   1.070   5.823  0.1054 -0.0529 -0.2810
  158POPC   C4A 2325   7.124   1.514   6.044  0.2711  0.0670 -0.0167
  158POPC   C1B 2326   8.483   0.359   5.627  0.1801  0.2052  0.1247
  158POPC   C2B 2327   8.660   0.150   6.030 -0.0561 -0.4418  0.5281
  158POPC   C3B 2328   8.470   0.000   6.443 -0.1529 -0.1269  0.0618
  158POPC   C4B 2329   8.190   0.209   6.792  0.2331 -0.0702 -0.0183
  159POPC   NC3 2330   6.978   2.869   3.977  0.0005  0.0170  0.1760
  159POPC   PO4 2331   6.585   2.984   4.036  0.2016  0.0824  0.1086
  159POPC   GL1 2332   6.597   2.792   4.424  0.2205  0.2288  0.0670
  159POPC   GL2 2333   6.315   2.940   4.552  0.1974 -0.0599  0.4477
  159POPC   C1A 2334   6.690   2.737   4.825  0.2101 -0.1282  0.1780
  159POPC   D2A 2335   7.014   2.469   5.026 -0.1607  0.0881  0.0648
  159POPC   C3A 2336   7.295   2.548   5.367 -0.1548 -0.1171 -0.0628
  159POPC   C4A 2337   7.708   2.416   5.401  0.0468 -0.0451  0.1004
  159POPC   C1B 2338   6.008   3.162   4.795 -0.0278 -0.1455  0.0698
  159POPC   C2B 2339   5.799   3.124   5.214 -0.0751  0.0576  0.0433
  159POPC   C3B 2340   5.466   2.949   5.491  0.0184 -0.0048  0.0240
  159POPC   C4B 2341   5.222   2.886   5.883 -0.1817  0.0665  0.1544
  160POPC   NC3 2342   5.110   8.064   4.738  0.2602 -0.0465 -0.1826
  160POPC   PO4 2343   4.949   8.434   4.790  0.0165 -0.0802  0.0246
  160POPC   GL1 2344   4.645   8.475   5.063 -0.0445  0.0977 -0.0398
  160POPC   GL2 2345   4.337   8.460   5.057  0.0161 -0.2518  0.1188
  160POPC   C1A 2346   4.793   8.642   5.412  0.5517 -0.0225  0.0889
  160POPC   D2A 2347   4.550   8.874   5.785 -0.3776  0.0276 -0.2465
  160POPC   C3A 2348   4.862   9.189   5.975  0.2133 -0.3068  0.1982
  160POPC   C4A 2349   4.939   9.626   5.670  0.0990  0.1531  0.1978
  160POPC   C1B 2350   4.004   8.291   5.252  0.2433 -0.1828 -0.0384
  160POPC   C2B 2351   3.896   7.981   5.408  0.1087 -0.2214  0.0705
  160POPC   C3B 2352   3.695   7.753   5.665  0.2784  0.0268 -0.1836
  160POPC   C4B 2353   3.431   7.633   6.146  0.1943  0.0855  0.0847
  161POPC   NC3 2354   7.680   0.599   4.954 -0.0215 -0.0231 -0.0863
  161POPC   PO4 2355   7.701   1.124   4.802  0.2656 -0.0129 -0.2911
  161POPC   GL1 2356   7.705   1.024   5.239  0.1848  0.1650 -0.0511
  161POPC   GL2 2357   7.550   1.359   5.326 -0.1708  0.4344  0.1166
  161POPC   C1A 2358   7.749   1.082   5.694  0.0974 -0.3907  0.0638
  161POPC   D2A 2359   7.618   1.253   6.097 -0.1513 -0.0052  0.2039
  161POPC   C3A 2360   7.852   1.590   6.341 -0.0783 -0.0036  0.0488
  161POPC   C4A 2361   8.178   1.861   6.497 -0.1834 -0.2647 -0.1050
  161POPC   C1B 2362   7.486   1.579   5.730 -0.0907  0.0793  0.1561
  161POPC   C2B 2363   7.466   1.870   6.222 -0.2215 -0.1696 -0.0874
  161POPC   C3B 2364   7.266   2.199   6.406 -0.0203  0.0721  0.0087
  161POPC   C4B 2365   6.982   2.367   6.565  0.2980 -0.0111 -0.3896
  162POPC   NC3 2366   3.245   6.508   4.335 -0.1139  0.1045  0.1879
  162POPC   PO4 2367   3.683   6.558   4.290 -0.0741 -0.0466 -0.2979
  162POPC   GL1 2368   3.637   6.524   4.680 -0.0883  0.1076  0.0397
  162POPC   GL2 2369   3.831   6.757   4.838  0.0870 -0.0098 -0.2796
  162POPC   C1A 2370   3.365   6.340   5.067  0.1169  0.0682  0.1896
  162POPC   D2A 2371   3.105   6.455   5.360 -0.0554  0.3476  0.0966
  162POPC   C3A 2372   3.390   6.396   5.658  0.1473 -0.0036  0.2326
  162POPC   C4A 2373   3.880   6.279   5.667  0.2771 -0.0149  0.0026
  162POPC   C1B 2374   3.922   7.088   5.229  0.3329  0.0407 -0.2286
  162POPC   C2B 2375   3.914   6.969   5.563 -0.1111 -0.2411  0.2538
  162POPC   C3B 2376   3.987   6.818   5.984 -0.1099  0.1089 -0.1797
  162POPC   C4B 2377   3.938   6.670   6.321  0.0638 -0.0079 -0.2361
  163POPC   NC3 2378   9.918   2.346   4.542 -0.5044  0.0784 -0.1573
  163POPC   PO4 2379   9.978   2.151   4.862 -0.0747  0.4543 -0.0449
  163POPC   GL1 2380  10.071   2.123   5.272  0.1873 -0.2840  0.1704
  163POPC   GL2 2381   9.802   2.106   5.484 -0.1966  0.0413 -0.1469
  163POPC   C1A 2382  10.302   2.066   5.684 -0.1578 -0.0780 -0.0847
  163POPC   D2A 2383  10.536   2.025   6.120  0.0790  0.3352  0.3264
  163POPC   C3A 2384  10.929   1.792   6.200 -0.0633 -0.0394 -0.0249
  163POPC   C4A 2385  11.041   1.490   6.455  0.1587 -0.1599 -0.3341
  163POPC   C1B 2386   9.901   1.893   5.924 -0.2481 -0.2491 -0.3045
  163POPC   C2B 2387   9.687   1.741   6.181  0.2566 -0.0654  0.5790
  163POPC   C3B 2388   9.305   1.955   6.436 -0.3343  0.0382  0.0006
  163POPC   C4B 2389   9.099   2.294   6.631  0.3344  0.0600 -0.3399
  164POPC   NC3 2390   8.720   3.448   4.284 -0.2159  0.0223  0.1744
  164POPC   PO4 2391   9.048   3.420   4.699  0.0013  0.2226 -0.1944
  164POPC   GL1 2392   9.203   3.696   4.943 -0.0703  0.0142 -0.1527
  164POPC   GL2 2393   9.318   3.475   5.137  0.2708  0.2062 -0.4385
  164POPC   C1A 2394   9.367   3.978   5.246 -0.0965 -0.2706 -0.1576
  164POPC   D2A 2395   9.185   4.109   5.750  0.2017 -0.0640  0.1472
  164POPC   C3A 2396   9.324   3.935   6.181  0.0231  0.0512 -0.0041
  164POPC   C4A 2397   9.340   3.503   6.452  0.0632 -0.0559 -0.1011
  164POPC   C1B 2398   9.446   3.579   5.582 -0.1284 -0.1757  0.0099
  164POPC   C2B 2399   9.607   3.447   6.067  0.0850 -0.0426  0.0975
  164POPC   C3B 2400   9.788   3.273   6.504  0.2179 -0.2310 -0.0307
  164POPC   C4B 2401  10.205   3.204   6.650  0.1361 -0.2754 -0.2897
  165POPC   NC3 2402   6.144   6.669   4.227  0.1323 -0.2709 -0.1199
  165POPC   PO4 2403   6.070   6.397   4.113 -0.1080  0.0249 -0.1249
  165POPC   GL1 2404   6.248   6.333   4.548 -0.1896  0.1541 -0.1137
  165POPC   GL2 2405   6.079   6.296   4.650  0.1110 -0.0244 -0.2082
  165POPC   C1A 2406   6.451   6.600   4.884 -0.0732  0.3120 -0.1491
  165POPC   D2A 2407   6.482   6.738   5.375 -0.1049  0.0374 -0.1198
  165POPC   C3A 2408   6.068   6.673   5.708 -0.1713 -0.0489  0.0416
  165POPC   C4A 2409   5.921   6.472   6.048  0.2797  0.0268 -0.2011
  165POPC   C1B 2410   6.057   6.259   5.084  0.1539  0.2305  0.4035
  165POPC   C2B 2411   6.158   5.741   5.215 -0.1642  0.1433  0.1253
  165POPC   C3B 2412   6.366   5.371   5.400 -0.0244 -0.1540  0.0339
  165POPC   C4B 2413   6.072   5.063   5.538 -0.0563  0.0909 -0.5530
  166POPC   NC3 2414   7.988   1.525   4.836  0.0568 -0.3924 -0.2135
  166POPC   PO4 2415   8.106   1.485   5.227  0.1130  0.4015 -0.2188
  166POPC   GL1 2416   8.256   1.233   5.603  0.3970 -0.1145  0.2927
  166POPC   GL2 2417   8.584   1.060   5.671 -0.1086 -0.2008 -0.1725
  166POPC   C1A 2418   8.141   1.074   6.016 -0.1260  0.1139  0.2588
  166POPC   D2A 2419   8.120   1.209   6.447 -0.2001  0.0405 -0.3195
  166POPC   C3A 2420   8.304   1.227   6.972 -0.2865  0.0070  0.1523
  166POPC   C4A 2421   8.164   1.330   7.313  0.0946  0.1539 -0.0596
  166POPC   C1B 2422   8.657   1.536   5.691  0.1520  0.1712 -0.0741
  166POPC   C2B 2423   8.435   1.955   5.890 -0.1288 -0.0407  0.1940
  166POPC   C3B 2424   8.392   2.381   6.144 -0.1686  0.2298  0.1210
  166POPC   C4B 2425   8.466   2.804   6.375  0.0694 -0.0883 -0.1033
  167POPC   NC3 2426   0.525   6.954   4.341 -0.3640 -0.1217 -0.0294
  167POPC   PO4 2427   0.083   6.854   4.428 -0.1324 -0.2271  0.0380
  167POPC   GL1 2428   0.374   6.868   4.832 -0.1273 -0.0956  0.2740
  167POPC   GL2 2429   0.389   6.561   4.902 -0.0368  0.2081  0.2752
  167POPC   C1A 2430   0.506   7.071   5.282  0.0289  0.2114  0.1482
  167POPC   D2A 2431   0.750   7.232   5.658  0.0297 -0.1612  0.1473
  167POPC   C3A 2432   0.626   7.169   6.106  0.0675  0.2387  0.0330
  167POPC   C4A 2433   0.459   6.886   6.420  0.5058 -0.1292  0.0918
  167POPC   C1B 2434   0.110   6.739   5.245  0.1720  0.0320  0.0493
  167POPC   C2B 2435  -0.109   7.072   5.462 -0.0984  0.3277  0.3514
  167POPC   C3B 2436  -0.367   7.376   5.581  0.0077 -0.0579 -0.3090
  167POPC   C4B 2437  -0.696   7.337   5.878  0.0614 -0.1283 -0.0838
  168POPC   NC3 2438   2.541   8.594   3.831  0.0711  0.1563 -0.1019
  168POPC   PO4 2439   2.519   8.608   4.348  0.1636  0.0570  0.4754
  168POPC   GL1 2440   2.652   8.522   4.826  0.0434 -0.1481 -0.0667
  168POPC   GL2 2441   2.930   8.314   4.884  0.2427  0.3365  0.2455
  168POPC   C1A 2442   2.587   8.489   5.329  0.0679 -0.1134  0.1172
  168POPC   D2A 2443   2.908   8.420   5.624 -0.0670  0.1458  0.0416
  168POPC   C3A 2444   3.124   8.119   5.772  0.0297 -0.2542 -0.0810
  168POPC   C4A 2445   3.579   8.114   5.995  0.2612 -0.1001 -0.1264
  168POPC   C1B 2446   3.166   8.318   5.177 -0.0247  0.2635  0.0929
  168POPC   C2B 2447   3.493   8.353   5.569  0.1365 -0.1020 -0.0320
  168POPC   C3B 2448   3.899   8.406   5.771  0.3499  0.1582 -0.2590
  168POPC   C4B 2449   4.161   8.785   6.053  0.1775 -0.3178 -0.3301
  169POPC   NC3 2450   2.469   2.450   4.176 -0.1506  0.0473  0.1208
  169POPC   PO4 2451   2.154   2.569   4.368  0.1055 -0.0269  0.1577
  169POPC   GL1 2452   2.022   2.773   4.796  0.0402 -0.0651 -0.1721
  169POPC   GL2 2453   2.147   2.506   4.984  0.1355 -0.0219 -0.0446
  169POPC   C1A 2454   2.081   3.024   5.189  0.1574 -0.3570  0.1763
  169POPC   D2A 2455   2.358   3.303   5.413 -0.1431 -0.1541 -0.3029
  169POPC   C3A 2456   2.666   3.246   5.808 -0.0952  0.1571 -0.0494
  169POPC   C4A 2457   2.705   2.910   6.169 -0.0176  0.1248  0.3815
  169POPC   C1B 2458   2.514   2.798   4.932  0.2052 -0.1264  0.3547
  169POPC   C2B 2459   2.851   2.614   4.994  0.2422  0.2675 -0.1265
  169POPC   C3B 2460   3.293   2.521   4.927  0.2860 -0.1831  0.0961
  169POPC   C4B 2461   3.573   2.572   5.172 -0.3897  0.3370 -0.0276
  170POPC   NC3 2462   7.003   6.551   3.719 -0.5575 -0.1861 -0.1078
  170POPC   PO4 2463   7.009   6.868   4.049  0.1126 -0.1009  0.0875
  170POPC   GL1 2464   7.078   6.978   4.597  0.0962  0.0780 -0.2574
  170POPC   GL2 2465   7.066   6.615   4.635  0.2336  0.1017 -0.1976
  170POPC   C1A 2466   7.432   6.985   4.867 -0.1217 -0.3495  0.0721
  170POPC   D2A 2467   7.646   7.045   5.300  0.1194 -0.0414  0.0568
  170POPC   C3A 2468   7.731   7.246   5.738  0.1899 -0.1229  0.2222
  170POPC   C4A 2469   7.958   7.348   5.971 -0.3001  0.0628 -0.3925
  170POPC   C1B 2470   7.044   6.712   5.016 -0.1328  0.2038 -0.4075
  170POPC   C2B 2471   7.133   6.778   5.435  0.2444 -0.0379 -0.1966
  170POPC   C3B 2472   6.914   6.651   5.762  0.0211 -0.3229  0.0426
  170POPC   C4B 2473   7.052   6.534   6.133  0.0496 -0.1571 -0.3025
  171POPC   NC3 2474   9.217   7.755   5.056 -0.0352 -0.0025  0.1346
  171POPC   PO4 2475   9.082   8.176   4.953  0.4466 -0.2866  0.2076
  171POPC   GL1 2476   9.078   8.151   5.392  0.1962  0.1225  0.0061
  171POPC   GL2 2477   9.247   7.736   5.542  0.1946 -0.0398 -0.1095
  171POPC   C1A 2478   8.853   7.924   5.686  0.0664 -0.1140 -0.1238
  171POPC   D2A 2479   8.752   8.034   6.055 -0.0878 -0.1223 -0.1654
  171POPC   C3A 2480   8.710   7.904   6.463 -0.1279  0.0948 -0.0105
  171POPC   C4A 2481   8.539   8.054   6.829 -0.2787 -0.2216 -0.0131
  171POPC   C1B 2482   9.316   7.863   5.906  0.5639 -0.2234  0.0813
  171POPC   C2B 2483   9.205   8.047   6.309 -0.2972  0.0483  0.0590
  171POPC   C3B 2484   8.966   8.380   6.532 -0.0789  0.1006 -0.0246
  171POPC   C4B 2485   8.933   8.827   6.627  0.0998 -0.0173  0.0634
  172POPC   NC3 2486   2.568   0.660   4.755  0.1164  0.0377 -0.1945
  172POPC   PO4 2487   2.076   0.899   4.835 -0.0213 -0.0906 -0.1527
  172POPC   GL1 2488   2.123   0.943   5.322  0.0430  0.0369  0.0770
  172POPC   GL2 2489   1.965   0.736   5.427  0.0872  0.1454  0.1379
  172POPC   C1A 2490   2.347   1.062   5.659 -0.1337  0.3963 -0.1552
  172POPC   D2A 2491   2.476   1.345   5.897 -0.0798 -0.0351 -0.0828
  172POPC   C3A 2492   2.198   1.479   6.177  0.0318  0.0369 -0.1212
  172POPC   C4A 2493   1.946   1.481   6.531  0.0759  0.0415 -0.1751
  172POPC   C1B 2494   1.703   0.590   5.670 -0.0554 -0.0700 -0.1410
  172POPC   C2B 2495   1.637   0.691   6.105  0.1655 -0.0461 -0.1413
  172POPC   C3B 2496   1.775   0.633   6.559 -0.1405  0.1801  0.3070
  172POPC   C4B 2497   1.663   0.270   6.786  0.2649 -0.0349 -0.5107
  173POPC   NC3 2498   7.510   9.857   4.551 -0.4068  0.0982  0.0850
  173POPC   PO4 2499   7.350  10.108   4.845 -0.1922 -0.0127 -0.2266
  173POPC   GL1 2500   7.483  10.061   5.242  0.0203 -0.0160  0.0467
  173POPC   GL2 2501   7.468   9.870   5.412  0.0637  0.1161 -0.0906
  173POPC   C1A 2502   7.225  10.203   5.642 -0.2238 -0.0939  0.0133
  173POPC   D2A 2503   7.000  10.297   6.115  0.1707  0.1205 -0.1771
  173POPC   C3A 2504   6.938   9.826   6.218 -0.2517 -0.0117 -0.0263
  173POPC   C4A 2505   7.067   9.341   6.165  0.1035  0.1856  0.1903
  173POPC   C1B 2506   7.909  10.099   5.476 -0.1829  0.1127  0.1883
  173POPC   C2B 2507   8.096  10.244   5.864  0.1794  0.0426 -0.1382
  173POPC   C3B 2508   7.970  10.005   6.307  0.0446  0.1338  0.2592
  173POPC   C4B 2509   7.770  10.047   6.643  0.3045  0.1188 -0.0928
  174POPC   NC3 2510   4.335   6.582   3.970 -0.1914  0.0747  0.0666
  174POPC   PO4 2511   4.774   6.538   4.106 -0.0712 -0.2626  0.1114
  174POPC   GL1 2512   4.953   6.458   4.447 -0.0042  0.0654  0.0089
  174POPC   GL2 2513   5.163   6.735   4.695  0.0920  0.1884 -0.0447
  174POPC   C1A 2514   4.975   6.249   4.814 -0.1216 -0.0367 -0.3352
  174POPC   D2A 2515   4.993   6.231   5.221 -0.2466 -0.3332 -0.0450
  174POPC   C3A 2516   4.805   5.996   5.414  0.2002 -0.2187  0.0252
  174POPC   C4A 2517   4.722   5.593   5.489  0.0733 -0.0313 -0.0098
  174POPC   C1B 2518   5.240   6.640   5.022 -0.0193  0.0225  0.0499
  174POPC   C2B 2519   5.226   6.654   5.446 -0.2088 -0.5505 -0.1169
  174POPC   C3B 2520   5.306   6.652   5.893 -0.1143 -0.1329 -0.1288
  174POPC   C4B 2521   5.442   6.335   6.227 -0.1720  0.3203 -0.0702
  175POPC   NC3 2522   9.885   4.602   4.398 -0.1331  0.4025  0.1238
  175POPC   PO4 2523   9.960   4.120   4.546 -0.2696  0.1715 -0.4294
  175POPC   GL1 2524  10.359   4.111   4.866 -0.4472  0.0181  0.0177
  175POPC   GL2 2525  10.742   4.152   4.759  0.0697 -0.4517 -0.0242
  175POPC   C1A 2526  10.504   4.223   5.323  0.0625  0.0137  0.2040
  175POPC   D2A 2527  10.822   4.020   5.641 -0.0690 -0.1327 -0.0244
  175POPC   C3A 2528  11.106   4.167   5.943  0.0654 -0.3819 -0.2618
  175POPC   C4A 2529  11.478   4.439   5.904 -0.3040  0.1566 -0.1217
  175POPC   C1B 2530  10.975   4.176   5.089  0.2547  0.0271  0.3373
  175POPC   C2B 2531  11.307   4.130   5.488  0.1489 -0.5243 -0.2119
  175POPC   C3B 2532  11.607   3.965   5.741 -0.2964 -0.1043  0.1985
  175POPC   C4B 2533  11.673   4.000   6.111  0.1890  0.0247 -0.0011
  176POPC   NC3 2534   4.810   1.876   3.854 -0.1506  0.1860  0.1190
  176POPC   PO4 2535   4.412   1.671   3.865  0.1472 -0.1504  0.0119
  176POPC   GL1 2536   4.276   1.761   4.209 -0.1586 -0.2127 -0.0921
  176POPC   GL2 2537   4.558   1.790   4.496 -0.1906 -0.0313 -0.0676
  176POPC   C1A 2538   4.045   1.982   4.484  0.1685  0.0890  0.1365
  176POPC   D2A 2539   4.114   1.880   4.847  0.0506 -0.1446  0.1391
  176POPC   C3A 2540   3.782   1.996   5.141 -0.2030  0.1935  0.1607
  176POPC   C4A 2541   3.389   2.006   5.395 -0.3150 -0.2181  0.2405
  176POPC   C1B 2542   4.660   2.076   4.890  0.0654  0.1522  0.0093
  176POPC   C2B 2543   4.512   2.193   5.298 -0.2404 -0.1293  0.0309
  176POPC   C3B 2544   4.542   2.135   5.741 -0.1215  0.1854  0.1513
  176POPC   C4B 2545   4.585   1.930   6.077 -0.2006 -0.4410  0.1000
  177POPC   NC3 2546   3.750   7.778   4.631 -0.0551 -0.1030 -0.0219
  177POPC   PO4 2547   3.458   8.088   4.642 -0.1228 -0.0145 -0.0086
  177POPC   GL1 2548   3.501   8.005   5.006 -0.2497 -0.0018  0.1323
  177POPC   GL2 2549   3.666   7.612   5.115  0.0463  0.2943 -0.1023
  177POPC   C1A 2550   3.271   7.819   5.399  0.2310  0.1144 -0.0435
  177POPC   D2A 2551   3.017   7.670   5.660 -0.0048 -0.1159  0.3988
  177POPC   C3A 2552   3.159   7.327   5.834 -0.1234  0.3626  0.1969
  177POPC   C4A 2553   3.371   6.949   5.782 -0.0615 -0.0300  0.2106
  177POPC   C1B 2554   3.488   7.380   5.467 -0.3495  0.1084  0.5895
  177POPC   C2B 2555   3.718   7.305   5.842 -0.3450  0.4682  0.3633
  177POPC   C3B 2556   3.562   7.119   6.239 -0.2822 -0.5019  0.1618
  177POPC   C4B 2557   3.244   6.905   6.482  0.1421  0.1063 -0.0616
  178POPC   NC3 2558   0.447   8.689   4.682  0.0958  0.4321 -0.1375
  178POPC   PO4 2559   0.409   8.284   4.649 -0.0163  0.1897  0.2159
  178POPC   GL1 2560   0.546   7.971   4.970  0.1412 -0.3785  0.1572
  178POPC   GL2 2561   0.841   7.837   4.918  0.3183  0.0281 -0.0457
  178POPC   C1A 2562   0.692   8.073   5.314 -0.1338  0.1055  0.1676
  178POPC   D2A 2563   0.491   8.345   5.599 -0.1127  0.1825 -0.4221
  178POPC   C3A 2564   0.506   8.278   6.015  0.1425  0.2399  0.0013
  178POPC   C4A 2565   0.266   7.999   6.233 -0.1775  0.2348 -0.3702
  178POPC   C1B 2566   0.659   7.555   5.263 -0.1864  0.1718 -0.0352
  178POPC   C2B 2567   0.499   7.795   5.689 -0.1983 -0.0258 -0.1231
  178POPC   C3B 2568   0.575   7.684   6.059 -0.0915 -0.1221  0.1460
  178POPC   C4B 2569   0.409   7.494   6.407 -0.3672  0.0658  0.1842
  179POPC   NC3 2570   0.163   7.842   4.630 -0.2784  0.1665  0.2336
  179POPC   PO4 2571  -0.206   7.539   4.876 -0.0848 -0.2509  0.0047
  179POPC   GL1 2572  -0.245   7.760   5.272  0.1110  0.0212  0.3265
  179POPC   GL2 2573  -0.423   8.068   5.243 -0.1544 -0.0975 -0.0788
  179POPC   C1A 2574  -0.085   7.874   5.731  0.0121  0.1262  0.1609
  179POPC   D2A 2575  -0.231   8.018   6.083 -0.1367 -0.1109 -0.0788
  179POPC   C3A 2576  -0.308   7.810   6.575  0.0161  0.1607 -0.1178
  179POPC   C4A 2577  -0.316   7.460   6.890 -0.2354 -0.2125 -0.1439
  179POPC   C1B 2578  -0.457   8.240   5.638 -0.3008 -0.2584 -0.0153
  179POPC   C2B 2579  -0.525   8.433   6.069 -0.0707 -0.2039  0.3124
  179POPC   C3B 2580  -0.544   8.960   6.158 -0.2671 -0.0016 -0.0018
  179POPC   C4B 2581  -0.352   9.250   5.900 -0.1212  0.2036  0.3394
  180POPC   NC3 2582   1.139   3.381   4.664  0.0498 -0.1140  0.0679
  180POPC   PO4 2583   0.691   3.550   4.529 -0.1500 -0.0886  0.2002
  180POPC   GL1 2584   0.845   3.672   4.951  0.2932  0.0019  0.0751
  180POPC   GL2 2585   0.625   3.476   5.129 -0.0199  0.1931 -0.0026
  180POPC   C1A 2586   1.084   3.648   5.324  0.2287  0.2988 -0.1914
  180POPC   D2A 2587   1.261   3.665   5.762 -0.0801 -0.0866  0.0087
  180POPC   C3A 2588   1.005   3.488   6.129 -0.0592 -0.0394 -0.1307
  180POPC   C4A 2589   1.115   3.478   6.592  0.1736 -0.1395  0.0936
  180POPC   C1B 2590   0.381   3.785   5.420  0.3875  0.1989 -0.0639
  180POPC   C2B 2591   0.341   4.055   5.774  0.4432 -0.1558 -0.0472
  180POPC   C3B 2592   0.292   4.105   6.250 -0.0920  0.0014  0.1512
  180POPC   C4B 2593   0.104   3.912   6.532 -0.0149 -0.2709  0.0714
  181POPC   NC3 2594   3.739   8.470   4.499  0.1848 -0.1623  0.1246
  181POPC   PO4 2595   4.012   8.729   4.749  0.3322 -0.0903 -0.1037
  181POPC   GL1 2596   3.999   8.779   5.163  0.0779  0.2278  0.1274
  181POPC   GL2 2597   3.918   9.037   5.334  0.1756 -0.1991 -0.1277
  181POPC   C1A 2598   4.219   8.632   5.543  0.2128 -0.2562  0.2279
  181POPC   D2A 2599   4.459   8.408   5.895  0.2237  0.1012  0.1067
  181POPC   C3A 2600   4.545   8.644   6.325  0.2503 -0.1843  0.0965
  181POPC   C4A 2601   4.298   8.920   6.703 -0.4312  0.1933  0.1263
  181POPC   C1B 2602   4.204   9.218   5.670 -0.1054  0.0582  0.0109
  181POPC   C2B 2603   4.386   9.293   6.019  0.2584  0.2583 -0.0264
  181POPC   C3B 2604   4.164   9.195   6.312 -0.1425  0.0827 -0.1386
  181POPC   C4B 2605   3.885   9.024   6.412  0.0166  0.0359 -0.0167
  182POPC   NC3 2606   7.298   2.132   4.378  0.1224 -0.1247 -0.1377
  182POPC   PO4 2607   7.620   2.440   4.464 -0.1964  0.3326  0.0626
  182POPC   GL1 2608   7.499   2.831   4.874 -0.4054 -0.3274  0.0048
  182POPC   GL2 2609   7.170   3.040   4.763 -0.1241  0.0915  0.2745
  182POPC   C1A 2610   7.509   3.011   5.302  0.0027  0.0004  0.3000
  182POPC   D2A 2611   7.404   3.316   5.585 -0.0542 -0.1465  0.0444
  182POPC   C3A 2612   6.974   3.381   5.747  0.1103 -0.1745 -0.1273
  182POPC   C4A 2613   6.945   3.239   6.182  0.0192  0.2433  0.0547
  182POPC   C1B 2614   7.004   2.999   5.211 -0.1948 -0.0639  0.1758
  182POPC   C2B 2615   6.808   2.816   5.483 -0.4922  0.1411  0.3056
  182POPC   C3B 2616   6.958   2.656   5.847 -0.3864 -0.2468  0.1359
  182POPC   C4B 2617   7.060   2.715   6.184 -0.1446 -0.3570  0.1406
  183POPC   NC3 2618   6.910   8.793   4.945  0.0684 -0.0206 -0.0063
  183POPC   PO4 2619   6.767   9.176   5.161 -0.0246  0.3043 -0.1811
  183POPC   GL1 2620   7.111   8.919   5.434 -0.0131 -0.0737  0.3359
  183POPC   GL2 2621   7.116   9.202   5.594  0.2123 -0.0130  0.0745
  183POPC   C1A 2622   7.088   8.747   5.862 -0.0104  0.1142 -0.4194
  183POPC   D2A 2623   6.825   8.925   6.286 -0.0648  0.2182  0.1422
  183POPC   C3A 2624   7.056   8.809   6.672  0.0235  0.1909  0.1300
  183POPC   C4A 2625   7.390   8.780   7.030  0.0819 -0.2779  0.2282
  183POPC   C1B 2626   7.288   9.589   5.796 -0.1552 -0.1837  0.0030
  183POPC   C2B 2627   7.384  10.009   6.070  0.3375 -0.3003 -0.0869
  183POPC   C3B 2628   7.622  10.298   6.072 -0.0712  0.0564  0.0754
  183POPC   C4B 2629   7.755  10.744   6.096  0.0808 -0.3607  0.0072
  184POPC   NC3 2630   0.838   2.592   5.012 -0.2026 -0.0128 -0.0319
  184POPC   PO4 2631   0.393   2.609   4.895  0.1623 -0.0865 -0.1505
  184POPC   GL1 2632   0.442   2.531   5.394 -0.1423  0.1947 -0.0987
  184POPC   GL2 2633   0.161   2.547   5.654 -0.0449  0.1495  0.0299
  184POPC   C1A 2634   0.644   2.491   5.856  0.2046 -0.2721 -0.0816
  184POPC   D2A 2635   0.643   2.665   6.252  0.2789 -0.0962  0.2105
  184POPC   C3A 2636   0.290   2.678   6.571 -0.2985  0.1916  0.1177
  184POPC   C4A 2637   0.218   2.468   7.008  0.3291 -0.0946 -0.0245
  184POPC   C1B 2638   0.185   2.440   6.149 -0.0942 -0.0667  0.0244
  184POPC   C2B 2639   0.176   2.137   6.392 -0.0905  0.1464 -0.2387
  184POPC   C3B 2640   0.027   1.783   6.554 -0.1894  0.1057 -0.2736
  184POPC   C4B 2641   0.158   1.565   6.809 -0.4979 -0.1199 -0.0614
  185POPC   NC3 2642   2.242   9.483   4.711  0.8622  0.1635 -0.1344
  185POPC   PO4 2643   2.457   9.211   5.030 -0.2295 -0.1407  0.0457
  185POPC   GL1 2644   2.513   8.991   5.305 -0.0322 -0.0708 -0.0592
  185POPC   GL2 2645   2.769   9.088   5.523  0.1551 -0.0798 -0.0480
  185POPC   C1A 2646   2.506   8.699   5.753  0.1558  0.3427 -0.0514
  185POPC   D2A 2647   2.730   8.543   6.132 -0.0208 -0.1333 -0.1444
  185POPC   C3A 2648   3.013   8.704   6.466  0.0800 -0.0266 -0.2771
  185POPC   C4A 2649   3.409   8.400   6.612 -0.2430  0.1592  0.1029
  185POPC   C1B 2650   2.684   9.068   6.009 -0.1317  0.0437 -0.0133
  185POPC   C2B 2651   2.628   9.099   6.480 -0.0599 -0.0100 -0.1208
  185POPC   C3B 2652   2.973   9.164   6.700 -0.2630  0.0656  0.2205
  185POPC   C4B 2653   3.446   9.354   6.913  0.3632  0.1290  0.0444
  186POPC   NC3 2654   1.614   5.160   4.093  0.0163  0.0474  0.0082
  186POPC   PO4 2655   1.392   5.610   4.281  0.0149  0.0937  0.2348
  186POPC   GL1 2656   1.566   5.561   4.663 -0.0812 -0.0707  0.2706
  186POPC   GL2 2657   1.696   5.271   4.618 -0.0897  0.0850  0.1130
  186POPC   C1A 2658   1.584   5.706   5.084  0.0195  0.2934 -0.0696
  186POPC   D2A 2659   1.464   5.585   5.529  0.0325 -0.3808 -0.3635
  186POPC   C3A 2660   1.737   5.375   5.772 -0.1370 -0.2136 -0.0873
  186POPC   C4A 2661   2.125   5.146   5.530  0.1005 -0.1889 -0.0042
  186POPC   C1B 2662   1.414   5.250   5.015  0.4748  0.2244  0.0451
  186POPC   C2B 2663   1.099   5.370   5.224 -0.1067  0.0769  0.0729
  186POPC   C3B 2664   0.931   5.775   5.359  0.2628  0.0210 -0.0996
  186POPC   C4B 2665   0.693   5.878   5.793 -0.1280  0.0880 -0.0466
  187POPC   NC3 2666   8.639   4.990   4.666 -0.0255 -0.0440  0.2290
  187POPC   PO4 2667   8.980   4.758   4.649  0.1353  0.4319  0.2739
  187POPC   GL1 2668   9.173   4.749   5.051  0.2458  0.2687  0.1996
  187POPC   GL2 2669   9.244   5.052   5.305  0.2825  0.0399  0.1924
  187POPC   C1A 2670   9.498   4.418   5.257  0.0358  0.2153  0.1319
  187POPC   D2A 2671   9.568   4.400   5.763 -0.1060 -0.0073 -0.1970
  187POPC   C3A 2672  10.037   4.477   5.899  0.0058  0.0828  0.1394
  187POPC   C4A 2673  10.286   4.629   6.243 -0.1782 -0.0386  0.0904
  187POPC   C1B 2674   9.330   4.801   5.632 -0.2628 -0.1000  0.2442
  187POPC   C2B 2675   9.662   4.882   5.924  0.1198 -0.2314 -0.0540
  187POPC   C3B 2676   9.835   4.677   6.403  0.2374 -0.1256  0.0370
  187POPC   C4B 2677  10.025   4.955   6.746 -0.1789 -0.1156  0.0167
  188POPC   NC3 2678   6.836   3.408   3.939 -0.0109  0.3319 -0.0896
  188POPC   PO4 2679   6.961   3.240   4.370 -0.3310  0.1631 -0.1279
  188POPC   GL1 2680   6.621   3.249   4.722 -0.2227  0.0595  0.0311
  188POPC   GL2 2681   6.790   3.411   4.996 -0.1942 -0.2853  0.1091
  188POPC   C1A 2682   6.445   3.067   5.072 -0.2199 -0.2923  0.0243
  188POPC   D2A 2683   6.245   2.941   5.363 -0.1059  0.0136  0.4449
  188POPC   C3A 2684   6.066   3.094   5.742 -0.1006 -0.0752 -0.0458
  188POPC   C4A 2685   5.761   3.165   5.870 -0.1937  0.1360  0.3805
  188POPC   C1B 2686   6.525   3.381   5.435 -0.0721  0.2640 -0.0136
  188POPC   C2B 2687   6.492   3.299   5.802 -0.0111  0.0259  0.4501
  188POPC   C3B 2688   6.429   3.071   6.196  0.1816  0.1858 -0.1218
  188POPC   C4B 2689   6.563   2.689   6.382  0.0485  0.1025 -0.1675
  189POPC   NC3 2690   1.959   4.437   3.684 -0.0924 -0.1239 -0.3839
  189POPC   PO4 2691   1.959   4.861   4.014 -0.0359  0.1271  0.1680
  189POPC   GL1 2692   1.965   4.715   4.337 -0.0342  0.2331 -0.0329
  189POPC   GL2 2693   1.648   4.674   4.400  0.1748  0.1407 -0.0521
  189POPC   C1A 2694   2.091   4.916   4.691 -0.4015 -0.0872 -0.0902
  189POPC   D2A 2695   2.184   4.671   5.118 -0.4419  0.0649  0.0916
  189POPC   C3A 2696   2.176   4.653   5.616  0.0123 -0.1907 -0.0231
  189POPC   C4A 2697   2.019   4.386   5.975 -0.1739 -0.2040 -0.1597
  189POPC   C1B 2698   1.652   4.820   4.888 -0.1257  0.2343  0.2316
  189POPC   C2B 2699   1.753   4.967   5.270  0.1684 -0.0192 -0.3516
  189POPC   C3B 2700   1.736   4.909   5.790  0.0858 -0.2688  0.2550
  189POPC   C4B 2701   2.083   4.978   6.017 -0.0643  0.1028 -0.1287
  190POPC   NC3 2702   6.005   2.132   4.098  0.4346  0.2052  0.0106
  190POPC   PO4 2703   6.339   1.943   4.236 -0.0792  0.1335  0.1826
  190POPC   GL1 2704   6.206   2.000   4.682 -0.0039 -0.1439  0.2338
  190POPC   GL2 2705   5.904   2.146   4.673 -0.0743  0.0539  0.0122
  190POPC   C1A 2706   6.148   2.107   5.126 -0.0711 -0.0199  0.0992
  190POPC   D2A 2707   6.122   1.991   5.561  0.2286  0.1198 -0.1149
  190POPC   C3A 2708   6.419   2.241   5.709  0.0128 -0.1378 -0.4193
  190POPC   C4A 2709   6.450   2.741   5.772  0.1409  0.0379 -0.1048
  190POPC   C1B 2710   5.532   2.195   4.901  0.2307 -0.0726  0.1416
  190POPC   C2B 2711   5.148   2.311   5.077  0.1432  0.3153  0.0158
  190POPC   C3B 2712   5.014   2.315   5.483  0.0879 -0.0506 -0.0387
  190POPC   C4B 2713   4.984   2.436   5.991 -0.0953 -0.1084  0.0036
  191POPC   NC3 2714   3.580   5.272   3.924 -0.1600  0.0270 -0.1766
  191POPC   PO4 2715   3.371   5.638   3.904  0.0525 -0.0924  0.2199
  191POPC   GL1 2716   3.311   5.477   4.310 -0.0687 -0.1271 -0.2602
  191POPC   GL2 2717   3.413   5.194   4.418  0.1754  0.0452 -0.1507
  191POPC   C1A 2718   3.117   5.455   4.723 -0.1862 -0.3136 -0.0991
  191POPC   D2A 2719   2.945   5.319   5.076  0.1324 -0.0424 -0.3080
  191POPC   C3A 2720   3.085   4.880   5.087  0.0188  0.0091 -0.0202
  191POPC   C4A 2721   3.030   4.402   5.253  0.1842 -0.0515 -0.1558
  191POPC   C1B 2722   3.101   4.979   4.586 -0.3288  0.0264 -0.1567
  191POPC   C2B 2723   2.660   5.073   4.647  0.1907  0.2027  0.1790
  191POPC   C3B 2724   2.378   5.263   4.957 -0.3032  0.1768 -0.0530
  191POPC   C4B 2725   2.001   5.334   5.087 -0.0286  0.2525  0.3728
  192POPC   NC3 2726   7.610   4.970   4.263  0.1461 -0.1691 -0.2915
  192POPC   PO4 2727   7.798   4.593   4.177  0.1852  0.2082  0.3557
  192POPC   GL1 2728   7.697   4.745   4.668  0.0721 -0.0241  0.1163
  192POPC   GL2 2729   7.328   4.797   4.729  0.4720  0.0068 -0.0426
  192POPC   C1A 2730   7.560   4.698   5.184 -0.1317  0.0410 -0.0427
  192POPC   D2A 2731   7.520   4.474   5.620 -0.2459  0.1604 -0.0766
  192POPC   C3A 2732   7.439   4.648   6.048  0.0120 -0.1340  0.0949
  192POPC   C4A 2733   7.560   4.955   6.308 -0.0594 -0.2032 -0.0174
  192POPC   C1B 2734   7.061   4.770   5.077  0.2359  0.1355  0.0392
  192POPC   C2B 2735   7.100   4.797   5.569 -0.2004  0.3407 -0.0422
  192POPC   C3B 2736   6.884   4.690   5.991 -0.0860  0.0976  0.1029
  192POPC   C4B 2737   6.777   4.570   6.476  0.0471 -0.2223  0.1719
  193POPC   NC3 2738   5.760   7.508   4.608 -0.1173 -0.0591  0.1693
  193POPC   PO4 2739   5.666   7.908   4.669  0.0980 -0.1670  0.2673
  193POPC   GL1 2740   5.608   7.715   5.030  0.1119 -0.3189  0.1312
  193POPC   GL2 2741   5.469   7.466   5.070  0.1672  0.0456  0.3653
  193POPC   C1A 2742   5.480   7.976   5.346  0.1032  0.1578 -0.1046
  193POPC   D2A 2743   5.519   8.034   5.806  0.1378 -0.3017  0.1054
  193POPC   C3A 2744   5.720   8.000   6.196  0.0403 -0.0857  0.0397
  193POPC   C4A 2745   5.708   8.137   6.518  0.0432 -0.2242  0.1962
  193POPC   C1B 2746   5.618   7.471   5.531  0.2400  0.2769  0.0029
  193POPC   C2B 2747   5.731   7.458   5.960 -0.4884  0.1831 -0.0229
  193POPC   C3B 2748   6.010   7.390   6.389  0.3308  0.1582  0.3628
  193POPC   C4B 2749   6.014   7.087   6.730  0.1802 -0.0506 -0.3865
  194POPC   NC3 2750   0.005   5.285   3.996  0.3575  0.0508  0.2947
  194POPC   PO4 2751  -0.222   5.101   4.504 -0.4722  0.0617  0.0798
  194POPC   GL1 2752  -0.232   4.852   4.972  0.2528  0.1195  0.3075
  194POPC   GL2 2753   0.066   4.611   4.916  0.0770  0.0531 -0.3276
  194POPC   C1A 2754  -0.161   4.871   5.454 -0.0361  0.4296  0.0463
  194POPC   D2A 2755   0.181   4.970   5.699 -0.3095  0.2490 -0.1311
  194POPC   C3A 2756   0.278   5.444   5.675 -0.0029  0.0451 -0.0924
  194POPC   C4A 2757   0.368   5.832   5.429  0.1107  0.0795  0.1097
  194POPC   C1B 2758   0.165   4.537   5.356 -0.0147 -0.0488  0.1247
  194POPC   C2B 2759   0.514   4.572   5.718  0.1386  0.1123 -0.4999
  194POPC   C3B 2760   0.713   4.384   6.085  0.2378 -0.3371 -0.2266
  194POPC   C4B 2761   0.881   4.620   6.345 -0.0840  0.0988 -0.0632
  195POPC   NC3 2762   7.708   3.738   4.207 -0.0099 -0.0386 -0.1134
  195POPC   PO4 2763   8.031   3.658   4.532 -0.0412  0.3487  0.0570
  195POPC   GL1 2764   7.953   3.699   4.973 -0.1440  0.1145  0.2273
  195POPC   GL2 2765   8.158   3.892   5.014 -0.0654  0.0186 -0.2370
  195POPC   C1A 2766   7.894   3.447   5.352 -0.0367 -0.0684  0.0695
  195POPC   D2A 2767   7.941   3.208   5.768 -0.1718 -0.2077  0.2309
  195POPC   C3A 2768   7.794   3.484   6.088 -0.2114  0.0919  0.1824
  195POPC   C4A 2769   7.853   3.562   6.489  0.3163 -0.1850  0.2162
  195POPC   C1B 2770   8.279   4.004   5.410  0.3080  0.1642  0.1813
  195POPC   C2B 2771   8.263   3.845   5.843 -0.1586 -0.2425 -0.0203
  195POPC   C3B 2772   8.036   3.929   6.253  0.0305 -0.0418 -0.3784
  195POPC   C4B 2773   7.819   4.031   6.618 -0.1044 -0.1959 -0.0448
  196POPC   NC3 2774   2.424   1.369   4.730  0.1684  0.4039  0.0718
  196POPC   PO4 2775   2.300   1.547   4.521  0.0068 -0.2203 -0.1786
  196POPC   GL1 2776   2.321   1.830   4.959  0.0115 -0.0711 -0.0092
  196POPC   GL2 2777   2.657   1.730   5.152 -0.3008  0.2981  0.0340
  196POPC   C1A 2778   2.478   2.159   5.323 -0.1444  0.0670 -0.2812
  196POPC   D2A 2779   2.696   2.404   5.675 -0.0368 -0.2080 -0.3882
  196POPC   C3A 2780   2.784   2.344   6.016  0.3308  0.0217 -0.1106
  196POPC   C4A 2781   3.237   2.244   6.320  0.0775 -0.0778  0.0723
  196POPC   C1B 2782   2.340   1.587   5.416  0.0264  0.1261  0.0105
  196POPC   C2B 2783   2.184   1.788   5.807 -0.1288  0.0584 -0.0226
  196POPC   C3B 2784   1.705   1.871   5.850 -0.1426 -0.2570  0.2839
  196POPC   C4B 2785   1.447   2.151   6.224 -0.1416  0.0475  0.1710
  197POPC   NC3 2786   7.266   4.565   4.256 -0.1991  0.2214 -0.5460
  197POPC   PO4 2787   7.439   4.096   4.370  0.0215  0.1993 -0.2372
  197POPC   GL1 2788   7.345   4.182   4.819  0.0003  0.0895 -0.0425
  197POPC   GL2 2789   7.698   4.226   4.886 -0.0780  0.0550  0.4056
  197POPC   C1A 2790   7.272   4.264   5.151  0.2687  0.0606  0.2840
  197POPC   D2A 2791   7.022   4.278   5.614  0.3595  0.1037  0.0987
  197POPC   C3A 2792   7.002   3.931   5.837  0.3840  0.1122  0.0376
  197POPC   C4A 2793   6.731   3.698   6.081  0.0074 -0.0863 -0.1734
  197POPC   C1B 2794   7.831   4.241   5.307 -0.0194  0.1473 -0.0483
  197POPC   C2B 2795   7.915   4.217   5.753 -0.0637  0.2299  0.2814
  197POPC   C3B 2796   7.780   4.406   6.203  0.0909 -0.2243 -0.2606
  197POPC   C4B 2797   7.509   4.425   6.523 -0.0664  0.0972 -0.1882
  198POPC   NC3 2798   6.653   7.721   4.654 -0.1314 -0.2669  0.4038
  198POPC   PO4 2799   7.021   7.806   4.634  0.1100 -0.0108  0.0778
  198POPC   GL1 2800   6.906   7.704   5.039  0.2341  0.0725 -0.1417
  198POPC   GL2 2801   6.523   7.812   5.189  0.2769 -0.0015 -0.0139
  198POPC   C1A 2802   6.961   7.713   5.518  0.4217 -0.0430 -0.0751
  198POPC   D2A 2803   6.983   7.624   5.994 -0.3889  0.0811 -0.0158
  198POPC   C3A 2804   7.017   7.372   6.303 -0.1812 -0.2612  0.1565
  198POPC   C4A 2805   6.980   7.580   6.528  0.1263 -0.4250 -0.4440
  198POPC   C1B 2806   6.492   7.606   5.709  0.0125 -0.0271  0.1953
  198POPC   C2B 2807   6.558   7.421   6.104 -0.2120 -0.5030 -0.0648
  198POPC   C3B 2808   6.509   7.339   6.491  0.0776 -0.2183  0.1029
  198POPC   C4B 2809   6.619   7.306   6.994 -0.1843 -0.1465  0.2128
  199POPC   NC3 2810   3.540   5.285   3.361 -0.2923  0.0833 -0.1576
  199POPC   PO4 2811   3.906   5.486   3.609 -0.0753  0.1981  0.1864
  199POPC   GL1 2812   4.200   5.239   3.985  0.3686  0.1530 -0.1326
  199POPC   GL2 2813   4.446   5.309   4.092  0.2313  0.1843 -0.0208
  199POPC   C1A 2814   4.211   4.919   4.258 -0.0485  0.1889 -0.1933
  199POPC   D2A 2815   4.240   4.564   4.610 -0.0902 -0.0300  0.0349
  199POPC   C3A 2816   3.891   4.343   4.714 -0.2398 -0.1845  0.0172
  199POPC   C4A 2817   3.737   4.196   5.068  0.1340 -0.0059 -0.0470
  199POPC   C1B 2818   4.158   5.423   4.429 -0.0145  0.2713 -0.0965
  199POPC   C2B 2819   3.985   5.216   4.693  0.0591  0.1505  0.0444
  199POPC   C3B 2820   3.823   5.324   5.122 -0.1352  0.1562  0.0308
  199POPC   C4B 2821   3.880   5.554   5.519 -0.0109  0.2373  0.0045
  200POPC   NC3 2822   9.597   9.755   4.640  0.1766  0.1375  0.3594
  200POPC   PO4 2823   9.553   9.339   4.641 -0.2486  0.1387  0.0659
  200POPC   GL1 2824   9.631   9.209   5.061  0.2629  0.2616 -0.2378
  200POPC   GL2 2825   9.706   8.695   5.073 -0.3136 -0.3742 -0.3612
  200POPC   C1A 2826   9.498   9.115   5.440  0.0574  0.1491 -0.1629
  200POPC   D2A 2827   9.430   8.761   5.651 -0.0779  0.1260 -0.0074
  200POPC   C3A 2828   9.041   8.559   5.801 -0.1501 -0.1628 -0.0543
  200POPC   C4A 2829   8.660   8.383   5.671  0.1413  0.2484  0.1683
  200POPC   C1B 2830   9.991   8.923   5.250 -0.0915 -0.0182  0.0551
  200POPC   C2B 2831   9.985   9.022   5.667 -0.0892 -0.0556  0.0148
  200POPC   C3B 2832   9.961   8.912   6.182 -0.3753 -0.0923  0.0307
  200POPC   C4B 2833   9.879   8.789   6.592  0.2376  0.0204  0.1130
  201POPC   NC3 2834   2.617   5.157   3.872 -0.0718  0.2099  0.1884
  201POPC   PO4 2835   3.067   5.165   3.897  0.0137 -0.0189 -0.0481
  201POPC   GL1 2836   3.242   4.804   4.052  0.2196  0.0280 -0.1782
  201POPC   GL2 2837   3.568   4.788   4.041 -0.3074  0.0786 -0.2436
  201POPC   C1A 2838   3.071   4.398   4.230 -0.0045  0.2340 -0.0770
  201POPC   D2A 2839   2.941   4.012   4.396  0.3678  0.0434  0.1862
  201POPC   C3A 2840   3.178   3.707   4.506 -0.1258  0.1967  0.0924
  201POPC   C4A 2841   3.411   3.301   4.393  0.2039 -0.1179 -0.0532
  201POPC   C1B 2842   3.740   4.862   4.489  0.0038  0.2571  0.2296
  201POPC   C2B 2843   3.986   4.778   4.974  0.0750 -0.1303  0.2156
  201POPC   C3B 2844   4.092   4.924   5.307 -0.1890 -0.1223  0.0333
  201POPC   C4B 2845   4.071   5.113   5.619  0.0125  0.2767 -0.0226
  202POPC   NC3 2846   4.227   0.150   4.832 -0.1181  0.0787 -0.1604
  202POPC   PO4 2847   4.252  -0.259   5.017 -0.1627  0.0182 -0.0558
  202POPC   GL1 2848   4.646  -0.003   5.179 -0.0306  0.4562  0.0493
  202POPC   GL2 2849   4.569   0.408   5.129 -0.2115 -0.2929  0.2069
  202POPC   C1A 2850   4.663   0.174   5.604  0.2964  0.0587  0.1922
  202POPC   D2A 2851   4.979   0.136   5.955  0.2650  0.2790  0.2999
  202POPC   C3A 2852   4.960   0.145   6.359  0.1312  0.2235  0.0312
  202POPC   C4A 2853   5.255   0.333   6.701  0.0634 -0.1484  0.0506
  202POPC   C1B 2854   4.398   0.639   5.389  0.1897  0.3297  0.0264
  202POPC   C2B 2855   4.279   0.675   5.755 -0.2189 -0.0044 -0.2893
  202POPC   C3B 2856   4.222   0.660   6.159  0.1650  0.1799 -0.1742
  202POPC   C4B 2857   4.342   0.819   6.558 -0.1272  0.3201 -0.0110
  203POPC   NC3 2858   5.286   2.711   3.867 -0.1227  0.2903  0.2783
  203POPC   PO4 2859   5.211   3.051   3.599 -0.0548  0.0569 -0.2609
  203POPC   GL1 2860   5.128   3.261   3.916 -0.0668 -0.0005 -0.0681
  203POPC   GL2 2861   5.155   2.981   4.270  0.2803  0.0569  0.2935
  203POPC   C1A 2862   5.051   3.469   4.348  0.1058  0.4026 -0.3560
  203POPC   D2A 2863   4.943   3.552   4.849 -0.0804  0.0974  0.1034
  203POPC   C3A 2864   4.983   4.050   4.812 -0.3262 -0.2287  0.2188
  203POPC   C4A 2865   4.865   4.511   4.718 -0.0288  0.1460  0.0878
  203POPC   C1B 2866   4.968   3.080   4.650 -0.1609 -0.1295 -0.0692
  203POPC   C2B 2867   4.707   3.058   4.813  0.0639 -0.0490 -0.0460
  203POPC   C3B 2868   4.324   2.780   4.940 -0.2168 -0.0282  0.2229
  203POPC   C4B 2869   4.000   2.908   5.180  0.0416  0.0802 -0.7141
  204POPC   NC3 2870   9.419   1.839   4.771 -0.0864  0.1504  0.3709
  204POPC   PO4 2871   9.344   2.126   5.154 -0.0698  0.1783  0.3443
  204POPC   GL1 2872   9.316   2.046   5.591  0.1119  0.2255 -0.0405
  204POPC   GL2 2873   8.989   2.010   5.586 -0.1379 -0.0978 -0.0805
  204POPC   C1A 2874   9.311   2.140   6.000 -0.0266 -0.1584 -0.0405
  204POPC   D2A 2875   9.650   2.243   6.206  0.2369  0.2619 -0.0636
  204POPC   C3A 2876   9.645   2.355   6.606 -0.0691 -0.0549 -0.1054
  204POPC   C4A 2877   9.500   2.341   6.980 -0.0020 -0.3534 -0.0191
  204POPC   C1B 2878   8.836   2.214   5.837  0.0704 -0.0085 -0.2770
  204POPC   C2B 2879   8.865   2.418   6.156 -0.1349 -0.2216  0.2043
  204POPC   C3B 2880   9.269   2.653   6.229 -0.1314 -0.1469 -0.0671
  204POPC   C4B 2881   9.319   3.048   6.294  0.0774  0.0780  0.1006
  205POPC   NC3 2882   9.575   7.099   4.463  0.2624  0.4509 -0.0782
  205POPC   PO4 2883   9.356   7.217   4.771  0.1791 -0.2661 -0.1037
  205POPC   GL1 2884   9.227   7.111   5.208 -0.1227 -0.0103 -0.0685
  205POPC   GL2 2885   9.019   7.339   5.260 -0.0762  0.0747 -0.2103
  205POPC   C1A 2886   9.383   6.905   5.688  0.1487  0.1816 -0.1542
  205POPC   D2A 2887   9.690   6.988   6.091  0.2280  0.1369 -0.0932
  205POPC   C3A 2888   9.669   7.478   6.139 -0.0436  0.0264  0.3417
  205POPC   C4A 2889   9.352   7.545   6.309  0.0937 -0.1226  0.0535
  205POPC   C1B 2890   8.740   7.431   5.609  0.1102 -0.0613 -0.1744
  205POPC   C2B 2891   8.779   7.380   6.044  0.1815  0.0030 -0.1670
  205POPC   C3B 2892   8.756   7.391   6.454  0.1488 -0.3398  0.0935
  205POPC   C4B 2893   8.571   7.532   6.852 -0.1565 -0.0725 -0.0342
  206POPC   NC3 2894   1.158   8.761   4.956  0.0508  0.2031  0.0096
  206POPC   PO4 2895   1.472   9.076   4.771  0.1371  0.0869  0.0289
  206POPC   GL1 2896   1.478   9.246   5.215 -0.2777  0.1027  0.0985
  206POPC   GL2 2897   1.137   9.192   5.246  0.1162  0.0482 -0.0858
  206POPC   C1A 2898   1.438   9.371   5.725  0.0917 -0.0681 -0.1286
  206POPC   D2A 2899   1.349   9.624   6.109  0.0342 -0.1654 -0.3772
  206POPC   C3A 2900   1.321   9.358   6.510 -0.3624  0.0374 -0.0030
  206POPC   C4A 2901   1.393   8.952   6.723  0.1870 -0.0057 -0.1554
  206POPC   C1B 2902   0.962   9.082   5.661 -0.1985  0.0584  0.0219
  206POPC   C2B 2903   0.902   9.176   6.155  0.0852 -0.1891 -0.0566
  206POPC   C3B 2904   0.902   9.080   6.520  0.1333  0.2006  0.0924
  206POPC   C4B 2905   0.812   8.843   6.814  0.0755 -0.0345  0.2801
  207POPC   NC3 2906   0.431   3.043   4.558  0.0032 -0.2394 -0.2188
  207POPC   PO4 2907   0.811   3.043   4.853 -0.0639 -0.2742 -0.1080
  207POPC   GL1 2908   0.752   2.996   5.264  0.2195  0.0679  0.0381
  207POPC   GL2 2909   0.436   2.992   5.213  0.2123  0.1092 -0.1440
  207POPC   C1A 2910   0.890   3.234   5.536 -0.3597 -0.0847 -0.1695
  207POPC   D2A 2911   0.695   3.556   5.733 -0.1290  0.0596  0.0549
  207POPC   C3A 2912   0.686   3.831   6.073  0.3357 -0.1846  0.0830
  207POPC   C4A 2913   0.900   4.066   6.395  0.1249 -0.5013  0.2622
  207POPC   C1B 2914   0.449   2.957   5.635 -0.1520 -0.1531 -0.0592
  207POPC   C2B 2915   0.773   3.075   5.984  0.4488 -0.2872  0.2809
  207POPC   C3B 2916   0.698   3.132   6.357 -0.4655  0.3558 -0.0368
  207POPC   C4B 2917   0.704   3.182   6.785  0.0273 -0.0721  0.1395
  208POPC   NC3 2918   3.695   3.438   2.998  0.1069 -0.3555  0.0839
  208POPC   PO4 2919   3.863   3.370   3.379  0.0300 -0.0102  0.1591
  208POPC   GL1 2920   3.874   3.198   3.791  0.0582  0.0858 -0.0616
  208POPC   GL2 2921   3.760   3.416   4.012  0.1009 -0.0726 -0.2470
  208POPC   C1A 2922   3.645   2.858   4.004  0.2530  0.2512 -0.0358
  208POPC   D2A 2923   3.451   2.722   4.468 -0.1847  0.0757 -0.1881
  208POPC   C3A 2924   3.292   3.045   4.840 -0.3189 -0.0274  0.3436
  208POPC   C4A 2925   3.216   3.436   5.012  0.1265  0.0557  0.2525
  208POPC   C1B 2926   3.687   3.874   4.376 -0.3439 -0.2763 -0.0640
  208POPC   C2B 2927   3.471   4.064   4.656 -0.0046  0.1363  0.2445
  208POPC   C3B 2928   3.239   3.948   4.994 -0.0756  0.0956 -0.0950
  208POPC   C4B 2929   2.883   3.867   5.303  0.0193  0.0127 -0.2377
  209POPC   NC3 2930   3.746   5.985   3.798  0.1142 -0.3409  0.1361
  209POPC   PO4 2931   4.002   6.187   4.077  0.3486  0.2585  0.1910
  209POPC   GL1 2932   4.023   5.965   4.473  0.3304  0.0234  0.2448
  209POPC   GL2 2933   3.953   6.194   4.677  0.2196  0.2079  0.2216
  209POPC   C1A 2934   4.044   5.753   4.839 -0.1539 -0.1286 -0.5360
  209POPC   D2A 2935   4.249   5.655   5.109 -0.3580 -0.2098  0.2004
  209POPC   C3A 2936   4.331   5.294   5.150  0.0561  0.1340  0.2809
  209POPC   C4A 2937   4.549   5.121   5.452  0.0512  0.2751 -0.1368
  209POPC   C1B 2938   3.795   6.065   5.148  0.2327  0.0740  0.1238
  209POPC   C2B 2939   3.572   5.962   5.435  0.0910 -0.0330  0.0789
  209POPC   C3B 2940   3.079   5.985   5.635 -0.1244 -0.2135 -0.0882
  209POPC   C4B 2941   2.813   5.811   5.960  0.2389 -0.3783  0.1768
  210POPC   NC3 2942   5.543   9.890   5.110 -0.1018 -0.1480 -0.2780
  210POPC   PO4 2943   5.634   9.505   4.874 -0.1818  0.1557 -0.2082
  210POPC   GL1 2944   5.688   9.414   5.292  0.0283 -0.0131 -0.0173
  210POPC   GL2 2945   5.613   9.061   5.368 -0.2083  0.0851  0.5677
  210POPC   C1A 2946   6.003   9.303   5.666 -0.2784  0.0672  0.3349
  210POPC   D2A 2947   6.055   9.251   6.094 -0.0598 -0.1929  0.0815
  210POPC   C3A 2948   5.946   9.397   6.547  0.0483  0.0565 -0.0753
  210POPC   C4A 2949   6.144   9.091   6.826  0.1104  0.0329  0.3703
  210POPC   C1B 2950   5.404   9.356   5.636 -0.0929 -0.1158 -0.0926
  210POPC   C2B 2951   5.278   9.603   6.074  0.0400 -0.1961  0.2915
  210POPC   C3B 2952   5.081   9.505   6.594 -0.0366 -0.3976  0.0435
  210POPC   C4B 2953   5.015   9.107   6.826  0.0002  0.2600  0.0748
  211POPC   NC3 2954   5.428   2.325   3.565  0.0945 -0.0962  0.2483
  211POPC   PO4 2955   5.070   2.269   3.726  0.1982  0.1356  0.2817
  211POPC   GL1 2956   4.659   2.358   3.913  0.1807 -0.0375 -0.3404
  211POPC   GL2 2957   4.752   2.655   3.989 -0.1193 -0.0642  0.3596
  211POPC   C1A 2958   4.391   2.244   4.218 -0.1461 -0.0656  0.1067
  211POPC   D2A 2959   4.308   2.330   4.648  0.2096  0.3263  0.0392
  211POPC   C3A 2960   4.132   2.334   5.044 -0.3658 -0.1950  0.0803
  211POPC   C4A 2961   4.010   2.347   5.461 -0.1794  0.3549 -0.0552
  211POPC   C1B 2962   4.890   2.533   4.408 -0.3165  0.3626  0.2463
  211POPC   C2B 2963   4.813   2.529   4.744 -0.0323  0.0041 -0.0104
  211POPC   C3B 2964   4.843   2.706   5.120 -0.0473  0.2886 -0.0966
  211POPC   C4B 2965   4.862   2.793   5.585  0.0704  0.0498 -0.1171
  212POPC   NC3 2966   4.996   3.572   3.524 -0.0430  0.0820 -0.1010
  212POPC   PO4 2967   4.706   3.797   3.796  0.1279 -0.0805  0.1637
  212POPC   GL1 2968   4.533   3.621   4.203  0.1296  0.2473  0.0621
  212POPC   GL2 2969   4.260   3.491   4.141  0.0468 -0.1691 -0.0750
  212POPC   C1A 2970   4.519   3.540   4.612  0.2952  0.1285  0.1537
  212POPC   D2A 2971   4.547   3.444   5.126  0.0487 -0.0110 -0.0215
  212POPC   C3A 2972   4.525   3.055   5.339 -0.0897 -0.0274  0.1455
  212POPC   C4A 2973   4.400   2.652   5.456  0.1911  0.2493  0.0697
  212POPC   C1B 2974   4.552   3.109   4.276 -0.0362 -0.0580 -0.0805
  212POPC   C2B 2975   4.448   2.719   4.408  0.3293 -0.2987 -0.1227
  212POPC   C3B 2976   3.987   2.516   4.277  0.1037 -0.2632  0.1608
  212POPC   C4B 2977   3.570   2.368   4.079 -0.1495 -0.2093 -0.0235
  213POPC   NC3 2978   1.703   6.007   4.442  0.1270  0.3637  0.0086
  213POPC   PO4 2979   1.824   6.453   4.470 -0.0671 -0.1172  0.0327
  213POPC   GL1 2980   2.020   6.394   4.843  0.3664 -0.0834  0.0575
  213POPC   GL2 2981   1.692   6.186   4.964 -0.2737  0.0632  0.1282
  213POPC   C1A 2982   2.166   6.311   5.210 -0.1741  0.2447  0.1605
  213POPC   D2A 2983   2.459   6.135   5.561 -0.1149 -0.3066  0.0763
  213POPC   C3A 2984   2.394   6.161   5.962 -0.1386  0.2842 -0.1160
  213POPC   C4A 2985   2.208   6.451   6.312  0.1462  0.1581  0.0173
  213POPC   C1B 2986   1.697   6.058   5.417  0.1141  0.0380 -0.0709
  213POPC   C2B 2987   1.768   6.277   5.804  0.1028 -0.1996  0.0628
  213POPC   C3B 2988   1.709   6.626   6.067  0.5878 -0.2865  0.0032
  213POPC   C4B 2989   1.845   6.705   6.511  0.3588 -0.3924 -0.2300
  214POPC   NC3 2990   6.021   2.928   4.107 -0.1719  0.0569  0.3320
  214POPC   PO4 2991   5.761   2.547   3.950 -0.0879  0.1347 -0.3471
  214POPC   GL1 2992   5.631   2.619   4.284  0.1194 -0.1006  0.3957
  214POPC   GL2 2993   5.385   2.394   4.412 -0.3977  0.1084 -0.0324
  214POPC   C1A 2994   5.889   2.624   4.704  0.1417  0.1582 -0.2211
  214POPC   D2A 2995   6.229   2.617   5.011 -0.0200 -0.3092 -0.1474
  214POPC   C3A 2996   6.556   2.375   5.223  0.1509  0.2481  0.0818
  214POPC   C4A 2997   6.889   2.226   5.420 -0.0837 -0.0326 -0.1421
  214POPC   C1B 2998   5.330   2.618   4.709  0.1586  0.1009  0.0425
  214POPC   C2B 2999   5.555   2.683   5.086  0.1466  0.1762 -0.0244
  214POPC   C3B 3000   5.851   2.510   5.435 -0.2305 -0.0917  0.1404
  214POPC   C4B 3001   6.009   2.539   5.829  0.1383 -0.0742 -0.0189
  215POPC   NC3 3002   8.420   9.367   4.758  0.2861 -0.2935 -0.0174
  215POPC   PO4 3003   8.409   9.808   4.978 -0.2688  0.0283  0.0938
  215POPC   GL1 3004   8.313   9.835   5.372 -0.2479  0.0235  0.3778
  215POPC   GL2 3005   8.655   9.693   5.461 -0.0573  0.1820  0.4148
  215POPC   C1A 3006   8.356   9.730   5.880  0.0382  0.0292  0.2049
  215POPC   D2A 3007   8.618   9.432   5.933  0.2366 -0.0414  0.2955
  215POPC   C3A 3008   8.729   9.574   6.327  0.0489 -0.3100  0.1819
  215POPC   C4A 3009   8.997   9.999   6.456 -0.1588 -0.1144  0.0211
  215POPC   C1B 3010   8.997   9.832   5.848  0.2626 -0.0776 -0.2310
  215POPC   C2B 3011   9.256  10.196   6.084  0.3180  0.0874 -0.0300
  215POPC   C3B 3012   9.058  10.453   6.360 -0.0780 -0.2512 -0.0092
  215POPC   C4B 3013   8.617  10.376   6.593 -0.1359  0.0677 -0.0623
  216POPC   NC3 3014   1.147   7.509   4.424 -0.0724  0.1384  0.4955
  216POPC   PO4 3015   0.976   7.164   4.645  0.2241 -0.0655  0.2674
  216POPC   GL1 3016   1.177   7.396   4.941  0.0714 -0.1986  0.0075
  216POPC   GL2 3017   1.409   7.265   4.883  0.0949  0.2931 -0.3422
  216POPC   C1A 3018   1.178   7.584   5.250 -0.1253  0.0235 -0.0550
  216POPC   D2A 3019   0.966   7.677   5.702 -0.2440 -0.1200 -0.1252
  216POPC   C3A 3020   1.070   7.505   6.061  0.0334 -0.0566  0.0135
  216POPC   C4A 3021   0.890   7.572   6.502  0.0750 -0.1073  0.0948
  216POPC   C1B 3022   1.679   7.107   5.288  0.1299  0.1403 -0.1226
  216POPC   C2B 3023   1.771   6.956   5.646 -0.1362  0.0233  0.3063
  216POPC   C3B 3024   2.097   6.939   6.092  0.1097 -0.0427 -0.0382
  216POPC   C4B 3025   2.493   6.917   6.304 -0.0233  0.2182 -0.0356
  217POPC   NC3 3026   7.720   5.236   4.727 -0.2448 -0.1987 -0.1216
  217POPC   PO4 3027   7.540   5.637   4.826 -0.2258 -0.0154  0.0796
  217POPC   GL1 3028   7.716   5.408   5.189 -0.0293  0.3509 -0.1100
  217POPC   GL2 3029   7.844   5.112   5.255  0.2396 -0.1130  0.0408
  217POPC   C1A 3030   8.093   5.635   5.348  0.1907 -0.1660 -0.0153
  217POPC   D2A 3031   8.132   5.785   5.777 -0.0719 -0.0926  0.0685
  217POPC   C3A 3032   8.156   5.667   6.177  0.3262 -0.1049 -0.0533
  217POPC   C4A 3033   8.606   5.744   6.380  0.0192 -0.0682 -0.1119
  217POPC   C1B 3034   7.616   5.005   5.590  0.0553 -0.4285 -0.1421
  217POPC   C2B 3035   7.303   5.079   5.912  0.0210 -0.0718  0.0680
  217POPC   C3B 3036   6.894   5.267   6.107  0.1602  0.1989 -0.0038
  217POPC   C4B 3037   6.791   5.727   6.086 -0.2309  0.0287 -0.3436
  218POPC   NC3 3038   7.800   6.578   4.155 -0.2844  0.1657 -0.2254
  218POPC   PO4 3039   7.986   6.850   4.355  0.0474  0.1371  0.0463
  218POPC   GL1 3040   8.082   6.507   4.593  0.0751  0.3208  0.0551
  218POPC   GL2 3041   8.377   6.275   4.619 -0.1726  0.2539 -0.2501
  218POPC   C1A 3042   7.897   6.421   5.033  0.4415  0.1494  0.0675
  218POPC   D2A 3043   7.510   6.525   5.175  0.1346  0.0284 -0.3164
  218POPC   C3A 3044   7.189   6.238   5.421 -0.3461 -0.0400  0.0704
  218POPC   C4A 3045   6.816   6.381   5.338 -0.1146  0.1297 -0.0380
  218POPC   C1B 3046   8.287   6.094   5.056 -0.0602  0.0740 -0.1396
  218POPC   C2B 3047   8.053   6.187   5.483 -0.0329  0.3234 -0.2282
  218POPC   C3B 3048   7.734   6.378   5.560 -0.2132 -0.0493 -0.0958
  218POPC   C4B 3049   7.522   6.753   5.750 -0.0903  0.3773  0.3386
  219POPC   NC3 3050   6.461   4.950   4.247 -0.1990 -0.1707 -0.0592
  219POPC   PO4 3051   6.360   5.245   4.026 -0.2461  0.0040 -0.0857
  219POPC   GL1 3052   6.497   5.375   4.487  0.0845  0.1886  0.0517
  219POPC   GL2 3053   6.635   5.173   4.663  0.1938 -0.1277  0.0260
  219POPC   C1A 3054   6.637   5.629   4.823 -0.3022 -0.1853 -0.0487
  219POPC   D2A 3055   7.008   5.673   5.092  0.0632 -0.3169 -0.2874
  219POPC   C3A 3056   6.925   5.809   5.500 -0.0683  0.4526 -0.0425
  219POPC   C4A 3057   6.844   6.144   5.786  0.0434 -0.5188 -0.3335
  219POPC   C1B 3058   6.543   4.863   5.068 -0.0412 -0.1629 -0.0398
  219POPC   C2B 3059   6.585   4.801   5.515 -0.1825 -0.0385 -0.0117
  219POPC   C3B 3060   6.295   4.683   5.964  0.3581  0.0504 -0.0302
  219POPC   C4B 3061   6.004   4.677   6.278  0.1357  0.1401 -0.1169
  220POPC   NC3 3062   1.575   1.059   5.008  0.0660 -0.2907  0.2176
  220POPC   PO4 3063   1.222   0.686   4.803 -0.4984 -0.2948  0.0386
  220POPC   GL1 3064   0.985   0.450   5.212 -0.4215 -0.2008  0.0946
  220POPC   GL2 3065   0.656   0.279   5.267 -0.1426 -0.2748  0.1587
  220POPC   C1A 3066   0.956  -0.051   5.363 -0.3364  0.2825 -0.2107
  220POPC   D2A 3067   0.964  -0.340   5.620 -0.1671  0.0783 -0.0222
  220POPC   C3A 3068   0.858  -0.273   6.055 -0.0468  0.1366  0.0643
  220POPC   C4A 3069   0.395  -0.200   6.042  0.1882 -0.1577  0.1091
  220POPC   C1B 3070   0.637   0.124   5.691 -0.1304 -0.1422 -0.1590
  220POPC   C2B 3071   0.602   0.256   6.088 -0.0049  0.2151  0.1508
  220POPC   C3B 3072   0.350   0.043   6.444 -0.3351 -0.1599 -0.1093
  220POPC   C4B 3073   0.355  -0.105   6.815 -0.0215  0.0562  0.1513
  221POPC   NC3 3074   2.358   1.028   4.367  0.1222  0.2703  0.2496
  221POPC   PO4 3075   2.820   1.017   4.515  0.1203 -0.0606  0.1478
  221POPC   GL1 3076   2.986   1.445   4.774 -0.1534 -0.0865  0.2051
  221POPC   GL2 3077   2.896   1.776   4.734 -0.0477  0.1200  0.3324
  221POPC   C1A 3078   3.201   1.527   5.178  0.1263 -0.0652  0.1081
  221POPC   D2A 3079   3.263   1.462   5.668 -0.0911  0.1021  0.2060
  221POPC   C3A 3080   2.930   1.630   5.949  0.0700  0.0670  0.0131
  221POPC   C4A 3081   2.661   1.893   5.973 -0.0456  0.1585 -0.0501
  221POPC   C1B 3082   2.919   2.135   5.042  0.0941  0.1550  0.0245
  221POPC   C2B 3083   3.099   2.466   5.409  0.0014  0.3594  0.1752
  221POPC   C3B 3084   3.070   2.730   5.815 -0.2233  0.0304 -0.1145
  221POPC   C4B 3085   3.105   3.187   5.919  0.2750 -0.0332  0.2479
  222POPC   NC3 3086   9.473   3.949   4.594 -0.2718  0.2692 -0.1853
  222POPC   PO4 3087   9.099   3.801   4.368  0.0892  0.3547 -0.2186
  222POPC   GL1 3088   8.912   4.028   4.705  0.1679 -0.1566  0.0858
  222POPC   GL2 3089   9.078   4.292   4.854 -0.1308 -0.4720 -0.1963
  222POPC   C1A 3090   8.711   3.885   5.139 -0.1728  0.1948  0.0379
  222POPC   D2A 3091   8.876   3.725   5.518 -0.0757 -0.2728 -0.2095
  222POPC   C3A 3092   8.999   3.338   5.575 -0.0485  0.2927 -0.4796
  222POPC   C4A 3093   8.940   2.931   5.602 -0.1651  0.1833  0.1807
  222POPC   C1B 3094   8.978   4.290   5.290 -0.1363  0.2134 -0.1842
  222POPC   C2B 3095   8.690   4.166   5.577 -0.0511 -0.0887 -0.1801
  222POPC   C3B 3096   8.355   4.328   5.958  0.4186 -0.1402 -0.1380
  222POPC   C4B 3097   8.306   4.303   6.390  0.0996 -0.2018 -0.1239
  223POPC   NC3 3098   8.873   9.690   4.938 -0.2006  0.2837  0.1000
  223POPC   PO4 3099   9.286   9.625   5.024 -0.2050 -0.0215  0.1832
  223POPC   GL1 3100   9.552   9.755   5.431 -0.1867  0.0884 -0.0160
  223POPC   GL2 3101   9.819   9.467   5.452 -0.0496 -0.0435 -0.3469
  223POPC   C1A 3102   9.557   9.797   5.853 -0.1446  0.0078  0.2973
  223POPC   D2A 3103   9.882   9.933   6.123  0.0495  0.2108 -0.1446
  223POPC   C3A 3104   9.863  10.237   6.522 -0.0697  0.1187  0.1566
  223POPC   C4A 3105   9.755  10.632   6.867 -0.0034  0.0354 -0.0899
  223POPC   C1B 3106   9.982   9.527   5.841 -0.2894  0.2100 -0.3106
  223POPC   C2B 3107   9.843   9.496   6.296  0.0564  0.0888  0.1418
  223POPC   C3B 3108   9.573   9.335   6.626  0.0357  0.0396  0.0065
  223POPC   C4B 3109   9.430   8.905   6.673  0.1453  0.0225 -0.3798
  224POPC   NC3 3110   1.355   0.342   4.409  0.0925  0.0602 -0.1043
  224POPC   PO4 3111   1.436   0.078   4.740  0.0137 -0.2768  0.0325
  224POPC   GL1 3112   1.392   0.031   5.145 -0.1804  0.0096  0.1477
  224POPC   GL2 3113   1.580  -0.255   5.384 -0.1607 -0.0354 -0.0636
  224POPC   C1A 3114   1.341   0.238   5.487  0.0362  0.0744  0.2324
  224POPC   D2A 3115   1.065   0.136   5.874  0.0939  0.1030 -0.2917
  224POPC   C3A 3116   1.074   0.434   6.232 -0.0092 -0.2301 -0.1635
  224POPC   C4A 3117   0.921   0.708   6.634  0.2349  0.0366  0.0199
  224POPC   C1B 3118   1.634  -0.143   5.668 -0.0767 -0.0415 -0.3798
  224POPC   C2B 3119   1.656   0.117   5.933 -0.2680  0.3034  0.2331
  224POPC   C3B 3120   1.493   0.215   6.311  0.3474 -0.0594  0.1509
  224POPC   C4B 3121   1.051  -0.008   6.444 -0.2184 -0.0893 -0.0100
  225POPC   NC3 3122   1.427   8.451   4.640 -0.0335  0.1536 -0.2320
  225POPC   PO4 3123   1.704   8.160   4.741 -0.1746  0.0516 -0.2701
  225POPC   GL1 3124   1.795   8.053   5.254  0.0243 -0.0614 -0.0504
  225POPC   GL2 3125   1.697   7.759   5.179  0.0760 -0.3562  0.0293
  225POPC   C1A 3126   1.753   8.073   5.730 -0.3495 -0.0281  0.1518
  225POPC   D2A 3127   1.734   8.408   5.989 -0.1200 -0.1138  0.0511
  225POPC   C3A 3128   1.906   8.725   5.847 -0.2624  0.4498  0.0209
  225POPC   C4A 3129   1.823   9.058   5.573  0.0494 -0.0414 -0.2311
  225POPC   C1B 3130   1.669   7.546   5.534 -0.1351 -0.1929  0.1047
  225POPC   C2B 3131   1.943   7.340   5.892 -0.0871 -0.0924  0.0715
  225POPC   C3B 3132   2.140   7.380   6.280  0.4198 -0.0414  0.2268
  225POPC   C4B 3133   2.547   7.377   6.518  0.0861  0.0099 -0.3667
  226POPC   NC3 3134   9.233   9.066   4.883  0.3324 -0.2609  0.0033
  226POPC   PO4 3135   8.895   9.246   4.713  0.0280  0.0728 -0.0850
  226POPC   GL1 3136   8.937   9.297   5.195  0.0891  0.2826  0.0049
  226POPC   GL2 3137   9.089   9.491   5.432  0.0533  0.3910  0.0863
  226POPC   C1A 3138   8.919   8.997   5.586  0.0749 -0.0377  0.0505
  226POPC   D2A 3139   8.886   8.954   6.113 -0.0132 -0.1528  0.2717
  226POPC   C3A 3140   8.611   9.134   6.397 -0.0210  0.1686  0.1767
  226POPC   C4A 3141   8.372   8.926   6.576  0.4201  0.3873 -0.3048
  226POPC   C1B 3142   9.122   9.378   5.862  0.0744  0.0493  0.1752
  226POPC   C2B 3143   9.236   9.555   6.224 -0.2543 -0.1243  0.3045
  226POPC   C3B 3144   9.566   9.876   6.488 -0.1555 -0.0175  0.2125
  226POPC   C4B 3145   9.812   9.745   6.740 -0.3318 -0.0288 -0.1216
  227POPC   NC3 3146   2.678   7.403   4.323  0.1295 -0.3982  0.1652
  227POPC   PO4 3147   2.526   6.973   4.356  0.3055 -0.1298 -0.1028
  227POPC   GL1 3148   2.421   7.073   4.679 -0.3052  0.3433  0.3741
  227POPC   GL2 3149   2.324   6.738   4.800  0.0546  0.1835 -0.5046
  227POPC   C1A 3150   2.566   7.188   5.102  0.0060 -0.1960  0.0152
  227POPC   D2A 3151   2.614   7.518   5.410 -0.1171  0.2646 -0.0806
  227POPC   C3A 3152   2.567   7.406   5.955 -0.4021  0.2961  0.2200
  227POPC   C4A 3153   2.862   7.625   6.208  0.1465  0.2722  0.0006
  227POPC   C1B 3154   2.559   6.361   4.934  0.0055  0.1484 -0.1020
  227POPC   C2B 3155   2.742   6.088   5.201  0.0874 -0.0762  0.0910
  227POPC   C3B 3156   3.069   5.848   5.132 -0.2272  0.0477 -0.4409
  227POPC   C4B 3157   3.406   5.541   5.162  0.2530  0.0404 -0.0682
  228POPC   NC3 3158   6.513   1.428   4.589 -0.2976  0.0926  0.0052
  228POPC   PO4 3159   6.092   1.411   4.564  0.0675  0.1977 -0.1488
  228POPC   GL1 3160   6.127   1.428   5.055  0.0063 -0.2354  0.2579
  228POPC   GL2 3161   5.943   1.248   5.243  0.1417 -0.0587  0.0981
  228POPC   C1A 3162   6.284   1.538   5.500 -0.0495 -0.0373  0.2175
  228POPC   D2A 3163   6.207   1.272   5.896  0.0781  0.0464 -0.1635
  228POPC   C3A 3164   6.006   1.443   6.222  0.0715 -0.2730 -0.0677
  228POPC   C4A 3165   5.998   1.653   6.573 -0.2056 -0.0744  0.0566
  228POPC   C1B 3166   5.773   1.299   5.622  0.1742  0.1256 -0.1380
  228POPC   C2B 3167   5.675   1.729   5.880 -0.2961 -0.0826 -0.1432
  228POPC   C3B 3168   5.541   1.858   6.259 -0.0596 -0.1781 -0.1361
  228POPC   C4B 3169   5.633   2.059   6.569 -0.1776  0.0783  0.1677
  229POPC   NC3 3170   3.708   0.733   4.738 -0.2632 -0.2996 -0.0648
  229POPC   PO4 3171   3.915   0.472   4.993  0.1977  0.1056 -0.1240
  229POPC   GL1 3172   3.914   0.408   5.397  0.0112  0.3347  0.5571
  229POPC   GL2 3173   4.167   0.135   5.411  0.0009 -0.2421  0.1994
  229POPC   C1A 3174   3.794   0.467   5.816  0.1000  0.0450 -0.1416
  229POPC   D2A 3175   3.438   0.552   6.106 -0.0118  0.0362  0.0503
  229POPC   C3A 3176   3.477   0.301   6.434 -0.1705 -0.0804  0.3194
  229POPC   C4A 3177   3.660  -0.026   6.695  0.1337 -0.0618  0.0570
  229POPC   C1B 3178   4.185   0.161   5.808  0.0013  0.0292 -0.2212
  229POPC   C2B 3179   4.456   0.216   6.145 -0.0713  0.0299  0.2082
  229POPC   C3B 3180   4.308   0.331   6.535  0.0586 -0.0806 -0.1114
  229POPC   C4B 3181   4.063   0.332   6.846  0.1622 -0.0456 -0.0363
  230POPC   NC3 3182   9.738   6.053   4.718 -0.1244  0.0736  0.0103
  230POPC   PO4 3183  10.139   6.150   4.758 -0.2311  0.0752  0.0704
  230POPC   GL1 3184   9.998   6.191   5.205 -0.0663 -0.0373 -0.1371
  230POPC   GL2 3185   9.666   6.196   5.313 -0.3246 -0.2373  0.2283
  230POPC   C1A 3186  10.039   6.089   5.746  0.3322 -0.3271 -0.1203
  230POPC   D2A 3187  10.213   5.818   6.098 -0.1507  0.1558 -0.2965
  230POPC   C3A 3188  10.290   5.817   6.516  0.2502  0.0464  0.0035
  230POPC   C4A 3189  10.009   5.807   6.753  0.2806  0.2474  0.1253
  230POPC   C1B 3190   9.545   6.264   5.736  0.1641  0.2103 -0.0395
  230POPC   C2B 3191   9.386   6.462   6.062 -0.3048 -0.0844  0.3741
  230POPC   C3B 3192   9.405   6.676   6.494 -0.2766 -0.3566  0.0651
  230POPC   C4B 3193   9.491   7.079   6.630 -0.0081 -0.2714  0.0331
  231POPC   NC3 3194   6.869   0.731   4.425 -0.3359  0.0843  0.1808
  231POPC   PO4 3195   6.795   0.978   4.749  0.0342 -0.0516 -0.2629
  231POPC   GL1 3196   6.709   0.829   5.180 -0.1624  0.0892  0.1522
  231POPC   GL2 3197   6.699   0.519   5.361  0.0804 -0.2770  0.2287
  231POPC   C1A 3198   6.408   0.990   5.572 -0.1515 -0.1875  0.0497
  231POPC   D2A 3199   6.018   0.814   5.703  0.0255  0.1472  0.2749
  231POPC   C3A 3200   5.828   0.950   6.124  0.0140  0.0254 -0.2468
  231POPC   C4A 3201   6.028   0.981   6.543 -0.0217 -0.0336 -0.3690
  231POPC   C1B 3202   6.869   0.759   5.708  0.4818 -0.0701  0.0530
  231POPC   C2B 3203   6.885   0.916   6.145 -0.0243 -0.1099 -0.0318
  231POPC   C3B 3204   6.983   1.310   6.456  0.0282  0.0858  0.1770
  231POPC   C4B 3205   6.981   1.717   6.481  0.0422 -0.2228  0.1815
  232POPC   NC3 3206   5.490   0.246   4.733  0.1701 -0.0917  0.0285
  232POPC   PO4 3207   5.877   0.267   4.804 -0.1464  0.2606  0.0766
  232POPC   GL1 3208   5.961   0.213   5.288  0.2177  0.0786 -0.2373
  232POPC   GL2 3209   6.001  -0.115   5.412 -0.1661  0.1137 -0.0895
  232POPC   C1A 3210   5.949   0.323   5.765 -0.0639  0.0247  0.2677
  232POPC   D2A 3211   5.963   0.473   6.196 -0.0629  0.1144 -0.1056
  232POPC   C3A 3212   5.750   0.460   6.541 -0.0359  0.0329  0.0034
  232POPC   C4A 3213   5.681   0.200   6.857 -0.1745  0.0348 -0.1847
  232POPC   C1B 3214   6.227  -0.147   5.827 -0.2891  0.1238  0.0864
  232POPC   C2B 3215   6.420  -0.012   6.065  0.2674  0.3400  0.0953
  232POPC   C3B 3216   6.523   0.147   6.433 -0.1933 -0.2573  0.4167
  232POPC   C4B 3217   6.860   0.313   6.608 -0.0340  0.0851 -0.0539
  233POPC   NC3 3218   5.137   6.024   4.197  0.0939  0.2296  0.0605
  233POPC   PO4 3219   4.697   5.792   3.858  0.2717 -0.0772 -0.0605
  233POPC   GL1 3220   4.985   5.488   4.125  0.1201  0.1276  0.2133
  233POPC   GL2 3221   5.024   5.056   4.026 -0.1565 -0.0989  0.0914
  233POPC   C1A 3222   5.076   5.429   4.523  0.0982 -0.0867  0.0854
  233POPC   D2A 3223   5.191   5.824   4.677  0.2126  0.3351  0.1459
  233POPC   C3A 3224   5.240   5.770   5.191 -0.0090 -0.1629 -0.3022
  233POPC   C4A 3225   5.206   5.601   5.680  0.3020 -0.3038  0.0132
  233POPC   C1B 3226   4.752   4.996   4.348 -0.0761 -0.1926  0.1137
  233POPC   C2B 3227   4.599   5.249   4.631 -0.3854  0.0580  0.0816
  233POPC   C3B 3228   4.586   5.659   4.563  0.0028 -0.0043 -0.1561
  233POPC   C4B 3229   4.482   6.063   4.745 -0.5219  0.1890  0.2180
  234POPC   NC3 3230   3.342   0.062   5.194  0.0729 -0.0424  0.0370
  234POPC   PO4 3231   3.008  -0.098   5.047 -0.0419 -0.0385 -0.1359
  234POPC   GL1 3232   2.900  -0.078   5.485 -0.0387  0.0917 -0.1920
  234POPC   GL2 3233   2.890  -0.346   5.643  0.3838  0.0002  0.2669
  234POPC   C1A 3234   2.723   0.111   5.812  0.2476  0.3083 -0.2210
  234POPC   D2A 3235   2.586   0.347   6.149 -0.3227 -0.2942  0.2225
  234POPC   C3A 3236   2.917   0.621   6.293 -0.0996  0.0763 -0.0119
  234POPC   C4A 3237   3.341   0.860   6.486 -0.0678  0.0336  0.1094
  234POPC   C1B 3238   3.095  -0.144   5.966  0.1179  0.2581 -0.1702
  234POPC   C2B 3239   3.488  -0.030   6.072 -0.1942  0.1195 -0.1302
  234POPC   C3B 3240   3.904   0.213   6.203  0.0789 -0.1518  0.0998
  234POPC   C4B 3241   3.835   0.607   6.482  0.3221 -0.0293 -0.0548
  235POPC   NC3 3242   9.172   6.448   4.054  0.0400 -0.2804 -0.1643
  235POPC   PO4 3243   9.167   6.834   4.441  0.3837 -0.0190 -0.0245
  235POPC   GL1 3244   9.255   6.739   4.885 -0.2252 -0.1771  0.0647
  235POPC   GL2 3245   9.156   6.565   5.052 -0.1558 -0.2742  0.0420
  235POPC   C1A 3246   9.559   6.730   5.264  0.2196 -0.0193  0.2469
  235POPC   D2A 3247   9.843   6.643   5.685 -0.0482 -0.2376 -0.1140
  235POPC   C3A 3248   9.914   6.498   6.069 -0.1984 -0.2716  0.4433
  235POPC   C4A 3249   9.916   6.686   6.471  0.0887 -0.1022  0.1942
  235POPC   C1B 3250   9.073   6.660   5.449  0.1763  0.1754 -0.0852
  235POPC   C2B 3251   8.935   6.418   5.856  0.0292 -0.1241  0.0602
  235POPC   C3B 3252   8.878   6.431   6.289  0.2004  0.1754  0.0741
  235POPC   C4B 3253   8.707   6.172   6.611 -0.1589 -0.1999  0.0231
  236POPC   NC3 3254   6.903   7.384   4.392 -0.0243  0.1938 -0.1111
  236POPC   PO4 3255   7.413   7.527   4.401  0.2309 -0.0373  0.1104
  236POPC   GL1 3256   7.315   7.429   4.783 -0.0677  0.2731 -0.0451
  236POPC   GL2 3257   7.641   7.444   4.994 -0.0541 -0.1875 -0.0774
  236POPC   C1A 3258   7.112   7.202   5.121 -0.0580 -0.3632  0.0046
  236POPC   D2A 3259   6.706   7.156   5.277 -0.1715  0.1060 -0.5366
  236POPC   C3A 3260   6.740   7.093   5.701  0.1115 -0.2762  0.1961
  236POPC   C4A 3261   6.724   6.951   6.105  0.1242  0.0455 -0.1718
  236POPC   C1B 3262   7.404   7.568   5.357 -0.2999  0.1822  0.4453
  236POPC   C2B 3263   7.209   7.284   5.594  0.2628 -0.1137 -0.0235
  236POPC   C3B 3264   7.213   7.007   6.013  0.5388  0.1595 -0.0352
  236POPC   C4B 3265   7.416   6.788   6.372  0.0698 -0.0900  0.3182
  237POPC   NC3 3266   4.497   7.293   4.457  0.0653 -0.0132 -0.2832
  237POPC   PO4 3267   4.783   7.380   4.359 -0.3140 -0.0282 -0.0084
  237POPC   GL1 3268   4.896   7.149   4.734 -0.0931 -0.1626 -0.1476
  237POPC   GL2 3269   4.909   7.250   4.983 -0.2205  0.2919 -0.1224
  237POPC   C1A 3270   4.732   6.774   5.027  0.0824 -0.1691  0.2123
  237POPC   D2A 3271   4.730   6.590   5.474  0.1666 -0.0870  0.2412
  237POPC   C3A 3272   4.809   6.815   5.903 -0.1186 -0.1067 -0.0358
  237POPC   C4A 3273   4.502   6.780   6.171 -0.0514  0.0572 -0.1343
  237POPC   C1B 3274   5.117   7.091   5.290  0.1627 -0.0605  0.2857
  237POPC   C2B 3275   5.203   7.077   5.683 -0.1598 -0.1611 -0.2489
  237POPC   C3B 3276   5.298   7.089   6.115 -0.1587  0.0489 -0.3551
  237POPC   C4B 3277   5.471   7.336   6.466 -0.4767  0.1671 -0.0387
  238POPC   NC3 3278   1.703   0.483   5.022 -0.1240  0.0198 -0.0299
  238POPC   PO4 3279   2.213   0.427   5.063 -0.1305 -0.0891 -0.0337
  238POPC   GL1 3280   2.226   0.186   5.490  0.0889  0.0721 -0.0060
  238POPC   GL2 3281   1.894   0.189   5.511 -0.1434  0.1998 -0.1623
  238POPC   C1A 3282   2.247  -0.023   5.879 -0.1735  0.0141 -0.0121
  238POPC   D2A 3283   2.492  -0.098   6.192  0.1415  0.1519 -0.0479
  238POPC   C3A 3284   2.838  -0.430   6.240  0.1083 -0.3073 -0.1354
  238POPC   C4A 3285   3.169  -0.346   6.479 -0.1695 -0.3121  0.2143
  238POPC   C1B 3286   2.130   0.412   5.895 -0.1318 -0.5348 -0.2774
  238POPC   C2B 3287   2.155   0.765   6.071 -0.1313 -0.1002  0.2172
  238POPC   C3B 3288   2.305   0.980   6.470 -0.1618 -0.0397  0.0510
  238POPC   C4B 3289   2.270   1.272   6.847  0.4724 -0.1667 -0.2941
  239POPC   NC3 3290   2.442   5.979   3.696 -0.1271 -0.1976  0.0577
  239POPC   PO4 3291   2.640   6.086   4.029 -0.0915  0.0929 -0.0751
  239POPC   GL1 3292   2.764   6.271   4.407  0.4269  0.1116 -0.0615
  239POPC   GL2 3293   2.829   6.599   4.548 -0.1277 -0.5443 -0.2199
  239POPC   C1A 3294   3.038   6.046   4.712  0.0170 -0.1470 -0.0511
  239POPC   D2A 3295   3.483   5.924   4.779  0.0149  0.1249  0.0424
  239POPC   C3A 3296   3.651   5.552   4.696 -0.0339  0.1893  0.1472
  239POPC   C4A 3297   3.454   5.140   4.889 -0.1631  0.2176  0.0282
  239POPC   C1B 3298   3.020   6.793   4.965  0.0058  0.0906  0.1410
  239POPC   C2B 3299   2.751   6.740   5.213  0.2495  0.0872 -0.0383
  239POPC   C3B 3300   2.642   6.576   5.628 -0.1922 -0.0730 -0.2574
  239POPC   C4B 3301   2.236   6.575   5.791  0.1116 -0.1635  0.0457
  240POPC   NC3 3302   3.996   7.512   4.205 -0.1706 -0.0532 -0.4798
  240POPC   PO4 3303   4.235   7.717   4.499  0.0202 -0.3107  0.0670
  240POPC   GL1 3304   4.151   7.721   4.968 -0.1943 -0.0439 -0.2486
  240POPC   GL2 3305   4.355   7.917   5.055  0.2532 -0.1377 -0.1130
  240POPC   C1A 3306   4.091   7.532   5.374 -0.0107  0.3603 -0.1737
  240POPC   D2A 3307   4.235   7.373   5.792  0.0472  0.0594  0.3619
  240POPC   C3A 3308   4.129   7.276   6.247 -0.0244 -0.1349  0.2050
  240POPC   C4A 3309   3.941   7.204   6.656 -0.1180  0.2031 -0.1603
  240POPC   C1B 3310   4.569   7.639   5.488  0.0379  0.1012  0.0491
  240POPC   C2B 3311   4.726   7.299   5.667 -0.4793 -0.1111  0.1208
  240POPC   C3B 3312   4.669   7.309   6.055  0.1273 -0.1872 -0.0923
  240POPC   C4B 3313   4.892   7.220   6.439 -0.1272  0.2738  0.1206
  241POPC   NC3 3314   6.074   7.946   4.356 -0.2064 -0.2151  0.1143
  241POPC   PO4 3315   6.216   7.851   4.784  0.0680  0.0073  0.0432
  241POPC   GL1 3316   6.041   7.980   5.088 -0.2451  0.0780 -0.2866
  241POPC   GL2 3317   5.896   8.261   5.097 -0.0714 -0.1164  0.0173
  241POPC   C1A 3318   5.998   7.722   5.386  0.1536 -0.1720 -0.2501
  241POPC   D2A 3319   6.009   7.781   5.790  0.0489 -0.0927  0.1654
  241POPC   C3A 3320   6.190   7.787   6.196 -0.3575  0.1508  0.0406
  241POPC   C4A 3321   6.117   7.778   6.644 -0.2843  0.2609 -0.3840
  241POPC   C1B 3322   5.919   8.196   5.540  0.2529 -0.0968  0.1143
  241POPC   C2B 3323   6.033   8.273   5.942 -0.1433 -0.0231 -0.1166
  241POPC   C3B 3324   6.190   8.283   6.444  0.2046 -0.1935 -0.0457
  241POPC   C4B 3325   6.043   8.257   6.875  0.1207 -0.1156 -0.2384
  242POPC   NC3 3326   8.569   2.370   4.910 -0.2322  0.2117  0.3384
  242POPC   PO4 3327   8.428   2.683   4.575  0.3279  0.2371  0.3173
  242POPC   GL1 3328   8.227   2.980   4.834 -0.3730 -0.2892 -0.0049
  242POPC   GL2 3329   8.014   3.238   4.876 -0.0072  0.1105  0.2865
  242POPC   C1A 3330   7.995   2.958   5.267  0.2923  0.0188  0.0938
  242POPC   D2A 3331   7.958   2.706   5.680 -0.0123 -0.0018 -0.3758
  242POPC   C3A 3332   8.030   2.749   6.027 -0.1416 -0.1717  0.0743
  242POPC   C4A 3333   7.879   3.039   6.278  0.0505 -0.1928 -0.1724
  242POPC   C1B 3334   8.383   3.372   5.190 -0.2002 -0.1454 -0.0736
  242POPC   C2B 3335   8.436   3.540   5.519  0.1383  0.0531  0.0006
  242POPC   C3B 3336   8.640   3.463   5.854  0.0149 -0.1580 -0.2274
  242POPC   C4B 3337   9.098   3.561   6.015  0.1253 -0.1425  0.0257
  243POPC   NC3 3338   2.923   9.364   5.188  0.1621 -0.0685  0.2448
  243POPC   PO4 3339   3.322   9.138   5.178  0.1906 -0.0191 -0.2746
  243POPC   GL1 3340   3.389   8.844   5.587  0.1572 -0.3196 -0.0780
  243POPC   GL2 3341   3.123   8.915   5.833 -0.3316 -0.0094  0.0859
  243POPC   C1A 3342   3.653   8.936   6.010 -0.1339 -0.0425  0.2354
  243POPC   D2A 3343   3.678   8.633   6.318  0.0023  0.1026 -0.2624
  243POPC   C3A 3344   3.971   8.498   6.662  0.0536  0.2591 -0.0703
  243POPC   C4A 3345   4.418   8.371   6.778  0.2839 -0.4986 -0.1307
  243POPC   C1B 3346   3.260   8.561   5.993  0.0377 -0.0374 -0.4416
  243POPC   C2B 3347   3.130   8.220   6.261  0.0289 -0.1274  0.0474
  243POPC   C3B 3348   3.258   7.942   6.630 -0.2065 -0.0571 -0.2565
  243POPC   C4B 3349   3.524   7.877   6.890  0.1808 -0.0555 -0.1163
  244POPC   NC3 3350   1.484   2.073   4.781 -0.1028 -0.1706  0.1293
  244POPC   PO4 3351   1.104   2.296   4.758  0.0094 -0.0533  0.3052
  244POPC   GL1 3352   1.204   2.341   5.235  0.2567 -0.1553 -0.0650
  244POPC   GL2 3353   1.367   2.073   5.301 -0.0997  0.1540 -0.1788
  244POPC   C1A 3354   1.094   2.664   5.637 -0.0478 -0.0117 -0.0555
  244POPC   D2A 3355   1.251   3.077   5.855 -0.2272  0.1854 -0.1058
  244POPC   C3A 3356   1.303   2.824   6.235  0.2921 -0.5028 -0.0965
  244POPC   C4A 3357   1.205   3.000   6.691  0.2013 -0.0034 -0.1851
  244POPC   C1B 3358   1.439   2.298   5.686  0.4313  0.1018  0.2073
  244POPC   C2B 3359   1.648   2.492   5.902 -0.2870 -0.2545 -0.1051
  244POPC   C3B 3360   1.887   2.513   6.274  0.2342 -0.1276  0.0576
  244POPC   C4B 3361   2.100   2.606   6.567  0.1688  0.0139  0.0410
  245POPC   NC3 3362   8.650   0.886   4.820  0.0319  0.0687  0.1721
  245POPC   PO4 3363   9.074   1.022   5.037 -0.0135 -0.0255 -0.4919
  245POPC   GL1 3364   9.171   0.784   5.440 -0.2576  0.0085  0.0150
  245POPC   GL2 3365   9.054   0.459   5.569 -0.3861 -0.1676 -0.0018
  245POPC   C1A 3366   9.384   0.686   5.881  0.0560 -0.0550 -0.2535
  245POPC   D2A 3367   9.719   0.613   6.193 -0.2445 -0.2938 -0.0729
  245POPC   C3A 3368   9.966   0.850   6.425 -0.0937  0.1410 -0.0287
  245POPC   C4A 3369  10.223   1.066   6.678  0.1201 -0.0024  0.0533
  245POPC   C1B 3370   8.876   0.739   5.891  0.2206  0.0794 -0.0897
  245POPC   C2B 3371   8.410   0.661   5.996  0.1128 -0.0852 -0.1051
  245POPC   C3B 3372   8.188   0.495   6.305 -0.0132  0.2638 -0.0007
  245POPC   C4B 3373   7.866   0.559   6.593 -0.2815 -0.2223  0.1672
  246POPC   NC3 3374   0.521   1.318   4.934 -0.0906 -0.0440 -0.0051
  246POPC   PO4 3375   0.890   1.693   4.870 -0.2082  0.1271 -0.4439
  246POPC   GL1 3376   0.820   1.674   5.284  0.0307  0.2135  0.1230
  246POPC   GL2 3377   0.589   2.080   5.208  0.0330  0.1891 -0.1974
  246POPC   C1A 3378   0.753   1.683   5.743  0.0688  0.1267  0.2826
  246POPC   D2A 3379   0.825   1.334   6.057 -0.1391  0.0300  0.0623
  246POPC   C3A 3380   0.750   1.132   6.413 -0.0016  0.2061  0.0040
  246POPC   C4A 3381   0.785   1.235   6.783  0.0836 -0.0666  0.0371
  246POPC   C1B 3382   0.913   2.172   5.612  0.0683 -0.1111 -0.0937
  246POPC   C2B 3383   1.061   2.212   5.948 -0.1649  0.2679  0.1171
  246POPC   C3B 3384   1.046   2.400   6.384  0.0612  0.1091  0.1117
  246POPC   C4B 3385   1.383   2.528   6.631  0.1763 -0.1849 -0.0700
  247POPC   NC3 3386   1.744   9.660   4.735  0.0264  0.2531  0.0336
  247POPC   PO4 3387   1.974   9.788   5.119  0.2054  0.1438 -0.0210
  247POPC   GL1 3388   2.052   9.575   5.480  0.0306 -0.0464  0.2362
  247POPC   GL2 3389   2.348   9.546   5.509  0.0914 -0.0106 -0.0572
  247POPC   C1A 3390   1.893   9.444   5.919  0.1546 -0.0109  0.1366
  247POPC   D2A 3391   1.859   9.606   6.306 -0.2546 -0.3008  0.0785
  247POPC   C3A 3392   1.559   9.698   6.737 -0.2362  0.2075  0.0931
  247POPC   C4A 3393   1.519   9.529   7.090 -0.3745 -0.2498 -0.0584
  247POPC   C1B 3394   2.277   9.189   5.720 -0.1431  0.1240 -0.2906
  247POPC   C2B 3395   2.263   8.936   6.224 -0.0394  0.1083  0.3827
  247POPC   C3B 3396   2.199   8.873   6.712 -0.0386 -0.1256 -0.0327
  247POPC   C4B 3397   2.260   8.983   7.106 -0.3671 -0.0285  0.1405
  248POPC   NC3 3398   8.968   1.506   4.979  0.0296 -0.0913 -0.0344
  248POPC   PO4 3399   9.451   1.367   4.856 -0.2487 -0.2166  0.1029
  248POPC   GL1 3400   9.405   1.315   5.276  0.0604 -0.2459 -0.0828
  248POPC   GL2 3401   9.138   1.294   5.497  0.0824  0.2304  0.0034
  248POPC   C1A 3402   9.588   1.091   5.612  0.2305  0.0477 -0.2121
  248POPC   D2A 3403   9.743   1.099   5.995 -0.0105  0.0180 -0.0217
  248POPC   C3A 3404   9.427   1.342   6.231  0.0810  0.1746  0.1359
  248POPC   C4A 3405   9.299   1.458   6.665 -0.0694  0.0079 -0.0790
  248POPC   C1B 3406   9.138   1.157   5.806  0.2635 -0.2145  0.0104
  248POPC   C2B 3407   8.879   1.246   6.188 -0.1307 -0.1341  0.0186
  248POPC   C3B 3408   8.610   1.009   6.274  0.2647  0.2395  0.0717
  248POPC   C4B 3409   8.668   0.900   6.653  0.2053  0.1386  0.0434
  249POPC   NC3 3410   7.979   4.188   4.486 -0.1047  0.1633 -0.0251
  249POPC   PO4 3411   8.177   4.467   4.695 -0.1115  0.0376  0.0485
  249POPC   GL1 3412   8.454   4.297   5.050 -0.0842 -0.0684 -0.0866
  249POPC   GL2 3413   8.675   4.618   4.991 -0.1965  0.3134 -0.1482
  249POPC   C1A 3414   8.349   4.497   5.434 -0.2452 -0.0344 -0.0308
  249POPC   D2A 3415   7.979   4.718   5.654 -0.3780 -0.0168  0.1944
  249POPC   C3A 3416   8.049   4.827   6.067 -0.0657  0.1986 -0.4986
  249POPC   C4A 3417   8.463   4.780   6.272 -0.0694 -0.1615  0.0591
  249POPC   C1B 3418   8.765   4.704   5.406 -0.0197  0.0102 -0.0754
  249POPC   C2B 3419   8.966   4.514   5.746  0.3545 -0.0315  0.1617
  249POPC   C3B 3420   8.884   4.302   6.080 -0.0454 -0.0027 -0.0994
  249POPC   C4B 3421   8.665   3.886   6.101  0.2563  0.0770  0.0396
  250POPC   NC3 3422   2.542   3.122   4.216 -0.1705  0.1262 -0.0807
  250POPC   PO4 3423   2.844   3.358   4.035  0.0345  0.2028 -0.0136
  250POPC   GL1 3424   2.614   3.640   4.253 -0.0711 -0.0121  0.1255
  250POPC   GL2 3425   2.323   3.698   4.345 -0.0168  0.2065  0.2898
  250POPC   C1A 3426   2.690   3.687   4.683 -0.3580  0.0184 -0.0623
  250POPC   D2A 3427   2.757   4.124   4.909 -0.3597 -0.0140  0.3904
  250POPC   C3A 3428   3.018   4.371   4.730  0.1822 -0.2430  0.0022
  250POPC   C4A 3429   3.441   4.544   4.784  0.0622  0.0393 -0.1262
  250POPC   C1B 3430   2.396   4.196   4.442  0.0019  0.0278  0.1849
  250POPC   C2B 3431   2.438   4.594   4.610 -0.5392  0.1299  0.1617
  250POPC   C3B 3432   2.659   4.624   5.015  0.1506 -0.1680  0.1752
  250POPC   C4B 3433   2.543   4.998   5.320 -0.0655  0.4191 -0.0947
  251POPC   NC3 3434   4.560   8.058   4.631 -0.2390  0.0256  0.2213
  251POPC   PO4 3435   4.703   7.710   4.725 -0.0800  0.1631 -0.2144
  251POPC   GL1 3436   4.959   7.724   5.111  0.1734 -0.1015 -0.0861
  251POPC   GL2 3437   4.847   8.040   5.244  0.3795  0.1035  0.1098
  251POPC   C1A 3438   5.135   7.678   5.520  0.3996 -0.0958  0.2781
  251POPC   D2A 3439   5.136   7.595   5.957 -0.0308 -0.1616  0.0142
  251POPC   C3A 3440   5.149   7.958   6.276  0.5354 -0.1950  0.0278
  251POPC   C4A 3441   4.925   8.059   6.718 -0.0103 -0.2947 -0.3586
  251POPC   C1B 3442   4.457   8.159   5.496  0.0798  0.1333 -0.0688
  251POPC   C2B 3443   4.299   7.931   5.810  0.1010  0.0836 -0.2284
  251POPC   C3B 3444   3.959   7.783   6.104 -0.3481  0.3504 -0.0132
  251POPC   C4B 3445   3.794   8.069   6.508 -0.2159 -0.0633 -0.1906
  252POPC   NC3 3446   5.599   1.289   4.300 -0.3207  0.2298 -0.2689
  252POPC   PO4 3447   5.322   1.565   4.215 -0.1850  0.3415 -0.2920
  252POPC   GL1 3448   5.324   1.615   4.673 -0.1498 -0.0893  0.1452
  252POPC   GL2 3449   5.735   1.703   4.831  0.2929 -0.3044  0.5345
  252POPC   C1A 3450   5.100   1.813   4.974  0.1319  0.2733 -0.0062
  252POPC   D2A 3451   4.928   1.833   5.432 -0.1057 -0.1953  0.0957
  252POPC   C3A 3452   5.059   1.919   5.866  0.0314 -0.1616  0.0177
  252POPC   C4A 3453   5.027   2.004   6.254  0.1600 -0.2192 -0.0183
  252POPC   C1B 3454   5.743   1.869   5.230  0.0399  0.4418 -0.0092
  252POPC   C2B 3455   5.435   2.036   5.509  0.3250 -0.1625  0.2529
  252POPC   C3B 3456   5.515   2.299   5.878  0.1308  0.1644 -0.3442
  252POPC   C4B 3457   5.472   2.592   6.249  0.0793  0.2950 -0.1077
  253POPC   NC3 3458   4.144   4.745   3.337 -0.0583 -0.3055 -0.2309
  253POPC   PO4 3459   3.860   4.982   3.606 -0.0217  0.0078  0.1621
  253POPC   GL1 3460   4.047   4.700   3.823  0.1389 -0.3516  0.2342
  253POPC   GL2 3461   4.401   4.740   3.808 -0.0264 -0.4086 -0.2697
  253POPC   C1A 3462   3.991   4.475   4.175  0.0954  0.0510 -0.0743
  253POPC   D2A 3463   4.171   3.997   4.270  0.0329  0.0987 -0.2150
  253POPC   C3A 3464   4.067   3.720   4.589  0.0151  0.1665 -0.3483
  253POPC   C4A 3465   3.754   3.580   4.880 -0.3313 -0.2324 -0.2676
  253POPC   C1B 3466   4.570   4.549   4.235  0.1065  0.4527  0.3403
  253POPC   C2B 3467   4.599   4.117   4.443  0.0847 -0.2374  0.2295
  253POPC   C3B 3468   4.491   3.986   4.759  0.0148 -0.6188 -0.0320
  253POPC   C4B 3469   4.169   3.877   5.050  0.2503 -0.0427 -0.0937
  254POPC   NC3 3470   8.805   7.685   4.209  0.1138  0.2255  0.0862
  254POPC   PO4 3471   8.500   7.750   4.525  0.2601  0.1162 -0.1415
  254POPC   GL1 3472   8.412   7.816   5.059 -0.0595 -0.2466  0.2561
  254POPC   GL2 3473   8.637   7.865   5.263  0.1333 -0.0948 -0.1399
  254POPC   C1A 3474   8.270   8.159   5.457 -0.0844  0.0256 -0.0016
  254POPC   D2A 3475   8.238   8.229   5.905  0.0250  0.1555 -0.0712
  254POPC   C3A 3476   8.028   8.538   5.949  0.2191  0.0730 -0.2545
  254POPC   C4A 3477   7.883   8.855   6.240  0.0432  0.0727  0.0201
  254POPC   C1B 3478   8.388   7.732   5.721  0.1871  0.1246 -0.1090
  254POPC   C2B 3479   8.362   7.654   6.175  0.2446  0.0001 -0.2768
  254POPC   C3B 3480   8.172   7.488   6.496 -0.1173  0.2849  0.0045
  254POPC   C4B 3481   7.839   7.528   6.550 -0.0362  0.0573  0.1764
  255POPC   NC3 3482   2.213   8.364   4.677  0.4098  0.1506 -0.0412
  255POPC   PO4 3483   2.540   8.066   4.611 -0.1268 -0.2453 -0.1481
  255POPC   GL1 3484   2.405   8.144   5.018 -0.0611  0.0726  0.0602
  255POPC   GL2 3485   2.226   8.274   5.167 -0.0096 -0.2846 -0.0493
  255POPC   C1A 3486   2.217   7.807   5.288  0.0250  0.1082 -0.0006
  255POPC   D2A 3487   2.200   7.684   5.665 -0.2193 -0.0606  0.2260
  255POPC   C3A 3488   2.099   7.915   6.012 -0.2253  0.1395 -0.1764
  255POPC   C4A 3489   1.980   7.994   6.428 -0.0636 -0.0793  0.0874
  255POPC   C1B 3490   2.216   8.289   5.648 -0.0066 -0.2129 -0.0079
  255POPC   C2B 3491   2.269   8.468   6.138  0.0725 -0.0044 -0.0370
  255POPC   C3B 3492   2.378   8.470   6.549 -0.2289 -0.0886 -0.2749
  255POPC   C4B 3493   2.313   8.428   6.933 -0.0464 -0.0735 -0.0021
  256POPC   NC3 3494   2.937   8.278   4.409  0.1377  0.0652 -0.0744
  256POPC   PO4 3495   3.010   7.869   4.497 -0.3129 -0.2146 -0.3330
  256POPC   GL1 3496   3.084   7.729   4.951 -0.1031 -0.2820 -0.1637
  256POPC   GL2 3497   2.861   7.882   5.175 -0.1152  0.0383 -0.1393
  256POPC   C1A 3498   3.031   7.375   5.216 -0.2386 -0.2528 -0.1619
  256POPC   D2A 3499   3.059   7.101   5.398  0.2302  0.1997 -0.4035
  256POPC   C3A 3500   3.458   6.902   5.284 -0.3088  0.2197  0.0923
  256POPC   C4A 3501   3.726   6.545   5.323 -0.0487  0.0453  0.0938
  256POPC   C1B 3502   2.651   8.003   5.484 -0.1881 -0.0837 -0.1009
  256POPC   C2B 3503   2.649   8.034   5.923  0.0014  0.2092 -0.5275
  256POPC   C3B 3504   2.500   7.967   6.351  0.2157 -0.0584 -0.1484
  256POPC   C4B 3505   2.316   7.931   6.765 -0.0133 -0.2182 -0.1065
  257POPC   NC3 3506   4.825   1.248   4.465 -0.1119 -0.2920 -0.2693
  257POPC   PO4 3507   4.673   0.901   4.667  0.1917  0.0688 -0.0347
  257POPC   GL1 3508   4.652   0.896   5.083  0.1062 -0.0614 -0.0743
  257POPC   GL2 3509   4.934   0.828   5.353  0.1292  0.0433  0.3736
  257POPC   C1A 3510   4.423   1.115   5.404  0.0870  0.2488 -0.1889
  257POPC   D2A 3511   4.152   1.241   5.695 -0.0113  0.0428 -0.0764
  257POPC   C3A 3512   4.245   1.591   5.988 -0.0635 -0.0194  0.0345
  257POPC   C4A 3513   4.254   1.970   6.411 -0.0754  0.0287 -0.3170
  257POPC   C1B 3514   4.758   1.027   5.770  0.1979 -0.2399  0.2534
  257POPC   C2B 3515   4.461   1.095   6.007 -0.0013 -0.1530 -0.2118
  257POPC   C3B 3516   4.252   1.202   6.319 -0.1114  0.0575 -0.2339
  257POPC   C4B 3517   4.025   1.521   6.593 -0.3624 -0.1639 -0.2138
  258POPC   NC3 3518   4.723   9.799   4.734 -0.0249  0.4869  0.1409
  258POPC   PO4 3519   4.989  10.125   4.952 -0.3480 -0.0239  0.2094
  258POPC   GL1 3520   5.081  10.285   5.358 -0.0463 -0.1930  0.1582
  258POPC   GL2 3521   5.268  10.040   5.570 -0.2137 -0.2952 -0.0098
  258POPC   C1A 3522   5.011  10.524   5.807 -0.3748  0.3660 -0.1121
  258POPC   D2A 3523   4.754  10.518   6.119  0.0502 -0.0993  0.0081
  258POPC   C3A 3524   4.831  10.655   6.510 -0.1548  0.4505 -0.2596
  258POPC   C4A 3525   4.873  10.672   7.023 -0.1179 -0.3924 -0.1917
  258POPC   C1B 3526   5.557   9.976   5.825  0.0640 -0.0543  0.2192
  258POPC   C2B 3527   5.750   9.674   5.983 -0.0690  0.0495  0.0813
  258POPC   C3B 3528   6.005   9.796   6.292 -0.2147 -0.3323 -0.0381
  258POPC   C4B 3529   6.074   9.929   6.679  0.0447 -0.1353 -0.4272
  259POPC   NC3 3530   6.096   9.204   5.036 -0.0913  0.0602  0.1527
  259POPC   PO4 3531   6.446   9.010   4.776  0.0375 -0.0787  0.0267
  259POPC   GL1 3532   6.351   8.754   5.154  0.2389 -0.2809  0.2218
  259POPC   GL2 3533   6.388   8.403   5.220  0.0351  0.0437  0.0438
  259POPC   C1A 3534   6.165   8.614   5.606 -0.2859  0.0991  0.1391
  259POPC   D2A 3535   6.067   8.820   5.982  0.1155 -0.2098  0.1204
  259POPC   C3A 3536   5.660   8.980   5.883  0.1441  0.1191 -0.0211
  259POPC   C4A 3537   5.365   9.098   6.044 -0.5187  0.0066 -0.1057
  259POPC   C1B 3538   6.397   8.138   5.570  0.2372 -0.3506 -0.0430
  259POPC   C2B 3539   6.663   8.045   5.863  0.0530  0.0931 -0.1647
  259POPC   C3B 3540   6.575   7.902   6.395 -0.1987  0.1151  0.3905
  259POPC   C4B 3541   6.570   7.739   6.844  0.2315  0.0890 -0.0394
  260POPC   NC3 3542   9.486   3.445   4.423  0.3726 -0.3238 -0.2000
  260POPC   PO4 3543   9.648   3.545   4.779 -0.1984 -0.2313 -0.0869
  260POPC   GL1 3544   9.811   3.591   5.187 -0.1136 -0.1086  0.0337
  260POPC   GL2 3545   9.773   3.247   5.377  0.0637 -0.1813 -0.1418
  260POPC   C1A 3546   9.829   3.844   5.526  0.1516  0.2201 -0.2521
  260POPC   D2A 3547   9.831   3.873   6.003 -0.3540  0.0253 -0.1429
  260POPC   C3A 3548   9.778   4.218   6.228 -0.0215 -0.2388  0.2121
  260POPC   C4A 3549   9.401   4.452   6.324 -0.2119 -0.1903  0.0357
  260POPC   C1B 3550   9.991   3.300   5.737  0.2995 -0.2863  0.3588
  260POPC   C2B 3551  10.189   3.548   5.898 -0.2197 -0.0396  0.5314
  260POPC   C3B 3552  10.325   3.583   6.318  0.0851 -0.2467 -0.0633
  260POPC   C4B 3553  10.534   3.675   6.583  0.0706 -0.0848 -0.2792
  261POPC   NC3 3554   7.566   7.932   4.740 -0.2240  0.2219 -0.2900
  261POPC   PO4 3555   7.707   8.387   4.787  0.3702  0.0586 -0.3888
  261POPC   GL1 3556   7.801   8.435   5.289 -0.2643  0.0852  0.1215
  261POPC   GL2 3557   8.113   8.649   5.447 -0.0286 -0.4382 -0.3423
  261POPC   C1A 3558   7.768   8.132   5.695 -0.3953 -0.0277  0.0076
  261POPC   D2A 3559   7.471   7.714   5.878  0.1368 -0.0863  0.0122
  261POPC   C3A 3560   7.503   7.413   6.150  0.0362 -0.1478 -0.0550
  261POPC   C4A 3561   7.457   7.263   6.601  0.3792 -0.0883 -0.1703
  261POPC   C1B 3562   7.926   8.993   5.758  0.0853 -0.0948 -0.0330
  261POPC   C2B 3563   8.004   9.302   6.002 -0.2015  0.4400 -0.2414
  261POPC   C3B 3564   8.115   9.523   6.284  0.0719  0.0865 -0.0349
  261POPC   C4B 3565   8.287   9.481   6.660 -0.1924 -0.1030 -0.2855
  262POPC   NC3 3566   2.010   2.120   4.681 -0.2872  0.0035 -0.1229
  262POPC   PO4 3567   1.847   1.932   5.139  0.2723  0.0921  0.1173
  262POPC   GL1 3568   1.958   2.302   5.484 -0.0872 -0.0094  0.0885
  262POPC   GL2 3569   1.996   2.604   5.414 -0.0741  0.1802  0.0906
  262POPC   C1A 3570   2.216   2.311   5.865 -0.3018 -0.1020 -0.0961
  262POPC   D2A 3571   2.319   2.299   6.250 -0.1115  0.0663 -0.0221
  262POPC   C3A 3572   1.999   1.983   6.330 -0.0751 -0.0661 -0.2538
  262POPC   C4A 3573   1.596   1.726   6.296 -0.2695  0.0788  0.0307
  262POPC   C1B 3574   2.423   2.746   5.427  0.2616  0.1491  0.0586
  262POPC   C2B 3575   2.815   2.911   5.374 -0.1588  0.1086 -0.1036
  262POPC   C3B 3576   3.233   3.042   5.370  0.2819  0.1734 -0.1651
  262POPC   C4B 3577   3.606   3.183   5.237  0.0199  0.1774 -0.1757
  263POPC   NC3 3578   5.202   4.476   3.538  0.0460  0.3278 -0.0941
  263POPC   PO4 3579   5.344   4.744   3.820 -0.0924  0.1221  0.0124
  263POPC   GL1 3580   5.401   4.600   4.205 -0.0889 -0.0877  0.0217
  263POPC   GL2 3581   5.220   4.795   4.415  0.0006 -0.0316  0.0046
  263POPC   C1A 3582   5.220   4.251   4.372  0.1443  0.0111 -0.1194
  263POPC   D2A 3583   5.358   3.923   4.498  0.0755  0.0272  0.1049
  263POPC   C3A 3584   5.394   3.887   4.972  0.1730 -0.1707 -0.0372
  263POPC   C4A 3585   5.117   3.940   5.335 -0.0787  0.0819 -0.2325
  263POPC   C1B 3586   5.641   4.873   4.691  0.1125  0.1129  0.0408
  263POPC   C2B 3587   5.565   4.842   5.099 -0.1385 -0.1835  0.0687
  263POPC   C3B 3588   5.515   4.796   5.449  0.1146  0.0883 -0.1328
  263POPC   C4B 3589   5.766   4.805   5.820  0.0834  0.1235  0.4022
  264POPC   NC3 3590   6.687   4.552   3.987 -0.1995  0.0931  0.3221
  264POPC   PO4 3591   6.823   4.593   4.409  0.1029  0.1185 -0.0354
  264POPC   GL1 3592   6.733   4.242   4.712 -0.1340  0.1552  0.2411
  264POPC   GL2 3593   6.686   4.452   4.918 -0.0022 -0.2585 -0.0037
  264POPC   C1A 3594   6.505   3.813   4.890 -0.3969 -0.2154  0.3009
  264POPC   D2A 3595   6.227   3.546   5.039  0.1493  0.0519 -0.0393
  264POPC   C3A 3596   5.988   3.540   5.441  0.1088 -0.0959 -0.4150
  264POPC   C4A 3597   5.866   3.671   5.907  0.0490 -0.4411 -0.2298
  264POPC   C1B 3598   6.400   4.405   5.190 -0.2000 -0.0520 -0.0312
  264POPC   C2B 3599   6.487   4.263   5.588  0.1224 -0.0212  0.2081
  264POPC   C3B 3600   6.637   4.219   6.033  0.2372  0.1850 -0.0569
  264POPC   C4B 3601   6.375   4.333   6.431  0.2316 -0.1428 -0.0106
  265POPC   NC3 3602   5.089   6.948   4.256  0.0174  0.3970 -0.1536
  265POPC   PO4 3603   5.474   7.074   4.545 -0.3301 -0.3832 -0.0491
  265POPC   GL1 3604   5.605   6.981   4.900 -0.4628  0.0169 -0.0798
  265POPC   GL2 3605   5.684   6.689   4.947  0.1410  0.0698  0.2965
  265POPC   C1A 3606   5.631   6.985   5.393  0.2390 -0.0770  0.4789
  265POPC   D2A 3607   5.702   6.977   5.811  0.1901  0.1699  0.2923
  265POPC   C3A 3608   5.768   6.939   6.242 -0.0389 -0.1328  0.5009
  265POPC   C4A 3609   5.808   6.675   6.547 -0.3880  0.2770 -0.1440
  265POPC   C1B 3610   6.072   6.799   5.167 -0.0826  0.1787 -0.0215
  265POPC   C2B 3611   6.129   7.178   5.507 -0.0729 -0.0206 -0.0995
  265POPC   C3B 3612   6.172   7.145   5.945 -0.3068  0.2323 -0.0213
  265POPC   C4B 3613   6.268   6.955   6.305  0.0651  0.0263 -0.0939
  266POPC   NC3 3614   2.463   1.785   3.888 -0.2553 -0.1354  0.2510
  266POPC   PO4 3615   2.773   2.117   3.944  0.0402 -0.1377 -0.0280
  266POPC   GL1 3616   2.982   2.309   4.212 -0.1552 -0.1278 -0.3144
  266POPC   GL2 3617   3.056   2.632   4.134  0.1305  0.2699  0.0986
  266POPC   C1A 3618   3.053   2.280   4.564 -0.1131 -0.1008 -0.0675
  266POPC   D2A 3619   3.466   2.061   4.629  0.1852  0.1322 -0.0450
  266POPC   C3A 3620   3.732   2.354   4.759 -0.0372  0.2173  0.1152
  266POPC   C4A 3621   3.923   2.721   4.741 -0.0057  0.0698 -0.1175
  266POPC   C1B 3622   2.935   2.766   4.535  0.0306 -0.0326 -0.2432
  266POPC   C2B 3623   2.829   3.122   4.797  0.2513 -0.0711 -0.2943
  266POPC   C3B 3624   2.742   3.351   5.105 -0.1166  0.1056  0.1717
  266POPC   C4B 3625   2.990   3.456   5.507  0.1088  0.4649  0.3300
  267POPC   NC3 3626   7.994   9.629   4.605 -0.0856  0.2906  0.1746
  267POPC   PO4 3627   7.974   9.289   4.621 -0.0481  0.2780 -0.4504
  267POPC   GL1 3628   8.026   9.482   5.112  0.0533  0.0625 -0.1239
  267POPC   GL2 3629   8.313   9.334   5.270  0.2004  0.1652  0.1406
  267POPC   C1A 3630   7.955   9.584   5.560 -0.0444 -0.0048 -0.0221
  267POPC   D2A 3631   7.775   9.795   5.866  0.1729  0.0706  0.3517
  267POPC   C3A 3632   7.619   9.547   6.182 -0.1332 -0.1975  0.3090
  267POPC   C4A 3633   7.751   9.587   6.592 -0.0321  0.0325 -0.0598
  267POPC   C1B 3634   8.409   9.081   5.539 -0.2417 -0.0158 -0.2637
  267POPC   C2B 3635   8.361   8.936   5.984 -0.0709  0.0816  0.1340
  267POPC   C3B 3636   8.561   8.551   6.114 -0.2907 -0.1513  0.2838
  267POPC   C4B 3637   8.386   8.303   6.389  0.1084  0.0724 -0.0711
  268POPC   NC3 3638   5.922   0.662   5.091  0.0862 -0.0499 -0.2911
  268POPC   PO4 3639   5.457   0.519   5.118  0.0829  0.1394 -0.0146
  268POPC   GL1 3640   5.625   0.657   5.495  0.0635 -0.2711  0.1594
  268POPC   GL2 3641   5.562   0.916   5.399  0.2683  0.0758  0.0891
  268POPC   C1A 3642   5.490   0.645   5.870  0.0059 -0.2129  0.0314
  268POPC   D2A 3643   5.332   0.411   6.179  0.1777 -0.3390  0.3164
  268POPC   C3A 3644   5.512   0.101   6.331  0.1515 -0.0676  0.0929
  268POPC   C4A 3645   5.534  -0.256   6.510  0.0323  0.0462  0.0072
  268POPC   C1B 3646   5.246   1.042   5.668  0.0595 -0.2319 -0.3385
  268POPC   C2B 3647   5.132   0.953   6.086  0.0897  0.3283 -0.0782
  268POPC   C3B 3648   4.959   1.157   6.581 -0.1276  0.0634  0.0348
  268POPC   C4B 3649   5.017   1.442   6.981  0.1451 -0.0819 -0.1045
  269POPC   NC3 3650   0.391   1.777   4.744 -0.0654  0.5514  0.0167
  269POPC   PO4 3651   0.269   1.690   5.130 -0.2240 -0.1438 -0.2349
  269POPC   GL1 3652   0.290   1.629   5.579  0.0826 -0.0235  0.2579
  269POPC   GL2 3653   0.020   1.415   5.652 -0.1947  0.0373  0.4701
  269POPC   C1A 3654   0.370   1.587   6.037 -0.1507 -0.0969  0.2567
  269POPC   D2A 3655   0.501   1.607   6.456  0.2925 -0.0386  0.0680
  269POPC   C3A 3656   0.752   1.850   6.638  0.0665  0.0190  0.2212
  269POPC   C4A 3657   1.217   1.968   6.626 -0.0914  0.0684  0.2757
  269POPC   C1B 3658  -0.366   1.630   5.690  0.0328 -0.3985  0.0079
  269POPC   C2B 3659  -0.754   1.657   5.890  0.1606 -0.0271 -0.1156
  269POPC   C3B 3660  -1.151   1.770   6.113 -0.0183  0.1606 -0.0712
  269POPC   C4B 3661  -1.337   2.070   6.456  0.0199 -0.1102  0.0486
  270POPC   NC3 3662   3.519   9.411   4.465 -0.0993 -0.1344  0.0190
  270POPC   PO4 3663   3.872   9.761   4.638 -0.1104 -0.0639 -0.0595
  270POPC   GL1 3664   3.789   9.802   5.200 -0.1620 -0.1058  0.0515
  270POPC   GL2 3665   4.015   9.554   5.423  0.2591  0.2711  0.0453
  270POPC   C1A 3666   3.756   9.843   5.637  0.1364 -0.0693 -0.3367
  270POPC   D2A 3667   3.981   9.642   5.957 -0.2409 -0.0003  0.0842
  270POPC   C3A 3668   4.177   9.703   6.368  0.1017 -0.0444  0.1631
  270POPC   C4A 3669   4.571   9.358   6.527  0.1715 -0.0704  0.1039
  270POPC   C1B 3670   3.687   9.332   5.678 -0.1975  0.1563  0.0702
  270POPC   C2B 3671   3.385   9.347   5.899 -0.0833 -0.0143  0.0011
  270POPC   C3B 3672   3.346   9.167   6.347  0.1038 -0.2554 -0.1933
  270POPC   C4B 3673   3.492   8.875   6.710  0.1620 -0.1979 -0.0234
  271POPC   NC3 3674   3.653   0.895   4.009  0.2777 -0.3749  0.0495
  271POPC   PO4 3675   3.680   1.104   4.297 -0.0077  0.0312  0.1738
  271POPC   GL1 3676   3.965   1.284   4.661 -0.0064 -0.0865 -0.2172
  271POPC   GL2 3677   4.306   1.276   4.613 -0.0028 -0.1779 -0.1503
  271POPC   C1A 3678   3.997   1.457   5.065  0.3631  0.0377  0.0939
  271POPC   D2A 3679   3.702   1.476   5.460  0.1742  0.0417  0.0738
  271POPC   C3A 3680   3.780   1.417   5.927 -0.0784  0.1251  0.0850
  271POPC   C4A 3681   3.724   1.670   6.181  0.0715  0.2057 -0.5256
  271POPC   C1B 3682   4.470   1.509   5.011  0.2572 -0.2387  0.2145
  271POPC   C2B 3683   4.370   1.707   5.320  0.2411  0.0966 -0.0914
  271POPC   C3B 3684   4.065   1.830   5.572 -0.7284  0.1056 -0.4072
  271POPC   C4B 3685   3.695   2.021   5.823 -0.0032  0.0865  0.0483
  272POPC   NC3 3686   1.642   7.646   4.676  0.1113  0.1178  0.4122
  272POPC   PO4 3687   1.216   7.971   4.635 -0.1847  0.1454 -0.1412
  272POPC   GL1 3688   1.224   8.100   5.079  0.0357 -0.3356  0.0627
  272POPC   GL2 3689   1.350   8.393   5.197 -0.0554 -0.0332 -0.1820
  272POPC   C1A 3690   1.324   8.022   5.534  0.3383 -0.0971  0.2387
  272POPC   D2A 3691   1.439   7.792   5.929 -0.3017  0.1091  0.2115
  272POPC   C3A 3692   1.459   8.001   6.298  0.2085  0.0378  0.0898
  272POPC   C4A 3693   1.331   7.896   6.693  0.2089  0.0305  0.0419
  272POPC   C1B 3694   1.494   8.513   5.569 -0.1214 -0.2182  0.3229
  272POPC   C2B 3695   1.360   8.753   5.827 -0.1062  0.1588  0.1131
  272POPC   C3B 3696   1.542   8.959   6.205 -0.0146  0.0755  0.1253
  272POPC   C4B 3697   1.842   9.111   6.267 -0.2313 -0.0994  0.1295
  273POPC   NC3 3698   8.726   3.054   4.633  0.0562  0.2504 -0.0845
  273POPC   PO4 3699   9.039   2.832   4.840  0.1612 -0.1017  0.0924
  273POPC   GL1 3700   9.305   2.910   5.321 -0.0358  0.2643 -0.3839
  273POPC   GL2 3701   9.488   2.596   5.432  0.0591  0.1129 -0.1364
  273POPC   C1A 3702   9.381   3.036   5.765 -0.2636  0.2573 -0.0349
  273POPC   D2A 3703   9.685   2.702   5.935  0.0391  0.0076  0.0013
  273POPC   C3A 3704   9.881   2.873   6.241 -0.0994  0.0978 -0.0866
  273POPC   C4A 3705  10.237   3.011   6.114  0.0060 -0.2656 -0.5762
  273POPC   C1B 3706   9.200   2.574   5.773  0.0596  0.2900 -0.1219
  273POPC   C2B 3707   8.871   2.915   6.134  0.1629  0.4968 -0.0870
  273POPC   C3B 3708   8.784   3.261   6.413  0.1317 -0.0105 -0.5269
  273POPC   C4B 3709   8.655   3.621   6.573  0.1072 -0.3268  0.0929
  274POPC   NC3 3710   8.454   5.736   4.316  0.0900  0.2044  0.2881
  274POPC   PO4 3711   8.385   5.425   4.577  0.1882  0.1161  0.1105
  274POPC   GL1 3712   8.557   5.411   5.001  0.3327 -0.0875 -0.0010
  274POPC   GL2 3713   8.775   5.159   5.185 -0.1191  0.1150  0.1302
  274POPC   C1A 3714   8.566   5.676   5.359 -0.0793  0.3405 -0.1557
  274POPC   D2A 3715   8.849   5.885   5.740 -0.0844 -0.2234  0.1215
  274POPC   C3A 3716   9.026   5.579   6.025  0.3220 -0.0616  0.1959
  274POPC   C4A 3717   8.969   5.403   6.263 -0.0512 -0.1781 -0.0913
  274POPC   C1B 3718   8.362   5.223   5.406  0.0864 -0.0273  0.1578
  274POPC   C2B 3719   8.135   5.185   5.720 -0.0909 -0.0467  0.1821
  274POPC   C3B 3720   7.921   5.281   6.068  0.0835  0.2826 -0.1707
  274POPC   C4B 3721   7.588   5.481   6.223 -0.2220 -0.2087 -0.3479
  275POPC   NC3 3722   5.338   9.215   4.607  0.1222  0.0759  0.0944
  275POPC   PO4 3723   5.488   8.904   4.883 -0.3106  0.1595  0.1401
  275POPC   GL1 3724   5.507   8.615   5.228  0.0446  0.0529  0.2210
  275POPC   GL2 3725   5.234   8.402   5.200  0.4941  0.1880 -0.1894
  275POPC   C1A 3726   5.574   8.554   5.660  0.1537 -0.1440 -0.1286
  275POPC   D2A 3727   5.526   8.459   6.116  0.1041  0.0302  0.2766
  275POPC   C3A 3728   5.315   8.710   6.422  0.3819 -0.1717  0.0857
  275POPC   C4A 3729   4.978   8.947   6.368 -0.1723 -0.0430 -0.2851
  275POPC   C1B 3730   5.116   8.233   5.644  0.1655 -0.1012 -0.0515
  275POPC   C2B 3731   4.867   7.994   5.815  0.1263 -0.2002  0.2397
  275POPC   C3B 3732   4.630   8.005   6.181  0.2580 -0.1401  0.0853
  275POPC   C4B 3733   4.262   8.170   6.281 -0.1829  0.0053  0.2365
  276POPC   NC3 3734   2.684   0.279   5.158 -0.1193 -0.0848 -0.0677
  276POPC   PO4 3735   3.013   0.443   5.341  0.1336 -0.1178  0.1338
  276POPC   GL1 3736   2.991   0.579   5.839 -0.1560 -0.0305  0.3197
  276POPC   GL2 3737   2.666   0.678   5.837  0.0426  0.2016  0.0336
  276POPC   C1A 3738   3.241   1.000   6.007 -0.1180 -0.0255  0.0503
  276POPC   D2A 3739   3.287   1.366   6.289  0.4042  0.0863  0.2394
  276POPC   C3A 3740   3.086   1.188   6.729  0.0719 -0.0720 -0.1878
  276POPC   C4A 3741   2.721   1.365   6.969 -0.0702 -0.0773  0.0630
  276POPC   C1B 3742   2.758   1.000   6.036 -0.0548 -0.1336 -0.1682
  276POPC   C2B 3743   2.664   1.321   6.395  0.0433  0.2840 -0.1528
  276POPC   C3B 3744   2.452   1.657   6.613 -0.0271  0.5240  0.0098
  276POPC   C4B 3745   2.060   1.703   6.957  0.0749 -0.0889  0.2038
  277POPC   NC3 3746   7.451   1.587   4.903  0.1074  0.2200 -0.0798
  277POPC   PO4 3747   7.096   1.993   4.783 -0.2294  0.0060 -0.2595
  277POPC   GL1 3748   7.024   1.676   5.205 -0.1551  0.0656 -0.2606
  277POPC   GL2 3749   6.925   1.392   5.468 -0.0777  0.4083  0.3645
  277POPC   C1A 3750   6.970   1.802   5.637  0.0921 -0.2746  0.1862
  277POPC   D2A 3751   6.981   2.078   5.970  0.0183  0.3539 -0.0414
  277POPC   C3A 3752   6.681   2.043   6.237 -0.1974 -0.1570 -0.0509
  277POPC   C4A 3753   6.419   2.233   6.504 -0.3451  0.0161  0.1161
  277POPC   C1B 3754   6.752   1.320   5.769 -0.0870  0.0731  0.0897
  277POPC   C2B 3755   6.538   1.645   5.955  0.1224  0.0872  0.2484
  277POPC   C3B 3756   6.143   1.960   6.075 -0.0381  0.2985  0.0371
  277POPC   C4B 3757   6.013   2.387   6.318  0.0038  0.0238 -0.3252
  278POPC   NC3 3758   0.697   6.082   4.777  0.0417 -0.0248 -0.1757
  278POPC   PO4 3759   1.234   6.115   4.653  0.1434 -0.0933 -0.1982
  278POPC   GL1 3760   1.148   6.202   5.048  0.1441  0.0412 -0.0550
  278POPC   GL2 3761   0.762   6.255   5.279 -0.2136 -0.1042  0.2670
  278POPC   C1A 3762   1.208   6.186   5.488  0.2040 -0.0828 -0.0743
  278POPC   D2A 3763   1.179   5.925   5.802 -0.1234  0.0567 -0.2096
  278POPC   C3A 3764   1.217   5.762   6.349 -0.1492 -0.0789  0.0683
  278POPC   C4A 3765   1.524   5.725   6.539  0.3035  0.4402 -0.0779
  278POPC   C1B 3766   0.408   6.424   5.540 -0.2292 -0.1627  0.0362
  278POPC   C2B 3767   0.397   6.332   6.084 -0.0869 -0.0617  0.1124
  278POPC   C3B 3768   0.311   6.312   6.540 -0.4030  0.0722  0.3271
  278POPC   C4B 3769   0.364   6.636   6.873  0.0369 -0.0979  0.1633
  279POPC   NC3 3770   1.043   3.841   4.389 -0.0221  0.0203  0.2589
  279POPC   PO4 3771   1.432   3.614   4.383 -0.0710 -0.2106 -0.0996
  279POPC   GL1 3772   1.777   3.517   4.641 -0.2064  0.0602  0.2276
  279POPC   GL2 3773   1.724   3.211   4.873  0.1146  0.2679  0.0512
  279POPC   C1A 3774   2.232   3.374   4.857 -0.2200  0.2835 -0.0224
  279POPC   D2A 3775   2.429   3.736   5.187  0.0766  0.1773 -0.0603
  279POPC   C3A 3776   2.453   3.784   5.641  0.2607 -0.0542  0.0912
  279POPC   C4A 3777   2.137   3.877   5.925 -0.2651 -0.2959  0.1575
  279POPC   C1B 3778   1.887   3.513   5.169  0.3092  0.2292 -0.1671
  279POPC   C2B 3779   2.025   3.660   5.462 -0.0828 -0.0256 -0.0076
  279POPC   C3B 3780   2.211   3.311   5.869  0.2986 -0.1544 -0.1706
  279POPC   C4B 3781   2.246   2.782   5.974  0.0352  0.1385  0.0367
  280POPC   NC3 3782   6.304   0.023   4.617  0.0287  0.0546  0.0110
  280POPC   PO4 3783   6.428   0.065   5.154  0.3988 -0.1681  0.2279
  280POPC   GL1 3784   6.593  -0.024   5.463  0.4563 -0.0105 -0.3403
  280POPC   GL2 3785   6.727   0.127   5.628 -0.0881  0.0042 -0.2261
  280POPC   C1A 3786   6.676  -0.428   5.729  0.1212  0.1468  0.0438
  280POPC   D2A 3787   6.503  -0.684   5.892 -0.0448  0.2573 -0.2165
  280POPC   C3A 3788   6.524  -0.563   6.236  0.0852 -0.0972  0.2733
  280POPC   C4A 3789   6.712  -0.682   6.662 -0.2793  0.0235  0.2788
  280POPC   C1B 3790   6.469   0.475   5.790  0.2477 -0.0821  0.1743
  280POPC   C2B 3791   6.384   0.843   6.031  0.0938  0.0281  0.1684
  280POPC   C3B 3792   6.488   1.140   6.316 -0.0132 -0.1449  0.0221
  280POPC   C4B 3793   6.524   1.543   6.476 -0.1119  0.2664  0.2998
  281POPC   NC3 3794   4.149   6.578   4.482  0.0233 -0.1837  0.2776
  281POPC   PO4 3795   4.139   7.003   4.391  0.1569 -0.1881 -0.3433
  281POPC   GL1 3796   4.284   6.986   4.825 -0.0929 -0.0195 -0.2343
  281POPC   GL2 3797   4.391   7.271   4.942  0.1748  0.2082  0.1451
  281POPC   C1A 3798   4.240   6.662   5.200  0.1535 -0.2194  0.0431
  281POPC   D2A 3799   4.412   6.298   5.222  0.0985 -0.0904  0.1696
  281POPC   C3A 3800   4.301   5.953   5.523 -0.1424  0.0923  0.3306
  281POPC   C4A 3801   4.112   5.882   5.845 -0.1046  0.3799 -0.3056
  281POPC   C1B 3802   4.419   7.143   5.304 -0.1121 -0.0140 -0.3722
  281POPC   C2B 3803   4.417   6.932   5.661  0.2070  0.2634  0.2072
  281POPC   C3B 3804   4.380   6.504   5.767 -0.0711 -0.0800  0.2013
  281POPC   C4B 3805   4.228   6.295   6.148 -0.0495 -0.0645 -0.0084
  282POPC   NC3 3806   5.508   5.206   4.077  0.0965 -0.0407  0.0293
  282POPC   PO4 3807   5.504   5.690   4.132 -0.0802  0.1595  0.0578
  282POPC   GL1 3808   5.693   5.891   4.468  0.0113  0.0693 -0.1127
  282POPC   GL2 3809   5.583   6.224   4.390 -0.1267 -0.0798 -0.0440
  282POPC   C1A 3810   5.741   5.803   4.977  0.0502 -0.1316 -0.3084
  282POPC   D2A 3811   5.648   5.784   5.457 -0.3113 -0.3669 -0.1682
  282POPC   C3A 3812   6.004   5.624   5.683  0.1470  0.3777  0.0842
  282POPC   C4A 3813   6.454   5.806   5.657  0.0976  0.0745  0.4612
  282POPC   C1B 3814   5.517   6.260   4.776  0.2259 -0.1779  0.3170
  282POPC   C2B 3815   5.584   6.287   5.203  0.4182  0.0087  0.1018
  282POPC   C3B 3816   5.740   6.334   5.564  0.0748  0.1173  0.2401
  282POPC   C4B 3817   5.977   6.105   5.727 -0.1377 -0.2052  0.1230
  283POPC   NC3 3818   7.593   3.768   4.682  0.1482 -0.0382 -0.2512
  283POPC   PO4 3819   7.537   3.352   4.660 -0.0708  0.0210  0.2157
  283POPC   GL1 3820   7.318   3.440   5.041 -0.0444 -0.0984 -0.2201
  283POPC   GL2 3821   7.490   3.694   5.147  0.0290  0.0170 -0.2036
  283POPC   C1A 3822   7.083   3.703   5.387 -0.0279 -0.0637  0.1474
  283POPC   D2A 3823   6.753   4.020   5.275  0.1497 -0.0253  0.1210
  283POPC   C3A 3824   6.207   3.964   5.301  0.2549 -0.1784 -0.1566
  283POPC   C4A 3825   5.853   3.927   5.198  0.0985  0.4804 -0.1161
  283POPC   C1B 3826   7.529   3.821   5.626 -0.0879 -0.1546  0.1657
  283POPC   C2B 3827   7.492   4.067   5.997  0.0055 -0.2480  0.0475
  283POPC   C3B 3828   7.114   4.206   6.209 -0.1468  0.0364  0.1110
  283POPC   C4B 3829   6.810   3.963   6.465 -0.1521 -0.0697 -0.0765
  284POPC   NC3 3830   4.379   9.028   4.940  0.2444  0.0187 -0.3381
  284POPC   PO4 3831   4.754   9.293   4.807 -0.0252  0.1636  0.0487
  284POPC   GL1 3832   4.698   9.382   5.078 -0.2464  0.1246 -0.0809
  284POPC   GL2 3833   4.545   9.464   5.384 -0.0557 -0.1723 -0.1691
  284POPC   C1A 3834   4.906   9.201   5.459 -0.0081  0.2303 -0.2842
  284POPC   D2A 3835   5.152   8.922   5.575 -0.2682  0.1408 -0.0881
  284POPC   C3A 3836   4.945   8.630   5.930 -0.1703  0.1987 -0.1848
  284POPC   C4A 3837   4.935   8.382   6.251  0.1523  0.1405  0.0419
  284POPC   C1B 3838   4.428   9.702   5.762 -0.2363  0.1482  0.0466
  284POPC   C2B 3839   4.697   9.721   6.197 -0.2236 -0.2521  0.2801
  284POPC   C3B 3840   4.602   9.858   6.556  0.0899  0.2520  0.2179
  284POPC   C4B 3841   4.761  10.231   6.796 -0.0760 -0.0835 -0.0184
  285POPC   NC3 3842   0.747   9.492   4.636 -0.0117  0.1085  0.1812
  285POPC   PO4 3843   0.792   9.104   4.834  0.4389 -0.0255  0.2445
  285POPC   GL1 3844   0.558   8.842   5.142  0.0081  0.0680  0.1077
  285POPC   GL2 3845   0.685   8.581   5.173  0.0422  0.1672  0.2262
  285POPC   C1A 3846   0.503   8.841   5.531 -0.1423 -0.1428  0.1872
  285POPC   D2A 3847   0.486   8.788   5.951 -0.0892  0.0764 -0.0306
  285POPC   C3A 3848   0.865   8.695   6.043 -0.0258  0.1854  0.1058
  285POPC   C4A 3849   1.270   8.566   6.289  0.1120  0.0327 -0.1182
  285POPC   C1B 3850   0.921   8.590   5.547 -0.1661  0.3180  0.1067
  285POPC   C2B 3851   1.007   8.238   5.820 -0.1447  0.1488 -0.0360
  285POPC   C3B 3852   0.937   7.979   6.217 -0.2459 -0.1802 -0.0827
  285POPC   C4B 3853   0.648   7.974   6.648  0.0226 -0.0629  0.0514
  286POPC   NC3 3854   8.108   2.268   4.460 -0.0647  0.0170 -0.0165
  286POPC   PO4 3855   8.138   2.075   4.804 -0.4153 -0.1379  0.2232
  286POPC   GL1 3856   7.847   1.997   5.123 -0.2080 -0.0249 -0.0236
  286POPC   GL2 3857   7.835   1.820   5.434 -0.0480  0.0262  0.1089
  286POPC   C1A 3858   7.343   2.084   5.366 -0.2105  0.3292  0.0364
  286POPC   D2A 3859   7.429   2.135   5.778 -0.3151  0.0628  0.0282
  286POPC   C3A 3860   7.507   2.551   5.873 -0.0425 -0.1276  0.0059
  286POPC   C4A 3861   7.461   3.019   6.050 -0.2443  0.1861 -0.0890
  286POPC   C1B 3862   8.012   1.594   5.897 -0.0051  0.1667 -0.0219
  286POPC   C2B 3863   8.367   1.518   6.185  0.0256  0.1371 -0.0770
  286POPC   C3B 3864   8.585   1.440   6.634 -0.1270 -0.3169  0.2967
  286POPC   C4B 3865   8.827   1.325   6.958 -0.1819 -0.0519  0.1528
  287POPC   NC3 3866   6.945   4.112   4.291  0.0210  0.1185  0.1114
  287POPC   PO4 3867   6.502   4.155   4.247  0.0629  0.1870 -0.0927
  287POPC   GL1 3868   6.221   4.546   4.419 -0.0730  0.1033  0.3778
  287POPC   GL2 3869   6.161   4.301   4.642  0.0451 -0.2419 -0.1138
  287POPC   C1A 3870   6.076   4.823   4.836 -0.0815 -0.1693 -0.0260
  287POPC   D2A 3871   6.154   5.241   4.995  0.0698  0.0381  0.1451
  287POPC   C3A 3872   5.753   5.272   5.220 -0.1752 -0.1892  0.2026
  287POPC   C4A 3873   5.601   5.226   5.624 -0.2961  0.1124  0.1093
  287POPC   C1B 3874   5.881   4.428   5.084 -0.0549  0.0007 -0.0174
  287POPC   C2B 3875   5.981   4.464   5.562 -0.1346 -0.1297  0.2131
  287POPC   C3B 3876   6.108   4.160   5.906 -0.2666 -0.2841  0.2542
  287POPC   C4B 3877   6.403   3.804   5.694  0.1571 -0.2060 -0.1540
  288POPC   NC3 3878   7.161   5.731   3.944  0.0712  0.2782  0.0224
  288POPC   PO4 3879   6.879   6.082   4.021 -0.1184 -0.1638  0.0573
  288POPC   GL1 3880   6.924   6.159   4.407 -0.2008 -0.0552 -0.1948
  288POPC   GL2 3881   6.762   6.127   4.590  0.2036  0.2608 -0.0124
  288POPC   C1A 3882   7.191   6.223   4.860 -0.2797 -0.2443 -0.0821
  288POPC   D2A 3883   7.507   6.048   5.090 -0.1546  0.2613 -0.0899
  288POPC   C3A 3884   7.579   5.858   5.491 -0.1312 -0.1144 -0.0237
  288POPC   C4A 3885   7.705   5.537   5.662  0.1562 -0.0438 -0.1574
  288POPC   C1B 3886   6.500   6.097   4.988 -0.0406  0.0273  0.0526
  288POPC   C2B 3887   6.367   6.283   5.524 -0.3534  0.0113 -0.0843
  288POPC   C3B 3888   6.444   6.426   5.905 -0.0311  0.1215  0.1952
  288POPC   C4B 3889   6.724   6.194   6.257 -0.1825 -0.3610 -0.3940
  289POPC   NC3 3890   9.762   0.984   4.700 -0.1220 -0.0876  0.2497
  289POPC   PO4 3891  10.144   0.714   4.766  0.0165 -0.1354  0.1067
  289POPC   GL1 3892  10.345   0.673   5.155 -0.1319  0.0013 -0.3981
  289POPC   GL2 3893  10.138   0.598   5.454 -0.1071 -0.2815  0.0456
  289POPC   C1A 3894  10.646   0.767   5.563 -0.5175  0.1546 -0.0678
  289POPC   D2A 3895  10.675   0.774   6.071 -0.0872 -0.0092  0.0010
  289POPC   C3A 3896  10.451   0.647   6.443  0.0460  0.2299 -0.1451
  289POPC   C4A 3897  10.201   0.484   6.767 -0.3128 -0.2604 -0.2514
  289POPC   C1B 3898  10.225   1.006   5.510 -0.2285  0.2103 -0.2044
  289POPC   C2B 3899  10.541   1.238   5.579 -0.3812  0.1328 -0.1193
  289POPC   C3B 3900  11.021   1.156   5.547  0.0455  0.1491  0.0283
  289POPC   C4B 3901  11.513   1.070   5.673 -0.3536  0.0550 -0.0067
  290POPC   NC3 3902   5.433   3.903   3.581 -0.0728  0.4024  0.0601
  290POPC   PO4 3903   5.611   4.284   3.767  0.3702 -0.1493 -0.5289
  290POPC   GL1 3904   5.686   4.148   4.190 -0.2601 -0.0174  0.2493
  290POPC   GL2 3905   6.000   3.878   4.302 -0.1011  0.1645  0.1922
  290POPC   C1A 3906   5.685   4.406   4.623  0.0843  0.0105  0.0596
  290POPC   D2A 3907   5.294   4.392   4.957  0.2828 -0.2478 -0.1621
  290POPC   C3A 3908   5.463   4.310   5.308 -0.0968 -0.1989  0.2283
  290POPC   C4A 3909   5.511   4.041   5.640 -0.0325  0.2061  0.1334
  290POPC   C1B 3910   5.950   3.819   4.641 -0.2169 -0.2030 -0.0043
  290POPC   C2B 3911   5.724   3.531   4.953 -0.1461 -0.1737  0.0013
  290POPC   C3B 3912   5.415   3.536   5.281  0.1853  0.2511  0.0717
  290POPC   C4B 3913   5.448   3.470   5.730  0.0396 -0.2895  0.4393
  291POPC   NC3 3914   0.141   8.672   4.305  0.0742 -0.1300  0.1600
  291POPC   PO4 3915  -0.050   8.479   4.657  0.0460  0.3822 -0.2643
  291POPC   GL1 3916   0.047   8.229   5.019  0.3342  0.1150 -0.0177
  291POPC   GL2 3917   0.194   8.471   5.082 -0.2257  0.0489  0.2162
  291POPC   C1A 3918   0.187   7.987   5.356 -0.2565 -0.2850  0.2188
  291POPC   D2A 3919   0.165   7.502   5.404 -0.2245  0.1773  0.1692
  291POPC   C3A 3920   0.170   7.342   5.722 -0.1187  0.0042 -0.2782
  291POPC   C4A 3921   0.292   6.849   5.901 -0.2236  0.2426 -0.1366
  291POPC   C1B 3922  -0.022   8.410   5.499  0.0738  0.0600 -0.2315
  291POPC   C2B 3923  -0.066   8.535   5.769  0.1220 -0.0745  0.1387
  291POPC   C3B 3924   0.077   8.455   6.245 -0.0038  0.0487 -0.0061
  291POPC   C4B 3925   0.007   8.251   6.577  0.3257  0.1284  0.3357
  292POPC   NC3 3926   3.310   0.979   4.677 -0.2206 -0.1739 -0.0105
  292POPC   PO4 3927   3.033   0.880   5.017  0.3451 -0.5331 -0.0611
  292POPC   GL1 3928   3.167   0.983   5.418 -0.0746  0.1406 -0.3404
  292POPC   GL2 3929   2.924   1.026   5.520 -0.1117 -0.0272 -0.0813
  292POPC   C1A 3930   3.576   1.026   5.600  0.1907  0.0948 -0.0504
  292POPC   D2A 3931   3.866   0.947   5.930  0.1567  0.0328  0.0089
  292POPC   C3A 3932   3.741   1.094   6.314 -0.2511 -0.0926 -0.0099
  292POPC   C4A 3933   3.643   1.258   6.686  0.3287  0.0365  0.1429
  292POPC   C1B 3934   2.764   1.397   5.501  0.0544  0.0890  0.1678
  292POPC   C2B 3935   2.923   1.933   5.521 -0.3129 -0.1099  0.1482
  292POPC   C3B 3936   3.246   2.240   5.809  0.0407  0.2178  0.1310
  292POPC   C4B 3937   3.591   2.609   5.641  0.2251  0.2238 -0.2554
  293POPC   NC3 3938   6.303   8.364   4.735  0.0649 -0.1707  0.1236
  293POPC   PO4 3939   6.721   8.243   4.832  0.3599 -0.1542 -0.0945
  293POPC   GL1 3940   6.952   8.270   5.270 -0.0988  0.1685 -0.1336
  293POPC   GL2 3941   6.790   8.489   5.555  0.0448 -0.1059  0.0168
  293POPC   C1A 3942   7.161   8.187   5.739  0.3722  0.2508  0.2645
  293POPC   D2A 3943   7.140   8.138   6.162 -0.0120  0.1439 -0.1559
  293POPC   C3A 3944   6.740   8.372   6.415 -0.0802 -0.3254  0.3310
  293POPC   C4A 3945   6.565   8.713   6.750  0.0767 -0.0955 -0.1851
  293POPC   C1B 3946   6.586   8.569   5.959 -0.0430 -0.2477  0.1977
  293POPC   C2B 3947   6.326   8.900   6.348 -0.2658  0.0035 -0.0608
  293POPC   C3B 3948   5.807   8.888   6.430 -0.3952 -0.0003  0.2015
  293POPC   C4B 3949   5.495   9.196   6.537 -0.0093  0.0691 -0.3381
  294POPC   NC3 3950   7.127   9.638   4.912 -0.0321  0.3345  0.3208
  294POPC   PO4 3951   7.541   9.567   4.955  0.0121  0.0840 -0.2032
  294POPC   GL1 3952   7.528   9.310   5.359 -0.2028  0.1765  0.1379
  294POPC   GL2 3953   7.624   9.024   5.319  0.4589 -0.2976 -0.2216
  294POPC   C1A 3954   7.499   9.146   5.869 -0.0056 -0.2570 -0.2004
  294POPC   D2A 3955   7.374   9.007   6.281 -0.2480 -0.0706 -0.0993
  294POPC   C3A 3956   7.513   8.623   6.602 -0.0507 -0.0133  0.2049
  294POPC   C4A 3957   7.470   8.268   6.851 -0.1938 -0.0589 -0.1948
  294POPC   C1B 3958   7.546   8.657   5.678  0.0088  0.0920 -0.2091
  294POPC   C2B 3959   7.509   8.537   6.116  0.2534  0.3198  0.3116
  294POPC   C3B 3960   7.639   8.207   6.207 -0.0135  0.3548  0.0742
  294POPC   C4B 3961   7.480   7.883   6.350  0.0078  0.4835 -0.2959
  295POPC   NC3 3962   9.341   5.169   4.827 -0.1344 -0.1211 -0.0521
  295POPC   PO4 3963   9.430   5.657   4.688 -0.2325 -0.0901  0.3173
  295POPC   GL1 3964   9.523   5.683   5.086 -0.1069 -0.0123 -0.2349
  295POPC   GL2 3965   9.854   5.684   5.137 -0.0698 -0.0877  0.2824
  295POPC   C1A 3966   9.644   5.311   5.512 -0.3243 -0.0460 -0.0832
  295POPC   D2A 3967   9.388   5.265   5.821  0.0672  0.0122 -0.1804
  295POPC   C3A 3968   8.980   5.014   5.897 -0.1515 -0.1566 -0.0635
  295POPC   C4A 3969   8.555   4.924   5.819  0.1045 -0.0487  0.1966
  295POPC   C1B 3970  10.033   5.245   5.174 -0.0748  0.0905 -0.2166
  295POPC   C2B 3971  10.349   4.925   5.240 -0.0014  0.0834 -0.1843
  295POPC   C3B 3972  10.779   4.946   5.456  0.1954 -0.0611  0.1600
  295POPC   C4B 3973  11.260   5.053   5.587  0.1482  0.3186 -0.1585
  296POPC   NC3 3974   1.308   1.157   4.286  0.0835 -0.0261  0.0022
  296POPC   PO4 3975   1.326   1.416   4.700 -0.1472  0.3286 -0.1361
  296POPC   GL1 3976   1.410   1.605   5.126 -0.0367 -0.0228  0.1513
  296POPC   GL2 3977   1.674   1.437   5.380 -0.1064 -0.1061 -0.0368
  296POPC   C1A 3978   1.262   1.671   5.536  0.1099 -0.0131  0.0347
  296POPC   D2A 3979   1.358   1.397   5.960  0.2076 -0.0082  0.2430
  296POPC   C3A 3980   1.160   0.961   6.033 -0.0853 -0.0672 -0.1730
  296POPC   C4A 3981   1.191   0.631   5.739  0.2445  0.0555 -0.1168
  296POPC   C1B 3982   1.946   1.367   5.752 -0.0963  0.2081  0.2389
  296POPC   C2B 3983   1.770   1.158   6.182 -0.1348  0.2841  0.0112
  296POPC   C3B 3984   1.511   1.192   6.506 -0.0729  0.0223  0.1700
  296POPC   C4B 3985   1.236   1.086   6.842 -0.0507 -0.0490  0.3116
  297POPC   NC3 3986   1.345   6.649   4.548 -0.1328 -0.0122 -0.3005
  297POPC   PO4 3987   0.890   6.552   4.650 -0.2517  0.0974  0.0016
  297POPC   GL1 3988   0.821   6.723   5.088 -0.2144 -0.1982 -0.0150
  297POPC   GL2 3989   1.149   6.823   5.019 -0.1605 -0.3733  0.1727
  297POPC   C1A 3990   0.905   6.658   5.514 -0.0908 -0.2097 -0.0065
  297POPC   D2A 3991   0.892   6.347   5.830 -0.0493  0.0743  0.0160
  297POPC   C3A 3992   1.153   6.306   6.114 -0.1476 -0.2403  0.1463
  297POPC   C4A 3993   1.508   6.213   6.272 -0.1630  0.1097  0.2361
  297POPC   C1B 3994   1.159   7.082   5.398  0.0179 -0.2902 -0.1397
  297POPC   C2B 3995   1.351   7.211   5.756  0.2180 -0.1092  0.1221
  297POPC   C3B 3996   1.459   7.072   6.232 -0.2985  0.0778  0.0669
  297POPC   C4B 3997   1.035   7.057   6.480 -0.1263 -0.1713  0.1862
  298POPC   NC3 3998   0.874   5.468   4.482  0.0390  0.1173  0.2345
  298POPC   PO4 3999   0.776   5.046   4.422 -0.2193  0.2267  0.3027
  298POPC   GL1 4000   0.726   4.980   4.795  0.2218  0.4908 -0.2906
  298POPC   GL2 4001   0.747   5.230   4.934  0.1666 -0.1819 -0.1192
  298POPC   C1A 4002   0.789   4.605   5.064  0.1007 -0.0418  0.1161
  298POPC   D2A 4003   0.957   4.491   5.515 -0.0169  0.0148 -0.3244
  298POPC   C3A 4004   0.962   4.806   5.905  0.1321 -0.0392  0.0602
  298POPC   C4A 4005   1.274   4.844   6.052 -0.3556  0.1567  0.3410
  298POPC   C1B 4006   0.652   5.373   5.299 -0.0141  0.0911  0.2035
  298POPC   C2B 4007   0.851   5.367   5.669  0.0707 -0.1710  0.4016
  298POPC   C3B 4008   1.191   5.372   5.993 -0.1668 -0.1990  0.4773
  298POPC   C4B 4009   1.593   5.218   6.207 -0.0062  0.0304 -0.1145
  299POPC   NC3 4010   1.436   3.087   4.372  0.0237  0.2102 -0.0398
  299POPC   PO4 4011   1.203   2.801   4.703 -0.0323  0.3631  0.2942
  299POPC   GL1 4012   1.251   2.911   5.103  0.1671  0.3338 -0.3933
  299POPC   GL2 4013   1.271   3.236   5.154  0.4814 -0.0774  0.0546
  299POPC   C1A 4014   1.549   2.828   5.452 -0.0371 -0.0149 -0.0628
  299POPC   D2A 4015   1.874   2.985   5.711  0.1495 -0.3959  0.2005
  299POPC   C3A 4016   1.867   3.085   6.195  0.0107 -0.0784 -0.2369
  299POPC   C4A 4017   2.279   3.081   6.373 -0.0768  0.2094 -0.0456
  299POPC   C1B 4018   1.530   3.333   5.493  0.3428  0.2223 -0.5205
  299POPC   C2B 4019   1.763   3.498   5.831 -0.0231  0.3507 -0.0915
  299POPC   C3B 4020   1.513   3.417   6.228  0.0786  0.1337  0.1206
  299POPC   C4B 4021   1.563   3.332   6.653 -0.2684 -0.0180 -0.0438
  300POPC   NC3 4022   8.167   7.475   4.317  0.0927 -0.4190 -0.1267
  300POPC   PO4 4023   8.390   7.274   4.716 -0.1648 -0.1128 -0.1259
  300POPC   GL1 4024   8.152   7.164   5.053  0.4095  0.0002  0.1828
  300POPC   GL2 4025   8.056   6.926   4.858  0.1614 -0.0084 -0.2680
  300POPC   C1A 4026   8.134   7.284   5.405  0.0139 -0.1315 -0.0469
  300POPC   D2A 4027   7.879   7.655   5.539 -0.1191 -0.0216 -0.1286
  300POPC   C3A 4028   7.915   7.854   6.031  0.1628  0.2166  0.2549
  300POPC   C4A 4029   8.042   7.946   6.375 -0.1849 -0.0155 -0.2510
  300POPC   C1B 4030   8.033   6.815   5.292 -0.0619  0.1626  0.2269
  300POPC   C2B 4031   8.046   6.799   5.714 -0.0667 -0.1878 -0.2541
  300POPC   C3B 4032   8.511   6.668   5.946 -0.2468  0.2305  0.1063
  300POPC   C4B 4033   8.879   6.935   5.900  0.1267 -0.0504 -0.4320
  301POPC   NC3 4034   2.087   6.881   4.048  0.2405 -0.3638  0.1630
  301POPC   PO4 4035   1.979   7.051   4.419  0.3949  0.0210  0.0994
  301POPC   GL1 4036   1.844   6.905   4.856  0.0752  0.0298 -0.0739
  301POPC   GL2 4037   1.635   6.648   4.947 -0.1336 -0.0352  0.2975
  301POPC   C1A 4038   2.123   6.876   5.209 -0.0090 -0.1446 -0.1156
  301POPC   D2A 4039   2.323   7.049   5.599  0.2541 -0.2594 -0.2913
  301POPC   C3A 4040   2.724   7.022   5.751  0.0658 -0.1442  0.1648
  301POPC   C4A 4041   2.936   6.968   6.092  0.1769 -0.2807  0.0173
  301POPC   C1B 4042   1.613   6.525   5.331  0.0407  0.1338 -0.0444
  301POPC   C2B 4043   1.358   6.687   5.685  0.5514  0.2020  0.0082
  301POPC   C3B 4044   1.081   6.828   6.014 -0.1715 -0.2390 -0.0263
  301POPC   C4B 4045   0.861   6.621   6.329  0.0895 -0.1083  0.2515
  302W        W 4046   5.642   6.605  10.884  0.0328  0.0801  0.3629
  303W        W 4047   7.490   6.573   1.916  0.1668 -0.0202 -0.1729
  304W        W 4048   1.368   9.431   4.372 -0.1195  0.2084 -0.0906
  305W        W 4049   8.730   7.496   1.572  0.0955  0.0547  0.0619
  306W        W 4050   3.786   3.846  12.299 -0.2249  0.1602 -0.3056
  307W        W 4051   2.753   5.779   4.416 -0.0992  0.1955 -0.1452
  308W        W 4052   5.938   4.690   1.680 -0.0555  0.0112 -0.0200
  309W        W 4053   7.362   8.616   1.175 -0.2755  0.0504 -0.3201
  310W        W 4054   1.752   3.635   3.346 -0.0728 -0.0675 -0.0443
  311W        W 4055   4.037   9.601   0.598 -0.0908 -0.0947 -0.0575
  312W        W 4056   5.371   4.300  11.289  0.1651  0.0190 -0.3794
  313W        W 4057   6.390   0.529   4.807  0.2031  0.1181  0.0071
  314W        W 4058   4.937   2.726   1.473 -0.1914 -0.1136 -0.0742
  315W        W 4059   4.586   0.674   3.361 -0.1078  0.1431  0.1579
  316W        W 4060   5.276   1.587   3.639  0.1353 -0.1430  0.0008
  317W        W 4061   5.862   8.413   2.222  0.0027 -0.2313  0.0555
  318W        W 4062   4.270   2.688  10.875  0.0555 -0.3416  0.3076
  319W        W 4063   8.776   3.065   9.968  0.3229 -0.0013 -0.1676
  320W        W 4064   2.879   9.560   0.055 -0.1080  0.0129 -0.1518
  321W        W 4065   9.558   0.985   2.014  0.0744  0.0815  0.0165
  322W        W 4066   3.109   6.285   3.224  0.1029  0.2520 -0.3360
  323W        W 4067   5.236   1.555   1.622 -0.0554  0.1073 -0.1345
  324W        W 4068   0.346   8.968   2.940  0.0500  0.0244  0.3389
  325W        W 4069   7.260   4.205   2.669  0.0097 -0.1918 -0.1101
  326W        W 4070   0.867   2.790  10.811 -0.0902 -0.2397 -0.2166
  327W        W 4071   3.848   2.875   3.335 -0.0312 -0.3067  0.1412
  328W        W 4072   6.106   3.154   0.048 -0.0246 -0.1237 -0.2753
  329W        W 4073   1.897   1.617   1.752  0.1817 -0.2982 -0.2926
  330W        W 4074   5.619   8.975   2.145  0.2608 -0.0939  0.2288
  331W        W 4075   1.829   0.027  10.449 -0.1451 -0.1935  0.1783
  332W        W 4076   5.936   4.513   3.065 -0.0467 -0.1344 -0.0743
  333W        W 4077   4.054   5.614   2.291  0.0690 -0.1236 -0.0702
  334W        W 4078   7.014   2.266   9.732 -0.1013 -0.2749  0.0138
  335W        W 4079   9.555   9.568   1.550  0.0079 -0.0112 -0.0092
  336W        W 4080   7.180   5.052   8.781 -0.1566 -0.2921  0.4147
  337W        W 4081   0.935   1.212   2.789  0.1301  0.0785  0.0896
  338W        W 4082   4.953   1.138  11.812  0.2280 -0.2521 -0.3879
  339W        W 4083   5.598   0.324   2.995 -0.2534  0.0585 -0.0130
  340W        W 4084   9.829   3.631   2.246  0.0093 -0.0211 -0.0174
  341W        W 4085   5.106   8.720   0.113  0.1576  0.1972 -0.0696
  342W        W 4086   3.578   9.803  12.206 -0.1621  0.0800 -0.0013
  343W        W 4087   1.267   4.381  12.168  0.0335 -0.1050  0.0225
  344W        W 4088   9.181   0.778  12.587 -0.3229  0.0852  0.2441
  345W        W 4089   8.545   5.291  11.326 -0.1888  0.1117  0.3786
  346W        W 4090   0.711   3.440  10.115  0.0895  0.0279 -0.4169
  347W        W 4091   8.353   7.064   2.059  0.0460  0.1164  0.0402
  348W        W 4092   5.689   5.387  12.080  0.2061  0.1220  0.0709
  349W        W 4093   3.456   1.046   9.559 -0.1014  0.0332  0.3020
  350W        W 4094   4.083   2.715  12.789 -0.1163  0.0562 -0.1727
  351W        W 4095   9.375   0.515  11.707 -0.4943  0.0735  0.1656
  352W        W 4096   1.898   9.637   2.354  0.1692  0.0544 -0.1202
  353W        W 4097   3.819   7.490   1.685  0.2390  0.1797 -0.0197
  354W        W 4098   7.513   9.796   9.570  0.3056  0.0169  0.0118
  355W        W 4099   4.770   1.706   2.408 -0.1140  0.0289  0.0462
  356W        W 4100   2.443   9.759  12.253 -0.0815  0.0818 -0.1150
  357W        W 4101   0.423   9.945   3.362  0.4890  0.1602 -0.1911
  358W        W 4102   4.950   8.490  12.424  0.2110 -0.1582 -0.2808
  359W        W 4103   7.339   4.614   1.084 -0.0097 -0.0525  0.0225
  360W        W 4104   1.483   0.614   9.824 -0.2791 -0.1848  0.0996
  361W        W 4105   3.930   8.730  12.408 -0.1567 -0.0884 -0.0802
  362W        W 4106   5.979   8.976   9.071 -0.3758  0.1531  0.2240
  363W        W 4107   4.718   9.015   9.252 -0.2550 -0.2165  0.3348
  364W        W 4108   1.696   3.641  10.353 -0.0908  0.1750  0.2636
  365W        W 4109   0.605   3.938  11.188 -0.0787 -0.1255 -0.0060
  366W        W 4110   6.559   1.483  11.952  0.0988  0.3534  0.0868
  367W        W 4111   2.683   7.128   9.584  0.0410 -0.0062  0.0259
  368W        W 4112   0.285   8.156   3.489  0.0812 -0.1066 -0.1557
  369W        W 4113   5.089   8.321   8.983  0.0918 -0.3104 -0.0915
  370W        W 4114   8.968   7.571   0.128 -0.0188 -0.0364 -0.0098
  371W        W 4115   5.398   5.400   0.139 -0.0891 -0.0881  0.3059
  372W        W 4116   3.727   1.623   4.325  0.0594 -0.1332  0.1636
  373W        W 4117   5.391   5.386   1.045  0.0653 -0.0755  0.0249
  374W        W 4118   2.127   0.769   0.383 -0.3551 -0.0903 -0.1402
  375W        W 4119   4.448   8.728   1.827  0.0706 -0.6007  0.0031
  376W        W 4120   7.364   1.642   4.427 -0.1835 -0.1886 -0.1897
  377W        W 4121   9.094   0.832   9.801 -0.0058  0.2727 -0.0667
  378W        W 4122   9.701   5.503  10.127  0.1841 -0.2597  0.3058
  379W        W 4123   5.038   8.434   2.526 -0.0320 -0.1396 -0.3971
  380W        W 4124   2.808   2.968   3.065 -0.0656 -0.3718 -0.0854
  381W        W 4125   6.185   2.227   8.982 -0.0423  0.0562  0.3318
  382W        W 4126   8.123   5.313   4.155  0.0783  0.2049 -0.4105
  383W        W 4127   2.376   6.361  12.409  0.2176  0.1325  0.1610
  384W        W 4128   3.964   6.739  11.296  0.0145 -0.1514 -0.0798
  385W        W 4129   6.318   7.809  11.890  0.1209 -0.2607  0.3061
  386W        W 4130   5.542   1.741   9.849  0.1623 -0.0249  0.0759
  387W        W 4131   4.261   0.194  12.551 -0.1164 -0.2812 -0.1096
  388W        W 4132   6.992   9.607   5.375 -0.1494  0.2722 -0.0993
  389W        W 4133   8.143   3.377  11.368  0.0271  0.0723  0.0222
  390W        W 4134   6.212   8.597   3.586  0.1311 -0.1636  0.3037
  391W        W 4135   6.530   1.736   0.326 -0.0568 -0.0771  0.1214
  392W        W 4136   8.012   1.255   3.600 -0.1563  0.0603 -0.0190
  393W        W 4137   2.756   4.032  10.471  0.2216 -0.0394 -0.1669
  394W        W 4138   7.794   9.353   9.893 -0.0241  0.2029  0.0083
  395W        W 4139   7.467   1.634   2.706 -0.2090  0.0767 -0.0224
  396W        W 4140   9.470   9.355   4.034  0.3620 -0.0260  0.1508
  397W        W 4141   1.069   8.866   3.418 -0.0354 -0.2688  0.2374
  398W        W 4142   4.576   1.193   0.766 -0.0471  0.2383  0.0488
  399W        W 4143   3.897   8.319  11.097 -0.2273 -0.0730  0.1893
  400W        W 4144   2.223   2.795   2.043  0.0064  0.0398 -0.2877
  401W        W 4145   2.004   0.244  11.254 -0.0043  0.0125  0.0203
  402W        W 4146   8.401   6.765   8.969  0.1685 -0.1889  0.3162
  403W        W 4147   5.435   9.067  12.780 -0.1045  0.0960 -0.2651
  404W        W 4148   3.513   7.783  11.550  0.1274  0.2175  0.1152
  405W        W 4149   4.854   1.719   3.376 -0.0071 -0.1340 -0.2404
  406W        W 4150   6.264   1.000   4.793 -0.1849  0.0090  0.1249
  407W        W 4151   2.837   3.934  10.969  0.0662 -0.3148 -0.2218
  408W        W 4152   1.018   2.587   9.708 -0.3617 -0.0645  0.0312
  409W        W 4153   1.169   5.935   1.692  0.0280 -0.0711  0.1883
  410W        W 4154   9.260   2.841   9.911  0.1718 -0.3162 -0.0957
  411W        W 4155   5.080   0.658   0.120 -0.3025  0.0157  0.1512
  412W        W 4156   0.894   4.032  12.232  0.3296 -0.1481 -0.1154
  413W        W 4157   0.224   9.916   0.466 -0.0679  0.0324  0.0877
  414W        W 4158   5.525   6.167   3.780 -0.0429 -0.1684 -0.1866
  415W        W 4159   4.513   3.049   2.170 -0.0347 -0.2295  0.2302
  416W        W 4160   0.281   5.164   4.694 -0.0909  0.0427  0.2292
  417W        W 4161   0.308   6.011   4.332  0.0908  0.1948  0.0457
  418W        W 4162   3.784   6.909  10.907 -0.0468 -0.2071 -0.1516
  419W        W 4163   1.372   2.155  11.579  0.2014  0.0858  0.0447
  420W        W 4164   3.358   0.702   8.689 -0.1183  0.3284  0.1255
  421W        W 4165   5.714   3.434  11.915 -0.1293 -0.1577  0.5018
  422W        W 4166   7.088   0.201   9.741  0.0191  0.1224  0.0651
  423W        W 4167   6.751   4.892  11.477  0.0979  0.1052 -0.0415
  424W        W 4168   8.672   8.379   5.162 -0.2240 -0.5886  0.1607
  425W        W 4169   3.537   4.130  10.200  0.0111  0.0848 -0.1310
  426W        W 4170   2.959   3.110  12.223 -0.2303  0.0796  0.0664
  427W        W 4171   2.086   5.667  11.390  0.0210  0.1315  0.1940
  428W        W 4172   8.959   1.385  10.421  0.1904  0.0670  0.0230
  429W        W 4173   8.440   3.066  12.553  0.2543  0.3784 -0.1187
  430W        W 4174   0.602   8.913   8.982 -0.0234 -0.1122  0.1182
  431W        W 4175   4.201   5.388   1.169  0.1355  0.2701  0.0527
  432W        W 4176   4.740   9.170   0.117 -0.3350  0.0206 -0.0049
  433W        W 4177   5.349   2.351   0.231  0.3129 -0.0678  0.1152
  434W        W 4178   8.814   1.257  11.708  0.0516 -0.3158  0.0071
  435W        W 4179   7.599   2.895   0.824 -0.0402  0.2440 -0.0820
  436W        W 4180   7.751   7.825  11.756  0.0209 -0.1757  0.1702
  437W        W 4181   3.372   3.925  12.079  0.1995 -0.1640 -0.1997
  438W        W 4182   0.473   5.268   3.852  0.0452 -0.3200 -0.0541
  439W        W 4183   3.734   0.350  10.647 -0.0277  0.0226 -0.0432
  440W        W 4184   5.854   3.702   3.151  0.3834  0.2606 -0.0012
  441W        W 4185   5.759   3.495  12.795 -0.0984  0.2865  0.3115
  442W        W 4186   5.400   2.397  12.041  0.0982  0.6067 -0.1650
  443W        W 4187   4.752   1.427   9.669 -0.3138  0.0133 -0.0760
  444W        W 4188   6.990   4.983   1.591 -0.2501 -0.1609 -0.2687
  445W        W 4189   8.155   2.023   4.023  0.2998 -0.1376 -0.0813
  446W        W 4190   1.292   8.382   2.518 -0.2060 -0.1204  0.1648
  447W        W 4191   0.882   3.325   3.636  0.1524  0.0753 -0.1280
  448W        W 4192   1.744   6.567   1.708  0.1808  0.2150  0.0906
  449W        W 4193   3.569   5.991   9.467  0.0307 -0.0936 -0.2285
  450W        W 4194   7.767   5.237  12.402  0.1930  0.0407  0.1120
  451W        W 4195   9.114   2.349   4.745 -0.0380 -0.3364 -0.0056
  452W        W 4196   9.413   3.815   9.981  0.4072  0.0084  0.1807
  453W        W 4197   5.777   1.743   4.336 -0.1294  0.0704 -0.3856
  454W        W 4198   1.518   2.958  12.224 -0.1490 -0.1196 -0.0522
  455W        W 4199   3.045   5.999  10.067 -0.2866  0.1235 -0.0235
  456W        W 4200   8.708   6.709   2.101 -0.2747  0.0148 -0.0838
  457W        W 4201   8.348   7.057   4.109  0.1360 -0.2290  0.0100
  458W        W 4202   4.665   6.493   1.586 -0.4419 -0.1575 -0.2134
  459W        W 4203   9.797   4.185  12.204  0.3560  0.1602 -0.1929
  460W        W 4204   5.924   2.850  11.035 -0.2654  0.0914  0.0078
  461W        W 4205   6.460   3.702   0.603  0.2317  0.0062  0.1950
  462W        W 4206   2.978   9.660   8.150 -0.1438 -0.0077 -0.1175
  463W        W 4207   4.506   3.400  10.782 -0.1174 -0.0444 -0.1332
  464W        W 4208   9.208   1.774   2.400 -0.0532  0.1739 -0.0988
  465W        W 4209   3.973   3.945  11.399  0.1231 -0.0858  0.1170
  466W        W 4210   5.149   0.460   0.810  0.6072  0.3549  0.0387
  467W        W 4211   6.364   6.500  12.772 -0.2023 -0.0429 -0.0022
  468W        W 4212   7.218   4.521  12.817  0.4796  0.0009 -0.2197
  469W        W 4213   8.951   5.732   0.254  0.1378 -0.0250 -0.1469
  470W        W 4214   0.593   2.902   3.722 -0.3036  0.3450 -0.0719
  471W        W 4215   3.198   9.764   2.700 -0.2764 -0.2114 -0.1880
  472W        W 4216   3.953   1.296  10.769 -0.2943 -0.1044 -0.0856
  473W        W 4217   8.964   2.480  12.161 -0.2890  0.1288  0.4617
  474W        W 4218   6.333   2.506   3.964  0.0334 -0.0792 -0.0041
  475W        W 4219   6.767   1.833   9.888  0.2588  0.2078 -0.2086
  476W        W 4220   4.089   9.702   0.036 -0.0191 -0.0701  0.1218
  477W        W 4221   3.384   0.416   3.905 -0.3979 -0.0157 -0.1430
  478W        W 4222   3.457   0.336   1.173  0.3329 -0.1368  0.2290
  479W        W 4223   8.976   2.225   9.864 -0.1386 -0.0901  0.1813
  480W        W 4224   0.310   8.287  12.672  0.1496  0.0470 -0.3591
  481W        W 4225   0.094   6.155   9.446 -0.0771  0.1828 -0.1282
  482W        W 4226   8.640   2.966  12.060 -0.2591  0.0434  0.1852
  483W        W 4227   5.930   1.083   3.881 -0.1333  0.0444  0.2311
  484W        W 4228   0.769   6.862  11.997  0.0144  0.0480  0.3855
  485W        W 4229   8.948   1.457   2.691 -0.0765  0.3493 -0.1614
  486W        W 4230   8.170   5.811   3.442  0.2540 -0.1143 -0.1146
  487W        W 4231   7.389   5.222   0.314 -0.1911  0.6020 -0.0168
  488W        W 4232   7.203   1.133   5.059  0.1078 -0.0698  0.0678
  489W        W 4233   8.578   9.362  11.786 -0.3039 -0.0697 -0.0541
  490W        W 4234   6.130   9.467  10.741 -0.0244 -0.0001 -0.1609
  491W        W 4235   8.006   5.510  10.060  0.0359 -0.1831  0.2984
  492W        W 4236   2.733   9.832   1.745 -0.0533 -0.1520  0.0843
  493W        W 4237   9.476   9.507  10.802 -0.2321 -0.0490 -0.4236
  494W        W 4238   2.435   8.341   1.320 -0.1526  0.1533 -0.3920
  495W        W 4239   9.671   6.223  11.462 -0.1954 -0.1244  0.1531
  496W        W 4240   8.689   6.477  12.137  0.2512 -0.0966 -0.3519
  497W        W 4241   0.371   1.136  10.261  0.1402  0.0747  0.2918
  498W        W 4242   0.998   9.605   9.533  0.0188 -0.2885 -0.0999
  499W        W 4243   3.740   9.483  11.795 -0.1993  0.0196  0.0193
  500W        W 4244   3.186   2.943   0.267 -0.0874  0.1214 -0.0108
  501W        W 4245   0.283   6.990  11.880 -0.2287  0.0283  0.0958
  502W        W 4246   9.318   5.814   9.091 -0.3144 -0.3844 -0.1012
  503W        W 4247   4.496   0.713  11.728 -0.1781 -0.0147  0.1174
  504W        W 4248   9.052   9.878   3.795  0.0330 -0.1965 -0.2584
  505W        W 4249   1.015   9.617   1.724 -0.2485  0.0723 -0.2980
  506W        W 4250   9.320   2.268  12.774 -0.2354  0.1286  0.1825
  507W        W 4251   8.811   5.652   1.396 -0.0630  0.0792  0.1086
  508W        W 4252   1.477   0.691   4.025 -0.1374 -0.3109  0.0338
  509W        W 4253   2.635   6.692   1.201  0.0654  0.0040 -0.0488
  510W        W 4254   8.250   4.407   2.991  0.0355  0.1165  0.2080
  511W        W 4255   7.342   2.724  10.273  0.1367  0.1187 -0.2548
  512W        W 4256   1.596   2.375  12.050 -0.0781 -0.5653 -0.0760
  513W        W 4257   0.665   7.612  10.864 -0.3105 -0.0859  0.3280
  514W        W 4258   7.504   5.559  11.502 -0.0076  0.3141  0.0148
  515W        W 4259   6.623   5.415   3.267 -0.1905  0.1671 -0.1506
  516W        W 4260   2.669   7.510   2.317 -0.4221 -0.0574 -0.3872
  517W        W 4261   9.144   9.361   1.319 -0.0614  0.1721  0.4385
  518W        W 4262   5.199   2.681   1.921 -0.0030  0.0629 -0.1206
  519W        W 4263   1.433   7.530  12.131  0.0199 -0.1675  0.0245
  520W        W 4264   9.716   5.184   3.215  0.3164 -0.0161 -0.0487
  521W        W 4265   3.395   5.598  10.847 -0.1804  0.2767  0.1247
  522W        W 4266   3.443   9.151   8.905  0.2113  0.0834  0.0094
  523W        W 4267   6.268   3.776   3.485 -0.0550 -0.0955  0.1707
  524W        W 4268   7.672   6.623   9.558 -0.3622  0.2250  0.3319
  525W        W 4269   2.254   4.481   1.145  0.3541 -0.0219  0.0124
  526W        W 4270   9.406   0.542   8.340 -0.1767 -0.1799 -0.0317
  527W        W 4271   9.217   7.470   9.999 -0.3028 -0.0304  0.1753
  528W        W 4272   8.629   7.088   0.148  0.0839 -0.1198 -0.1773
  529W        W 4273   6.118   2.626   0.219  0.1288 -0.2643  0.2084
  530W        W 4274   9.901   1.062   2.388  0.1528  0.1526 -0.0549
  531W        W 4275   2.763   0.376   3.178 -0.0078  0.1858  0.0262
  532W        W 4276   5.785   1.750  11.430 -0.1654  0.1167  0.1883
  533W        W 4277   7.707   7.524  10.613  0.2278  0.0311 -0.0850
  534W        W 4278   5.588   8.378   0.041 -0.1428 -0.1721  0.0050
  535W        W 4279   6.050   2.405   9.694  0.0244 -0.1011 -0.2201
  536W        W 4280   5.924   2.295  10.302 -0.0884  0.0515  0.0660
  537W        W 4281   6.052   0.614  11.888 -0.0321 -0.0447 -0.0654
  538W        W 4282   8.447   3.088   9.638 -0.1618  0.0220  0.2635
  539W        W 4283   2.691   9.363  12.452  0.1501  0.0391 -0.1148
  540W        W 4284   9.665   1.408   0.153  0.3206 -0.1274 -0.1220
  541W        W 4285   3.236   0.572   9.756  0.2618  0.0181 -0.1250
  542W        W 4286   7.338   3.323   8.631  0.0870 -0.1984 -0.0553
  543W        W 4287   9.120   9.584   4.402 -0.3542  0.2105  0.0521
  544W        W 4288   8.430   1.671   8.531  0.3663 -0.0502 -0.0191
  545W        W 4289   6.910   8.609  12.645 -0.2422 -0.0414 -0.0307
  546W        W 4290   2.875   6.703   9.874  0.0193 -0.2362 -0.0016
  547W        W 4291   2.572   9.131   3.868  0.1888  0.0315  0.1138
  548W        W 4292   7.435   3.777   1.701 -0.2183  0.2558 -0.2404
  549W        W 4293   6.145   2.161   0.424  0.0861 -0.1218  0.0780
  550W        W 4294   3.675   0.855   2.098 -0.1354  0.0210  0.0844
  551W        W 4295   8.550   2.359   4.169  0.1767  0.0679 -0.1785
  552W        W 4296   7.127   7.513   2.588 -0.3533 -0.0186  0.1256
  553W        W 4297   8.772   8.797   1.177 -0.0619  0.0741 -0.1838
  554W        W 4298   7.904   0.657  10.512  0.0107  0.3373  0.0661
  555W        W 4299   0.419   6.515  11.870 -0.0304 -0.0813 -0.0739
  556W        W 4300   4.501   1.826   1.490 -0.2874  0.2775 -0.0334
  557W        W 4301   5.502   9.574   4.292 -0.2251 -0.0360 -0.2462
  558W        W 4302   3.509   1.164  11.340  0.0708  0.0983 -0.0223
  559W        W 4303   0.580   4.691   9.411  0.1358  0.1925  0.0283
  560W        W 4304   6.179   5.814  10.503  0.2693  0.2711  0.1398
  561W        W 4305   7.318   1.846  10.584 -0.3437 -0.0036  0.2126
  562W        W 4306   1.192   6.960   0.056 -0.0044 -0.4615  0.0332
  563W        W 4307   7.366   8.120   4.283  0.1049  0.1045  0.2843
  564W        W 4308   3.691   8.386   9.259  0.1102  0.1452  0.0352
  565W        W 4309   5.814   6.481  11.398 -0.0709  0.1162 -0.4080
  566W        W 4310   0.322   4.292   1.691 -0.0936  0.3569  0.1572
  567W        W 4311   8.787   9.499  10.260  0.0307 -0.3327 -0.1928
  568W        W 4312   3.803   9.245   0.269  0.3599 -0.0896  0.4551
  569W        W 4313   4.171   7.567   8.869 -0.2176  0.1673 -0.0489
  570W        W 4314   3.205   1.242  10.449  0.1130  0.0977 -0.1964
  571W        W 4315   6.620   9.340  11.536 -0.3225  0.0841 -0.1400
  572W        W 4316   5.248   2.427   8.893 -0.1662 -0.2293  0.1518
  573W        W 4317   7.945   8.967  11.696  0.0434 -0.0557 -0.1187
  574W        W 4318   1.806   8.333  11.805  0.1074 -0.1467  0.1031
  575W        W 4319   9.015   8.548   9.714 -0.2179 -0.2693  0.2512
  576W        W 4320   2.545   7.181   1.293  0.0671  0.0144  0.0195
  577W        W 4321   5.789   4.012   0.069  0.0208 -0.1807 -0.1129
  578W        W 4322   9.732   3.446   1.097  0.0572  0.1803  0.2705
  579W        W 4323   7.558   7.117  10.348 -0.0856 -0.0080 -0.4686
  580W        W 4324   5.373   5.766   3.087  0.3686 -0.2870 -0.1927
  581W        W 4325   7.011   6.560   2.517  0.1914  0.1534  0.3345
  582W        W 4326   2.910   9.010   0.134 -0.2638 -0.0241 -0.0392
  583W        W 4327   0.456   3.700   0.723 -0.0563 -0.1076 -0.1291
  584W        W 4328   0.241   3.628   0.266 -0.1620 -0.2237  0.3758
  585W        W 4329   3.075   5.279   0.169 -0.1613 -0.1639 -0.0530
  586W        W 4330   6.461   1.797   2.244  0.0204 -0.0233  0.1453
  587W        W 4331   8.460   8.081  10.378 -0.1919  0.0455 -0.2319
  588W        W 4332   3.794   4.947   0.718  0.1326  0.1845  0.1049
  589W        W 4333   5.701   7.410   1.148  0.0910 -0.0926 -0.0514
  590W        W 4334   7.962   8.449   8.462  0.0951 -0.1601 -0.0272
  591W        W 4335   3.159   6.706  11.836 -0.0642 -0.1117 -0.1282
  592W        W 4336   2.500   8.133   4.132  0.0633 -0.1035 -0.3466
  593W        W 4337   6.951   2.699   8.286  0.1435  0.0194  0.2253
  594W        W 4338   9.836   6.962   1.758  0.0972  0.1124  0.1097
  595W        W 4339   9.730   0.887  11.581 -0.2204  0.0890  0.2134
  596W        W 4340   2.695   9.425   3.327 -0.1631 -0.1707  0.1883
  597W        W 4341   0.281   1.739   9.994 -0.2861  0.2428  0.0748
  598W        W 4342   4.940   9.250   1.617  0.0516 -0.0028  0.1621
  599W        W 4343   4.854   8.086   1.221 -0.0386 -0.1866 -0.2269
  600W        W 4344   9.463   6.420   1.376  0.2169 -0.2626 -0.0997
  601W        W 4345   6.017   0.138  12.069  0.0428  0.1377  0.0583
  602W        W 4346   4.971   0.340   9.122 -0.3163  0.0359  0.1366
  603W        W 4347   6.171   0.777   9.981  0.2922 -0.1149  0.2665
  604W        W 4348   4.693   7.012  11.767  0.0066 -0.0127 -0.1786
  605W        W 4349   7.485   3.123   1.462  0.0574 -0.0758 -0.0481
  606W        W 4350   0.026   9.368  12.499 -0.0285 -0.1813  0.0972
  607W        W 4351   4.542   1.030   0.219 -0.2446  0.0149  0.2822
  608W        W 4352   8.060   4.144   1.035 -0.0631 -0.1027 -0.1282
  609W        W 4353   4.799   6.349   2.913  0.1992  0.0332  0.2281
  610W        W 4354   4.924   3.488   9.990  0.0081 -0.1747 -0.4065
  611W        W 4355   0.588   1.884   0.083 -0.0296  0.0637 -0.2518
  612W        W 4356   0.072   9.844   9.415 -0.1357 -0.4799 -0.1462
  613W        W 4357   4.627   0.494   1.024 -0.3927 -0.0944  0.1421
  614W        W 4358   9.185   0.038   9.482  0.1760  0.1148  0.1084
  615W        W 4359   7.247   4.441  12.293 -0.1416  0.0697 -0.1668
  616W        W 4360   8.597   5.839   8.051 -0.1371  0.1291  0.2197
  617W        W 4361   8.051   9.871   1.285 -0.1254 -0.0351 -0.2024
  618W        W 4362   7.933   5.610   2.630  0.1507 -0.2886  0.2379
  619W        W 4363   5.191   9.128   0.443  0.2339 -0.0027 -0.2351
  620W        W 4364   6.449   0.356   8.921  0.0552  0.0440 -0.1683
  621W        W 4365   7.809   3.205  10.035 -0.2144  0.0584  0.0307
  622W        W 4366   8.992   3.379   3.300 -0.1856  0.0767 -0.1131
  623W        W 4367   6.295   7.091   9.582 -0.2286  0.1224  0.2378
  624W        W 4368   1.086   9.826   4.335  0.0457  0.5573  0.1939
  625W        W 4369   1.210   4.539   3.215 -0.0599 -0.1701 -0.2862
  626W        W 4370   2.603   9.395  10.295  0.3632  0.1109 -0.1398
  627W        W 4371   3.476   1.416   3.923  0.0821  0.1983  0.1509
  628W        W 4372   2.337   1.395  12.524 -0.0418 -0.0906  0.2906
  629W        W 4373   6.817   4.423  11.750 -0.0302 -0.1930 -0.0554
  630W        W 4374   8.447   1.369   0.215 -0.1338 -0.0190  0.3105
  631W        W 4375   6.144   6.744   2.219  0.2991  0.1845 -0.1395
  632W        W 4376   7.507   1.755  11.118 -0.2746  0.0623  0.1164
  633W        W 4377   3.086   8.287   2.992  0.3111  0.0214  0.2501
  634W        W 4378   3.481   6.931   0.976  0.0017 -0.0335 -0.1536
  635W        W 4379   6.536   4.212   0.625 -0.1032  0.1137 -0.1300
  636W        W 4380   9.365   9.614   9.961  0.1741  0.2065  0.0520
  637W        W 4381   4.641   3.563   1.003  0.3302  0.0209  0.1354
  638W        W 4382   9.824   9.499   0.193 -0.1520 -0.3113 -0.0117
  639W        W 4383   3.211   7.002  12.443 -0.2835  0.0027  0.1046
  640W        W 4384   2.385   7.914   9.199  0.0257 -0.0232  0.2225
  641W        W 4385   9.124   2.084   3.258 -0.0593  0.1685 -0.0964
  642W        W 4386   8.949   9.217   2.656  0.1661 -0.0049  0.1405
  643W        W 4387   3.600   6.930   2.947 -0.2855  0.0919 -0.1579
  644W        W 4388   5.022   1.447  10.581 -0.4451 -0.1696 -0.3740
  645W        W 4389   0.827   4.902   3.115  0.2862 -0.2764  0.1692
  646W        W 4390   5.998   1.979   2.079  0.4382  0.0010 -0.4065
  647W        W 4391   1.001   3.738  10.923  0.0846 -0.1351  0.0299
  648W        W 4392   6.268   7.280  10.308  0.0098 -0.1488 -0.0954
  649W        W 4393   6.260   6.266   2.373 -0.0506  0.1081 -0.0306
  650W        W 4394   6.167   3.200  11.984 -0.3807  0.1222 -0.0873
  651W        W 4395   0.192   8.833   0.151  0.0129  0.0457 -0.2042
  652W        W 4396   7.210   9.403  11.416  0.0751 -0.1738 -0.1714
  653W        W 4397   7.516   8.899   3.535 -0.1145 -0.1768 -0.0317
  654W        W 4398   2.586   3.046   1.581 -0.0550  0.0341 -0.0933
  655W        W 4399   6.255   7.103   1.575 -0.0503  0.0170 -0.2655
  656W        W 4400   7.674   5.859  10.219 -0.3969 -0.1810  0.2651
  657W        W 4401   6.558   3.814   9.669 -0.3163 -0.1051  0.0625
  658W        W 4402   5.366   8.487   8.645 -0.0037 -0.3030  0.1893
  659W        W 4403   4.360   7.837   1.317  0.0269  0.1188  0.0606
  660W        W 4404   0.154   9.104   3.387  0.1666  0.2840  0.1713
  661W        W 4405   0.839   6.006  10.389 -0.0718 -0.1710 -0.1837
  662W        W 4406   8.124   4.982   0.029  0.0369  0.1853  0.0640
  663W        W 4407   6.359   5.813   2.575 -0.0086  0.1165  0.0546
  664W        W 4408   3.125   8.811   3.265  0.2770 -0.0811 -0.1248
  665W        W 4409   5.227   1.912   2.041  0.0187  0.0618 -0.2999
  666W        W 4410   6.608   6.786   4.456 -0.2439  0.0944 -0.1800
  667W        W 4411   3.831   8.614   4.016  0.1611  0.1615 -0.1726
  668W        W 4412   7.686   6.097  10.676  0.1058 -0.4987 -0.0376
  669W        W 4413   8.870   5.181   0.232 -0.1004 -0.3301 -0.0821
  670W        W 4414   9.608   0.122   2.207  0.2767 -0.0760 -0.2475
  671W        W 4415   6.078   5.730   2.145 -0.0799 -0.5131 -0.1320
  672W        W 4416   7.615   6.602   4.610  0.2135  0.0970 -0.0021
  673W        W 4417   7.813   7.944   0.552  0.1690  0.3138  0.2659
  674W        W 4418   1.805   7.200  10.509 -0.1030  0.0685 -0.1204
  675W        W 4419   4.235   0.247   2.807 -0.4049  0.0018 -0.2521
  676W        W 4420   9.807   2.964   9.661 -0.1360 -0.1184  0.0852
  677W        W 4421   5.180   1.649   9.421 -0.0318  0.0168 -0.0707
  678W        W 4422   6.654   7.983   9.837 -0.1068 -0.0102 -0.0145
  679W        W 4423   5.765   2.156  11.099  0.0561  0.2813  0.0275
  680W        W 4424   9.383   8.195  12.570  0.1557  0.0712 -0.1978
  681W        W 4425   2.609   6.154   9.811  0.1420  0.1816 -0.2305
  682W        W 4426   8.678   0.121   2.476 -0.2324  0.0289  0.3148
  683W        W 4427   2.120   4.595  12.417  0.3344 -0.1490 -0.0533
  684W        W 4428   5.731   2.909   0.333 -0.0120  0.1084 -0.1077
  685W        W 4429   1.220   0.571   3.533  0.0360  0.2618  0.0851
  686W        W 4430   9.239   9.246   3.135  0.1397 -0.0253  0.1313
  687W        W 4431   3.505   9.879   1.475 -0.0079 -0.0760  0.0661
  688W        W 4432   3.392   9.767   0.975  0.1382  0.1279  0.1656
  689W        W 4433   9.569   0.149   5.132  0.1370 -0.1356  0.0929
  690W        W 4434   4.180   2.878   2.468 -0.0822 -0.0375 -0.2448
  691W        W 4435   1.032   7.544   8.683 -0.3369  0.0024  0.2504
  692W        W 4436   6.585   2.203   0.070 -0.0539  0.1730 -0.1905
  693W        W 4437   0.780   2.979   9.891  0.0336  0.0806 -0.0007
  694W        W 4438   9.776   0.604   2.141 -0.3751 -0.2022 -0.0904
  695W        W 4439   0.148   8.057   0.837 -0.1486 -0.1009  0.1869
  696W        W 4440   8.617   0.523   9.871 -0.0449 -0.3730  0.1179
  697W        W 4441   6.530   0.795   2.672 -0.1071  0.2404 -0.3397
  698W        W 4442   1.284   9.685   3.873 -0.1816  0.1215 -0.0074
  699W        W 4443   1.299   3.342  11.550  0.1484 -0.2843  0.1510
  700W        W 4444   0.444   5.962   2.013  0.0058  0.0298 -0.0098
  701W        W 4445   0.943   2.561   0.093  0.0146  0.0289 -0.0453
  702W        W 4446   0.371   0.764   8.810  0.0267  0.0825  0.1114
  703W        W 4447   2.102   9.524  10.955  0.0421  0.0595 -0.0360
  704W        W 4448   5.838   8.398   4.429  0.3185 -0.0143 -0.1058
  705W        W 4449   8.444   8.433   1.304  0.1515  0.0180 -0.0407
  706W        W 4450   8.832   8.480   1.673 -0.1024 -0.0681 -0.1336
  707W        W 4451   9.708   1.961   3.964 -0.1803 -0.0556 -0.2948
  708W        W 4452   7.785   5.217   1.682 -0.2717 -0.0040 -0.0424
  709W        W 4453   4.078   7.366   2.215 -0.3876  0.1435  0.1540
  710W        W 4454   3.238   2.422   1.484 -0.2848 -0.2613 -0.1980
  711W        W 4455   2.621   5.214   3.121 -0.0701 -0.4724  0.1494
  712W        W 4456   2.350   3.541   3.851  0.1379  0.1395  0.1048
  713W        W 4457   5.969   3.259  10.784  0.0523 -0.1005 -0.1485
  714W        W 4458   2.220   2.092  12.619  0.0015 -0.0597 -0.2980
  715W        W 4459   3.569   8.477   2.965 -0.2522  0.0502 -0.0007
  716W        W 4460   6.852   9.687  12.348  0.2072 -0.0134  0.0003
  717W        W 4461   1.067   0.324  12.632 -0.2508 -0.0644  0.0111
  718W        W 4462   3.966   5.892   1.912 -0.2957 -0.0748 -0.0363
  719W        W 4463   3.347   2.776  10.267  0.2453  0.0190  0.1421
  720W        W 4464   8.881   2.511   0.628  0.4792  0.4078  0.0174
  721W        W 4465   9.242   5.067  12.050 -0.1796  0.0006 -0.0252
  722W        W 4466   1.822   9.311   4.024 -0.0393 -0.2245  0.2385
  723W        W 4467   0.166   4.047  11.894  0.0588  0.0007  0.0142
  724W        W 4468   7.189   0.289   1.753 -0.1347  0.2094 -0.2633
  725W        W 4469   2.257   7.937  10.201 -0.1958  0.1666  0.0717
  726W        W 4470   0.072   8.047   1.388  0.1763 -0.1085  0.0745
  727W        W 4471   4.682   3.870  10.988 -0.1120 -0.0296  0.0855
  728W        W 4472   3.111   7.378  11.033  0.0878  0.0648 -0.0528
  729W        W 4473   7.940   5.275  11.377  0.2071 -0.1004  0.0604
  730W        W 4474   8.110   6.307   1.469 -0.0786  0.3059  0.0322
  731W        W 4475   7.190   5.877  10.095 -0.2947  0.2221  0.0893
  732W        W 4476   0.954   1.352   9.642 -0.1932  0.1577 -0.1193
  733W        W 4477   8.846   3.783  10.451  0.1177 -0.1246  0.0585
  734W        W 4478   5.541   0.349  12.776  0.0997  0.1508  0.0568
  735W        W 4479   1.322   3.592   1.407  0.2490  0.3063  0.2209
  736W        W 4480   8.720   5.052  12.090 -0.0692 -0.1689 -0.2017
  737W        W 4481   5.938   6.327  11.968 -0.2185  0.3509 -0.0462
  738W        W 4482   8.659   3.436   0.561  0.0235 -0.0326 -0.0795
  739W        W 4483   7.765   5.144   8.823  0.1875 -0.0802 -0.2113
  740W        W 4484   5.185   0.581   1.297  0.0492 -0.0675 -0.1010
  741W        W 4485   2.014   3.427   1.422  0.0597 -0.0237  0.0238
  742W        W 4486   9.439   1.890   1.531 -0.0540  0.0334  0.2832
  743W        W 4487   6.815   9.589   3.269 -0.1393  0.2778  0.1047
  744W        W 4488   6.894   4.453   0.946 -0.0332 -0.1886 -0.0225
  745W        W 4489   8.551   4.152   2.244  0.1977 -0.1575  0.0102
  746W        W 4490   3.613   8.906  12.768  0.2628 -0.2583 -0.0174
  747W        W 4491   4.595   0.125   3.169  0.1409  0.2795  0.1814
  748W        W 4492   5.698   7.644   8.989  0.2708  0.1802  0.0831
  749W        W 4493   3.566   3.272   0.596  0.0639 -0.0646  0.2034
  750W        W 4494   4.637   6.129   1.255  0.2797  0.0436 -0.1308
  751W        W 4495   7.330   1.131   0.278  0.2158  0.1297  0.1540
  752W        W 4496   0.589   4.232   3.699 -0.1214  0.1403 -0.0694
  753W        W 4497   0.922   6.444   3.413  0.0925  0.0250 -0.2176
  754W        W 4498   0.382   1.096   4.454  0.0358  0.1252  0.0336
  755W        W 4499   2.314   5.464  12.398 -0.0411 -0.0367  0.0643
  756W        W 4500   9.612   8.442   2.898 -0.2006  0.1905  0.0811
  757W        W 4501   2.194   2.299   3.113  0.2638 -0.1940  0.0197
  758W        W 4502   8.094   5.303   3.576 -0.0679  0.0329  0.0455
  759W        W 4503   9.114   2.238   8.935  0.2415  0.1081  0.0144
  760W        W 4504   4.592   9.716  10.507  0.2251 -0.0116 -0.2158
  761W        W 4505   9.125   4.921  11.172  0.2193  0.0748  0.1729
  762W        W 4506   2.129   6.706  10.382  0.2542 -0.0617  0.4756
  763W        W 4507   0.655   4.148  11.767 -0.0398  0.3376 -0.1381
  764W        W 4508   6.334   3.620  10.836 -0.0051 -0.0485  0.2444
  765W        W 4509   7.686   0.171  10.865  0.0395 -0.5298 -0.0777
  766W        W 4510   1.234   2.141  10.116  0.1172  0.1440  0.0478
  767W        W 4511   2.808   5.300   9.648  0.0946 -0.0606  0.0425
  768W        W 4512   8.963   0.202   0.992 -0.2195 -0.1375 -0.2369
  769W        W 4513   6.115   6.816  11.824  0.2162 -0.1613  0.0397
  770W        W 4514   2.432   7.479   8.924 -0.1661  0.1457  0.2707
  771W        W 4515   0.661   7.830   9.500 -0.0342 -0.0433  0.3425
  772W        W 4516   1.933   1.084  12.545 -0.3932  0.1396  0.1622
  773W        W 4517   1.179   4.796   4.174  0.3113 -0.0985 -0.0591
  774W        W 4518   2.767   1.910   3.433  0.1920 -0.4563  0.0629
  775W        W 4519   9.522   8.221  11.346 -0.0708 -0.0688  0.3139
  776W        W 4520   4.119   6.813   2.290 -0.0227 -0.1780  0.2654
  777W        W 4521   6.104   5.368  12.412 -0.2212 -0.3493  0.1963
  778W        W 4522   4.592   8.703   4.595 -0.1336  0.1163 -0.1104
  779W        W 4523   3.112   9.111   4.190  0.0472 -0.2145 -0.3161
  780W        W 4524   4.084   7.087   0.257 -0.1437  0.1466 -0.2771
  781W        W 4525   0.721   3.835   3.947 -0.0334 -0.0264  0.3226
  782W        W 4526   0.752   0.808  11.457 -0.0438 -0.0087  0.4302
  783W        W 4527   4.179   9.370   4.606 -0.1292  0.1474 -0.1113
  784W        W 4528   7.447   4.735   1.647  0.0949  0.0855 -0.3212
  785W        W 4529   3.239   0.718  12.468  0.1709 -0.3135 -0.1745
  786W        W 4530   6.423   1.138  12.314  0.1383  0.3535  0.4492
  787W        W 4531   7.571   2.308  10.022  0.0416  0.0355  0.2102
  788W        W 4532   1.177   3.760   3.758 -0.0197 -0.1878  0.0504
  789W        W 4533   6.439   8.029   2.401 -0.0210  0.0298  0.0545
  790W        W 4534   7.546   0.801   0.945  0.3956  0.0738  0.2659
  791W        W 4535   5.387   0.780   9.871  0.0455 -0.1361  0.2223
  792W        W 4536   2.964   5.767   0.450 -0.1757  0.1155 -0.1003
  793W        W 4537   6.598   7.722  12.709  0.1498  0.0291 -0.3229
  794W        W 4538   7.525   4.600  11.761 -0.0042  0.0054 -0.1800
  795W        W 4539   1.332   9.177  11.630 -0.2172 -0.0078 -0.1643
  796W        W 4540   6.084   1.442   2.073  0.1027  0.1007 -0.1522
  797W        W 4541   7.407   1.253  11.353  0.0251  0.2550 -0.0627
  798W        W 4542   9.145   2.521   2.904 -0.4058  0.2125  0.4337
  799W        W 4543   6.715   5.123   3.725 -0.0143  0.0881  0.1437
  800W        W 4544   9.259   7.670   3.879 -0.1160 -0.0656 -0.2717
  801W        W 4545   3.384   7.978  12.567 -0.0125 -0.3066 -0.0165
  802W        W 4546   9.064   6.479  10.587 -0.3018  0.1602 -0.1272
  803W        W 4547   0.300   0.916   3.923  0.3851  0.0378  0.0599
  804W        W 4548   8.306   3.926   1.376 -0.2734  0.1288 -0.3426
  805W        W 4549   8.469   2.961   2.908  0.0354  0.0215 -0.0146
  806W        W 4550   4.872   8.793   0.792 -0.0968 -0.0845 -0.1251
  807W        W 4551   2.528   3.105   2.532  0.1280 -0.2063  0.3062
  808W        W 4552   4.528   0.992   4.176  0.0617  0.0729 -0.0936
  809W        W 4553   6.076   9.734  11.653 -0.1544 -0.0073  0.0412
  810W        W 4554   9.849   1.243  10.068 -0.2135 -0.0431 -0.0784
  811W        W 4555   7.083   5.939  12.328  0.1564  0.1454 -0.0405
  812W        W 4556   5.602   2.717  10.198 -0.1291  0.0303  0.2431
  813W        W 4557   9.172   4.196   3.384  0.0508 -0.1781  0.3478
  814W        W 4558   5.851   4.640  12.795 -0.2776  0.1034 -0.0725
  815W        W 4559   0.208   8.153   4.210  0.0021 -0.3130  0.0672
  816W        W 4560   7.757   1.653   2.052  0.1244  0.2507  0.1206
  817W        W 4561   7.843   2.715  10.326 -0.0963 -0.1573  0.0176
  818W        W 4562   3.952   7.639   9.664  0.0345  0.1726 -0.0659
  819W        W 4563   5.644   2.493  10.732 -0.1711  0.0587  0.0012
  820W        W 4564   1.061   4.923  11.300 -0.0473  0.0217  0.0381
  821W        W 4565   8.656   3.234   9.119  0.1503 -0.1308  0.2082
  822W        W 4566   8.213   8.752   8.847  0.0564 -0.0395  0.1026
  823W        W 4567   7.892   0.960  10.105 -0.2654  0.0630 -0.0234
  824W        W 4568   1.224   8.392  11.941 -0.1345 -0.1000  0.2757
  825W        W 4569   1.592   7.737   2.370  0.2383  0.0939  0.1766
  826W        W 4570   2.971   8.681  10.875  0.2820  0.0928  0.0393
  827W        W 4571   3.740   6.691   8.883 -0.0488 -0.4044  0.2096
  828W        W 4572   7.624   7.460  12.044 -0.1334  0.2147 -0.0958
  829W        W 4573   5.383   8.514   2.147 -0.0388  0.2467 -0.1171
  830W        W 4574   9.193   4.645  11.617  0.1401 -0.1685 -0.1402
  831W        W 4575   4.734   0.006  12.246  0.1645 -0.4010 -0.2338
  832W        W 4576   6.466   2.236   9.878 -0.3197 -0.0127  0.2590
  833W        W 4577   8.217   4.902   4.977  0.0532  0.0248  0.1324
  834W        W 4578   4.060   1.279   2.813 -0.0839 -0.3156  0.0460
  835W        W 4579   0.916   3.588   9.095 -0.1038  0.3238 -0.0501
  836W        W 4580   7.294   1.359   2.242  0.2105 -0.2036 -0.0273
  837W        W 4581   6.425   0.421   3.290 -0.0800 -0.1556 -0.1361
  838W        W 4582   0.853   8.935   3.962  0.0198  0.2039  0.1154
  839W        W 4583   7.973   3.367   2.390 -0.0334 -0.0927 -0.0719
  840W        W 4584   9.139   2.923  12.026 -0.1897 -0.0137 -0.4044
  841W        W 4585   3.294   9.872   0.005 -0.0139  0.2328 -0.5908
  842W        W 4586   1.289   0.077  10.809 -0.1518 -0.0899  0.0735
  843W        W 4587   4.853   6.116   1.830 -0.2266 -0.0835  0.3673
  844W        W 4588   6.065   3.476   1.440 -0.0012 -0.1952 -0.2459
  845W        W 4589   0.779   4.208   3.222  0.0465  0.0247 -0.1223
  846W        W 4590   5.404   4.871   0.104  0.1275  0.0181  0.0785
  847W        W 4591   6.531   7.375  11.165 -0.2367  0.1407 -0.2687
  848W        W 4592   5.414   6.335  12.392  0.2752 -0.0329  0.1513
  849W        W 4593   9.347   6.975   1.647  0.1916 -0.3268 -0.1392
  850W        W 4594   5.152   7.408  10.046  0.3595 -0.3173  0.2108
  851W        W 4595   5.229   1.305   3.128 -0.0544 -0.1162 -0.0383
  852W        W 4596   4.949   7.882   4.280  0.0184 -0.3201  0.1819
  853W        W 4597   0.249   0.878  11.302  0.0259 -0.0008  0.1613
  854W        W 4598   3.213   0.221  10.675  0.0849  0.2106 -0.0486
  855W        W 4599   5.246   8.567   1.155  0.3751 -0.1227  0.0057
  856W        W 4600   1.681   3.524   1.843  0.2591 -0.3358  0.0397
  857W        W 4601   8.076   6.513   0.263  0.2321  0.0828 -0.1860
  858W        W 4602   7.159   1.808   3.999  0.0935  0.2850  0.2575
  859W        W 4603   7.103   6.432  11.990 -0.0311 -0.0276  0.4306
  860W        W 4604   7.339   6.218   7.749  0.1189 -0.1137 -0.1346
  861W        W 4605   6.308   9.091   2.842 -0.1948  0.0122  0.0716
  862W        W 4606   3.777   2.017  12.016  0.0113  0.0606 -0.2732
  863W        W 4607   6.975   4.837  12.394  0.2110 -0.0376  0.2019
  864W        W 4608   3.922   4.411   2.968  0.2384  0.0775  0.3252
  865W        W 4609   2.226   8.523   3.352  0.1320  0.1085 -0.0110
  866W        W 4610   1.684   5.110   3.588 -0.1681 -0.5762  0.1255
  867W        W 4611   8.551   2.845   1.661  0.1485 -0.0697  0.1218
  868W        W 4612   9.485   0.333  12.656 -0.0146 -0.2248  0.2765
  869W        W 4613   8.929   7.352   0.809 -0.0386 -0.1228 -0.0941
  870W        W 4614   5.714   7.951   9.838 -0.0027 -0.0722  0.2050
  871W        W 4615   9.868   9.769   4.197  0.0542 -0.0165  0.2601
  872W        W 4616   7.478   1.669  12.757 -0.2110 -0.0472  0.1788
  873W        W 4617   0.529   6.426   9.538 -0.3454  0.0375 -0.0889
  874W        W 4618   2.916   6.589   2.427  0.3297 -0.0949  0.1316
  875W        W 4619   6.827   2.953   3.526  0.2012 -0.0712  0.2225
  876W        W 4620   1.385   5.576   3.670  0.0344  0.2905  0.1800
  877W        W 4621   8.270   5.240  12.339  0.3878 -0.2990 -0.1761
  878W        W 4622   7.991   3.967   8.484 -0.0920 -0.0564 -0.2161
  879W        W 4623   4.943   4.545   9.966  0.1615 -0.1491  0.1547
  880W        W 4624   4.145   1.812   9.704 -0.0599 -0.0714  0.0926
  881W        W 4625   1.261   3.835   0.536  0.2651 -0.1309 -0.1638
  882W        W 4626   5.143   8.075  11.027  0.0993 -0.2043  0.0693
  883W        W 4627   2.671   7.759  10.497 -0.1508 -0.1368  0.1340
  884W        W 4628   3.338   0.261   5.680 -0.0028 -0.4142 -0.1075
  885W        W 4629   1.625   5.521  10.681  0.1009 -0.1184 -0.2574
  886W        W 4630   6.803   6.383   0.271 -0.0698 -0.0958 -0.1413
  887W        W 4631   6.960   0.111   5.148 -0.3591  0.0092  0.1191
  888W        W 4632   5.018   3.811  11.986 -0.1658  0.1049  0.0207
  889W        W 4633   3.197   7.632   0.063  0.0491  0.1645  0.2086
  890W        W 4634   1.367   6.165  10.407 -0.0011 -0.1160  0.2735
  891W        W 4635   5.532   3.624   4.056 -0.1165  0.0023  0.0498
  892W        W 4636   7.647   8.377  10.537  0.0789 -0.0615  0.0925
  893W        W 4637   4.611   6.610   1.026 -0.0052  0.1775  0.0544
  894W        W 4638   0.426   9.271   1.333  0.2512 -0.1206  0.0993
  895W        W 4639   5.276   6.959   0.267  0.0617 -0.1003 -0.2204
  896W        W 4640   4.433   6.017   9.321  0.0964  0.0860 -0.1309
  897W        W 4641   5.434   3.648   2.234  0.3323  0.0197  0.1264
  898W        W 4642   4.161   5.047   9.937  0.2155 -0.5105  0.1178
  899W        W 4643   3.923   1.067   9.474 -0.2370 -0.0341  0.2026
  900W        W 4644   5.026   0.979   2.027  0.1579 -0.0001 -0.2056
  901W        W 4645   7.620   3.592   9.684 -0.1042  0.2774  0.0128
  902W        W 4646   4.451   7.430   0.450  0.0486 -0.0027  0.1038
  903W        W 4647   1.832   0.595   9.328 -0.0345 -0.1791 -0.2324
  904W        W 4648   1.250   2.284   9.354 -0.0696 -0.0645  0.1055
  905W        W 4649   9.846   0.582   3.868  0.0046 -0.1637  0.3708
  906W        W 4650   7.436   5.006   0.826  0.1696 -0.0382 -0.2975
  907W        W 4651   5.123   9.438  11.264  0.1115 -0.2118 -0.0598
  908W        W 4652   2.700   6.335  10.267  0.1047 -0.1171 -0.1829
  909W        W 4653   8.258   7.772   9.979 -0.0959 -0.1079 -0.3080
  910W        W 4654   3.923   5.299   2.697 -0.0706 -0.0471 -0.0587
  911W        W 4655   3.772   8.284   8.792 -0.2093  0.0808 -0.1745
  912W        W 4656   2.612   6.989   2.686  0.1157 -0.0744  0.0287
  913W        W 4657   3.858   1.402  12.562  0.2033  0.2892 -0.0077
  914W        W 4658   9.377   4.525   1.897 -0.1013  0.0921  0.0166
  915W        W 4659   0.938   2.228  12.549  0.0208 -0.1358 -0.0517
  916W        W 4660   1.272   4.046   3.122  0.1636 -0.3328  0.3714
  917W        W 4661   5.937   8.761  10.413 -0.1176 -0.2462 -0.5109
  918W        W 4662   6.949   6.463   0.951  0.4225  0.5451  0.0581
  919W        W 4663   4.013   4.783   1.350  0.0130 -0.0272 -0.3009
  920W        W 4664   8.484   0.368  11.728  0.0358  0.0254 -0.1419
  921W        W 4665   2.895   5.967   1.878 -0.4625 -0.1221 -0.0997
  922W        W 4666   9.929   7.065  10.838  0.4594 -0.1940 -0.3965
  923W        W 4667   6.709   4.328  11.285 -0.1184  0.3608  0.3756
  924W        W 4668   7.530   5.083   3.523  0.1269  0.3529  0.0644
  925W        W 4669   0.269   3.379   3.050 -0.0143  0.2152 -0.0296
  926W        W 4670   2.633   6.362   3.392  0.1706  0.1048  0.2995
  927W        W 4671   4.849   5.224  12.200  0.0681 -0.3743  0.1241
  928W        W 4672   9.679   3.648  12.686  0.1204 -0.2376 -0.0696
  929W        W 4673   4.941   0.490  10.759  0.2288  0.0246 -0.1764
  930W        W 4674   5.570   7.997   2.102 -0.0918  0.2670  0.1063
  931W        W 4675   9.093   8.042   2.556  0.1847 -0.0641  0.0740
  932W        W 4676   2.482   5.306   1.789  0.3491  0.0547  0.1254
  933W        W 4677   9.427   9.238  11.777 -0.0262  0.0181  0.1247
  934W        W 4678   3.545   7.749   4.166  0.1049 -0.0123  0.3502
  935W        W 4679   1.446   5.143   1.367  0.0637  0.1182  0.0030
  936W        W 4680   6.581   3.718  10.320  0.0998 -0.2862  0.0365
  937W        W 4681   6.402   2.669   2.744 -0.0059  0.0757  0.3454
  938W        W 4682   3.457   5.988   2.897 -0.2249  0.0949  0.3667
  939W        W 4683   5.308   2.697   9.406 -0.1614  0.1845 -0.2144
  940W        W 4684   3.758   8.606   0.343 -0.1481  0.1460 -0.1290
  941W        W 4685   3.966   6.241   9.195 -0.2435 -0.2864  0.1335
  942W        W 4686   6.489   6.989   3.186  0.3283  0.2105  0.0638
  943W        W 4687   7.713   3.498  12.095 -0.4033 -0.0687  0.2305
  944W        W 4688   6.139   2.889  12.467  0.0360  0.2386 -0.1202
  945W        W 4689   0.613   9.947   9.499  0.2708 -0.5261 -0.1254
  946W        W 4690   9.556   0.969   3.816  0.4268 -0.1193  0.1998
  947W        W 4691   0.829   1.421   9.174  0.2416  0.1111 -0.0635
  948W        W 4692   2.450   8.106   3.575  0.2965  0.2080 -0.2628
  949W        W 4693   7.330   5.659   2.737 -0.2771  0.1295  0.1205
  950W        W 4694   9.887   3.833   1.614  0.3156 -0.3228 -0.1761
  951W        W 4695   9.947   9.495   0.701 -0.1870 -0.1036  0.3357
  952W        W 4696   7.090   7.693   9.752 -0.0903 -0.0697 -0.0915
  953W        W 4697   6.416   5.047   1.593  0.1935 -0.1757 -0.0149
  954W        W 4698   1.038   0.091   9.301 -0.0181 -0.2389  0.0343
  955W        W 4699   7.273   8.733   4.528 -0.2290  0.4232 -0.0026
  956W        W 4700   9.915   6.373   4.322  0.0904 -0.0014 -0.1112
  957W        W 4701   2.960   7.409  10.029  0.2384 -0.0559 -0.2070
  958W        W 4702   9.375   6.659  11.489  0.0218 -0.0143  0.0091
  959W        W 4703   5.539   8.179  11.380  0.2542 -0.1879 -0.5446
  960W        W 4704   8.167   9.402  11.454 -0.2381  0.0354 -0.1780
  961W        W 4705   7.914   2.199   2.278  0.0756 -0.0397 -0.0828
  962W        W 4706   5.944   6.153   9.289 -0.3316 -0.0966  0.1440
  963W        W 4707   3.313   6.771   0.496  0.3114  0.1703  0.1658
  964W        W 4708   2.034   8.675   1.379 -0.1385  0.0397 -0.1753
  965W        W 4709   7.319   5.904   4.404  0.1223 -0.1870 -0.0025
  966W        W 4710   9.178   1.451   3.189  0.3692 -0.0094  0.0664
  967W        W 4711   9.048   0.192  12.289 -0.0120  0.2500 -0.2704
  968W        W 4712   1.946   6.919   2.045 -0.1757  0.0157 -0.0728
  969W        W 4713   1.210   3.788   9.482  0.0102 -0.0942  0.1470
  970W        W 4714   8.647   1.676  12.734 -0.0079 -0.1773 -0.1859
  971W        W 4715   6.771   3.170   2.673  0.1124  0.3931  0.2627
  972W        W 4716   4.387   5.348  11.503  0.4135  0.1983 -0.0685
  973W        W 4717   7.986   4.811   2.780 -0.3759  0.0534 -0.1376
  974W        W 4718   9.192   3.131   2.852 -0.0730 -0.0769  0.0913
  975W        W 4719   2.502   9.758   0.279  0.1002 -0.1804 -0.1425
  976W        W 4720   4.460   1.098  10.938 -0.0785  0.3121  0.3969
  977W        W 4721   0.058   7.733   2.300 -0.4523 -0.0143 -0.1042
  978W        W 4722   0.947   7.172   9.010  0.1402  0.0509  0.1708
  979W        W 4723   3.900   5.895   0.604  0.0427  0.2696 -0.0941
  980W        W 4724   0.521   9.501   3.622 -0.2386 -0.0186 -0.0705
  981W        W 4725   3.976   3.969  10.346 -0.2008 -0.0512 -0.1458
  982W        W 4726   7.762   3.188   1.926 -0.0630  0.1288  0.1083
  983W        W 4727   2.847   4.947   1.755 -0.2061 -0.2912  0.1178
  984W        W 4728   1.409   4.538   0.210  0.0044 -0.0200 -0.1332
  985W        W 4729   6.735   4.176  10.035 -0.1201  0.0849 -0.0033
  986W        W 4730   1.953   8.913   3.182 -0.0773  0.0470  0.2361
  987W        W 4731   2.465   9.724   5.107  0.0936 -0.2302 -0.1318
  988W        W 4732   9.062   8.115   3.964 -0.1577  0.3455 -0.1447
  989W        W 4733   1.513   8.035   0.720 -0.0086  0.1180  0.1708
  990W        W 4734   1.564   1.861   3.884  0.0946  0.0740  0.2293
  991W        W 4735   0.819   5.236  12.797 -0.1359  0.0150 -0.2019
  992W        W 4736   6.862   5.545  10.338 -0.0776 -0.3632  0.3954
  993W        W 4737   8.902   9.608   9.298 -0.0174  0.0970  0.0054
  994W        W 4738   6.854   5.683   4.385  0.1646 -0.0287  0.3018
  995W        W 4739   6.357   3.651   2.119 -0.2459 -0.2741  0.1490
  996W        W 4740   2.140   3.996   3.508 -0.1698 -0.0505 -0.1578
  997W        W 4741   1.823   9.724  11.468  0.1063  0.0325 -0.0554
  998W        W 4742   5.168   7.962  11.608 -0.1587 -0.0720  0.0720
  999W        W 4743   3.158   6.972  10.721 -0.0964  0.0029  0.1982
 1000W        W 4744   5.007   7.547  12.468 -0.3016 -0.0640 -0.0772
 1001W        W 4745   0.336   4.536   2.752 -0.3365 -0.1854  0.1449
 1002W        W 4746   7.559   1.977   0.814 -0.0655 -0.0267  0.0686
 1003W        W 4747   1.899   3.542   2.866 -0.0918 -0.0249  0.0563
 1004W        W 4748   9.709   5.642   8.793 -0.0705 -0.1972  0.1214
 1005W        W 4749   2.401   2.251   3.641  0.0635  0.0253  0.1927
 1006W        W 4750   8.494   4.831   3.031 -0.0655 -0.2468 -0.2114
 1007W        W 4751   6.240   2.548  12.100  0.1150 -0.0172  0.0695
 1008W        W 4752   6.290   4.896   2.047  0.1245  0.0139  0.0156
 1009W        W 4753   5.414   4.107   0.535 -0.1339  0.4737  0.1319
 1010W        W 4754   2.501   1.134   1.317  0.0670  0.0235 -0.2176
 1011W        W 4755   1.862   3.075  11.718  0.1272  0.0564  0.0712
 1012W        W 4756   7.220   3.520   1.240 -0.1763 -0.1128 -0.0897
 1013W        W 4757   1.259   8.834  11.202  0.0914 -0.1060  0.1622
 1014W        W 4758   8.429   2.771   2.364 -0.1056 -0.1488 -0.0059
 1015W        W 4759   2.036   2.594  11.880 -0.2149 -0.0413 -0.5083
 1016W        W 4760   9.175   6.266   0.148  0.4123 -0.1885 -0.0255
 1017W        W 4761   0.600   7.646   3.703  0.0351  0.2856 -0.2201
 1018W        W 4762   2.642   8.552   0.077  0.1278 -0.1553 -0.0495
 1019W        W 4763   6.958   5.019   0.572  0.0863 -0.2652  0.2330
 1020W        W 4764   1.680   5.923  11.967 -0.1275  0.1822 -0.0366
 1021W        W 4765   8.709   0.229   5.154  0.0399  0.1592  0.3254
 1022W        W 4766   0.943   8.478  10.904 -0.0523  0.2522 -0.1688
 1023W        W 4767   7.537   4.273   3.874 -0.0589 -0.3856  0.1592
 1024W        W 4768   1.539   5.763   9.777 -0.0962  0.2269 -0.2755
 1025W        W 4769   0.439   4.616   4.617 -0.2591  0.1763 -0.0984
 1026W        W 4770   9.628   7.518   2.560  0.1059 -0.1325  0.0414
 1027W        W 4771   7.867   6.706   9.065  0.1002 -0.0768 -0.2071
 1028W        W 4772   4.042   8.202   4.774 -0.1566  0.2577  0.1968
 1029W        W 4773   1.913   1.728  10.841 -0.0992  0.0458  0.0234
 1030W        W 4774   0.362   7.722  10.331  0.0273  0.0293 -0.2089
 1031W        W 4775   0.058   9.108   2.067 -0.1980 -0.1537 -0.0261
 1032W        W 4776   4.334   2.265   2.948  0.5326  0.1762  0.2048
 1033W        W 4777   3.182   0.696   2.231  0.1411  0.1262  0.2266
 1034W        W 4778   1.169   0.823  11.794 -0.0688  0.1938  0.0070
 1035W        W 4779   2.057   1.775   4.174 -0.1078 -0.4387 -0.2225
 1036W        W 4780   8.059   0.726  11.914  0.0295 -0.0484  0.0474
 1037W        W 4781   5.369   2.102  10.260  0.2495  0.0690 -0.1401
 1038W        W 4782   0.744   1.567   1.602 -0.0224 -0.2721  0.0556
 1039W        W 4783   9.506   2.205   4.352 -0.1103  0.0732 -0.2292
 1040W        W 4784   0.388   1.415   1.021 -0.0882 -0.1401  0.0445
 1041W        W 4785   1.804   2.840   4.193  0.0186 -0.1259 -0.1104
 1042W        W 4786   9.098   3.095   4.312 -0.0512 -0.1960 -0.0449
 1043W        W 4787   8.824   1.590   0.471  0.1951 -0.0007  0.1983
 1044W        W 4788   9.340   3.686  11.001 -0.0788  0.1028  0.1200
 1045W        W 4789   9.935   1.907   1.684 -0.2601  0.1194 -0.0983
 1046W        W 4790   1.957   5.354   9.698 -0.2030  0.0610 -0.2657
 1047W        W 4791   8.027   2.309   0.241  0.2138  0.1688  0.3657
 1048W        W 4792   1.842   2.912  10.743 -0.1637  0.1849 -0.0299
 1049W        W 4793   4.807   3.596   3.022  0.2278  0.1226 -0.1846
 1050W        W 4794   1.610   1.540   4.258 -0.1714  0.1150  0.0574
 1051W        W 4795   3.776   8.332  12.185  0.1288  0.3005 -0.2963
 1052W        W 4796   6.503   6.243   9.271 -0.0138 -0.1045  0.0333
 1053W        W 4797   4.235   2.616   1.196  0.1837 -0.0417 -0.0395
 1054W        W 4798   8.009   5.797   3.937 -0.3258  0.0478 -0.0173
 1055W        W 4799   1.483   7.010   1.761 -0.2347  0.0749  0.0926
 1056W        W 4800   3.365   2.672   3.128 -0.2012  0.0201  0.2143
 1057W        W 4801   6.669   0.502   9.775  0.0383 -0.0919  0.1464
 1058W        W 4802   5.225   7.610   4.587 -0.2299  0.0886  0.0643
 1059W        W 4803   0.903   6.025   2.211 -0.1726 -0.0350 -0.0645
 1060W        W 4804   3.646   6.334  10.261  0.1561  0.0602  0.1641
 1061W        W 4805   2.769   4.440   1.678  0.2058  0.3066  0.3011
 1062W        W 4806   1.563   3.079   2.791  0.1426  0.0280  0.1044
 1063W        W 4807   4.889   0.915   1.089 -0.2556 -0.1188  0.3373
 1064W        W 4808   2.139   2.570  11.274 -0.0175 -0.2797  0.1013
 1065W        W 4809   1.885   9.634   9.165 -0.2261  0.2749 -0.1897
 1066W        W 4810   7.061   6.329   2.050  0.3953  0.0547 -0.0932
 1067W        W 4811   6.673   6.105  11.280 -0.3783  0.1447 -0.0011
 1068W        W 4812   5.808   6.813   1.820  0.0503  0.3687  0.0895
 1069W        W 4813   9.523   8.991  11.276 -0.0424 -0.4503 -0.0305
 1070W        W 4814   5.123   7.382   3.974 -0.0953  0.1299  0.0976
 1071W        W 4815   1.122   4.837   9.607  0.2318 -0.2556 -0.1180
 1072W        W 4816   1.586   3.600  11.171  0.0900  0.3206  0.1158
 1073W        W 4817   0.288   7.926   9.242 -0.0250 -0.0586  0.1282
 1074W        W 4818   7.368   6.395  11.076  0.0344  0.2136  0.2471
 1075W        W 4819   0.118   2.545  11.413  0.2837  0.2926  0.4203
 1076W        W 4820   9.156   0.177   3.355  0.0645  0.3370 -0.3219
 1077W        W 4821   3.036   0.149   1.468 -0.0563 -0.1658 -0.0531
 1078W        W 4822   0.048   4.108   2.520 -0.0259 -0.1579  0.1545
 1079W        W 4823   3.828   0.992   1.169  0.1951 -0.0040  0.0763
 1080W        W 4824   3.334   2.856   0.774 -0.1584  0.1893  0.2358
 1081W        W 4825   9.190   4.163  10.711 -0.2456  0.0362  0.1076
 1082W        W 4826   8.969   4.217  10.314  0.0637  0.0090  0.3884
 1083W        W 4827   0.268   8.662   2.125 -0.1371 -0.0886 -0.0712
 1084W        W 4828   6.003   0.951   9.563  0.0902 -0.0377  0.1004
 1085W        W 4829   1.779   5.324  11.138 -0.2287  0.0809  0.0841
 1086W        W 4830   0.127   8.867  12.488  0.4801  0.1618 -0.1035
 1087W        W 4831   0.193   6.787   2.149  0.2387  0.3094  0.0515
 1088W        W 4832   7.796   0.842   1.447 -0.1333 -0.3148 -0.1013
 1089W        W 4833   0.067   5.043  11.131 -0.3394  0.0093 -0.0597
 1090W        W 4834   1.155   0.739   1.430  0.1245 -0.3985 -0.2937
 1091W        W 4835   3.815   4.785  10.862  0.4005  0.0151  0.1847
 1092W        W 4836   6.084   7.799  12.366 -0.3227  0.1097  0.2148
 1093W        W 4837   0.642   2.202   2.853 -0.0301  0.4435 -0.0461
 1094W        W 4838   0.624   7.251   1.371 -0.2176 -0.2436 -0.2414
 1095W        W 4839   6.732   3.941   0.175 -0.2296 -0.3489 -0.0266
 1096W        W 4840   5.015   4.780  11.971  0.1164  0.2644  0.1479
 1097W        W 4841   0.310   5.497  11.147 -0.0948 -0.0564 -0.0339
 1098W        W 4842   5.654   6.584  10.162  0.1471  0.2091  0.3664
 1099W        W 4843   5.620   7.280  12.252  0.1427  0.0586 -0.0899
 1100W        W 4844   9.918   8.738   2.606  0.3126 -0.0846  0.3709
 1101W        W 4845   7.182   0.303   3.763 -0.3150 -0.2364 -0.2482
 1102W        W 4846   0.631   1.671  11.407 -0.0955  0.3157  0.2926
 1103W        W 4847   5.912   6.953   3.382 -0.0689  0.1492  0.1620
 1104W        W 4848   3.361   4.484   2.866  0.2184  0.1779 -0.3697
 1105W        W 4849   9.670   3.960  10.748  0.0381  0.2129 -0.0619
 1106W        W 4850   7.692   8.994   1.345  0.2319  0.2271 -0.1793
 1107W        W 4851   0.755   4.611   9.894  0.2063  0.1635  0.1373
 1108W        W 4852   4.533   8.661   2.533  0.1100  0.0386 -0.0211
 1109W        W 4853   6.245   9.439   4.572  0.3140  0.2606 -0.2068
 1110W        W 4854   8.738   7.909   1.235  0.0621  0.2512  0.1272
 1111W        W 4855   4.949   4.438   3.945 -0.1216 -0.1391 -0.1527
 1112W        W 4856   9.156   3.760  12.563  0.5202 -0.1600 -0.1513
 1113W        W 4857   0.039   0.784  10.025 -0.0439 -0.2182 -0.1604
 1114W        W 4858   5.881   1.945   9.501  0.0371  0.0914 -0.1939
 1115W        W 4859   0.301   3.405   3.626  0.3420 -0.1976  0.2802
 1116W        W 4860   5.976   1.321  11.411  0.0858 -0.1770 -0.0359
 1117W        W 4861   3.120   6.050   0.979  0.1863  0.0778 -0.1363
 1118W        W 4862   2.071   7.677   1.589 -0.0579 -0.0182 -0.0990
 1119W        W 4863   6.142   5.054  12.824  0.0266 -0.0444  0.3175
 1120W        W 4864   8.075   5.136   2.447 -0.3454 -0.3177  0.0118
 1121W        W 4865   1.312   6.900   9.655 -0.0736 -0.1996  0.2994
 1122W        W 4866   5.516   6.775   2.217  0.1375 -0.4083  0.0325
 1123W        W 4867   3.078   9.587   1.335 -0.2205  0.2231  0.0064
 1124W        W 4868   8.548   3.475  10.136  0.0643  0.1069 -0.4197
 1125W        W 4869   5.943   1.906   3.077  0.0457 -0.1218  0.2117
 1126W        W 4870   0.008   9.402  11.061  0.2625 -0.0476  0.1434
 1127W        W 4871   1.365   9.207   3.110 -0.0232  0.1218 -0.1743
 1128W        W 4872   7.325   0.585   4.580  0.0335 -0.1396  0.3756
 1129W        W 4873   3.440   9.236   8.300 -0.1619 -0.0424 -0.0242
 1130W        W 4874   9.316   4.797   3.442 -0.0508 -0.1911  0.1465
 1131W        W 4875   3.981   5.320   0.440  0.0847  0.0154 -0.0854
 1132W        W 4876   0.417   4.531   1.219 -0.1479 -0.0001  0.0808
 1133W        W 4877   7.485   7.706   0.860 -0.2283  0.3481 -0.0382
 1134W        W 4878   6.467   0.043   2.479  0.2595  0.0082  0.1387
 1135W        W 4879   6.538   8.515  12.357 -0.1357  0.1132  0.1367
 1136W        W 4880   9.726   0.791  11.013 -0.0523  0.2198  0.1896
 1137W        W 4881   4.646   7.302  11.363  0.3226 -0.0309  0.0599
 1138W        W 4882   7.275   2.930   1.944 -0.0962  0.0121  0.1943
 1139W        W 4883   3.455   1.971   2.870 -0.0036  0.0062  0.0047
 1140W        W 4884   9.692   2.745  11.985  0.0866  0.2141 -0.1013
 1141W        W 4885   4.280   4.921   0.495  0.3179  0.1484 -0.2786
 1142W        W 4886   3.999   7.792   3.756  0.1606 -0.2410 -0.0857
 1143W        W 4887   5.399   7.364  12.732  0.3182  0.1518  0.1860
 1144W        W 4888   7.486   9.186  11.765 -0.1575 -0.0083 -0.1036
 1145W        W 4889   6.282   2.435   4.439 -0.3465  0.0739  0.1255
 1146W        W 4890   5.196   5.526   9.320 -0.0915  0.1820  0.3108
 1147W        W 4891   6.348   4.054   2.501  0.0721 -0.0787 -0.1776
 1148W        W 4892   6.819   1.088   2.325  0.2406  0.1695 -0.0584
 1149W        W 4893   7.227   4.571   0.566  0.2418 -0.3038  0.2786
 1150W        W 4894   2.350   9.777  11.306  0.0623 -0.0421  0.3148
 1151W        W 4895   7.787   2.126   2.810  0.0778 -0.0744  0.3205
 1152W        W 4896   1.899   8.055   0.342  0.1926 -0.1152 -0.1059
 1153W        W 4897   7.418   3.544   3.338 -0.0490  0.2553 -0.0244
 1154W        W 4898   7.002   4.954   1.053  0.0674  0.1096  0.2322
 1155W        W 4899   4.853   1.606   2.894  0.0757 -0.1231  0.1616
 1156W        W 4900   6.654   2.122  12.291 -0.2027 -0.0888  0.2239
 1157W        W 4901   1.845   7.651  10.409 -0.2614  0.1510  0.2093
 1158W        W 4902   1.842   5.017  10.706  0.0185 -0.2237  0.0766
 1159W        W 4903   3.796   5.468   0.861 -0.2648  0.1138  0.1368
 1160W        W 4904   7.928   1.663  11.905  0.0320  0.1547  0.1392
 1161W        W 4905   2.852   5.696   2.976 -0.2821  0.1382 -0.2303
 1162W        W 4906   3.611   0.887  10.430 -0.2432  0.5622 -0.0513
 1163W        W 4907   8.185   9.393   2.976  0.0302  0.4585  0.1708
 1164W        W 4908   2.848   5.013   3.471 -0.2846 -0.0393  0.1171
 1165W        W 4909   3.728   2.795  11.467 -0.0335 -0.1497 -0.0228
 1166W        W 4910   5.342   7.459   1.975 -0.1877  0.1156  0.0517
 1167W        W 4911   1.379   4.373   2.335  0.0515 -0.0328  0.3454
 1168W        W 4912   7.884   9.127   0.156  0.1286 -0.3536  0.1886
 1169W        W 4913   5.708   3.655   2.644  0.0364 -0.0415 -0.3507
 1170W        W 4914   9.702   4.318   9.240 -0.0451 -0.0603 -0.1786
 1171W        W 4915   0.360   9.737   1.062 -0.3367 -0.0611  0.3086
 1172W        W 4916   7.895   8.338  10.972  0.2598  0.2347  0.3492
 1173W        W 4917   2.219   4.888   9.062  0.2252 -0.0353  0.1808
 1174W        W 4918   9.409   1.515   1.978 -0.2861 -0.1122  0.1149
 1175W        W 4919   7.582   9.764   1.396 -0.5703  0.3226  0.1371
 1176W        W 4920   5.640   1.927  12.243 -0.3628  0.5109  0.1076
 1177W        W 4921   1.649   8.746  12.094 -0.1396  0.3222 -0.0937
 1178W        W 4922   4.379   7.974   4.116 -0.0598  0.1417 -0.0792
 1179W        W 4923   2.499   9.087  11.998  0.1509 -0.2056  0.1052
 1180W        W 4924   9.422   0.153  10.955 -0.0590  0.0732  0.0144
 1181W        W 4925   1.869   5.201   2.694  0.1142 -0.2051 -0.2981
 1182W        W 4926   9.427   0.625   2.457 -0.1012  0.2407 -0.1397
 1183W        W 4927   9.811   7.398   3.018 -0.2487 -0.0665 -0.1168
 1184W        W 4928   4.236   9.087  10.159 -0.1431  0.2841 -0.0238
 1185W        W 4929   3.772   0.634   1.544 -0.0812  0.2646 -0.1768
 1186W        W 4930   9.876   2.578   2.652  0.0811 -0.0259 -0.0436
 1187W        W 4931   8.344   5.173   0.460  0.2218  0.1083  0.2148
 1188W        W 4932   7.310   7.126   0.434 -0.0675  0.0483 -0.0236
 1189W        W 4933   3.071   1.256   3.327 -0.2917 -0.1478 -0.0465
 1190W        W 4934   1.443   1.417   0.617 -0.1675  0.2984  0.0409
 1191W        W 4935   4.289   2.272  12.586 -0.0046 -0.0118 -0.0454
 1192W        W 4936   4.175   0.666   9.645 -0.0081 -0.1878  0.3619
 1193W        W 4937   0.491   8.617   8.610 -0.2190 -0.0042 -0.1232
 1194W        W 4938   9.095   4.934   3.862 -0.0361 -0.3592  0.0333
 1195W        W 4939   2.306   8.841   8.557  0.0019  0.1167  0.2125
 1196W        W 4940   8.202   5.591   2.165 -0.2768  0.1616  0.1644
 1197W        W 4941   4.939   8.815   1.873 -0.0537  0.1101 -0.0557
 1198W        W 4942   7.743   3.096   8.808  0.0543  0.1595 -0.1630
 1199W        W 4943   5.437   6.873  10.475 -0.0932  0.0054 -0.2753
 1200W        W 4944   7.026   1.696   8.819  0.5620  0.0844 -0.0751
 1201W        W 4945   3.236   1.390  11.749 -0.1377 -0.0332 -0.1246
 1202W        W 4946   7.895   7.966   5.093 -0.0884  0.0684  0.2363
 1203W        W 4947   5.779   8.486  11.702 -0.1489 -0.0617 -0.4051
 1204W        W 4948   4.709   2.584   9.864  0.0468 -0.3658  0.0794
 1205W        W 4949   6.672   8.986   2.302 -0.1061  0.0538 -0.1311
 1206W        W 4950   7.955   4.737  11.562  0.0371 -0.1185  0.0956
 1207W        W 4951   9.375   5.062   8.929 -0.0931  0.1778  0.1062
 1208W        W 4952   2.248   7.329  10.405 -0.0710  0.0370  0.1611
 1209W        W 4953   8.750   2.458   3.711 -0.3318  0.0261  0.0293
 1210W        W 4954   5.838   9.814   2.605  0.0794 -0.1195 -0.3207
 1211W        W 4955   3.966   1.164   0.228 -0.0306 -0.0547 -0.1694
 1212W        W 4956   6.534   5.029   0.311 -0.2770 -0.5960  0.0818
 1213W        W 4957   7.697   2.664   1.780 -0.2605 -0.0218  0.0779
 1214W        W 4958   9.193   2.123   3.796  0.0279 -0.0234 -0.1454
 1215W        W 4959   8.791   2.270   0.166  0.1311  0.2212 -0.1323
 1216W        W 4960   7.859   6.880   2.126  0.1402  0.1553  0.1702
 1217W        W 4961   5.070   4.768   1.867  0.2735 -0.2344 -0.2566
 1218W        W 4962   4.372   6.149   3.667 -0.2213  0.0749 -0.0425
 1219W        W 4963   8.240   9.618   1.920  0.0494 -0.0706 -0.0009
 1220W        W 4964   8.738   6.716   4.130 -0.3687  0.1031  0.1067
 1221W        W 4965   4.406   0.329   3.700  0.0740  0.0281  0.3242
 1222W        W 4966   0.721   6.148   0.469  0.1583  0.0587  0.0431
 1223W        W 4967   2.716   7.019  10.996 -0.0109 -0.0101 -0.0938
 1224W        W 4968   6.063   1.010   1.229  0.0528  0.3041 -0.1477
 1225W        W 4969   0.621   3.021   3.223 -0.0020 -0.0538  0.0806
 1226W        W 4970   2.563   8.662  10.561 -0.0315  0.0418 -0.0117
 1227W        W 4971   0.212   3.368  12.620  0.1813  0.2219 -0.4383
 1228W        W 4972   9.216   7.211   4.104  0.0239  0.1428 -0.3654
 1229W        W 4973   1.376   0.354   8.879 -0.2020 -0.1768 -0.0502
 1230W        W 4974   6.627   1.289  10.044 -0.0987  0.1021  0.2155
 1231W        W 4975   6.228   4.153   9.567  0.1449  0.1416  0.1533
 1232W        W 4976   6.902   5.369  10.899  0.0078 -0.2435  0.1331
 1233W        W 4977   8.314   1.564   1.202  0.0114 -0.4234  0.2896
 1234W        W 4978   1.108   3.902   1.023  0.1872  0.2370 -0.1985
 1235W        W 4979   7.421   9.047   4.144  0.1161  0.2881 -0.0054
 1236W        W 4980   1.417   2.023   2.450  0.1729 -0.3075 -0.0549
 1237W        W 4981   1.722   7.476   4.182 -0.1346  0.1674  0.0429
 1238W        W 4982   1.592   8.239   2.122 -0.1414 -0.3664 -0.0374
 1239W        W 4983   7.128   4.873   9.979  0.0372  0.0552 -0.4323
 1240W        W 4984   6.971   7.093   9.050  0.1275 -0.0226 -0.4418
 1241W        W 4985   3.462   7.495  12.388  0.0324  0.2731 -0.1397
 1242W        W 4986   0.100   8.858  11.261  0.0751 -0.2419  0.1265
 1243W        W 4987   6.701   3.208  11.762  0.1935  0.0331 -0.1294
 1244W        W 4988   1.858   0.508   3.183  0.0934  0.0845  0.1232
 1245W        W 4989   7.750   9.701   0.906  0.0860  0.4633  0.0894
 1246W        W 4990   1.336   8.809   9.175  0.1498 -0.1272  0.3002
 1247W        W 4991   6.538   9.073   9.024 -0.0577  0.3816 -0.1542
 1248W        W 4992   1.836   4.246  12.187  0.0789  0.0816 -0.0881
 1249W        W 4993   3.488   7.163   4.911  0.2495  0.1378 -0.0250
 1250W        W 4994   5.319   7.879  10.566 -0.0155  0.2701 -0.0779
 1251W        W 4995   0.148   9.350  10.548 -0.0332  0.0168  0.0681
 1252W        W 4996   8.838   7.199   9.956  0.4021 -0.0180 -0.2415
 1253W        W 4997   0.197   6.594   8.549 -0.0181 -0.1964 -0.0194
 1254W        W 4998   7.026   0.997   9.221  0.0373  0.0164  0.2057
 1255W        W 4999   9.620   3.249  12.328  0.3166  0.2561  0.1869
 1256W        W 5000   7.251   1.830   1.886 -0.0703 -0.2483  0.3010
 1257W        W 5001   9.822   2.626  10.067  0.0144  0.0035 -0.0415
 1258W        W 5002   3.083   3.479  11.896  0.1605  0.1543 -0.0896
 1259W        W 5003   9.780   0.547   8.875 -0.0215  0.0361 -0.0850
 1260W        W 5004   9.334   2.004   0.997 -0.1756 -0.0144  0.1844
 1261W        W 5005   6.171   5.416   9.641  0.1662  0.0869  0.0023
 1262W        W 5006   4.781   0.726   0.581  0.1210  0.0051  0.0788
 1263W        W 5007   4.719   9.748   1.426 -0.1525  0.3584 -0.4804
 1264W        W 5008   4.678   4.644   2.590 -0.0380  0.1289  0.0111
 1265W        W 5009   8.674   1.139   0.770  0.2325 -0.0925 -0.1063
 1266W        W 5010   8.363   8.592  11.105  0.1378  0.0325  0.1226
 1267W        W 5011   9.680   4.078   8.779  0.1388  0.1465  0.2092
 1268W        W 5012   9.185   0.943   2.832 -0.0086  0.1161  0.3655
 1269W        W 5013   7.256   1.965   1.317 -0.1688  0.1658  0.0051
 1270W        W 5014   6.288   1.266   0.496 -0.1223  0.1493 -0.0700
 1271W        W 5015   4.777   2.467  12.558  0.0863 -0.1467  0.0803
 1272W        W 5016   9.465   1.194  11.218  0.0098  0.2972  0.3313
 1273W        W 5017   4.572   2.011   0.378  0.0838  0.0616 -0.0381
 1274W        W 5018   1.613   6.379   8.797 -0.0271  0.0375 -0.0250
 1275W        W 5019   3.132   0.398   0.154  0.0197  0.0117  0.1127
 1276W        W 5020   3.409   9.762  11.068  0.0623 -0.0089 -0.0014
 1277W        W 5021   2.990   8.602   9.632 -0.1416 -0.1260  0.0359
 1278W        W 5022   3.458   5.069   2.612 -0.1861 -0.3017 -0.1263
 1279W        W 5023   2.076   0.460  11.687 -0.0894 -0.0319  0.2056
 1280W        W 5024   6.308   8.654   3.056 -0.1126  0.0052 -0.0154
 1281W        W 5025   8.715   2.366   3.191  0.0388  0.0049 -0.0926
 1282W        W 5026   9.172   8.516   4.218 -0.1781 -0.4657  0.2868
 1283W        W 5027   3.557   6.572   3.285  0.3676  0.1411  0.0371
 1284W        W 5028   4.443   4.820  12.796 -0.2423 -0.0313  0.0017
 1285W        W 5029   8.590   2.218  10.353 -0.5301 -0.0770 -0.3781
 1286W        W 5030   0.687   9.559  12.397 -0.1419 -0.2484 -0.0365
 1287W        W 5031   8.543   8.986  12.154  0.2651 -0.1724  0.1854
 1288W        W 5032   7.212   9.347  10.490 -0.0546  0.0727 -0.1679
 1289W        W 5033   1.560   5.995   0.251 -0.1292  0.0385  0.1052
 1290W        W 5034   7.729   8.029   1.113 -0.1101 -0.0937 -0.1022
 1291W        W 5035   6.127   8.255  12.041 -0.1664 -0.1394 -0.0550
 1292W        W 5036   7.186   3.185   0.765 -0.4298 -0.0581 -0.1233
 1293W        W 5037   1.459   2.776   3.250  0.2519 -0.0509  0.0504
 1294W        W 5038   7.376   6.011   1.760 -0.4236 -0.0725 -0.0931
 1295W        W 5039   3.255   5.961   0.081 -0.0577  0.0182 -0.0430
 1296W        W 5040   4.041   4.480  12.760 -0.0583  0.1439  0.2004
 1297W        W 5041   7.484   2.126  12.503  0.4102  0.1425 -0.3408
 1298W        W 5042   4.794   2.117   0.802 -0.1396  0.1470  0.3394
 1299W        W 5043   4.344   9.125  10.666 -0.1965 -0.3304  0.3453
 1300W        W 5044   5.351   2.758   1.002 -0.0251  0.1681  0.2864
 1301W        W 5045   3.468   5.124  11.737  0.0958  0.0767  0.0591
 1302W        W 5046   4.747   2.436  10.845 -0.0339  0.2167  0.0900
 1303W        W 5047   1.330   0.702   3.012 -0.0666  0.2038  0.0852
 1304W        W 5048   7.703   0.967   3.864  0.0105  0.0292 -0.3345
 1305W        W 5049   7.820   7.413   3.592 -0.0034 -0.1396  0.2767
 1306W        W 5050   7.938   2.768   2.293 -0.2511 -0.1771  0.0167
 1307W        W 5051   2.617   5.896  12.701  0.1985  0.2929 -0.2076
 1308W        W 5052   1.708   0.140   2.175 -0.3807  0.3516  0.0023
 1309W        W 5053   1.193   5.767   8.663  0.1799  0.2269 -0.2327
 1310W        W 5054   3.843   9.550  11.310  0.2126 -0.1577  0.2942
 1311W        W 5055   3.164   6.137   2.323 -0.2245  0.0142  0.1353
 1312W        W 5056   0.032   0.113   3.728 -0.0161 -0.0795 -0.2848
 1313W        W 5057   1.351   1.945  11.027  0.1575 -0.2769 -0.2004
 1314W        W 5058   3.662   6.994  12.223 -0.2676  0.1521  0.1455
 1315W        W 5059   1.370   7.497   1.944  0.1191  0.0044 -0.1048
 1316W        W 5060   5.464   5.104   3.508  0.1336 -0.1491  0.3441
 1317W        W 5061   5.790   4.934   2.264  0.4859 -0.0094  0.3375
 1318W        W 5062   4.788   3.081   3.272  0.1541  0.0411  0.4767
 1319W        W 5063   2.141   8.981   3.677 -0.0830 -0.0539 -0.1704
 1320W        W 5064   8.647   2.325   1.495  0.1510  0.1024 -0.2281
 1321W        W 5065   4.262   9.692   1.461  0.3742  0.0223  0.0077
 1322W        W 5066   1.984   8.437   0.002  0.0798 -0.1680  0.2490
 1323W        W 5067   4.495   4.904   1.081  0.0887 -0.1234  0.1948
 1324W        W 5068   9.946   9.709   2.487  0.0568 -0.1995 -0.0277
 1325W        W 5069   4.269   8.519   0.749  0.0780  0.1597 -0.1012
 1326W        W 5070   9.131   5.385  10.289 -0.1077 -0.0789  0.0679
 1327W        W 5071   0.311   2.027  10.502 -0.1726 -0.0324  0.1955
 1328W        W 5072   9.313   8.995   0.415  0.1549 -0.1202  0.2551
 1329W        W 5073   9.112   2.301   1.811 -0.1398  0.3819 -0.1459
 1330W        W 5074   8.397   5.169   9.983 -0.1290 -0.0183 -0.3215
 1331W        W 5075   4.065   5.398   1.849 -0.0847 -0.0191 -0.0812
 1332W        W 5076   8.938   5.175   1.194  0.0546 -0.3010 -0.2638
 1333W        W 5077   9.831   7.726   1.057 -0.0777 -0.1452 -0.3222
 1334W        W 5078   3.364   9.257   1.733 -0.1595 -0.0681  0.2248
 1335W        W 5079   5.316   8.493  12.027  0.2114  0.0902  0.2731
 1336W        W 5080   4.532   5.330   0.719 -0.1910  0.6399  0.2671
 1337W        W 5081   1.551   3.002   2.241  0.0193  0.0969 -0.0322
 1338W        W 5082   3.410   2.992  12.344  0.0418 -0.1114 -0.2720
 1339W        W 5083   3.390   3.577  11.436  0.3057 -0.0046  0.1580
 1340W        W 5084   6.291   4.795   3.743  0.0104  0.1022  0.1728
 1341W        W 5085   1.099   7.145   2.975 -0.0832  0.1347 -0.2530
 1342W        W 5086   2.891   7.319   4.753  0.0976 -0.0294 -0.1312
 1343W        W 5087   8.458   9.839   3.266 -0.0226 -0.0802 -0.0972
 1344W        W 5088   9.944   9.233  11.605  0.0565  0.0369 -0.0689
 1345W        W 5089   6.868   0.511   9.311  0.2387 -0.1062  0.1527
 1346W        W 5090   4.903   3.282   0.124 -0.2136 -0.1421  0.1452
 1347W        W 5091   4.921   3.063   1.834 -0.0674 -0.0273 -0.2990
 1348W        W 5092   9.542   3.968   1.199 -0.1369  0.0798  0.2973
 1349W        W 5093   1.833   8.135   2.558 -0.3431  0.0681 -0.1011
 1350W        W 5094   1.681   9.633   3.299  0.0463  0.0195 -0.4052
 1351W        W 5095   3.380   9.085  11.759 -0.1881 -0.2950  0.1276
 1352W        W 5096   9.529   8.057   3.861 -0.2548  0.0197  0.0787
 1353W        W 5097   1.314   0.941  12.580  0.1445 -0.2934 -0.2389
 1354W        W 5098   5.608   6.346   0.555  0.0682 -0.0644  0.0319
 1355W        W 5099   1.122   7.213  11.464 -0.0785  0.0110 -0.1932
 1356W        W 5100   0.328   2.798   2.847 -0.1835 -0.1192  0.2567
 1357W        W 5101   2.493   5.686  11.084  0.1068 -0.0925  0.1320
 1358W        W 5102   5.634   7.102   9.582  0.0727 -0.2544  0.4173
 1359W        W 5103   5.143   3.466   0.710  0.0472 -0.1544 -0.3081
 1360W        W 5104   9.564   1.303   2.826 -0.0811 -0.2372  0.0225
 1361W        W 5105   6.888   8.947  10.695  0.1487 -0.0166  0.0693
 1362W        W 5106   8.735   4.254   3.202  0.2364 -0.2773  0.0701
 1363W        W 5107   6.395   9.012  10.410  0.1174  0.2201  0.1027
 1364W        W 5108   7.444   4.094  10.393 -0.5328  0.3386 -0.3222
 1365W        W 5109   2.452   8.430   0.862 -0.2021 -0.1110  0.0819
 1366W        W 5110   6.641   2.236   0.649  0.0182  0.0204  0.0169
 1367W        W 5111   3.322   8.300   3.471  0.1853 -0.0844 -0.0826
 1368W        W 5112   2.791   6.157  11.037 -0.1575  0.3301  0.3876
 1369W        W 5113   3.879   2.764   1.722 -0.2698 -0.1155 -0.0694
 1370W        W 5114   5.571   3.044   3.976  0.1821 -0.3846  0.1798
 1371W        W 5115   9.531   1.758  11.190 -0.0004  0.4060 -0.1280
 1372W        W 5116   6.671   9.337   0.538  0.1324  0.0216 -0.2140
 1373W        W 5117   2.790   8.472   3.448 -0.0225  0.3605  0.1479
 1374W        W 5118   7.651   7.232   0.838 -0.2874  0.1915 -0.2020
 1375W        W 5119   1.016   7.392   2.290 -0.0287  0.0869  0.1006
 1376W        W 5120   1.099   9.148   1.965  0.0044 -0.1230  0.0706
 1377W        W 5121   0.854   7.594  11.363 -0.1557 -0.0656  0.4313
 1378W        W 5122   2.318   4.792  10.750  0.1691  0.1983  0.2010
 1379W        W 5123   8.105   3.988  12.809 -0.2971 -0.0708  0.1335
 1380W        W 5124   9.316   4.002   9.114  0.0006  0.1447 -0.1227
 1381W        W 5125   8.870   5.704   2.806 -0.0388  0.2395  0.0700
 1382W        W 5126   0.623   6.569   0.755 -0.0311 -0.0942 -0.0948
 1383W        W 5127   2.931   1.978   0.312 -0.1817  0.0500 -0.4916
 1384W        W 5128   8.099   5.131   0.903  0.0930 -0.3320  0.0635
 1385W        W 5129   1.610   2.066  12.463  0.1532  0.0431  0.0892
 1386W        W 5130   9.320   8.763   3.207  0.0527  0.1985  0.0166
 1387W        W 5131   6.731   4.665   1.937  0.0518 -0.3238 -0.0293
 1388W        W 5132   8.456   3.858  10.831  0.4416  0.2790  0.2797
 1389W        W 5133   6.867   8.384   9.276  0.4318  0.0438  0.0392
 1390W        W 5134   3.433   5.806   3.410 -0.2215 -0.1142  0.0889
 1391W        W 5135   2.945   3.305  11.101  0.2335 -0.4309  0.2405
 1392W        W 5136   5.469   5.402  10.908  0.2610  0.3828  0.1819
 1393W        W 5137   8.882   3.988   9.350  0.1054  0.0083  0.2545
 1394W        W 5138   2.057   5.137  11.565  0.0447  0.1067 -0.4466
 1395W        W 5139   3.646   1.523   1.229 -0.1315  0.2177 -0.0116
 1396W        W 5140   3.710   0.769   9.938 -0.0777  0.1944 -0.0198
 1397W        W 5141   8.650   7.199  11.767  0.0789 -0.1405  0.0798
 1398W        W 5142   5.310   6.338   9.902  0.1229 -0.3146  0.1161
 1399W        W 5143   9.130   9.391   1.951  0.1173  0.0414  0.2104
 1400W        W 5144   2.837   5.304   4.288  0.1297  0.1329  0.0030
 1401W        W 5145   2.884   0.460   3.790  0.0076 -0.1340 -0.1573
 1402W        W 5146   0.414   6.306  10.337 -0.1738  0.2230 -0.0259
 1403W        W 5147   5.599   6.908   1.297 -0.5413 -0.2977 -0.0894
 1404W        W 5148   7.324   5.443   1.859 -0.0522  0.2646 -0.0160
 1405W        W 5149   6.023   0.011  10.726 -0.1139  0.1503 -0.1754
 1406W        W 5150   7.546   2.295   8.962 -0.2037 -0.1079 -0.0987
 1407W        W 5151   7.146   5.395   9.956  0.5913 -0.0589  0.1636
 1408W        W 5152   8.342   3.521   1.730 -0.3385 -0.1051  0.1275
 1409W        W 5153   2.130   4.490   9.960 -0.1329 -0.0760  0.1519
 1410W        W 5154   7.457   4.839   3.046 -0.1703 -0.1833 -0.5461
 1411W        W 5155   4.356   5.232  12.437  0.0346 -0.1457 -0.0522
 1412W        W 5156   4.804   9.413   3.857 -0.2653 -0.1588 -0.0867
 1413W        W 5157   0.001   7.257   3.480  0.1200  0.1874  0.0443
 1414W        W 5158   6.084   6.676   1.217  0.1037  0.2705 -0.2557
 1415W        W 5159   1.697   4.038   2.153 -0.1168 -0.1761  0.0539
 1416W        W 5160   2.954   9.928  11.526  0.2036  0.4857  0.0198
 1417W        W 5161   4.729   4.954  11.242 -0.2137  0.3373  0.0208
 1418W        W 5162   1.039   7.859  12.261 -0.1699  0.1551  0.3063
 1419W        W 5163   9.595   3.585   9.102  0.0686  0.0352 -0.1763
 1420W        W 5164   8.751   7.645  10.768 -0.1653  0.2151  0.3475
 1421W        W 5165   5.660   8.277  12.311  0.1646 -0.0790  0.4571
 1422W        W 5166   3.571   8.812  11.065 -0.0143  0.1916 -0.0421
 1423W        W 5167   4.586   7.278   8.603 -0.0785 -0.1728  0.2212
 1424W        W 5168   7.840   8.701   4.396 -0.1673 -0.0878 -0.2550
 1425W        W 5169   6.415   4.532   2.927  0.2361 -0.2285  0.1643
 1426W        W 5170   0.022   0.927   3.479 -0.0659  0.1764 -0.2999
 1427W        W 5171   4.531   5.137   2.727 -0.3540  0.1590 -0.3939
 1428W        W 5172   0.045   8.277   2.543  0.1563 -0.0838 -0.1617
 1429W        W 5173   3.052   0.164   1.982  0.1758 -0.3458 -0.0511
 1430W        W 5174   6.601   0.889   1.905 -0.0943 -0.0843 -0.1006
 1431W        W 5175   6.785   4.365  12.527 -0.0371 -0.0751  0.1943
 1432W        W 5176   0.907   1.101  10.369  0.0928  0.1711  0.1572
 1433W        W 5177   4.247   0.138  11.338  0.0794 -0.2806 -0.1870
 1434W        W 5178   6.863   7.050   3.573 -0.2019 -0.1125  0.0074
 1435W        W 5179   2.215   1.578  11.402  0.1401  0.3559 -0.0668
 1436W        W 5180   9.856   3.588   9.919  0.0492  0.1575 -0.0383
 1437W        W 5181   3.314   5.517   1.263  0.1826  0.0994  0.2109
 1438W        W 5182   6.599   8.243   2.904 -0.1748  0.1474  0.0935
 1439W        W 5183   6.367   9.323   3.297  0.0426  0.0147 -0.1904
 1440W        W 5184   1.478   4.201  10.437 -0.0579 -0.0539  0.3712
 1441W        W 5185   8.126   0.086   0.232  0.1589 -0.0477 -0.1743
 1442W        W 5186   4.913   6.669  12.123 -0.1534  0.2085 -0.1038
 1443W        W 5187   9.108   6.834   3.744  0.0282  0.0331  0.1749
 1444W        W 5188   0.644   3.085   2.477 -0.0725  0.1012 -0.0915
 1445W        W 5189   1.708   9.193   3.522  0.1249  0.1706 -0.3701
 1446W        W 5190   3.544   5.969  12.276 -0.6303  0.0326 -0.0229
 1447W        W 5191   8.755   0.990  10.132  0.3621 -0.1135 -0.1381
 1448W        W 5192   2.019   6.421   9.595  0.2679  0.0133 -0.1823
 1449W        W 5193   7.940   9.938   9.287 -0.2545  0.1376 -0.2375
 1450W        W 5194   7.026   1.742   7.996 -0.0338  0.0007  0.2148
 1451W        W 5195   3.035   8.637   4.015 -0.1599 -0.0397  0.0540
 1452W        W 5196   9.594   9.207   0.979 -0.1362 -0.1629 -0.1510
 1453W        W 5197   0.028   1.636   2.935 -0.1198  0.1050 -0.1199
 1454W        W 5198   4.958   3.989   0.709  0.1565 -0.5126 -0.1131
 1455W        W 5199   3.317   9.323   0.221  0.2770  0.0962 -0.2593
 1456W        W 5200   6.999   5.654  12.777 -0.0605  0.3588  0.3535
 1457W        W 5201   9.359   6.459  10.131  0.3023 -0.4535 -0.0916
 1458W        W 5202   7.416   2.389   2.092  0.0662 -0.1885 -0.0429
 1459W        W 5203   1.582   8.207  11.347 -0.2088 -0.0796 -0.0232
 1460W        W 5204   4.569   2.094   2.129 -0.1547 -0.0071 -0.0543
 1461W        W 5205   6.649   0.592  11.389 -0.0683 -0.4266  0.0084
 1462W        W 5206   1.473   2.565   8.943  0.1154 -0.1227  0.0212
 1463W        W 5207   4.162   8.318   3.798  0.1474 -0.0174  0.2398
 1464W        W 5208   3.172   2.792  11.442 -0.0053 -0.2704 -0.1600
 1465W        W 5209   8.066   3.953   2.824  0.0640 -0.0874 -0.0006
 1466W        W 5210   9.234   1.009   9.305 -0.3627 -0.1961  0.2282
 1467W        W 5211   2.503   0.067   1.294  0.0170  0.0844 -0.0837
 1468W        W 5212   9.750   8.603   1.943  0.2337  0.1917 -0.0822
 1469W        W 5213   9.308   2.473  11.321 -0.3493 -0.0907  0.0845
 1470W        W 5214   0.064   2.908   8.522  0.1925 -0.1007 -0.2959
 1471W        W 5215   9.625   2.488   4.925 -0.2665 -0.1742 -0.0836
 1472W        W 5216   4.296   9.338   0.274  0.1448 -0.1831  0.1480
 1473W        W 5217   1.406   3.853   0.078  0.1703  0.0829 -0.4299
 1474W        W 5218   0.951   8.730   4.517  0.0871  0.3320  0.0062
 1475W        W 5219   5.107   5.650   1.714  0.3359  0.3459 -0.1490
 1476W        W 5220   0.558   5.794   1.375  0.1323 -0.1706 -0.0366
 1477W        W 5221   2.849   7.070   2.235 -0.1324  0.1392 -0.0132
 1478W        W 5222   9.662   7.333   1.475  0.2761 -0.2483 -0.0587
 1479W        W 5223   9.819   9.246   2.499 -0.0418  0.0412 -0.0022
 1480W        W 5224   6.837   7.028   2.403  0.1460 -0.2087 -0.0202
 1481W        W 5225   7.313   4.745   2.556 -0.2085  0.1953 -0.1012
 1482W        W 5226   4.468   4.622   9.666  0.4290 -0.1602 -0.1916
 1483W        W 5227   3.864   8.463  10.564  0.2161  0.1358 -0.2222
 1484W        W 5228   4.494   9.541  11.986  0.2200  0.0586  0.0491
 1485W        W 5229   7.882   9.794   4.129 -0.0825  0.1214 -0.1295
 1486W        W 5230   8.113   6.308   9.507  0.1418  0.0071  0.0921
 1487W        W 5231   0.521   8.221   2.174 -0.0470 -0.1448 -0.0210
 1488W        W 5232   2.831   7.069   3.191  0.0103  0.0556  0.3469
 1489W        W 5233   6.791   9.069   9.534 -0.0012 -0.0382 -0.0293
 1490W        W 5234   0.602   6.865  12.716  0.0862 -0.1328  0.2225
 1491W        W 5235   0.143   2.407  12.326 -0.1165 -0.0242 -0.1086
 1492W        W 5236   1.843   7.901   3.802  0.3904  0.1069 -0.1606
 1493W        W 5237   6.113   7.963   0.622 -0.0558 -0.1120  0.2152
 1494W        W 5238   8.845   7.932   3.092  0.0641  0.3723  0.3922
 1495W        W 5239   7.137   8.032   2.657 -0.2246 -0.0423 -0.2389
 1496W        W 5240   4.103   4.036  10.911 -0.0460 -0.3435 -0.1269
 1497W        W 5241   2.736   7.168  12.271  0.2858  0.6356  0.0743
 1498W        W 5242   7.838   3.255   4.236 -0.2463 -0.0367  0.0316
 1499W        W 5243   3.898   9.096   1.540 -0.2113 -0.0557  0.1630
 1500W        W 5244   7.934   2.056   9.733 -0.0233 -0.3622 -0.2057
 1501W        W 5245   0.650   8.631   1.332  0.0977  0.0195  0.0885
 1502W        W 5246   5.914   9.610  12.209  0.0376  0.2336 -0.2447
 1503W        W 5247   3.095   9.389   3.010 -0.2647  0.0209  0.1417
 1504W        W 5248   5.655   5.612   3.640  0.0253  0.1767 -0.1260
 1505W        W 5249   6.649   1.570   3.849  0.0942  0.0200  0.0469
 1506W        W 5250   6.099   8.057   1.950  0.1005 -0.1342  0.2519
 1507W        W 5251   1.925   5.425   0.097 -0.1083 -0.0676 -0.0045
 1508W        W 5252   7.229   5.244  10.465 -0.2648 -0.1324  0.1853
 1509W        W 5253   2.217   9.142   2.001  0.3137  0.0643  0.2888
 1510W        W 5254   8.971   4.108   8.764  0.1497  0.0947 -0.0835
 1511W        W 5255   1.056   2.428   1.299 -0.3479 -0.0266  0.0195
 1512W        W 5256   6.245   9.511  12.556 -0.0630 -0.0180 -0.0532
 1513W        W 5257   2.080   2.102  11.066  0.3004 -0.0478  0.0243
 1514W        W 5258   4.117   3.773   3.661  0.1420 -0.2793  0.0800
 1515W        W 5259   2.367   6.809   3.060  0.2792  0.0974 -0.0055
 1516W        W 5260   6.300   3.296  10.420  0.0697  0.0345 -0.0693
 1517W        W 5261   5.636   7.297   4.065 -0.0894  0.1165  0.3474
 1518W        W 5262   9.292   3.339  12.733  0.1511  0.1691  0.3280
 1519W        W 5263   6.824   5.989   3.466  0.0697 -0.0677 -0.0331
 1520W        W 5264   2.457   9.150   2.959  0.0209  0.0128 -0.2211
 1521W        W 5265   8.727   0.995   2.478 -0.0777  0.0942 -0.1459
 1522W        W 5266   9.620   6.911   3.124 -0.1131  0.0562 -0.0345
 1523W        W 5267   4.327   7.427  11.972 -0.1676 -0.0995 -0.2258
 1524W        W 5268   7.580   7.942  12.254 -0.0099 -0.0337  0.0757
 1525W        W 5269   0.840   5.518   2.208 -0.1147  0.1174  0.2436
 1526W        W 5270   9.136   0.783   4.582  0.4937 -0.0700  0.0485
 1527W        W 5271   1.922   9.364   0.066 -0.0877  0.0845 -0.0147
 1528W        W 5272   4.703   6.905   8.288  0.2623  0.0788  0.1159
 1529W        W 5273   0.595   0.416   0.009 -0.2510 -0.1366 -0.1496
 1530W        W 5274   0.619   9.661   0.635 -0.2572 -0.1254  0.1526
 1531W        W 5275   0.890   1.566   1.003  0.3022 -0.1919  0.0566
 1532W        W 5276   3.667   8.975   2.414  0.2860 -0.0073  0.0387
 1533W        W 5277   8.118   2.360  10.631  0.0214 -0.0443 -0.2723
 1534W        W 5278   3.067   2.431   0.522 -0.0122  0.0091 -0.3620
 1535W        W 5279   0.678   8.051  11.122 -0.0248  0.0628  0.0286
 1536W        W 5280   4.121   2.472   3.381  0.3594  0.0571 -0.1871
 1537W        W 5281   8.881   0.374   0.460  0.0597  0.1496 -0.0016
 1538W        W 5282   9.255   3.285  11.298  0.2005  0.3874 -0.0477
 1539W        W 5283   2.307   8.203  12.040 -0.0238 -0.1386  0.0709
 1540W        W 5284   9.517   5.495   2.086  0.2273 -0.1595  0.1791
 1541W        W 5285   3.584   7.846   3.157  0.1658 -0.1321  0.0455
 1542W        W 5286   6.244   4.001   0.949  0.1191 -0.2843  0.1720
 1543W        W 5287   2.554   3.282  12.056  0.1487  0.0937  0.0167
 1544W        W 5288   2.977   2.032  10.524  0.0505  0.2110 -0.1931
 1545W        W 5289   5.233   4.044  12.446 -0.1459 -0.0857 -0.0334
 1546W        W 5290   4.939   2.846   2.306 -0.0983 -0.2354  0.2333
 1547W        W 5291   4.491   0.492   0.203  0.0486  0.2704 -0.0744
 1548W        W 5292   0.087   0.863   0.822  0.1738 -0.1296  0.0155
 1549W        W 5293   5.125   2.606   3.249  0.3669  0.2179  0.0866
 1550W        W 5294   9.348   4.191   8.464  0.3471  0.0500 -0.4813
 1551W        W 5295   4.974   1.164   9.041 -0.2685  0.2473 -0.0266
 1552W        W 5296   0.239   7.730   3.339  0.0246 -0.2395 -0.0106
 1553W        W 5297   5.666   5.223  11.460 -0.1678  0.1584  0.0153
 1554W        W 5298   5.317   3.930   1.454  0.0364 -0.3934  0.2564
 1555W        W 5299   8.967   3.881   3.043 -0.0545  0.3052  0.1888
 1556W        W 5300   9.035   5.472   3.902 -0.0377  0.0854  0.2320
 1557W        W 5301   9.929   0.588  12.035 -0.2798  0.0953  0.2205
 1558W        W 5302   7.864   2.614   8.723 -0.1012 -0.1315  0.0963
 1559W        W 5303   8.938   5.294  11.652  0.1335  0.0841  0.0533
 1560W        W 5304   7.168   6.738  10.391 -0.0889 -0.0846  0.1647
 1561W        W 5305   8.369   2.448   0.632 -0.0961  0.2571  0.0473
 1562W        W 5306   4.895   5.971   9.188 -0.4116  0.1026  0.0264
 1563W        W 5307   3.545   4.834  12.590 -0.1599  0.1588 -0.0998
 1564W        W 5308   0.647   0.361   2.389  0.1241 -0.0787  0.3928
 1565W        W 5309   5.330   3.962   9.310 -0.0258 -0.2333 -0.2198
 1566W        W 5310   7.420   8.570   9.274  0.3113 -0.0941  0.3672
 1567W        W 5311   4.927   7.685   3.544  0.0384  0.0733 -0.1415
 1568W        W 5312   4.976   8.886   4.948  0.0090 -0.2213  0.3171
 1569W        W 5313   1.754   6.708   9.898 -0.3722 -0.1180  0.2144
 1570W        W 5314   7.755   2.738   9.821  0.0395 -0.1508  0.1616
 1571W        W 5315   8.869   2.886   3.174 -0.0970 -0.4334  0.0703
 1572W        W 5316   7.519   9.582   9.033  0.0174 -0.1128 -0.1719
 1573W        W 5317   0.213   2.389   3.734  0.0377  0.0192  0.0397
 1574W        W 5318   7.585   8.010   2.915  0.3175  0.1117 -0.3166
 1575W        W 5319   7.013   1.907   0.264  0.0187 -0.3890  0.0626
 1576W        W 5320   2.940   7.042   0.901 -0.3917 -0.0410 -0.0330
 1577W        W 5321   4.090   4.815  12.403  0.1179 -0.1977 -0.0171
 1578W        W 5322   5.118   6.006  11.477  0.2843 -0.0629 -0.1902
 1579W        W 5323   0.428   1.294   3.595  0.0822  0.0655  0.0571
 1580W        W 5324   8.143   7.255  11.954 -0.0823 -0.0367  0.0826
 1581W        W 5325   2.180   9.347   8.790 -0.0763 -0.0932  0.0289
 1582W        W 5326   1.453   3.919   2.658 -0.1365 -0.0781  0.1687
 1583W        W 5327   1.229   5.899   0.628 -0.1174 -0.0279  0.3311
 1584W        W 5328   7.724   4.199   1.816  0.1141  0.0512  0.1261
 1585W        W 5329   8.026   4.413   8.801  0.2925 -0.3186 -0.2590
 1586W        W 5330   1.729   6.673   0.272 -0.1570 -0.2714  0.1395
 1587W        W 5331   5.650   8.831   3.566  0.1471 -0.2260  0.0173
 1588W        W 5332   2.729   7.866   9.971 -0.0373  0.1474 -0.2127
 1589W        W 5333   3.947   3.766   2.655  0.0550  0.1496  0.2125
 1590W        W 5334   7.015   7.925   0.167 -0.2136 -0.0542 -0.0111
 1591W        W 5335   8.286   0.095   2.129  0.1002  0.0571  0.0927
 1592W        W 5336   4.847   4.435  11.021  0.1686 -0.3263 -0.0676
 1593W        W 5337   7.421   8.837  11.389  0.3265  0.0443 -0.0704
 1594W        W 5338   2.794   1.327   2.072  0.1567 -0.2617 -0.1894
 1595W        W 5339   7.114   2.564   3.442 -0.5804  0.2890  0.4831
 1596W        W 5340   8.861   5.167   2.937 -0.0321 -0.0259 -0.4148
 1597W        W 5341   0.581   0.973   0.701 -0.2177 -0.2014 -0.0273
 1598W        W 5342   6.288   1.737   9.759 -0.0712  0.0608  0.0308
 1599W        W 5343   8.635   5.436  10.361 -0.0749 -0.3629 -0.3099
 1600W        W 5344   8.738   0.590  12.738 -0.0667  0.0634  0.2850
 1601W        W 5345   7.203   4.327   1.493 -0.1213 -0.1149 -0.3526
 1602W        W 5346   5.801   1.442  11.871  0.3851 -0.1217  0.1709
 1603W        W 5347   8.046   9.581   8.869  0.3785 -0.1949  0.3980
 1604W        W 5348   3.556   0.717  10.904  0.0922 -0.0328 -0.1808
 1605W        W 5349   6.840   6.784   0.543  0.1424  0.0934 -0.1424
 1606W        W 5350   1.423   6.883  11.184 -0.1387 -0.2802  0.0141
 1607W        W 5351   9.130   5.695   3.483  0.2118 -0.2035  0.0603
 1608W        W 5352   5.647   1.726   2.315 -0.0346  0.0496 -0.0525
 1609W        W 5353   7.066   1.987   0.770  0.1280  0.1930  0.2613
 1610W        W 5354   3.563   6.049   4.264  0.4251 -0.2188 -0.5005
 1611W        W 5355   5.267   6.538   2.716  0.1511  0.1417  0.0679
 1612W        W 5356   0.688   9.016   2.421  0.1618 -0.0751  0.3336
 1613W        W 5357   4.171   9.883  11.826  0.0669 -0.2978  0.0641
 1614W        W 5358   0.158   5.441   0.855 -0.0700  0.1855 -0.2750
 1615W        W 5359   8.203   9.874  11.837 -0.3012 -0.0265 -0.1497
 1616W        W 5360   5.846   1.778  12.679 -0.3365 -0.1529  0.3159
 1617W        W 5361   0.300   4.653   3.773 -0.1489  0.2469  0.1684
 1618W        W 5362   0.791   5.348  11.103  0.0498  0.0586  0.0843
 1619W        W 5363   4.939   0.254   3.641  0.1897 -0.0585 -0.1480
 1620W        W 5364   2.418   5.520   0.106  0.3196 -0.0783 -0.1522
 1621W        W 5365   8.449   7.289  10.394  0.0530  0.1389  0.1037
 1622W        W 5366   9.608   0.115   9.809  0.1447  0.2791  0.1719
 1623W        W 5367   0.424   4.990   1.027 -0.1219  0.2347  0.0469
 1624W        W 5368   7.394   5.416  11.013 -0.0753 -0.2196 -0.0202
 1625W        W 5369   5.283   1.034  10.378  0.0715 -0.1574  0.0191
 1626W        W 5370   5.240   9.001  11.512 -0.3041  0.1048  0.0703
 1627W        W 5371   0.889   9.159   1.495 -0.0027 -0.4918 -0.2535
 1628W        W 5372   2.473   7.466   9.924 -0.0366  0.3946  0.0158
 1629W        W 5373   4.443   9.569   3.208  0.2879  0.1890 -0.1008
 1630W        W 5374   6.426   5.558   1.711  0.0163  0.1540  0.1491
 1631W        W 5375   0.955   0.337   3.981 -0.0279 -0.0863  0.3309
 1632W        W 5376   8.407   7.878  12.471  0.0588  0.0155 -0.0110
 1633W        W 5377   0.201   2.918   1.868 -0.0832  0.1293 -0.0109
 1634W        W 5378   0.465   3.002  11.326  0.2603  0.3501 -0.1033
 1635W        W 5379   7.841   6.798  10.970 -0.0229 -0.1877 -0.1281
 1636W        W 5380   6.254   5.268  10.922  0.1797  0.0790  0.2892
 1637W        W 5381   5.741   1.259  10.569 -0.0946  0.1800  0.3794
 1638W        W 5382   7.319   8.874  12.655  0.0067  0.0073  0.1372
 1639W        W 5383   1.719   4.964   0.152  0.1069 -0.0049 -0.0205
 1640W        W 5384   1.492   7.074   3.591 -0.1893 -0.0594  0.0001
 1641W        W 5385   8.416   2.883   3.502 -0.2737 -0.0785 -0.0362
 1642W        W 5386   6.988   3.065  12.800 -0.1018 -0.3606  0.1792
 1643W        W 5387   1.648   6.511  11.821 -0.3625  0.1794 -0.0065
 1644W        W 5388   7.311   0.543  12.662  0.0392 -0.0011  0.1030
 1645W        W 5389   7.632   4.747  12.658  0.0514 -0.1265 -0.4241
 1646W        W 5390   2.373   0.954  12.177  0.1899  0.3870  0.0346
 1647W        W 5391   6.071   8.490   9.093  0.3130 -0.1090 -0.1657
 1648W        W 5392   8.709   9.282   4.265  0.1536  0.0511  0.2155
 1649W        W 5393   2.007   6.413  12.725  0.4106 -0.1319 -0.0968
 1650W        W 5394   1.362   8.857   4.301 -0.0880  0.1569 -0.2492
 1651W        W 5395   3.969   3.087   1.102  0.1721  0.1373 -0.5496
 1652W        W 5396   6.517   9.158   4.260 -0.1833 -0.1330  0.2275
 1653W        W 5397   6.478   8.301  11.144  0.0290  0.1800  0.0271
 1654W        W 5398   6.837   0.102   3.473 -0.2721 -0.1645  0.0215
 1655W        W 5399   9.786   8.724   1.144  0.0307 -0.0600  0.1974
 1656W        W 5400   2.821   1.685   1.697 -0.1798 -0.1972  0.2440
 1657W        W 5401   0.492   7.101  10.122  0.4797  0.1808  0.2678
 1658W        W 5402   4.363   1.234   9.849  0.3126  0.0169 -0.0592
 1659W        W 5403   9.559   4.248   4.223 -0.1704 -0.1405 -0.4213
 1660W        W 5404   1.627   1.299   0.135  0.3059 -0.0998  0.0777
 1661W        W 5405   6.043   4.758  12.295  0.0904  0.1495 -0.2474
 1662W        W 5406   3.593   9.489  12.657 -0.2789 -0.2330 -0.0313
 1663W        W 5407   9.855   1.529   9.692 -0.2986 -0.2698  0.2274
 1664W        W 5408   7.417   6.380   0.985 -0.0612  0.0685  0.1046
 1665W        W 5409   8.402   8.796   3.525 -0.2092 -0.0635  0.4139
 1666W        W 5410   0.355   3.382  10.499  0.3088 -0.0239  0.0608
 1667W        W 5411   6.727   4.969   2.393 -0.1515  0.1341  0.0919
 1668W        W 5412   3.207   9.563  11.999 -0.0518  0.1715 -0.0460
 1669W        W 5413   4.145   2.489  11.289  0.0179 -0.2599 -0.1441
 1670W        W 5414   8.118   4.926   4.455 -0.2203 -0.2515  0.1926
 1671W        W 5415   7.049   3.524   9.712  0.0338  0.0659 -0.0270
 1672W        W 5416   6.805   0.324   1.245 -0.0242 -0.1317 -0.1157
 1673W        W 5417   7.622   6.765   0.125  0.0899 -0.2524  0.4468
 1674W        W 5418   3.116   3.766   2.179  0.1253 -0.1395 -0.0490
 1675W        W 5419   1.970   7.268   3.752  0.0747 -0.1584  0.2042
 1676W        W 5420   8.444   3.495  11.712  0.4082  0.3652 -0.0366
 1677W        W 5421   5.378   3.259   3.168 -0.1592 -0.1855  0.1434
 1678W        W 5422   5.405   8.067   1.278 -0.2036 -0.0529  0.3813
 1679W        W 5423   8.654   2.085  12.170  0.0018  0.0077 -0.0545
 1680W        W 5424   5.215   2.156  10.751 -0.1867 -0.3440 -0.0917
 1681W        W 5425   7.647   1.779   3.217 -0.1995  0.2037 -0.1697
 1682W        W 5426   2.735   8.075   9.518  0.2694 -0.2668  0.1110
 1683W        W 5427   0.936   4.285  11.383  0.0038  0.4587 -0.0505
 1684W        W 5428   3.020   2.535   9.477 -0.1824 -0.0614 -0.2721
 1685W        W 5429   6.418   7.718   1.821 -0.2654  0.2646  0.1033
 1686W        W 5430   3.942   6.429   2.022  0.2019 -0.0225  0.1077
 1687W        W 5431   6.251   9.172   9.483 -0.0725  0.0431 -0.2617
 1688W        W 5432   5.661   6.924   2.940  0.1409  0.0982 -0.0112
 1689W        W 5433   1.465   2.533  10.374  0.0648  0.0454  0.2414
 1690W        W 5434   3.758   0.001  12.686 -0.0475 -0.0113 -0.2456
 1691W        W 5435   0.016   7.834   3.788 -0.2352  0.1113 -0.0253
 1692W        W 5436   9.438   0.533   9.563  0.0611 -0.2263 -0.0444
 1693W        W 5437   0.492   6.464   4.402  0.0648 -0.0374 -0.0003
 1694W        W 5438   5.913   3.861   3.802  0.2978 -0.3680  0.0880
 1695W        W 5439   7.501   3.645  12.591  0.2889 -0.0105 -0.0378
 1696W        W 5440   3.445   6.550  11.475  0.0619 -0.0681  0.2118
 1697W        W 5441   2.650   6.849  12.642 -0.1356  0.1020 -0.4020
 1698W        W 5442   7.046   9.363   9.211  0.0033  0.0366  0.2534
 1699W        W 5443   2.713   1.218  10.284 -0.0027 -0.1023  0.0818
 1700W        W 5444   9.198   3.947   3.911 -0.2698  0.3096  0.0921
 1701W        W 5445   7.810   6.026   1.219 -0.1200  0.4472  0.1808
 1702W        W 5446   2.337   3.712   1.623 -0.1727 -0.0399  0.0745
 1703W        W 5447   2.125   8.884  12.787 -0.0979 -0.1601 -0.1420
 1704W        W 5448   6.695   3.663   4.360 -0.2005 -0.1981 -0.5117
 1705W        W 5449   8.448   7.329   0.611 -0.1464 -0.0725 -0.0022
 1706W        W 5450   4.039   6.847   9.301 -0.2582  0.4844 -0.2370
 1707W        W 5451   2.489   0.348  11.424  0.0488 -0.1666 -0.0248
 1708W        W 5452   2.093   6.128   4.095  0.1935  0.0343  0.0894
 1709W        W 5453   5.833   7.855   1.062 -0.2387  0.1356  0.0859
 1710W        W 5454   6.746   6.972  12.398 -0.1789 -0.1662 -0.1468
 1711W        W 5455   7.606   8.870   8.359 -0.2474  0.2245  0.1477
 1712W        W 5456   6.500   4.027  11.679 -0.1281 -0.0588  0.1157
 1713W        W 5457   6.157   6.042   1.765  0.4989  0.0246  0.1338
 1714W        W 5458   0.789   3.518   2.271 -0.1264  0.1423 -0.2228
 1715W        W 5459   5.852   5.434   0.946  0.1681 -0.0799  0.2433
 1716W        W 5460   2.124   2.268   2.111 -0.0449 -0.0139 -0.0369
 1717W        W 5461   9.711   4.083   3.813  0.1052  0.1254  0.2856
 1718W        W 5462   0.081   7.386   4.427  0.0696 -0.1143 -0.3706
 1719W        W 5463   4.580   1.263   2.687 -0.3279  0.1009  0.0756
 1720W        W 5464   8.894   0.740  11.600 -0.0999  0.1644  0.1884
 1721W        W 5465   8.698   6.817   9.673  0.3165 -0.1888  0.0142
 1722W        W 5466   2.948   2.326  10.108  0.0122 -0.1173  0.2200
 1723W        W 5467   9.371   9.710   0.068 -0.0435  0.0333  0.0820
 1724W        W 5468   8.159   1.734   4.404 -0.2225 -0.1832 -0.1334
 1725W        W 5469   9.436   4.417  11.107 -0.1460  0.1273 -0.0034
 1726W        W 5470   7.153   6.246  11.464  0.3770  0.3457 -0.3410
 1727W        W 5471   7.773   6.985   2.666 -0.0165  0.0594 -0.0748
 1728W        W 5472   0.456   4.716  11.103  0.0614  0.0108  0.2274
 1729W        W 5473   8.063   4.099   3.801 -0.1031  0.0527  0.3029
 1730W        W 5474   6.776   4.219   3.303  0.0396  0.1708  0.0596
 1731W        W 5475   7.844   7.333   1.356  0.0750 -0.1206  0.1480
 1732W        W 5476   9.917   8.982  10.261 -0.0852  0.0432  0.0526
 1733W        W 5477   4.542   5.758   0.962 -0.2383  0.2027  0.2556
 1734W        W 5478   3.263   2.050   9.682  0.1449  0.2227 -0.0041
 1735W        W 5479   5.823   3.804  12.299 -0.2057 -0.0301  0.1493
 1736W        W 5480   6.502   6.198   0.719 -0.0410  0.0839  0.0631
 1737W        W 5481   4.961   4.649   0.105  0.5053 -0.2570 -0.3936
 1738W        W 5482   2.023   5.874   9.709  0.1314 -0.0887 -0.1244
 1739W        W 5483   5.629   2.179   1.115 -0.0267 -0.0976  0.0582
 1740W        W 5484   0.907   6.951   2.561 -0.1356 -0.2127  0.0098
 1741W        W 5485   7.368   9.318   4.561 -0.2355  0.2006  0.1333
 1742W        W 5486   4.931   8.735   3.297  0.0704 -0.0322  0.0156
 1743W        W 5487   3.833   9.651   1.127 -0.0732  0.0787 -0.0199
 1744W        W 5488   9.081   9.900   0.508  0.3865 -0.1039  0.0163
 1745W        W 5489   4.332   2.720  10.292  0.2836  0.2517  0.1892
 1746W        W 5490   8.314   7.145   1.493  0.0703  0.3202 -0.1098
 1747W        W 5491   8.965   9.683   8.807  0.0679  0.1043 -0.0007
 1748W        W 5492   2.254   9.565   0.657 -0.2982  0.0987 -0.0399
 1749W        W 5493   3.082   2.511   3.626 -0.1729 -0.0735 -0.0319
 1750W        W 5494   4.764   8.766   3.872 -0.2195 -0.0029  0.2332
 1751W        W 5495   5.084   5.738  12.121 -0.0726  0.3987 -0.0926
 1752W        W 5496   9.805   6.824   8.833 -0.2381  0.0764 -0.4113
 1753W        W 5497   9.890   6.664   3.521 -0.2036  0.1204 -0.1840
 1754W        W 5498   4.780   7.157   3.403 -0.0522  0.0096 -0.4474
 1755W        W 5499   1.623   4.099   3.554  0.2004 -0.1327 -0.0757
 1756W        W 5500   0.494   7.105   3.607 -0.1225  0.1840  0.1165
 1757W        W 5501   9.605   3.784   8.286  0.0655 -0.0578 -0.2792
 1758W        W 5502   0.469   4.915   8.982  0.2369 -0.0547 -0.0831
 1759W        W 5503   9.165   4.659  10.762  0.0033 -0.0408 -0.1201
 1760W        W 5504   3.649   2.708   2.229 -0.1449  0.1711  0.4867
 1761W        W 5505   2.879   3.933  11.891  0.2019 -0.2019  0.1149
 1762W        W 5506   7.950   0.496  10.057  0.0817 -0.0667  0.0208
 1763W        W 5507   8.332   7.423   3.803  0.1607  0.2268 -0.0133
 1764W        W 5508   3.351   8.363  11.137 -0.1911  0.1270  0.2482
 1765W        W 5509   0.234   6.700   3.989  0.1233  0.0912 -0.0147
 1766W        W 5510   8.439   8.926  11.596  0.0000 -0.1145 -0.0955
 1767W        W 5511   0.071   4.731   9.189 -0.0344  0.1230  0.1694
 1768W        W 5512   7.302   9.616   1.909  0.0604 -0.1382  0.1369
 1769W        W 5513   9.414   1.500   1.023  0.1603 -0.1239  0.1244
 1770W        W 5514   6.254   1.750  11.151  0.4044  0.0063  0.1465
 1771W        W 5515   4.972   8.843   2.819  0.0713  0.1016 -0.1492
 1772W        W 5516   0.826   5.100   2.620 -0.0510 -0.3135  0.1018
 1773W        W 5517   8.048   7.617   0.951 -0.0311 -0.5333  0.0811
 1774W        W 5518   0.291   1.672   2.466  0.1606 -0.0058  0.2650
 1775W        W 5519   2.741   2.467  11.591  0.0575 -0.1374 -0.2267
 1776W        W 5520   3.228   3.031   3.832 -0.3508 -0.2074  0.1714
 1777W        W 5521   6.339   8.530   2.491  0.0428  0.0353 -0.2817
 1778W        W 5522   0.441   0.044  11.059  0.0864 -0.1984 -0.3180
 1779W        W 5523   7.177   5.405   0.813  0.1974 -0.2358 -0.0547
 1780W        W 5524   3.906   2.389   2.577 -0.0407  0.0058  0.0566
 1781W        W 5525   3.592   1.578  12.204 -0.0232 -0.1477 -0.0084
 1782W        W 5526   8.084   6.916  12.717 -0.2192  0.1468  0.2112
 1783W        W 5527   0.827   1.991   9.675  0.0302  0.0740 -0.2275
 1784W        W 5528   8.465   2.548  10.977 -0.2352 -0.0970 -0.0640
 1785W        W 5529   2.927   2.700  12.545 -0.3580 -0.2958  0.0680
 1786W        W 5530   8.455   4.096  11.918 -0.2187  0.0183 -0.0609
 1787W        W 5531   1.304   8.860  10.559 -0.1693 -0.0526 -0.1864
 1788W        W 5532   9.378   4.515  12.085 -0.0405  0.0876 -0.0909
 1789W        W 5533   2.624   3.422   2.951  0.4461  0.3455  0.3246
 1790W        W 5534   5.423   0.025  10.012 -0.3934 -0.0317 -0.0878
 1791W        W 5535   6.650   8.173   1.905 -0.1020  0.0460  0.0709
 1792W        W 5536   4.008   9.530   2.336  0.1472  0.2200  0.2489
 1793W        W 5537   3.043   3.346  12.732  0.0921  0.0736 -0.1186
 1794W        W 5538   2.630   9.942   9.319 -0.0353 -0.3028  0.1474
 1795W        W 5539   5.864   1.472   9.530 -0.2567 -0.1232  0.2973
 1796W        W 5540   9.433   0.098   4.267  0.5036  0.1063  0.0178
 1797W        W 5541   8.519   6.938  12.375  0.0873 -0.1109  0.0433
 1798W        W 5542   1.869   1.990   1.085  0.1719  0.4135  0.1907
 1799W        W 5543   1.072   6.902   4.209  0.0048  0.3189 -0.0017
 1800W        W 5544   0.237   8.462   1.170  0.0761  0.2173 -0.3887
 1801W        W 5545   9.572   7.994   2.468 -0.0000 -0.4307  0.1936
 1802W        W 5546   6.675   5.599   3.896  0.1500  0.1500  0.1916
 1803W        W 5547   7.488   0.913   2.808  0.3868  0.1415 -0.1380
 1804W        W 5548   9.071   0.252   2.218 -0.2413 -0.0717 -0.0194
 1805W        W 5549   2.369   3.843   0.628 -0.1590  0.3833 -0.0368
 1806W        W 5550   8.633   9.312  11.289 -0.1996  0.2358  0.1584
 1807W        W 5551   9.580   6.763  12.475 -0.2992 -0.1667  0.1196
 1808W        W 5552   8.374   6.794  11.785 -0.1165  0.0754  0.0253
 1809W        W 5553   3.080   7.820   2.051 -0.0027  0.0069  0.0728
 1810W        W 5554   2.888   8.555   1.154  0.3697 -0.0512  0.0811
 1811W        W 5555   4.379   1.217  10.447 -0.1877 -0.0165  0.1240
 1812W        W 5556   5.445   8.432   4.750 -0.2246  0.0851 -0.2364
 1813W        W 5557   5.214   8.159   0.819 -0.0161 -0.4092 -0.1602
 1814W        W 5558   8.796   3.460  12.431  0.1935  0.0280 -0.2674
 1815W        W 5559   7.946   5.996   9.862  0.1859 -0.0042 -0.0412
 1816W        W 5560   9.706   6.356   2.397  0.1118 -0.2067  0.0039
 1817W        W 5561   8.676   4.432   7.943  0.2768 -0.2874 -0.1989
 1818W        W 5562   1.710   6.513   3.234 -0.1953  0.1303  0.0693
 1819W        W 5563   7.028   7.734  12.519  0.2650 -0.0045 -0.1926
 1820W        W 5564   8.283   5.996   1.860  0.2430  0.1023 -0.1385
 1821W        W 5565   9.508   7.835   1.435  0.2504 -0.1978 -0.2748
 1822W        W 5566   7.365   0.789   2.378  0.2486 -0.1132 -0.3236
 1823W        W 5567   6.560   3.400   1.606 -0.2521 -0.0415  0.0205
 1824W        W 5568   5.034   9.878   9.602 -0.1598  0.1072 -0.4828
 1825W        W 5569   7.335   2.830   0.266 -0.0318 -0.0138 -0.5614
 1826W        W 5570   4.033   1.850   0.604 -0.1017  0.1961 -0.1844
 1827W        W 5571   9.328   6.405   0.891 -0.0631  0.0721 -0.1776
 1828W        W 5572   0.705   5.876  11.144 -0.0601 -0.0722  0.0054
 1829W        W 5573   4.606   1.126   1.682  0.0331  0.1880  0.1518
 1830W        W 5574   5.612   9.171   4.014  0.0323 -0.3706  0.0461
 1831W        W 5575   6.251   8.708  11.941 -0.1117  0.0512  0.1343
 1832W        W 5576   7.118   6.214   1.398 -0.1337  0.0979 -0.3031
 1833W        W 5577   1.169   1.331   1.347 -0.1813  0.0672 -0.1152
 1834W        W 5578   9.570   4.212  10.300  0.2464  0.0145  0.3321
 1835W        W 5579   4.487   8.259  10.351 -0.1748 -0.1566 -0.0379
 1836W        W 5580   1.181   0.227   2.118 -0.0178  0.1655  0.0036
 1837W        W 5581   0.167   6.147   9.935 -0.1641  0.5631  0.0129
 1838W        W 5582   7.502   7.261   3.158 -0.0325  0.3470  0.2086
 1839W        W 5583   9.008   8.999  11.783  0.1916  0.2144  0.0991
 1840W        W 5584   2.896   8.303   8.561  0.1602 -0.3129 -0.0459
 1841W        W 5585   8.627   2.052   4.539  0.1152 -0.0648  0.1381
 1842W        W 5586   3.906   8.556   2.518  0.1246  0.0718 -0.2910
 1843W        W 5587   3.105   4.430  12.030 -0.1761 -0.1115 -0.0409
 1844W        W 5588   2.163   9.917  11.798  0.2311  0.1951 -0.1293
 1845W        W 5589   4.469   9.470  12.536 -0.0001  0.1476  0.3284
 1846W        W 5590   5.440   5.539   9.850  0.0357  0.2134 -0.1206
 1847W        W 5591   9.011   8.698   2.684  0.2086 -0.0788 -0.1625
 1848W        W 5592   4.619   5.911   2.700 -0.0143 -0.1115 -0.4370
 1849W        W 5593   3.261   8.624   0.161 -0.1232 -0.1550 -0.0973
 1850W        W 5594   5.448   8.745  12.419 -0.2773 -0.1047  0.3088
 1851W        W 5595   8.575   4.173   1.069  0.1500 -0.1183 -0.1647
 1852W        W 5596   4.420   4.208   3.871  0.0233  0.1434  0.2294
 1853W        W 5597   2.603   7.903   8.599 -0.1744 -0.0883  0.0457
 1854W        W 5598   5.222   7.595   2.847  0.0592  0.2784 -0.2674
 1855W        W 5599   4.545   8.094   9.166  0.0035 -0.1696  0.3325
 1856W        W 5600   2.773   0.911   9.574 -0.1196 -0.4216  0.0344
 1857W        W 5601   9.374   7.285   9.029  0.0851 -0.0441 -0.0216
 1858W        W 5602   2.798   4.461   1.192 -0.0035 -0.0667  0.0445
 1859W        W 5603   1.793   7.511  11.757 -0.0688  0.0378  0.1080
 1860W        W 5604   0.549   8.170  10.159  0.0416 -0.0646  0.4694
 1861W        W 5605   5.159   9.587   0.736 -0.2546 -0.1873  0.1501
 1862W        W 5606   0.702   6.256   2.635 -0.2928  0.3733  0.0827
 1863W        W 5607   1.330   2.566   2.156 -0.3919 -0.0933 -0.0525
 1864W        W 5608   8.738   6.047   1.671  0.0759  0.2520  0.2455
 1865W        W 5609   9.726   6.480   9.716 -0.3815  0.0112  0.0678
 1866W        W 5610   6.630   6.522   2.155 -0.2682 -0.1923  0.0183
 1867W        W 5611   5.185   5.781   3.632 -0.2508 -0.0981  0.1546
 1868W        W 5612   1.051   2.104   0.205  0.0581  0.1914 -0.0897
 1869W        W 5613   3.654   9.482   2.785  0.2531  0.2496 -0.1483
 1870W        W 5614   9.875   8.984   4.728 -0.1362  0.0088  0.1174
 1871W        W 5615   9.121   0.026   5.371 -0.2978  0.3959  0.0021
 1872W        W 5616   8.829   0.056  10.395  0.0629 -0.0209 -0.1202
 1873W        W 5617   7.692   8.926   4.829 -0.2556  0.2166  0.1449
 1874W        W 5618   1.392   7.441  10.480  0.1030 -0.1376  0.3012
 1875W        W 5619   8.259   2.973  11.046  0.1602  0.0773 -0.2138
 1876W        W 5620   6.642   1.135  10.528  0.1561  0.0460  0.0249
 1877W        W 5621   1.624   4.366  11.764 -0.0595  0.2852  0.5367
 1878W        W 5622   3.406   7.056   3.486  0.3514 -0.1313  0.0727
 1879W        W 5623   7.774   8.317  11.887  0.2004  0.0958  0.0959
 1880W        W 5624   8.564   1.434   9.988 -0.3134  0.0388 -0.3729
 1881W        W 5625   5.542   1.132   3.542 -0.0178 -0.1210 -0.3172
 1882W        W 5626   9.864   8.118  10.368  0.1713  0.1056  0.1379
 1883W        W 5627   6.812   6.483  12.490  0.0461 -0.1092  0.0158
 1884W        W 5628   7.428   3.706  11.223  0.0170  0.1103  0.1325
 1885W        W 5629   1.521   3.332  10.694  0.3294  0.1400  0.4102
 1886W        W 5630   1.235   3.457   2.571 -0.2190 -0.0266 -0.2464
 1887W        W 5631   3.189   4.084   0.465 -0.0910 -0.0295 -0.2381
 1888W        W 5632   1.754   7.756   2.909 -0.2202  0.0674 -0.0907
 1889W        W 5633   8.694   1.747  10.383 -0.1820 -0.0003 -0.1071
 1890W        W 5634   0.495   8.872  10.419 -0.1490  0.1653 -0.0907
 1891W        W 5635   3.080   5.445   3.436 -0.0299  0.4012  0.1016
 1892W        W 5636   8.277   7.640  10.648  0.1163  0.0560 -0.0431
 1893W        W 5637   7.590   8.338   3.569 -0.0017  0.2446 -0.0233
 1894W        W 5638   2.865   8.266  11.184  0.3891  0.3441  0.1150
 1895W        W 5639   4.807   0.901  12.573  0.1608  0.0877  0.0791
 1896W        W 5640   0.899   0.682  12.267  0.0547 -0.1985 -0.0156
 1897W        W 5641   9.297   9.874   1.850  0.0082 -0.0753 -0.2758
 1898W        W 5642   2.706   1.029   4.013 -0.2190  0.0158  0.2188
 1899W        W 5643   4.389   7.697   9.406  0.2669  0.0555 -0.2554
 1900W        W 5644   2.921   6.158   2.780 -0.0848  0.0510 -0.0335
 1901W        W 5645   6.221   1.116  11.882  0.2209  0.0897 -0.1176
 1902W        W 5646   5.721   6.922  12.733 -0.1738  0.1060  0.0773
 1903W        W 5647   6.804   0.050  11.983  0.1957  0.0636  0.1615
 1904W        W 5648   1.871   0.974   2.926 -0.0580  0.0416 -0.1383
 1905W        W 5649   4.758   0.826   2.503 -0.2666  0.1897  0.0720
 1906W        W 5650   7.574   7.816   3.353 -0.1388 -0.3375 -0.0200
 1907W        W 5651   3.061   3.925  12.800  0.0081 -0.1778  0.2291
 1908W        W 5652   7.973   6.563   9.985  0.1149  0.1572 -0.2227
 1909W        W 5653   7.227   8.237   3.203 -0.2227 -0.1011  0.1005
 1910W        W 5654   4.873   2.170   3.212 -0.0483 -0.2379  0.0038
 1911W        W 5655   7.137   3.340  12.223  0.1698 -0.3494 -0.0330
 1912W        W 5656   6.686   0.350   1.746  0.1124  0.2029  0.1378
 1913W        W 5657   4.946   1.197   3.557 -0.0536  0.2041  0.1443
 1914W        W 5658   7.147   2.375   8.640  0.3455  0.1536 -0.0602
 1915W        W 5659   9.896   5.081   1.154  0.2326 -0.0211 -0.1190
 1916W        W 5660   8.833   1.591   3.574 -0.0319 -0.0018  0.1250
 1917W        W 5661   3.292   3.612   0.274 -0.0880 -0.2704  0.1014
 1918W        W 5662   1.492   7.541   8.970 -0.2154  0.1602 -0.1261
 1919W        W 5663   2.278   7.689   4.012 -0.2233 -0.2896 -0.0956
 1920W        W 5664   3.918   7.446   2.954  0.1466  0.0886 -0.2925
 1921W        W 5665   7.571   8.187   2.417 -0.1054 -0.2117  0.2303
 1922W        W 5666   1.684   1.223   3.890 -0.0405  0.3779 -0.1076
 1923W        W 5667   0.948   1.870   3.809  0.0982  0.0815  0.0963
 1924W        W 5668   7.674   5.620   9.713  0.1633  0.1451 -0.0114
 1925W        W 5669   6.610   2.732   9.830  0.0351 -0.0561 -0.0921
 1926W        W 5670   6.824   3.005  11.251  0.1447 -0.3152  0.0274
 1927W        W 5671   8.168   4.947   9.268 -0.0526  0.1338  0.2834
 1928W        W 5672   0.762   7.246  12.326 -0.1182  0.1548 -0.1680
 1929W        W 5673   2.680   0.789  10.011  0.0064  0.0812 -0.1765
 1930W        W 5674   0.384   7.386   8.693 -0.0071  0.0677  0.0669
 1931W        W 5675   3.049   8.978   3.711  0.0795 -0.3881  0.2322
 1932W        W 5676   6.010   0.189  12.560 -0.0938 -0.0442  0.1201
 1933W        W 5677   5.333   9.861   9.201 -0.2099  0.1953  0.2798
 1934W        W 5678   4.047   9.048   2.719  0.2881 -0.0878  0.0556
 1935W        W 5679   7.934   7.484  10.177 -0.1073 -0.1442  0.0645
 1936W        W 5680   7.133   0.413  11.031  0.0674 -0.2286 -0.1135
 1937W        W 5681   9.820   2.301  11.834  0.1824  0.0365 -0.1273
 1938W        W 5682   3.121   6.658  12.819 -0.2002 -0.1082  0.0450
 1939W        W 5683   5.299   2.372   2.758  0.0480 -0.0477 -0.0036
 1940W        W 5684   3.309   6.915  11.207  0.1411 -0.0930  0.0870
 1941W        W 5685   1.782   6.466   3.856 -0.0978 -0.0719  0.2139
 1942W        W 5686   4.949   5.056   9.062 -0.0305 -0.0076  0.3299
 1943W        W 5687   3.623   0.939   2.601 -0.0857  0.1175 -0.0227
 1944W        W 5688   7.345   5.298  12.652  0.0298  0.0634  0.2523
 1945W        W 5689   8.275   3.606   4.105 -0.0288 -0.2120 -0.0927
 1946W        W 5690   2.414   9.266  11.542  0.2409  0.0545  0.2220
 1947W        W 5691   4.420   4.340   1.402  0.2858 -0.1099  0.1982
 1948W        W 5692   1.131   4.213   3.607 -0.2084 -0.1149 -0.0052
 1949W        W 5693   8.135   7.850   1.952 -0.2186  0.1669 -0.1654
 1950W        W 5694   2.578   2.353  11.085 -0.0983  0.0357  0.0645
 1951W        W 5695   6.194   9.762  10.283 -0.2308  0.0960 -0.2200
 1952W        W 5696   8.511   7.113   8.052  0.0348 -0.0018 -0.1404
 1953W        W 5697   2.817   8.221   0.590 -0.1217 -0.1242  0.0568
 1954W        W 5698   7.396   9.146   0.953  0.2187  0.1387 -0.1160
 1955W        W 5699   3.082   3.415   3.067 -0.1083 -0.4440 -0.1875
 1956W        W 5700   8.645   5.157   1.623 -0.0911  0.2302  0.0661
 1957W        W 5701   6.620   6.124   1.706 -0.0873  0.1002  0.0646
 1958W        W 5702   2.504   5.957   0.393  0.2675  0.1468  0.3818
 1959W        W 5703   6.404   1.836  12.629  0.0666 -0.2584 -0.0783
 1960W        W 5704   1.001   6.823   0.944 -0.1969 -0.1443 -0.3383
 1961W        W 5705   6.953   7.058  11.293  0.0232  0.1892 -0.0202
 1962W        W 5706   3.661   9.777   0.322  0.0775 -0.0314  0.1122
 1963W        W 5707   2.665   2.194  12.800 -0.2540 -0.4604  0.2735
 1964W        W 5708   6.934   0.361   8.795 -0.0164  0.0467 -0.0972
 1965W        W 5709   5.022   6.568   2.026  0.1287  0.2031  0.0476
 1966W        W 5710   1.158   5.389   2.943 -0.2431  0.1001 -0.3539
 1967W        W 5711   2.970   5.489   1.694 -0.2213  0.0578  0.2855
 1968W        W 5712   5.916   0.056   2.148  0.0398 -0.1477 -0.0383
 1969W        W 5713   5.825   9.444   2.176  0.1180  0.0527 -0.0812
 1970W        W 5714   8.217   9.048   9.582 -0.1961 -0.2875 -0.3284
 1971W        W 5715   0.137   3.058  10.187  0.0594  0.1196 -0.2250
 1972W        W 5716   1.949   7.159   1.527 -0.5130 -0.0141 -0.0375
 1973W        W 5717   4.371   6.884   3.523  0.0299 -0.0247 -0.1837
 1974W        W 5718   9.118   3.399  10.035  0.2365 -0.0512 -0.1800
 1975W        W 5719   6.746   8.025  11.882  0.1512 -0.2968  0.2793
 1976W        W 5720   9.510   2.037   2.004  0.0674 -0.1496  0.2753
 1977W        W 5721   4.092   4.844   2.772 -0.0406  0.0096  0.1359
 1978W        W 5722   5.442   2.616   1.474  0.1257  0.0312 -0.2133
 1979W        W 5723   2.915   6.252  12.606 -0.3236 -0.2846  0.4694
 1980W        W 5724   0.067   5.417  10.684 -0.0270 -0.1531  0.3747
 1981W        W 5725   3.502   8.543   4.972 -0.3445  0.0822 -0.2929
 1982W        W 5726   1.621   8.479   1.647  0.1595  0.1598 -0.0502
 1983W        W 5727   0.823   2.524   2.049 -0.0948  0.0281  0.2145
 1984W        W 5728   5.847   9.172   2.633  0.1335  0.3498  0.1260
 1985W        W 5729   9.152   4.699   9.369 -0.1008 -0.0258 -0.1032
 1986W        W 5730   5.606   7.721  10.992 -0.2605  0.0483 -0.2577
 1987W        W 5731   1.488   5.081  11.448 -0.1590  0.0759 -0.0683
 1988W        W 5732   6.585   0.753  10.235 -0.1057 -0.4127  0.1179
 1989W        W 5733   0.886   1.275   4.504  0.1789  0.0341  0.1204
 1990W        W 5734   2.923   3.431   2.525 -0.0677 -0.0086  0.0425
 1991W        W 5735   6.212   9.451   9.044  0.2505  0.3288 -0.0517
 1992W        W 5736   6.621   7.405   1.351  0.3124 -0.1745 -0.0066
 1993W        W 5737   3.834   3.240   2.528 -0.0124 -0.1942 -0.0191
 1994W        W 5738   3.410   6.626   2.243 -0.2004 -0.3192 -0.3899
 1995W        W 5739   8.584   2.605   9.733  0.3195  0.3062 -0.0548
 1996W        W 5740   5.522   4.811  12.176  0.0120  0.1259 -0.1535
 1997W        W 5741   5.214   6.314  11.888  0.1120  0.0045 -0.0434
 1998W        W 5742   5.211   8.437   1.646 -0.2702 -0.0240  0.0350
 1999W        W 5743   7.275   5.812  10.664  0.1134 -0.3450  0.1274
 2000W        W 5744   0.515   8.335  10.643  0.1065  0.0469 -0.1006
 2001W        W 5745   8.210   6.520   2.063  0.0321 -0.0834  0.0621
 2002W        W 5746   1.618   0.824   0.158 -0.2485 -0.0010  0.2618
 2003W        W 5747   7.467   0.996  10.430 -0.4035  0.1538  0.0740
 2004W        W 5748   7.352   9.705   0.463  0.2568  0.0163 -0.4777
 2005W        W 5749   6.355   6.591   0.425 -0.2359 -0.1962  0.3636
 2006W        W 5750   2.195   4.311   2.072  0.1012 -0.2252 -0.1131
 2007W        W 5751   4.343   8.011   0.714  0.0177 -0.2008 -0.0196
 2008W        W 5752   4.827   6.518  11.652 -0.0860 -0.2121  0.1591
 2009W        W 5753   9.738   2.505   0.074 -0.0760 -0.0211 -0.0409
 2010W        W 5754   7.075   1.136  10.216 -0.1566 -0.0722  0.2792
 2011W        W 5755   2.859   4.358   2.511  0.2557  0.1363 -0.0446
 2012W        W 5756   2.341   2.557   1.636  0.0490 -0.0230 -0.0404
 2013W        W 5757   5.950   3.208   3.345 -0.1078 -0.2863 -0.2161
 2014W        W 5758   6.576   4.809  12.682  0.2746 -0.0351 -0.2534
 2015W        W 5759   1.243   5.165   4.471 -0.1035 -0.3062  0.1168
 2016W        W 5760   0.651   3.298   0.000  0.1258 -0.0497 -0.4419
 2017W        W 5761   6.315   0.362  10.291  0.2206  0.2113 -0.1704
 2018W        W 5762   7.853   1.299   3.066  0.1921 -0.2105 -0.1587
 2019W        W 5763   2.993   5.214   2.681  0.1260  0.1143  0.0024
 2020W        W 5764   2.249   7.320   9.418  0.1668 -0.2997 -0.1915
 2021W        W 5765   2.779   5.363  12.603 -0.1229  0.0942  0.2665
 2022W        W 5766   2.511   0.349   9.970  0.2248  0.1071  0.0801
 2023W        W 5767   6.023   9.516   3.030  0.3234 -0.3581 -0.2780
 2024W        W 5768   6.582   4.184   8.862 -0.0320  0.4089 -0.0328
 2025W        W 5769   8.411   2.207   2.437  0.1004  0.1391 -0.2239
 2026W        W 5770   2.943   1.350   0.120  0.2923 -0.1966 -0.0700
 2027W        W 5771   3.045   0.298   2.550  0.1392  0.1416  0.3034
 2028W        W 5772   9.565   6.505   9.186  0.0411  0.0199  0.1721
 2029W        W 5773   6.328   4.268  10.469  0.0771  0.1491  0.0959
 2030W        W 5774   4.705   4.767   1.562  0.2784 -0.1248 -0.0178
 2031W        W 5775   2.900   3.140   1.146  0.5330 -0.1615 -0.0084
 2032W        W 5776   3.226   4.444   1.473 -0.0049 -0.0724  0.4537
 2033W        W 5777   8.593   4.245   9.622  0.2412 -0.0594 -0.1226
 2034W        W 5778   8.924   9.653   2.381 -0.0754  0.0769 -0.0111
 2035W        W 5779   4.819   1.605   1.841  0.0910  0.0366  0.1846
 2036W        W 5780   9.596   7.601  11.905 -0.1651  0.2697 -0.1639
 2037W        W 5781   9.802   8.260   9.308  0.0752 -0.1849 -0.1108
 2038W        W 5782   8.575   8.720   9.320 -0.1979  0.0776 -0.0059
 2039W        W 5783   1.230   1.020   9.914  0.0211 -0.1170  0.2313
 2040W        W 5784   2.064   9.112   9.273 -0.0405 -0.1125 -0.1223
 2041W        W 5785   7.984   1.942   0.559 -0.2148 -0.2891  0.2857
 2042W        W 5786   1.038   0.410   9.739 -0.3517  0.0360  0.0361
 2043W        W 5787   0.659   1.801   0.622  0.2136  0.2840 -0.0125
 2044W        W 5788   2.529   1.711  12.827 -0.3739 -0.2010  0.1181
 2045W        W 5789   8.628   5.301   4.150  0.2072  0.1027  0.2623
 2046W        W 5790   0.905   3.002   0.382 -0.0289 -0.0517  0.0519
 2047W        W 5791   9.106   9.256  11.140  0.0184 -0.5416  0.1429
 2048W        W 5792   9.396   6.919   9.898  0.1157  0.2785  0.0959
 2049W        W 5793   4.530   2.483   2.403 -0.2750  0.0476 -0.0685
 2050W        W 5794   1.808   7.132  12.115 -0.0381  0.0978  0.1054
 2051W        W 5795   5.188   2.593   9.936  0.0902 -0.3588 -0.0889
 2052W        W 5796   0.980   1.613  11.947 -0.3442 -0.0159  0.0551
 2053W        W 5797   2.068   3.957   2.541  0.4700 -0.0151 -0.0280
 2054W        W 5798   9.495   0.233   3.769  0.0130  0.2042  0.1522
 2055W        W 5799   9.496   3.235   3.284  0.1114  0.3081 -0.0348
 2056W        W 5800   7.679   4.419   9.313  0.2099 -0.0368  0.0852
 2057W        W 5801   4.511   5.586  11.989 -0.1078 -0.2421 -0.0969
 2058W        W 5802   3.695   1.541   3.206  0.0516 -0.0902 -0.0008
 2059W        W 5803   5.655   7.133  11.724 -0.1936  0.0496 -0.2145
 2060W        W 5804   4.388   3.196  12.522  0.0349 -0.0405  0.0536
 2061W        W 5805   6.577   7.501   3.225 -0.2151 -0.3035 -0.2446
 2062W        W 5806   8.541   9.199   1.076  0.0091 -0.1818 -0.0505
 2063W        W 5807   4.896   7.943   9.575  0.3302 -0.1402 -0.0279
 2064W        W 5808   3.149   1.153   0.534 -0.0626 -0.1682 -0.2226
 2065W        W 5809   3.181   2.874  10.866  0.0593 -0.0202  0.0757
 2066W        W 5810   1.602   8.513  10.409  0.2552 -0.1461 -0.3666
 2067W        W 5811   0.299   6.412   9.053  0.0214  0.4265  0.1958
 2068W        W 5812   4.075   6.543  10.294  0.0328  0.2319  0.0477
 2069W        W 5813   1.244   6.038   9.112 -0.2140  0.0080 -0.2096
 2070W        W 5814   0.869   8.445   3.724 -0.0742  0.0337  0.2552
 2071W        W 5815   2.146   8.826   9.802  0.1994 -0.0893 -0.1733
 2072W        W 5816   5.699   0.026   9.539  0.1867  0.0350  0.2145
 2073W        W 5817   1.305   4.372   8.596 -0.1544  0.2581 -0.0856
 2074W        W 5818   6.504   8.862   1.058  0.0525  0.2576 -0.0808
 2075W        W 5819   9.483   9.725   3.127 -0.3967  0.0039  0.0135
 2076W        W 5820   2.436   6.352  11.380  0.2811  0.2587  0.2163
 2077W        W 5821   9.158   1.216   0.223  0.1811  0.1481 -0.0598
 2078W        W 5822   3.470   9.311   1.237  0.1795  0.1376 -0.1932
 2079W        W 5823   2.306   2.893   0.598 -0.3158  0.0095  0.3639
 2080W        W 5824   1.808   0.658  10.360 -0.1163  0.0030  0.3962
 2081W        W 5825   3.197   9.842  10.216  0.0210 -0.1147  0.2299
 2082W        W 5826   2.961   1.282   1.469 -0.1281  0.2845 -0.1085
 2083W        W 5827   1.582   4.722  12.428  0.1202  0.1587 -0.1709
 2084W        W 5828   7.885   2.039   9.211  0.1635  0.0954  0.1361
 2085W        W 5829   0.394   0.986  12.232 -0.0710 -0.2218  0.2124
 2086W        W 5830   7.756   0.412   2.874  0.1402  0.0353 -0.0842
 2087W        W 5831   6.292   5.393   2.850 -0.2416  0.2130 -0.1615
 2088W        W 5832   6.050   6.448   0.799  0.2553 -0.1421 -0.2626
 2089W        W 5833   1.293   2.877   1.778 -0.0405 -0.1262 -0.2314
 2090W        W 5834   0.871   3.271  10.573  0.3229 -0.0110 -0.0353
 2091W        W 5835   4.759   0.166   1.853 -0.1088  0.0093 -0.1452
 2092W        W 5836   6.542   7.855  11.414  0.0848 -0.2962  0.4708
 2093W        W 5837   7.547   8.198  11.447  0.3011  0.2753 -0.1452
 2094W        W 5838   0.057   4.949   0.651  0.3018  0.0774 -0.1659
 2095W        W 5839   1.078   7.835   3.463 -0.0777  0.4116  0.3853
 2096W        W 5840   6.629   6.736  11.995 -0.0018  0.0821 -0.1393
 2097W        W 5841   8.727   9.181   9.524  0.2393 -0.3030 -0.1163
 2098W        W 5842   6.681   3.935  11.006 -0.2161  0.0523 -0.0348
 2099W        W 5843   4.599   1.236   2.176  0.1830 -0.2811 -0.1633
 2100W        W 5844   9.736   4.560   2.919 -0.0430 -0.0713  0.2657
 2101W        W 5845   3.660   4.345  11.893  0.0143 -0.0404  0.1192
 2102W        W 5846   5.873   1.131  12.253  0.3993  0.0669 -0.0296
 2103W        W 5847   7.040   4.035   0.595 -0.0735 -0.2721  0.0893
 2104W        W 5848   8.199   9.890   2.857  0.2411  0.0662 -0.0833
 2105W        W 5849   1.770   2.456   2.448  0.3319 -0.1738  0.2866
 2106W        W 5850   9.245   6.485   9.640  0.0376  0.0949  0.1229
 2107W        W 5851   7.899   1.968  10.883 -0.1330  0.0160  0.2273
 2108W        W 5852   7.110   3.518   2.520 -0.4717  0.1579  0.1800
 2109W        W 5853   7.391   9.281   9.610 -0.0401  0.2631 -0.1888
 2110W        W 5854   2.829   1.547  10.647 -0.2263  0.2122 -0.1242
 2111W        W 5855   2.956   6.320   1.389  0.0054  0.3267 -0.1184
 2112W        W 5856   7.732   1.333   4.357  0.0379  0.0131 -0.3863
 2113W        W 5857   6.957   6.059  10.885  0.2593 -0.0740 -0.0826
 2114W        W 5858   4.562   7.269   9.135 -0.0072  0.1153 -0.0155
 2115W        W 5859   5.021   8.900   2.356 -0.0265  0.0411  0.0008
 2116W        W 5860   6.090   4.318   1.280  0.0471 -0.1814  0.2214
 2117W        W 5861   8.237   2.422   3.681 -0.1492  0.0642 -0.1165
 2118W        W 5862   7.280   5.903   9.068  0.3313  0.0601 -0.1910
 2119W        W 5863   3.797   2.866   2.827  0.2394  0.0270 -0.0785
 2120W        W 5864   1.713   2.495  11.519 -0.1114  0.1643 -0.0022
 2121W        W 5865   4.915   6.154  10.130  0.0907  0.1011  0.0433
 2122W        W 5866   9.585   5.092  10.410 -0.1393  0.4866  0.0153
 2123W        W 5867   1.597   8.379   1.158  0.2244  0.2488  0.1465
 2124W        W 5868   5.831   5.152   0.419 -0.1022 -0.0138 -0.2169
 2125W        W 5869   2.083   4.458  11.433 -0.1250  0.0712 -0.0216
 2126W        W 5870   7.585   5.690   2.200 -0.0941  0.2278 -0.0982
 2127W        W 5871   8.441   5.427   1.135 -0.0005  0.0429  0.2349
 2128W        W 5872   4.831   4.528   1.121  0.0772  0.0406  0.0593
 2129W        W 5873   4.321   6.319  11.575  0.0430  0.0820 -0.0717
 2130W        W 5874   8.929   0.401   1.733 -0.2631 -0.1213  0.0236
 2131W        W 5875   8.809   3.201   8.598  0.2149 -0.0336  0.0561
 2132W        W 5876   7.624   2.538   0.020  0.1256  0.0854 -0.2378
 2133W        W 5877   4.708   3.138   2.662 -0.1110 -0.0651 -0.0991
 2134W        W 5878   0.211   9.790  12.353  0.0999  0.0083 -0.0812
 2135W        W 5879   6.568   8.752  11.434  0.0240 -0.0063 -0.1219
 2136W        W 5880   7.002   9.480  11.864 -0.1444 -0.0296  0.2589
 2137W        W 5881   9.045   2.271   2.339  0.1038  0.0355  0.0100
 2138W        W 5882   8.804   0.581  12.152 -0.1546  0.2950  0.3567
 2139W        W 5883   1.454   1.464  10.798  0.2888 -0.0014  0.0578
 2140W        W 5884   7.718   6.869   1.168  0.0363  0.1305 -0.1787
 2141W        W 5885   9.516   9.734   3.620  0.2938  0.3193 -0.1726
 2142W        W 5886   0.825   0.707   2.843  0.0505 -0.0493  0.5551
 2143W        W 5887   0.800   3.091   1.983  0.2593  0.1246 -0.1492
 2144W        W 5888   0.232   7.554   1.439 -0.0724  0.1061 -0.0092
 2145W        W 5889   1.051   8.451  11.474  0.0183 -0.2368  0.3977
 2146W        W 5890   2.931   1.583   3.690 -0.0438 -0.0561 -0.0937
 2147W        W 5891   5.314   4.039   1.903  0.2147  0.0369  0.0473
 2148W        W 5892   7.355   1.586   0.458  0.0323  0.1811 -0.0874
 2149W        W 5893   8.730   0.267   4.674 -0.0251  0.0687  0.2611
 2150W        W 5894   2.637   5.698  10.034  0.0514  0.1460 -0.3096
 2151W        W 5895   2.004   5.551   1.813 -0.2981 -0.0799  0.4300
 2152W        W 5896   8.006   4.804  11.054 -0.2079  0.0546 -0.1615
 2153W        W 5897   0.432   4.245   0.277  0.0599 -0.2325 -0.1894
 2154W        W 5898   8.297   1.361  11.826 -0.0109  0.0143 -0.0582
 2155W        W 5899   5.587   0.227   4.205  0.1362  0.0168  0.0161
 2156W        W 5900   1.984   5.108   8.657  0.5852  0.0325 -0.3750
 2157W        W 5901   7.932   6.821  11.972  0.0599  0.0161  0.0291
 2158W        W 5902   8.035   6.191  10.315  0.2154 -0.1530 -0.0684
 2159W        W 5903   7.960   9.556  10.799  0.1163  0.0224  0.1134
 2160W        W 5904   6.537   2.778  12.788 -0.1942  0.1061  0.1373
 2161W        W 5905   9.378   0.318   0.782  0.2126 -0.0809 -0.3369
 2162W        W 5906   9.515   7.957   0.488 -0.5260 -0.3681 -0.4118
 2163W        W 5907   0.807   0.513  11.047  0.1132 -0.0626 -0.1747
 2164W        W 5908   1.323   6.119   2.930  0.1505  0.0760  0.1429
 2165W        W 5909   8.262   7.992  11.965  0.0027  0.0676 -0.2193
 2166W        W 5910   7.275   0.651   0.471  0.0026  0.2676  0.2832
 2167W        W 5911   0.966   1.557  11.022  0.1518  0.1632  0.1448
 2168W        W 5912   2.597   3.525   2.103 -0.1521 -0.1523  0.2076
 2169W        W 5913   3.942   6.089  11.970 -0.1407 -0.1921 -0.1628
 2170W        W 5914   6.291   1.689   0.806  0.6241 -0.0430 -0.0330
 2171W        W 5915   0.720   6.694  10.226 -0.0354 -0.3349 -0.3093
 2172W        W 5916   6.003   6.864   8.791  0.3252  0.0735 -0.0675
 2173W        W 5917   7.079   4.000   1.143  0.0861  0.1219 -0.3061
 2174W        W 5918   9.122   1.798   0.019  0.1406  0.0539 -0.1851
 2175W        W 5919   4.385   7.785   0.007  0.0692 -0.1711  0.2110
 2176W        W 5920   3.385   6.331   3.694 -0.1022  0.2440 -0.0299
 2177W        W 5921   8.547   9.824  11.452  0.0440 -0.0532  0.3285
 2178W        W 5922   0.394   9.461   3.086  0.2071  0.1970 -0.2813
 2179W        W 5923   0.233   9.019   0.978  0.0666 -0.0898 -0.1670
 2180W        W 5924   9.051   7.982  11.560  0.1833 -0.1004  0.1871
 2181W        W 5925   3.496   1.107  12.820  0.0798 -0.1070  0.0159
 2182W        W 5926   4.481   0.177  10.100 -0.1244  0.0802 -0.2865
 2183W        W 5927   9.887   6.541   2.912 -0.0823  0.0940 -0.0880
 2184W        W 5928   6.766   8.523  11.912  0.2534 -0.0600  0.0239
 2185W        W 5929   7.494   7.042   1.712 -0.0323 -0.1150  0.1649
 2186W        W 5930   1.511   4.601   3.940  0.0280  0.2184 -0.1300
 2187W        W 5931   6.248   5.733   9.229  0.0349  0.1615 -0.0493
 2188W        W 5932   8.651   5.603   1.900  0.1190 -0.2906 -0.1214
 2189W        W 5933   6.595   4.627  12.190 -0.2874 -0.0030  0.2751
 2190W        W 5934   1.670   4.562   3.312  0.2538 -0.0172 -0.1543
 2191W        W 5935   5.297   2.900  12.212  0.0596  0.0693  0.3072
 2192W        W 5936   5.914   7.733   8.524  0.0665  0.1295  0.1030
 2193W        W 5937   2.844   0.549  11.008 -0.0492 -0.1294 -0.1854
 2194W        W 5938   3.042   7.740   0.521  0.1009 -0.2315 -0.0876
 2195W        W 5939   1.450   0.337  10.325 -0.0341  0.2279  0.0695
 2196W        W 5940   8.655   0.741   5.290  0.2644 -0.2431 -0.0502
 2197W        W 5941   6.962   0.949   3.027  0.0453  0.1617 -0.0903
 2198W        W 5942   4.019   8.006   9.244  0.1986  0.0970 -0.1043
 2199W        W 5943   3.082   3.938   2.777 -0.1982  0.0905  0.2238
 2200W        W 5944   1.720   8.806   3.939 -0.0648  0.4823 -0.0733
 2201W        W 5945   9.053   5.910  12.597  0.1216 -0.2001 -0.2579
 2202W        W 5946   0.198   2.477   0.845 -0.1672  0.0137  0.0349
 2203W        W 5947   9.793   9.864  12.699 -0.2104  0.1615 -0.0475
 2204W        W 5948   6.120   7.540   1.330 -0.0209  0.1221  0.0393
 2205W        W 5949   0.777   7.103   8.481 -0.3342  0.1227 -0.2306
 2206W        W 5950   5.001   7.031   9.292 -0.1604 -0.0345 -0.4464
 2207W        W 5951   4.118   7.174  11.596  0.0950  0.0635  0.1415
 2208W        W 5952   4.936   0.031   2.377 -0.0098 -0.0387  0.1805
 2209W        W 5953   8.330   8.130  10.904 -0.0278 -0.1679 -0.2145
 2210W        W 5954   2.147   0.147   9.515  0.0043 -0.3661 -0.2115
 2211W        W 5955   0.517   8.513   0.297  0.2281  0.2067 -0.0904
 2212W        W 5956   0.082   0.079   8.944  0.0922 -0.0215 -0.1652
 2213W        W 5957   8.982   9.588   3.315 -0.0272  0.0034 -0.0664
 2214W        W 5958   5.944   4.193   1.755 -0.0676 -0.0053  0.2062
 2215W        W 5959   6.904   9.171   4.599  0.1951  0.0526  0.1042
 2216W        W 5960   2.607   2.012   2.965 -0.4212  0.0435  0.0541
 2217W        W 5961   8.892   6.728  12.677  0.1045 -0.1849  0.0715
 2218W        W 5962   4.328   1.433   9.374 -0.1084  0.0608  0.0566
 2219W        W 5963   3.173   5.282   2.121 -0.0163 -0.1288 -0.2411
 2220W        W 5964   9.478   3.378   2.481 -0.1956  0.2713  0.0644
 2221W        W 5965   5.552   7.744  12.348  0.2802  0.1626  0.1504
 2222W        W 5966   3.765   2.359   3.036  0.4519  0.0072  0.1224
 2223W        W 5967   5.636   5.236  10.169  0.2521 -0.0040 -0.0572
 2224W        W 5968   4.855   8.321   2.027 -0.0376  0.0150 -0.3338
 2225W        W 5969   9.212   0.495   1.351  0.2984  0.2232 -0.0029
 2226W        W 5970   7.750   0.863   3.347  0.2068  0.2070  0.0672
 2227W        W 5971   0.840   9.637   1.235 -0.0325 -0.2631 -0.0110
 2228W        W 5972   5.206   8.950   9.318 -0.0342  0.0594 -0.2906
 2229W        W 5973   3.414   3.156  11.190 -0.1409  0.2823 -0.4556
 2230W        W 5974   6.481   0.119  12.385  0.0243 -0.0374  0.0588
 2231W        W 5975   0.067   4.894  10.586 -0.1878 -0.0538 -0.0571
 2232W        W 5976   1.801   0.339   0.252 -0.2158  0.1933  0.1707
 2233W        W 5977   5.956   9.012   3.174 -0.0456 -0.0702  0.1122
 2234W        W 5978   0.556   1.214  11.169  0.2470  0.1657  0.1344
 2235W        W 5979   1.435   2.839   0.841 -0.2461 -0.0122 -0.1313
 2236W        W 5980   8.052   2.107   8.752  0.0742 -0.2798 -0.2554
 2237W        W 5981   0.178   6.990  11.310  0.1474  0.0451 -0.0375
 2238W        W 5982   2.122   9.454   3.265  0.0472  0.0250  0.2189
 2239W        W 5983   7.402   7.535   1.738 -0.1528  0.1220 -0.1413
 2240W        W 5984   9.157   2.009  11.197  0.3129 -0.3062  0.0799
 2241W        W 5985   7.444   6.872  11.966  0.1902 -0.1214  0.0309
 2242W        W 5986   3.409   5.711   0.614 -0.2295  0.2615 -0.0019
 2243W        W 5987   1.706   4.221   0.399  0.0058  0.2153 -0.0074
 2244W        W 5988   3.865   2.921  10.194  0.1584 -0.2090 -0.1373
 2245W        W 5989   3.007   4.287  11.279 -0.1129 -0.1079  0.4625
 2246W        W 5990   1.371   4.315   9.531 -0.1876 -0.2033 -0.0719
 2247W        W 5991   6.600   7.233   2.769  0.1759 -0.2797  0.0099
 2248W        W 5992   7.161   4.888   2.050  0.4676  0.1001 -0.0005
 2249W        W 5993   3.327   7.330   3.061  0.2552 -0.0729 -0.1341
 2250W        W 5994   7.818   1.210   2.580  0.2244 -0.0541  0.2892
 2251W        W 5995   3.058   9.280  10.201 -0.0812  0.1402 -0.0851
 2252W        W 5996   0.060   9.024  12.045  0.0398  0.3247  0.0656
 2253W        W 5997   2.226   3.790  10.444  0.1265 -0.0409 -0.1037
 2254W        W 5998   9.202   7.662   7.806  0.0539 -0.0458 -0.1373
 2255W        W 5999   1.445   9.335   1.634  0.0888  0.1590 -0.2426
 2256W        W 6000   5.108   7.151  12.182  0.1632 -0.0153 -0.1405
 2257W        W 6001   0.741   0.413   3.467  0.3412 -0.2469  0.1017
 2258W        W 6002   2.979   9.024   2.674  0.0182  0.1795 -0.0261
 2259W        W 6003   5.497   9.550   2.866  0.0624  0.3134  0.2320
 2260W        W 6004   0.134   6.076   0.255 -0.2134  0.0218  0.0092
 2261W        W 6005   1.106   7.854   9.637  0.0550  0.2804 -0.0107
 2262W        W 6006   0.292   3.491   2.527  0.2187  0.2395  0.1069
 2263W        W 6007   5.690   0.733   4.604 -0.0362  0.0152  0.2677
 2264W        W 6008   2.057   9.751   4.301  0.2004 -0.1830  0.1381
 2265W        W 6009   3.553   6.966   0.036 -0.1629 -0.0521 -0.0940
 2266W        W 6010   8.485   4.751   2.532 -0.2088 -0.0956 -0.0821
 2267W        W 6011   2.259   0.262   0.376 -0.2286  0.3829 -0.0432
 2268W        W 6012   8.985   4.372   1.575 -0.2890  0.2036  0.0313
 2269W        W 6013   5.976   3.330   0.536 -0.2767 -0.3798  0.2250
 2270W        W 6014   1.077   2.029   0.710 -0.1278  0.2611 -0.1119
 2271W        W 6015   0.874   0.427   4.504 -0.0727  0.1620  0.1208
 2272W        W 6016   5.657   1.192   9.985  0.1407  0.3181  0.0679
 2273W        W 6017   2.485   8.551  11.133 -0.1075  0.1130  0.0146
 2274W        W 6018   7.807   9.403  12.562  0.0219  0.0066  0.3629
 2275W        W 6019   6.866   5.507   0.411  0.4851  0.2250 -0.1620
 2276W        W 6020   0.983   6.452  10.539  0.0801 -0.0918  0.2078
 2277W        W 6021   6.670   0.139  11.091  0.0037  0.1288  0.1087
 2278W        W 6022   5.821   6.048   2.472 -0.0063  0.3011  0.1711
 2279W        W 6023   4.180   2.525   2.069  0.1350 -0.1906  0.1581
 2280W        W 6024   4.556   1.688  12.183 -0.0127 -0.2264 -0.0514
 2281W        W 6025   6.064   8.787  11.446 -0.0045 -0.1275  0.0617
 2282W        W 6026   6.396   8.042   0.223  0.0738 -0.1927 -0.1021
 2283W        W 6027   7.393   1.975   2.353 -0.2254 -0.3715 -0.3197
 2284W        W 6028   0.193   2.202  10.015  0.0630  0.0797 -0.4088
 2285W        W 6029   2.636   2.592   3.374  0.0510 -0.6434 -0.0069
 2286W        W 6030   2.926   6.222   9.316  0.2464 -0.0299  0.0812
 2287W        W 6031   8.556   6.455   9.345 -0.1503 -0.0002 -0.0699
 2288W        W 6032   7.584   3.372   9.189 -0.2892  0.2180 -0.3121
 2289W        W 6033   8.181   7.112  11.439  0.0572  0.2708  0.1561
 2290W        W 6034   2.852   2.054   1.016  0.0426  0.0082  0.1752
 2291W        W 6035   0.612   4.105   2.431 -0.0185  0.3955 -0.5778
 2292W        W 6036   7.194   8.301   2.045 -0.0032  0.0700  0.0940
 2293W        W 6037   7.665   0.469   3.959 -0.1615  0.0198 -0.0198
 2294W        W 6038   0.031   6.602  11.584 -0.0761 -0.3988 -0.0255
 2295W        W 6039   9.614   2.793  11.533 -0.4512  0.1398  0.3166
 2296W        W 6040   4.403   6.045   3.138 -0.2049 -0.0548 -0.1257
 2297W        W 6041   0.919   5.257  10.514  0.2208 -0.2451  0.2803
 2298W        W 6042   3.570   8.823   1.352  0.1726  0.3391 -0.0401
 2299W        W 6043   3.356   5.111   0.761 -0.0345 -0.2096  0.0938
 2300W        W 6044   1.992   3.376  10.673 -0.0891  0.0994 -0.0508
 2301W        W 6045   6.053   6.881   4.662 -0.1740 -0.0464 -0.1677
 2302W        W 6046   8.198   3.467   1.266 -0.0360 -0.0822  0.1665
 2303W        W 6047   1.899   5.073  12.442  0.2409 -0.1006 -0.6334
 2304W        W 6048   9.603   4.873   1.512 -0.0862 -0.1824 -0.1797
 2305W        W 6049   5.527   5.869   9.086 -0.0845 -0.0604  0.0324
 2306W        W 6050   0.832   8.436   2.839  0.1541  0.1479 -0.0103
 2307W        W 6051   7.727   8.389   0.208  0.1751 -0.1452 -0.1326
 2308W        W 6052   9.506   9.259  10.347 -0.0389 -0.2414 -0.1203
 2309W        W 6053   9.012   4.793   0.664  0.2016 -0.0905 -0.0015
 2310W        W 6054   5.385   3.253   0.303 -0.0276 -0.0066  0.3369
 2311W        W 6055   3.193   2.490   2.114  0.1071 -0.0322  0.0990
 2312W        W 6056   4.836   2.418   9.379  0.2227 -0.4060  0.2698
 2313W        W 6057   9.773   5.890  10.420 -0.1715  0.1712 -0.0177
 2314W        W 6058   0.063   2.955   3.903  0.0592 -0.1013  0.0224
 2315W        W 6059   7.463   7.918  10.379  0.2791 -0.1760  0.2034
 2316W        W 6060   1.267   8.636   3.851 -0.1812 -0.1123 -0.2459
 2317W        W 6061   7.906   3.167  10.510 -0.3160 -0.4186  0.1293
 2318W        W 6062   2.456   3.073   3.460  0.1118 -0.3109 -0.3211
 2319W        W 6063   9.128   0.193   8.599 -0.1918  0.1190 -0.0964
 2320W        W 6064   3.869   8.629   3.443 -0.0855 -0.2132 -0.0138
 2321W        W 6065   6.314   9.030  12.446 -0.1335 -0.0312 -0.0875
 2322W        W 6066   8.447   6.431   9.871  0.2438  0.1200  0.1634
 2323W        W 6067   6.351   7.648   9.556 -0.0241 -0.0629  0.1327
 2324W        W 6068   9.133   3.056   3.672 -0.0573  0.2988 -0.2072
 2325W        W 6069   2.481   8.439   9.914  0.2555  0.2270 -0.0143
 2326W        W 6070   4.082   5.928   9.651  0.0602 -0.3485  0.2187
 2327W        W 6071   3.561   2.707  12.732  0.3849  0.0835 -0.0597
 2328W        W 6072   1.174   0.348  11.613  0.2172  0.2387 -0.1333
 2329W        W 6073   4.337   5.152   1.551 -0.1190  0.1800  0.0026
 2330W        W 6074   9.377   8.486   3.676 -0.1045 -0.0253  0.0627
 2331W        W 6075   4.948   7.341   0.579 -0.2036 -0.0279 -0.2098
 2332W        W 6076   9.442   1.130   4.309  0.0078 -0.0230 -0.0884
 2333W        W 6077   4.505   5.154   3.548  0.1588  0.0817 -0.2451
 2334W        W 6078   2.210   2.876   3.893 -0.3211 -0.0120  0.0072
 2335W        W 6079   4.837   1.400   4.026  0.0035 -0.2595  0.1447
 2336W        W 6080   4.963   5.681   2.215 -0.1108 -0.0029 -0.1564
 2337W        W 6081   8.349   1.756  12.263  0.0666  0.0293  0.0651
 2338W        W 6082   1.396   1.182   2.982  0.0880  0.4062 -0.3334
 2339W        W 6083   8.588   1.279   5.200 -0.0331  0.3095  0.1380
 2340W        W 6084   1.067   8.371  10.359 -0.0917  0.4027 -0.0944
 2341W        W 6085   1.344   9.855  12.220 -0.1143 -0.1453 -0.0247
 2342W        W 6086   2.904   5.964  10.541 -0.1968  0.0480  0.1251
 2343W        W 6087   7.992   8.227  10.094  0.0959  0.0842 -0.0668
 2344W        W 6088   8.867   8.169   9.412  0.0661 -0.1212 -0.3298
 2345W        W 6089   7.755   6.768   0.603  0.1838 -0.0970  0.0461
 2346W        W 6090   5.697   8.400   0.707  0.1867  0.0502 -0.1391
 2347W        W 6091   8.480   1.886   9.046  0.2256  0.2345  0.2280
 2348W        W 6092   0.199   7.171   4.027  0.1924  0.0090  0.0056
 2349W        W 6093   4.000   7.460  12.344 -0.1901 -0.2376 -0.1402
 2350W        W 6094   1.092   2.040   2.076  0.1780  0.1068 -0.0824
 2351W        W 6095   8.744   4.406  10.704 -0.2082  0.0549  0.2610
 2352W        W 6096   4.956   3.074  11.808 -0.0455  0.1738 -0.2006
 2353W        W 6097   2.384   6.368  11.914 -0.0712 -0.0022  0.0972
 2354W        W 6098   5.156   3.966   3.958  0.1255  0.0701 -0.0513
 2355W        W 6099   7.899   5.852   9.348  0.2379 -0.1351  0.1785
 2356W        W 6100   0.639   6.731   1.279 -0.2108  0.1127 -0.3081
 2357W        W 6101   9.892   1.284   4.214 -0.0806  0.1069 -0.0758
 2358W        W 6102   5.942   5.343  10.543 -0.0862  0.1017  0.0395
 2359W        W 6103   6.741   5.235  11.884 -0.0099 -0.1139  0.0342
 2360W        W 6104   6.093   4.460   0.776  0.0381  0.0238 -0.2536
 2361W        W 6105   0.117   3.750  12.327  0.3917  0.0048  0.2783
 2362W        W 6106   0.912   4.513   1.030  0.0430 -0.2005  0.2846
 2363W        W 6107   0.254   3.617  11.431 -0.0434  0.1172  0.1460
 2364W        W 6108   4.122   0.876  12.050  0.0371  0.0578  0.1064
 2365W        W 6109   2.522   6.464   2.720 -0.3351  0.0036 -0.0806
 2366W        W 6110   8.468   9.924   9.974 -0.0313  0.3487  0.5672
 2367W        W 6111   3.784   8.662   0.822  0.2524 -0.1065 -0.0623
 2368W        W 6112   5.186   1.059   4.036  0.1531 -0.0204  0.0222
 2369W        W 6113   8.132   2.554   2.681  0.0859 -0.0911 -0.1481
 2370W        W 6114   2.396   0.823  11.227 -0.0612 -0.0807  0.1031
 2371W        W 6115   3.016   6.741   9.429  0.1841  0.1491 -0.0396
 2372W        W 6116   8.262   9.464   0.017 -0.1077 -0.3394  0.3244
 2373W        W 6117   1.813   8.454   2.979  0.0999  0.0744 -0.1312
 2374W        W 6118   9.693   4.257   0.694 -0.2551 -0.0456 -0.1243
 2375W        W 6119   8.304   0.885   0.072  0.0010 -0.1307 -0.4093
 2376W        W 6120   8.674   1.160   1.309 -0.3746 -0.0430 -0.1081
 2377W        W 6121   1.192   2.990   3.907  0.1554  0.0292  0.2236
 2378W        W 6122   4.662   3.196  11.237 -0.0184  0.1888 -0.2398
 2379W        W 6123   6.067   7.495  11.393 -0.0437 -0.5078  0.1830
 2380W        W 6124   8.789   4.607   1.189 -0.2751 -0.2246  0.2513
 2381W        W 6125   6.730   7.434  10.586  0.1006  0.1036 -0.1805
 2382W        W 6126   2.162   9.113   1.505  0.3389 -0.1146 -0.0189
 2383W        W 6127   8.398   9.153   3.871 -0.0239 -0.4433  0.2089
 2384W        W 6128   9.310   4.520   1.138 -0.1701 -0.0124 -0.2279
 2385W        W 6129   2.237   8.378  11.529 -0.0021  0.1235  0.0058
 2386W        W 6130   9.853   5.577   1.325 -0.1246  0.1118  0.2039
 2387W        W 6131   1.893   7.701   0.772 -0.2665 -0.0854  0.0648
 2388W        W 6132   2.712   3.176   0.302 -0.1232 -0.0912 -0.1016
 2389W        W 6133   7.182   6.697   9.558 -0.0341  0.1287  0.0531
 2390W        W 6134   5.583   5.700  11.314 -0.0400 -0.2397 -0.0222
 2391W        W 6135   8.993   6.643   1.354 -0.2282  0.2841  0.0705
 2392W        W 6136   6.905   0.151  12.691  0.1983  0.4685 -0.0096
 2393W        W 6137   5.649   5.830   1.967  0.3457  0.1857 -0.1780
 2394W        W 6138   4.578   9.807   3.658 -0.1401  0.2539 -0.2395
 2395W        W 6139   9.422   2.499   0.890 -0.0610  0.2743  0.2416
 2396W        W 6140   6.253   2.672   1.754 -0.0000 -0.1451 -0.1811
 2397W        W 6141   7.522   2.583  11.699 -0.1877 -0.7391 -0.0611
 2398W        W 6142   2.222   0.027  12.655 -0.2442  0.0094  0.1906
 2399W        W 6143   3.750   7.427   0.033  0.2021 -0.3452 -0.4419
 2400W        W 6144   4.732   7.680   3.053 -0.0492 -0.0129  0.0888
 2401W        W 6145   0.561   8.097   3.922  0.0116 -0.0222 -0.2474
 2402W        W 6146   5.235   6.268   3.242 -0.1544  0.0054 -0.0094
 2403W        W 6147   9.920   7.948  11.542  0.1578  0.4196  0.1633
 2404W        W 6148   2.831   6.906   0.317  0.1989 -0.0053 -0.0483
 2405W        W 6149   4.788   7.403   9.653 -0.4082 -0.2430  0.0639
 2406W        W 6150   0.671   6.360   1.649  0.1217 -0.1414 -0.1172
 2407W        W 6151   3.655   2.731  10.864 -0.1373 -0.3072 -0.0013
 2408W        W 6152   4.395   5.305  10.902  0.0522 -0.0612  0.3141
 2409W        W 6153   6.949   1.070   3.745 -0.1538 -0.0517 -0.0409
 2410W        W 6154   3.780   1.323   2.207 -0.0118  0.1787 -0.0203
 2411W        W 6155   3.144   7.021  10.231  0.0186  0.2587  0.1193
 2412W        W 6156   2.106   8.833   8.031 -0.2518  0.2992  0.1395
 2413W        W 6157   4.284   0.005   1.045 -0.0044 -0.2561  0.0505
 2414W        W 6158   5.585   9.442   9.813  0.0581 -0.0210 -0.0306
 2415W        W 6159   0.988   8.002  11.746  0.0239  0.1080 -0.0333
 2416W        W 6160   1.119   9.703   0.750  0.0902 -0.3143 -0.3256
 2417W        W 6161   3.003   2.346   3.070 -0.1645  0.2387  0.2102
 2418W        W 6162   8.239   5.488   1.630 -0.3744  0.2466  0.3976
 2419W        W 6163   5.428   4.127   2.370  0.1617 -0.0851  0.0399
 2420W        W 6164   7.751   5.568  10.642  0.0148 -0.1936  0.0191
 2421W        W 6165   6.600   5.001   2.971 -0.2181 -0.3422 -0.0501
 2422W        W 6166   1.260   5.296   1.831  0.4699  0.0182 -0.2521
 2423W        W 6167   2.988   5.403  11.030 -0.1210 -0.1189  0.6628
 2424W        W 6168   0.098   6.775  10.358 -0.2009  0.1435 -0.0369
 2425W        W 6169   7.510   6.567   2.860 -0.0534 -0.1756 -0.0120
 2426W        W 6170   2.779   6.579  12.187  0.0696 -0.3673  0.0243
 2427W        W 6171   9.243   0.761   0.448  0.2083 -0.2378  0.1312
 2428W        W 6172   4.424   8.177   8.626  0.3746  0.1611 -0.0299
 2429W        W 6173   6.973   0.689   1.029 -0.1974  0.0905  0.1253
 2430W        W 6174   9.225   8.612   1.899  0.2778 -0.2369 -0.2777
 2431W        W 6175   3.331   6.517   2.783 -0.0562 -0.3455  0.3660
 2432W        W 6176   8.878   6.712  11.731  0.0190  0.0509  0.1591
 2433W        W 6177   8.143   0.311  12.223  0.2127  0.0673  0.1803
 2434W        W 6178   2.655   5.086   2.266  0.0661 -0.1842  0.1908
 2435W        W 6179   3.492   4.434   0.135 -0.2698 -0.1177  0.1228
 2436W        W 6180   1.193   1.480   3.956 -0.1930  0.0174  0.0113
 2437W        W 6181   9.877   5.727  11.486 -0.1643  0.2295 -0.0281
 2438W        W 6182   8.770   3.483   9.684  0.1890 -0.3451 -0.0857
 2439W        W 6183   6.338   9.705   0.460 -0.1739 -0.0880 -0.0732
 2440W        W 6184   4.266   6.944  10.021 -0.0967 -0.0290 -0.0995
 2441W        W 6185   7.598   5.180   2.677  0.1328 -0.1838 -0.2651
 2442W        W 6186   3.011   6.329   0.337 -0.1523 -0.1959  0.1481
 2443W        W 6187   4.047   7.353  10.118 -0.2222 -0.3477 -0.2978
 2444W        W 6188   0.612   8.731  11.290  0.1152 -0.0790 -0.1675
 2445W        W 6189   4.196   2.970  11.534  0.0391  0.0910  0.1006
 2446W        W 6190   8.636   0.993   4.292  0.0189 -0.0160 -0.0437
 2447W        W 6191   8.376   2.141   9.544 -0.1330 -0.3366  0.0892
 2448W        W 6192   1.724   1.107   8.589 -0.0372  0.2682 -0.1635
 2449W        W 6193   8.657   9.664   2.821  0.0404  0.0320  0.1646
 2450W        W 6194   9.012   6.691   9.266  0.0311  0.0259  0.1095
 2451W        W 6195   9.859   5.776  12.132 -0.0789 -0.2469 -0.2245
 2452W        W 6196   1.846   8.283  12.335 -0.1794  0.1731  0.2433
 2453W        W 6197   5.171   8.044  12.241 -0.0397  0.0613 -0.0307
 2454W        W 6198   4.708   5.633  12.528 -0.0105  0.1819  0.1542
 2455W        W 6199   2.026   5.921  12.823 -0.0582  0.2658  0.3880
 2456W        W 6200   0.449   1.219   2.131  0.1699  0.2823  0.1893
 2457W        W 6201   3.407   1.627  12.701 -0.0115  0.2400 -0.2418
 2458W        W 6202   0.423   9.323   0.058  0.1486  0.1824  0.1346
 2459W        W 6203   0.078   6.702   9.386  0.0592 -0.2211 -0.1924
 2460W        W 6204   3.802   1.843   2.401  0.2340  0.2033 -0.0048
 2461W        W 6205   3.667   5.919  11.116  0.0638 -0.1030  0.1209
 2462W        W 6206   7.991   2.571   4.885  0.1140  0.2414 -0.0346
 2463W        W 6207   7.561   5.897  12.615  0.0024 -0.2653 -0.0725
 2464W        W 6208   8.320   0.796  10.350 -0.0696  0.1038 -0.1157
 2465W        W 6209   2.988   3.672  12.352 -0.0912 -0.0312  0.0584
 2466W        W 6210   9.687   6.403   0.007 -0.1491 -0.0052  0.0496
 2467W        W 6211   7.101   5.179   2.836 -0.0338  0.0821  0.1620
 2468W        W 6212   4.454   8.990   3.093  0.1515  0.0166 -0.2238
 2469W        W 6213   9.216   6.278  11.152 -0.3411  0.0540  0.0090
 2470W        W 6214   8.258   1.171   4.579 -0.1125  0.2612 -0.0784
 2471W        W 6215   7.487   4.111   0.890 -0.0826  0.1095  0.0194
 2472W        W 6216   0.057   4.182   3.017  0.0323  0.2077 -0.1561
 2473W        W 6217   4.331   6.131   1.724 -0.0322  0.1988  0.0942
 2474W        W 6218   7.549   6.494  10.484  0.1016 -0.2386  0.1381
 2475W        W 6219   2.214   5.326  10.834 -0.1876  0.0365 -0.1207
 2476W        W 6220   4.053   9.011   0.633 -0.0381 -0.0741 -0.0033
 2477W        W 6221   9.477   0.717  12.170 -0.0191  0.0607  0.1806
 2478W        W 6222   6.797   7.365   9.463  0.0118  0.0831  0.0061
 2479W        W 6223   6.314   3.100  11.257  0.0354 -0.3896 -0.0537
 2480W        W 6224   4.732   8.397   1.577  0.0672 -0.3907 -0.1489
 2481W        W 6225   9.765   3.494   3.830  0.1543 -0.2470 -0.2472
 2482W        W 6226   1.965   3.320   4.241  0.0264  0.1078  0.0611
 2483W        W 6227   9.863   3.708   3.352 -0.0872  0.2108 -0.0463
 2484W        W 6228   1.267   9.328  12.231 -0.0953  0.2016  0.0794
 2485W        W 6229   2.703   0.889   1.809 -0.2720 -0.2675 -0.0932
 2486W        W 6230   5.074   2.337   2.317  0.0640  0.1425  0.1693
 2487W        W 6231   2.504   3.486  11.351  0.1338  0.2551 -0.1378
 2488W        W 6232   0.474   5.617   4.755  0.2542 -0.0364 -0.2217
 2489W        W 6233   0.504   0.254   3.835  0.1255  0.2009  0.1232
 2490W        W 6234   8.954   1.352   2.065  0.0747  0.3544  0.0261
 2491W        W 6235   9.933   9.642   5.043  0.1814  0.0420  0.0888
 2492W        W 6236   7.006   1.464   0.073  0.3184 -0.0497  0.2780
 2493W        W 6237   0.146   7.103   1.347  0.1802 -0.0173 -0.0975
 2494W        W 6238   6.012   9.699   1.548 -0.1578  0.3615  0.0776
 2495W        W 6239   4.155   1.717  11.736 -0.1228 -0.0497  0.2278
 2496W        W 6240   7.857   9.925   3.202  0.2166 -0.0205  0.3319
 2497W        W 6241   2.959   3.426   1.789  0.1399 -0.1455 -0.0418
 2498W        W 6242   4.976   4.408   2.158 -0.0190  0.1190 -0.1044
 2499W        W 6243   5.845   9.828   4.507 -0.1177 -0.5009  0.0625
 2500W        W 6244   6.026   9.227   1.328  0.0972  0.0256  0.0337
 2501W        W 6245   8.135   9.160   0.776  0.0660  0.0527  0.0263
 2502W        W 6246   6.048   8.308   2.813  0.2234  0.2469 -0.0290
 2503W        W 6247   4.306   7.029   2.727  0.1843  0.1870 -0.0615
 2504W        W 6248   2.363   8.426   9.460 -0.3261  0.0534  0.0915
 2505W        W 6249   7.842   4.937   7.974 -0.1521  0.4592  0.3889
 2506W        W 6250   4.973   6.543  12.772 -0.0361  0.0730  0.0732
 2507W        W 6251   7.157   4.572  11.353  0.0967  0.1467 -0.1535
 2508W        W 6252   7.082   2.460   0.074 -0.1673 -0.0669  0.4301
 2509W        W 6253   7.206   8.782   3.119  0.1474  0.4358 -0.3960
 2510W        W 6254   7.892   3.755   0.717 -0.0794  0.1846 -0.1030
 2511W        W 6255   6.453   5.535  12.692  0.1708  0.0356 -0.1484
 2512W        W 6256   1.911   6.566  12.262 -0.3076  0.0073  0.0054
 2513W        W 6257   3.615   2.351   0.592  0.1745  0.1072  0.1470
 2514W        W 6258   0.366   4.962   1.955 -0.0147 -0.0309  0.1968
 2515W        W 6259   2.330   1.239   0.817  0.0057  0.0027 -0.3792
 2516W        W 6260   8.679   3.492   1.176 -0.2169 -0.2214 -0.1078
 2517W        W 6261   4.211   8.683  10.944  0.3466  0.0338 -0.1867
 2518W        W 6262   4.067   9.136  11.112  0.0941  0.2333  0.3163
 2519W        W 6263   8.922   3.159   1.431 -0.1143  0.2021 -0.2423
 2520W        W 6264   5.795   3.226  12.349 -0.2204 -0.3419  0.1305
 2521W        W 6265   7.752   3.621   8.780 -0.0770  0.1272 -0.1993
 2522W        W 6266   3.690   4.267  10.709  0.1577 -0.1631  0.0987
 2523W        W 6267   3.915   4.952   1.832  0.0810 -0.2393 -0.4055
 2524W        W 6268   2.248   0.352   9.023  0.0655 -0.0192  0.0469
 2525W        W 6269   7.517   8.481   9.979  0.0646  0.1161  0.0667
 2526W        W 6270   2.225   9.597   2.730  0.2267 -0.2336 -0.2536
 2527W        W 6271   6.766   8.857   8.599  0.1395 -0.1292  0.0983
 2528W        W 6272   0.375   9.096   3.928  0.0540 -0.2903  0.1549
 2529W        W 6273   7.493   2.148  11.498 -0.1380  0.2244 -0.0898
 2530W        W 6274   4.530   9.854   0.050 -0.2883  0.3453 -0.2932
 2531W        W 6275   5.723   8.345   1.688  0.0697 -0.0814  0.1929
 2532W        W 6276   2.699   5.169  10.720  0.3123  0.0515  0.1024
 2533W        W 6277   5.567   9.876   3.816 -0.0589  0.0205 -0.2285
 2534W        W 6278   4.244   0.515   8.664  0.0407  0.1127  0.2223
 2535W        W 6279   9.913   5.626   9.635 -0.0582 -0.2287 -0.3336
 2536W        W 6280   4.047   7.042  12.552 -0.2556 -0.0891 -0.3450
 2537W        W 6281   5.389   6.570   3.561 -0.0879 -0.0910  0.0223
 2538W        W 6282   0.604   8.719   9.931  0.2111 -0.0366 -0.0752
 2539W        W 6283   0.516   7.803  11.655 -0.1013 -0.1537  0.0718
 2540W        W 6284   2.893   7.387   2.742  0.0853 -0.0319 -0.0798
 2541W        W 6285   5.823   6.389   2.058  0.2776  0.0496 -0.1498
 2542W        W 6286   2.792   6.934   1.660  0.2891 -0.0705  0.1947
 2543W        W 6287   8.403   4.760   8.836 -0.0300  0.2387  0.4378
 2544W        W 6288   6.821   8.588  10.966  0.1042  0.1401 -0.1129
 2545W        W 6289   1.411   5.211   9.294 -0.0929  0.1479 -0.1830
 2546W        W 6290   5.802   3.268  10.238 -0.2983  0.2851 -0.3941
 2547W        W 6291   9.667   4.343   1.524 -0.0859 -0.4669  0.0432
 2548W        W 6292   8.927   0.527   2.622  0.0482 -0.0639  0.0391
 2549W        W 6293   6.471   6.359   1.249  0.0384  0.0695 -0.2392
 2550W        W 6294   9.947   1.433   4.733  0.0791 -0.3214  0.0545
 2551W        W 6295   3.281   2.909   1.392 -0.3014 -0.0925  0.3273
 2552W        W 6296   1.734   5.365  11.984 -0.0050 -0.1001 -0.0395
 2553W        W 6297   8.397   7.843   0.558  0.1518  0.0401 -0.3511
 2554W        W 6298   1.192   6.400   4.102  0.2596 -0.1046  0.1948
 2555W        W 6299   4.637   1.557  11.715  0.0571  0.1538 -0.1513
 2556W        W 6300   0.728   5.166   0.536  0.2218 -0.1694  0.0401
 2557W        W 6301   5.146   4.007  10.936  0.0844  0.1902  0.0362
 2558W        W 6302   4.734   5.267   1.795  0.1058  0.0378 -0.1106
 2559W        W 6303   8.513   8.891   1.890 -0.0828  0.4070 -0.0375
 2560W        W 6304   7.301   9.240   2.640  0.0365  0.2558 -0.0020
 2561W        W 6305   5.466   7.007  10.023  0.3324 -0.2245  0.0794
 2562W        W 6306   6.954   1.509   4.718 -0.0334 -0.1324 -0.1733
 2563W        W 6307   8.467   5.313   2.693  0.1679 -0.3336 -0.0534
 2564W        W 6308   3.709   0.067   2.814  0.0259 -0.0785  0.1644
 2565W        W 6309   2.544   0.751  10.555  0.1959 -0.3899  0.1525
 2566W        W 6310   8.563   9.516   0.491  0.1180 -0.4706  0.0915
 2567W        W 6311   3.153   6.785   1.379 -0.2545  0.2748 -0.0111
 2568W        W 6312   2.300   2.987   2.944 -0.0338 -0.0625  0.0522
 2569W        W 6313   4.575   7.122   0.818  0.0043  0.1138 -0.6460
 2570W        W 6314   8.763   6.113  10.762  0.4383 -0.2186  0.2501
 2571W        W 6315   0.550   0.651  10.210  0.0776  0.1848  0.0290
 2572W        W 6316   2.301   1.692  11.879  0.0373 -0.2126 -0.2011
 2573W        W 6317   5.343   7.623   9.637 -0.0611 -0.0882  0.2313
 2574W        W 6318   3.493   6.915   9.398  0.1186 -0.0916 -0.2017
 2575W        W 6319   7.199   1.986   9.216 -0.0189  0.3180 -0.0279
 2576W        W 6320   7.371   5.935  11.757 -0.1828  0.0251 -0.0960
 2577W        W 6321   1.046   1.126   4.998  0.1692  0.1509 -0.5590
 2578W        W 6322   1.421   0.253   3.888 -0.0507  0.0739 -0.2138
 2579W        W 6323   1.812   8.987  10.628 -0.0534  0.3701 -0.0073
 2580W        W 6324   9.370   1.587   9.578 -0.1493  0.3156 -0.0250
 2581W        W 6325   6.804   4.480  10.721 -0.0583 -0.0925 -0.1179
 2582W        W 6326   8.684   4.004   1.716  0.0017  0.0421 -0.0966
 2583W        W 6327   0.621   0.134  12.400 -0.3560  0.2216  0.0367
 2584W        W 6328   7.519   4.966  11.318 -0.1993  0.0076 -0.3821
 2585W        W 6329   7.212   0.744   5.367  0.3123  0.0254 -0.2575
 2586W        W 6330   1.383   8.102   3.754 -0.0870  0.0210 -0.0190
 2587W        W 6331   3.284   8.839   0.974 -0.0498  0.0446  0.0829
 2588W        W 6332   1.338   0.946   8.816 -0.0539 -0.0813 -0.2970
 2589W        W 6333   1.544   6.793   0.810  0.1134  0.0896  0.3743
 2590W        W 6334   6.919   7.877   4.142 -0.0912 -0.0057 -0.4367
 2591W        W 6335   3.761   9.214   2.018 -0.1063  0.0570 -0.0113
 2592W        W 6336   5.467   4.784   3.177 -0.0613  0.2121 -0.1713
 2593W        W 6337   8.586   8.522   0.346  0.2020  0.5847  0.2145
 2594W        W 6338   5.191   7.325  11.495 -0.1866  0.1141 -0.1851
 2595W        W 6339   9.846   3.542  10.626  0.2483 -0.0018  0.0867
 2596W        W 6340   8.300   2.821  10.501  0.0539 -0.0425  0.0753
 2597W        W 6341   8.941   1.599   0.939  0.1328 -0.1506  0.0245
 2598W        W 6342   5.808   3.290   9.633  0.2760 -0.1389 -0.1801
 2599W        W 6343   0.109   3.099   0.237  0.1676  0.1718 -0.0908
 2600W        W 6344   6.524   4.731   9.185 -0.1185 -0.0628  0.0890
 2601W        W 6345   8.460   3.045   1.181 -0.3436  0.3214  0.0479
 2602W        W 6346   2.610   1.940   4.382  0.0066 -0.1807 -0.1395
 2603W        W 6347   1.067   8.544   0.313  0.0011 -0.1096  0.0857
 2604W        W 6348   3.176   8.261   9.380 -0.0797 -0.0911 -0.0289
 2605W        W 6349   7.934   7.572   3.092  0.1213 -0.2555  0.0425
 2606W        W 6350   9.281   6.099   4.960 -0.2521 -0.1947  0.4198
 2607W        W 6351   4.544   0.701   2.026  0.1478 -0.2071  0.0396
 2608W        W 6352   0.142   1.756  11.660 -0.3807 -0.0470 -0.0846
 2609W        W 6353   8.116   0.436  12.698 -0.0886  0.3009  0.1034
 2610W        W 6354   3.228   4.331   0.949  0.1707 -0.0160  0.2569
 2611W        W 6355   2.544   4.715   3.246 -0.0774  0.1373 -0.1254
 2612W        W 6356   2.041   0.649   9.884  0.0519  0.1045  0.0349
 2613W        W 6357   6.129   2.753   8.992 -0.1134  0.1307 -0.2863
 2614W        W 6358   6.273   6.214  10.102 -0.2596 -0.2709 -0.1010
 2615W        W 6359   7.335   9.695   4.133 -0.1129  0.0198 -0.0855
 2616W        W 6360   5.714   0.799  10.293 -0.0957  0.0074  0.3904
 2617W        W 6361   0.102   1.094   9.648 -0.0213 -0.0634 -0.0420
 2618W        W 6362   8.737   1.866   3.984 -0.0554  0.4068 -0.2147
 2619W        W 6363   5.953   1.114   0.187  0.1360  0.4261 -0.1249
 2620W        W 6364   2.687   2.665   0.200 -0.0872  0.4480 -0.1080
 2621W        W 6365   4.027   4.591  10.120 -0.3499 -0.1769  0.3825
 2622W        W 6366   7.488   6.303  12.264 -0.0569 -0.1193  0.0596
 2623W        W 6367   9.258   9.338   9.041 -0.2137 -0.0493 -0.3595
 2624W        W 6368   2.935   1.685   9.737  0.1686 -0.1202 -0.0905
 2625W        W 6369   1.063   9.110   8.835  0.0243 -0.0051  0.0434
 2626W        W 6370   5.894   3.409   2.252  0.0168 -0.0952  0.1761
 2627W        W 6371   1.340   2.960   0.124 -0.1463  0.3719  0.0072
 2628W        W 6372   8.054   2.909   1.009 -0.3412 -0.1143 -0.0799
 2629W        W 6373   8.174   3.521   9.689  0.0682  0.0388  0.1630
 2630W        W 6374   3.549   3.251   0.083 -0.0472  0.0120  0.3395
 2631W        W 6375   3.117   9.671   4.441  0.1294  0.1025  0.2132
 2632W        W 6376   1.956   3.303   3.673  0.0825 -0.0925  0.0587
 2633W        W 6377   3.261   6.136  11.285  0.5072  0.1619  0.0685
 2634W        W 6378   2.080   3.462  12.031 -0.0563 -0.0080  0.0206
 2635W        W 6379   6.642   6.959   0.079 -0.3148 -0.1275  0.2747
 2636W        W 6380   0.446   6.524  11.168 -0.1065  0.0529 -0.2128
 2637W        W 6381   7.667   4.823   0.327  0.2494 -0.0496  0.2958
 2638W        W 6382   0.009   5.620   3.559  0.3493 -0.2000 -0.1151
 2639W        W 6383   6.897   2.429  10.194  0.2606 -0.1206  0.3195
 2640W        W 6384   1.775   0.107   8.888  0.2798 -0.2892  0.2231
 2641W        W 6385   9.725   6.056   2.837  0.0968  0.1263 -0.3408
 2642W        W 6386   2.810   7.398   1.865  0.4176 -0.0709  0.1032
 2643W        W 6387   1.444   7.960   9.344  0.3584  0.1904  0.0625
 2644W        W 6388   3.103   6.087   4.057 -0.3245  0.1292  0.3358
 2645W        W 6389   2.214   9.414   9.961  0.1495 -0.1154  0.0300
 2646W        W 6390   9.912   4.835   3.508 -0.0405  0.1150 -0.0566
 2647W        W 6391   9.460   5.450   4.187 -0.0689  0.1697 -0.1125
 2648W        W 6392   2.107   9.550  10.431 -0.0033  0.2498 -0.1563
 2649W        W 6393   8.237   2.101  11.224 -0.0185 -0.1418  0.0415
 2650W        W 6394   7.554   5.482   9.222  0.0092  0.0920 -0.0793
 2651W        W 6395   4.887   5.129   2.241 -0.1828 -0.0568  0.0813
 2652W        W 6396   2.269   2.930   0.065 -0.0769 -0.2618 -0.0276
 2653W        W 6397   5.857   7.718   3.920 -0.0614  0.0874 -0.1226
 2654W        W 6398   9.137   3.453   3.943 -0.0667  0.1758 -0.0378
 2655W        W 6399   9.724   2.073   9.666  0.0416  0.0352  0.2693
 2656W        W 6400   4.782   8.246  11.533 -0.0570 -0.1192  0.0998
 2657W        W 6401   1.514   2.000   0.571 -0.0741  0.3845  0.0465
 2658W        W 6402   0.899   9.133  12.588 -0.0350 -0.5234  0.0216
 2659W        W 6403   4.941   2.944   0.501  0.3070  0.0589  0.0442
 2660W        W 6404   0.555   9.248  11.434 -0.1985  0.1066 -0.2425
 2661W        W 6405   5.451   1.705   1.212 -0.0389  0.2948  0.3670
 2662W        W 6406   3.844   6.143   3.307  0.0943  0.3749  0.2129
 2663W        W 6407   8.365   5.899   9.092  0.4113  0.1285  0.0965
 2664W        W 6408   7.777   4.645   3.656 -0.1331  0.0980  0.3910
 2665W        W 6409   7.932   3.146   9.526 -0.1047 -0.0865 -0.0109
 2666W        W 6410   2.336   7.264   3.380  0.0139 -0.3901  0.1425
 2667W        W 6411   0.209   1.471   0.069  0.0564  0.1810  0.1716
 2668W        W 6412   6.946   2.589   1.993  0.0426  0.2785  0.2250
 2669W        W 6413   1.284   9.875   1.334  0.2422  0.1179 -0.0502
 2670W        W 6414   1.260   8.016   8.846 -0.1907  0.1128 -0.1934
 2671W        W 6415   9.693   8.524  10.988 -0.2029  0.0627 -0.0747
 2672W        W 6416   7.797   0.464   8.255  0.2361 -0.1948 -0.1163
 2673W        W 6417   7.581   1.267  11.900  0.2488  0.2062 -0.0640
 2674W        W 6418   9.619   2.812   3.617 -0.1985  0.0348  0.2933
 2675W        W 6419   4.802   8.913  10.839  0.4015 -0.0067  0.2924
 2676W        W 6420   3.455   6.438  12.485 -0.2388  0.1425  0.2170
 2677W        W 6421   0.916   4.723  10.847  0.2558  0.0705 -0.3420
 2678W        W 6422   8.464   9.362   3.405  0.2545 -0.2151 -0.1590
 2679W        W 6423   0.111   5.284  11.652  0.1895  0.1133  0.2282
 2680W        W 6424   9.555   4.025   3.144  0.1687  0.0078  0.2703
 2681W        W 6425   8.513   5.369   8.982 -0.3539 -0.1978 -0.1265
 2682W        W 6426   8.137   1.545  10.931  0.1313 -0.0292  0.1437
 2683W        W 6427   1.007   6.707  12.426 -0.0709 -0.0681  0.0523
 2684W        W 6428   0.315   7.262  12.505  0.0926  0.1250 -0.2647
 2685W        W 6429   3.087   8.730  11.368 -0.1253 -0.0697 -0.4078
 2686W        W 6430   7.501   4.147  11.496 -0.1211  0.0934 -0.0719
 2687W        W 6431   3.257   7.341   2.271  0.0053 -0.5025 -0.2054
 2688W        W 6432   7.483   7.976  10.900  0.2311 -0.0420 -0.1089
 2689W        W 6433   9.744   0.168   3.308 -0.0475 -0.1814 -0.0555
 2690W        W 6434   9.606   0.461   4.686 -0.1649  0.1586  0.0892
 2691W        W 6435   0.667   3.850  10.550  0.0455  0.1492 -0.0906
 2692W        W 6436   7.742   8.289   9.500  0.2055  0.4977 -0.3268
 2693W        W 6437   6.210   7.536   0.224 -0.1875 -0.2286  0.1666
 2694W        W 6438   4.368   2.894   1.698 -0.0779 -0.1743 -0.2344
 2695W        W 6439   6.675   5.933   1.222 -0.0505 -0.0346 -0.0986
 2696W        W 6440   6.271   2.289   3.067 -0.1710  0.1919 -0.2523
 2697W        W 6441   4.934   2.124  12.235  0.1181  0.1204 -0.1918
 2698W        W 6442   3.226   0.573   9.271 -0.2812 -0.0278  0.0219
 2699W        W 6443   4.145   3.875   0.735  0.0798 -0.2192 -0.0152
 2700W        W 6444   9.119   8.609   5.199 -0.1263  0.3238  0.0306
 2701W        W 6445   1.903   0.850   0.944 -0.1032 -0.0734  0.0094
 2702W        W 6446   2.288   7.120   0.220  0.1959  0.1957 -0.1209
 2703W        W 6447   3.196   5.104   9.447 -0.0471 -0.1675 -0.0318
 2704W        W 6448   8.552   0.768   2.905 -0.7022  0.0023  0.0888
 2705W        W 6449   7.346   3.442   2.046 -0.1953  0.0349  0.0200
 2706W        W 6450   3.180   5.163  12.421  0.0313  0.4128  0.2833
 2707W        W 6451   2.908   9.096  10.628  0.1527  0.2963 -0.2046
 2708W        W 6452   6.301   1.456  10.621  0.0302 -0.1189  0.0378
 2709W        W 6453   5.810   9.811   8.385 -0.2798  0.0308  0.1401
 2710W        W 6454   8.300   6.833   2.477  0.1661 -0.0151  0.1661
 2711W        W 6455   3.210   1.060   1.892 -0.0636  0.0226  0.2448
 2712W        W 6456   4.920   1.896   1.223  0.0980  0.2687  0.1178
 2713W        W 6457   4.110   3.947   1.256  0.4373  0.1131  0.0476
 2714W        W 6458   0.270   4.920   4.217  0.1939 -0.1274  0.0280
 2715W        W 6459   2.711   1.453   4.253  0.0732 -0.2901 -0.0133
 2716W        W 6460   3.507   0.506  11.669 -0.1287  0.1303 -0.4276
 2717W        W 6461   2.793   9.026   0.973  0.0514  0.3359 -0.0836
 2718W        W 6462   4.377   4.250  10.134 -0.1707  0.0920 -0.2085
 2719W        W 6463   8.703   9.293  12.788 -0.1811  0.0234  0.1777
 2720W        W 6464   7.904   0.068   4.932  0.3175  0.2067 -0.1084
 2721W        W 6465   7.278   9.764   3.160 -0.2838 -0.1508 -0.0761
 2722W        W 6466   2.835   1.056   0.955  0.2165 -0.0882 -0.1827
 2723W        W 6467   2.954   8.828   5.098  0.0749 -0.3097 -0.1304
 2724W        W 6468   6.125   9.291  11.892  0.2175 -0.2678 -0.2040
 2725W        W 6469   3.971   3.006  12.393 -0.4372  0.1540  0.1667
 2726W        W 6470   1.738   9.822   3.797 -0.0365 -0.0076  0.1834
 2727W        W 6471   1.629   8.805   2.658  0.2184 -0.2899  0.1407
 2728W        W 6472   3.625   9.140  12.197 -0.4962 -0.1411 -0.1864
 2729W        W 6473   4.854   2.651  12.125 -0.1625 -0.0063 -0.1092
 2730W        W 6474   4.722   1.913   9.428  0.2757 -0.1653 -0.5990
 2731W        W 6475   3.978   8.675   9.594  0.1194 -0.0117 -0.0772
 2732W        W 6476   4.596   5.810  10.876  0.2297  0.0540 -0.2986
 2733W        W 6477   0.472   2.864   9.347 -0.0151  0.2688  0.0402
 2734W        W 6478   2.964   5.250  11.613 -0.3752  0.0248  0.1665
 2735W        W 6479   9.826   7.194  12.099  0.0650 -0.2235 -0.0435
 2736W        W 6480   0.339   5.660  11.937 -0.1172 -0.0462  0.4391
 2737W        W 6481   4.876   0.242   0.425  0.0301  0.1474  0.0505
 2738W        W 6482   5.518   1.476  12.423  0.0883 -0.0800 -0.2405
 2739W        W 6483   9.880   9.586  11.982 -0.0618 -0.0981  0.2747
 2740W        W 6484   4.992   2.212   1.670 -0.1699  0.0504  0.1847
 2741W        W 6485   6.134   5.931   1.161  0.2687  0.2320 -0.1289
 2742W        W 6486   2.391   4.363   2.625  0.0500 -0.0861 -0.0139
 2743W        W 6487   9.791   9.498   9.144 -0.2629 -0.2006  0.0737
 2744W        W 6488   0.330   9.586   2.133  0.0506 -0.1693  0.1139
 2745W        W 6489   0.357   7.520   0.969 -0.1486  0.1132 -0.2196
 2746W        W 6490   7.443   9.307   0.094 -0.4179  0.0289  0.0795
 2747W        W 6491   6.939   8.900   4.125 -0.1435  0.2858 -0.0395
 2748W        W 6492   4.732   5.368   3.129  0.0102  0.1491 -0.2012
 2749W        W 6493   9.396   3.860   0.734 -0.2521 -0.1038 -0.1071
 2750W        W 6494   5.350   4.467   2.715 -0.0599 -0.2486  0.0216
 2751W        W 6495   4.268   0.699  11.304 -0.1708  0.3370  0.1074
 2752W        W 6496   4.385   6.507   2.664  0.0065  0.3951  0.1342
 2753W        W 6497   3.513   6.724  10.535 -0.2533 -0.1102 -0.0240
 2754W        W 6498   6.583   2.284   2.488  0.0539 -0.0064  0.2816
 2755W        W 6499   3.494   1.047   3.160 -0.1956 -0.1698 -0.0771
 2756W        W 6500   3.215   4.052   3.204  0.1189 -0.0092 -0.0113
 2757W        W 6501   0.204   7.876   9.916 -0.0156  0.2241  0.1658
 2758W        W 6502   0.241   1.905   0.894 -0.2819 -0.1631  0.2374
 2759W        W 6503   6.616   0.139   9.445 -0.2093  0.2169 -0.2115
 2760W        W 6504   8.057   9.489   3.683  0.2106  0.0474 -0.0275
 2761W        W 6505   3.054   6.551   0.930  0.1111  0.0429 -0.4505
 2762W        W 6506   1.172   1.699  11.457  0.2504 -0.4562  0.2912
 2763W        W 6507   2.502   8.898   0.587  0.0223 -0.0373 -0.1453
 2764W        W 6508   0.302   7.398   4.930 -0.0836 -0.3441 -0.0799
 2765W        W 6509   7.316   7.150  12.747  0.1515  0.2670 -0.1597
 2766W        W 6510   3.466   3.640   2.588 -0.2434  0.2076 -0.1255
 2767W        W 6511   8.697   6.530   3.207 -0.0606  0.0586  0.0942
 2768W        W 6512   0.976   3.109  11.862  0.2079  0.3230  0.0779
 2769W        W 6513   4.151   1.001   3.254 -0.0032 -0.0522 -0.0500
 2770W        W 6514   6.172   0.397  11.072 -0.3065  0.0689  0.2721
 2771W        W 6515   3.093   5.575  10.419  0.2126  0.0168 -0.0159
 2772W        W 6516   1.479   7.115   2.229  0.3190 -0.1528 -0.3419
 2773W        W 6517   8.993   6.022  10.270  0.1893  0.2298 -0.2222
 2774W        W 6518   6.957   8.107  11.074 -0.0801 -0.0805  0.2838
 2775W        W 6519   0.483   0.358   0.652 -0.0297  0.2226 -0.1716
 2776W        W 6520   6.454   0.746   1.402 -0.1459 -0.2074 -0.4997
 2777W        W 6521   9.515   3.075   4.039 -0.2283  0.1108 -0.0511
 2778W        W 6522   5.021   5.449   2.683  0.3033  0.0031 -0.0432
 2779W        W 6523   4.866   8.823   1.359 -0.0343  0.1084  0.0580
 2780W        W 6524   9.736   6.625  11.134  0.1481 -0.2894 -0.0672
 2781W        W 6525   0.773   9.949  11.950  0.4337 -0.0308 -0.1246
 2782W        W 6526   6.728   7.501  11.694  0.0184  0.0806 -0.1653
 2783W        W 6527   7.904   5.951  11.600 -0.0895  0.2393  0.4346
 2784W        W 6528   8.946   2.975  12.472  0.1281 -0.0139  0.1875
 2785W        W 6529   6.026   0.455   4.358  0.0511  0.1105 -0.0959
 2786W        W 6530   1.475   2.538  12.576  0.1569 -0.1542 -0.1267
 2787W        W 6531   6.055   2.959   9.967  0.2543  0.1652  0.1126
 2788W        W 6532   0.964   7.516  11.911  0.0950 -0.2975 -0.1010
 2789W        W 6533   9.417   6.244  12.502 -0.0709  0.1103  0.2927
 2790W        W 6534   1.650   5.960   3.972 -0.0203  0.0254  0.2417
 2791W        W 6535   0.127   5.502   3.067  0.2359 -0.0977  0.0432
 2792W        W 6536   4.615   5.276  10.402 -0.0960 -0.1913 -0.1951
 2793W        W 6537   4.558   0.815  10.115 -0.2865 -0.0872  0.0792
 2794W        W 6538   8.307   4.360  10.895 -0.0452  0.1384 -0.4375
 2795W        W 6539   3.446   8.718   3.749  0.1929 -0.0511  0.0458
 2796W        W 6540   5.287   8.313   4.278 -0.0527  0.2706 -0.1813
 2797W        W 6541   8.194   9.811  12.390 -0.0863 -0.2098  0.2803
 2798W        W 6542   8.675   2.130   1.990 -0.1690 -0.3120  0.2287
 2799W        W 6543   1.766   0.106   1.279 -0.2667 -0.0197 -0.0185
 2800W        W 6544   7.747   2.106   1.796 -0.0765 -0.1987 -0.0321
 2801W        W 6545   6.835   1.485   0.718 -0.4367 -0.3575 -0.1925
 2802W        W 6546   8.971   1.697   4.488  0.0898 -0.2009 -0.1366
 2803W        W 6547   7.104   1.284   2.692 -0.0300  0.1795  0.0155
 2804W        W 6548   8.170   0.679   8.786 -0.0824 -0.1509  0.1982
 2805W        W 6549   2.020   0.943  11.647 -0.1045 -0.1694 -0.2060
 2806W        W 6550   1.700   2.359   3.425 -0.1721  0.2215  0.1171
 2807W        W 6551   4.730   8.432   2.903  0.1970  0.0858  0.1954
 2808W        W 6552   0.327   4.215  10.896  0.0689 -0.1535  0.0978
 2809W        W 6553   5.354   1.921   3.189 -0.0733 -0.1476 -0.2653
 2810W        W 6554   6.757   7.972   3.257 -0.0034 -0.0109  0.0259
 2811W        W 6555   0.780   4.575  12.197  0.2119 -0.1527  0.0569
 2812W        W 6556   6.914   4.065  10.517  0.0570 -0.1203  0.3003
 2813W        W 6557   9.097   6.036   9.741  0.0341  0.1456  0.1075
 2814W        W 6558   6.261   1.802   1.696  0.1254  0.1943  0.2342
 2815W        W 6559   3.964   6.049  10.648 -0.0768  0.0262 -0.1399
 2816W        W 6560   4.048   1.829  12.391  0.0633 -0.1640 -0.1978
 2817W        W 6561   1.393   0.750   5.348 -0.0559  0.0381 -0.2215
 2818W        W 6562   2.965   0.165   1.006  0.3015  0.0657  0.0755
 2819W        W 6563   5.972   7.234   9.178  0.2060  0.1950 -0.2564
 2820W        W 6564   2.638   7.769   0.130 -0.1273  0.0827  0.1354
 2821W        W 6565   5.808   4.725   3.531 -0.0747  0.1296 -0.3426
 2822W        W 6566   2.037   3.358  10.072  0.0036  0.0551  0.0425
 2823W        W 6567   1.290   9.789  10.351 -0.2396 -0.1300 -0.1030
 2824W        W 6568   8.594   6.158   2.920 -0.1770  0.0005 -0.1585
 2825W        W 6569   8.956   4.748  12.572 -0.0134  0.2484  0.1670
 2826W        W 6570   0.090   3.055  12.149 -0.1414 -0.4459 -0.2005
 2827W        W 6571   2.717   8.873   1.814  0.0289  0.1941 -0.2280
 2828W        W 6572   4.743   5.479  11.229 -0.0046  0.0934  0.2441
 2829W        W 6573   5.022   4.967   2.802 -0.2001 -0.2627 -0.0091
 2830W        W 6574   6.879   7.035  10.836  0.1187 -0.0954  0.1536
 2831W        W 6575   2.727   9.532   2.701  0.2063  0.2405 -0.1594
 2832W        W 6576   0.887   9.350  11.915 -0.0399 -0.1307 -0.2498
 2833W        W 6577   2.621   0.597   0.235  0.1868  0.1854 -0.0438
 2834W        W 6578   6.157   4.030  10.047 -0.0428  0.0237  0.0640
 2835W        W 6579   8.081   8.227   1.620 -0.3044 -0.1334 -0.1446
 2836W        W 6580   2.528   6.845   3.540  0.0775  0.0794 -0.2040
 2837W        W 6581   6.959   0.670   2.603  0.1223 -0.0008 -0.1122
 2838W        W 6582   3.434   3.580  12.529 -0.1661 -0.1644 -0.0572
 2839W        W 6583   6.851   3.578   0.867  0.0884  0.0411  0.3282
 2840W        W 6584   1.484   0.127   3.294 -0.0018  0.1199 -0.2793
 2841W        W 6585   4.662   9.133   3.522  0.1481  0.0942  0.0095
 2842W        W 6586   7.277   6.821   3.261 -0.3348  0.0075  0.0224
 2843W        W 6587   6.772   2.312   4.099  0.1934 -0.0343  0.6215
 2844W        W 6588   0.324   0.720   2.181 -0.0161  0.0402  0.0098
 2845W        W 6589   6.621   8.066   0.691 -0.0288 -0.1692 -0.3283
 2846W        W 6590   8.819   3.458   2.823 -0.0697 -0.2084 -0.0889
 2847W        W 6591   8.302   6.685   0.699 -0.3541  0.0410 -0.2126
 2848W        W 6592   2.897   9.880   3.053  0.1010  0.2028  0.0024
 2849W        W 6593   8.173   4.307   2.481  0.0819  0.0785 -0.0003
 2850W        W 6594   8.234   9.596   9.647 -0.2648  0.0011  0.0686
 2851W        W 6595   1.149   3.615  11.952  0.2619  0.0200  0.1652
 2852W        W 6596   9.664   3.523  11.477  0.0063  0.2410  0.0143
 2853W        W 6597   5.439   7.382  10.512 -0.0521  0.1581  0.1619
 2854W        W 6598   7.846   7.386   1.877 -0.1206  0.1358  0.3793
 2855W        W 6599   2.403   1.360   1.752  0.0390 -0.0437  0.0497
 2856W        W 6600   5.493   4.287   3.176  0.4621 -0.1866  0.2183
 2857W        W 6601   2.016   1.100   1.306  0.0127 -0.0006 -0.0920
 2858W        W 6602   2.339   2.746  10.843  0.0262  0.0542  0.3724
 2859W        W 6603   7.680   1.683   1.507 -0.1282 -0.1521 -0.1546
 2860W        W 6604   4.979   0.589  11.661  0.1876 -0.0197 -0.0590
 2861W        W 6605   7.339   0.868  12.163 -0.2418  0.3424 -0.1741
 2862W        W 6606   6.337   8.228   9.487  0.5086  0.2733 -0.1060
 2863W        W 6607   8.530   8.198   3.321 -0.0935 -0.1824  0.1479
 2864W        W 6608   7.439   5.984   8.569  0.1978 -0.1732 -0.2131
 2865W        W 6609   3.355   3.744   0.803 -0.2305 -0.0488 -0.1009
 2866W        W 6610   7.060   2.475   9.274  0.0017 -0.4020 -0.2323
 2867W        W 6611   6.379   4.237   2.022  0.2038 -0.0937  0.0460
 2868W        W 6612   7.442   1.949   3.639  0.1396 -0.1441  0.0224
 2869W        W 6613   1.566   6.790   4.109 -0.1768 -0.3330 -0.0653
 2870W        W 6614   8.673   7.108   2.952  0.1457 -0.0008  0.4119
 2871W        W 6615   8.508   7.296   9.521  0.0425 -0.1588 -0.1982
 2872W        W 6616   6.483   9.691   4.233 -0.0554 -0.0486 -0.0326
 2873W        W 6617   0.385   8.372   9.682  0.1071  0.1107 -0.4119
 2874W        W 6618   9.106   0.014   2.737  0.2833  0.2634 -0.0968
 2875W        W 6619   0.476   9.806  10.328  0.2282  0.0075 -0.2933
 2876W        W 6620   5.655   6.323   1.110  0.2417  0.0931  0.0671
 2877W        W 6621   8.380   0.282  10.292  0.1760  0.3027  0.2618
 2878W        W 6622   3.253   8.170  12.026  0.2372 -0.0606 -0.1630
 2879W        W 6623   9.393   2.703   4.470 -0.2969 -0.1387  0.1011
 2880W        W 6624   9.779   2.541   2.168 -0.3343 -0.1107 -0.2092
 2881W        W 6625   2.562   1.855  12.307  0.1932 -0.0541 -0.0043
 2882W        W 6626   5.612   6.137   2.886  0.2301 -0.3197  0.1459
 2883W        W 6627   0.789   7.685   1.482 -0.1902  0.2003  0.2034
 2884W        W 6628   9.085   2.716   8.979  0.1056  0.1232  0.0614
 2885W        W 6629   1.785   3.030  12.715 -0.1186  0.0943  0.0848
 2886W        W 6630   1.675   5.043   1.769  0.2308 -0.3450 -0.0817
 2887W        W 6631   7.424   1.134   9.621  0.0378 -0.0741 -0.1531
 2888W        W 6632   8.198   2.701  12.816  0.0664  0.1271  0.0616
 2889W        W 6633   2.906   1.526  12.499 -0.2433 -0.2012 -0.0600
 2890W        W 6634   3.388   4.184   2.436  0.1430  0.1345 -0.1569
 2891W        W 6635   3.142   4.126   3.718  0.0836  0.4410  0.1970
 2892W        W 6636   8.249   2.108   1.106 -0.0113  0.0012 -0.0643
 2893W        W 6637   8.234   3.788   2.394 -0.0110  0.2268 -0.2488
 2894W        W 6638   7.503   0.702   9.961 -0.1079  0.0426  0.2765
 2895W        W 6639   1.881   9.703   9.668 -0.0277 -0.0468 -0.1275
 2896W        W 6640   0.664   2.311   0.477 -0.2136  0.0533 -0.1861
 2897W        W 6641   5.718   0.667   3.465  0.0945 -0.4500  0.0632
 2898W        W 6642   3.969   1.954   2.852  0.0993  0.2040  0.1018
 2899W        W 6643   5.248   1.928   2.602  0.0588 -0.0231 -0.1868
 2900W        W 6644   1.825   0.384   4.174  0.0059  0.0761 -0.0403
 2901W        W 6645   1.916   9.281   5.031  0.0451  0.0799 -0.0519
 2902W        W 6646   1.441   6.309   1.434  0.0991 -0.1953  0.0008
 2903W        W 6647   0.746   2.197   1.678  0.1724  0.1908  0.4371
 2904W        W 6648   8.615   9.818   0.104  0.0626  0.2669 -0.1549
 2905W        W 6649   9.566   4.507  12.573  0.2007 -0.0785  0.5847
 2906W        W 6650   8.324   1.366   2.189  0.5034 -0.0069  0.0507
 2907W        W 6651   7.156   5.830   9.612  0.2372 -0.0017  0.3285
 2908W        W 6652   4.581   4.490   3.450 -0.1752  0.1081  0.3031
 2909W        W 6653   7.600   7.384   8.405 -0.1243 -0.0630 -0.1994
 2910W        W 6654   1.050   0.652  10.188 -0.1268 -0.0081  0.2880
 2911W        W 6655   2.615   2.570   2.896 -0.1895  0.0293 -0.1263
 2912W        W 6656   0.249   6.360   2.545  0.1905 -0.2365 -0.1918
 2913W        W 6657   7.368   6.841  10.816  0.1500  0.0482 -0.2168
 2914W        W 6658   1.614   8.681   8.126  0.2219 -0.1524 -0.1558
 2915W        W 6659   9.260   6.974   2.640  0.1557  0.1027  0.1301
 2916W        W 6660   4.007   0.450  11.766  0.0697  0.1556  0.4689
 2917W        W 6661   5.570   2.234   2.287 -0.3528  0.0541 -0.1086
 2918W        W 6662   5.719   9.293   0.860  0.2009  0.0405  0.0470
 2919W        W 6663   0.738   2.625   4.499  0.3077  0.0232 -0.0505
 2920W        W 6664   3.558   3.691  10.522  0.1030  0.0163  0.0507
 2921W        W 6665   9.771   1.857   9.170  0.8097  0.0399 -0.1916
 2922W        W 6666   1.767   7.148   0.500  0.1034 -0.0460  0.1012
 2923W        W 6667   3.255   3.558   3.860  0.0101 -0.3529  0.2392
 2924W        W 6668   6.586   1.870   5.370  0.0149 -0.0831  0.3239
 2925W        W 6669   8.628   0.107  12.449  0.1529  0.2119  0.0444
 2926W        W 6670   8.939   3.046   9.447 -0.2628 -0.0601  0.0511
 2927W        W 6671   8.297   3.902  11.475  0.0779 -0.1512  0.2345
 2928W        W 6672   1.092   7.290   1.595  0.2568 -0.0449  0.1575
 2929W        W 6673   1.738   4.667  10.362 -0.2152  0.1384  0.1308
 2930W        W 6674   0.231   7.641   2.809  0.0522  0.1759  0.2490
 2931W        W 6675   2.159   3.760  11.085  0.2124 -0.0398 -0.0897
 2932W        W 6676   4.760   1.473  10.996 -0.1667  0.0246  0.0017
 2933W        W 6677   3.656   4.385  11.229  0.0786 -0.1305  0.1323
 2934W        W 6678   8.447   0.296  11.203  0.1164  0.1019 -0.5630
 2935W        W 6679   9.344   8.314  10.700  0.0538 -0.0507  0.0942
 2936W        W 6680   6.534   0.741  10.814  0.2165  0.3709  0.0891
 2937W        W 6681   6.475   2.654   1.207 -0.1122 -0.0634  0.3018
 2938W        W 6682   9.500   2.872   2.530 -0.1154 -0.1638 -0.0130
 2939W        W 6683   3.583   6.486  12.005 -0.3130 -0.1577 -0.0268
 2940W        W 6684   7.986   9.373   1.200  0.0684  0.0228 -0.3341
 2941W        W 6685   4.015   4.441   0.437  0.2125  0.1619  0.0256
 2942W        W 6686   6.037   5.648   0.136 -0.1069  0.1101  0.3431
 2943W        W 6687   0.538   7.050   0.918  0.2658 -0.1482  0.1469
 2944W        W 6688   5.941   9.212   0.032  0.0090  0.1613 -0.0095
 2945W        W 6689   1.574   5.062   3.061 -0.0602  0.0671  0.0273
 2946W        W 6690   9.184   5.792   1.725 -0.1633  0.1730 -0.0397
 2947W        W 6691   9.847   2.379   1.702 -0.0508  0.1639  0.1232
 2948W        W 6692   6.915   1.684   2.451 -0.3750 -0.3836  0.0532
 2949W        W 6693   0.250   1.848   8.910 -0.1589  0.0569 -0.1803
 2950W        W 6694   5.542   0.830   0.279  0.1488  0.1554  0.3907
 2951W        W 6695   7.667   6.313   3.306  0.0784 -0.2546  0.0425
 2952W        W 6696   9.261   5.614   1.113  0.0922  0.3109 -0.2231
 2953W        W 6697   0.892   9.368   2.700  0.1134  0.2305 -0.0258
 2954W        W 6698   4.655   8.100  12.153  0.0231  0.1277 -0.2876
 2955W        W 6699   0.663   4.644   4.085 -0.2906 -0.2363 -0.2315
 2956W        W 6700   5.224   8.495  10.134 -0.2522  0.1158 -0.0869
 2957W        W 6701   9.347   9.688   0.939 -0.0660 -0.0841  0.1134
 2958W        W 6702   5.225   4.598   0.702  0.0491  0.4949  0.0858
 2959W        W 6703   1.766   0.201   9.849  0.0356  0.3849 -0.1386
 2960W        W 6704   0.185   6.080   1.517  0.0955 -0.0689 -0.1252
 2961W        W 6705   8.825   6.703   2.706  0.4346 -0.3030 -0.0932
 2962W        W 6706   6.341   6.404  11.736 -0.2025  0.0205 -0.3399
 2963W        W 6707   7.038   7.834  10.647 -0.1105  0.2689 -0.1041
 2964W        W 6708   9.609   0.742   5.183 -0.3301 -0.0980 -0.1475
 2965W        W 6709   3.603   4.051   2.906  0.0282  0.0039  0.1322
 2966W        W 6710   1.992   6.149  11.646  0.0870 -0.1231  0.2578
 2967W        W 6711   5.576   0.087  12.368 -0.0174  0.3622 -0.2118
 2968W        W 6712   5.449   1.566  10.322 -0.1849 -0.0468  0.0264
 2969W        W 6713   2.368   2.302  10.153  0.0754 -0.2903 -0.1351
 2970W        W 6714   0.462   6.765  10.722 -0.0091  0.2929  0.1122
 2971W        W 6715   8.937   8.938   2.227  0.1297  0.4044 -0.1391
 2972W        W 6716   9.937   8.161   2.014 -0.0705 -0.1268 -0.0162
 2973W        W 6717   5.247   7.670   0.328 -0.0830  0.1539 -0.0138
 2974W        W 6718   6.141   9.333  11.344  0.0156 -0.2317  0.0401
 2975W        W 6719   1.745   3.730   0.565  0.2038 -0.1538 -0.1443
 2976W        W 6720   6.815   9.083  12.503  0.0094 -0.1876 -0.4187
 2977W        W 6721   6.960   9.005  11.174 -0.0006  0.4414 -0.1257
 2978W        W 6722   6.592   9.860  10.680 -0.3213 -0.0722  0.0252
 2979W        W 6723   5.847   4.232  11.541 -0.2883  0.0263  0.0635
 2980W        W 6724   3.826   0.936  12.446  0.1272  0.2709  0.0444
 2981W        W 6725   2.353   4.155  12.083 -0.0837 -0.0992 -0.0751
 2982W        W 6726   3.529   2.626  12.007  0.0859 -0.1286 -0.1120
 2983W        W 6727   8.108   2.335  10.150 -0.0209 -0.3661  0.0419
 2984W        W 6728   0.091   9.912   1.502  0.1092 -0.3252 -0.2139
 2985W        W 6729   8.115   8.237   0.796  0.1348  0.0493 -0.2091
 2986W        W 6730   8.800   4.863  10.383 -0.0242 -0.1400 -0.0831
 2987W        W 6731   4.382   8.160   2.223  0.3442 -0.0170  0.0950
 2988W        W 6732   7.649   3.713   3.703 -0.2006 -0.0322 -0.2292
 2989W        W 6733   5.608   8.191  10.859  0.3315  0.1839 -0.0219
 2990W        W 6734   1.035   9.148  10.329  0.3170  0.0420 -0.0608
 2991W        W 6735   3.470   6.103  11.751  0.3370  0.0953 -0.1254
 2992W        W 6736   3.509   7.118   1.446  0.2390 -0.3332  0.1219
 2993W        W 6737   4.513   6.127   4.160 -0.1495 -0.0904 -0.0279
 2994W        W 6738   7.349   1.257   8.866  0.0615  0.0562  0.3584
 2995W        W 6739   4.073   8.717   1.304 -0.0506  0.0012  0.1037
 2996W        W 6740   6.047   8.633  12.400 -0.0669  0.0418 -0.0878
 2997W        W 6741   3.659   7.436  11.884  0.2572 -0.0082 -0.1477
 2998W        W 6742   4.508   4.227   0.817  0.4206 -0.1457 -0.3454
 2999W        W 6743   1.137   9.668  12.635  0.2499 -0.0520 -0.1468
 3000W        W 6744   4.675   3.454   1.549 -0.0553  0.3545 -0.2197
 3001W        W 6745   9.320   1.763   4.170 -0.3878 -0.1854  0.1310
 3002W        W 6746   8.448   4.114  10.373 -0.0571  0.2087  0.1230
 3003W        W 6747   2.421   7.215   3.899 -0.1265  0.2261 -0.0286
 3004W        W 6748   5.253   0.321  12.038 -0.1136  0.3908 -0.3616
 3005W        W 6749   7.753   0.051  12.000 -0.0072 -0.2670  0.0532
 3006W        W 6750   9.341   5.825   2.583  0.4416  0.3740  0.0342
 3007W        W 6751   8.005   8.670  12.183  0.1505 -0.2026 -0.0030
 3008W        W 6752   7.296   6.449   4.159  0.1450 -0.2932 -0.0577
 3009W        W 6753   0.278   3.716  10.826 -0.2392  0.0276 -0.0821
 3010W        W 6754   0.265   4.278  11.473  0.1533 -0.0445 -0.3331
 3011W        W 6755   3.840   6.235  11.437  0.2235 -0.1203  0.0671
 3012W        W 6756   1.586   7.034  11.677  0.1256 -0.1538 -0.2746
 3013W        W 6757   7.152   6.233  10.362  0.0658  0.0906  0.0323
 3014W        W 6758   0.472   0.316  10.583 -0.0847 -0.1840 -0.1033
 3015W        W 6759   7.204   3.677   4.397 -0.2323 -0.0476  0.1976
 3016W        W 6760   0.115   0.235   5.128 -0.0530 -0.2673  0.2282
 3017W        W 6761   7.349   6.704   9.088 -0.1378 -0.2305  0.1803
 3018W        W 6762   8.140   6.319   8.978  0.1719  0.0056 -0.1167
 3019W        W 6763   8.125   1.312   1.639  0.0457  0.1361  0.0258
 3020W        W 6764   4.601   2.839   0.035 -0.1773 -0.0764  0.0556
 3021W        W 6765   3.158   0.832   3.706 -0.0202  0.0415  0.2909
 3022W        W 6766   1.918   0.860   4.150  0.3377 -0.3745 -0.1866
 3023W        W 6767   0.332   2.382   1.936  0.0391  0.2239 -0.0226
 3024W        W 6768   6.624   6.243   2.978 -0.0672 -0.0660  0.0579
 3025W        W 6769   2.435   9.250   0.125  0.0205  0.2520  0.1296
 3026W        W 6770   7.617   6.456   1.423 -0.1124  0.1788  0.1568
 3027W        W 6771   6.057   1.037   1.748  0.2249 -0.2345  0.0730
 3028W        W 6772   5.231   2.828   0.111  0.1095 -0.0665  0.0492
 3029W        W 6773   2.421   4.140  10.105 -0.0850  0.2260 -0.1958
 3030W        W 6774   8.955   0.586  10.290  0.2461  0.4296 -0.0150
 3031W        W 6775   3.067   4.520   3.274  0.0425 -0.2425 -0.4114
 3032W        W 6776   3.106   0.711   3.212  0.0624  0.1220 -0.1671
 3033W        W 6777   0.181   5.877   1.052 -0.1340 -0.1709  0.1577
 3034W        W 6778   9.013   3.500   2.374  0.1513  0.0672  0.2017
 3035W        W 6779   3.867   2.505  12.347 -0.1162  0.3252 -0.0244
 3036W        W 6780   8.968   8.037  10.567 -0.1096  0.0996  0.0355
 3037W        W 6781   6.787   4.991   9.602 -0.1129 -0.1232  0.0012
 3038W        W 6782   7.682   9.014   2.993  0.2038 -0.1889  0.2052
 3039W        W 6783   6.915   3.497   0.386  0.1223 -0.0669  0.0548
 3040W        W 6784   1.702   9.638  10.118 -0.1419 -0.0594 -0.5225
 3041W        W 6785   4.985   5.245  10.815  0.1377 -0.0589  0.0384
 3042W        W 6786   4.339   7.236   9.627  0.1230  0.1202 -0.1248
 3043W        W 6787   5.294   0.943  11.481  0.2266  0.0018 -0.0445
 3044W        W 6788   3.418   3.117  11.829  0.2071  0.2499  0.0986
 3045W        W 6789   7.968   7.162   9.791 -0.1542 -0.3150 -0.3853
 3046W        W 6790   6.220   7.299   3.640  0.1242 -0.2064  0.3279
 3047W        W 6791   3.703   1.903   9.847 -0.0816  0.0995  0.0783
 3048W        W 6792   4.163   7.163  11.032  0.1382 -0.0804  0.1673
 3049W        W 6793   6.116   0.411   2.477  0.2351 -0.6252 -0.0151
 3050W        W 6794   8.618   4.764   0.282  0.1224  0.2135  0.1566
 3051W        W 6795   5.186   9.695   4.789  0.0857 -0.0709 -0.3715
 3052W        W 6796   7.748   9.193  11.303 -0.1550  0.1663 -0.2398
 3053W        W 6797   5.292   7.872   8.911 -0.1317 -0.2398 -0.2643
 3054W        W 6798   9.149   0.509   5.038 -0.1095  0.2746 -0.2591
 3055W        W 6799   6.204   0.583   1.847  0.1017  0.3109 -0.5258
 3056W        W 6800   9.119   7.261   2.965  0.0225  0.2744  0.0401
 3057W        W 6801   5.713   2.556   1.927 -0.1265 -0.1569  0.1302
 3058W        W 6802   4.893   5.615   0.186 -0.0853 -0.1989 -0.0004
 3059W        W 6803   7.413   2.808  11.227  0.0334 -0.1338 -0.0907
 3060W        W 6804   7.115   9.868  11.227  0.1621 -0.2106 -0.3252
 3061W        W 6805   2.358   0.627   9.441  0.0412 -0.2818  0.2268
 3062W        W 6806   6.406   0.243   0.374  0.0912 -0.1813 -0.1359
 3063W        W 6807   0.884   4.609   2.410 -0.0815 -0.2750 -0.1060
 3064W        W 6808   5.455   8.855   1.728 -0.0924  0.0803 -0.0643
 3065W        W 6809   4.642   7.136  12.282  0.0393  0.2498 -0.1698
 3066W        W 6810   9.577   5.995   9.478 -0.0343  0.0368 -0.1845
 3067W        W 6811   6.144   1.621   3.613  0.2736 -0.4114 -0.1684
 3068W        W 6812   0.636   6.394   2.151  0.3052  0.1067 -0.2169
 3069W        W 6813   2.473   7.448   8.360 -0.2298  0.1373 -0.3027
 3070W        W 6814   9.374   7.671   2.172 -0.0982 -0.0967  0.0721
 3071W        W 6815   4.427   8.632   3.418  0.1591 -0.1735 -0.0515
 3072W        W 6816   5.871   2.550   2.726  0.1259  0.1379  0.1260
 3073W        W 6817   8.346   8.705   0.855 -0.2677  0.1485  0.1134
 3074W        W 6818   5.774   6.117  10.047 -0.0206  0.1387 -0.1527
 3075W        W 6819   4.744   3.440  12.218  0.1432  0.5108 -0.1749
 3076W        W 6820   0.715   4.719   0.200 -0.0631 -0.1032 -0.1429
 3077W        W 6821   8.916   0.565   9.383 -0.0655 -0.1099  0.0946
 3078W        W 6822   9.256   1.801  10.022  0.3612  0.0546 -0.1702
 3079W        W 6823   1.649   2.599   9.842 -0.3401 -0.2174  0.0700
 3080W        W 6824   4.124   0.974   4.972  0.0896 -0.0346  0.2334
 3081W        W 6825   1.890   3.774   3.961 -0.0911  0.2170 -0.1812
 3082W        W 6826   3.918   1.629   3.872  0.2094  0.3205  0.2652
 3083W        W 6827   9.371   0.528   1.900  0.0936  0.0306 -0.1349
 3084W        W 6828   7.722   3.602  10.726  0.0202  0.2925 -0.1053
 3085W        W 6829   9.858   0.474   1.161 -0.0764 -0.1270  0.1490
 3086W        W 6830   1.228   4.855   2.763 -0.1912 -0.0817 -0.3203
 3087W        W 6831   0.182   1.107  10.829 -0.3547  0.2644  0.0750
 3088W        W 6832   1.638   2.531   4.580 -0.1330  0.5287 -0.1802
 3089W        W 6833   5.425   7.051   3.655  0.1583  0.1580  0.1400
 3090W        W 6834   3.024   0.867   0.054  0.1883  0.0876 -0.4794
 3091W        W 6835   1.525   4.414   2.795 -0.0597 -0.1380  0.0379
 3092W        W 6836   9.464   5.139   9.914  0.2108 -0.0935  0.2701
 3093W        W 6837   8.360   1.916  10.025  0.0271  0.0198 -0.2298
 3094W        W 6838   8.961   3.608   1.715 -0.0264 -0.1348 -0.0551
 3095W        W 6839   4.718   4.263  10.519  0.1929  0.0259  0.0590
 3096W        W 6840   7.686   2.274   3.996 -0.0167  0.0075  0.0739
 3097W        W 6841   8.302   5.966  11.127  0.2996 -0.1852 -0.1177
 3098W        W 6842   9.055   1.318   9.945 -0.1298  0.0060  0.0050
 3099W        W 6843   9.327   1.414  12.077 -0.0786  0.1617 -0.2614
 3100W        W 6844   8.401   9.769  10.484 -0.1254 -0.0993 -0.0196
 3101W        W 6845   7.810   3.267   0.574  0.3570  0.1000  0.0296
 3102W        W 6846   8.062   1.458  10.152 -0.3555 -0.1408 -0.2057
 3103W        W 6847   0.520   3.815   3.417 -0.1686  0.0623  0.3997
 3104W        W 6848   1.870   4.391   9.481  0.3322 -0.1800 -0.1969
 3105W        W 6849   3.582   9.932   3.704  0.0033  0.2004  0.0488
 3106W        W 6850   0.421   0.481   4.320  0.1834 -0.0423 -0.0714
 3107W        W 6851   4.284   0.703   1.569  0.0079  0.1920  0.2056
 3108W        W 6852   8.235   5.018   1.402 -0.5797  0.3345  0.0446
 3109W        W 6853   1.996   8.739   0.876  0.0482 -0.2908 -0.0032
 3110W        W 6854   2.066   6.879  12.682 -0.2804 -0.2955 -0.1583
 3111W        W 6855   0.419   5.109  12.053  0.0570 -0.0668  0.0437
 3112W        W 6856   2.086   6.427   2.107  0.2039  0.1382 -0.1694
 3113W        W 6857   5.988   9.450   4.136  0.0290  0.4417 -0.1681
 3114W        W 6858   1.857   7.351   3.276  0.1392 -0.1477 -0.3305
 3115W        W 6859   3.877   8.940  10.661  0.1223 -0.1916 -0.0288
 3116W        W 6860   5.426   6.276  10.480  0.1293 -0.4911  0.2541
 3117W        W 6861   3.703   5.033   9.655  0.0509  0.0042 -0.0722
 3118W        W 6862   6.344   2.831   3.587 -0.1973  0.1119 -0.0858
 3119W        W 6863   1.254   2.287   3.806 -0.2233 -0.4387 -0.0134
 3120W        W 6864   9.695   8.565  12.272 -0.0538  0.1061  0.0854
 3121W        W 6865   1.119   8.383   3.333  0.0859  0.1676  0.0212
 3122W        W 6866   8.973   5.734   4.309  0.0820 -0.2390  0.2839
 3123W        W 6867   4.402   8.970  12.626 -0.1919 -0.2337 -0.1095
 3124W        W 6868   0.961   0.065   4.846 -0.2665  0.3823  0.0357
 3125W        W 6869   4.024   1.837   1.369 -0.0310  0.3263 -0.2413
 3126W        W 6870   0.115   4.756   1.567  0.1972  0.0466  0.0870
 3127W        W 6871   7.507   0.473  11.874 -0.0245 -0.1040  0.0816
 3128W        W 6872   3.345   5.079  10.746  0.0668 -0.2797  0.0008
 3129W        W 6873   8.232   7.596   1.533  0.1339 -0.0374 -0.0502
 3130W        W 6874   5.066   6.579  10.764  0.1072  0.2284 -0.2292
 3131W        W 6875   3.532   1.491   0.393 -0.0111 -0.4286  0.1650
 3132W        W 6876   6.243   8.197   3.295  0.2351 -0.0679 -0.0751
 3133W        W 6877   1.662   1.616   2.782  0.0803 -0.0742 -0.0732
 3134W        W 6878   9.658   1.389  10.757 -0.1696  0.0197  0.1373
 3135W        W 6879   5.034   4.615  11.510  0.3210  0.2012  0.0720
 3136W        W 6880   7.185   9.262   0.530  0.2638 -0.1105  0.1109
 3137W        W 6881   9.624   7.664   3.535  0.0317  0.3722  0.1761
 3138W        W 6882   2.534   8.827   1.367  0.1358 -0.1983  0.0760
 3139W        W 6883   1.571   6.573   2.210 -0.2215  0.2536  0.0516
 3140W        W 6884   3.740   7.451   3.389  0.1304 -0.0579  0.0750
 3141W        W 6885   3.063   3.330   0.642  0.0920 -0.0318  0.3517
 3142W        W 6886   0.910   8.110   0.398 -0.2906  0.2138  0.0029
 3143W        W 6887   9.853   7.063   4.937 -0.0984 -0.1958  0.0843
 3144W        W 6888   8.792   5.713   7.558  0.2717 -0.1569  0.1421
 3145W        W 6889   8.870   4.483   8.408 -0.2187  0.0329  0.0169
 3146W        W 6890   9.196   3.512   9.412  0.3576 -0.2432 -0.3846
 3147W        W 6891   6.780   0.607   3.929  0.2075  0.1582 -0.1361
 3148W        W 6892   6.397   1.782  10.267 -0.3298  0.0433 -0.1132
 3149W        W 6893   7.594   9.414   8.443  0.0245 -0.0239 -0.1512
 3150W        W 6894   6.287   3.855  12.083  0.0897 -0.3483  0.0264
 3151W        W 6895   2.934   8.255  12.381  0.2776  0.1080  0.0896
 3152W        W 6896   0.317   2.053   3.182  0.2994  0.0333  0.0268
 3153W        W 6897   6.118   4.999  11.391  0.0515 -0.0979  0.3282
 3154W        W 6898   6.289   6.610   1.702  0.1359 -0.0100  0.1694
 3155W        W 6899   8.726   8.788  12.616  0.2947 -0.0343  0.2516
 3156W        W 6900   4.192   3.555  12.153  0.0878  0.2137 -0.1684
 3157W        W 6901   4.272   7.216   3.181 -0.1944 -0.0978 -0.0469
 3158W        W 6902   9.923   3.810   0.785  0.1512  0.0026 -0.2644
 3159W        W 6903   5.693   4.208  10.211 -0.0742  0.3341 -0.0213
 3160W        W 6904   4.899   5.608  11.676 -0.2623  0.2097  0.0895
 3161W        W 6905   1.860   6.472  11.257 -0.1576  0.0301  0.1002
 3162W        W 6906   2.337   7.390   0.891 -0.1549 -0.0349  0.0301
 3163W        W 6907   0.775   9.460   2.218  0.3002 -0.1205  0.2457
 3164W        W 6908   6.281   7.340  12.064 -0.3400 -0.1169 -0.0065
 3165W        W 6909   5.407   6.317   9.312 -0.0851  0.2717  0.0216
 3166W        W 6910   2.700   1.805  10.175 -0.2069  0.2946 -0.0106
 3167W        W 6911   4.519   1.101  12.219 -0.4866  0.2573  0.0618
 3168W        W 6912   0.291   5.540   0.160 -0.0743  0.1253 -0.1713
 3169W        W 6913   5.884   4.511  11.101 -0.2521 -0.0758 -0.3033
 3170W        W 6914   4.884   5.135  12.682  0.1250 -0.0317  0.0517
 3171W        W 6915   2.163   1.080   9.562  0.1569 -0.0220 -0.1524
 3172W        W 6916   6.182   8.804   4.428  0.2493  0.1988  0.1291
 3173W        W 6917   8.210   7.272   2.782 -0.1406  0.0673 -0.0709
 3174W        W 6918   9.081   1.071   3.481  0.1965 -0.0619  0.1605
 3175W        W 6919   8.307   7.346  12.533  0.2229 -0.2902  0.0484
 3176W        W 6920   5.524   4.476   2.000  0.2402  0.0531 -0.1195
 3177W        W 6921   8.356   8.620   3.990 -0.2230 -0.3930 -0.1135
 3178W        W 6922   3.066   0.452   4.781 -0.1330 -0.3460  0.1486
 3179W        W 6923   3.959   6.527  12.320  0.2262 -0.0105 -0.2372
 3180W        W 6924   9.187   6.608   0.495 -0.0678 -0.2483  0.1440
 3181W        W 6925   4.118   7.788   1.950 -0.1351 -0.2262  0.0821
 3182W        W 6926   9.158   2.630   3.967  0.2143 -0.0384  0.0213
 3183W        W 6927   1.009   9.334   3.658 -0.4145 -0.1116  0.3368
 3184W        W 6928   8.172   8.531  10.660  0.2662 -0.1284 -0.1073
 3185W        W 6929   5.343   5.881  10.145  0.0357 -0.3803 -0.2558
 3186W        W 6930   2.283   3.535   3.310 -0.1133 -0.1216 -0.0201
 3187W        W 6931   8.822   3.817  11.529  0.1517 -0.1052 -0.2836
 3188W        W 6932   9.808   5.308   0.417 -0.1605  0.0957 -0.1729
 3189W        W 6933   4.474   0.272   2.330 -0.1717 -0.4518  0.0073
 3190W        W 6934   6.263   4.080   3.016 -0.1272  0.0013 -0.0333
 3191W        W 6935   4.239   9.600  10.935 -0.3765 -0.0912 -0.2687
 3192W        W 6936   9.321   5.226   0.513  0.0356  0.0440  0.0015
 3193W        W 6937   6.498   1.825   3.262 -0.0143 -0.3195  0.2510
 3194W        W 6938   5.135   9.696  11.762  0.1441 -0.0801  0.3189
 3195W        W 6939   8.229   3.146   3.903  0.0227  0.1833 -0.0877
 3196W        W 6940   2.603   0.158  11.877 -0.1676  0.1880  0.1112
 3197W        W 6941   8.204   0.124  10.796 -0.1091 -0.1997 -0.0218
 3198W        W 6942   8.037   4.864  10.129  0.1590  0.0420  0.1008
 3199W        W 6943   9.718   9.079  12.817 -0.1392 -0.1170  0.0545
 3200W        W 6944   9.288   0.925  10.778 -0.1043 -0.0545 -0.0907
 3201W        W 6945   2.949   4.432   0.091 -0.2364  0.3225 -0.0731
 3202W        W 6946   3.021   4.915  12.000  0.0194  0.0681 -0.0105
 3203W        W 6947   6.265   8.390   1.039  0.1529 -0.3087  0.0185
 3204W        W 6948   5.693   7.474  10.052  0.0935  0.1174 -0.1463
 3205W        W 6949   8.622   5.265   9.476 -0.1785 -0.0176 -0.0614
 3206W        W 6950   1.381   5.077  10.386 -0.2601  0.2011  0.1040
 3207W        W 6951   8.711   4.783   4.124  0.1307  0.1266  0.2027
 3208W        W 6952   7.378   5.155   1.360  0.1466  0.1026 -0.0857
 3209W        W 6953   8.184   2.193  12.124 -0.3453 -0.3769 -0.1690
 3210W        W 6954   5.691   2.884  12.687 -0.1107 -0.1951  0.0021
 3211W        W 6955   0.814   4.128   1.499 -0.1746  0.0531  0.0511
 3212W        W 6956   5.422   2.685   2.417 -0.2544 -0.1036  0.0733
 3213W        W 6957   4.481   3.764  10.405  0.0185  0.4494  0.0773
 3214W        W 6958   2.668   9.551  11.858 -0.0776  0.1818 -0.0071
 3215W        W 6959   8.892   7.757   0.566 -0.1436  0.0636 -0.0110
 3216W        W 6960   3.624   0.038  11.543 -0.0197  0.2524  0.3197
 3217W        W 6961   2.952   0.367  10.259  0.0088  0.0832  0.0375
 3218W        W 6962   6.580   8.173  10.630  0.1042 -0.0118 -0.0513
 3219W        W 6963   2.302   5.152   4.263 -0.2063 -0.1097 -0.1050
 3220W        W 6964   6.130   7.007   0.144  0.2002 -0.0777  0.1244
 3221W        W 6965   7.541   9.343   3.767  0.1521 -0.1296  0.2064
 3222W        W 6966   8.433   1.951   0.298 -0.1821  0.3495 -0.0828
 3223W        W 6967   0.337   2.670   4.182  0.1240  0.2246 -0.1232
 3224W        W 6968   0.191   7.378   0.122 -0.1235  0.3548  0.2837
 3225W        W 6969   2.213   8.763   2.743 -0.0451 -0.0665 -0.0336
 3226W        W 6970   6.451   1.166  11.037 -0.1609  0.2274  0.1499
 3227W        W 6971   8.157   5.242  10.441  0.0603 -0.1166 -0.0090
 3228W        W 6972   5.872   9.347   8.685 -0.2881  0.1744  0.0869
 3229W        W 6973   2.944   7.189   3.921  0.2455 -0.2017  0.0625
 3230W        W 6974   2.335   7.791   1.213  0.3941 -0.0806 -0.1675
 3231W        W 6975   5.560   8.032  11.880  0.0565  0.0865  0.0670
 3232W        W 6976   0.220   3.839   3.846 -0.2141  0.1202 -0.2746
 3233W        W 6977   8.560   1.484   4.288  0.1210 -0.0177  0.0917
 3234W        W 6978   7.915   4.266  11.274 -0.1102  0.0871  0.2153
 3235W        W 6979   8.087   0.216   8.795 -0.0148 -0.1068 -0.1871
 3236W        W 6980   0.908   5.653  12.570 -0.2484  0.1833 -0.1957
 3237W        W 6981   8.058   0.430   1.379 -0.5530 -0.0188  0.0556
 3238W        W 6982   0.571   7.257  11.569 -0.0688 -0.0996  0.0797
 3239W        W 6983   9.331   8.654  12.678  0.1685  0.1254 -0.1946
 3240W        W 6984   3.152   4.745   2.377  0.1427 -0.1461 -0.0249
 3241W        W 6985   0.047   8.407   8.445 -0.0192  0.0367 -0.0285
 3242W        W 6986   7.876   6.310  11.106 -0.0508  0.1165 -0.0807
 3243W        W 6987   0.196   7.357   1.971  0.0280 -0.0432  0.0405
 3244W        W 6988   7.389   3.650   0.708  0.0490  0.0672 -0.4442
 3245W        W 6989   7.946   7.794  11.075  0.2436 -0.3323  0.0261
 3246W        W 6990   0.539   7.475   9.146 -0.2259 -0.2151 -0.0346
 3247W        W 6991   5.219   8.514  11.555 -0.0200 -0.2295  0.1256
 3248W        W 6992   5.402   4.360   0.083 -0.2814 -0.0973  0.2121
 3249W        W 6993   2.868   8.502   2.561 -0.3104 -0.0693 -0.1295
 3250W        W 6994   1.790   5.342  10.256 -0.2558 -0.2296 -0.5475
 3251W        W 6995   2.626   4.607   2.106 -0.1643 -0.0406 -0.1186
 3252W        W 6996   6.012   0.295   0.721 -0.0703 -0.0424 -0.2345
 3253W        W 6997   2.611   4.262   3.459 -0.2397  0.1039  0.0634
 3254W        W 6998   9.939   5.626   4.559 -0.2560 -0.0094  0.0024
 3255W        W 6999   6.457   0.966   3.174  0.0082 -0.0400 -0.5240
 3256W        W 7000   7.171   3.880  10.009 -0.2003 -0.1850  0.0078
 3257W        W 7001   7.205   1.536  12.361  0.1716  0.4374  0.1845
 3258W        W 7002   0.111   1.566  10.475  0.2207 -0.0886 -0.1311
 3259W        W 7003   8.591   2.958   0.705 -0.1258  0.3743  0.0366
 3260W        W 7004   2.014   1.289  11.036 -0.0051  0.1799 -0.2125
 3261W        W 7005   7.608   4.732   9.788  0.1504  0.0682 -0.1203
 3262W        W 7006   1.366   3.323   3.492  0.3328 -0.3282  0.1249
 3263W        W 7007   0.192   2.652  10.483  0.1525  0.1314  0.1740
 3264W        W 7008   4.562   9.829   9.691 -0.2349  0.2754 -0.2502
 3265W        W 7009   7.641   7.604   8.915 -0.0258 -0.2579 -0.1699
 3266W        W 7010   8.807   4.717   3.382 -0.3355  0.3432  0.1634
 3267W        W 7011   3.636   0.307   3.362 -0.0433  0.0612 -0.0137
 3268W        W 7012   9.584   3.735  12.210  0.0148 -0.1685  0.0672
 3269W        W 7013   0.479   3.316   4.097  0.0555  0.0009  0.0898
 3270W        W 7014   4.272   5.823  11.636 -0.0055 -0.1370  0.2828
 3271W        W 7015   3.000   2.057   9.277 -0.4110 -0.0684  0.1542
 3272W        W 7016   9.593   8.316   1.546  0.2439  0.0894  0.2045
 3273W        W 7017   1.261   5.582  12.234 -0.1411  0.2007 -0.5299
 3274W        W 7018   1.494   0.330  11.264 -0.1197 -0.1190 -0.0605
 3275W        W 7019   8.217   2.578   3.170  0.1240  0.0980  0.2782
 3276W        W 7020   8.702   5.091   2.182 -0.1102 -0.0897 -0.2946
 3277W        W 7021   7.334   1.239   4.015  0.2245  0.1971  0.0461
 3278W        W 7022   8.516   6.458   1.691  0.2400  0.1249  0.0319
 3279W        W 7023   9.276   4.038  11.402 -0.1622  0.0025 -0.1451
 3280W        W 7024   8.071   3.423   9.103  0.1886 -0.3914 -0.1719
 3281W        W 7025   7.112   9.853  10.676  0.0873 -0.4228 -0.2445
 3282W        W 7026   7.037   7.161   1.605  0.0378 -0.1424  0.0073
 3283W        W 7027   9.245   8.031   3.397 -0.0714 -0.0448  0.2533
 3284W        W 7028   4.955   4.464   3.046 -0.0656  0.3167  0.0192
 3285W        W 7029   2.021   1.312  12.030  0.2366 -0.0757 -0.1071
 3286W        W 7030   4.702   9.201  10.353  0.1133 -0.1110  0.2237
 3287W        W 7031   5.303   2.189   9.464 -0.0500 -0.5303  0.1685
 3288W        W 7032   5.571   8.724  11.297  0.1256  0.6329  0.3672
 3289W        W 7033   1.975   7.103  11.360 -0.1431  0.0322  0.1672
 3290W        W 7034   7.344   3.669  11.754  0.3059  0.2180  0.0924
 3291W        W 7035   2.778   9.344   1.947 -0.0406 -0.0553  0.2341
 3292W        W 7036   2.973   2.857   9.901  0.1150  0.0283 -0.0372
 3293W        W 7037   1.857   7.467   2.075 -0.2082  0.3896 -0.2910
 3294W        W 7038   5.932   5.676  10.905 -0.3626 -0.1718 -0.1790
 3295W        W 7039   2.317   0.414   3.470 -0.0460  0.3286  0.1518
 3296W        W 7040   7.384   8.611   5.092 -0.2267  0.2161  0.1570
 3297W        W 7041   4.417   3.533   3.329 -0.1119  0.2338  0.0094
 3298W        W 7042   7.271   6.144   3.678 -0.0261 -0.1683 -0.0383
 3299W        W 7043   9.219   7.127  12.781 -0.0221 -0.0606  0.0170
 3300W        W 7044   8.597   1.052   1.859 -0.3578  0.0900 -0.1247
 3301W        W 7045   8.479   8.086   2.517 -0.1797 -0.0774 -0.1699
 3302W        W 7046   1.877   6.320  10.709  0.2497 -0.3242 -0.2679
 3303W        W 7047   2.646   1.575   0.523  0.0413 -0.0813 -0.2074
 3304W        W 7048   8.350   9.596   2.414  0.5004 -0.3695 -0.2782
 3305W        W 7049   7.302   6.586   0.476  0.1997  0.0402  0.0850
 3306W        W 7050   8.297   4.729  10.541  0.4714  0.2987  0.1352
 3307W        W 7051   4.095   0.186   0.289 -0.0719  0.1101  0.2425
 3308W        W 7052   7.205   2.335   3.904  0.3187 -0.0881 -0.0958
 3309W        W 7053   2.671   8.985   9.954 -0.1132  0.0406  0.1047
 3310W        W 7054   9.344   1.614   0.552 -0.0542 -0.0755 -0.2940
 3311W        W 7055   1.701   8.640  11.032 -0.0996 -0.1472  0.4163
 3312W        W 7056   0.884   9.610  10.157  0.0465  0.1743  0.3107
 3313W        W 7057   6.078   5.567  11.440  0.3413  0.0806  0.0588
 3314W        W 7058   2.160   7.715   3.519 -0.3182  0.1857  0.4673
 3315W        W 7059   9.938   7.405  10.133 -0.3536 -0.0172 -0.0175
 3316W        W 7060   8.459   3.963   4.495 -0.0767  0.1931  0.0198
 3317W        W 7061   1.599   3.774  11.707 -0.1726 -0.0541  0.0886
 3318W        W 7062   5.616   1.321   0.575 -0.1729  0.1495  0.3958
 3319W        W 7063   1.523   0.762   0.640 -0.1572 -0.1825  0.1246
 3320W        W 7064   4.174   3.101  10.566  0.0024 -0.3311 -0.1367
 3321W        W 7065   8.930   8.393   2.252 -0.0548 -0.0203  0.4821
 3322W        W 7066   9.821   2.738   0.561 -0.3381 -0.2711  0.0055
 3323W        W 7067   9.314   7.946  12.105 -0.2108  0.2933 -0.1238
 3324W        W 7068   6.901   1.622  10.303 -0.1340 -0.1453 -0.2250
 3325W        W 7069   1.246   4.576   9.062 -0.2006  0.2774 -0.0914
 3326W        W 7070   2.168   4.566  11.900  0.1404  0.0573  0.5874
 3327W        W 7071   6.618   1.099  12.808  0.2946  0.1590  0.0793
 3328W        W 7072   3.027   8.581  11.878 -0.0558  0.0526  0.0128
 3329W        W 7073   0.039   0.078  10.677 -0.3509 -0.3913 -0.1201
 3330W        W 7074   9.689   7.267  12.728 -0.1627  0.0427  0.0412
 3331W        W 7075   7.241   1.576   0.983  0.0153  0.0744 -0.1539
 3332W        W 7076   9.036   9.333   8.368  0.1740  0.0973  0.2301
 3333W        W 7077   0.068   9.435   1.710 -0.2842 -0.3673 -0.0990
 3334W        W 7078   5.114   9.469  12.741 -0.3484 -0.1453  0.1026
 3335W        W 7079   4.615   0.398   4.591 -0.1279 -0.0929  0.1010
 3336W        W 7080   4.954   3.920   2.224 -0.2406  0.1721  0.0585
 3337W        W 7081   9.510   9.497  11.309  0.2354 -0.1895  0.0757
 3338W        W 7082   7.198   6.020   0.537 -0.0425 -0.1873 -0.1344
 3339W        W 7083   6.904   2.132   2.152  0.5845  0.3992  0.2204
 3340W        W 7084   4.090   8.193   1.123  0.0080 -0.2225  0.2442
 3341W        W 7085   2.226   0.522   1.179 -0.0797  0.4203  0.3232
 3342W        W 7086   7.895   6.939   8.600  0.0155 -0.1241  0.0434
 3343W        W 7087   7.066   2.687  11.552 -0.1544  0.2234 -0.1445
 3344W        W 7088   2.167   4.295   0.647 -0.2048 -0.3162 -0.0096
 3345W        W 7089   1.101   2.891  12.503  0.1690  0.2634 -0.0285
 3346W        W 7090   8.601   5.578   3.687  0.0729 -0.2598  0.4601
 3347W        W 7091   7.013   5.006   0.076  0.2046  0.2341  0.0616
 3348W        W 7092   8.878   0.152   9.101 -0.0291 -0.0671 -0.0753
 3349W        W 7093   0.872   3.886   9.952  0.1099 -0.1510 -0.0160
 3350W        W 7094   0.398   5.067   2.924 -0.1513 -0.0897 -0.1582
 3351W        W 7095   2.449   5.795   1.610 -0.3585 -0.1647  0.2346
 3352W        W 7096   5.984   4.465   2.276 -0.0146  0.1157 -0.1970
 3353W        W 7097   9.759   0.819   9.306 -0.2680 -0.0675  0.0510
 3354W        W 7098   0.387   4.619   3.264 -0.2919 -0.1523 -0.1236
 3355W        W 7099   9.799   7.815   9.520  0.0139 -0.1111  0.1417
 3356W        W 7100   7.812   8.802   0.844 -0.0775  0.2526 -0.0084
 3357W        W 7101   7.598   9.528  12.083  0.3993  0.0318  0.1990
 3358W        W 7102   2.050   2.704   3.377  0.0199  0.2263  0.1600
 3359W        W 7103   0.949   9.439   0.286  0.2147  0.1520 -0.0905
 3360W        W 7104   6.509   6.697   0.897 -0.0967 -0.1562  0.1327
 3361W        W 7105   6.312   7.265  12.603 -0.1583  0.0375 -0.1455
 3362W        W 7106   4.232   8.466   4.350  0.1951  0.0411  0.0324
 3363W        W 7107   1.491   7.125   4.428 -0.0960 -0.0158 -0.4465
 3364W        W 7108   9.328   0.745  11.273  0.3109  0.1126  0.1954
 3365W        W 7109   5.150   0.160  11.448 -0.1610 -0.1801 -0.2338
 3366W        W 7110   1.623   8.059   3.303 -0.0641 -0.1884  0.0758
 3367W        W 7111   3.943   2.658   0.781 -0.0902 -0.1393 -0.3510
 3368W        W 7112   4.587   5.777  10.373 -0.2337  0.0778 -0.0280
 3369W        W 7113   3.614   0.967   9.060  0.1987  0.0883 -0.1072
 3370W        W 7114   6.115   7.478  10.854  0.1701 -0.1843  0.1699
 3371W        W 7115   7.718   3.200  11.067 -0.0159  0.0543 -0.0153
 3372W        W 7116   4.130   4.956  10.509 -0.1709 -0.0264 -0.2279
 3373W        W 7117   3.415   8.301   4.157  0.0023 -0.2724  0.0024
 3374W        W 7118   5.037   8.799   4.452  0.3183 -0.0016  0.4698
 3375W        W 7119   6.966   0.931  11.155 -0.0166  0.0899 -0.0543
 3376W        W 7120   5.614   6.105  11.075  0.0307 -0.1898 -0.5333
 3377W        W 7121   6.983   3.979  11.460 -0.1435  0.0698  0.3064
 3378W        W 7122   3.414   5.601  11.597 -0.2710 -0.0793 -0.0877
 3379W        W 7123   8.391   1.262  11.335 -0.0699 -0.1788 -0.1580
 3380W        W 7124   1.302   4.772   2.078  0.2259  0.0001 -0.0677
 3381W        W 7125   5.676   6.673   4.381 -0.1210  0.0422 -0.1373
 3382W        W 7126   1.689   5.365   2.225  0.3795  0.0853 -0.2221
 3383W        W 7127   9.571   0.207  12.157  0.2045 -0.0986  0.0424
 3384W        W 7128   0.807   5.916   0.940  0.1404 -0.0781 -0.1431
 3385W        W 7129   7.084   5.894   1.002 -0.0175 -0.0518 -0.2552
 3386W        W 7130   4.238   2.259   1.621  0.3736  0.3915  0.1147
 3387W        W 7131   7.861   5.724  11.081 -0.1245  0.0667  0.0243
 3388W        W 7132   3.233   8.199  11.559  0.2412 -0.3895 -0.1270
 3389W        W 7133   9.718   6.850   2.586  0.3567 -0.1278  0.0531
 3390W        W 7134   4.340   9.772   4.384 -0.0595  0.0858  0.0972
 3391W        W 7135   4.426   3.133  11.979 -0.0511 -0.2496  0.2574
 3392W        W 7136   8.646   0.519   2.144 -0.1010 -0.0019  0.2966
 3393W        W 7137   6.192   4.020  11.255 -0.1849  0.0273  0.0224
 3394W        W 7138   3.259   7.862   1.370  0.2149 -0.0295  0.1767
 3395W        W 7139   9.529   5.987  10.010  0.2266 -0.3413  0.0040
 3396W        W 7140   9.596   6.630  10.638 -0.0958 -0.0597 -0.0005
 3397W        W 7141   5.420   3.097   9.907  0.3559  0.3104  0.2387
 3398W        W 7142   3.495   0.144   4.687  0.0452  0.0196 -0.1400
 3399W        W 7143   3.678   4.841   3.101 -0.2630 -0.0672 -0.0025
 3400W        W 7144   3.766   6.421   9.648  0.1122 -0.2429  0.1658
 3401W        W 7145   3.751   1.508  10.349 -0.2670  0.1676 -0.2157
 3402W        W 7146   0.586   6.249  10.793 -0.0124 -0.1072 -0.0196
 3403W        W 7147   1.313   9.708  11.617  0.0432 -0.3491  0.3552
 3404W        W 7148   5.609   0.694   0.994 -0.2580  0.0887  0.0607
 3405W        W 7149   2.118   0.127   2.528  0.0833  0.1046 -0.1213
 3406W        W 7150   1.793   9.164   9.757  0.1695 -0.1518 -0.1525
 3407W        W 7151   9.858   8.268   9.848  0.2702 -0.1678  0.0640
 3408W        W 7152   9.503   3.954   2.553 -0.0112  0.0306  0.2570
 3409W        W 7153   4.794   9.444  10.844  0.0421 -0.2464 -0.0974
 3410W        W 7154   4.577   7.921   1.790 -0.3856  0.1136 -0.1223
 3411W        W 7155   9.019   3.012   0.443  0.0765  0.5991  0.2691
 3412W        W 7156   6.445   3.572   1.160 -0.0024  0.0623  0.2321
 3413W        W 7157   4.641   9.135   2.085 -0.1258  0.1658 -0.1352
 3414W        W 7158   8.300   3.189   4.412 -0.0866 -0.0341  0.3543
 3415W        W 7159   2.189   6.692   1.540  0.2988  0.0172  0.0314
 3416W        W 7160   9.286   9.762  11.971 -0.2302  0.2064  0.1114
 3417W        W 7161   9.624   9.261   3.456 -0.0784 -0.0192 -0.2427
 3418W        W 7162   3.414   9.398   2.332  0.1176 -0.1578  0.0974
 3419W        W 7163   7.104   5.220  11.461  0.1170  0.0581  0.1352
 3420W        W 7164   6.985   3.644   3.512 -0.2730  0.1555  0.4105
 3421W        W 7165   4.194   4.424  10.571  0.0967  0.0137 -0.2396
 3422W        W 7166   4.464   4.181  11.372 -0.0070  0.0230 -0.0757
 3423W        W 7167   0.089   1.125   3.047  0.3950 -0.2102  0.1131
 3424W        W 7168   4.904   9.617   0.336 -0.2068 -0.4298  0.3212
 3425W        W 7169   7.841   5.813   3.070  0.2152 -0.0134 -0.0367
 3426W        W 7170   1.648   3.026  10.254  0.4386 -0.3411  0.3540
 3427W        W 7171   2.213   1.315   0.227  0.1393 -0.1060 -0.0438
 3428W        W 7172   3.222   1.345   4.341  0.3036  0.2428  0.6080
 3429W        W 7173   6.486   8.026   9.043  0.2244  0.1667  0.2556
 3430W        W 7174   2.667   2.556   2.355  0.0622  0.0891  0.2303
 3431W        W 7175   5.060   0.759   9.358 -0.1883  0.1193 -0.0630
 3432W        W 7176   5.441   4.449  10.774 -0.1719 -0.3817 -0.3670
 3433W        W 7177   8.235   6.323  10.772  0.1843 -0.0187 -0.3682
 3434W        W 7178   9.352   3.632   2.873 -0.0647  0.0428  0.1677
 3435W        W 7179   6.531   5.722   8.190 -0.0193  0.1019  0.1421
 3436W        W 7180   7.474   7.057   3.666 -0.1037 -0.1542 -0.1146
 3437W        W 7181   6.317   2.593  10.199 -0.0927 -0.2771  0.0479
 3438W        W 7182   1.908   6.129   9.155  0.1828 -0.0161 -0.4045
 3439W        W 7183   4.829   6.944   9.917 -0.4994  0.0477 -0.1672
 3440W        W 7184   5.800   3.953   1.316 -0.0621  0.0147 -0.1541
 3441W        W 7185   3.874   5.294  11.504  0.1637  0.1362 -0.0013
 3442W        W 7186   8.707   0.583   1.330 -0.0483 -0.0520 -0.1470
 3443W        W 7187   0.704   2.705   1.152  0.1715 -0.1492  0.3512
 3444W        W 7188   2.426   5.312   8.893 -0.0355  0.0031  0.1174
 3445W        W 7189   8.717   7.025   1.219  0.1575  0.2056  0.0653
 3446W        W 7190   8.230   8.523  11.741  0.0483  0.1264 -0.3048
 3447W        W 7191   6.248   4.571  10.042 -0.1431 -0.1933  0.0192
 3448W        W 7192   0.953   7.926  10.096 -0.5347 -0.0660 -0.1851
 3449W        W 7193   7.920   8.468   1.205  0.0124 -0.4467  0.0944
 3450W        W 7194   9.010   1.802   1.885  0.1254  0.0675  0.2708
 3451W        W 7195   9.766   7.822   4.297  0.0693 -0.3831  0.0755
 3452W        W 7196   4.846   4.075   2.778 -0.3653  0.2733  0.3130
 3453W        W 7197   2.153   3.812   2.079  0.0168 -0.0245 -0.3624
 3454W        W 7198   2.211   7.494   4.490  0.1916 -0.1335  0.2688
 3455W        W 7199   4.519   4.812  10.802 -0.0933  0.1544  0.0509
 3456W        W 7200   8.812   2.188   9.313  0.1663  0.1554  0.2749
 3457W        W 7201   8.055   8.349   2.253 -0.3379 -0.2480 -0.1566
 3458W        W 7202   0.650   4.899   1.461  0.0850  0.0400  0.0719
 3459W        W 7203   0.947   6.183  12.478 -0.1201  0.0780  0.1441
 3460W        W 7204   5.785   7.865   0.059 -0.3348  0.0434  0.0431
 3461W        W 7205   3.494   2.357  11.490 -0.2860  0.1647  0.2854
 3462W        W 7206   0.861   6.827   9.767  0.0470 -0.1095  0.0375
 3463W        W 7207   5.511   8.694   2.672 -0.0881 -0.2194 -0.0064
 3464W        W 7208   8.327   5.729   2.944  0.0340  0.0784 -0.1176
 3465W        W 7209   2.537   6.349   1.785 -0.0211 -0.0874  0.1854
 3466W        W 7210   1.127   5.507   9.699  0.2909  0.2247  0.1880
 3467W        W 7211   4.141   5.237   3.198 -0.1178 -0.1074  0.2400
 3468W        W 7212   8.062   8.088   4.573  0.0439  0.0413 -0.2823
 3469W        W 7213   9.907   5.148   2.254  0.0092  0.3644  0.1780
 3470W        W 7214   9.245   7.437   1.775  0.1143  0.1033  0.3726
 3471W        W 7215   8.532   4.595   1.573 -0.1259 -0.0345 -0.1522
 3472W        W 7216   4.762   3.537  11.661  0.2282  0.1752  0.0733
 3473W        W 7217   5.123   9.114   4.102 -0.1365  0.1898  0.1529
 3474W        W 7218   6.094   6.900  12.331  0.0317  0.0186  0.2644
 3475W        W 7219   0.599   8.534   4.238  0.0621 -0.5014  0.0962
 3476W        W 7220   1.329   9.145   3.914  0.0119 -0.0820  0.2999
 3477W        W 7221   1.825   8.707   4.460  0.0348  0.0373  0.1245
 3478W        W 7222   1.157   8.722  12.713 -0.3240 -0.2013  0.2287
 3479W        W 7223   8.013   3.779  11.045  0.0876 -0.5109  0.0480
 3480W        W 7224   0.324   5.736  10.277  0.0324  0.1205  0.2418
 3481W        W 7225   5.609   7.940   0.527 -0.2154 -0.1494 -0.0196
 3482W        W 7226   2.698   9.032  11.158  0.2167  0.1987 -0.0056
 3483W        W 7227   2.079   0.817  10.812  0.0113 -0.0512  0.2894
 3484W        W 7228   7.906   5.615   8.756 -0.1729 -0.0867  0.0931
 3485W        W 7229   9.570   2.346   9.066 -0.1253 -0.0868  0.0366
 3486W        W 7230   2.236   7.019   8.709 -0.0132 -0.2003 -0.0567
 3487W        W 7231   5.780   4.751  10.168 -0.4251 -0.1687 -0.1874
 3488W        W 7232   7.635   4.220  12.643  0.0187 -0.3024 -0.0803
 3489W        W 7233   0.178   4.248   4.109 -0.0364 -0.0768  0.3408
 3490W        W 7234   1.634   0.642  11.682 -0.1796  0.1171 -0.0476
 3491W        W 7235   1.457   4.699   9.960 -0.2156 -0.1348  0.1349
 3492W        W 7236   7.019   9.716   2.761 -0.1156 -0.1603  0.4527
 3493W        W 7237   5.686   7.119  10.868 -0.2267 -0.0741 -0.3262
 3494W        W 7238   6.309   4.948   9.717  0.2428 -0.0276  0.2299
 3495W        W 7239   4.946   5.382   3.594  0.1411 -0.1557 -0.4447
 3496W        W 7240   2.595   3.699  12.780 -0.5591  0.2553 -0.1806
 3497W        W 7241   6.122   4.138   8.638  0.1272  0.2075 -0.0097
 3498W        W 7242   3.974   0.105   8.862 -0.4256  0.0426 -0.0860
 3499W        W 7243   3.962   1.067  11.184  0.1035  0.0020 -0.0863
 3500W        W 7244   5.212   5.798  12.623 -0.0871  0.0175  0.0881
 3501W        W 7245   4.613   4.854   3.141  0.1584 -0.2100  0.4170
 3502W        W 7246   5.743   0.575  12.320  0.5205  0.3891  0.1345
 3503W        W 7247   8.068   9.125   2.118 -0.1035 -0.0873 -0.1968
 3504W        W 7248   7.783   4.875   1.195  0.1343  0.0023  0.0198
 3505W        W 7249   1.973   3.541  11.512  0.0294  0.3561 -0.3675
 3506W        W 7250   8.211   3.618  10.424  0.1581 -0.1147 -0.1047
 3507W        W 7251   9.643   9.079   1.623  0.2025 -0.1860  0.2567
 3508W        W 7252   0.698   6.860   3.205  0.0226 -0.0864  0.0193
 3509W        W 7253   7.425   0.455  10.473 -0.0791  0.0339 -0.1822
 3510W        W 7254   6.886   1.116   8.668  0.0725 -0.0062  0.0423
 3511W        W 7255   1.497   7.930  11.852 -0.0066  0.2940  0.3643
 3512W        W 7256   7.185   0.756   8.799  0.1657 -0.1851  0.1553
 3513W        W 7257   2.942   7.740  11.455  0.2988  0.2481  0.0875
 3514W        W 7258   9.793   7.761   9.038 -0.1520 -0.1454 -0.0997
 3515W        W 7259   5.385   7.755   3.745  0.3711  0.2355 -0.3842
 3516W        W 7260   4.078   4.300   3.515 -0.1706 -0.3369  0.0794
 3517W        W 7261   9.025   8.980   1.678 -0.3422  0.1579 -0.0410
 3518W        W 7262   9.712   9.292   9.840  0.2260 -0.1961 -0.1549
 3519W        W 7263   2.108   0.977   3.649  0.0038 -0.1531 -0.1196
 3520W        W 7264   5.520   4.446   1.469 -0.2183  0.2205  0.0214
 3521W        W 7265   5.570   8.584   9.245 -0.0192  0.1781 -0.0715
 3522W        W 7266   7.391   3.414   4.041  0.2612  0.2259 -0.0517
 3523W        W 7267   0.823   6.816   3.796  0.0377 -0.1048 -0.3904
 3524W        W 7268   7.356   8.099   9.139  0.2744 -0.0077 -0.0547
 3525W        W 7269   8.100   6.127   4.295 -0.0131  0.1503  0.1310
 3526W        W 7270   1.629   5.505   3.213  0.2421  0.0445 -0.0097
 3527W        W 7271   3.246   7.911  11.041  0.0921 -0.0173 -0.5376
 3528W        W 7272   1.038   5.386   1.363 -0.1297 -0.2119 -0.0960
 3529W        W 7273   5.733   0.975  11.769 -0.4934  0.3869 -0.0291
 3530W        W 7274   3.265   1.249  12.405 -0.0124 -0.0242  0.4102
 3531W        W 7275   5.552   3.518   1.313  0.0115  0.0030 -0.1179
 3532W        W 7276   5.088   8.214   0.299  0.1287  0.0243 -0.1014
 3533W        W 7277   4.727   8.348   0.701 -0.0081 -0.1168  0.1574
 3534W        W 7278   7.241   8.299   9.649  0.3999 -0.0115  0.2201
 3535W        W 7279   8.887   3.945   0.694  0.0259  0.1394  0.0256
 3536W        W 7280   7.063   8.219  12.357 -0.2133  0.3379 -0.0450
 3537W        W 7281   1.681   5.812  10.265 -0.1337  0.1405 -0.0892
 3538W        W 7282   9.113   5.291  12.501  0.3192  0.1045 -0.1552
 3539W        W 7283   3.698   7.244  11.250  0.1483 -0.3435  0.1238
 3540W        W 7284   6.589   6.628   3.973 -0.0579 -0.0323  0.1457
 3541W        W 7285   6.582   9.551   9.432 -0.1463 -0.0304  0.2106
 3542W        W 7286   6.406   5.379  10.461  0.2256 -0.1405 -0.3449
 3543W        W 7287   0.918   3.015   4.339 -0.2929 -0.0820 -0.3119
 3544W        W 7288   9.039   2.841   1.016 -0.1087 -0.2265  0.0059
 3545W        W 7289   9.173   5.653   8.046  0.2645 -0.0744 -0.0137
 3546W        W 7290   0.653   8.044   3.207 -0.0202  0.1222  0.0726
 3547W        W 7291   3.309   9.405   9.340  0.2001 -0.0803 -0.1042
 3548W        W 7292   3.185   7.930  10.260 -0.2731  0.0998  0.0507
 3549W        W 7293   3.815   7.848  11.116  0.0470  0.0245  0.1418
 3550W        W 7294   1.080   5.715   3.266  0.1024 -0.0804  0.2047
 3551W        W 7295   1.134   9.484  10.682  0.1563  0.1062 -0.0342
 3552W        W 7296   2.064   7.597   0.223  0.0725  0.0656  0.1962
 3553W        W 7297   6.814   1.519  10.905 -0.0443  0.2274  0.2404
 3554W        W 7298   7.467   6.681   2.383  0.4946  0.1571 -0.0798
 3555W        W 7299   5.687   4.319   0.948 -0.2423 -0.3464 -0.4092
 3556W        W 7300   5.147   8.892  10.456 -0.0964 -0.1410 -0.2094
 3557W        W 7301   0.838   4.266   9.481  0.0326 -0.1708 -0.2505
 3558W        W 7302   3.138   0.608   1.702 -0.0580  0.3311  0.0602
 3559W        W 7303   2.073   5.321   3.176  0.0201  0.1932 -0.1534
 3560W        W 7304   4.137   8.013  10.111 -0.3137  0.1909 -0.0419
 3561W        W 7305   5.104   1.338   0.939 -0.2331 -0.3021 -0.0134
 3562W        W 7306   2.492   7.647   4.921 -0.0770 -0.0441  0.0634
 3563W        W 7307   7.685   3.794   1.215  0.3389  0.2022 -0.0478
 3564W        W 7308   0.320   3.787   4.311 -0.1972  0.2627  0.1301
 3565W        W 7309   0.344   5.140  12.602 -0.3228 -0.0299 -0.0123
 3566W        W 7310   7.056   8.125  10.117 -0.2188  0.0544  0.0009
 3567W        W 7311   0.397   1.893   1.399 -0.3158 -0.2703 -0.2035
 3568W        W 7312   5.574   1.096   1.738  0.0495  0.0014 -0.0098
 3569W        W 7313   5.849   4.976  10.952  0.0576  0.0522  0.4014
 3570W        W 7314   6.445   7.059   9.093 -0.4156 -0.1050 -0.3372
 3571W        W 7315   0.949   7.987  10.634  0.1551  0.2361 -0.0973
 3572W        W 7316   6.810   8.694   2.789  0.3317 -0.2679 -0.2343
 3573W        W 7317   1.628   1.001   9.557 -0.0017 -0.2322 -0.2108
 3574W        W 7318   3.341   5.953   1.472 -0.0821 -0.2513  0.0640
 3575W        W 7319   6.189   3.526  12.513 -0.0575 -0.0670  0.1437
 3576W        W 7320   8.248   4.401   9.244 -0.0634  0.0914 -0.0641
 3577W        W 7321   7.970   6.094  12.133  0.2274  0.3787  0.1013
 3578W        W 7322   3.493   9.911   2.312 -0.1979  0.0489 -0.0196
 3579W        W 7323   1.645   6.304   0.612 -0.1283  0.3047  0.1044
 3580W        W 7324   9.050   0.465   3.771 -0.2069  0.1029  0.1733
 3581W        W 7325   4.921   8.452  10.597 -0.0174  0.1977  0.5758
 3582W        W 7326   1.234   0.544   0.263  0.2944 -0.1103  0.0241
 3583W        W 7327   9.457   7.713  12.571  0.1099 -0.0821 -0.1424
 3584W        W 7328   8.618   5.134  10.800 -0.0781 -0.2311  0.0039
 3585W        W 7329   1.586   5.660  11.570 -0.0906  0.0023  0.0190
 3586W        W 7330   4.013   0.956   8.669 -0.0388 -0.0751 -0.1151
 3587W        W 7331   7.997   6.458   1.018 -0.1591  0.2796  0.1554
 3588W        W 7332   4.525   6.801   9.491  0.2026 -0.3339 -0.0124
 3589W        W 7333   4.132   9.201  12.126 -0.0565  0.2273 -0.1061
 3590W        W 7334   0.219   5.206   9.387  0.0439  0.3484 -0.2439
 3591W        W 7335   2.228   1.548   1.290  0.1079 -0.0475 -0.0243
 3592W        W 7336   0.837   8.899   2.955  0.3422 -0.3877  0.5644
 3593W        W 7337   9.360   0.034  11.478 -0.1402  0.0717  0.0257
 3594W        W 7338   9.335   7.313  12.273 -0.0806 -0.0053  0.0249
 3595W        W 7339   8.996   3.966   2.539 -0.0263 -0.2390 -0.1569
 3596W        W 7340   5.347   3.513  12.229  0.0870 -0.0356  0.0538
 3597W        W 7341   6.841   8.660   1.952  0.0685 -0.1189  0.1875
 3598W        W 7342   0.785   1.715   2.634 -0.1367 -0.0239 -0.0234
 3599W        W 7343   5.303   0.849  12.026 -0.0887 -0.1789  0.3911
 3600W        W 7344   2.085   8.075   3.121  0.1290  0.1930 -0.4404
 3601W        W 7345   8.181   0.951   2.407 -0.0976  0.2201  0.3061
 3602W        W 7346   4.847   1.982  12.717 -0.0993  0.2377  0.2538
 3603W        W 7347   9.181   6.353   3.546 -0.1206  0.2904  0.3794
 3604W        W 7348   7.237   7.516   9.198  0.2570 -0.0562 -0.1513
 3605W        W 7349   3.700   2.674   1.218  0.4573  0.0751  0.0748
 3606W        W 7350   8.378   0.286   9.179  0.0914 -0.0676 -0.1673
 3607W        W 7351   2.200   3.949   9.511 -0.0121  0.3188  0.2427
 3608W        W 7352   6.222   4.305  12.580 -0.1601 -0.1418 -0.1145
 3609W        W 7353   1.454   1.848  11.970  0.0528 -0.0465 -0.2666
 3610W        W 7354   8.774   4.378   3.828 -0.1440 -0.0217 -0.0484
 3611W        W 7355   5.660   5.624   0.492 -0.3622 -0.2386  0.0850
 3612W        W 7356   9.053   4.324   4.348  0.0007  0.0239 -0.1490
 3613W        W 7357   4.442   4.327   0.244 -0.0774  0.2531 -0.3056
 3614W        W 7358   8.545   3.500   4.713  0.0261  0.3021 -0.1776
 3615W        W 7359   3.552   8.098   0.278  0.1960 -0.0009  0.1191
 3616W        W 7360   6.202   4.880   2.561  0.1574  0.2421  0.1878
 3617W        W 7361   7.747   9.587  11.589  0.0425 -0.1532  0.1413
 3618W        W 7362   6.449   3.586  11.374  0.0592  0.5121 -0.0999
 3619W        W 7363   4.219   8.117  10.736 -0.0411  0.2373  0.0879
 3620W        W 7364   2.248   7.957   9.677 -0.0658  0.1176 -0.0571
 3621W        W 7365   8.552   2.481  11.861  0.0950  0.0043 -0.1183
 3622W        W 7366   7.961   1.139  10.550 -0.2536 -0.0727 -0.3161
 3623W        W 7367   6.560   8.941   3.655 -0.1053  0.0728 -0.4318
 3624W        W 7368   1.361   1.452  10.353  0.4419  0.0814  0.0156
 3625W        W 7369   7.206   6.177   2.790  0.0201  0.0962 -0.1491
 3626W        W 7370   6.688   8.986   3.204 -0.1389 -0.2876 -0.0831
 3627W        W 7371   7.707   2.309  12.081  0.2664  0.0294  0.0512
 3628W        W 7372   8.437   7.308  11.005  0.3406  0.1191  0.1779
 3629W        W 7373   7.155   4.177  11.016 -0.2521 -0.3178  0.1035
 3630W        W 7374   2.547   3.944   8.838 -0.4592 -0.3943  0.1343
 3631W        W 7375   2.391   0.140   0.818  0.2326  0.1447  0.1062
 3632W        W 7376   7.609   4.045  12.122 -0.2078 -0.0845  0.1248
 3633W        W 7377   2.010   7.983   4.328  0.2105 -0.0700 -0.2901
 3634W        W 7378   7.261   1.085   4.556  0.1019 -0.1833  0.4753
 3635W        W 7379   3.486   9.137   3.475 -0.0451  0.1339  0.0903
 3636W        W 7380   2.754   4.948   0.008 -0.0359  0.1468 -0.1461
 3637W        W 7381   7.868   0.075   2.521 -0.0406  0.1537 -0.3192
 3638W        W 7382   0.864   9.119   9.831  0.2196  0.0561  0.0249
 3639W        W 7383   1.207   0.602  10.725 -0.1547 -0.1308  0.0328
 3640W        W 7384   3.941   4.859  11.863  0.2832  0.2452  0.1601
 3641W        W 7385   5.669   9.608  10.376  0.4004 -0.2486  0.0903
 3642W        W 7386   7.881   4.683   2.190  0.0820 -0.2137 -0.1361
 3643W        W 7387   2.491   2.004   2.496  0.1441  0.2532 -0.0195
 3644W        W 7388   9.557   8.805   9.939 -0.3216 -0.0500  0.1032
 3645W        W 7389   5.844   5.007   1.330  0.2227 -0.0841  0.2450
 3646W        W 7390   0.499   3.115  11.854 -0.0568 -0.0843 -0.1543
 3647W        W 7391   7.833   1.052   8.865  0.4712 -0.3400  0.1537
 3648W        W 7392   5.797   2.790  12.113  0.2198 -0.0949  0.0837
 3649W        W 7393   3.047   8.700  12.537  0.1258 -0.0131  0.0366
 3650W        W 7394   6.436   8.579   4.063 -0.3279 -0.0473  0.3827
 3651W        W 7395   8.966   2.659  11.674 -0.0680 -0.1219  0.0285
 3652W        W 7396   5.936   6.908  10.502  0.0722 -0.3379  0.4311
 3653W        W 7397   7.403   9.686  12.534 -0.0350 -0.0009 -0.2971
 3654W        W 7398   0.045   4.528   0.322 -0.1612 -0.0944 -0.0195
 3655W        W 7399   2.457   3.744  11.817  0.0569 -0.3322 -0.1581
 3656W        W 7400   0.010   1.385  11.227  0.1216 -0.0867 -0.3958
 3657W        W 7401   0.812   8.174   1.586 -0.1712  0.0542  0.1850
 3658W        W 7402   7.972   4.255  11.817 -0.0133 -0.0255  0.3505
 3659W        W 7403   3.057   1.220   9.863 -0.1980  0.1361 -0.2252
 3660W        W 7404   6.272   0.056   1.818 -0.3745 -0.1525  0.1902
 3661W        W 7405   6.622   6.063   8.722 -0.0914  0.2133  0.2002
 3662W        W 7406   8.127   1.366  12.612 -0.0912  0.1388  0.2749
 3663W        W 7407   2.467   5.446  11.567  0.1068 -0.0643  0.1402
 3664W        W 7408   2.265   0.372   2.946 -0.2397 -0.1016  0.0267
 3665W        W 7409   4.699   0.105   4.090 -0.0864 -0.2489  0.1061
 3666W        W 7410   5.550   3.382   3.602  0.2936 -0.1109 -0.0758
 3667W        W 7411   2.224   9.909   9.995  0.2530  0.0037 -0.1794
 3668W        W 7412   5.266   9.187   2.666 -0.3673  0.0561  0.5379
 3669W        W 7413   8.782   2.618   2.025  0.1168  0.1282  0.2533
 3670W        W 7414   8.836   3.189   5.126 -0.1991  0.0423 -0.2250
 3671W        W 7415   9.424   5.310  11.414 -0.1873  0.0737  0.1817
 3672W        W 7416   4.372   1.931   0.985 -0.1555 -0.2766 -0.2925
 3673W        W 7417   5.864   4.745   4.029  0.1456  0.2543 -0.3589
 3674W        W 7418   3.500   7.591   2.674 -0.3602  0.1976  0.1927
 3675W        W 7419   6.297   0.701   0.844  0.1168 -0.1918  0.0129
 3676W        W 7420   0.872   0.135   1.017  0.0311  0.0263 -0.0452
 3677W        W 7421   7.177   7.738   3.049  0.0748 -0.0194 -0.0881
 3678W        W 7422   9.399   8.212   9.589 -0.0137  0.0619 -0.3322
 3679W        W 7423   3.691   9.829  10.063  0.0082 -0.1579 -0.0648
 3680W        W 7424   3.610   4.640   1.090 -0.0816 -0.1817 -0.1131
 3681W        W 7425   3.112   6.824   8.955 -0.1340  0.0659 -0.0085
 3682W        W 7426   4.361   7.326   1.775  0.0278  0.1040 -0.0480
 3683W        W 7427   6.134   8.164   3.923 -0.2230 -0.5472 -0.0982
 3684W        W 7428   7.953   3.242  12.465 -0.1212  0.0995  0.0196
 3685W        W 7429   4.607   3.261   3.798  0.1226  0.1111  0.0446
 3686W        W 7430   6.293   3.129   0.885 -0.2291  0.1484  0.0198
 3687W        W 7431   3.314   4.032  10.974  0.0242  0.0266 -0.0337
 3688W        W 7432   3.943   2.325  10.882  0.1880  0.1554 -0.0783
 3689W        W 7433   7.488   2.059   0.320 -0.1142 -0.1053 -0.1045
 3690W        W 7434   8.912   3.919  11.044  0.0386 -0.0849 -0.0495
 3691W        W 7435   8.176   1.878   1.566  0.0742  0.0219  0.1477
 3692W        W 7436   1.634   5.683   9.237 -0.3679 -0.0324 -0.0049
 3693W        W 7437   1.510   8.938   0.782 -0.0729 -0.0097 -0.2805
 3694W        W 7438   4.196   9.897   3.934  0.2129  0.3627 -0.0184
 3695W        W 7439   1.145   3.495   8.657  0.0740  0.1944  0.1084
 3696W        W 7440   3.513   7.432   9.500 -0.2364  0.1283 -0.0257
 3697W        W 7441   1.856   0.583   3.679 -0.0710  0.3517 -0.2340
 3698W        W 7442   3.292   4.827   1.948  0.0741 -0.0167 -0.1004
 3699W        W 7443   0.823   5.656   0.282  0.0703 -0.3963  0.0127
 3700W        W 7444   2.102   5.250   1.433  0.4340  0.1564  0.1106
 3701W        W 7445   4.228   3.485   2.361 -0.0168  0.1366 -0.1866
 3702W        W 7446   8.129   3.757  11.980  0.0637  0.2496 -0.3746
 3703W        W 7447   8.520   3.273  10.720  0.1388 -0.0649 -0.2463
 3704W        W 7448   1.690   9.139  11.116 -0.1330 -0.2517  0.1408
 3705W        W 7449   7.231   0.236   0.280 -0.2062 -0.0643  0.2022
 3706W        W 7450   4.581   1.291   3.196  0.0112 -0.1182  0.0236
 3707W        W 7451   3.521   8.498   9.712 -0.2154 -0.0724 -0.2223
 3708W        W 7452   8.624   1.142   3.734 -0.0799  0.3118 -0.0753
 3709W        W 7453   7.638   6.283   0.175 -0.3207 -0.1099 -0.1116
 3710W        W 7454   8.154   3.624   3.591 -0.1146  0.2016  0.2811
 3711W        W 7455   0.803   2.268   4.158  0.1804  0.1394  0.3391
 3712W        W 7456   2.789   8.506   9.197  0.0281  0.0562 -0.0619
 3713W        W 7457   7.062   6.353   3.247 -0.0192 -0.0035  0.1582
 3714W        W 7458   5.931   4.192   3.431  0.2666  0.3824  0.2669
 3715W        W 7459   8.494   4.774  11.131 -0.1502 -0.0405 -0.0472
 3716W        W 7460   2.198   7.011   9.892  0.1763 -0.2119  0.0103
 3717W        W 7461   8.193   4.747  12.419  0.1364  0.0752  0.1068
 3718W        W 7462   2.662   1.069   0.447 -0.3141 -0.1801 -0.0216
 3719W        W 7463   2.128   6.076  11.114  0.2381  0.2616  0.2577
 3720W        W 7464   2.390   6.845  11.373 -0.2430  0.3697 -0.0143
 3721W        W 7465   6.357   3.873   1.630 -0.0492 -0.3222  0.1153
 3722W        W 7466   8.948   0.241  11.786 -0.0458  0.2775  0.2775
 3723W        W 7467   5.936   1.764  10.122  0.5488  0.3070  0.0850
 3724W        W 7468   3.336   8.402   0.641  0.3133  0.1642  0.1349
 3725W        W 7469   3.695   4.848  11.397 -0.1382  0.0199  0.0238
 3726W        W 7470   7.166   3.889  12.336 -0.0672 -0.0683 -0.2769
 3727W        W 7471   1.880   2.631   0.728  0.2447  0.1115 -0.1597
 3728W        W 7472   1.099   7.946   2.427  0.0255 -0.1623 -0.0316
 3729W        W 7473   5.039   6.646  10.281 -0.0568 -0.0982  0.0464
 3730W        W 7474   8.284   2.383   1.934  0.0855 -0.1453 -0.0563
 3731W        W 7475   3.176   2.404   0.062 -0.0013 -0.1654  0.1163
 3732W        W 7476   8.438   6.914   3.634 -0.0801  0.0373  0.3883
 3733W        W 7477   1.152   5.670  10.765 -0.0142  0.0131  0.0934
 3734W        W 7478   6.403   7.147   0.574  0.0324 -0.2115 -0.2328
 3735W        W 7479   6.841   2.758   0.877 -0.2357 -0.2065  0.0923
 3736W        W 7480   2.925   8.509   2.048  0.0321 -0.1792  0.1933
 3737W        W 7481   1.260   2.509   4.274 -0.0357  0.0606 -0.1141
 3738W        W 7482   0.657   2.548  11.217 -0.1601 -0.2057 -0.0057
 3739W        W 7483   9.650   7.829   8.037  0.0572 -0.1328  0.0533
 3740W        W 7484   7.075   6.408   8.632 -0.3295 -0.0839 -0.3062
 3741W        W 7485   9.456   1.432  10.314  0.0470  0.2219  0.2641
 3742W        W 7486   6.178   4.359  11.953  0.1511  0.0913 -0.0439
 3743W        W 7487   2.925   3.723  11.415  0.1727 -0.0814 -0.1134
 3744W        W 7488   1.572   9.830   4.301 -0.2998 -0.2024 -0.1087
 3745W        W 7489   2.419   1.183  11.680  0.0783 -0.3726 -0.1030
 3746W        W 7490   0.522   7.115   2.275  0.0223 -0.0905 -0.0055
 3747W        W 7491   8.053   9.586   0.448 -0.2580 -0.2082  0.1484
 3748W        W 7492   6.392   0.718   9.462 -0.1537  0.3398 -0.0456
 3749W        W 7493   4.033   6.197   0.242 -0.2175  0.0372 -0.0755
 3750W        W 7494   1.810   0.695   2.244 -0.2917 -0.1140 -0.1234
 3751W        W 7495   8.915   4.398  11.242 -0.0057  0.1041  0.2965
 3752W        W 7496   4.818   8.603  11.889 -0.1011 -0.2999  0.2663
 3753W        W 7497   6.784   3.291  10.677  0.0922  0.1109  0.2658
 3754W        W 7498   5.769   6.672   3.777  0.0865 -0.0244  0.1003
 3755W        W 7499   9.713   8.203   3.356 -0.3028 -0.2756 -0.2098
 3756W        W 7500   0.698   4.275  10.240 -0.1200 -0.1293 -0.1415
 3757W        W 7501   8.772   9.365   1.600  0.2601 -0.0512  0.0600
 3758W        W 7502   7.443   8.526   4.094 -0.2230 -0.0721  0.1329
 3759W        W 7503   0.191   6.362  12.685 -0.0630 -0.2981  0.2758
 3760W        W 7504   3.204   6.498  10.943  0.4295 -0.0672  0.1024
 3761W        W 7505   2.065   6.020  12.311  0.0616  0.1891  0.1714
 3762W        W 7506   2.617   9.520  10.824 -0.2224  0.0561  0.2129
 3763W        W 7507   4.261   6.074   8.339  0.4174  0.2336  0.0424
 3764W        W 7508   7.223   8.261   4.806  0.1848 -0.0300  0.3067
 3765W        W 7509   1.762   9.799   0.833 -0.0163  0.2590 -0.2895
 3766W        W 7510   7.783   6.118   4.661  0.1185 -0.0053 -0.3985
 3767W        W 7511   3.721   7.738  10.368  0.1650 -0.4414  0.1589
 3768W        W 7512   4.893   2.039  11.774 -0.0661 -0.0024  0.1321
 3769W        W 7513   7.269   3.708   8.959 -0.4425  0.0791 -0.0693
 3770W        W 7514   0.275   3.480   1.985 -0.0840 -0.0329  0.1711
 3771W        W 7515   6.202   7.858  10.036 -0.4024  0.2129  0.0356
 3772W        W 7516   3.827   5.661   0.127  0.0703  0.1304  0.1151
 3773W        W 7517   4.500   8.022   2.648  0.0718  0.1686  0.1663
 3774W        W 7518   7.608   2.285  10.538 -0.2561  0.1994  0.1887
 3775W        W 7519   5.243   3.431  11.686 -0.5200 -0.0210 -0.1787
 3776W        W 7520   4.649   9.259   0.591  0.0838 -0.0236  0.1601
 3777W        W 7521   0.274   0.988  12.752  0.3112  0.2027 -0.1900
 3778W        W 7522   7.531   0.909   9.208 -0.2103  0.2808 -0.1624
 3779W        W 7523   8.785   1.089  12.675  0.0409  0.3297  0.1767
 3780W        W 7524   1.243   5.324   2.420 -0.2332  0.0606 -0.3543
 3781W        W 7525   4.097   2.039   1.992 -0.0978 -0.1820 -0.2052
 3782W        W 7526   8.031   9.843  11.223 -0.0276 -0.1152 -0.1879
 3783W        W 7527   6.992   7.596  11.165  0.0563  0.0082  0.2558
 3784W        W 7528   5.773   6.042   8.008 -0.2406  0.3376  0.1073
 3785W        W 7529   2.687   0.545   4.256  0.0769 -0.2090  0.0967
 3786W        W 7530   1.732   5.854   0.840 -0.0108  0.0852 -0.1076
 3787W        W 7531   6.085   0.965   9.061  0.1641  0.0373 -0.2352
 3788W        W 7532   3.199   5.000   3.124  0.2154 -0.0279 -0.1031
 3789W        W 7533   4.315   6.314  12.639 -0.1117 -0.0083 -0.1322
 3790W        W 7534   4.831   2.465   0.401  0.0497 -0.4307 -0.1594
 3791W        W 7535   6.176   6.881   8.152  0.0214 -0.3008  0.1846
 3792W        W 7536   9.552   5.947   1.447  0.0874 -0.0057  0.2558
 3793W        W 7537   8.979   6.104   7.920  0.1846  0.0842 -0.2151
 3794W        W 7538   4.580   5.139   9.366  0.1644  0.0482  0.1584
 3795W        W 7539   6.502   1.012   4.114 -0.1987  0.0471 -0.1925
 3796W        W 7540   9.713   0.390  11.347 -0.3855 -0.2684  0.3671
 3797W        W 7541   5.135   2.715  10.522 -0.0430 -0.2451 -0.0839
 3798W        W 7542   6.516   8.517   8.858 -0.0858  0.0449 -0.2957
 3799W        W 7543   4.636   8.290  11.009  0.1124  0.1633  0.1904
 3800W        W 7544   9.453   7.320   8.121  0.1506  0.0191  0.1073
 3801W        W 7545   4.287   6.862   1.690  0.3363  0.1178 -0.2771
 3802W        W 7546   8.948   1.842  10.808  0.1923 -0.0792  0.0639
 3803W        W 7547   2.213   0.447   2.102  0.2298  0.1609 -0.0419
 3804W        W 7548   4.384   6.729   0.500  0.0416 -0.1303 -0.1828
 3805W        W 7549   5.231   0.462   3.986 -0.0357  0.1155  0.3120
 3806W        W 7550   5.746   7.911   3.005 -0.1605 -0.0008 -0.0498
 3807W        W 7551   8.759   6.231   2.116  0.0077  0.4931 -0.1861
 3808W        W 7552   2.493   2.122  10.630 -0.0243 -0.1579 -0.1543
 3809W        W 7553   0.206   3.605   4.823  0.0413  0.2849 -0.2157
 3810W        W 7554   8.571   3.909  12.411  0.1846 -0.1471 -0.1357
 3811W        W 7555   3.261   7.275   0.463  0.0994 -0.0665 -0.1660
 3812W        W 7556   6.910   3.761   1.585 -0.1915  0.0878  0.2179
 3813W        W 7557   2.622   8.948   3.414 -0.3638  0.2172 -0.0135
 3814W        W 7558   3.707   5.151  10.346  0.3937 -0.4925  0.0395
 3815W        W 7559   1.431   0.453   1.046  0.1039 -0.0950 -0.0716
 3816W        W 7560   7.002   0.612   2.105 -0.0762  0.0593  0.2293
 3817W        W 7561   3.422   3.933   1.387 -0.1105 -0.1125  0.0041
 3818W        W 7562   9.754   5.475  11.086  0.2153 -0.4196  0.2623
 3819W        W 7563   6.127   9.028   2.284 -0.3018 -0.0517 -0.0600
 3820W        W 7564   7.215   0.304   0.842  0.4102  0.0504 -0.0716
 3821W        W 7565   4.993   4.916   3.470  0.0200  0.0520  0.0823
 3822W        W 7566   4.838   6.425   9.601  0.1769  0.0133 -0.0423
 3823W        W 7567   2.805   2.352  12.247  0.0602  0.0310  0.1306
 3824W        W 7568   3.732   5.178  12.316 -0.0165 -0.2686 -0.1010
 3825W        W 7569   2.688   8.692   2.979 -0.2961 -0.4347  0.0614
 3826W        W 7570   7.810   3.795  11.533  0.2329 -0.0086 -0.2112
 3827W        W 7571   6.350   2.187   9.421  0.0483  0.1391 -0.0248
 3828W        W 7572   2.421   7.925  11.316  0.1765 -0.2089  0.2113
 3829W        W 7573   2.589   8.744  11.580 -0.0798  0.2684 -0.0249
 3830W        W 7574   9.811   1.811   4.441  0.1209 -0.2708  0.1214
 3831W        W 7575   9.874   6.580   0.458 -0.3790 -0.1229 -0.2215
 3832W        W 7576   6.433   7.776   8.559  0.1185 -0.0828 -0.2497
 3833W        W 7577   7.490   7.601   0.286 -0.0246  0.1847 -0.1149
 3834W        W 7578   7.905   1.746   1.048  0.1195  0.2246 -0.1602
 3835W        W 7579   0.468   9.116   4.421 -0.2221 -0.5097  0.3048
 3836W        W 7580   0.195   2.146   2.592  0.0324 -0.1003  0.0937
 3837W        W 7581   5.494   1.597   2.848  0.0907  0.2453 -0.0582
 3838W        W 7582   1.575   6.846  12.443  0.0596 -0.1482 -0.3279
 3839W        W 7583   0.721   5.736   3.975 -0.2906  0.3760 -0.1680
 3840W        W 7584   7.763   0.592  12.340  0.2998  0.0079  0.3573
 3841W        W 7585   5.758   5.381   3.219  0.1152  0.1358 -0.0094
 3842W        W 7586   7.215   7.304  12.288 -0.2235  0.1746 -0.0656
 3843W        W 7587   4.885   5.088   0.348  0.1037 -0.0500 -0.0101
 3844W        W 7588   8.044   6.002   2.333  0.1212  0.0512  0.0269
 3845W        W 7589   2.716   9.887   9.885 -0.0344 -0.2239 -0.3238
 3846W        W 7590   8.885   4.997   9.887 -0.0313  0.2325  0.0186
 3847W        W 7591   4.231   8.446   9.238 -0.1106 -0.0719 -0.0375
 3848W        W 7592   8.363   9.066   0.284 -0.1007  0.1727 -0.0304
 3849W        W 7593   8.888   7.042  10.828 -0.0469 -0.3421 -0.2049
 3850W        W 7594   0.116   4.008   8.425  0.0387  0.0838 -0.0007
 3851W        W 7595   3.273   7.365  11.543  0.1747  0.2085  0.0824
 3852W        W 7596   5.444   3.793  11.392  0.0733 -0.1590 -0.3393
 3853W        W 7597   8.012   1.667   2.498  0.2290 -0.0197  0.1333
 3854W        W 7598   9.888   4.550   1.098 -0.1523 -0.4043 -0.2943
 3855W        W 7599   9.407   8.496   4.733  0.1907 -0.4001 -0.0352
 3856W        W 7600   7.997   6.709  10.450 -0.1891 -0.0219 -0.0722
 3857W        W 7601   8.152   1.169   9.260 -0.3704 -0.1079  0.0815
 3858W        W 7602   8.572   2.857   4.110 -0.0246 -0.1520 -0.3094
 3859W        W 7603   5.410   9.569  12.237  0.1557 -0.0809 -0.1078
 3860W        W 7604   7.779   3.218   3.739  0.0810  0.1495 -0.0716
 3861W        W 7605   9.895   5.766   0.563 -0.0307 -0.0014 -0.0498
 3862W        W 7606   5.029   5.524   0.668  0.0538 -0.1394 -0.0265
 3863W        W 7607   7.695   0.308   1.666  0.1733  0.1483  0.0799
 3864W        W 7608   7.545   1.804   8.771 -0.0119  0.5026  0.0790
 3865W        W 7609   6.452   6.121   3.740 -0.0639  0.2957 -0.1284
 3866W        W 7610   7.685   0.361   9.590  0.4059  0.1478 -0.0685
 3867W        W 7611   2.482   9.067   2.457  0.2246  0.0206 -0.1299
 3868W        W 7612   1.368   1.339  11.786  0.1725  0.1291 -0.2018
 3869W        W 7613   3.555   5.600   2.485  0.0612 -0.1190  0.2066
 3870W        W 7614   2.546   0.694   0.806  0.2133  0.3920 -0.3143
 3871W        W 7615   4.740   1.451  10.195  0.1996  0.1172  0.1531
 3872W        W 7616   3.828   0.465  12.574  0.0144  0.0628 -0.0686
 3873W        W 7617   3.394   7.799   3.597  0.0516  0.2712  0.4189
 3874W        W 7618   6.673   3.650   2.500  0.2127  0.0598 -0.1422
 3875W        W 7619   9.435   9.005   2.749  0.3660 -0.0122  0.0242
 3876W        W 7620   9.635   2.329   3.647  0.1937  0.0609  0.0034
 3877W        W 7621   9.503   5.003  12.470 -0.1183  0.1481 -0.0058
 3878W        W 7622   8.867   3.814   0.167 -0.2995 -0.1681  0.2957
 3879W        W 7623   8.835   4.669   1.990  0.2917  0.3513 -0.0005
 3880W        W 7624   0.335   4.927   2.456 -0.0561 -0.0459 -0.0436
 3881W        W 7625   5.068   8.156   3.868  0.0590  0.2898  0.0183
 3882W        W 7626   5.182   7.088   1.621  0.0182  0.0800  0.2448
 3883W        W 7627   7.692   1.808   4.158 -0.4042 -0.1350  0.2902
 3884W        W 7628   1.987   0.098   3.408  0.1026  0.1941 -0.0717
 3885W        W 7629   2.021   8.183   0.940 -0.1986 -0.1233  0.2963
 3886W        W 7630   0.597   7.729   8.438 -0.0240 -0.2767  0.1737
 3887W        W 7631   9.018   5.224   3.412 -0.0452 -0.1107  0.0154
 3888W        W 7632   1.191   4.072  11.779  0.0102 -0.1088 -0.0186
 3889W        W 7633   8.943   7.903   2.108 -0.1812 -0.0095 -0.2540
 3890W        W 7634   0.544   6.005  12.763  0.0275 -0.1437 -0.1858
 3891W        W 7635   6.683   6.215  12.001 -0.1502  0.1077 -0.1719
 3892W        W 7636   6.548   8.003  12.339  0.0325 -0.3446 -0.0188
 3893W        W 7637   9.098   7.160   9.535  0.2789 -0.2394 -0.0586
 3894W        W 7638   1.625   4.833   9.467 -0.1189 -0.0927 -0.0082
 3895W        W 7639   8.300   0.950  10.837 -0.0032  0.1171  0.0337
 3896W        W 7640   4.485   2.068   3.526  0.3660  0.1299 -0.1678
 3897W        W 7641   0.578   3.940   9.229 -0.1486  0.2648  0.0196
 3898W        W 7642   0.970   5.065  10.029  0.1571  0.2112  0.0244
 3899W        W 7643   3.771   1.703   1.885  0.2558  0.2397  0.3251
 3900W        W 7644   0.705   0.893   3.660 -0.2380 -0.1513 -0.1427
 3901W        W 7645   5.685   8.883   1.189 -0.0799  0.0260 -0.2986
 3902W        W 7646   6.192   3.542  10.026 -0.0668 -0.2299  0.1368
 3903W        W 7647   7.496   7.680  11.345 -0.0296  0.1160  0.1230
 3904W        W 7648   6.494   5.653  12.215 -0.2003 -0.2423  0.1876
 3905W        W 7649   1.084   5.792   2.658  0.1863 -0.1621 -0.2109
 3906W        W 7650   3.969   3.906   3.193 -0.2344 -0.0540  0.2011
 3907W        W 7651   1.015   4.200   0.245 -0.0066  0.2059 -0.2162
 3908W        W 7652   7.197   7.746  11.954  0.0480 -0.1307  0.3617
 3909W        W 7653   0.055   2.858  12.622 -0.1091  0.5155 -0.2858
 3910W        W 7654   2.805   4.168  12.377 -0.0689  0.1019  0.1312
 3911W        W 7655   4.231   3.354   1.878  0.1688  0.3771 -0.4202
 3912W        W 7656   9.054   9.751  11.188  0.1685 -0.0184 -0.2706
 3913W        W 7657   0.688   7.353   0.001  0.0287  0.0265  0.0588
 3914W        W 7658   9.583   7.172  10.407  0.1338  0.1540 -0.0649
 3915W        W 7659   0.285   4.559  11.972  0.0252  0.0671 -0.2439
 3916W        W 7660   9.139   6.883  10.314  0.0017 -0.0496  0.4209
 3917W        W 7661   8.646   8.946   8.525 -0.0955 -0.1873 -0.0475
 3918W        W 7662   7.328   4.354   9.617  0.0016  0.1804  0.0308
 3919W        W 7663   3.594   8.994   4.772  0.1402  0.3248  0.2974
 3920W        W 7664   0.855   5.073  11.763  0.0111  0.0694 -0.3133
 3921W        W 7665   6.665   2.419   1.610  0.0910 -0.0048  0.3823
 3922W        W 7666   6.825   8.360   2.436  0.0261  0.0882  0.1804
 3923W        W 7667   1.030   4.698  10.365  0.1197  0.2364  0.2651
 3924W        W 7668   9.084   9.157  10.048  0.2131  0.3706 -0.1462
 3925W        W 7669   7.851   9.269   4.146 -0.1545 -0.2372 -0.0166
 3926W        W 7670   4.861   7.473   1.428  0.3586 -0.1929  0.0396
 3927W        W 7671   9.455   0.324   0.293  0.2884  0.1203  0.0396
 3928W        W 7672   0.018   3.563  11.886  0.1280  0.0833 -0.2412
 3929W        W 7673   9.888   5.035   2.772  0.4590  0.0071 -0.0242
 3930W        W 7674   3.011   7.411   3.499  0.0345 -0.0139  0.1122
 3931W        W 7675   5.321   4.895  11.098 -0.0427 -0.1098  0.2622
 3932W        W 7676   7.731   0.822   4.413  0.0561  0.1038  0.1570
 3933W        W 7677   7.474   6.170   2.271  0.1259 -0.0849  0.1297
 3934W        W 7678   9.443   2.730  10.392 -0.0814 -0.0070  0.2010
 3935W        W 7679   7.100   7.407   2.087 -0.3139 -0.1683 -0.5123
 3936W        W 7680   9.887   8.391   3.858 -0.4615  0.0324 -0.2418
 3937W        W 7681   6.746   8.649   4.505  0.0511  0.0411 -0.0484
 3938W        W 7682   1.178   6.459   1.828 -0.2106  0.2403 -0.1462
 3939W        W 7683   1.134   3.783  11.399 -0.2550  0.1642  0.2859
 3940W        W 7684   6.209   7.611   8.964 -0.1777 -0.3208  0.0097
 3941W        W 7685   2.937   9.010  12.158 -0.0130  0.0505  0.0000
 3942W        W 7686   7.484   2.292   4.971  0.4918  0.2571 -0.3045
 3943W        W 7687   7.634   8.647   2.052  0.1197  0.6116  0.0499
 3944W        W 7688   5.920   1.759   8.847 -0.0022 -0.0627  0.3638
 3945W        W 7689   8.870   8.786  11.362  0.0102  0.1191  0.3246
 3946W        W 7690   6.577   2.559   9.188 -0.3968 -0.0191 -0.2570
 3947W        W 7691   7.363   0.526   1.325 -0.0083  0.2515  0.2987
 3948W        W 7692   0.546   0.978   1.730 -0.0932  0.0494  0.0053
 3949W        W 7693   5.522   3.084  10.609  0.1243  0.2505  0.2729
 3950W        W 7694   9.668   6.856   1.269 -0.1985 -0.0662 -0.0973
 3951W        W 7695   9.145   4.592   8.859  0.2479  0.2832 -0.0868
 3952W        W 7696   9.790   8.083  12.285 -0.1393 -0.0381 -0.0057
 3953W        W 7697   2.868   9.838   8.703  0.0045 -0.3210  0.2525
 3954W        W 7698   5.952   3.889   2.219  0.1941 -0.0689  0.0774
 3955W        W 7699   1.334   8.736   2.168 -0.3512 -0.0017 -0.4321
 3956W        W 7700   8.493   7.724   9.308 -0.0392 -0.0947  0.0370
 3957W        W 7701   3.564   9.715   3.224  0.0579 -0.2245 -0.1480
 3958W        W 7702   1.911   5.560   4.273  0.4072 -0.0441  0.1558
 3959W        W 7703   2.098   2.333   9.745 -0.3173  0.0828 -0.0913
 3960W        W 7704   6.433   8.875   9.870 -0.2042  0.1933  0.4499
 3961W        W 7705   9.628   3.940  11.721  0.0720 -0.2145 -0.0046
 3962W        W 7706   5.345   2.091  11.445  0.0534 -0.1098 -0.4273
 3963W        W 7707   3.097   6.638   8.483  0.0869  0.2735  0.0193
 3964W        W 7708   6.942   0.748   1.529  0.1158 -0.0563 -0.2972
 3965W        W 7709   9.797   3.218   2.865 -0.0184  0.1769 -0.0210
 3966W        W 7710   7.661   9.346   0.590 -0.1643 -0.0646 -0.0004
 3967W        W 7711   1.775   8.646   4.967  0.0290 -0.1303  0.0420
 3968W        W 7712   1.178   4.625  11.692 -0.0889  0.1778 -0.0090
 3969W        W 7713   8.330   5.509   0.028 -0.0285  0.2257 -0.0513
 3970W        W 7714   6.531   3.306   9.378 -0.1917  0.0818  0.0687
 3971W        W 7715   0.963   3.802  12.682  0.1361  0.0044 -0.0950
 3972W        W 7716   6.787   9.211   2.789  0.2533 -0.1171 -0.4503
 3973W        W 7717   7.606   7.793   9.421 -0.0571  0.3510 -0.2949
 3974W        W 7718   6.390   9.469   5.326  0.3931 -0.0245 -0.0691
 3975W        W 7719   3.542   6.391   0.186  0.0863  0.1450  0.1649
 3976W        W 7720   1.149   3.292  11.018  0.3782 -0.0204 -0.0549
 3977W        W 7721   7.667   5.379   3.911 -0.0757  0.1353  0.1123
 3978W        W 7722   9.360   5.789  11.428 -0.0052  0.2888  0.2726
 3979W        W 7723   1.649   9.593  11.937 -0.2275 -0.1824  0.1441
 3980W        W 7724   8.104   2.517   1.465 -0.1521 -0.0154  0.0610
 3981W        W 7725   0.435   1.775  10.932  0.1661 -0.0917 -0.0335
 3982W        W 7726   1.281   7.936   1.399  0.0794  0.1011 -0.1588
 3983W        W 7727   9.581   5.507  11.867  0.1654 -0.1104 -0.0330
 3984W        W 7728   9.690   7.080  11.537  0.0502 -0.1001  0.2417
 3985W        W 7729   7.211   6.958   0.869 -0.0136 -0.0360 -0.2733
 3986W        W 7730   5.799   6.530   9.680 -0.0210 -0.0417  0.3131
 3987W        W 7731   2.402   1.239  10.719 -0.3685  0.0923  0.4587
 3988W        W 7732   5.617   9.876  11.893  0.0029 -0.3882 -0.0335
 3989W        W 7733   4.929   0.156  10.400  0.2901 -0.2881  0.0671
 3990W        W 7734   4.792   9.390   1.063 -0.1689  0.1487  0.0561
 3991W        W 7735   1.789   1.548  11.700  0.2070 -0.1186 -0.1773
 3992W        W 7736   5.505   4.970  10.595 -0.0459 -0.0222  0.0725
 3993W        W 7737   7.982   1.742  11.370  0.2162  0.0125  0.0112
 3994W        W 7738   6.107   2.205   0.913  0.1546 -0.6285  0.0515
 3995W        W 7739   6.749   4.101  12.106 -0.1090  0.1557 -0.0794
 3996W        W 7740   1.884   9.783   0.295  0.2264 -0.0477 -0.1646
 3997W        W 7741   0.262   2.776  10.960 -0.1969 -0.0462  0.0959
 3998W        W 7742   3.884   7.308   4.684  0.0055 -0.1526 -0.0172
 3999W        W 7743   3.470   6.754   9.942  0.0153  0.2165 -0.1880
 4000W        W 7744   7.044   3.753   2.979 -0.0344 -0.4590  0.1562
 4001W        W 7745   9.502   5.992   2.037  0.2979  0.1787  0.2096
 4002W        W 7746   1.409   4.578  10.766  0.1350  0.2809  0.2007
 4003W        W 7747   5.955   3.744  10.497 -0.0280 -0.0205  0.1442
 4004W        W 7748   1.512   6.160  11.439 -0.1888 -0.3875  0.0070
 4005W        W 7749   9.463   9.471   0.531  0.0752 -0.1969  0.0606
 4006W        W 7750   6.806   0.354  10.553 -0.1794  0.0950  0.2959
 4007W        W 7751   8.188   7.656  11.486  0.1489  0.0136  0.0566
 4008W        W 7752   4.307   2.239  10.144  0.2228  0.1706 -0.1722
 4009W        W 7753   7.087   2.835   1.341 -0.1027  0.1803 -0.1760
 4010W        W 7754   1.123   2.607  12.096  0.0369  0.4598  0.0221
 4011W        W 7755   0.311   0.720   2.684 -0.0862  0.2897  0.0529
 4012W        W 7756   2.988   8.294  10.000 -0.0947  0.0699  0.3966
 4013W        W 7757   5.056   0.164   4.471  0.1757 -0.0151  0.0335
 4014W        W 7758   2.588   2.228   1.977  0.3672  0.2349 -0.0389
 4015W        W 7759   0.733   1.312   4.032  0.1881  0.2280 -0.1291
 4016W        W 7760   7.639   5.202   2.160 -0.2084 -0.0674  0.1294
 4017W        W 7761   3.665   4.092   0.479  0.0667 -0.0408 -0.1242
 4018W        W 7762   7.677   4.332   0.303  0.1041  0.1601  0.0351
 4019W        W 7763   3.486   4.729  12.098  0.0404  0.1921 -0.0935
 4020W        W 7764   0.590   7.257   2.758  0.0945  0.0189  0.0617
 4021W        W 7765   3.322   4.322  12.477 -0.2709  0.0291  0.1862
 4022W        W 7766   0.282   3.604   1.172  0.2169  0.1202 -0.0361
 4023W        W 7767   2.600   9.338   1.462 -0.1512  0.1064  0.4916
 4024W        W 7768   1.991   2.970   2.465 -0.0251 -0.1102  0.0927
 4025W        W 7769   7.717   8.509   3.086  0.0850  0.2369  0.1453
 4026W        W 7770   3.153   0.203   8.390  0.0738  0.4190  0.0307
 4027W        W 7771   6.082   1.305  10.116  0.0347  0.2349  0.0328
 4028W        W 7772   0.399   7.238  10.576 -0.1137 -0.1312  0.0035
 4029W        W 7773   2.731   9.449   9.057  0.0232 -0.0915 -0.1090
 4030W        W 7774   5.264   0.940   0.670  0.2460 -0.1764  0.0247
 4031W        W 7775   7.025   0.789  10.623  0.1533 -0.2846 -0.0926
 4032W        W 7776   0.359   6.625   9.933  0.4172 -0.0520 -0.1302
 4033W        W 7777   7.736   4.586   0.792 -0.3060  0.0276 -0.4260
 4034W        W 7778   5.051   3.592   1.218  0.0865 -0.1623  0.0712
 4035W        W 7779   9.719   5.516   2.689  0.1675  0.1586  0.1214
 4036W        W 7780   2.384   0.395  10.895  0.1180 -0.0939 -0.0412
 4037W        W 7781   6.740   4.540   9.728 -0.0734 -0.3165  0.0058
 4038W        W 7782   8.316   7.333   9.035 -0.4204  0.1283 -0.0102
 4039W        W 7783   0.883   7.483  10.405 -0.1741 -0.0697 -0.1925
 4040W        W 7784   4.684   0.455  11.242  0.0294  0.1725 -0.4083
 4041W        W 7785   3.789   5.674   1.491 -0.4271  0.1172  0.2715
 4042W        W 7786   6.716   1.710   9.383 -0.0721 -0.3505  0.0029
 4043W        W 7787   4.524   7.962   3.646 -0.2125 -0.2708 -0.1557
 4044W        W 7788   6.353   6.559   9.727  0.1124 -0.2688  0.1578
 4045W        W 7789   6.287   3.409   4.360  0.4251  0.0980 -0.0043
 4046W        W 7790   0.551   4.571  10.582 -0.1332 -0.0124  0.0149
 4047W        W 7791   2.883   4.544   3.751 -0.2748 -0.3182 -0.4040
 4048W        W 7792   8.647   2.287   8.702  0.0519 -0.0766  0.0097
 4049W        W 7793   8.826   6.581  11.062 -0.0389  0.0495  0.0460
 4050W        W 7794   2.971   8.131   3.865  0.2588 -0.3117  0.0376
 4051W        W 7795   3.798   8.827  10.131 -0.1440 -0.0156 -0.3057
 4052W        W 7796   1.432   1.751   0.017 -0.1374 -0.0342 -0.0938
 4053W        W 7797   3.638   4.508   2.107 -0.3071  0.0559  0.3143
 4054W        W 7798   6.672   2.490  10.659  0.0127 -0.0216 -0.2240
 4055W        W 7799   0.481   8.067   2.746  0.0756 -0.0405  0.0485
 4056W        W 7800   5.994   6.925   9.958  0.0283 -0.1627 -0.0849
 4057W        W 7801   7.454   6.918   4.220  0.2263  0.0268 -0.1790
 4058W        W 7802   2.453   7.817  12.434 -0.0502  0.0693 -0.0433
 4059W        W 7803   9.464   7.559   0.269 -0.0162 -0.1129  0.0336
 4060W        W 7804   0.412   3.796   1.577  0.0955  0.0124  0.2503
 4061W        W 7805   7.865   8.758   3.868  0.2211  0.1047  0.1806
 4062W        W 7806   6.377   0.227  11.703 -0.1493 -0.1951  0.2450
 4063W        W 7807   8.911   3.224  11.671 -0.1472 -0.1562 -0.2420
 4064W        W 7808   4.971   4.679  10.573 -0.0649 -0.0479 -0.0803
 4065W        W 7809   7.421   5.186   9.609 -0.1842  0.1283 -0.2685
 4066W        W 7810   9.118   2.540   9.502 -0.0133  0.0942 -0.0548
 4067W        W 7811   2.444   2.594  12.528  0.0762  0.2669 -0.1225
 4068W        W 7812   7.485   6.192   9.558  0.2396  0.1014 -0.1220
 4069W        W 7813   7.167   7.313   3.978  0.0627  0.2639 -0.1583
 4070W        W 7814   8.521   9.729   1.451 -0.0281 -0.1098 -0.0506
 4071W        W 7815   1.568   1.044   1.589 -0.2645 -0.0092 -0.2676
 4072W        W 7816   2.238   4.046  12.569 -0.0406  0.2793 -0.0430
 4073W        W 7817   7.331   2.392   0.993  0.1190  0.2408 -0.2089
 4074W        W 7818   7.554   3.029   3.276 -0.0459 -0.0220  0.3574
 4075W        W 7819   9.333   8.746   1.398  0.0996  0.0301 -0.0348
 4076W        W 7820   8.107   6.098  12.820  0.0516  0.1523 -0.1071
 4077W        W 7821   1.289   4.124  11.059  0.1418 -0.0204 -0.0869
 4078W        W 7822   2.340   1.180   2.786 -0.1959 -0.3854  0.0121
 4079W        W 7823   7.347   2.132   3.183 -0.0679 -0.1056  0.1809
 4080W        W 7824   1.086   5.598   9.219  0.3471  0.2338  0.1794
 4081W        W 7825   9.580   2.772   3.113 -0.0522  0.1892  0.0284
 4082W        W 7826   7.447   5.499   8.594 -0.0045 -0.0778  0.2512
 4083W        W 7827   1.022   9.798   3.444  0.1686 -0.0609  0.2299
 4084W        W 7828   6.039   0.935  10.902 -0.0452  0.4699 -0.1472
 4085W        W 7829   8.130   2.652   9.548 -0.3634 -0.0301  0.0547
 4086W        W 7830   3.055   6.244   8.843 -0.2126  0.1256 -0.3082
 4087W        W 7831   0.987   7.211   3.548  0.0589 -0.2783  0.3242
 4088W        W 7832   5.285   4.786   2.368  0.4433  0.1979 -0.0279
 4089W        W 7833   8.606   6.791  10.454  0.1095 -0.1077 -0.0445
 4090W        W 7834   2.928   5.664  11.886  0.2911  0.0674  0.2359
 4091W        W 7835   5.207   0.737   3.536  0.1473  0.3129  0.2569
 4092W        W 7836   6.225   3.627   2.733  0.1614 -0.2871  0.2485
 4093W        W 7837   4.590   9.158  11.253 -0.0062  0.4117 -0.0250
 4094W        W 7838   5.697   7.845   1.645  0.1552  0.0888 -0.1340
 4095W        W 7839   5.811   9.529   9.317 -0.0955 -0.0119 -0.0135
 4096W        W 7840   3.843   2.534  10.474 -0.1640  0.2732  0.0157
 4097W        W 7841   3.463   6.431   9.165 -0.2714  0.1180 -0.0484
 4098W        W 7842   9.393   4.714   4.311  0.1932 -0.2844  0.0327
 4099W        W 7843   4.670   6.960  10.953 -0.0279  0.1493 -0.2300
 4100W        W 7844   3.941   8.069   4.235 -0.0875 -0.1271 -0.0079
 4101W        W 7845   3.638   0.284   9.778  0.2169 -0.1381 -0.2066
 4102W        W 7846   0.564   4.019   1.070 -0.1358 -0.0093  0.0015
 4103W        W 7847   9.918   0.354   0.673  0.0408 -0.2130  0.0317
 4104W        W 7848   7.565   8.307   1.556 -0.2323  0.1397 -0.4025
 4105W        W 7849   6.780   2.106   9.035 -0.1487 -0.2263  0.2765
 4106W        W 7850   9.888   9.362   3.006 -0.1168 -0.2281 -0.1872
 4107W        W 7851   1.119   2.939   2.470  0.2050  0.1675 -0.0224
 4108W        W 7852   4.760   7.850   0.492 -0.3254  0.3321 -0.0297
 4109W        W 7853   4.280   2.815   2.990 -0.2537 -0.2290  0.1548
 4110W        W 7854   9.705   4.699   3.950  0.1212  0.0058  0.1122
 4111W        W 7855   8.736   0.937   0.331  0.0190  0.2407  0.0841
 4112W        W 7856   0.406   9.895  12.816 -0.2504  0.4532  0.4247
 4113W        W 7857   4.602   0.399   9.453 -0.0867  0.0622 -0.2626
 4114W        W 7858   7.934   4.951  12.028 -0.2944 -0.1147 -0.3145
 4115W        W 7859   5.935   5.300   1.924  0.0002 -0.1829  0.0202
 4116W        W 7860   3.515   1.204  10.073  0.0291 -0.0501 -0.1504
 4117W        W 7861   8.210   1.849  10.476  0.3710 -0.1192  0.0078
 4118W        W 7862   3.693   4.678   2.580  0.1728  0.1205 -0.1028
 4119W        W 7863   9.042   1.664   9.212  0.0963 -0.1029  0.1117
 4120W        W 7864   6.390   8.641  10.718 -0.2623 -0.0855 -0.0094
 4121W        W 7865   6.305   5.836   3.137 -0.2838  0.0096  0.2053
 4122W        W 7866   1.558   7.169  10.070 -0.1596 -0.1667 -0.1870
 4123W        W 7867   1.392   4.124   1.387 -0.1315  0.1878 -0.3228
 4124W        W 7868   8.750   9.840   1.924 -0.0728 -0.1753  0.1066
 4125W        W 7869   7.439   3.090  12.539 -0.0539 -0.0695  0.2055
 4126W        W 7870   7.537   1.958   7.909 -0.1794 -0.2706  0.0560
 4127W        W 7871   9.155   7.071   2.166 -0.0640  0.0238  0.0056
 4128W        W 7872   0.019   8.626   3.398  0.0460  0.2467 -0.1113
 4129W        W 7873   2.379   0.995   2.226 -0.0190 -0.0214 -0.2138
 4130W        W 7874   8.827   6.978   8.490 -0.2386  0.2113  0.1725
 4131W        W 7875   3.640   5.724  10.410 -0.1595  0.0182 -0.1231
 4132W        W 7876   7.813   7.832   4.272  0.2979 -0.1358  0.0886
 4133W        W 7877   1.136   8.304   1.924  0.1739  0.2978 -0.0685
 4134W        W 7878   0.377   6.514   0.293 -0.0475 -0.1894  0.0079
 4135W        W 7879   9.639   6.745   4.052 -0.0766  0.1394  0.3960
 4136W        W 7880   1.004   2.371   2.523 -0.2242  0.1126  0.1524
 4137W        W 7881   5.293   0.652   1.768 -0.1893 -0.1928  0.1342
 4138W        W 7882   3.138   6.474  10.294  0.1529  0.2403 -0.2282
 4139W        W 7883   7.544   9.648  11.049 -0.1903 -0.3197  0.1428
 4140W        W 7884   2.038   2.537  10.500 -0.2125 -0.1643  0.1576
 4141W        W 7885   0.289   1.418   1.524  0.0360 -0.0907 -0.4073
 4142W        W 7886   5.990   6.374  10.473  0.0642 -0.0698 -0.0430
 4143W        W 7887   7.815   4.572  10.625 -0.0414 -0.1816  0.1454
 4144W        W 7888   8.398   8.253   9.110 -0.2343 -0.0491 -0.1348
 4145W        W 7889   0.805   9.840   3.897  0.0283 -0.0010  0.3909
 4146W        W 7890   1.695   0.983   3.409  0.0280  0.2535  0.1459
 4147W        W 7891   4.647   7.573   0.996 -0.1802 -0.4503  0.2466
 4148W        W 7892   0.493   3.278   0.508 -0.1561  0.0272 -0.0991
 4149W        W 7893   2.287   0.821   3.163  0.1893  0.1575  0.0413
 4150W        W 7894   0.317   5.280   1.440  0.2403  0.0955  0.2139
 4151W        W 7895   3.791   0.919  11.642 -0.0839 -0.0446 -0.2997
 4152W        W 7896   9.901   5.840   2.339 -0.0972 -0.1425 -0.4552
 4153W        W 7897   2.425   1.332   3.589  0.2364 -0.2004  0.2782
 4154W        W 7898   4.182   4.498  11.066 -0.1647 -0.1116  0.0110
 4155W        W 7899   0.732   1.162  11.826 -0.0890 -0.1992  0.0251
 4156W        W 7900   0.843   0.631   1.978 -0.1143  0.0817  0.1413
 4157W        W 7901   2.132   0.310   1.628  0.0048 -0.0713 -0.1450
 4158W        W 7902   9.362   0.472   2.977 -0.2268 -0.1140  0.1707
 4159W        W 7903   2.902   7.268  12.740 -0.3135  0.0108 -0.0314
 4160W        W 7904   8.590   7.862  11.205  0.1846  0.5517 -0.1022
 4161W        W 7905   3.080   7.750   2.969  0.0246  0.1127 -0.0219
 4162W        W 7906   3.339   1.719   2.143 -0.0731 -0.0398 -0.2989
 4163W        W 7907   9.508   5.777   3.811  0.1647 -0.4023  0.0110
 4164W        W 7908   3.431   3.222  10.065  0.1186  0.0414 -0.0463
 4165W        W 7909   1.341   6.427  12.793 -0.1271 -0.0740  0.2731
 4166W        W 7910   7.960   7.435   0.515  0.2946 -0.1045 -0.4177
 4167W        W 7911   3.955   0.173   1.436 -0.0785 -0.0595 -0.2022
 4168W        W 7912   5.791   9.852   8.869  0.1943 -0.1608  0.0587
 4169W        W 7913   6.630   1.245   1.589  0.0760 -0.0161 -0.0982
 4170W        W 7914   5.943   8.756   4.884 -0.0479 -0.1013 -0.0030
 4171W        W 7915   9.159   6.963   0.964 -0.1783  0.0186  0.1027
 4172W        W 7916   1.325   8.943   9.654 -0.0549 -0.3711 -0.1653
 4173W        W 7917   9.860   1.245  12.525  0.1382  0.0007  0.0391
 4174W        W 7918   5.533   0.558  11.651 -0.2535 -0.0733 -0.0978
 4175W        W 7919   7.963   7.669  12.373  0.0319 -0.1489 -0.0624
 4176W        W 7920   2.335   2.065   1.172  0.2483  0.1419 -0.1498
 4177W        W 7921   8.640   5.896   4.759 -0.1297  0.0064  0.2005
 4178W        W 7922   6.284   3.140   1.917  0.3747 -0.0978 -0.3973
 4179W        W 7923   1.769   7.317   2.659  0.1664  0.3205  0.3030
 4180W        W 7924   9.030   5.598  12.101  0.1646 -0.0442  0.2286
 4181W        W 7925   7.233   9.272   3.194  0.0012  0.1178  0.0437
 4182W        W 7926   5.606   0.783   4.057 -0.1012 -0.3171  0.0943
 4183W        W 7927   6.577   5.212   0.859 -0.0882 -0.0637  0.1318
 4184W        W 7928   9.373   5.741   0.552 -0.1436  0.0604 -0.3364
 4185W        W 7929   7.954   5.120   9.670 -0.4507  0.1490  0.1246
 4186W        W 7930   5.596   7.698  11.481  0.2625 -0.0021  0.2051
 4187W        W 7931   1.980   1.461   9.835  0.0915 -0.3831  0.2175
 4188W        W 7932   6.468   3.290   8.209 -0.2431  0.0182 -0.0564
 4189W        W 7933   3.824   6.108  12.647  0.0831  0.1493 -0.1612
 4190W        W 7934   7.969   6.503   2.470  0.4748  0.1241 -0.1178
 4191W        W 7935   3.503   1.514   4.767 -0.2046 -0.1230  0.0266
 4192W        W 7936   1.992   9.689   8.525  0.0137 -0.0331 -0.1391
 4193W        W 7937   8.602   8.819   9.842 -0.1073 -0.0767 -0.2374
 4194W        W 7938   5.810   7.718  10.517  0.1582  0.1553 -0.1011
 4195W        W 7939   9.432   2.425   1.381  0.0107  0.1053 -0.2143
 4196W        W 7940   1.110   2.088   8.833 -0.0964  0.0571 -0.3062
 4197W        W 7941   7.211   4.391  10.102 -0.1480  0.1043 -0.3045
 4198W        W 7942   3.839   8.210  11.729 -0.1427 -0.1489  0.0135
 4199W        W 7943   3.696   0.623   9.473  0.4398 -0.2169  0.0276
 4200W        W 7944   4.552   4.146   2.357 -0.1732 -0.0837 -0.0613
 4201W        W 7945   9.538   4.737   0.595 -0.0124  0.0590  0.1975
 4202W        W 7946   9.237   2.771  10.853 -0.1039  0.4058  0.2916
 4203W        W 7947   8.857   5.583   9.812  0.1043  0.4687  0.0978
 4204W        W 7948   4.447   4.398   2.918  0.1255  0.0734  0.0954
 4205W        W 7949   5.790   3.223   1.765 -0.0742 -0.0347 -0.0992
 4206W        W 7950   0.977   7.788   3.990 -0.1810  0.0757 -0.0392
 4207W        W 7951   1.409   2.477   0.419  0.2375 -0.3237 -0.3442
 4208W        W 7952   2.366   2.005   0.363  0.0738  0.1561 -0.1068
 4209W        W 7953   5.115   2.929   2.850 -0.1934 -0.3900  0.0438
 4210W        W 7954   3.433   8.688  12.196 -0.0664  0.1350 -0.0154
 4211W        W 7955   3.598   6.234   8.714 -0.0457  0.1266 -0.0317
 4212W        W 7956   3.379   3.392   1.176  0.1810 -0.0640 -0.2817
 4213W        W 7957   2.812   0.162   0.527  0.4212 -0.1474  0.1444
 4214W        W 7958   6.950   9.246   1.858  0.1135 -0.0908  0.0959
 4215W        W 7959   5.142   0.046  10.950  0.1109  0.1463 -0.0617
 4216W        W 7960   3.212   6.988   2.645  0.2828 -0.0882  0.0605
 4217W        W 7961   2.975   4.667  12.461 -0.1568 -0.2946  0.2913
 4218W        W 7962   5.753   1.208   2.393 -0.0504  0.2213 -0.2725
 4219W        W 7963   1.371   3.861   9.996  0.1301 -0.1452  0.2419
 4220W        W 7964   5.404   0.819   2.277 -0.1781 -0.2715  0.1717
 4221W        W 7965   1.391   1.703   1.004  0.3275 -0.4371 -0.0993
 4222W        W 7966   9.290   5.482   2.957  0.0486 -0.1461 -0.2129
 4223W        W 7967   6.326   6.571  11.243  0.0543 -0.1746  0.3860
 4224W        W 7968   5.812   7.990   3.531  0.4637 -0.2582  0.1170
 4225W        W 7969   6.964   2.238  11.453  0.3230  0.0883  0.0713
 4226W        W 7970   5.402   1.774  10.979 -0.2330 -0.0859  0.3986
 4227W        W 7971   3.282   0.103  11.884 -0.0757 -0.2490 -0.4235
 4228W        W 7972   1.618   5.481   0.528  0.1088 -0.0078  0.1931
 4229W        W 7973   6.650   4.261   9.320  0.1541  0.1482 -0.1300
 4230W        W 7974   8.114   5.696   0.853 -0.2101  0.0560  0.0916
 4231W        W 7975   5.615   5.706  10.499 -0.5262 -0.1756 -0.1151
 4232W        W 7976   6.417   2.101   1.253 -0.0989  0.2402 -0.2171
 4233W        W 7977   0.176   0.473  11.042  0.0751  0.2443 -0.0953
 4234W        W 7978   7.470   7.167   2.258  0.0644  0.1461 -0.0791
 4235W        W 7979   9.937   7.492  10.640  0.1736 -0.3500 -0.0945
 4236W        W 7980   3.610   4.702   1.606  0.1887 -0.2587 -0.0830
 4237W        W 7981   0.306   1.276  11.630  0.0033 -0.1090  0.0917
 4238W        W 7982   2.574   1.459   3.122 -0.0245  0.0628  0.0496
 4239W        W 7983   5.648   9.264  11.305 -0.1569  0.0520 -0.1428
 4240W        W 7984   1.786   2.200  10.109 -0.2226 -0.0803 -0.1833
 4241W        W 7985   2.575   3.359   0.714  0.1400  0.3036  0.2145
 4242W        W 7986   7.079   5.529   3.476 -0.0476  0.0589  0.1203
 4243W        W 7987   1.723   4.198  12.721 -0.1961 -0.0806  0.2008
 4244W        W 7988   4.976   3.007   9.635 -0.0188 -0.3053 -0.1025
 4245W        W 7989   9.239   0.981   1.217 -0.1424 -0.0431 -0.0950
 4246W        W 7990   0.542   2.475   3.261 -0.1010 -0.0507  0.3429
 4247W        W 7991   8.087   6.412  11.719  0.5591 -0.2619  0.0445
 4248W        W 7992   1.576   8.959   1.336 -0.0332 -0.0629  0.1472
 4249W        W 7993   6.657   6.084  10.435 -0.2138  0.2010 -0.0348
 4250W        W 7994   9.071   8.302   1.259  0.0813 -0.0038 -0.1862
 4251W        W 7995   1.492   7.622   3.609 -0.2144  0.0363 -0.0790
 4252W        W 7996   0.635   1.440  12.472  0.1167 -0.0593 -0.0597
 4253W        W 7997   5.487   0.128   1.126  0.0844  0.0832 -0.1995
 4254W        W 7998   0.729   6.666   8.717  0.2213  0.0311 -0.1172
 4255W        W 7999   8.911   1.163  11.202  0.0260  0.1660 -0.1791
 4256W        W 8000   1.960   0.134   4.718 -0.1672 -0.0130  0.2369
 4257W        W 8001   1.122   1.602   3.093  0.0490  0.0994 -0.0219
 4258W        W 8002   3.556   0.273   1.823  0.1879  0.3604  0.3672
 4259W        W 8003   8.583   9.668   3.772 -0.1137 -0.0066  0.0517
 4260W        W 8004   7.261   9.298   1.482 -0.1836  0.0353 -0.3094
 4261W        W 8005   3.612   2.099   1.476  0.0365  0.1185 -0.2586
 4262W        W 8006   7.560   1.438   3.639 -0.1952 -0.1835  0.1312
 4263W        W 8007   5.754   9.148  12.364 -0.1236 -0.0858  0.3232
 4264W        W 8008   4.781   4.331  11.928 -0.0393 -0.1805  0.1010
 4265W        W 8009   0.822   1.018   8.766 -0.2535 -0.4498 -0.0807
 4266W        W 8010   0.780   7.312   4.071 -0.1451 -0.2563  0.0992
 4267W        W 8011   1.075   1.582   0.345  0.0860  0.0436 -0.2759
 4268W        W 8012   3.859   6.637   0.514  0.2049 -0.0127 -0.0882
 4269W        W 8013   6.612   6.569   3.440 -0.0282  0.1233 -0.1952
 4270W        W 8014   8.105   0.562   1.896  0.0419  0.2832 -0.1179
 4271W        W 8015   3.396   8.984  10.541  0.2940 -0.0871  0.2085
 4272W        W 8016   4.502   7.762   9.931 -0.1018  0.0583  0.0533
 4273W        W 8017   6.124   2.488   2.313 -0.0859  0.2629 -0.1132
 4274W        W 8018   6.579   5.668   0.812  0.1119 -0.0898 -0.1313
 4275W        W 8019   3.578   0.602  12.133 -0.0261 -0.0352 -0.0307
 4276W        W 8020   1.282   2.335   1.727 -0.0935 -0.4434  0.0797
 4277W        W 8021   3.013   8.999   1.435  0.0313  0.1812  0.0154
 4278W        W 8022   1.794   6.809  10.844 -0.0968 -0.3791  0.2130
 4279W        W 8023   9.670   4.502  10.657  0.4299 -0.0886 -0.0447
 4280W        W 8024   7.293   9.881  11.789 -0.0977  0.0469  0.2494
 4281W        W 8025   8.124   5.316  10.927  0.1741  0.2848 -0.3343
 4282W        W 8026   5.326   6.218   1.874 -0.0536 -0.1358 -0.1483
 4283W        W 8027   9.227   8.420  12.152  0.0799 -0.1011 -0.5495
 4284W        W 8028   5.704   2.752   3.509 -0.0575  0.0110  0.0457
 4285W        W 8029   1.011   3.059   0.927 -0.0983 -0.1038 -0.1806
 4286W        W 8030   8.263   0.445   2.557  0.3768  0.0188 -0.1498
 4287W        W 8031   8.973   6.123   0.604  0.0613 -0.1606  0.2321
 4288W        W 8032   3.667   8.832   8.550 -0.1033  0.0257 -0.0802
 4289W        W 8033   1.042   8.744  12.237 -0.2020 -0.2037  0.0992
 4290W        W 8034   8.712   6.927   0.613  0.1447 -0.2120  0.1945
 4291W        W 8035   4.864   3.016  12.460 -0.0083 -0.0794 -0.0058
 4292W        W 8036   9.610   1.697  12.460  0.2668  0.0841  0.0184
 4293W        W 8037   3.297   2.929   1.861 -0.1724 -0.0457 -0.1332
 4294W        W 8038   0.593   7.482   4.543  0.0787  0.2416 -0.0527
 4295W        W 8039   9.590   5.032  10.896 -0.1042  0.1103 -0.0554
 4296W        W 8040   6.058   9.069   3.735 -0.0371  0.0538  0.0562
 4297W        W 8041   5.385   6.595   1.645 -0.1620 -0.0562  0.0671
 4298W        W 8042   8.853   7.284  12.517 -0.0020 -0.2243 -0.0202
 4299W        W 8043   0.573   6.488  12.405 -0.0553  0.1576 -0.1104
 4300W        W 8044   8.342   3.941   3.311 -0.0933 -0.2870 -0.3849
 4301W        W 8045   2.529   8.119  10.852  0.3283 -0.0007  0.0486
 4302W        W 8046   1.126   1.704   9.909  0.0362 -0.0635  0.0250
 4303W        W 8047   7.221   1.990  10.103 -0.2015 -0.0724 -0.0533
 4304W        W 8048   6.494   8.701   9.334  0.1794  0.1869 -0.1781
 4305W        W 8049   2.486   5.009  11.176 -0.0884 -0.0602 -0.1859
 4306W        W 8050   2.628   1.331  11.205  0.0366 -0.1398 -0.1474
 4307W        W 8051   7.314   0.797   3.555 -0.2092 -0.0906 -0.1490
 4308W        W 8052   3.482   8.993   2.931 -0.1290  0.0446 -0.2391
 4309W        W 8053   5.823   9.131   4.569 -0.1793 -0.1547 -0.0255
 4310W        W 8054   5.716   0.677   1.510  0.0250  0.2232  0.0390
 4311W        W 8055   5.964   8.988  10.990  0.0174  0.2611  0.0189
 4312W        W 8056   9.643   8.746  11.805  0.2217  0.0301  0.0681
 4313W        W 8057   0.240   5.426   2.544  0.0140  0.1247  0.0232
 4314W        W 8058   0.414   7.818   1.875  0.1012  0.0717  0.1323
 4315W        W 8059   5.672   6.743  12.149 -0.0470 -0.2245  0.0907
 4316W        W 8060   8.884   9.629   9.805 -0.0354 -0.0598 -0.1113
 4317W        W 8061   0.196   9.569   4.590  0.0162  0.0823  0.1401
 4318W        W 8062   3.544   0.432   2.442  0.2394 -0.1325  0.2350
 4319W        W 8063   1.710   5.938   1.878 -0.2788  0.1851  0.1180
 4320W        W 8064   1.503   2.314   0.945 -0.1136  0.0940  0.4022
 4321W        W 8065   7.379   9.187  10.922 -0.1089 -0.2791 -0.1269
 4322W        W 8066   5.979   5.801  11.869  0.3350 -0.1505 -0.1558
 4323W        W 8067   8.852   4.505  11.955  0.0086 -0.1146  0.3345
 4324W        W 8068   8.201   1.031   0.557 -0.0636  0.0869 -0.1629
 4325W        W 8069   5.528   4.921   1.712  0.0732  0.1045  0.2330
 4326W        W 8070   5.176   9.244  10.108  0.2441 -0.1574  0.1894
 4327W        W 8071   9.377   3.748   2.062  0.0361  0.2822 -0.0892
 4328W        W 8072   8.479   3.016  11.565 -0.1078 -0.0908  0.1382
 4329W        W 8073   9.701   8.578  10.470 -0.2525  0.0218  0.0112
 4330W        W 8074   9.616   2.799   1.702 -0.1671 -0.0713 -0.1296
 4331W        W 8075   1.367   5.152  12.606  0.1250  0.0813 -0.1779
 4332W        W 8076   0.531   1.561   3.020  0.1159  0.3094  0.1482
 4333W        W 8077   3.803   0.435  11.234  0.0190  0.2356 -0.3164
 4334W        W 8078   2.452   5.491   3.523  0.1419  0.0512  0.0854
 4335W        W 8079   2.374   5.290   9.418 -0.1521  0.0662 -0.2008
 4336W        W 8080   1.689   2.856   3.674 -0.1190  0.0975  0.0849
 4337W        W 8081   8.451   9.571  10.940 -0.3066 -0.1226  0.1151
 4338W        W 8082   1.807   9.405   2.887 -0.0333 -0.3051 -0.1603
 4339W        W 8083   7.433   3.134   9.613  0.0334  0.2502 -0.0233
 4340W        W 8084   2.153   2.972  12.219  0.0898 -0.1484 -0.0657
 4341W        W 8085   8.783   8.474  10.721 -0.0068 -0.1477 -0.1732
 4342W        W 8086   6.698   8.814   0.555 -0.1860 -0.3435 -0.3693
 4343W        W 8087   2.124   8.830  11.287  0.1780 -0.2239 -0.3744
 4344W        W 8088   4.766   1.633   0.759 -0.0874  0.1130 -0.2163
 4345W        W 8089   4.279   2.009   2.483 -0.1325 -0.0226 -0.3217
 4346W        W 8090   5.718   1.546   3.327 -0.2214  0.0703  0.0106
 4347W        W 8091   8.583   5.050   3.699 -0.3755  0.3648 -0.1107
 4348W        W 8092   7.172   8.814   9.706 -0.1386 -0.2463  0.1363
 4349W        W 8093   0.696   3.426   2.843 -0.0061  0.0382 -0.1771
 4350W        W 8094   0.994   7.565   0.358 -0.0178  0.0760  0.1388
 4351W        W 8095   6.797   8.443   0.984 -0.0035  0.1665  0.0647
 4352W        W 8096   5.671   2.386   3.157 -0.1293 -0.1413  0.1044
 4353W        W 8097   2.111   8.456  10.221 -0.1555  0.3066  0.1366
 4354W        W 8098   2.999   0.634   0.594  0.3017  0.0911 -0.1222
 4355W        W 8099   1.334   9.833   0.218 -0.4401 -0.0212  0.2636
 4356W        W 8100   4.775   6.446   3.424  0.1925  0.0347  0.1669
 4357W        W 8101   5.689   8.925  11.912  0.1709 -0.4066  0.1236
 4358W        W 8102   6.297   4.521  11.401  0.3487 -0.0985  0.0314
 4359W        W 8103   9.777   1.397   3.659  0.1256 -0.0211  0.0277
 4360W        W 8104   0.665   9.917   2.037 -0.1089 -0.1312 -0.1065
 4361W        W 8105   6.592   7.205   4.053 -0.0908 -0.0020  0.2473
 4362W        W 8106   4.546   8.502   1.130  0.0093  0.3634  0.2094
 4363W        W 8107   0.636   7.580   9.915  0.1074  0.0962 -0.1235
 4364W        W 8108   0.981   0.227   3.084 -0.0494  0.1621 -0.0172
 4365W        W 8109   9.566   1.121   3.290 -0.0715  0.0001  0.0542
 4366W        W 8110   4.817   1.937  10.841  0.3556 -0.2419 -0.0254
 4367W        W 8111   0.773   9.870  10.700 -0.1627  0.3604 -0.3787
 4368W        W 8112   9.146   9.020   4.297 -0.1058 -0.1525  0.3453
 4369W        W 8113   0.438   2.104  11.356 -0.0817 -0.2156 -0.0146
 4370W        W 8114   8.591   0.696   3.871 -0.1840  0.3402  0.1477
 4371W        W 8115   1.089   1.412  12.699 -0.0837  0.3875 -0.2403
 4372W        W 8116   5.117   1.979   4.421  0.3060 -0.2714  0.0396
 4373W        W 8117   2.955   5.434   0.859  0.2694  0.2659 -0.0976
 4374W        W 8118   0.882   9.349   4.178 -0.3755 -0.2462 -0.1748
 4375W        W 8119   2.506   3.064   9.844  0.1280 -0.0162 -0.2101
 4376W        W 8120   1.926   7.298   9.013  0.0724 -0.3455 -0.1802
 4377W        W 8121   9.681   1.860   3.320  0.0149 -0.2006  0.2599
 4378W        W 8122   1.925   1.241   4.496  0.2523  0.0545 -0.0934
 4379W        W 8123   8.459   0.618   0.891  0.4428  0.1798 -0.3847
 4380W        W 8124   6.125   5.941   9.674  0.1389  0.0374 -0.0847
 4381W        W 8125   8.640   6.061   3.388 -0.0201  0.0618 -0.2243
 4382W        W 8126   0.414   8.881  11.769  0.1161  0.1870 -0.1532
 4383W        W 8127   0.242   7.522   9.508  0.0431  0.1670 -0.1042
 4384W        W 8128   5.259   3.459   1.770  0.0547 -0.1842 -0.3422
 4385W        W 8129   7.383   9.570  10.042  0.1307 -0.2164 -0.1299
 4386W        W 8130   2.388   2.957  11.558 -0.0808 -0.0489 -0.0028
 4387W        W 8131   3.824   8.812   9.061  0.3240 -0.2149  0.0639
 4388W        W 8132   7.481   2.163   9.563  0.0047  0.0599 -0.2001
 4389W        W 8133   7.549   6.295  10.019 -0.1783  0.0387 -0.2682
 4390W        W 8134   1.994   1.999   3.657 -0.1083  0.0019  0.0710
 4391W        W 8135   5.665   8.193  10.303 -0.1614 -0.1411  0.0958
 4392W        W 8136   0.875   7.324   9.565 -0.1033  0.0787 -0.1784
 4393W        W 8137   2.917   6.282  11.653 -0.0441  0.2348  0.1714
 4394W        W 8138   2.169   5.113  12.020 -0.1341 -0.4471  0.1093
 4395W        W 8139   8.294   5.617   9.605  0.4315  0.0809  0.1674
 4396W        W 8140   3.360   0.264  12.464  0.0665  0.0996 -0.2872
 4397W        W 8141   6.532   9.850   0.008 -0.2369  0.0577 -0.0265
 4398W        W 8142   9.584   3.236  10.288 -0.0465 -0.0528  0.3274
 4399W        W 8143   5.082   5.096  10.260 -0.0062  0.0015 -0.0799
 4400W        W 8144   4.739   2.110   2.686  0.3873  0.4659 -0.0181
 4401W        W 8145   3.058   5.793  12.458  0.4436 -0.0914  0.0222
 4402W        W 8146   3.051   5.792   9.611  0.2770  0.3067 -0.1872
 4403W        W 8147   6.232   4.672   0.316 -0.0913  0.1738  0.0076
 4404W        W 8148   2.271   7.146  11.777 -0.1299 -0.0278 -0.4222
 4405W        W 8149   1.875   2.632   2.912  0.1001 -0.0108  0.0644
 4406W        W 8150   7.649   5.799   3.596  0.1109  0.0619  0.1873
 4407W        W 8151   5.949   2.206   1.576 -0.1257 -0.0561  0.0626
 4408W        W 8152   4.598   5.957   9.812 -0.0933 -0.2413 -0.0411
 4409W        W 8153   0.728   0.999  12.644 -0.3340 -0.2669 -0.1706
 4410W        W 8154   4.335   1.749  12.810  0.0196  0.1682  0.2405
 4411W        W 8155   1.575   9.083  10.185 -0.1186  0.0577 -0.0600
 4412W        W 8156   1.454   6.900   2.681  0.0774 -0.1724  0.1068
 4413W        W 8157   8.135   8.322   3.669  0.2797 -0.3471 -0.2414
 4414W        W 8158   5.252   4.758   1.186  0.3973  0.4547 -0.2453
 4415W        W 8159   7.084   3.292   1.699  0.1983 -0.0300  0.1659
 4416W        W 8160   1.508   6.234   9.580  0.0410  0.1318  0.2490
 4417W        W 8161   8.108   8.340   2.764  0.2532  0.0244  0.1857
 4418W        W 8162   5.144   7.705   0.919  0.4220  0.4767 -0.0152
 4419W        W 8163   6.980   2.873  12.046  0.2469  0.0411 -0.0697
 4420W        W 8164   1.681   7.825  10.864 -0.0215  0.1863  0.0073
 4421W        W 8165   0.067   1.118   5.112 -0.2321 -0.2231  0.3555
 4422W        W 8166   8.401   6.018  11.860 -0.1496 -0.1388  0.3615
 4423W        W 8167   1.313   4.316   1.826  0.0596 -0.1244  0.1350
 4424W        W 8168   6.994   3.939   9.387  0.2637  0.4206  0.1198
 4425W        W 8169   2.630   7.655   3.685  0.0677 -0.2388 -0.2941
 4426W        W 8170   4.020   3.982   9.834  0.4344 -0.3060 -0.0957
 4427W        W 8171   4.797   9.616   1.898 -0.0045 -0.1564 -0.2334
 4428W        W 8172   0.011   5.145   8.895  0.1307 -0.1753  0.0365
 4429W        W 8173   4.292   2.205  10.615 -0.2663 -0.0769 -0.1087
 4430W        W 8174   7.441   0.164   8.028 -0.1246  0.1231 -0.0443
 4431W        W 8175   3.515   5.584  12.546 -0.1554  0.2323 -0.0935
 4432W        W 8176   4.312   9.554  11.462 -0.2639  0.2047 -0.2082
 4433W        W 8177   8.043   3.213  11.859 -0.1940  0.1982 -0.1026
 4434W        W 8178   5.485   9.301   9.033 -0.0881  0.0244  0.0061
 4435W        W 8179   3.353   1.021   1.416 -0.0102  0.0043  0.1202
 4436W        W 8180   3.114   1.761  12.091  0.0336 -0.0822 -0.1779
 4437W        W 8181   4.875   7.201   2.905 -0.3099 -0.2953 -0.1751
 4438W        W 8182   8.080   9.300  12.074 -0.2455  0.3647  0.0819
 4439W        W 8183   4.399   1.010   1.189 -0.2021 -0.2490  0.0038
 4440W        W 8184   0.705   8.383   0.867 -0.1916  0.1960 -0.1171
 4441W        W 8185   6.817   1.709   1.236  0.1137 -0.0760 -0.0611
 4442W        W 8186   9.595   0.095   2.757 -0.2035 -0.0157 -0.0416
 4443W        W 8187   7.104   7.199   9.857  0.3092 -0.3215 -0.0299
 4444W        W 8188   8.328   3.508   2.810  0.3862  0.0377  0.1339
 4445W        W 8189   1.560   8.720   3.412 -0.1975 -0.1235 -0.1313
 4446W        W 8190   5.385   5.137   0.592  0.1377  0.1682  0.0349
 4447W        W 8191   0.977   2.601   0.715 -0.0447 -0.3958 -0.2503
 4448W        W 8192   6.751   5.494   2.603 -0.2975 -0.2544 -0.2129
 4449W        W 8193   2.057   1.335   3.211 -0.0859  0.0113 -0.0357
 4450W        W 8194   5.690   3.556   9.179 -0.2963 -0.0580  0.2183
 4451W        W 8195   4.270   9.399   9.652  0.0678  0.0313 -0.0858
 4452W        W 8196   5.712   4.325  12.441  0.0869  0.0738 -0.2585
 4453W        W 8197   3.981   0.198   4.414 -0.1155 -0.0675 -0.0072
 4454W        W 8198   3.243   5.839   9.099 -0.1634 -0.2421  0.3765
 4455W        W 8199   1.724   0.465   2.687  0.0914  0.1463 -0.0070
 4456W        W 8200   7.098   5.826   2.193  0.0808 -0.2374  0.1421
 4457W        W 8201   1.580   5.575   1.538 -0.1186  0.2502 -0.1499
 4458W        W 8202   5.567   0.129  10.564  0.2619  0.1978  0.2507
 4459W        W 8203   2.497   7.412  11.423 -0.1081 -0.0005 -0.0983
 4460W        W 8204   6.530   5.152  12.342 -0.1331  0.0171  0.1731
 4461W        W 8205   0.485   0.851   3.212  0.1399  0.0102 -0.1673
 4462W        W 8206   3.107   0.255   4.330 -0.1800 -0.1087 -0.3232
 4463W        W 8207   1.613   3.069  11.239  0.0748  0.1239 -0.2498
 4464W        W 8208   7.974   8.685   9.291 -0.3289 -0.1216  0.2080
 4465W        W 8209   8.257   2.587  11.433  0.3718  0.0750 -0.1974
 4466W        W 8210   0.110   9.358   9.489 -0.1489  0.0468 -0.1897
 4467W        W 8211   7.091   4.810  11.900 -0.3043  0.0646 -0.0966
 4468W        W 8212   4.255   7.712   3.219 -0.1112  0.4821 -0.0352
 4469W        W 8213   2.255   4.214   1.564  0.0266 -0.1459 -0.0375
 4470W        W 8214   8.397   4.434  11.512 -0.1822  0.2430 -0.0549
 4471W        W 8215   0.468   5.795   9.791 -0.0031 -0.0673 -0.2201
 4472W        W 8216   5.320   7.623   1.456 -0.0549  0.5680  0.0863
 4473W        W 8217   0.425   2.742   0.526  0.1734  0.1467 -0.1980
 4474W        W 8218   2.119   8.754  12.303 -0.1221  0.0412  0.1231
 4475W        W 8219   7.859   7.925   3.771 -0.1606  0.1385 -0.2220
 4476W        W 8220   1.200   4.947   3.626  0.3175  0.1259  0.0422
 4477W        W 8221   6.558   8.116   4.354  0.2844 -0.2891 -0.2554
 4478W        W 8222   0.707   7.479   3.231 -0.0834  0.0053  0.0846
 4479W        W 8223   7.631   6.092   4.128 -0.1099 -0.0914  0.0591
 4480W        W 8224   9.890   9.227   4.294  0.1217 -0.0766  0.0658
 4481W        W 8225   8.478   8.399   1.993  0.0615 -0.2800 -0.3758
 4482W        W 8226   7.147   7.514  10.222  0.1475 -0.3037 -0.1890
 4483W        W 8227   6.705   3.945   3.829 -0.2710 -0.0719  0.1426
 4484W        W 8228   6.939   2.539  11.063  0.3354  0.0289 -0.2141
 4485W        W 8229   4.380   0.774   2.867  0.0999 -0.1392 -0.1441
 4486W        W 8230   0.728   7.900   4.451 -0.2184 -0.0168  0.1419
 4487W        W 8231   4.445   5.641   3.438  0.1457 -0.1788  0.1408
 4488W        W 8232   2.646   0.386   1.775 -0.0553 -0.0091  0.0627
 4489W        W 8233   6.432   9.637  11.109 -0.1142 -0.1020 -0.0467
 4490W        W 8234   3.376   5.186  11.246  0.2463  0.0734 -0.3651
 4491W        W 8235   8.726   8.962  10.872  0.5719 -0.1307  0.1290
 4492W        W 8236   9.583   8.259   4.295 -0.0172 -0.1874 -0.0166
 4493W        W 8237   2.490   5.610  10.523  0.1047 -0.0924 -0.0473
 4494W        W 8238   0.343   3.315   9.757  0.1185 -0.1740  0.1596
 4495W        W 8239   9.833   6.363  10.265 -0.1128  0.1449 -0.0778
 4496W        W 8240   3.378   0.299   0.622  0.2795  0.3627  0.1395
 4497W        W 8241   0.968   3.489   0.734 -0.1238  0.0139  0.2849
 4498W        W 8242   6.455   1.285   9.497 -0.1068  0.3137 -0.0926
 4499W        W 8243   1.501   7.890   4.235  0.1814  0.1575 -0.1752
 4500W        W 8244   6.116   1.629  12.264 -0.0233  0.0126 -0.0573
 4501W        W 8245   1.913   7.826  12.118  0.0402 -0.1093 -0.0769
 4502W        W 8246   7.719   0.925   0.495  0.0861  0.1134  0.0114
 4503W        W 8247   5.258   1.882   0.767 -0.1965  0.0072 -0.2577
 4504W        W 8248   3.009   3.542  10.643 -0.0743 -0.1516 -0.1338
 4505W        W 8249   0.488   2.336  12.728 -0.0312  0.1447  0.0248
 4506W        W 8250   9.790   8.465  12.809 -0.1332 -0.0371  0.0238
 4507W        W 8251   7.892   1.323   9.668  0.0897  0.0132 -0.2634
 4508W        W 8252   4.176   0.930   0.704  0.1907 -0.1428 -0.0863
 4509W        W 8253   4.384   8.608  12.275 -0.0729 -0.1535  0.2949
 4510W        W 8254   9.447   2.292   9.992  0.0613 -0.1686  0.0007
 4511W        W 8255   0.970   9.241  11.201  0.1189 -0.2015 -0.0236
 4512W        W 8256   8.296   1.192   8.724 -0.2079  0.3354 -0.0858
 4513W        W 8257   7.778   7.815   1.551  0.3305 -0.0552 -0.0970
 4514W        W 8258   5.474   3.215   2.638  0.3861  0.1378 -0.1212
 4515W        W 8259   3.389   6.084  10.638 -0.1329 -0.0220 -0.1832
 4516W        W 8260   0.393   9.609   9.134  0.0855  0.1087  0.0552
 4517W        W 8261   2.176   0.554  12.755 -0.2194  0.1673  0.0719
 4518W        W 8262   1.953   1.675  12.737 -0.0583  0.3418 -0.0154
 4519W        W 8263   4.223   3.347   2.865  0.0763  0.0757 -0.0195
 4520W        W 8264   5.017   0.493   2.183  0.3879  0.2495  0.1422
 4521W        W 8265   1.320   0.859   2.533 -0.0955 -0.4473  0.1257
 4522W        W 8266   9.055   0.900   3.993 -0.2827  0.2967 -0.1516
 4523W        W 8267   3.891   5.574  11.945  0.0212  0.3096 -0.0870
 4524W        W 8268   2.603   4.138   0.257 -0.1270  0.1551 -0.0252
 4525W        W 8269   4.009   9.282  12.592  0.1347 -0.0018 -0.1567
 4526W        W 8270   6.485   8.984   1.681  0.0928  0.2150 -0.1475
 4527W        W 8271   5.951   9.183  10.014  0.0200  0.4536 -0.4136
 4528W        W 8272   8.078   4.468  12.817 -0.0232 -0.1691  0.1197
 4529W        W 8273   3.888   3.735   1.702 -0.1042 -0.1784 -0.0729
 4530W        W 8274   7.183   6.756  12.373 -0.0373 -0.0566  0.1840
 4531W        W 8275   7.256   9.109   4.950 -0.0467 -0.2676 -0.1347
 4532W        W 8276   8.968   7.539   9.154  0.1535  0.0757 -0.1345
 4533W        W 8277   1.266   9.680   3.011  0.2175 -0.0139  0.0449
 4534W        W 8278   6.420   4.526   1.585 -0.0354 -0.0868  0.3066
 4535W        W 8279   4.336   7.096  10.531  0.0250 -0.1123  0.1186
 4536W        W 8280   7.492   2.522   2.542 -0.3270 -0.0679  0.1011
 4537W        W 8281   1.823   1.757   3.271 -0.1333 -0.0492  0.3394
 4538W        W 8282   3.100   0.913  11.951 -0.1185 -0.1763  0.2400
 4539W        W 8283   4.524   5.488   2.374  0.0377 -0.3658 -0.1335
 4540W        W 8284   9.033   1.282   8.860  0.0988  0.3308  0.1987
 4541W        W 8285   4.025   4.428  11.575  0.1806  0.0140  0.2305
 4542W        W 8286   5.208   3.336  10.336 -0.1822 -0.0571 -0.0283
 4543W        W 8287   4.625   3.353   0.546 -0.1116  0.1321  0.1765
 4544W        W 8288   6.749   4.612  10.251  0.1637 -0.0416  0.1577
 4545W        W 8289   2.762   0.924   3.022 -0.0562 -0.0826  0.1109
 4546W        W 8290   1.481   2.680   1.331  0.1619  0.1984  0.0399
 4547W        W 8291   4.374   5.043  11.949 -0.1243  0.2392 -0.0320
 4548W        W 8292   7.952   5.248   3.077  0.1673  0.2445  0.0384
 4549W        W 8293   1.798   5.915   1.286  0.1845 -0.1699  0.3075
 4550W        W 8294   2.823   8.164   1.716  0.4816  0.1205 -0.2376
 4551W        W 8295   6.970   8.852   9.101  0.0788  0.0370  0.1506
 4552W        W 8296   8.662   8.889   5.117 -0.1543  0.0571 -0.1169
 4553W        W 8297   9.503   2.263  10.874  0.3106 -0.0487 -0.2999
 4554W        W 8298   8.867   9.582   0.905  0.2604 -0.0827  0.2279
 4555W        W 8299   5.553   2.831   3.034 -0.0042  0.1745 -0.2351
 4556W        W 8300   4.542   6.520   2.119 -0.0233 -0.0499  0.2030
 4557W        W 8301   8.713   7.966   8.439 -0.0541  0.3368 -0.2751
 4558W        W 8302   1.218   1.101   0.279  0.1883  0.1982 -0.3380
 4559W        W 8303   5.656   9.338   3.397 -0.1990 -0.0375  0.0143
 4560W        W 8304   2.391   4.185  10.804 -0.1589 -0.0928  0.1893
 4561W        W 8305   3.296   5.491   2.935 -0.1730 -0.0795  0.1106
 4562W        W 8306   8.239   8.020   1.199  0.0510 -0.2715  0.2941
 4563W        W 8307   5.452   7.628   2.418 -0.0916  0.1978  0.0459
 4564W        W 8308   7.567   2.502   0.520 -0.0449  0.4029 -0.0446
 4565W        W 8309   1.491   7.680   9.995  0.0479  0.0284 -0.1683
 4566W        W 8310   6.872   7.128  10.291 -0.1950 -0.0182  0.0543
 4567W        W 8311   1.872   6.979   2.999 -0.2913 -0.0089  0.0588
 4568W        W 8312   1.569   8.353   4.139  0.0024 -0.4510 -0.1023
 4569W        W 8313   1.619   3.905  10.808  0.1476 -0.0106 -0.1534
 4570W        W 8314   6.860   6.789   2.922  0.1450 -0.1445  0.0451
 4571W        W 8315   1.870   2.555   9.281 -0.0794  0.0575 -0.1143
 4572W        W 8316   7.008   1.941  12.611  0.3269 -0.1787  0.0889
 4573W        W 8317   1.754   4.596   1.969 -0.0155  0.0085  0.3283
 4574W        W 8318   7.974   3.725  12.444 -0.1370  0.0128 -0.0242
 4575W        W 8319   2.679   9.925   3.669  0.1526 -0.0417  0.2963
 4576W        W 8320   0.403   5.223  10.317  0.0497  0.0741  0.3748
 4577W        W 8321   9.016   4.489   9.884 -0.1955  0.4578 -0.2584
 4578W        W 8322   5.796   4.182   2.698  0.0451  0.2315 -0.0663
 4579W        W 8323   9.244   0.981  10.274 -0.3072  0.0526 -0.2268
 4580W        W 8324   8.275   6.585   3.981  0.0557 -0.3497 -0.1821
 4581W        W 8325   8.878   8.581   3.363  0.1714 -0.1181  0.0813
 4582W        W 8326   0.882   6.028   4.312 -0.0765  0.0547  0.0694
 4583W        W 8327   5.337   9.685   2.409  0.2110  0.0455  0.0844
 4584W        W 8328   8.669   2.584  12.577 -0.2259 -0.1883 -0.0463
 4585W        W 8329   6.760   9.799  11.522  0.3162  0.1455 -0.1174
 4586W        W 8330   4.739   8.500   9.351  0.1605 -0.0214  0.0874
 4587W        W 8331   7.740   6.202   0.643 -0.1245  0.0170 -0.0040
 4588W        W 8332   8.920   2.401  10.935 -0.1509  0.1962 -0.2207
 4589W        W 8333   0.992   8.174   9.249 -0.0200 -0.0479 -0.1902
 4590W        W 8334   4.643   3.676   2.540 -0.0274  0.0229  0.1725
 4591W        W 8335   9.177   2.013  12.242 -0.3666  0.5351  0.2676
 4592W        W 8336   1.494   5.211   9.836 -0.1226  0.1130 -0.0900
 4593W        W 8337   3.027   4.738   0.568  0.1499  0.1553  0.3522
 4594W        W 8338   1.141   7.997  11.220  0.0613  0.0677 -0.4082
 4595W        W 8339   6.519   3.898  12.563 -0.4003  0.1381 -0.1172
 4596W        W 8340   2.158   3.397  12.509 -0.0310  0.0719  0.0512
 4597W        W 8341   4.353   0.454   4.157 -0.1465 -0.0874  0.0448
 4598W        W 8342   8.516   1.604   1.835 -0.2572 -0.1505  0.0866
 4599W        W 8343   8.495   2.558   1.093 -0.0935 -0.3655  0.0877
 4600W        W 8344   2.604   3.902   2.550 -0.1399 -0.1269  0.0461
 4601W        W 8345   5.690   1.713   1.783  0.1646 -0.3097  0.0056
 4602W        W 8346   7.088   3.063  10.018 -0.2905 -0.0119  0.2439
 4603W        W 8347   5.645   5.603  12.543 -0.2479 -0.2124  0.2146
 4604W        W 8348   0.677   8.656  12.633  0.2123 -0.1618 -0.0760
 4605W        W 8349   1.197   7.598  10.928  0.0142  0.0725  0.0502
 4606W        W 8350   0.059   2.441   3.278 -0.0926  0.1344  0.5956
 4607W        W 8351   1.735   1.633   2.233 -0.3787 -0.0980 -0.1314
 4608W        W 8352   6.731   9.436  10.463  0.3134 -0.0642  0.1152
 4609W        W 8353   3.861   9.271   9.904 -0.2075 -0.2456  0.0509
 4610W        W 8354   5.717   1.176   2.941 -0.0436  0.1288 -0.0342
 4611W        W 8355   0.968   6.659  10.955 -0.1738 -0.2045 -0.1302
 4612W        W 8356   1.746   2.587   1.860  0.1213 -0.0912 -0.2629
 4613W        W 8357   6.771   1.423   3.161 -0.1485 -0.0239 -0.1796
 4614W        W 8358   8.165   3.975   1.878 -0.3119  0.3308 -0.2874
 4615W        W 8359   8.305   7.969   4.034 -0.1480 -0.0618 -0.0908
 4616W        W 8360   0.626   9.055   3.482  0.0585 -0.0853  0.3464
 4617W        W 8361   3.767   2.836   0.314  0.2725 -0.3057 -0.0820
 4618W        W 8362   5.021   4.392   1.577  0.1034 -0.0709  0.2331
 4619W        W 8363   6.209   1.442   3.102 -0.1499 -0.4389 -0.0095
 4620W        W 8364   1.427   7.536   0.730  0.1278 -0.2396 -0.0819
 4621W        W 8365   6.396   1.788   8.743  0.0581 -0.2141  0.0936
 4622W        W 8366   0.590   3.378  11.069 -0.1450 -0.0742 -0.0599
 4623W        W 8367   0.797   0.121   1.531 -0.1773  0.0489 -0.0348
 4624W        W 8368   9.865   3.716   2.832  0.1373 -0.0831 -0.3206
 4625W        W 8369   8.548   7.578  12.126 -0.0232 -0.0376  0.1417
 4626W        W 8370   9.392   1.659   8.794  0.1651 -0.0001 -0.0231
 4627W        W 8371   6.367   7.632   0.875  0.1849  0.4246 -0.0420
 4628W        W 8372   5.572   1.860   0.278 -0.2076  0.0498  0.2036
 4629W        W 8373   9.122   4.774   7.534  0.2434  0.0658 -0.3532
 4630W        W 8374   1.348   7.000  10.697 -0.1035  0.3153  0.2457
 4631W        W 8375   6.273   2.321  12.538 -0.0039 -0.1131  0.2309
 4632W        W 8376   1.211   1.915   4.294 -0.0271  0.2045  0.0746
 4633W        W 8377   7.211   7.506   8.652 -0.1321  0.2422  0.1496
 4634W        W 8378   0.285   3.772   9.615  0.2561  0.3776 -0.2473
 4635W        W 8379   6.789   9.890   0.463 -0.2733 -0.1610 -0.1687
 4636W        W 8380   4.822   6.053  12.821 -0.2450  0.0577 -0.0469
 4637W        W 8381   8.246   3.316   0.802 -0.1182 -0.0302 -0.0123
 4638W        W 8382   8.540   1.262  12.281  0.3768  0.0748  0.0139
 4639W        W 8383   8.686   7.574   2.795  0.0917  0.0507 -0.1546
 4640W        W 8384   2.795   1.821   2.173 -0.1358  0.0696  0.1306
 4641W        W 8385   7.764   3.718  10.224  0.1717  0.1079 -0.0263
 4642W        W 8386   0.307   8.499  12.171  0.1385  0.0188 -0.0042
 4643W        W 8387   3.408   2.605   9.791  0.0809  0.0430 -0.2521
 4644W        W 8388   2.640   4.002   1.269 -0.2044  0.0431 -0.2913
 4645W        W 8389   2.326   7.239   1.881 -0.0480  0.1019  0.0577
 4646W        W 8390   3.318   8.908   9.995 -0.0491  0.2229  0.0506
 4647W        W 8391   4.043   6.991   3.936  0.0389 -0.0270  0.2008
 4648W        W 8392   0.102   6.293   2.022 -0.2772 -0.3882  0.3041
 4649W        W 8393   9.385   8.609   9.067  0.0466  0.1663  0.1173
 4650W        W 8394   4.857   7.552   0.106  0.3802  0.1897  0.0354
 4651W        W 8395   3.943   9.474   4.179  0.2071 -0.0022 -0.3967
 4652W        W 8396   9.702   4.092   2.011  0.1136 -0.0985 -0.2571
 4653W        W 8397   9.643   8.439   0.538 -0.2286  0.0477 -0.4196
 4654W        W 8398   6.970   8.988   0.179  0.1393  0.0577  0.0953
 4655W        W 8399   8.918   0.617   3.309 -0.2339  0.2366 -0.2233
 4656W        W 8400   6.007   1.062   3.352 -0.2857 -0.0363 -0.2867
 4657W        W 8401   8.375   1.650   0.698 -0.0406 -0.1628 -0.2206
 4658W        W 8402   3.189   7.163  11.968 -0.0895  0.1176  0.1742
 4659W        W 8403   9.205   8.477  11.668 -0.0208  0.1751 -0.0122
 4660W        W 8404   9.334   1.664   3.643  0.0728 -0.2254 -0.2022
 4661W        W 8405   0.805   4.558   1.830  0.1605 -0.0569  0.0835
 4662W        W 8406   5.331   2.543  12.533 -0.2004  0.1117  0.2125
 4663W        W 8407   2.220   2.469   0.209  0.2507 -0.3010 -0.1391
 4664W        W 8408   8.979   3.341  10.831  0.1025  0.0573  0.2897
 4665W        W 8409   1.191   5.420  11.718 -0.3552 -0.1082 -0.1713
 4666W        W 8410   0.843   2.129  11.592 -0.0936 -0.0644  0.1592
 4667W        W 8411   7.828   0.873  12.750 -0.4438 -0.0791  0.0489
 4668W        W 8412   8.393   7.580   8.252 -0.1592  0.1551 -0.1429
 4669W        W 8413   4.197   8.492  10.005  0.0976 -0.3401  0.1926
 4670W        W 8414   8.520   4.161   0.103  0.0613 -0.3609 -0.1767
 4671W        W 8415   6.259   8.616   1.977 -0.0215 -0.1269  0.0993
 4672W        W 8416   0.239   0.841   1.338  0.0914 -0.4231  0.0193
 4673W        W 8417   0.171   8.652   0.625 -0.2716  0.0181 -0.0367
 4674W        W 8418   1.032   8.530   8.911 -0.0694  0.0696 -0.2026
 4675W        W 8419   8.536   5.637   0.506  0.1042 -0.2640  0.0327
 4676W        W 8420   5.112   7.572  10.911  0.1871 -0.0373 -0.1126
 4677W        W 8421   0.207   8.516  10.216  0.1445  0.2452  0.1437
 4678W        W 8422   3.014   9.841  12.368  0.0902  0.0715  0.0037
 4679W        W 8423   5.309   5.254  12.368 -0.2813  0.0508 -0.0880
 4680W        W 8424   6.185   1.706  11.700  0.2590 -0.2696  0.0633
 4681W        W 8425   9.744   2.284  10.449  0.0313 -0.2892  0.0569
 4682W        W 8426   0.723   0.838   4.755  0.0765 -0.2105 -0.1744
 4683W        W 8427   8.951   0.311  11.278  0.0053 -0.2119  0.0329
 4684W        W 8428   6.843   1.513   1.998 -0.1090 -0.1469  0.2424
 4685W        W 8429   0.266   3.951   2.049 -0.0040  0.5368 -0.1300
 4686W        W 8430   0.481   5.097  10.807 -0.0850 -0.1562  0.0499
 4687W        W 8431   3.960   5.216  12.759  0.1582 -0.3354  0.1828
 4688W        W 8432   8.676   5.904   0.933 -0.2484 -0.0227  0.1036
 4689W        W 8433   5.868   7.528   0.688 -0.0769 -0.1005 -0.1234
 4690W        W 8434   9.591   5.488   9.256 -0.2010  0.0568 -0.3091
 4691W        W 8435   1.994   5.150   0.620 -0.2802  0.1714  0.0235
 4692W        W 8436   1.908   2.901   1.142  0.2336 -0.0221 -0.1008
 4693W        W 8437   1.990   4.269  10.427  0.2553  0.2019  0.1691
 4694W        W 8438   4.654   0.103  11.759  0.1101 -0.3218  0.1071
 4695W        W 8439   3.648   7.039   4.339  0.4490  0.0112  0.3270
 4696W        W 8440   1.167   1.796  12.416  0.0041  0.2255  0.0516
 4697W        W 8441   4.415   3.075   9.866  0.2541 -0.0533  0.3104
 4698W        W 8442   5.652   8.478   9.807  0.0411 -0.0641 -0.1166
 4699W        W 8443   7.588   4.143   8.844 -0.0179 -0.2367 -0.2973
 4700W        W 8444   1.718   0.599  12.576 -0.3570 -0.3452 -0.0188
 4701W        W 8445   7.786   9.311   2.519  0.1471 -0.0093 -0.3018
 4702W        W 8446   7.780   8.741  12.708 -0.2170  0.1863  0.1881
 4703W        W 8447   0.783   6.283   9.087  0.1678  0.0922  0.2010
 4704W        W 8448   9.443   0.616   4.196  0.1057  0.4243  0.2309
 4705W        W 8449   9.866   6.368   1.108  0.1072 -0.0364  0.4660
 4706W        W 8450   6.739   7.769  10.268  0.0701 -0.1593  0.0575
 4707W        W 8451   7.702   0.496   0.219 -0.1083 -0.0966 -0.3185
 4708W        W 8452   4.386   3.877   1.674 -0.2971  0.1549 -0.1233
 4709W        W 8453   3.613   1.101   5.107 -0.0471 -0.0828  0.1661
 4710W        W 8454   6.869   5.420   1.308 -0.2415 -0.0507 -0.0507
 4711W        W 8455   6.197   0.242   9.696  0.4037 -0.2254  0.0659
 4712W        W 8456   6.149   7.033   2.671 -0.1089  0.0917 -0.0659
 4713W        W 8457   0.108   8.783   9.805  0.0676  0.0493 -0.2645
 4714W        W 8458   9.279   6.819   8.856 -0.0058  0.1965 -0.0036
 4715W        W 8459   2.783   0.107  12.731 -0.1162  0.1936  0.0339
 4716W        W 8460   4.835   6.217   2.361  0.0745  0.2586 -0.1352
 4717W        W 8461   1.587   6.666  10.381  0.2079 -0.0610 -0.1619
 4718W        W 8462   5.717   0.670   8.821  0.0979  0.0127  0.5566
 4719W        W 8463   9.297   4.681  10.275 -0.0542  0.1018 -0.0000
 4720W        W 8464   4.277   1.586   1.905 -0.2006 -0.1302  0.3114
 4721W        W 8465   0.449   1.025   9.234 -0.1007  0.1927  0.0788
 4722W        W 8466   4.919   3.701  10.593 -0.2802  0.0543 -0.4115
 4723W        W 8467   3.803   0.613   0.654  0.2029 -0.0243 -0.2138
 4724W        W 8468   3.338   8.300   1.995 -0.0475 -0.3903  0.0515
 4725W        W 8469   6.759   4.159   2.803 -0.1334 -0.2298 -0.0883
 4726W        W 8470   9.101   8.023   4.472 -0.2585  0.0733  0.0083
 4727W        W 8471   8.596   8.961   3.042  0.2207  0.0853  0.5044
 4728W        W 8472   2.222   5.695   1.208 -0.0286 -0.1295  0.2992
 4729W        W 8473   5.724   5.056  12.553  0.1355  0.0318 -0.0414
 4730W        W 8474   7.103   7.571   0.604 -0.0507 -0.2024 -0.2394
 4731W        W 8475   9.197   1.574  11.531  0.2879  0.0741 -0.0868
 4732W        W 8476   5.629   2.524  11.384  0.3128  0.1929  0.0325
 4733W        W 8477   7.127   6.853   2.024 -0.0796 -0.1753 -0.0140
 4734W        W 8478   9.817   9.040   0.522  0.0987 -0.1487 -0.1135
 4735W        W 8479   6.723   1.526  12.430  0.0266 -0.2412  0.0132
 4736W        W 8480   2.341   6.832  12.219  0.2922 -0.0203  0.1612
 4737W        W 8481   3.959   2.409  11.774 -0.0004 -0.0306  0.3127
 4738W        W 8482   6.017   6.939  11.237  0.0959 -0.0646 -0.1661
 4739W        W 8483   9.829   6.288  12.265 -0.0764 -0.3627 -0.0827
 4740W        W 8484   1.208   0.756  11.211  0.3692 -0.0001 -0.1267
 4741W        W 8485   2.423   4.085   3.957  0.1991  0.1446 -0.2721
 4742W        W 8486   6.014   2.846  10.476 -0.0550  0.2143  0.1317
 4743W        W 8487   0.907   8.356   9.761 -0.0067  0.0097 -0.2561
 4744W        W 8488   3.427   6.389   1.194 -0.3298  0.2355  0.1834
 4745W        W 8489   5.906   2.898   2.238  0.0563 -0.1705  0.1204
 4746W        W 8490   8.679   8.925  10.382  0.0517 -0.1083 -0.1040
 4747W        W 8491   8.890   6.023  12.151  0.0420 -0.2779  0.0512
 4748W        W 8492   3.769   3.648   0.348 -0.0001  0.1907 -0.2173
 4749W        W 8493   6.868   2.332   3.095  0.2746  0.3812  0.2784
 4750W        W 8494   8.514   7.479   1.093  0.0585 -0.1233  0.3183
 4751W        W 8495   8.557   8.488   2.869 -0.0896  0.3334  0.0439
 4752W        W 8496   0.629   2.116   2.288  0.0654 -0.1578  0.0190
 4753W        W 8497   1.207   3.788  10.487  0.0565 -0.0358 -0.0847
 4754W        W 8498   7.615   2.387   3.503 -0.0187 -0.5882  0.0332
 4755W        W 8499   6.076   4.960   0.786 -0.0575 -0.0343  0.0423
 4756W        W 8500   5.518   8.621  10.659 -0.1525  0.4023 -0.1059
 4757W        W 8501   0.642   1.253   0.280  0.0576 -0.0855  0.0825
 4758W        W 8502   1.264   6.743   3.245 -0.1122  0.0453 -0.1826
 4759W        W 8503   3.014   7.650   4.065  0.0431  0.1604 -0.0763
 4760W        W 8504   2.035   7.354   5.042  0.0661  0.2049  0.3649
 4761W        W 8505   6.801   0.231   2.839 -0.1026  0.0199  0.1728
 4762W        W 8506   6.145   0.118   2.894  0.1026  0.0546 -0.0266
 4763W        W 8507   8.758   8.592  11.892 -0.0493  0.0804 -0.0462
 4764W        W 8508   0.079   0.272   2.503  0.0488  0.1583 -0.1041
 4765W        W 8509   8.216   8.036   9.580  0.1038 -0.0971  0.0857
 4766W        W 8510   6.557   4.521   2.437 -0.1842 -0.1981  0.2012
 4767W        W 8511   6.379   2.950  10.830 -0.3923  0.5688  0.2535
 4768W        W 8512   7.020   6.318   9.290  0.1035 -0.0135  0.1301
 4769W        W 8513   9.375   9.597   8.582 -0.0014  0.0787  0.0465
 4770W        W 8514   6.968   5.758   1.682  0.2078  0.0103  0.1621
 4771W        W 8515   1.358   9.065   8.288 -0.1099 -0.0626  0.3337
 4772W        W 8516   1.559   5.618   2.714 -0.2291  0.2268  0.2178
 4773W        W 8517   2.745   1.591   1.112  0.6096  0.0728 -0.2735
 4774W        W 8518   5.473   9.488   0.265 -0.0640 -0.0527  0.1687
 4775W        W 8519   0.862   7.456   0.893 -0.0413 -0.0300 -0.0213
 4776W        W 8520   4.378   5.880   0.031 -0.1127  0.0642 -0.3322
 4777W        W 8521   8.689   6.955  11.333 -0.2509 -0.0113 -0.0554
 4778W        W 8522   4.732   6.941   1.792  0.0861 -0.0629 -0.0931
 4779W        W 8523   1.512   9.933   2.607  0.2047  0.1525  0.1237
 4780W        W 8524   5.413   8.872   3.163 -0.0587  0.1651  0.1538
 4781W        W 8525   3.762   2.193   1.004 -0.0603  0.1210  0.0259
 4782W        W 8526   5.299   9.042  10.958  0.0425 -0.2773  0.1923
 4783W        W 8527   9.789   7.701   1.844  0.0860  0.1612 -0.1864
 4784W        W 8528   8.490   8.423   8.502  0.0138 -0.0512  0.0733
 4785W        W 8529   8.367   4.535   2.035  0.2336 -0.2161  0.0743
 4786W        W 8530   2.550   1.348   9.843  0.0277  0.3370  0.4859
 4787W        W 8531   8.563   4.013   2.791 -0.1525  0.1334  0.2410
 4788W        W 8532   1.747   3.741   1.123 -0.0382  0.3660 -0.1779
 4789W        W 8533   1.819   3.034   9.586  0.2101 -0.0521 -0.2093
 4790W        W 8534   4.735   8.672  10.175 -0.0523 -0.1303  0.0101
 4791W        W 8535   4.886   9.695  10.049 -0.1337  0.2555  0.4000
 4792W        W 8536   7.415   7.160   9.466  0.2033 -0.2183  0.2598
 4793W        W 8537   9.228   8.771  10.879 -0.0306  0.0613 -0.0188
 4794W        W 8538   9.844   3.002  10.639 -0.0211  0.2771  0.0908
 4795W        W 8539   7.344   7.304   1.226  0.1295  0.0380 -0.3148
 4796W        W 8540   4.008   9.004   4.281  0.2088 -0.0554 -0.1623
 4797W        W 8541   3.868   2.405   9.884 -0.1849  0.1084  0.1363
 4798W        W 8542   5.784   2.367  12.366 -0.1290 -0.1735 -0.1297
 4799W        W 8543   1.946   2.422   3.960 -0.1687 -0.3419  0.2306
 4800W        W 8544   3.592   2.070  12.502 -0.1455  0.0063  0.1729
 4801W        W 8545   4.653   2.309   1.297 -0.2321 -0.2338 -0.0875
 4802W        W 8546   6.547   5.881   2.154 -0.1467 -0.1174 -0.2896
 4803W        W 8547   9.947   8.628   8.941 -0.0819  0.0469  0.1724
 4804W        W 8548   3.561   7.556  10.831 -0.2492 -0.0055  0.0902
 4805W        W 8549   0.016   3.320   9.341  0.3278  0.1474 -0.3711
 4806W        W 8550   6.739   0.210   4.713 -0.1931 -0.0794  0.0161
 4807W        W 8551   6.566   1.869   2.750  0.2367 -0.2157  0.0158
 4808W        W 8552   4.162   1.067   1.931  0.2816  0.0745  0.0687
 4809W        W 8553   9.067   2.727   1.590 -0.0442 -0.3011  0.0463
 4810W        W 8554   3.181   9.741   9.067  0.1828 -0.0581  0.0336
 4811W        W 8555   3.756   0.739   3.552  0.1620  0.2042  0.0119
 4812W        W 8556   6.506   9.268   0.106 -0.1569 -0.1423  0.5273
 4813W        W 8557   1.165   6.531  10.000 -0.0915 -0.3224 -0.0457
 4814W        W 8558   5.705   4.630   0.450 -0.0496 -0.1476 -0.0155
 4815W        W 8559   5.431   1.417  11.557 -0.1437  0.2433  0.4379
 4816W        W 8560   3.645   0.378   0.211 -0.1634  0.2232 -0.3301
 4817W        W 8561   7.336   1.256   3.167  0.0742 -0.0926 -0.3274
 4818W        W 8562   3.379   8.556   2.455 -0.0483  0.2192  0.0767
 4819W        W 8563   2.681   0.565   2.732  0.0158  0.3599  0.2342
 4820W        W 8564   1.175   6.379   2.491 -0.1736 -0.1435  0.0245
 4821W        W 8565   7.224   9.298  12.286  0.0333  0.1941 -0.0545
 4822W        W 8566   6.146   7.323   3.069 -0.0717  0.2018  0.0779
 4823W        W 8567   7.940   8.715   1.699 -0.0005  0.2531  0.3692
 4824W        W 8568   2.107   5.682   9.247  0.3424  0.0825 -0.0852
 4825W        W 8569   1.805   8.117  10.090  0.0831 -0.0473 -0.0326
 4826W        W 8570   4.971   9.474   9.375 -0.0891 -0.1705 -0.2896
 4827W        W 8571   4.039   7.628   0.814 -0.1872 -0.2104  0.1225
 4828W        W 8572   6.102   5.816   0.645  0.0608 -0.1747  0.2849
 4829W        W 8573   8.221   7.225   3.278  0.1681 -0.1715 -0.0762
 4830W        W 8574   7.752   4.364   1.327 -0.1127 -0.2229 -0.3533
 4831W        W 8575   4.860   2.184  11.270 -0.0921 -0.0307 -0.1091
 4832W        W 8576   2.335   6.552   9.977  0.1556 -0.2846 -0.0204
 4833W        W 8577   3.313   2.369   0.957  0.2222  0.2097 -0.0699
 4834W        W 8578   4.928   4.003  11.503 -0.3272  0.1724 -0.0725
 4835W        W 8579   7.708   1.565  10.562  0.1336 -0.1051 -0.1095
 4836W        W 8580   2.818   5.812   1.263  0.3969  0.1144 -0.0727
 4837W        W 8581   1.958   2.571  12.481 -0.4501  0.4239 -0.1916
 4838W        W 8582   2.545   0.707  11.776 -0.0451  0.0524  0.4704
 4839W        W 8583   7.273   6.732  11.485 -0.3673 -0.0004 -0.3236
 4840W        W 8584   1.762   9.894  10.989  0.0460 -0.0129  0.0505
 4841W        W 8585   6.494   8.759   0.066  0.0876 -0.1739 -0.0663
 4842W        W 8586   0.856   0.142   0.368  0.1854  0.0406  0.2922
 4843W        W 8587   8.187   0.361   3.125  0.0575 -0.1873 -0.0068
 4844W        W 8588   1.376   7.504   3.166  0.0252 -0.0393 -0.2049
 4845W        W 8589   3.519   6.261   0.667  0.1197 -0.0373 -0.1899
 4846W        W 8590   9.851   0.689  12.518  0.2382  0.0471  0.0554
 4847W        W 8591   9.030   2.197   4.254  0.5599  0.2219 -0.0482
 4848W        W 8592   1.486   9.304   9.248 -0.1983 -0.0825  0.0166
 4849W        W 8593   4.549   7.109   2.238 -0.0283  0.0636  0.1153
 4850W        W 8594   7.887   8.250   8.985 -0.3185  0.1492  0.0378
 4851W        W 8595   0.371   2.127  11.885  0.0608  0.0976  0.1308
 4852W        W 8596   9.384   5.027   1.050  0.3616 -0.1091 -0.2169
 4853W        W 8597   1.994   7.561  11.239  0.1257 -0.2743  0.2230
 4854W        W 8598   8.892   8.680   4.623  0.2086  0.0894  0.2149
 4855W        W 8599   9.197   3.473   0.472  0.1559  0.3063  0.1681
 4856W        W 8600   0.478   1.913   3.673 -0.1960 -0.3099 -0.0841
 4857W        W 8601   4.146   5.510  10.461  0.0198 -0.0662 -0.0376
 4858W        W 8602   2.891   4.189   9.990 -0.0151  0.3460  0.2045
 4859W        W 8603   3.041   2.730  11.938 -0.2123 -0.1013 -0.0779
 4860W        W 8604   0.324   4.751  10.139  0.1806 -0.3064  0.1607
 4861W        W 8605   3.757   6.385  10.910 -0.2578  0.0591  0.1295
 4862W        W 8606   1.830   0.341   0.799  0.0117 -0.1347 -0.0196
 4863W        W 8607   7.078   2.435   0.538 -0.0952  0.0560 -0.2125
 4864W        W 8608   1.267   7.563   2.711  0.0417  0.1778 -0.1131
 4865W        W 8609   1.824   1.127   0.550  0.1504  0.3297 -0.0907
 4866W        W 8610   1.194   8.777   1.625 -0.0797 -0.3354  0.0027
 4867W        W 8611   9.265   7.128  11.798  0.0049  0.0111 -0.0432
 4868W        W 8612   5.082   1.975   0.326  0.3127  0.0567 -0.2496
 4869W        W 8613   3.142   1.250   2.830 -0.1210 -0.1724  0.0653
 4870W        W 8614   3.962   2.013  11.396  0.1380 -0.1920  0.1127
 4871W        W 8615   1.570   1.445  12.387 -0.3357  0.0013 -0.0836
 4872W        W 8616   6.607   6.941   1.906 -0.1604 -0.0904 -0.2191
 4873W        W 8617   4.133   7.362   3.651 -0.0474  0.0857 -0.4460
 4874W        W 8618   8.105   4.570   9.680  0.0926 -0.3052  0.0380
 4875W        W 8619   4.586   1.033   9.389  0.0094  0.2102 -0.2057
 4876W        W 8620   3.535   7.336  10.037  0.3033 -0.0120  0.1973
 4877W        W 8621   9.644   2.229   2.959  0.0477 -0.0262  0.1046
 4878W        W 8622   8.819   4.508   2.802  0.1001  0.0869 -0.0256
 4879W        W 8623   3.334   7.983   0.911 -0.2776  0.1531  0.1040
 4880W        W 8624   2.731   2.861   3.807 -0.2026 -0.0833 -0.1455
 4881W        W 8625   1.853   9.245   4.500  0.1031 -0.0460 -0.1295
 4882W        W 8626   5.303   6.820  12.528 -0.3084  0.0457  0.0571
 4883W        W 8627   6.059   8.215  12.698  0.1610 -0.2262  0.2610
 4884W        W 8628   7.602   6.350  11.711 -0.0811 -0.1573 -0.1471
 4885W        W 8629   3.369   9.581   5.405  0.3351  0.0721 -0.1511
 4886W        W 8630   8.672   0.725  11.168 -0.0522 -0.1629 -0.2832
 4887W        W 8631   5.053   8.854   9.784  0.2904 -0.0547  0.3014
 4888W        W 8632   7.520   5.777   0.876 -0.0882  0.1151 -0.0985
 4889W        W 8633   5.240   9.156   1.043  0.1571 -0.0742 -0.2700
 4890W        W 8634   9.279   4.451   3.808  0.1970  0.0349 -0.3133
 4891W        W 8635   6.465   3.219   0.418  0.0088  0.0752  0.1988
 4892W        W 8636   1.266   9.367   1.140 -0.1752  0.2222  0.5099
 4893W        W 8637   4.405   7.708   8.400  0.4617  0.2074  0.1629
 4894W        W 8638   1.122   7.010  10.206  0.1529 -0.0483  0.0140
 4895W        W 8639   6.594   0.809   8.985  0.0992 -0.0620 -0.3402
 4896W        W 8640   7.072   2.776   2.471  0.0084  0.1472  0.0535
 4897W        W 8641   9.628   2.520   9.541  0.0637 -0.0105 -0.1317
 4898W        W 8642   0.887   5.297   3.409 -0.0392  0.2529  0.0800
 4899W        W 8643   8.573   0.028   0.635  0.5416 -0.1954  0.0664
 4900W        W 8644   4.605   4.740   2.099  0.2123  0.5119 -0.2202
 4901W        W 8645   0.183   7.897  11.991 -0.1244  0.0343  0.0197
 4902W        W 8646   8.968   6.966  12.167  0.2314  0.0307 -0.2081
 4903W        W 8647   8.950   2.069   2.767 -0.1921 -0.1180  0.3993
 4904W        W 8648   8.643   9.327   2.104  0.5493 -0.1813  0.0926
 4905W        W 8649   5.001   6.490   0.452  0.3385  0.3615  0.4006
 4906W        W 8650   6.969   8.408   4.095 -0.0976 -0.1186 -0.0696
 4907W        W 8651   0.740   2.050  10.180  0.3396 -0.0461  0.4221
 4908W        W 8652   1.899   2.076  11.760 -0.1081  0.3249  0.1242
 4909W        W 8653   6.414   2.630  11.219 -0.0198 -0.3556 -0.1334
 4910W        W 8654   3.780   9.040  11.491  0.0961  0.1253  0.3482
 4911W        W 8655   9.756   8.878   3.051  0.0701  0.1277 -0.1229
 4912W        W 8656   9.777   7.238   0.408 -0.1766  0.1171 -0.2314
 4913W        W 8657   4.069   5.681  12.494 -0.0189  0.0747 -0.1363
 4914W        W 8658   5.049   0.408   3.172  0.0839 -0.2233 -0.0112
 4915W        W 8659   2.509   7.022   9.123  0.1164  0.1363 -0.1094
 4916W        W 8660   3.313   0.314  11.157  0.0537  0.2591  0.0087
 4917W        W 8661   0.451   3.901   2.894  0.1637 -0.1981 -0.1390
 4918W        W 8662   1.386   7.455   9.565 -0.0570  0.0962 -0.0396
 4919W        W 8663   1.510   5.964  12.550 -0.2072  0.1685 -0.0145
 4920W        W 8664   8.344   8.613   4.516  0.1643 -0.0803 -0.0880
 4921W        W 8665   7.046   3.806   4.821  0.1469 -0.0851  0.4288
 4922W        W 8666   1.147   2.895  10.358  0.0446 -0.2091 -0.1559
 4923W        W 8667   3.664   6.119   2.319 -0.1466  0.0674 -0.0624
 4924W        W 8668   8.322   6.833  10.876  0.2985  0.1728  0.0598
 4925W        W 8669   5.462   5.735   2.451 -0.1173  0.0293  0.1164
 4926W        W 8670   4.116   5.432   9.530 -0.2094 -0.0040  0.1044
 4927W        W 8671   4.378   2.693  12.259 -0.0030  0.3368 -0.4758
 4928W        W 8672   2.355   9.082  10.762 -0.0905 -0.2863  0.0937
 4929W        W 8673   3.636   5.101   1.221  0.1147 -0.3264  0.1769
 4930W        W 8674   7.185   9.738   8.200  0.2947 -0.1154 -0.2096
 4931W        W 8675   4.207   4.550   1.837  0.1591 -0.0183  0.1763
 4932W        W 8676   4.865   3.926   1.723 -0.2544  0.0793  0.0596
 4933W        W 8677   3.311   7.463   4.513  0.0935  0.0450  0.1004
 4934W        W 8678   8.610   8.219   0.826  0.1875 -0.0016  0.4154
 4935W        W 8679   9.751   0.749   0.201  0.0023  0.1577  0.1906
 4936W        W 8680   0.593   4.196   4.346  0.2919 -0.0756 -0.0608
 4937W        W 8681   5.745   7.290   0.311 -0.0227  0.2517 -0.0940
 4938W        W 8682   4.945   0.914   3.066  0.0102  0.0066 -0.0644
 4939W        W 8683   2.071   8.803  11.797 -0.0141 -0.3262 -0.0158
 4940W        W 8684   4.928   7.457   2.437  0.0882 -0.1255  0.3393
 4941W        W 8685   8.616   6.300  11.474 -0.1302 -0.1171 -0.1611
 4942W        W 8686   1.498   5.091   0.875 -0.1791 -0.2778  0.1646
 4943W        W 8687   0.960   9.834   8.290 -0.2861  0.0384 -0.0293
 4944W        W 8688   7.238   8.737   0.697  0.2755 -0.1436 -0.1816
 4945W        W 8689   7.329   3.279   2.910  0.0943 -0.0269  0.1757
 4946W        W 8690   8.297   5.651  11.528  0.1583  0.1825 -0.1352
 4947W        W 8691   5.527   0.272   2.399 -0.1114  0.1112 -0.1970
 4948W        W 8692   4.155   8.983   2.218 -0.0643 -0.0662  0.0099
 4949W        W 8693   3.143   9.313   0.802 -0.0524 -0.0278 -0.2506
 4950W        W 8694   1.066   7.447   9.975 -0.3360  0.0915  0.0764
 4951W        W 8695   5.720   8.954   0.381 -0.0561  0.1095 -0.0392
 4952W        W 8696   6.740   6.601  10.570  0.0838 -0.0565 -0.0785
 4953W        W 8697   1.126   5.975   3.786 -0.1923  0.1170 -0.0637
 4954W        W 8698   4.810   6.745   2.619 -0.1664 -0.0982  0.0272
 4955W        W 8699   6.089   9.675   4.954  0.2616 -0.1131  0.2234
 4956W        W 8700   6.101   8.446  10.052 -0.1399  0.1280  0.1143
 4957W        W 8701   7.219   1.135   0.751 -0.2304 -0.0075  0.2120
 4958W        W 8702   6.690   6.068  12.696  0.3142  0.1843  0.0344
 4959W        W 8703   7.806   3.509   1.577 -0.2384 -0.0365  0.2305
 4960W        W 8704   1.181   1.014   3.790 -0.0706  0.0402  0.1505
 4961W        W 8705   8.387   1.597   3.719 -0.2588 -0.1647  0.0742
 4962W        W 8706   0.070   7.468  11.674 -0.1683 -0.0631 -0.0302
 4963W        W 8707   7.199   4.341   9.130 -0.0117 -0.0688 -0.0467
 4964W        W 8708   8.917   9.042   3.411  0.5708 -0.2183 -0.0993
 4965W        W 8709   9.600   6.854   0.798  0.1156  0.1332  0.0104
 4966W        W 8710   4.392   6.025  12.245 -0.0177 -0.1287  0.1611
 4967W        W 8711   9.575   1.068   9.711 -0.3623  0.0440  0.1507
 4968W        W 8712   7.802   4.060   3.341 -0.3400 -0.0696  0.3287
 4969W        W 8713   5.437   1.134   8.686 -0.1829  0.2138 -0.1827
 4970W        W 8714   5.472   5.192   2.651 -0.1504  0.0176  0.1725
 4971W        W 8715   9.330   7.753   2.925  0.0892  0.2853 -0.1697
 4972W        W 8716   5.850   8.657   3.990 -0.2417 -0.1610 -0.0522
 4973W        W 8717   1.515   1.145   1.060 -0.0970 -0.1024  0.1851
 4974W        W 8718   8.754   1.734   3.059 -0.0664 -0.2092 -0.0746
 4975W        W 8719   3.838   5.684   9.162 -0.2010  0.0029 -0.1577
 4976W        W 8720   1.250   9.605   2.168  0.0561 -0.0193  0.0506
 4977W        W 8721   0.353   7.651   4.137 -0.1638  0.0018 -0.0591
 4978W        W 8722   2.464   0.957  12.724 -0.0227  0.1401 -0.3073
 4979W        W 8723   2.678   8.105   2.285 -0.0990 -0.0364  0.2576
 4980W        W 8724   5.082   7.051   2.169 -0.0029  0.0241 -0.1220
 4981W        W 8725   1.338   0.585   9.323  0.1834 -0.2514  0.1448
 4982W        W 8726   9.840   7.855   0.025  0.1332  0.0942  0.0344
 4983W        W 8727   9.684   8.251   1.085 -0.1649  0.0567  0.1884
 4984W        W 8728   1.853   4.789  11.194  0.0295 -0.1217  0.2452
 4985W        W 8729   2.536   2.729  12.004  0.1671 -0.0601 -0.2313
 4986W        W 8730   2.138   4.802   1.747 -0.0773  0.0805 -0.0355
 4987W        W 8731   1.273   7.055  12.071  0.1142 -0.0048  0.0749
 4988W        W 8732   2.067   1.981  10.454 -0.0696  0.0104 -0.0957
 4989W        W 8733   7.304   4.536   3.436  0.0362  0.1037  0.2796
 4990W        W 8734   2.122   9.436  11.965  0.1605  0.0147 -0.4198
 4991W        W 8735   0.067   4.103   1.221  0.1454  0.0814 -0.1381
 4992W        W 8736   9.711   7.996  10.959 -0.2595  0.1015  0.0851
 4993W        W 8737   7.115   1.034  12.646 -0.2081 -0.0437 -0.1057
 4994W        W 8738   9.497   3.319   9.777  0.2130 -0.0299 -0.0629
 4995W        W 8739   8.849   5.816  11.697  0.2109  0.0497 -0.0037
 4996W        W 8740   5.114   1.125   0.073 -0.4761  0.1886  0.1060
 4997W        W 8741   9.055   8.371  11.140  0.0432  0.2289  0.0230
 4998W        W 8742   4.266   6.481   1.341 -0.0400  0.1084  0.1136
 4999W        W 8743   3.109   8.984   2.171 -0.2033 -0.1602 -0.3309
 5000W        W 8744   2.100   4.867   3.419 -0.1540  0.0251  0.2224
 5001W        W 8745   6.001   9.666   3.644  0.1767 -0.1550  0.0585
 5002W        W 8746   1.581   3.162   1.375  0.1442  0.2991 -0.1841
 5003W        W 8747   7.013   1.356  11.777 -0.0434 -0.1582 -0.2179
 5004W        W 8748   7.047   0.600  10.103  0.0432 -0.1604 -0.2183
 5005W        W 8749   0.233   2.646   1.334 -0.0070 -0.0447  0.1493
 5006W        W 8750   3.755   1.209   1.691 -0.2856  0.2576  0.1272
 5007W        W 8751   6.736   4.692   3.495 -0.2287  0.1133 -0.1448
 5008W        W 8752   3.317   4.636  11.597 -0.2453  0.0930  0.3578
 5009W        W 8753   5.579   3.228   0.816  0.0927  0.1247 -0.1956
 5010W        W 8754   5.887   7.529   9.612 -0.1938  0.2234  0.2575
 5011W        W 8755   8.992   9.662  10.696  0.4178 -0.1922 -0.0618
 5012W        W 8756   5.273   9.504   3.721  0.0293 -0.0681  0.1272
 5013W        W 8757   0.108   8.759  10.701 -0.0077 -0.0055  0.1277
 5014W        W 8758   1.685   2.430  10.889 -0.1550  0.3459 -0.2087
 5015W        W 8759   2.561   4.517  11.173  0.0776  0.2330  0.0885
 5016W        W 8760   5.121   1.010  11.045 -0.2672  0.1252 -0.0281
 5017W        W 8761   0.850   6.502   0.086 -0.1901  0.1742 -0.1280
 5018W        W 8762   2.312   8.284   2.613  0.1657  0.0173 -0.3253
 5019W        W 8763   1.825   4.041   3.066  0.1426  0.3766 -0.2303
 5020W        W 8764   8.090   0.081   0.752 -0.1950 -0.0952  0.1243
 5021W        W 8765   0.615   2.354  10.681 -0.2408  0.1104  0.2027
 5022W        W 8766   5.861   1.572  10.932  0.3451  0.4496 -0.0597
 5023W        W 8767   0.041   5.902  12.613 -0.0857  0.2111 -0.1037
 5024W        W 8768   0.580   9.948   4.436 -0.0568 -0.1451 -0.2273
 5025W        W 8769   9.032   8.898   9.203 -0.3633 -0.3150  0.1629
 5026W        W 8770   4.817   5.968   0.613 -0.0157  0.1590  0.1933
 5027W        W 8771   1.953   5.655   3.569  0.1011  0.0246  0.1325
 5028W        W 8772   2.896   9.448   9.681 -0.0112  0.1336 -0.0498
 5029W        W 8773   8.180   1.698   9.461 -0.0016 -0.1471 -0.2596
 5030W        W 8774   8.488   1.887  11.743 -0.2112 -0.3230  0.2382
 5031W        W 8775   3.016   3.735  10.186  0.3219  0.1696 -0.0801
 5032W        W 8776   4.417   6.804  11.385 -0.0978 -0.0614 -0.0830
 5033W        W 8777   8.258   0.072   4.532 -0.2559 -0.0210 -0.1136
 5034W        W 8778   6.985   1.805  12.039  0.4097  0.0278  0.0406
 5035W        W 8779   4.887   0.489   9.907 -0.0939  0.2326  0.2338
 5036W        W 8780   5.915   0.434   3.851 -0.1107 -0.1917  0.0183
 5037W        W 8781   5.319   7.985  12.725  0.1282 -0.2641  0.1690
 5038W        W 8782   2.118   3.994   0.220 -0.2448 -0.0541  0.2339
 5039W        W 8783   8.332   7.906   8.770  0.0043  0.1091 -0.2022
 5040W        W 8784   0.295   9.770  11.512 -0.1217  0.3979  0.2320
 5041W        W 8785   6.108   6.036  11.256  0.0935  0.2136  0.0263
 5042W        W 8786   0.437   1.592  12.044  0.0021  0.2056 -0.1630
 5043W        W 8787   6.312   4.167   0.195 -0.0248  0.0456 -0.0509
 5044W        W 8788   2.360   4.798   0.780 -0.0683  0.0548 -0.1069
 5045W        W 8789   1.145   4.287  10.026  0.0630 -0.3215  0.0944
 5046W        W 8790   8.140   0.064   3.674  0.4324  0.0778  0.0292
 5047W        W 8791   0.043   6.837  12.822  0.1786 -0.2085  0.0328
 5048W        W 8792   2.475   7.813   1.862  0.0634 -0.0197  0.2926
 5049W        W 8793   8.877   6.525  10.053 -0.2497  0.3480 -0.1879
 5050W        W 8794   9.350   0.140  10.407 -0.2384  0.4020 -0.4029
 5051W        W 8795   8.783   6.531   0.875 -0.1799 -0.1964 -0.2143
 5052W        W 8796   9.780   1.951   8.611  0.1459 -0.0194 -0.0599
 5053W        W 8797   8.090   6.236   2.968 -0.0381  0.0474 -0.3793
 5054W        W 8798   2.633   8.963   9.498 -0.3577 -0.2003  0.2782
 5055W        W 8799   3.484   8.814   1.888  0.2262 -0.1473 -0.0549
 5056W        W 8800   2.171   1.340   4.021  0.0665 -0.0220  0.0992
 5057W        W 8801   7.416   8.091  12.719 -0.4932 -0.1927 -0.0320
 5058W        W 8802   6.048   2.694  11.648  0.1618  0.0282  0.2400
 5059W        W 8803   3.186   9.219  11.039 -0.1148 -0.1751 -0.0813
 5060W        W 8804   0.309   5.041   0.269  0.0854  0.1593  0.0069
 5061W        W 8805   0.227   5.927  10.700  0.0497  0.0893  0.0621
 5062W        W 8806   7.505   0.282   2.134 -0.0443  0.4606 -0.0742
 5063W        W 8807   8.607   1.476  10.885  0.2449 -0.0227 -0.2250
 5064W        W 8808   0.545   0.611  11.922 -0.0598 -0.0668 -0.1849
 5065W        W 8809   3.515   1.906   3.857  0.1608 -0.0850  0.1931
 5066W        W 8810   2.539   4.686  10.257 -0.0377  0.1416 -0.0611
 5067W        W 8811   9.028   0.802   8.554  0.0351  0.0730  0.3216
 5068W        W 8812   5.203   0.537   2.653 -0.1991 -0.1984  0.0303
 5069W        W 8813   9.038   6.209   9.304 -0.1489 -0.0177  0.1562
 5070W        W 8814   2.433   6.758   2.055 -0.0974 -0.1451 -0.1944
 5071W        W 8815   1.076   8.291   4.164  0.0681 -0.3078 -0.1893
 5072W        W 8816   4.754   2.578   2.898 -0.0286 -0.0602  0.1343
 5073W        W 8817   5.941   9.750  11.137 -0.1920 -0.1607 -0.2095
 5074W        W 8818   8.187   8.398   4.937 -0.1265 -0.1345  0.0567
 5075W        W 8819   6.207   5.005   3.303  0.2231  0.1818  0.0400
 5076W        W 8820   6.091   6.672   2.985 -0.1439 -0.0104  0.0352
 5077W        W 8821   6.612   9.580   4.893  0.0142 -0.1352  0.1787
 5078W        W 8822   4.940   6.855   3.762 -0.3965 -0.2447 -0.0005
 5079W        W 8823   4.614   4.790  12.300 -0.2632 -0.1232 -0.0786
 5080W        W 8824   0.352   9.227   0.510 -0.0396 -0.3157  0.3553
 5081W        W 8825   7.623   0.146   0.598  0.2020 -0.2560 -0.0975
 5082W        W 8826   6.734   2.262   4.665 -0.0411  0.1637  0.0655
 5083W        W 8827   1.851   7.455  12.501 -0.1570  0.0176  0.0258
 5084W        W 8828   8.252   6.453   3.392 -0.1414  0.0328  0.0544
 5085W        W 8829   2.014   4.006  11.717 -0.1119  0.1548 -0.0069
 5086W        W 8830   3.880   9.527   3.633  0.2867  0.2829  0.0273
 5087W        W 8831   1.903   4.938   9.963 -0.2777  0.3557  0.0905
 5088W        W 8832   9.777   3.811   4.204 -0.1706  0.2045  0.1415
 5089W        W 8833   4.543   7.018   4.055 -0.3486 -0.1285 -0.0617
 5090W        W 8834   5.922   2.816   0.863 -0.1292 -0.3131 -0.2780
 5091W        W 8835   8.360   3.402  12.218  0.0064 -0.2218 -0.0759
 5092W        W 8836   0.127   4.711   9.671  0.0741  0.1264 -0.0868
 5093W        W 8837   9.338   5.907   8.498 -0.0717  0.3393  0.1123
 5094W        W 8838   0.939   3.394   9.652 -0.0886  0.1037 -0.2662
 5095W        W 8839   9.830   0.411   1.634 -0.3458  0.2036 -0.3126
 5096W        W 8840   4.333   2.519   0.307 -0.0588 -0.1780  0.0215
 5097W        W 8841   1.202   4.875  12.175 -0.0026  0.1622 -0.0540
 5098W        W 8842   3.835   3.666   2.193  0.0703 -0.1882  0.2436
 5099W        W 8843   9.734   1.093  12.042 -0.4064 -0.1266 -0.1453
 5100W        W 8844   7.438   5.921  11.179 -0.4580  0.0234 -0.0521
 5101W        W 8845   2.636   7.661  10.969  0.0897  0.4111 -0.1900
 5102W        W 8846   4.973   4.036   3.418 -0.0047 -0.0584 -0.0591
 5103W        W 8847   0.754   9.507   5.150 -0.0821 -0.1736 -0.0707
 5104W        W 8848   1.494   6.674   8.325 -0.2658  0.0644  0.2040
 5105W        W 8849   1.806   7.281   1.042 -0.2910  0.0579 -0.4407
 5106W        W 8850   1.465   4.531  11.323 -0.0434  0.0348  0.3483
 5107W        W 8851   9.614   5.426   0.869 -0.1391  0.1952  0.0136
 5108W        W 8852   3.576   8.051   9.953 -0.0720 -0.0757 -0.0407
 5109W        W 8853   6.308   0.701   3.722 -0.0517  0.0212  0.0245
 5110W        W 8854   2.384   0.340  12.267  0.0632 -0.0004 -0.4182
 5111W        W 8855   1.058   1.184  11.421  0.0392  0.0640 -0.0982
 5112W        W 8856   1.048   7.745  12.744 -0.0918 -0.2013  0.1496
 5113W        W 8857   8.409   1.377   2.713 -0.3496 -0.1812  0.1703
 5114W        W 8858   5.320   7.845   3.262 -0.0646  0.1232  0.0430
 5115W        W 8859   9.766   4.925   0.080  0.0556 -0.3878  0.2417
 5116W        W 8860   1.004   4.710   0.567 -0.0664  0.0570 -0.2130
 5117W        W 8861   8.201   2.855   9.996  0.0896 -0.3005 -0.0699
 5118W        W 8862   9.666   4.426  11.655 -0.0769 -0.3907 -0.1441
 5119W        W 8863   2.881   9.154  11.664  0.1806 -0.1424  0.1467
 5120W        W 8864   2.450   8.573   2.259 -0.1870 -0.2186  0.0146
 5121W        W 8865   7.905   6.163   8.544 -0.2953  0.2801 -0.2051
 5122W        W 8866   7.597   9.733   2.815 -0.1367 -0.0080 -0.1395
 5123W        W 8867   2.780   1.342  12.013  0.2898 -0.2069 -0.1539
 5124W        W 8868   5.225   9.308   5.088 -0.2529 -0.0346  0.2318
 5125W        W 8869   6.163   0.940   2.290 -0.2629  0.0063 -0.2130
 5126W        W 8870   8.190   6.552  12.273 -0.2110 -0.0195  0.1215
 5127W        W 8871   5.382   8.336   3.509  0.2558 -0.2239  0.0378
 5128W        W 8872   8.956   5.459   0.743 -0.1852 -0.1369  0.1881
 5129W        W 8873   5.985   0.468   0.180  0.3626  0.2599 -0.0003
 5130W        W 8874   5.167   4.550  12.467  0.1224 -0.1406  0.0341
 5131W        W 8875   0.653   5.454   1.033 -0.3069  0.1151 -0.1326
 5132W        W 8876   2.229   0.766   1.671  0.1725 -0.0797  0.1079
 5133W        W 8877   5.514   9.807  11.420  0.0190 -0.1802  0.1656
 5134W        W 8878   9.167   4.135  11.888 -0.0221  0.1023 -0.2053
 5135W        W 8879   9.692   7.370   4.000 -0.3626  0.1802  0.0277
 5136W        W 8880   4.884   8.183   3.300 -0.0808 -0.3455 -0.1059
 5137W        W 8881   8.887   5.994   3.851 -0.0557  0.1644 -0.0127
 5138W        W 8882   7.532   1.653   9.696 -0.1036  0.0021 -0.1024
 5139W        W 8883   4.148   8.590   2.979  0.0065 -0.0688 -0.1938
 5140W        W 8884   1.658   7.898   1.809  0.0566  0.2233 -0.1543
 5141W        W 8885   0.724   7.390   1.902  0.2596  0.1853  0.0433
 5142W        W 8886   2.312   9.608   3.840  0.0424 -0.0185 -0.3210
 5143W        W 8887   6.754   2.025  10.552  0.0268 -0.2581 -0.0787
 5144W        W 8888   7.431   3.270  10.531  0.0573  0.0575  0.0381
 5145W        W 8889   8.121   4.730   0.511 -0.2610 -0.3016 -0.0427
 5146W        W 8890   2.129   7.743   2.480  0.0240  0.1890 -0.1350
 5147W        W 8891   3.020   8.143   0.058  0.1601  0.0906 -0.0223
 5148W        W 8892   1.894   4.227   4.187  0.0430 -0.1907 -0.1055
 5149W        W 8893   3.552   1.091  12.039 -0.0091  0.0392  0.0150
 5150W        W 8894   4.440   8.980   1.028  0.1403 -0.1083  0.0621
 5151W        W 8895   1.560   7.414   1.483 -0.3683 -0.1879  0.1710
 5152W        W 8896   7.072   2.206   2.639 -0.3696  0.1561 -0.1787
 5153W        W 8897   2.543   6.606   9.468 -0.1786  0.1000 -0.0275
 5154W        W 8898   9.800   4.684  10.123 -0.0570  0.0925  0.1104
 5155W        W 8899   9.259   6.311   8.834  0.2468  0.0015 -0.2398
 5156W        W 8900   3.884   6.988   3.394 -0.2084  0.0673 -0.2959
 5157W        W 8901   6.957   8.974  11.719 -0.1239 -0.0576  0.0057
 5158W        W 8902   2.113   8.729   5.408  0.0805 -0.0647  0.1282
 5159W        W 8903   5.960   9.933   0.320  0.1969 -0.0862  0.1974
 5160W        W 8904   9.279   2.698   2.093 -0.0516 -0.1675  0.1080
 5161W        W 8905   1.949   8.161  10.600  0.4230  0.1232  0.6608
 5162W        W 8906   7.740   1.303   1.214 -0.1519  0.1814  0.3838
 5163W        W 8907   9.715   2.691  10.998 -0.2169 -0.2856 -0.1787
 5164W        W 8908   3.469   3.521   1.826 -0.0165  0.3154 -0.1710
 5165W        W 8909   3.176   6.219  12.109  0.4678 -0.2220  0.0281
 5166W        W 8910   0.204   6.812  12.339 -0.0297 -0.1237 -0.2106
 5167W        W 8911   2.534   4.859  11.723  0.1992 -0.1649 -0.0537
 5168W        W 8912   8.642   0.231   2.956  0.2440 -0.2882 -0.0907
 5169W        W 8913   8.165   8.144  11.429  0.0516  0.2853 -0.3471
 5170W        W 8914   2.239   7.391  12.193  0.0222  0.1468 -0.2496
 5171W        W 8915   6.245   7.353   4.497  0.2002 -0.0270  0.3556
 5172W        W 8916   4.588   2.064   8.937  0.0524 -0.1808 -0.1041
 5173W        W 8917   3.452   8.940   0.521 -0.1032 -0.3690  0.1161
 5174W        W 8918   8.426   3.670   8.692  0.3639  0.3051  0.1756
 5175W        W 8919   7.031   8.496  11.403  0.0925 -0.4077  0.0968
 5176W        W 8920   2.275   1.495  10.305  0.0701 -0.1680 -0.0660
 5177W        W 8921   2.990   3.654   1.329  0.2701  0.0227 -0.0536
 5178W        W 8922   8.329   0.970   9.868 -0.1988 -0.1664  0.0562
 5179W        W 8923   2.598   0.108   2.225 -0.0768 -0.1608 -0.0621
 5180W        W 8924   2.990   8.743  10.325  0.2713  0.1107 -0.2312
 5181W        W 8925   3.361   2.104   3.389 -0.0348  0.1465  0.1283
 5182W        W 8926   4.083   0.121   9.826  0.0732  0.2814  0.0967
 5183W        W 8927   9.005   0.696   0.904  0.2217 -0.1162  0.0315
 5184W        W 8928   8.279   5.359   7.969  0.1075 -0.2628 -0.2471
 5185W        W 8929   5.550   9.364   1.538 -0.3292 -0.0035 -0.0722
 5186W        W 8930   4.894   9.270  11.705  0.1306 -0.0310 -0.0320
 5187W        W 8931   9.666   4.941  11.870 -0.1167 -0.3101  0.1163
 5188W        W 8932   2.857   7.095  11.461 -0.1654  0.1345 -0.0253
 5189W        W 8933   4.567   4.755  10.297  0.0093  0.2325  0.2332
 5190W        W 8934   6.191   0.822  11.443 -0.0745 -0.1874  0.1733
 5191W        W 8935   1.038   1.048   3.296 -0.2198  0.0426  0.1248
 5192W        W 8936   6.638   9.604   0.949  0.1694 -0.1481 -0.0564
 5193W        W 8937   3.796   0.063   0.749  0.0383 -0.4277  0.0358
 5194W        W 8938   2.033   3.252   2.057  0.1514 -0.0438  0.0686
 5195W        W 8939   6.558   5.748  10.909  0.2103 -0.2176 -0.0292
 5196W        W 8940   6.108   8.235  10.649  0.3544 -0.1991 -0.0211
 5197W        W 8941   7.217   6.745   1.361  0.2042  0.2389 -0.1046
 5198W        W 8942   3.818   3.323  11.531  0.0853  0.2634  0.1841
 5199W        W 8943   1.351   6.297  12.181  0.3734 -0.1381  0.2198
 5200W        W 8944   3.139   0.755   4.220  0.1074 -0.1255  0.2563
 5201W        W 8945   8.394   8.535  10.209 -0.2031 -0.0574 -0.0655
 5202W        W 8946   3.068   3.123  10.378 -0.1974 -0.2640 -0.2985
 5203W        W 8947   1.958   1.806  12.215 -0.0159  0.1161 -0.0351
 5204W        W 8948   2.688   6.014  12.168  0.2027  0.0632  0.1170
 5205W        W 8949   1.635   6.840   1.309  0.0147 -0.1927 -0.2336
 5206W        W 8950   4.780   5.112  11.701  0.2060  0.0294  0.0427
 5207W        W 8951   7.677   0.242   1.155  0.2693 -0.0313 -0.0400
 5208W        W 8952   3.959   8.200   9.678 -0.0206  0.2487 -0.4704
 5209W        W 8953   2.156   1.417   9.142  0.0002 -0.0913  0.0597
 5210W        W 8954   8.488   5.295   3.232 -0.0391 -0.0891 -0.2850
 5211W        W 8955   5.200   9.084   3.554 -0.4442 -0.2635  0.1406
 5212W        W 8956   2.980   8.997   9.166 -0.0568 -0.0145  0.0193
 5213W        W 8957   3.687   7.086   2.427 -0.3258 -0.0662  0.0350
 5214W        W 8958   5.638   4.860   0.916  0.1645  0.1078  0.0321
 5215W        W 8959   8.407   9.108   2.548 -0.1272  0.2679  0.0546
 5216W        W 8960   5.241   4.223   1.045 -0.0542  0.0357 -0.0397
 5217W        W 8961   0.683   0.284  11.509  0.1272  0.0590  0.1942
 5218W        W 8962   0.162   2.594   9.582  0.1365 -0.1271  0.2878
 5219W        W 8963   5.617   0.176  11.062 -0.0009  0.0419 -0.3333
 5220W        W 8964   6.417   0.176   3.789 -0.4928  0.1951  0.0504
 5221W        W 8965   6.627   8.204   3.840 -0.1834 -0.2357 -0.0401
 5222W        W 8966   0.550   2.808   0.022  0.3188 -0.0134  0.2499
 5223W        W 8967   9.125   1.400   1.551 -0.0931  0.1956 -0.0720
 5224W        W 8968   1.607   1.040  12.108  0.0571  0.3472 -0.1008
 5225W        W 8969   3.347   3.134   2.774 -0.2311 -0.2191  0.2349
 5226W        W 8970   6.121   9.613   9.752  0.0769 -0.0080  0.2297
 5227W        W 8971   9.754   1.714   0.773 -0.1704 -0.3342  0.0823
 5228W        W 8972   9.722   4.989   9.468 -0.1744  0.1136 -0.0403
 5229W        W 8973   3.725   3.340  12.164  0.2456  0.1518  0.0175
 5230W        W 8974   2.734   7.432  11.868 -0.0467 -0.0382  0.0004
 5231W        W 8975   2.125   8.601  10.761 -0.1038 -0.2700  0.2562
 5232W        W 8976   1.616   3.488   9.768  0.1135 -0.1713 -0.0997
 5233W        W 8977   4.292   1.242  12.660  0.0301 -0.0662 -0.3284
 5234W        W 8978   9.606   9.583   2.111  0.0408 -0.1723 -0.1798
 5235W        W 8979   6.005   1.597   0.310 -0.1585 -0.0323 -0.0132
 5236W        W 8980   0.130   4.763  11.565  0.0104  0.0174 -0.0008
 5237W        W 8981   0.815   2.055  11.083 -0.2977 -0.0990  0.0722
 5238W        W 8982   6.293   4.850  10.513  0.3072  0.1348  0.1230
 5239W        W 8983   6.307   3.187   2.431 -0.1960 -0.0847  0.1559
 5240W        W 8984   1.738   6.510   2.725  0.2229 -0.0344  0.1503
 5241W        W 8985   8.670   5.621  12.475  0.1356 -0.0543 -0.0495
 5242W        W 8986   4.066   2.207   3.875 -0.3438 -0.0404 -0.0179
 5243W        W 8987   3.220   1.262   2.355 -0.2958  0.0671 -0.0509
 5244W        W 8988   2.692   8.284  11.705  0.2097  0.0224  0.2237
 5245W        W 8989   9.485   0.080   1.382  0.1236  0.2028  0.0827
 5246W        W 8990   7.924   7.372   2.371  0.0898 -0.4904  0.3963
 5247W        W 8991   7.295   4.423   2.090  0.1029 -0.0816 -0.0864
 5248W        W 8992   5.262   8.672   3.932  0.0789  0.0008  0.2019
 5249W        W 8993   7.428   5.667   0.279  0.1135 -0.3735 -0.1254
 5250W        W 8994   4.049   8.618  11.478  0.0016 -0.3739 -0.1006
 5251W        W 8995   5.251   8.420   3.025  0.2175  0.2147 -0.2327
 5252W        W 8996   1.073   3.966   2.299  0.1923 -0.2466 -0.2532
 5253W        W 8997   5.870   5.431   2.447 -0.1236  0.2922  0.2444
 5254W        W 8998   4.382   2.389   0.780 -0.0372  0.0576 -0.0503
 5255W        W 8999   4.240   6.092   2.358 -0.2307 -0.1731  0.2794
 5256W        W 9000   1.762   5.890   8.762  0.1988  0.0605  0.1696
 5257W        W 9001   4.890   4.150   0.215  0.0991 -0.0085  0.0904
 5258W        W 9002   2.136   4.527   0.123 -0.0010 -0.0233  0.0971
 5259W        W 9003   8.036   5.408   9.189  0.1641  0.0407  0.1834
 5260W        W 9004   0.118   1.374   0.611 -0.0877  0.1502 -0.1097
 5261W        W 9005   8.462   2.794   5.193 -0.1174 -0.1201 -0.0471
 5262W        W 9006   1.356   0.240   0.617 -0.0711  0.2499 -0.1739
 5263W        W 9007   0.025   3.136   4.877  0.0924  0.0724  0.2254
 5264W        W 9008   1.225   7.095   0.569 -0.1003 -0.0321  0.0896
 5265W        W 9009   7.092   1.467   1.555  0.0365 -0.1760 -0.1160
 5266W        W 9010   2.630   6.821  10.297 -0.3464 -0.2698  0.0565
 5267W        W 9011   8.720   4.821  11.582  0.0251 -0.3202  0.2982
 5268W        W 9012   9.782   2.558   4.098  0.4049  0.2340 -0.0559
 5269W        W 9013   5.707   6.500   3.200 -0.0106  0.0487  0.0262
 5270W        W 9014   6.849   9.907   3.964 -0.0829  0.1042  0.1331
 5271W        W 9015   1.516   7.847  12.542 -0.0006 -0.1488  0.4148
 5272W        W 9016   6.144   5.769   4.666  0.0174 -0.2061 -0.0616
 5273W        W 9017   5.547   5.784   1.273  0.0232 -0.0138 -0.2318
 5274W        W 9018   6.148   4.338   3.959  0.0271  0.1748 -0.2927
 5275W        W 9019   1.518   7.707  11.401  0.1354  0.0925 -0.0161
 5276W        W 9020   0.458   7.495   7.612  0.3474 -0.1439  0.1290
 5277W        W 9021   2.744   4.417  11.638  0.1108  0.2263 -0.1015
 5278W        W 9022   0.066   3.229   0.745  0.1144  0.1868 -0.1088
 5279W        W 9023   4.684   2.939  10.640  0.0900 -0.3887  0.0383
 5280W        W 9024   9.902   1.852  10.902 -0.0298  0.1031 -0.1747
 5281W        W 9025   7.009   8.697  10.183  0.1458 -0.0345 -0.2168
 5282W        W 9026   4.309   5.577   9.110 -0.0174 -0.0373  0.1703
 5283W        W 9027   2.991   8.237  10.620  0.0280  0.2123 -0.1839
 5284W        W 9028   9.059   7.871   1.643 -0.1770  0.1698 -0.0091
 5285W        W 9029   0.069   3.293  11.078 -0.0698 -0.1862 -0.1281
 5286W        W 9030   0.177   6.066  11.198  0.1094 -0.0595  0.0084
 5287W        W 9031   4.165   1.641   3.403 -0.1861 -0.0070 -0.1867
 5288W        W 9032   1.520   3.317   3.984  0.0379 -0.0095 -0.2137
 5289W        W 9033   9.386   5.335   1.473 -0.2007 -0.1937 -0.0990
 5290W        W 9034   2.037   2.177   0.638 -0.0179  0.0084 -0.1963
 5291W        W 9035   8.317   2.008   2.907 -0.0218  0.0240 -0.1119
 5292W        W 9036   7.055   9.100   3.660  0.2605 -0.0920 -0.1337
 5293W        W 9037   8.605   8.190   9.889  0.1052 -0.3292  0.1840
 5294W        W 9038   5.936   6.963   0.827 -0.1485 -0.2556  0.1816
 5295W        W 9039   8.210   7.084   0.951  0.0699 -0.2040  0.1110
 5296W        W 9040   8.161   1.062   1.093 -0.1825 -0.4076 -0.1850
 5297W        W 9041   3.391   2.248  10.667 -0.3131 -0.1291 -0.1622
 5298W        W 9042   2.534   3.518   1.238  0.1125 -0.1673  0.2911
 5299W        W 9043   5.153   5.557  10.492  0.2340 -0.1069  0.0694
 5300W        W 9044   6.950   7.060  11.832  0.0600  0.2675  0.1294
 5301W        W 9045   4.382   7.716  10.408  0.3222  0.2788  0.2306
 5302W        W 9046   0.758   6.861   0.386 -0.2460  0.0078  0.1289
 5303W        W 9047   2.762   7.914  11.974  0.3988 -0.0865 -0.1617
 5304W        W 9048   3.123   8.045   2.519  0.0925 -0.2163 -0.1227
 5305W        W 9049   8.962   2.049  11.687 -0.4019  0.1326 -0.2521
 5306W        W 9050   6.907   3.493  11.365  0.1520  0.0843 -0.0565
 5307W        W 9051   0.869   0.824   4.157  0.1703  0.4821 -0.5260
 5308W        W 9052   7.643   3.339  11.513 -0.1060 -0.1348  0.3522
 5309W        W 9053   1.904   0.066  12.297  0.3186 -0.1213  0.0513
 5310W        W 9054   8.893   2.899   2.458 -0.1775 -0.2295 -0.0577
 5311W        W 9055   4.497   5.762   1.999  0.3791 -0.1252  0.0444
 5312W        W 9056   8.149   6.798   2.943  0.0774 -0.0542  0.0116
 5313W        W 9057   2.717   9.849  10.407  0.0762 -0.0670 -0.0609
 5314W        W 9058   9.334   3.989   1.657 -0.0429  0.1276 -0.1235
 5315W        W 9059   9.032   5.298   1.879 -0.2336  0.0379  0.1678
 5316W        W 9060   9.408   7.220  10.884 -0.0319 -0.2017  0.1453
 5317W        W 9061   0.856   7.656   7.984 -0.2807 -0.2356 -0.1793
 5318W        W 9062   6.816   5.345   1.974  0.1220  0.2565  0.1379
 5319W        W 9063   4.447   4.016   3.389  0.1040  0.0600 -0.0316
 5320W        W 9064   2.701   3.016  10.716 -0.0584 -0.2526  0.2478
 5321W        W 9065   9.355   2.314  11.838  0.0061 -0.1349  0.3744
 5322W        W 9066   8.392   1.014   7.874  0.1804  0.1552 -0.0678
 5323W        W 9067   3.233   6.991   1.868  0.1155  0.0619 -0.0520
 5324W        W 9068   7.227   3.230  11.101  0.0298  0.1670  0.0419
 5325W        W 9069   7.518   7.147  11.207 -0.1067  0.2691 -0.0617
 5326W        W 9070   7.202   8.183   1.062 -0.3083  0.2784  0.0990
 5327W        W 9071   7.477   7.600  12.588 -0.2028  0.3206  0.1746
 5328W        W 9072   1.781   7.922   8.929 -0.1147  0.3821 -0.1276
 5329W        W 9073   9.457   5.704  12.422  0.2279  0.2322  0.0526
 5330W        W 9074   6.805   0.951   0.576 -0.1250  0.0666 -0.1474
 5331W        W 9075   6.233   1.480   4.113 -0.0886 -0.1273  0.5563
 5332W        W 9076   0.115   2.913   3.314 -0.2373  0.1580  0.3201
 5333W        W 9077   3.734   8.385   1.592  0.1023 -0.2116 -0.2523
 5334W        W 9078   7.297   7.820   1.363 -0.0403 -0.3427 -0.0639
 5335W        W 9079   7.728   7.148  12.453  0.0426 -0.0740 -0.0113
 5336W        W 9080   7.501   1.320   1.755 -0.1483 -0.0966  0.3362
 5337W        W 9081   0.667   1.480  10.113 -0.2976  0.1425  0.4514
 5338W        W 9082   0.248   2.153   4.165  0.0003  0.1239 -0.2202
 5339W        W 9083   5.298   8.654   0.557  0.4508  0.1365  0.1185
 5340W        W 9084   1.164   4.830   1.618 -0.2524 -0.0960 -0.1021
 5341W        W 9085   4.307   8.183  12.529 -0.1205 -0.1909  0.0462
 5342W        W 9086   1.706   7.866   1.205 -0.4195  0.2250  0.0137
 5343W        W 9087   1.815   9.320   0.998 -0.2297  0.0256  0.1716
 5344W        W 9088   1.036   2.713   8.634  0.2484  0.2558 -0.0278
 5345W        W 9089   1.488   8.692  11.581 -0.0330 -0.1055  0.2112
 5346W        W 9090   6.731   6.850   9.431 -0.4112  0.2255 -0.0144
 5347W        W 9091   6.065   9.210   1.794  0.0181 -0.0749 -0.2340
 5348W        W 9092   0.912   2.638   2.964  0.2014  0.0884 -0.0367
 5349W        W 9093   2.706   1.810  11.164 -0.0586 -0.1395  0.2187
 5350W        W 9094   9.293   2.061   9.415 -0.0742  0.0006 -0.2474
 5351W        W 9095   7.871   0.568   9.160 -0.0988  0.3851 -0.0137
 5352W        W 9096   3.880   4.204   2.495  0.2303 -0.0928 -0.0148
 5353W        W 9097   9.329   5.467   0.075 -0.1838 -0.0307  0.1034
 5354W        W 9098   7.136   1.456   9.344 -0.1328 -0.0388 -0.0431
 5355W        W 9099   8.789   3.870   3.537 -0.1331  0.1616  0.1038
 5356W        W 9100   5.895   0.838   0.612 -0.1375 -0.0753  0.3609
 5357W        W 9101   7.887   8.282   4.109  0.0831 -0.0226 -0.1207
 5358W        W 9102   9.021   5.460  11.163 -0.1078  0.0883  0.1759
 5359W        W 9103   5.457   8.032   9.365  0.2521  0.1279  0.2173
 5360W        W 9104   3.968   6.670   0.020  0.1508 -0.0488  0.1407
 5361W        W 9105   4.957   7.117  12.705 -0.1606  0.1252 -0.1361
 5362W        W 9106   3.867   6.807   1.279 -0.0803 -0.0711 -0.2215
 5363W        W 9107   1.290   1.794   8.439 -0.1620 -0.0451 -0.1513
 5364W        W 9108   6.920   5.181   4.195  0.0793  0.0835 -0.3652
 5365W        W 9109   4.235   3.608  11.649 -0.2159 -0.0050 -0.0730
 5366W        W 9110   2.887   5.857  11.383  0.1771  0.2468  0.2896
 5367W        W 9111   8.546   5.538  12.014  0.0479 -0.0440  0.3335
 5368W        W 9112   6.442   1.217   3.628 -0.1684  0.0665 -0.1115
 5369W        W 9113   0.669   2.772   1.628  0.0407  0.2816  0.1318
 5370W        W 9114   0.428   2.592   2.379 -0.1083  0.3179 -0.1118
 5371W        W 9115   9.231   8.744  10.317  0.2775  0.1256 -0.0096
 5372W        W 9116   6.918   9.423   4.040  0.1417 -0.1286 -0.1681
 5373W        W 9117   2.813   3.669   0.377  0.4332 -0.2794  0.2981
 5374W        W 9118   1.830   0.739  11.254  0.0619 -0.2749 -0.0235
 5375W        W 9119   0.223   6.898   3.124  0.1715 -0.2141 -0.0720
 5376W        W 9120   3.037   2.035  11.430  0.2732  0.0945  0.2122
 5377W        W 9121   0.566   7.859   0.660 -0.1667  0.0496  0.0940
 5378W        W 9122   4.371   0.363  12.086 -0.0143  0.0177 -0.2292
 5379W        W 9123   7.789   7.266   0.098  0.2403  0.1056  0.0167
 5380W        W 9124   7.771   6.821   3.307  0.0698  0.0965  0.3403
 5381W        W 9125   5.775   0.542   9.731 -0.1218 -0.0097 -0.2564
 5382W        W 9126   8.723   2.028   0.801  0.1314 -0.1430  0.3726
 5383W        W 9127   2.233   3.404   0.292  0.0570 -0.0030  0.1991
 5384W        W 9128   8.798   7.800   3.681  0.0527 -0.0057  0.2485
 5385W        W 9129   0.844   4.110   0.674  0.2843 -0.0038 -0.1404
 5386W        W 9130   4.518   3.096   1.165 -0.0970  0.4200 -0.0494
 5387W        W 9131   3.130   9.899   3.935 -0.1369 -0.2070  0.1894
 5388W        W 9132   6.960   5.702  11.330  0.2094  0.4811  0.2378
 5389W        W 9133   4.623   9.055  12.133  0.0183  0.2224  0.0989
 5390W        W 9134   8.845   5.943   8.834 -0.4369  0.1194 -0.0603
 5391W        W 9135   3.080   6.702   3.564  0.2288 -0.0150 -0.2358
 5392W        W 9136   2.823   4.961   0.954 -0.1349  0.0152 -0.1522
 5393W        W 9137   6.332   6.428  12.282  0.2035 -0.0069  0.3563
 5394W        W 9138   8.376   0.736  12.379  0.0720  0.3450 -0.0148
 5395W        W 9139   3.612   9.804  10.619 -0.0041 -0.0128 -0.2981
 5396W        W 9140   8.747   7.515   8.667  0.0716  0.1626  0.1416
 5397W        W 9141   2.577   8.860  12.553 -0.2084  0.0895  0.2018
 5398W        W 9142   4.681   1.054  11.369 -0.4153 -0.0877  0.4785
 5399W        W 9143   7.896   3.447   0.065 -0.3184  0.0246  0.0960
 5400W        W 9144   6.150   1.979  10.706  0.2151 -0.0831 -0.1515
 5401W        W 9145   6.122   1.056   2.786 -0.3504  0.0821  0.1421
 5402W        W 9146   5.798   1.966   3.536 -0.1000  0.0321 -0.2702
 5403W        W 9147   5.430   6.467   0.089 -0.2597  0.3698  0.2362
 5404W        W 9148   1.820   7.184   9.583  0.1081  0.2131 -0.1844
 5405W        W 9149   7.550   2.996  12.023 -0.3455  0.0489  0.2109
 5406W        W 9150   3.155   9.298  12.558  0.1892 -0.2133  0.1245
 5407W        W 9151   7.006   3.656   8.423  0.0120 -0.0737 -0.0606
 5408W        W 9152   6.362   2.661   0.667 -0.1019  0.0698  0.1063
 5409W        W 9153   1.753   1.053  10.063  0.1785  0.0444 -0.2241
 5410W        W 9154   3.233   9.889   9.655 -0.1720 -0.1873 -0.2994
 5411W        W 9155   9.495   5.498  10.638 -0.0623 -0.1911  0.0964
 5412W        W 9156   6.036   0.816  12.646  0.0094  0.1821  0.1569
 5413W        W 9157   9.654   9.099   8.271  0.0616 -0.0038  0.2555
 5414W        W 9158   6.170   9.924   9.287  0.1654 -0.3159  0.0255
 5415W        W 9159   8.222   1.895   2.080  0.1053 -0.1810 -0.0494
 5416W        W 9160   4.323   4.001  12.404  0.4054  0.2870  0.2983
 5417W        W 9161   1.956   4.755   2.914 -0.2054 -0.2015  0.0340
 5418W        W 9162   7.724   4.418   2.946  0.0310  0.0404  0.2142
 5419W        W 9163   8.082   4.783   3.291  0.2742 -0.2579 -0.0137
 5420W        W 9164   3.112   1.735   2.572  0.0920  0.0516  0.3512
 5421W        W 9165   3.411   9.455   3.885 -0.1073  0.0643  0.2964
 5422W        W 9166   1.135   5.426   0.772 -0.0307 -0.0464 -0.1782
 5423W        W 9167   7.258   8.281  11.880 -0.1367  0.3091  0.1087
 5424W        W 9168   6.874   0.620   0.097 -0.1357 -0.0119  0.2177
 5425W        W 9169   9.648   7.336   9.682 -0.0681  0.2845  0.1693
 5426W        W 9170   0.480   6.922   1.710  0.1865  0.1393 -0.0519
 5427W        W 9171   2.243   7.366   2.845 -0.0056 -0.1939 -0.0328
 5428W        W 9172   3.510   0.411  10.234 -0.0653 -0.2016  0.0330
 5429W        W 9173   5.967   1.814   1.202 -0.1469  0.1059  0.0877
 5430W        W 9174   7.288   3.158   3.655 -0.2037 -0.0038 -0.1718
 5431W        W 9175   3.207   7.674  11.960  0.1337 -0.1564  0.0172
 5432W        W 9176   5.312   6.013   0.313  0.0544 -0.1067  0.0938
 5433W        W 9177   8.998   1.387   4.077  0.0973  0.0861  0.2961
 5434W        W 9178   4.826   7.485  11.885 -0.1267  0.0848  0.0225
 5435W        W 9179   4.399   8.181   3.190  0.0559 -0.0151  0.0926
 5436W        W 9180   3.185   0.778  11.301  0.1353 -0.0976 -0.3923
 5437W        W 9181   1.110   0.391   2.620 -0.0123 -0.0755 -0.1121
 5438W        W 9182   2.624   8.239  10.322 -0.2929 -0.2385  0.1280
 5439W        W 9183   4.162   0.766   3.839 -0.1643  0.0124 -0.0794
 5440W        W 9184   1.352   8.152   9.946 -0.0341 -0.3098  0.0829
 5441W        W 9185   2.244   0.897   9.038 -0.2569 -0.0035 -0.0525
 5442W        W 9186   3.962   5.893   2.735 -0.2868  0.0827  0.4524
 5443W        W 9187   5.338   4.343  11.970  0.0673  0.2012  0.0441
 5444W        W 9188   4.071   5.979  10.188 -0.0211 -0.1035  0.0072
 5445W        W 9189   6.714   4.495   0.219 -0.1274  0.2783  0.0041
 5446W        W 9190   5.797   2.287   0.041  0.4307 -0.0823 -0.0223
 5447W        W 9191   0.104   5.637   9.153 -0.0115 -0.1804  0.0245
 5448W        W 9192   7.478   8.695  11.861  0.1851  0.0438 -0.2765
 5449W        W 9193   2.811   8.078   1.091  0.1131 -0.1270  0.2541
 5450W        W 9194   4.616   7.453  10.728 -0.0457 -0.3465 -0.3064
 5451W        W 9195   7.592   8.356   0.732  0.0894  0.1666  0.0731
 5452W        W 9196   9.067   6.085   3.108 -0.0596 -0.2007 -0.1840
 5453W        W 9197   6.340   6.699  10.255  0.3122 -0.2434  0.1669
 5454W        W 9198   2.331   1.821   2.022  0.4752  0.1380 -0.1090
 5455W        W 9199   1.381   3.581   3.016  0.0583 -0.3560  0.1670
 5456W        W 9200   7.111   7.927   3.631  0.2469 -0.1485 -0.1828
 5457W        W 9201   6.247   7.764   3.553  0.1395  0.1032 -0.1711
 5458W        W 9202   1.295   7.314  12.562  0.2003  0.0226  0.2131
 5459W        W 9203   8.208   4.626   1.102 -0.0565  0.1035  0.4506
 5460W        W 9204   6.431   5.614  10.039  0.3297 -0.1789  0.1328
 5461W        W 9205   0.293   7.531  11.217 -0.0700 -0.2483  0.2247
 5462W        W 9206   2.461   8.389   8.828  0.2990  0.2506 -0.0084
 5463W        W 9207   9.742   1.677   5.189  0.0139  0.2196  0.0337
 5464W        W 9208   8.604   4.744   9.529  0.1552 -0.0268  0.0615
 5465W        W 9209   7.582   8.873   0.410 -0.2497 -0.0063  0.2983
 5466W        W 9210   0.554   7.643   2.325 -0.3831  0.1732  0.0108
 5467W        W 9211   4.866   3.467   9.426 -0.0233  0.1877 -0.0620
 5468W        W 9212   8.082   4.192  12.327 -0.1881  0.1452 -0.1339
 5469W        W 9213   9.656   5.961  10.985 -0.0182 -0.1583  0.0209
 5470W        W 9214   3.796   4.229   1.532 -0.0662 -0.2555 -0.1057
 5471W        W 9215   8.319   6.672   1.250  0.0590  0.1973  0.1271
 5472W        W 9216   3.649   7.621   2.186  0.2046  0.0475  0.1478
 5473W        W 9217   6.137   1.317  12.643  0.3636  0.0907  0.0706
 5474W        W 9218   2.234   1.459   2.325  0.0966 -0.0097  0.1561
 5475W        W 9219   9.395   3.033   1.308  0.0532 -0.1168  0.0650
 5476W        W 9220   8.023   4.019  10.608  0.0879 -0.0532 -0.1765
 5477W        W 9221   9.875   2.104  11.323 -0.2778  0.1455  0.3895
 5478W        W 9222   7.484   4.755  10.285  0.0434 -0.1021 -0.1502
 5479W        W 9223   7.781   8.863  10.903 -0.2750 -0.0817 -0.1329
 5480W        W 9224   7.508   2.756   3.857  0.0331 -0.0692  0.2365
 5481W        W 9225   6.653   5.085  10.093  0.1655  0.0562  0.0815
 5482W        W 9226   7.459   7.701   3.907  0.3954 -0.1587 -0.0247
 5483W        W 9227   0.143   8.152   0.368  0.1202  0.0780 -0.0389
 5484W        W 9228   8.702   1.170   9.569  0.0281 -0.0804 -0.2913
 5485W        W 9229   4.261   3.531  11.186  0.1297  0.2345  0.1013
 5486W        W 9230   9.821   7.958   2.916  0.1465  0.1108 -0.2875
 5487W        W 9231   5.013   6.890  11.355 -0.1571 -0.4039  0.1736
 5488W        W 9232   2.732   0.058  10.983  0.1619  0.0961  0.0627
 5489W        W 9233   6.199   0.696   8.636  0.0228  0.4648 -0.0092
 5490W        W 9234   7.955   7.303  11.034  0.0161 -0.0344  0.3951
 5491W        W 9235   9.776   1.226   1.080 -0.1225 -0.1907 -0.2692
 5492W        W 9236   7.761   9.868   1.945  0.1517  0.1434 -0.1743
 5493W        W 9237   1.451   1.412   3.469  0.0525  0.2166 -0.2244
 5494W        W 9238   3.466   5.464   9.416 -0.0236 -0.0584  0.1185
 5495W        W 9239   4.599   7.468   3.859  0.1145  0.0585  0.1324
 5496W        W 9240   5.159   5.960   8.733  0.2585 -0.1070  0.1531
 5497W        W 9241   5.481   5.328   2.153  0.0304  0.1376 -0.0809
 5498W        W 9242   1.955   1.981   2.463  0.2999  0.0736 -0.1986
 5499W        W 9243   5.116   1.216  12.347  0.4728 -0.0339  0.0818
 5500W        W 9244   7.926   2.364   0.877  0.1736  0.1104 -0.0551
 5501W        W 9245   8.505   3.390   3.227  0.3473 -0.1096 -0.2786
 5502W        W 9246   2.229   0.501   4.468 -0.0625 -0.0669  0.1315
 5503W        W 9247   6.481   9.645   2.842 -0.3334 -0.0706 -0.2148
 5504W        W 9248   9.189   3.413  12.131 -0.0648 -0.0549 -0.0129
 5505W        W 9249   4.098   8.252   0.148  0.0706  0.0181  0.0089
 5506W        W 9250   9.032   9.413   0.305 -0.0455 -0.0131  0.0369
 5507W        W 9251   6.953   7.381   0.148 -0.0006 -0.1682 -0.3186
 5508W        W 9252   0.619   2.918  10.333  0.0684  0.0972  0.1852
 5509W        W 9253   9.317   3.676   3.457  0.0970  0.2312  0.3027
 5510W        W 9254   9.788   8.875   3.930  0.0905  0.1669 -0.1650
 5511W        W 9255   9.872   7.214   9.251 -0.0210  0.0034  0.3353
 5512W        W 9256   8.656   0.915   8.945 -0.1693  0.0672 -0.3097
 5513W        W 9257   0.377   6.050  12.290  0.0691 -0.1747  0.1021
 5514W        W 9258   1.073   7.620   9.197 -0.1060  0.1449  0.0429
 5515W        W 9259   7.632   4.994  10.736 -0.0239  0.1563  0.1415
 5516W        W 9260   7.908   1.248  11.549  0.2316 -0.1637 -0.1842
 5517W        W 9261   1.799   1.205  10.530 -0.4517 -0.1428 -0.0946
 5518W        W 9262   6.264   5.394   1.236  0.2261 -0.0439  0.1812
 5519W        W 9263   8.951   9.694  12.564 -0.1844  0.1659 -0.2204
 5520W        W 9264   4.006   0.703   0.194  0.0973  0.2047  0.2726
 5521W        W 9265   2.273   9.904  10.719 -0.1363  0.0313 -0.3660
 5522W        W 9266   1.313   5.703   2.124 -0.1464 -0.0235 -0.2127
 5523W        W 9267   6.229   9.910   8.084  0.1597  0.1396  0.1675
 5524W        W 9268   0.465   0.293   2.919  0.0050  0.0593  0.0744
 5525W        W 9269   8.744   9.779  11.943 -0.3258 -0.1023  0.1726
 5526W        W 9270   2.021   8.188   1.596  0.0667 -0.1953 -0.1186
 5527W        W 9271   8.049   7.639   4.765  0.1413 -0.1306 -0.0738
 5528W        W 9272   9.558   6.149   8.075  0.3325  0.2989  0.1434
 5529W        W 9273   3.864   9.697   1.770  0.0689 -0.0475 -0.0250
 5530W        W 9274   6.784   5.835   9.156 -0.1456  0.1336 -0.0174
 5531W        W 9275   5.793   1.843   0.735 -0.1941  0.1156  0.2098
 5532W        W 9276   2.292   1.731   0.802  0.1397 -0.1279  0.1873
 5533W        W 9277   6.910   8.780   1.422 -0.2362 -0.0433  0.1236
 5534W        W 9278   6.538   4.736   0.717  0.1732  0.0900  0.1812
 5535W        W 9279   1.956   1.122   1.985 -0.0744 -0.3333  0.1599
 5536W        W 9280   9.204   7.992   0.158  0.2122 -0.0993  0.0899
 5537W        W 9281   1.022   2.855   3.474  0.0849  0.0787  0.3770
 5538W        W 9282   7.949   0.271  11.549  0.0633  0.1509  0.3720
 5539W        W 9283   1.963   9.147   2.467 -0.3085  0.0910 -0.0170
 5540W        W 9284   7.014   5.270   9.245 -0.0264  0.5397 -0.2004
 5541W        W 9285   7.227   7.451   3.501 -0.1971  0.3045  0.2056
 5542W        W 9286   9.733   7.323   8.554  0.0038 -0.2307 -0.1994
 5543W        W 9287   5.646   2.267   9.849 -0.0070 -0.2475 -0.0883
 5544W        W 9288   1.141   6.690  11.701  0.1774  0.0419  0.4521
 5545W        W 9289   5.622   9.198  10.604 -0.0244  0.1899  0.1409
 5546W        W 9290   1.228   5.022   0.229 -0.1013  0.0233  0.0200
 5547W        W 9291   6.008   0.170   3.467  0.2964 -0.0544 -0.0040
 5548W        W 9292   8.736   1.697  11.342  0.2879 -0.1695  0.3531
 5549W        W 9293   7.979   8.218  12.404 -0.1602  0.3616 -0.0608
 5550W        W 9294   9.053   7.372  10.481  0.1098  0.3087 -0.2290
 5551W        W 9295   0.060   3.382   4.353 -0.3187 -0.3299  0.0619
 5552W        W 9296   8.142   0.372   4.057 -0.3635 -0.4649  0.0305
 5553W        W 9297   2.890   5.892   3.478  0.1396 -0.0972  0.2568
 5554W        W 9298   2.358   8.555   1.762  0.3047  0.1393 -0.3802
 5555W        W 9299   3.666   8.373  12.692 -0.0655  0.0484  0.0188
 5556W        W 9300   1.559   2.031  10.568  0.0583 -0.1783  0.1707
 5557W        W 9301   3.805   5.657   4.203  0.2794  0.1183 -0.0910
 5558W        W 9302   7.272   1.288  10.779  0.1699 -0.2691  0.0613
 5559W        W 9303   8.689   7.489   3.262 -0.1013 -0.0179  0.3970
 5560W        W 9304   5.665   9.805   3.258  0.0267 -0.3445  0.0387
 5561W        W 9305   7.321   4.494  10.657 -0.1065 -0.0494  0.0216
 5562W        W 9306   0.038   0.135   4.597  0.1746 -0.5518 -0.1751
 5563W        W 9307   6.246   7.880   2.899  0.2690 -0.1906  0.0220
 5564W        W 9308   9.082   2.282  10.484  0.0585  0.0936 -0.0654
 5565W        W 9309   8.718   1.738   9.539 -0.0047 -0.2049 -0.3129
 5566W        W 9310   5.116   0.028  12.612  0.2443 -0.0045  0.0004
 5567W        W 9311   2.477   3.719  12.305 -0.3756  0.2099  0.1187
 5568W        W 9312   7.410   3.309   0.233  0.0378  0.2671  0.2038
 5569W        W 9313   5.487   3.673  10.648 -0.0789  0.1975  0.0434
 5570W        W 9314   5.701   9.040   9.486 -0.0197  0.0417  0.0535
 5571W        W 9315   4.542   3.813   9.795  0.1050  0.0911 -0.4478
 5572W        W 9316   0.639   5.643  10.623 -0.0854  0.0155  0.0445
 5573W        W 9317   3.151   9.546   3.457 -0.1193 -0.0226  0.0007
 5574W        W 9318   1.835   6.317  10.115  0.0479  0.2654  0.0598
 5575W        W 9319   1.725   1.806  11.342  0.3222 -0.1614  0.2059
 5576W        W 9320   0.279   2.638  11.899  0.2589 -0.1810  0.0579
 5577W        W 9321   1.703   8.631   9.922 -0.0505  0.0278 -0.5443
 5578W        W 9322   5.003   8.033   2.829 -0.1415  0.1694  0.0092
 5579W        W 9323   8.469   0.170   1.138 -0.0024 -0.0007 -0.2802
 5580W        W 9324   5.743   3.076   1.228  0.0693  0.4075 -0.5456
 5581W        W 9325   5.140   6.158   1.391 -0.1331 -0.0428 -0.1483
 5582W        W 9326   0.599   8.352  11.658 -0.0686  0.2926 -0.0081
 5583W        W 9327   1.263   5.533  10.240 -0.0890 -0.2898 -0.0838
 5584W        W 9328   6.867   9.426   8.698 -0.0929  0.1561  0.2591
 5585W        W 9329   7.390   2.851   8.555  0.0856 -0.1460 -0.2302
 5586W        W 9330   6.185   2.080  12.109  0.2100  0.2462  0.0129
 5587W        W 9331   8.583   2.034   3.536  0.0463  0.0470 -0.0532
 5588W        W 9332   9.700   0.340   5.571 -0.0922  0.0399  0.2219
 5589W        W 9333   7.712   8.877   9.694  0.2735  0.0113  0.0231
 5590W        W 9334   4.308   9.419   1.883  0.0837 -0.0865  0.1659
 5591W        W 9335   7.943   2.754   3.540 -0.0539 -0.1461  0.1125
 5592W        W 9336   5.767   8.415   1.202  0.0985  0.0889  0.0734
 5593W        W 9337   5.593   3.910  11.864  0.3086 -0.0699 -0.0376
 5594W        W 9338   9.530   7.030   3.622  0.0669  0.4428  0.0829
 5595W        W 9339   8.177   8.958   4.953 -0.1236  0.1231 -0.0560
 5596W        W 9340   6.346   0.792   0.280 -0.0634 -0.2259 -0.1774
 5597W        W 9341   0.943   5.941   9.591 -0.1911  0.1963  0.1353
 5598W        W 9342   6.635   1.067  11.576 -0.0100 -0.0897  0.5326
 5599W        W 9343   7.573   9.692  10.519  0.1367 -0.1197  0.4019
 5600W        W 9344   4.044   0.300   9.374 -0.1806  0.0202  0.1420
 5601W        W 9345   9.303   0.494   9.058  0.1812  0.0679  0.3693
 5602W        W 9346   6.045   1.557   2.611  0.0148 -0.1430 -0.0791
 5603W        W 9347   2.018   6.152   3.517  0.3849 -0.2352  0.0474
 5604W        W 9348   0.233   8.844   1.550  0.2942  0.0908 -0.0916
 5605W        W 9349   0.896   8.324   4.766  0.2713  0.0653 -0.2770
 5606W        W 9350   3.436   1.839  11.603 -0.0072  0.0185  0.0360
 5607W        W 9351   2.032   2.968   1.619  0.1363 -0.4714  0.1414
 5608W        W 9352   9.703   0.953  10.415 -0.1423  0.1101 -0.1735
 5609W        W 9353   1.075   6.036   0.110  0.1508  0.2352 -0.0015
 5610W        W 9354   0.977   5.011   0.975  0.0033 -0.1611 -0.2237
 5611W        W 9355   1.877   3.777  12.365  0.3256 -0.0569 -0.0776
 5612W        W 9356   9.020   4.200   2.101 -0.3198 -0.0642  0.2705
 5613W        W 9357   0.272   4.576  12.655 -0.1426 -0.0678  0.0571
 5614W        W 9358   8.508   2.020  10.831  0.1480  0.1506  0.2919
 5615W        W 9359   9.286   4.821   0.162  0.1957  0.1676 -0.0098
 5616W        W 9360   1.395   5.052  10.905 -0.0122 -0.2940 -0.2170
 5617W        W 9361   3.761   9.248   9.331  0.0884  0.0915  0.4278
 5618W        W 9362   0.437   1.780   1.903 -0.1285  0.1027  0.2802
 5619W        W 9363   8.318   5.138  11.708  0.0337 -0.1265  0.0064
 5620W        W 9364   6.532   7.215   4.866  0.1773  0.0011 -0.0648
 5621W        W 9365   4.625   6.815   4.471 -0.1201 -0.2578 -0.2442
 5622W        W 9366   9.658   4.418   3.398  0.2271  0.1309  0.3338
 5623W        W 9367   9.084   8.933  12.308  0.4526  0.0531  0.4399
 5624W        W 9368   5.989   8.744   1.562 -0.2105 -0.0672  0.2470
 5625W        W 9369   0.187   6.723   0.993  0.1670 -0.0455  0.0777
 5626W        W 9370   7.092   1.457   9.858 -0.0037  0.2318  0.2175
 5627W        W 9371   3.732   1.157   0.662 -0.0144  0.1784  0.0361
 5628W        W 9372   2.190   9.332  12.448 -0.0924 -0.3793 -0.4710
 5629W        W 9373   2.108   8.403   4.032  0.0386 -0.1462  0.0868
 5630W        W 9374   6.405   5.954   4.230 -0.0857 -0.2002 -0.2559
 5631W        W 9375   3.108   1.689   0.704 -0.1912  0.3146  0.1950
 5632W        W 9376   7.147   5.318   2.352 -0.1132  0.2477 -0.1646
 5633W        W 9377   3.571   7.944   1.739  0.4099 -0.1826  0.0818
 5634W        W 9378   3.610   1.491   2.669  0.0279  0.0798  0.0002
 5635W        W 9379   0.961   1.810  10.563  0.0078  0.0818  0.0756
 5636W        W 9380   7.394   2.351  11.043  0.1070 -0.2379  0.4037
 5637W        W 9381   4.422   1.183   3.681 -0.2391  0.1448  0.1206
 5638W        W 9382   3.873   9.132   1.034  0.4134 -0.0944 -0.0293
 5639W        W 9383   6.776   7.561   3.704 -0.2695  0.1177  0.2058
 5640W        W 9384   0.256   6.972   0.456 -0.0023  0.2818  0.1702
 5641W        W 9385   3.113   2.388  11.095  0.1042 -0.0175 -0.0197
 5642W        W 9386   6.822   0.438   0.562  0.1906 -0.4079  0.2478
 5643W        W 9387   0.888   5.245  12.316 -0.0863  0.1792 -0.0002
 5644W        W 9388   7.565   4.583  11.048 -0.4277 -0.2162  0.1070
 5645W        W 9389   8.918   9.892   8.194 -0.1090 -0.1097 -0.1481
 5646W        W 9390   0.557   3.570  12.074  0.2587 -0.0205  0.1038
 5647W        W 9391   3.925   7.896  12.612 -0.0335  0.2784 -0.1060
 5648W        W 9392   0.938   8.914  11.618 -0.3415  0.0577  0.1762
 5649W        W 9393   8.314   4.455   3.522 -0.0196 -0.0583  0.0021
 5650W        W 9394   1.419   0.322   1.579  0.2890 -0.0207 -0.4209
 5651W        W 9395   1.939   1.521   3.669 -0.0191  0.3957 -0.2663
 5652W        W 9396   3.356   8.651   8.985 -0.0134 -0.0623  0.3514
 5653W        W 9397   1.845   2.082   0.164 -0.2368 -0.0966 -0.1861
 5654W        W 9398   6.581   3.333  12.745 -0.0851  0.3194  0.1224
 5655W        W 9399   7.614   0.376   3.484 -0.3392 -0.0173  0.0020
 5656W        W 9400   5.550   5.920  12.175 -0.1253  0.3512 -0.0606
 5657W        W 9401   7.878   8.580  11.384  0.0778  0.3635 -0.0291
 5658W        W 9402   7.914   6.292   3.755  0.3574 -0.0672  0.1305
 5659W        W 9403   3.421   6.240   1.853 -0.1087  0.0157 -0.0374
 5660W        W 9404   8.245   2.363   9.102 -0.2644 -0.1374  0.0587
 5661W        W 9405   9.436   6.431   4.584 -0.1004  0.2492 -0.0703
 5662W        W 9406   5.543   8.918  10.138  0.0194  0.2328  0.1366
 5663W        W 9407   5.905   7.941   2.484  0.1001  0.2472  0.1443
 5664W        W 9408   6.805   6.079   2.536 -0.0503 -0.1294 -0.3413
 5665W        W 9409   9.936   5.139   9.894 -0.1584  0.0589 -0.0142
 5666W        W 9410   7.515   0.215   9.045 -0.3059  0.0389  0.0598
 5667W        W 9411   6.648   1.592  11.421 -0.1565 -0.0781 -0.0080
 5668W        W 9412   3.502   4.550   0.601 -0.1304 -0.1504  0.0502
 5669W        W 9413   4.313   9.574   8.765  0.2265 -0.0153  0.2380
 5670W        W 9414   2.810   0.386   9.530 -0.0481 -0.2159  0.0102
 5671W        W 9415   7.578   5.672  12.187 -0.0600  0.2778 -0.0579
 5672W        W 9416   9.327   4.825   8.446  0.1448  0.0907  0.1052
 5673W        W 9417   3.218   7.134   9.718 -0.2907  0.0686  0.3507
 5674W        W 9418   9.610   5.880   0.105 -0.1652 -0.1880  0.1604
 5675W        W 9419   3.977   3.567  12.668 -0.1058  0.3131 -0.2310
 5676W        W 9420   7.902   9.373   9.303  0.1870  0.4084 -0.0972
 5677W        W 9421   1.836   8.861   1.891 -0.0478  0.0057 -0.2131
 5678W        W 9422   2.730   8.703   8.248 -0.0303  0.2018  0.1881
 5679W        W 9423   2.074   5.717   2.692  0.5778  0.0840 -0.0364
 5680W        W 9424   3.135   4.352   2.083  0.0149 -0.1392  0.1775
 5681W        W 9425   7.252   0.665   9.544 -0.1861  0.1268 -0.3073
 5682W        W 9426   8.913   0.497   4.268 -0.1042  0.0500 -0.0780
 5683W        W 9427   7.798   1.209  11.016 -0.0044  0.1469 -0.4364
 5684W        W 9428   2.544   3.522  10.820  0.0117  0.2273  0.1999
 5685W        W 9429   0.823   5.783  12.072 -0.4059  0.1812 -0.1336
 5686W        W 9430   1.811   8.696   9.410 -0.0234 -0.0246 -0.1711
 5687W        W 9431   7.112   0.278   4.286 -0.1471 -0.0211 -0.0314
 5688W        W 9432   5.415   5.649  11.750  0.0765  0.1945  0.0736
 5689W        W 9433   5.412   6.296   2.350  0.0523  0.1245 -0.3112
 5690W        W 9434   2.324   2.163  11.557  0.0174  0.1591  0.0725
 5691W        W 9435   8.390   6.298   2.510 -0.4002  0.2482 -0.0833
 5692W        W 9436   3.134   1.835   4.198  0.2900 -0.0096  0.0371
 5693W        W 9437   7.066   8.718  12.208 -0.1726 -0.0464  0.1758
 5694W        W 9438   6.933   4.617   3.006  0.1923 -0.0965  0.0089
 5695W        W 9439   1.540   2.043   1.454  0.1751 -0.2309  0.1182
 5696W        W 9440   7.039   1.987  11.001  0.3871 -0.1382 -0.2490
 5697W        W 9441   1.948   0.552  12.175  0.4322  0.0874  0.2113
 5698W        W 9442   2.409   9.583   2.281 -0.3457  0.0817  0.3269
 5699W        W 9443   0.504   3.133   1.019 -0.0689 -0.2016  0.1516
 5700W        W 9444   2.556   5.688   0.812 -0.0059 -0.2358 -0.1777
 5701W        W 9445   1.433   7.095   9.152 -0.1198 -0.0623  0.0360
 5702W        W 9446   7.960   0.780   9.631  0.1661 -0.1159  0.2486
 5703W        W 9447   9.453   3.183  11.742  0.1775 -0.0722  0.1423
 5704W        W 9448   8.547   4.925   0.928  0.2285 -0.0742 -0.4522
 5705W        W 9449   8.396   3.824   0.803  0.2312 -0.1059 -0.1077
 5706W        W 9450   6.979   1.853   2.979 -0.2914 -0.2882  0.1543
 5707W        W 9451   6.441   9.096  11.036 -0.1224  0.1002 -0.1013
 5708W        W 9452   9.036   4.260  12.486 -0.0863 -0.0771 -0.0907
 5709W        W 9453   3.823   6.219   1.551 -0.0723 -0.2188  0.1221
 5710W        W 9454   9.176   1.167   0.786  0.1488 -0.1414 -0.0492
 5711W        W 9455   6.863   0.625  12.416 -0.3951  0.0015  0.2651
 5712W        W 9456   8.781   7.166   4.344  0.2498  0.2571 -0.0519
 5713W        W 9457   2.386   6.253  10.672  0.2474 -0.1253  0.2536
 5714W        W 9458   1.458   2.319   8.537 -0.1949  0.1574  0.4327
 5715W        W 9459   7.230   3.661  10.759 -0.1732  0.1833  0.2370
 5716W        W 9460   5.982   5.867   8.848 -0.0753 -0.1068  0.3488
 5717W        W 9461   7.694   1.923   4.644 -0.0947 -0.0400 -0.1753
 5718W        W 9462   4.458   8.839   0.422  0.2156 -0.1429 -0.3468
 5719W        W 9463   4.686   4.633   0.554  0.1493 -0.1808 -0.1056
 5720W        W 9464   4.304   8.361  11.841  0.1010  0.2149  0.0999
 5721W        W 9465   0.926   4.994   9.191 -0.1150  0.4694  0.0913
 5722W        W 9466   6.351   3.215   3.003  0.2031 -0.0313 -0.0134
 5723W        W 9467   7.654   4.064   9.877  0.2067  0.3836 -0.0896
 5724W        W 9468   8.113   4.039   9.518  0.0611 -0.0985 -0.0494
 5725W        W 9469   5.045   3.194  10.819  0.2082  0.1590 -0.0384
 5726W        W 9470   0.765   7.859   8.918  0.1236  0.0375  0.3382
 5727W        W 9471   0.504   5.470   8.902 -0.0321  0.0773 -0.4432
 5728W        W 9472   5.480   3.748  10.027 -0.1981  0.0731  0.0698
 5729W        W 9473   0.173   6.587   1.493  0.1093  0.2513  0.0500
 5730W        W 9474   1.355   0.768   1.970 -0.1390 -0.1474  0.0030
 5731W        W 9475   8.981   2.368   1.137  0.3684 -0.4222 -0.2194
 5732W        W 9476   5.932   9.433   0.474  0.0632  0.0022  0.0089
 5733W        W 9477   2.852   3.783   0.857  0.3649 -0.1574 -0.2336
 5734W        W 9478   8.868   8.304  12.597  0.0062  0.2814 -0.2479
 5735W        W 9479   4.043   4.028  11.944 -0.1974 -0.0480 -0.1505
 5736W        W 9480   2.125   5.294   3.837  0.4887  0.1449  0.0449
 5737W        W 9481   1.832   5.944   3.064 -0.3335 -0.1069  0.2341
 5738W        W 9482   1.196   6.568   0.470 -0.3464 -0.0103 -0.1674
 5739W        W 9483   0.261   4.259   0.756  0.1567  0.2230 -0.1440
 5740W        W 9484   5.697   9.717  12.736 -0.2194 -0.0431 -0.1268
 5741W        W 9485   2.333   5.275   0.947 -0.5932 -0.0306  0.0476
 5742W        W 9486   6.568   3.686   3.097 -0.4222 -0.0317 -0.0781
 5743W        W 9487   6.758   8.376   0.286 -0.1385  0.2058 -0.1612
 5744W        W 9488   3.803   1.543  11.245 -0.1483  0.0435  0.2806
 5745W        W 9489   0.319   9.240   4.952 -0.0767 -0.1379 -0.2386
 5746W        W 9490   9.364   5.604   9.701 -0.0946  0.0279  0.0704
 5747W        W 9491   6.034   0.995   4.329 -0.0213  0.1928  0.0678
 5748W        W 9492   9.601   9.913   0.547 -0.4873  0.0819  0.3163
 5749W        W 9493   9.362   6.481   2.772  0.0004  0.0328 -0.3078
 5750W        W 9494   1.220   6.305   0.886 -0.2322 -0.3044 -0.0456
 5751W        W 9495   6.102   7.923  11.062 -0.0516 -0.1806  0.0241
 5752W        W 9496   8.359   3.572  12.745 -0.2437 -0.0254  0.1997
 5753W        W 9497   7.581   2.549   3.050 -0.0687  0.0096 -0.2440
 5754W        W 9498   5.436   3.103   2.080  0.1000 -0.0595  0.0810
 5755W        W 9499   8.411   9.680   9.183 -0.4683  0.0561  0.0285
 5756W        W 9500   3.411   0.175   8.826  0.0469  0.1279  0.0255
 5757W        W 9501   8.426   8.641   2.429  0.1575  0.2876  0.1975
 5758W        W 9502   9.942   9.440   1.227 -0.2293  0.1316 -0.3854
 5759W        W 9503   5.591   5.957   9.598  0.0715  0.0484  0.2500
 5760W        W 9504   0.673   5.595  11.539  0.1497 -0.3934 -0.2571
 5761W        W 9505   4.001   4.113   2.036  0.2293 -0.1635  0.0185
 5762W        W 9506   4.605   4.293   1.856 -0.1541 -0.1411  0.0869
 5763W        W 9507   4.500   7.304  12.717  0.0002  0.2566  0.0378
 5764W        W 9508   0.333   5.475   2.034 -0.1763  0.3347  0.0665
 5765W        W 9509   6.148   1.467   9.120  0.2696 -0.0926 -0.4174
 5766W        W 9510   0.092   6.221   3.318 -0.1698 -0.2758  0.0613
 5767W        W 9511   1.084   5.895  11.491 -0.1583  0.1385  0.0541
 5768W        W 9512   3.119   9.744   0.533  0.0325 -0.2752 -0.0617
 5769W        W 9513   3.612   9.345  10.849 -0.1011 -0.1672 -0.1651
 5770W        W 9514   8.211   4.171   0.471 -0.1751 -0.1561 -0.0008
 5771W        W 9515   3.465   1.178  10.847 -0.1308 -0.1698 -0.0851
 5772W        W 9516   1.223   3.397  10.146 -0.0834 -0.1592  0.0273
 5773W        W 9517   2.212   9.894   1.924  0.2701  0.2829  0.0199
 5774W        W 9518   7.809   7.307  11.554  0.4242  0.0789 -0.1844
 5775W        W 9519   0.913   2.115  12.075 -0.2954  0.0636  0.0412
 5776W        W 9520   7.316   8.897   1.749 -0.0658  0.0658 -0.0128
 5777W        W 9521   0.577   9.191   9.398  0.0750 -0.2095  0.2773
 5778W        W 9522   2.426   8.368  12.541  0.1619 -0.1746  0.1714
 5779W        W 9523   0.353   8.374   1.635 -0.0242  0.3739 -0.1253
 5780W        W 9524   7.889   7.822   0.019 -0.0946  0.0035 -0.0110
 5781W        W 9525   6.681   2.877   3.070 -0.1401  0.2273  0.0466
 5782W        W 9526   3.703   7.219  10.517  0.0216  0.0640  0.4287
 5783W        W 9527   8.390   7.555   0.141 -0.0999  0.2105 -0.0652
 5784W        W 9528   2.588   4.568  12.111 -0.2072  0.0581 -0.3130
 5785W        W 9529   9.315   8.689   0.922  0.0282 -0.2662 -0.0362
 5786W        W 9530   6.843   3.190   2.135 -0.2833 -0.2997  0.1572
 5787W        W 9531   8.893   8.638   0.698  0.0377 -0.5463 -0.1080
 5788W        W 9532   0.029   0.362   9.662 -0.0726  0.0060 -0.1619
 5789W        W 9533   3.637   2.269   1.966  0.0006 -0.1693 -0.0863
 5790W        W 9534   3.136   8.563   1.600  0.1671  0.1775  0.0401
 5791W        W 9535   2.657   3.299  10.251 -0.0810  0.0260 -0.2361
 5792W        W 9536   6.983   3.244   8.983  0.0276  0.1520 -0.2525
 5793W        W 9537   8.662   0.100   4.094  0.2610 -0.2489 -0.2555
 5794W        W 9538   8.743   3.953   4.085  0.0032  0.0646  0.0299
 5795W        W 9539   4.122   1.353   1.403 -0.0687  0.2068 -0.0653
 5796W        W 9540   3.506   2.009   0.189  0.0793 -0.2951 -0.0325
 5797W        W 9541   4.761   0.357   2.771 -0.1703  0.2963  0.1727
 5798W        W 9542   4.544   6.786  12.670  0.0329  0.1089  0.0374
 5799W        W 9543   6.984   0.122   2.244 -0.2257 -0.4206 -0.1787
 5800W        W 9544   0.222   0.487   3.468 -0.2438  0.1650  0.1205
 5801W        W 9545   2.063   6.719  11.711  0.5258 -0.2408  0.1258
 5802W        W 9546   7.546   6.557   3.746 -0.1245 -0.2950  0.0836
 5803W        W 9547   4.423   9.164   1.468  0.2043  0.1512 -0.3179
 5804W        W 9548   0.525   9.685   1.603 -0.3485  0.0710 -0.1035
 5805W        W 9549   4.868   7.761  10.267  0.0995  0.3327  0.0601
 5806W        W 9550   9.777   2.204   0.678  0.1570 -0.1638  0.3186
 5807W        W 9551   2.503   5.956  11.709  0.3117 -0.1823  0.3320
 5808W        W 9552   6.169   2.450  10.734  0.2562 -0.0798  0.0546
 5809W        W 9553   1.425   6.482  10.835 -0.1104  0.2723  0.0487
 5810W        W 9554   5.529   0.998  12.628 -0.0415  0.2097 -0.2284
 5811W        W 9555   7.141   2.314  10.624 -0.0378 -0.3356 -0.0124
 5812W        W 9556   8.977   6.204   2.590 -0.0906  0.0331  0.3224
 5813W        W 9557   0.035   9.653   3.434  0.1723  0.1329  0.1515
 5814W        W 9558   3.861   1.717   0.095 -0.2967  0.2416  0.1769
 5815W        W 9559   6.021   5.535   4.170 -0.1825 -0.3353  0.2422
 5816W        W 9560   7.758   3.317   1.086  0.1416  0.1920  0.0579
 5817W        W 9561   3.942   0.091   2.304  0.0428  0.2726  0.1491
 5818W        W 9562   5.989   7.980  11.538  0.2097  0.3473 -0.1536
 5819W        W 9563   0.700   2.404   3.707 -0.2306 -0.1448 -0.1344
 5820W        W 9564   7.241   2.354   1.602  0.0127 -0.1306  0.0932
 5821W        W 9565   8.484   6.175   8.632 -0.0556  0.0817  0.2342
 5822W        W 9566   7.061   1.518   3.583  0.2071 -0.1034 -0.4713
 5823W        W 9567   1.459   9.844   1.815 -0.0223 -0.3206 -0.0483
 5824W        W 9568   3.349   1.677  10.659  0.1567 -0.0234  0.2371
 5825W        W 9569   9.890   5.311  12.218 -0.1760  0.1066  0.1511
 5826W        W 9570   5.576   8.213   3.918 -0.3568 -0.0077  0.0295
 5827W        W 9571   2.984   6.472   1.919  0.0480 -0.0837  0.2262
 5828W        W 9572   0.826   3.541   1.749  0.3125 -0.1551 -0.0671
 5829W        W 9573   8.377   6.889  10.036  0.0060  0.0597 -0.1657
 5830W        W 9574   7.399   9.771   2.346  0.0464 -0.0047  0.1767
 5831W        W 9575   5.928   7.586   1.992  0.0260 -0.1982 -0.3056
 5832W        W 9576   7.889   2.925  11.436 -0.0495 -0.0784 -0.1881
 5833W        W 9577   4.791   4.009   1.174 -0.0258 -0.0268  0.3668
 5834W        W 9578   1.147   3.426   0.252 -0.0116 -0.0546  0.1577
 5835W        W 9579   9.886   4.662   2.421 -0.1271  0.2983  0.0222
 5836W        W 9580   8.675   9.079   0.637  0.1422 -0.0300  0.2009
 5837W        W 9581   2.217   5.052  10.325 -0.0720 -0.1689 -0.2811
 5838W        W 9582   9.741   3.178   2.081  0.1148 -0.0016  0.3030
 5839W        W 9583   4.642   4.333  12.643  0.0550 -0.3579  0.0926
 5840W        W 9584   9.091   5.329   2.471 -0.1448 -0.0302  0.3289
 5841W        W 9585   6.694   7.726   2.738 -0.1766 -0.1413  0.2737
 5842W        W 9586   6.986   7.887   2.169  0.2334 -0.2606 -0.0240
 5843W        W 9587   8.647   3.475   8.184 -0.3243  0.0113  0.0765
 5844W        W 9588   6.437   1.152   0.956 -0.0654  0.0591  0.2600
 5845W        W 9589   6.842   2.283   1.136  0.1274  0.0660 -0.1872
 5846W        W 9590   1.936   7.935  11.548 -0.2490  0.1030  0.0714
 5847W        W 9591   3.298   0.319   2.956 -0.1919  0.2331  0.0301
 5848W        W 9592   7.177   9.651   3.633 -0.1137 -0.1959 -0.0995
 5849W        W 9593   6.852   4.221   1.816  0.0419 -0.0521  0.0554
 5850W        W 9594   0.611   8.154  12.138 -0.3241  0.0979 -0.0882
 5851W        W 9595   5.988   3.981   0.529  0.4713 -0.1411 -0.4882
 5852W        W 9596   0.808   6.049   3.057  0.0371  0.2112  0.1312
 5853W        W 9597   7.952   0.566   0.930 -0.2165 -0.1515 -0.2480
 5854W        W 9598   3.405   9.408   9.816 -0.0386 -0.3009 -0.0220
 5855W        W 9599   9.020   0.195  12.825  0.0882 -0.2896 -0.1612
 5856W        W 9600   7.809   2.754  12.411 -0.3992 -0.3034  0.3287
 5857W        W 9601   7.676   2.661   9.341 -0.0538 -0.0691  0.0092
 5858W        W 9602   2.606   2.350   0.641  0.0921  0.1771 -0.0117
 5859W        W 9603   3.602   4.348   3.459  0.1365 -0.1909 -0.0008
 5860W        W 9604   6.569   5.404  11.376 -0.1644  0.0744  0.1195
 5861W        W 9605   0.858   8.203  12.613  0.2976  0.2214  0.0632
 5862W        W 9606   1.568   1.283  11.330  0.1750  0.0413 -0.0433
 5863W        W 9607   9.848   9.875  11.167  0.3729 -0.1296 -0.0933
 5864W        W 9608   2.062   7.873   4.837  0.0762 -0.0935  0.0335
 5865W        W 9609   4.490   2.256  12.097  0.1476 -0.2615  0.2043
 5866W        W 9610   4.012   0.516   1.999  0.2234 -0.2041  0.1398
 5867W        W 9611   7.508   7.957   9.923  0.0187 -0.0422  0.2557
 5868W        W 9612   9.207   4.367   0.641  0.1612 -0.1088  0.4180
 5869W        W 9613   6.183   0.907  10.455  0.0146  0.0073  0.1434
 5870W        W 9614   4.469   9.288   2.705 -0.0546  0.2356 -0.5419
 5871W        W 9615   3.729   7.159   0.592 -0.0378  0.0148  0.1790
 5872W        W 9616   7.998   5.478  11.919 -0.0420  0.0701  0.1472
 5873W        W 9617   5.533   0.395   0.549 -0.0055 -0.0395 -0.0114
 5874W        W 9618   1.403   4.626   1.233  0.1229  0.1290  0.0909
 5875W        W 9619   3.733   1.443  11.721 -0.4340 -0.2371 -0.1617
 5876W        W 9620   0.731   4.904   3.674 -0.1395 -0.2514 -0.0988
 5877W        W 9621   7.919   7.846   2.567  0.0011 -0.0636 -0.0277
 5878W        W 9622   2.728   4.718   4.217  0.2201 -0.1878 -0.3305
 5879W        W 9623   8.521   7.985   1.685  0.0454 -0.0223 -0.0389
 5880W        W 9624   1.071   5.318   3.968  0.0238  0.4396  0.3594
 5881W        W 9625   7.934   0.577  11.069 -0.1179 -0.1998 -0.0161
 5882W        W 9626   6.693   8.485   3.348  0.2480  0.3051 -0.0816
 5883W        W 9627   4.097   1.223   4.108 -0.0083 -0.1681  0.0331
 5884W        W 9628   9.317   8.965   3.790  0.3843  0.0638 -0.1986
 5885W        W 9629   5.764   6.787   0.380 -0.0158 -0.1792 -0.3136
 5886W        W 9630   3.649   3.964   3.821 -0.3299 -0.0542  0.1315
 5887W        W 9631   8.040   4.308  10.091 -0.1744 -0.0825 -0.1030
 5888W        W 9632   6.218   3.003   1.377 -0.1179 -0.0608 -0.6483
 5889W        W 9633   3.822   5.294  10.965  0.3854 -0.0576 -0.3257
 5890W        W 9634   5.194   1.475   0.424  0.0141  0.2332 -0.4489
 5891W        W 9635   2.114   6.166   2.552 -0.0640 -0.0168 -0.0834
 5892W        W 9636   6.347   5.360   2.322 -0.2168  0.0378  0.0649
 5893W        W 9637   6.805   6.611  11.552  0.0093  0.0278  0.0938
 5894W        W 9638   8.336   9.651   0.911  0.0300  0.2416  0.2400
 5895W        W 9639   7.053   4.323   3.812  0.0040  0.0054 -0.0026
 5896W        W 9640   4.128   6.918   0.890 -0.0979 -0.1380  0.2100
 5897W        W 9641   6.346   4.409  10.935  0.0109  0.1099 -0.2520
 5898W        W 9642   6.627   1.807   4.879 -0.0901 -0.2202  0.0423
 5899W        W 9643   5.486   5.379   1.524 -0.0507 -0.2523 -0.1294
 5900W        W 9644   9.567   9.677   9.511 -0.5008 -0.2990 -0.1562
 5901W        W 9645   9.638   1.154   0.562 -0.3310 -0.0960  0.1283
 5902W        W 9646   9.145   2.047   0.470  0.1642 -0.2087 -0.4346
 5903W        W 9647   3.560   8.915   4.253  0.3934  0.0124 -0.1644
 5904W        W 9648   9.267   1.105  11.702  0.0620 -0.0789  0.0869
 5905W        W 9649   4.481   9.700   2.314  0.2491 -0.0360  0.0315
 5906W        W 9650   5.430   0.246   3.455  0.1016 -0.1768  0.1419
 5907W        W 9651   1.974   7.497   9.952  0.1228 -0.2830  0.1739
 5908W        W 9652   7.729   1.865  10.132 -0.0843  0.1894  0.0999
 5909W        W 9653   2.779   4.309   0.718  0.1254  0.2201  0.1109
 5910W        W 9654   9.497   6.908   9.406  0.0218 -0.3916  0.0263
 5911W        W 9655   2.051   9.038   0.452 -0.0809  0.0359  0.0288
 5912W        W 9656   9.151   8.330   2.965 -0.2323  0.0192 -0.0236
 5913W        W 9657   1.815   5.431   1.077 -0.1589 -0.1584 -0.2024
 5914W        W 9658   6.823   2.802   0.347 -0.0557  0.2388 -0.1216
 5915W        W 9659   1.395   3.351  12.596  0.1847 -0.4534  0.0034
 5916W        W 9660   3.252   1.319   1.009 -0.3077  0.2890  0.0508
 5917W        W 9661   0.208   0.370  11.540 -0.0037 -0.0911 -0.1098
 5918W        W 9662   9.032   0.809   2.143 -0.1860  0.1554  0.1985
 5919W        W 9663   0.950   2.986   9.392  0.0627  0.1439  0.1195
 5920W        W 9664   5.233   1.087   2.675  0.1219  0.1211 -0.0392
 5921W        W 9665   6.127   9.806   1.020  0.1060 -0.0453 -0.0990
 5922W        W 9666   7.670   6.226   9.109  0.3230 -0.0997 -0.1157
 5923W        W 9667   1.434   2.770   9.429 -0.0293 -0.0393 -0.3536
 5924W        W 9668   9.669   1.464  11.627 -0.3511 -0.3484 -0.1998
 5925W        W 9669   7.512   8.516  12.354 -0.1668 -0.4774  0.0801
 5926W        W 9670   5.729   4.039  10.970 -0.1136  0.1627  0.3108
 5927W        W 9671   2.546   0.693   5.395 -0.2955  0.1222  0.2613
 5928W        W 9672   9.522   4.387   0.246  0.0121  0.0032  0.0585
 5929W        W 9673   8.070   1.433   4.041 -0.4279 -0.1103 -0.0968
 5930W        W 9674   8.233   3.072   1.981 -0.2274 -0.3138 -0.1088
 5931W        W 9675   9.189   0.118   4.679  0.3765 -0.0441  0.2444
 5932W        W 9676   8.633   4.411   0.626 -0.1804 -0.2052  0.0448
 5933W        W 9677   7.026   5.394  12.303 -0.1469 -0.0668  0.2603
 5934W        W 9678   0.581   5.798   2.496 -0.2100 -0.0666 -0.0396
 5935W        W 9679   6.130   6.194   2.868  0.0029  0.0812 -0.4470
 5936W        W 9680   9.617   0.515  10.629  0.6192 -0.0166 -0.3039
 5937W        W 9681   2.863   8.043   8.995  0.0586  0.0558  0.1674
 5938W        W 9682   3.853   2.004   3.513  0.0977 -0.2856  0.0934
 5939W        W 9683   3.222   2.220  11.875  0.3497 -0.0326 -0.0339
 5940W        W 9684   1.674   6.040   2.386 -0.0945  0.2001 -0.1299
 5941W        W 9685   4.764   3.804  12.631  0.2128 -0.3037  0.2067
 5942W        W 9686   8.668   3.467  11.204  0.3331 -0.3246 -0.0131
 5943W        W 9687   0.665   9.386  10.547  0.1001  0.0381  0.0263
 5944W        W 9688   0.011   1.491   1.950  0.1856 -0.2829 -0.2665
 5945W        W 9689   7.323   0.220   2.631 -0.1454 -0.0307  0.0987
 5946W        W 9690   1.658   1.551   1.364  0.0288 -0.0634  0.3552
 5947W        W 9691   5.238   2.353   0.700  0.0896 -0.1220 -0.1421
 5948W        W 9692   7.469   3.096   2.425  0.3386 -0.0589  0.0276
 5949W        W 9693   5.668   8.129   8.406 -0.0838 -0.0966 -0.1425
 5950W        W 9694   6.400   8.879   8.177 -0.0812 -0.1047  0.0444
 5951W        W 9695   7.972   1.856   0.052  0.0645  0.1962  0.0705
 5952W        W 9696   3.535   0.158   9.291 -0.0125 -0.0235  0.3152
 5953W        W 9697   6.908   1.092  12.197  0.0685  0.2546  0.0292
 5954W        W 9698   2.593   1.183   9.184  0.0084  0.0946  0.2795
 5955W        W 9699   4.524   2.641  11.745  0.2428 -0.0421 -0.3260
 5956W        W 9700   7.673   2.640   1.275 -0.0725 -0.0304 -0.0961
 5957W        W 9701   1.852   1.538   0.906 -0.2728  0.1041 -0.1769
 5958W        W 9702   5.833   5.958   3.331  0.1337  0.0365  0.1211
 5959W        W 9703   4.517   7.692  12.343 -0.0321 -0.0675 -0.1056
 5960W        W 9704   6.755   4.818   8.329  0.0793 -0.0134  0.0109
 5961W        W 9705   5.059   7.949   2.295  0.0134 -0.1458 -0.0463
 5962W        W 9706   8.503   1.546   4.775  0.0872  0.3089 -0.0693
 5963W        W 9707   6.597   8.374  10.193 -0.0868  0.1140 -0.3179
 5964W        W 9708   3.985   1.075  10.189  0.2306 -0.2126  0.3005
 5965W        W 9709   3.743   9.741   9.559  0.1337 -0.0106  0.1369
 5966W        W 9710   4.305   7.706  11.151  0.1183  0.1429  0.2314
 5967W        W 9711   4.789   6.949   0.305 -0.3624 -0.3498  0.0776
 5968W        W 9712   3.792   9.098   3.842 -0.0901  0.0591 -0.3380
 5969W        W 9713   7.837   5.751   1.632 -0.1130 -0.1829  0.1487
 5970W        W 9714   9.564   6.328   3.218  0.5303 -0.1741  0.3243
 5971W        W 9715   4.521   3.294  10.277 -0.1106 -0.1542 -0.1771
 5972W        W 9716   8.849   7.035   1.715 -0.1726  0.3199 -0.0955
 5973W        W 9717   9.002   9.941   1.434  0.2405 -0.0246  0.0544
 5974W        W 9718   7.334   1.041   1.325 -0.0437 -0.1781  0.1107
 5975W        W 9719   9.025   0.439  10.762  0.0248  0.0730 -0.1337
 5976W        W 9720   9.268   4.792   2.902  0.0633 -0.1183 -0.1818
 5977W        W 9721   6.533   9.841   9.903  0.0601 -0.0101 -0.0366
 5978W        W 9722   2.291   9.074   0.997 -0.2455  0.0039 -0.1650
 5979W        W 9723   8.272   0.765  11.434  0.1058 -0.0170  0.0010
 5980W        W 9724   2.195   9.567   1.235  0.1356 -0.0547 -0.1874
 5981W        W 9725   0.867   6.330  11.376  0.0542  0.1105  0.0775
 5982W        W 9726   0.343   7.013   9.072  0.0023  0.1167  0.0492
 5983W        W 9727   8.018   2.773   0.550  0.1212 -0.4255 -0.1060
 5984W        W 9728   3.944   6.412   0.930 -0.2176 -0.2033 -0.1431
 5985W        W 9729   1.760   1.675  10.232 -0.0842  0.1596  0.0420
 5986W        W 9730   8.574   4.409  12.404  0.0090  0.0351 -0.1579
 5987W        W 9731   5.760   8.429   3.221 -0.1241 -0.1210  0.0731
 5988W        W 9732   9.895   1.663   1.257  0.2074 -0.1696  0.0032
 5989W        W 9733   4.160   6.008   1.262 -0.1725 -0.2872 -0.0239
 5990W        W 9734   3.396   7.486   1.060 -0.3427  0.0434 -0.0888
 5991W        W 9735   0.242   6.224   3.866 -0.0231 -0.1619  0.2076
 5992W        W 9736   7.925   7.958  10.620 -0.0371  0.5051 -0.1053
 5993W        W 9737   8.309   4.623  11.932  0.1909 -0.1891 -0.2528
 5994W        W 9738   5.062   3.527  11.206 -0.0682 -0.0812  0.1864
 5995W        W 9739   2.520   4.442  12.636 -0.3753 -0.1083 -0.1207
 5996W        W 9740   5.944   0.486  10.676  0.2252 -0.2755  0.1690
 5997W        W 9741   8.452   0.753   9.457 -0.1818  0.1268  0.0666
 5998W        W 9742   5.935   5.620   1.509 -0.1080 -0.1149  0.0606
 5999W        W 9743   0.078   7.212   2.438 -0.1970  0.0430 -0.0242
 6000W        W 9744   7.752   8.751   2.572  0.3991 -0.1450 -0.1480
 6001W        W 9745   7.258   7.360  10.787  0.2233 -0.3984  0.0595
 6002W        W 9746   1.790   0.629   1.412 -0.3914 -0.4140 -0.1349
 6003W        W 9747   2.318   2.228  12.134 -0.0799 -0.3001 -0.0998
 6004W        W 9748   4.774   0.746   3.827 -0.0992  0.3335  0.1175
 6005W        W 9749   7.891   0.058  10.345  0.1296  0.1926  0.3356
 6006W        W 9750   6.592   3.146  12.292  0.1946  0.0831  0.1894
 6007W        W 9751   2.055   6.237   0.365 -0.4836  0.1631  0.0194
 6008W        W 9752   9.231   6.598   2.283  0.2211  0.0766 -0.1410
 6009W        W 9753   1.863   1.151   2.490  0.0769 -0.1651  0.0687
 6010W        W 9754   0.630   7.721  12.480  0.0954  0.1692 -0.1354
 6011W        W 9755   0.470   3.212   1.529 -0.3648 -0.1254  0.0322
 6012W        W 9756   0.450   7.060   9.538  0.0557 -0.1155 -0.1016
 6013W        W 9757   8.185   4.880   3.927  0.1613  0.1101  0.1600
 6014W        W 9758   2.632   9.056   4.613 -0.2055 -0.0329 -0.4234
 6015W        W 9759   2.517   4.036  11.362  0.2710 -0.0274 -0.2883
 6016W        W 9760   8.463   3.324   2.406  0.0361  0.2229  0.0158
 6017W        W 9761   9.111   4.868   1.594  0.0380 -0.2461  0.0094
 6018W        W 9762   5.713   1.889  10.584 -0.1591  0.0053 -0.2262
 6019W        W 9763   9.863   2.934   4.425 -0.1560 -0.1671  0.0321
 6020W        W 9764   4.223   4.949  11.280  0.2561 -0.1299 -0.1407
 6021W        W 9765   1.808   5.616  12.424  0.0015 -0.2434 -0.4763
 6022W        W 9766   2.434   9.858   3.205 -0.0133 -0.0671 -0.2812
 6023W        W 9767   9.793   0.037  11.716 -0.0386  0.3696 -0.4104
 6024W        W 9768   4.380   2.936   0.689 -0.2308  0.1710 -0.1729
 6025W        W 9769   1.219   3.326   2.090 -0.1943 -0.1717  0.1476
 6026W        W 9770   5.469   2.990  11.694  0.2007 -0.1756  0.0312
 6027W        W 9771   3.424   9.590   4.877 -0.1694  0.0872 -0.1377
 6028W        W 9772   5.449   3.822   0.930  0.0401  0.0756  0.1693
 6029W        W 9773   5.408   0.766   3.049 -0.0837  0.1711  0.1568
 6030W        W 9774   1.585   3.440  12.134 -0.1141  0.1275 -0.3631
 6031W        W 9775   1.623   9.599  12.583  0.0696 -0.2740  0.2411
 6032W        W 9776   9.686   8.570   8.090 -0.0537  0.0231 -0.0347
 6033W        W 9777   9.478   7.429   0.784  0.0194  0.0136  0.0203
 6034W        W 9778   3.584   7.340   3.874 -0.1783 -0.1277 -0.0425
 6035W        W 9779   8.849   1.986   8.294  0.1711  0.2649  0.1037
 6036W        W 9780   0.697   5.420   9.493 -0.0552  0.0039 -0.2013
 6037W        W 9781   2.970   0.461  11.589  0.0563 -0.2459 -0.2571
 6038W        W 9782   8.644   7.675  11.666 -0.2273 -0.3720  0.1323
 6039W        W 9783   1.691   4.054  11.328  0.1707 -0.0693  0.0161
 6040W        W 9784   5.168   6.037   2.697  0.0255 -0.0181 -0.0867
 6041W        W 9785   2.725   7.607   9.479  0.2103  0.0767 -0.0066
 6042W        W 9786   9.655   1.341   1.583 -0.0857  0.1395 -0.1402
 6043W        W 9787   8.897   3.904   9.931  0.3100 -0.0309 -0.2258
 6044W        W 9788   5.398   2.038   1.550 -0.1677 -0.1356 -0.1058
 6045W        W 9789   3.325   4.591  10.940  0.1047  0.1304  0.1861
 6046W        W 9790   8.209   0.689   4.526  0.1136  0.1423 -0.0868
 6047W        W 9791   7.289   7.030   2.739  0.1849 -0.0197 -0.0478
 6048W        W 9792   3.546   8.332   1.168 -0.3412  0.0223 -0.2017
 6049W        W 9793   4.834   8.015  12.646  0.1769  0.1270  0.2278
 6050W        W 9794   8.428   4.157   8.816 -0.1402  0.0594 -0.0304
 6051W        W 9795   1.377   3.909  12.361 -0.1734  0.1475  0.3205
 6052W        W 9796   9.387   9.503   2.682 -0.3683 -0.0948 -0.0179
 6053W        W 9797   3.804   5.630   3.101 -0.2538 -0.0863  0.2925
 6054W        W 9798   0.738   6.250   9.949 -0.1984  0.0733 -0.2353
 6055W        W 9799   4.123   7.954  12.067  0.0396 -0.0589 -0.1201
 6056W        W 9800   7.098   2.889  10.712  0.1786 -0.0528 -0.0128
 6057W        W 9801   6.864   1.251   1.170 -0.2320 -0.0971  0.0419
 6058W        W 9802   9.089   3.111  10.441  0.1714 -0.2390 -0.2356
 6059W        W 9803   6.962   9.725   4.458 -0.0026 -0.1029 -0.2037
 6060W        W 9804   0.976   2.984  11.371 -0.0823 -0.1604  0.1192
 6061W        W 9805   8.348   6.103   3.817  0.2208  0.1411 -0.0167
 6062W        W 9806   0.827   7.730   2.773  0.0233 -0.0317  0.1353
 6063W        W 9807   1.031   9.190   9.305 -0.0972 -0.1238 -0.2225
 6064W        W 9808   1.706   3.047   9.084  0.0403  0.0622 -0.0107
 6065W        W 9809   8.070   5.741   4.794  0.0759 -0.1293 -0.4046
 6066W        W 9810   4.388   2.257   9.629  0.1239 -0.0224 -0.0333
 6067W        W 9811   9.230   1.351  12.575  0.0771  0.2176 -0.0749
 6068W        W 9812   3.907   2.294   0.114 -0.0427 -0.2779  0.1036
 6069W        W 9813   2.251   5.032   0.147 -0.3194 -0.0001  0.0109
 6070W        W 9814   7.509   1.364  10.137 -0.2092  0.2147 -0.0837
 6071W        W 9815   1.069   4.347   2.744 -0.0563  0.2835 -0.3410
 6072W        W 9816   8.902   2.639   4.403 -0.2286  0.4953  0.2414
 6073W        W 9817   7.024   0.596   4.949 -0.2999  0.0524 -0.0289
 6074W        W 9818   5.282   9.676   8.668 -0.1229  0.1263  0.0133
 6075W        W 9819   5.935   8.404  11.141  0.0264  0.0847 -0.0429
 6076W        W 9820   2.909   2.574   1.141  0.2634 -0.0487  0.1469
 6077W        W 9821   0.872   8.974  10.819 -0.0624  0.0427 -0.0223
 6078W        W 9822   9.547   0.781   0.906  0.1569 -0.0400 -0.0870
 6079W        W 9823   6.623   2.642  11.772  0.0283  0.1364 -0.0964
 6080W        W 9824   4.894   9.453  12.241 -0.0208  0.2657 -0.1373
 6081W        W 9825   3.961   9.306   3.149 -0.0007 -0.0501 -0.0022
 6082W        W 9826   1.015   3.399   4.113  0.0707 -0.2381 -0.2957
 6083W        W 9827   0.348   7.774   7.972 -0.1316 -0.3002 -0.2659
 6084W        W 9828   2.472   4.878   1.395  0.2414 -0.2472  0.0795
 6085W        W 9829   1.634   6.650   9.315 -0.3067  0.0625 -0.1577
 6086W        W 9830   5.376   5.925   0.841  0.0313 -0.0146  0.0719
 6087W        W 9831   8.646   3.384   3.709 -0.0037 -0.0722  0.0133
 6088W        W 9832   4.535   6.494  10.027 -0.1562 -0.1250  0.4230
 6089W        W 9833   6.056   0.034   4.086 -0.0142  0.0096 -0.0213
 6090W        W 9834   4.277   0.699  12.564  0.0385 -0.0797 -0.0032
 6091W        W 9835   4.301   5.569   2.888 -0.2370 -0.1886 -0.0342
 6092W        W 9836   4.627   2.595   3.443  0.1148  0.3043  0.0361
 6093W        W 9837   7.727   5.380   0.649  0.2657  0.2157  0.0124
 6094W        W 9838   9.405   1.757   2.906  0.0838  0.0538 -0.4166
 6095W        W 9839   1.780   1.701   4.667  0.0014 -0.1512 -0.0353
 6096W        W 9840   2.786   3.788   3.788  0.0069 -0.5840 -0.0480
 6097W        W 9841   0.541   9.117   1.916  0.0870 -0.2481 -0.0086
 6098W        W 9842   1.607   4.088   4.537  0.2709  0.0183 -0.2922
 6099W        W 9843   7.949   6.950   3.738  0.0021  0.2602  0.0415
 6100W        W 9844   8.175   7.031   0.368  0.0662 -0.0004  0.1035
 6101W        W 9845   9.269   9.246   9.542 -0.0862 -0.4448 -0.0578
 6102W        W 9846   8.073   7.572   9.551 -0.0536 -0.0663  0.0880
 6103W        W 9847   2.727   2.817  11.184 -0.0145 -0.2109 -0.2018
 6104W        W 9848   7.537   7.661   2.258  0.3115 -0.0162  0.2214
 6105W        W 9849   9.017   4.406   0.188 -0.1887  0.0432  0.0620
 6106W        W 9850   9.642   6.287   3.722 -0.0301 -0.1796  0.0328
 6107W        W 9851   4.238   6.291  11.047  0.3937 -0.2273  0.1931
 6108W        W 9852   4.560   9.171   4.229 -0.0646 -0.0080  0.0341
 6109W        W 9853   7.114   2.576   4.399  0.0420  0.0170 -0.0331
 6110W        W 9854   7.216   8.770   2.371  0.2933  0.0538 -0.4198
 6111W        W 9855   8.286   2.682  12.309  0.0367  0.0637 -0.0159
 6112W        W 9856   5.156   3.643   2.642 -0.1472  0.0903  0.3958
 6113W        W 9857   7.114   8.159   0.595 -0.1913  0.0938 -0.0383
 6114W        W 9858   0.197   1.463   9.229 -0.1068  0.1454 -0.0587
 6115W        W 9859   9.620   4.837  11.369  0.3600 -0.2911 -0.0189
 6116W        W 9860   8.252   6.676   7.915 -0.2186  0.0392 -0.3841
 6117W        W 9861   8.505   4.550  10.090 -0.1988  0.1690 -0.1916
 6118W        W 9862   7.069   4.783   9.225 -0.1165 -0.2860 -0.1609
 6119W        W 9863   7.017   9.614   9.674  0.3200 -0.3447 -0.0439
 6120W        W 9864   7.650   9.869   3.693  0.0950  0.0731  0.3024
 6121W        W 9865   4.039   0.559   1.063  0.3029 -0.0894  0.0385
 6122W        W 9866   7.275   4.021   3.429 -0.1374 -0.1705 -0.0861
 6123W        W 9867   1.014   7.977   0.879  0.0146 -0.2174 -0.4077
 6124W        W 9868   7.194   0.839  11.635 -0.1824  0.0642  0.1794
 6125W        W 9869   6.060   2.770   3.125 -0.3077  0.4860  0.2699
 6126W        W 9870   9.843   4.659   1.963  0.2287  0.0523  0.0195
 6127W        W 9871   0.781   9.659  11.517 -0.1247 -0.0294 -0.1414
 6128W        W 9872   8.888   1.809   8.778 -0.0064 -0.1556 -0.0058
 6129W        W 9873   7.489   1.822  12.019 -0.0159 -0.1936 -0.0433
 6130W        W 9874   7.578   6.541   8.655 -0.0003  0.1183 -0.1752
 6131W        W 9875   0.662   7.100  11.078  0.0181 -0.1289 -0.1606
 6132W        W 9876   6.267   6.811   3.675  0.2652 -0.0609  0.1213
 6133W        W 9877   9.583   1.839  11.920  0.0819  0.2503 -0.3555
 6134W        W 9878   6.421   9.653  12.009 -0.1840 -0.2428 -0.0892
 6135W        W 9879   9.276   7.652   9.568  0.0975  0.0540  0.3758
 6136W        W 9880   1.532   8.376   9.028  0.0464 -0.4873 -0.2489
 6137W        W 9881   8.775   7.063   8.981 -0.3083 -0.3451 -0.0781
 6138W        W 9882   5.756   6.566   2.576  0.0600  0.0751 -0.3054
 6139W        W 9883   8.767   4.456   9.146 -0.2183  0.1738 -0.2929
 6140W        W 9884   6.601   1.349   5.116  0.2705 -0.2019  0.2224
 6141W        W 9885   8.029   0.810   2.949  0.2685 -0.1144  0.1041
 6142W        W 9886   0.881   6.311  12.005 -0.0366  0.0511  0.0637
 6143W        W 9887   3.884   9.669   8.531  0.3590 -0.2112  0.1213
 6144W        W 9888   8.816   5.917  11.226 -0.0643  0.0919  0.1272
 6145W        W 9889   7.625   4.084  10.904 -0.1632  0.3396  0.1104
 6146W        W 9890   1.305   3.020   9.871 -0.0987  0.0760 -0.1282
 6147W        W 9891   8.533   0.532  10.732 -0.0612 -0.5941 -0.0086
 6148W        W 9892   2.524   2.293   4.690 -0.1528 -0.0576 -0.1434
 6149W        W 9893   9.176   6.428  12.055  0.0001  0.2570 -0.1205
 6150W        W 9894   4.157   0.047  10.476 -0.1212 -0.0420 -0.3511
 6151W        W 9895   9.071   9.398  12.139  0.1692  0.1919  0.0340
 6152W        W 9896   3.253   7.473  10.433  0.0864  0.3141 -0.2417
 6153W        W 9897   9.753   7.537  11.138 -0.0248  0.0528  0.1076
 6154W        W 9898   1.764   4.817  11.867  0.1265  0.2064 -0.2066
 6155W        W 9899   6.945   9.465  10.949 -0.0549  0.0653 -0.0546
 6156W        W 9900   5.922   5.622  10.062 -0.1034  0.0142 -0.1176
 6157W        W 9901   7.686   4.255   2.367 -0.0538  0.2249 -0.0282
 6158W        W 9902   5.187   0.065   2.854  0.1249  0.1870  0.3266
 6159W        W 9903   7.072   6.713   0.021 -0.0266 -0.0075 -0.1758
 6160W        W 9904   2.252   5.888   2.098 -0.0936  0.0075  0.0212
 6161W        W 9905   6.309   1.508   1.303 -0.0292 -0.0564 -0.3327
 6162W        W 9906   0.637   4.645  11.609  0.0065 -0.0921  0.0710
 6163W        W 9907   0.563   9.547   9.734  0.2256  0.2279 -0.0398
 6164W        W 9908   1.751   4.696   0.628  0.0056 -0.1941  0.1698
 6165W        W 9909   6.551   2.760   2.200  0.0554 -0.2014  0.2257
 6166W        W 9910   5.272   7.993  10.075 -0.2282  0.2094 -0.1193
 6167W        W 9911   1.705   2.099   4.304 -0.1615  0.1543 -0.0298
 6168W        W 9912   3.693   4.916   9.110  0.2385  0.0248  0.2673
 6169W        W 9913   0.508   5.056   9.773  0.2798 -0.1435 -0.3442
 6170W        W 9914   9.552   5.810   3.279  0.2855  0.1782 -0.1040
 6171W        W 9915   8.529   9.446  12.308  0.1822  0.1434  0.0391
 6172W        W 9916   4.178   9.680   2.779  0.4148  0.2049  0.0245
 6173W        W 9917   1.873   9.216  11.596  0.3444 -0.0853  0.0988
 6174W        W 9918   3.856   1.410   9.791 -0.1161  0.0368 -0.0759
 6175W        W 9919   7.687   8.051   1.955 -0.0049  0.0875 -0.0196
 6176W        W 9920   8.203   6.546   8.481 -0.2442  0.1854  0.0099
 6177W        W 9921   1.603   5.927  11.009 -0.0778  0.0235 -0.0506
 6178W        W 9922   8.619   6.248   1.257 -0.4627 -0.1057 -0.1455
 6179W        W 9923   2.200   1.670   2.887  0.2467 -0.0582 -0.0276
 6180W        W 9924   6.474   8.449   1.479 -0.0169  0.2189  0.1023
 6181W        W 9925   2.237   7.250  10.910  0.0724 -0.2537 -0.3489
 6182W        W 9926   7.334   6.523   8.174  0.0818 -0.3928 -0.2300
 6183W        W 9927   3.789   5.527   9.932  0.0624 -0.0157  0.0439
 6184W        W 9928   9.627   2.175  12.310 -0.1259 -0.0339 -0.1675
 6185W        W 9929   5.362   3.069   1.542  0.1502  0.1620  0.0048
 6186W        W 9930   2.302   9.843   8.865  0.0739 -0.2351 -0.2458
 6187W        W 9931   3.023   5.668   2.492  0.2406 -0.2482 -0.0654
 6188W        W 9932   9.610   1.363   9.204 -0.1740 -0.1937  0.0281
 6189W        W 9933   9.873   2.727   9.097 -0.1914 -0.3560  0.0828
 6190W        W 9934   0.396   1.181   2.630 -0.2306 -0.2100 -0.0534
 6191W        W 9935   1.365   9.538  11.104  0.1490 -0.4580 -0.0379
 6192W        W 9936   8.031   7.852   9.152  0.0152 -0.0333  0.0191
 6193W        W 9937   2.227   0.728   2.593  0.0634 -0.1651 -0.1214
 6194W        W 9938   8.262   1.623   3.227  0.2133  0.1778  0.0774
 6195W        W 9939   6.465   3.288   3.516  0.6143 -0.2612  0.1177
 6196W        W 9940   1.356   6.576   3.699 -0.1524  0.1257  0.0618
 6197W        W 9941   4.363   2.057  11.074  0.0236 -0.0871 -0.0621
 6198W        W 9942   7.921   2.482  11.112 -0.0918 -0.4404 -0.0376
 6199W        W 9943   0.460   7.830   0.135 -0.1480  0.0882  0.1488
 6200W        W 9944   8.934   7.805  12.398 -0.1209  0.1796  0.0417
 6201W        W 9945   8.872   1.809   1.384  0.1192  0.2338 -0.3633
 6202W        W 9946   0.615   8.544   3.279 -0.0011  0.4623 -0.4106
 6203W        W 9947   9.602   8.802   4.364 -0.0957  0.2425 -0.3175
 6204W        W 9948   4.106   8.867   0.126 -0.0373  0.0011  0.1388
 6205W        W 9949   0.949   0.542   0.705 -0.0797  0.0220 -0.1676
 6206W        W 9950   3.486   3.700   3.385  0.1146  0.0043 -0.0565
 6207W        W 9951   6.108   5.151  10.094  0.1926  0.0568  0.1523
 6208W        W 9952   9.064   5.743   2.189  0.4350 -0.3511  0.0458
 6209W        W 9953   7.207   3.192  11.706 -0.0342 -0.3256  0.2030
 6210W        W 9954   9.460   1.853  10.566 -0.0693 -0.4622  0.1804
 6211W        W 9955   7.333   8.462  10.993  0.0372  0.0769  0.2787
 6212W        W 9956   8.263   5.882   1.281  0.1383 -0.1597 -0.2418
 6213W        W 9957   9.775   4.074   5.019 -0.0916 -0.1548 -0.4135
 6214W        W 9958   8.465   3.726   9.224 -0.1000  0.1358 -0.1886
 6215W        W 9959   0.901   8.530   2.275  0.1321 -0.1079  0.2379
 6216W        W 9960   3.534   5.257   1.729  0.1735 -0.5389  0.0262
 6217W        W 9961   6.680   7.514   2.266  0.0508  0.0021  0.0801
 6218W        W 9962   7.911   4.639   1.700 -0.0449 -0.2687 -0.1007
 6219W        W 9963   9.431   8.313  10.175 -0.1055 -0.1631 -0.0329
 6220W        W 9964   0.076   3.825   9.164  0.1081 -0.1920  0.1665
 6221W        W 9965   7.974   2.299  12.552  0.0311  0.1783  0.0169
 6222W        W 9966   8.717   6.501   0.358 -0.0203 -0.0590 -0.3155
 6223W        W 9967   6.852   0.632   3.435  0.1977  0.3691 -0.1515
 6224W        W 9968   9.443   3.481   1.588 -0.0598  0.0677  0.1189
 6225W        W 9969   0.567   1.403  10.643  0.1245  0.0959  0.1819
 6226W        W 9970   2.812   2.816   0.743 -0.0828 -0.1279  0.1328
 6227W        W 9971   9.466   6.001  11.880  0.2205  0.1244 -0.0654
 6228W        W 9972   5.220   3.707   0.031  0.0681  0.0888 -0.5135
 6229W        W 9973   6.630   7.995   1.308 -0.0545 -0.3184 -0.0071
 6230W        W 9974   2.034   6.831   3.464 -0.2681 -0.4028  0.1609
 6231W        W 9975   5.822   5.716   2.838 -0.1730  0.6143  0.1987
 6232W        W 9976   3.453   0.518   5.134 -0.0554  0.0676 -0.1920
 6233W        W 9977   4.859   2.987  10.137 -0.0848  0.0497 -0.0669
 6234W        W 9978   9.926   4.537  11.149 -0.2193 -0.0364  0.4074
 6235W        W 9979   4.098   4.550   0.925  0.0716  0.0552 -0.1958
 6236W        W 9980   2.432   4.876   2.727 -0.1339  0.0318  0.2050
 6237W        W 9981   6.262   5.335  11.903 -0.1753  0.0653  0.0914
 6238W        W 9982   1.954   2.462   1.359  0.2427 -0.1128  0.2840
 6239W        W 9983   4.238   4.521   2.393 -0.0524  0.0058  0.3206
 6240W        W 9984   9.705   1.639   2.398 -0.1855  0.0717 -0.1344
 6241W        W 9985   9.735   8.923   9.297  0.1324 -0.1162 -0.3409
 6242W        W 9986   7.129   2.257  11.947  0.0763  0.2286 -0.2179
 6243W        W 9987   4.273   4.488  12.076 -0.0350  0.0662  0.0271
 6244W        W 9988   8.774   7.414   2.040  0.0058 -0.0734 -0.1651
 6245W        W 9989   3.211   1.810   1.314 -0.0492 -0.3380  0.0356
 6246W        W 9990   2.475   4.971  12.444 -0.0175  0.3178  0.1089
 6247W        W 9991   9.141   9.145   0.849 -0.2593  0.2572 -0.2042
 6248W        W 9992   2.538   7.643   3.137  0.0758 -0.2917 -0.0070
 6249W        W 9993   0.283   1.643   4.055 -0.1607  0.4308  0.2585
 6250W        W 9994   4.537   3.872   0.443  0.0417 -0.3915  0.0709
 6251W        W 9995   7.683   9.458   3.266 -0.2145  0.0221  0.1134
 6252W        W 9996   2.865   2.610   1.751  0.0067  0.2794  0.3204
 6253W        W 9997   4.110   7.325   1.216 -0.0874 -0.2793  0.1948
 6254W        W 9998   4.458   8.812   9.663 -0.0058 -0.1950  0.0951
 6255W        W 9999   5.237   7.286   3.250 -0.0504 -0.3436  0.5077
 6256W        W10000   1.002   1.142   1.782  0.1367 -0.4269 -0.1316
 6257W        W10001   2.663   1.499   2.545 -0.0714 -0.2090 -0.0474
 6258W        W10002   2.464   6.553   0.178 -0.0479 -0.0934 -0.3767
 6259W        W10003   4.633   0.090  10.849 -0.0113 -0.1675 -0.1009
 6260W        W10004   2.613   8.607  12.119 -0.0238  0.0018 -0.0480
 6261W        W10005   7.986   2.726   4.068 -0.1742 -0.1737  0.0553
 6262W        W10006   8.795   0.953  10.645  0.0842 -0.0626 -0.0769
 6263W        W10007   7.284   0.757   4.104 -0.0686 -0.0710  0.1043
 6264W        W10008   9.731   9.755  10.353  0.0548 -0.0527 -0.0884
 6265W        W10009   8.628   2.741   0.244 -0.3673 -0.1692 -0.1076
 6266W        W10010   8.857   5.700   9.321 -0.2714  0.1924  0.0861
 6267W        W10011   1.800   4.275   1.025 -0.0695 -0.0939  0.3834
 6268W        W10012   0.704   4.016   1.968  0.2925  0.3362  0.1252
 6269W        W10013   2.903   0.464  12.144 -0.2523  0.0047 -0.1365
 6270W        W10014   0.982   6.569   2.912  0.1347  0.0157 -0.0489
 6271W        W10015   3.271   6.310   9.723  0.0439  0.0231 -0.2112
 6272W        W10016   6.755   7.161   0.918  0.1920 -0.1702 -0.1357
 6273W        W10017   2.665   0.933   3.506 -0.1904 -0.0375 -0.1258
 6274W        W10018   0.713   9.770   2.964 -0.1630 -0.3009 -0.1197
 6275W        W10019   0.558   2.515   9.907  0.2787  0.1757 -0.0761
 6276W        W10020   3.224   1.711  10.165 -0.3798 -0.0215  0.0285
 6277W        W10021   0.333   3.896  10.191 -0.0508  0.1583  0.5121
 6278W        W10022   2.916   6.625  11.303  0.1539  0.1473  0.0554
 6279W        W10023   5.417   2.047  12.630 -0.2233  0.2547  0.0299
 6280W        W10024   7.712   0.138  12.536 -0.1325 -0.1099 -0.0160
 6281W        W10025   6.784   8.463   9.758  0.0286 -0.0290 -0.0423
 6282W        W10026   5.720   1.578   3.889  0.0326  0.3027 -0.0191
 6283W        W10027   6.874   6.585  11.056 -0.1928  0.0130 -0.4461
 6284W        W10028   5.002   2.514  11.629 -0.1872  0.1298 -0.1164
 6285W        W10029   8.496   0.909  11.881 -0.0524 -0.0604  0.2278
 6286W        W10030   4.609   8.691  11.430 -0.0401 -0.3147 -0.1908
 6287W        W10031   6.265   8.493   0.513 -0.0180  0.1026  0.2558
 6288W        W10032   2.580   1.107   5.147 -0.3594 -0.1538  0.0555
 6289W        W10033   1.393   5.242   8.377  0.0208  0.1917  0.1663
 6290W        W10034   9.128   7.267   3.456  0.1751 -0.0376 -0.4566
 6291W        W10035   9.361   6.092  10.636 -0.0464  0.0842 -0.0981
 6292W        W10036   9.296   4.304   2.848 -0.0004 -0.1497 -0.0068
 6293W        W10037   4.277   1.505   0.397 -0.1526  0.1646  0.4606
 6294W        W10038   3.979   8.736   1.835  0.0512 -0.1997 -0.1689
 6295W        W10039   3.510   4.689   9.950  0.0614  0.2303 -0.0433
 6296W        W10040   2.321   7.743  11.811 -0.1060 -0.0226  0.2497
 6297W        W10041   7.179   4.045  12.829 -0.0829  0.0262 -0.0602
 6298W        W10042   4.586   7.075   1.325 -0.1625  0.0365 -0.0592
 6299W        W10043   2.980   8.755   0.607 -0.0105 -0.0901 -0.0535
 6300W        W10044   4.590   8.225   0.252  0.0293 -0.0372  0.1757
 6301W        W10045   1.914   9.554   1.640 -0.3882 -0.3080  0.1225
 6302W        W10046   7.751   7.286   4.072  0.0476 -0.0232 -0.3759
 6303W        W10047   4.251   0.039   1.893  0.2845  0.2250 -0.3066
 6304W        W10048   5.738   0.637  11.225 -0.1894 -0.1588 -0.0499
 6305W        W10049   3.404   8.878   9.431 -0.1097 -0.2117 -0.1544
 6306W        W10050   7.813   3.702   2.053  0.1458  0.1657  0.0636
 6307W        W10051   8.666   8.341  11.394  0.2706  0.2272 -0.0031
 6308W        W10052   1.406   9.683   8.908 -0.2149 -0.1242  0.1127
 6309W        W10053   7.866   3.023   2.748 -0.1185 -0.1941  0.1667
 6310W        W10054   2.827   1.612  11.598 -0.0675 -0.0008 -0.0670
 6311W        W10055   6.940   9.790  10.172 -0.1200 -0.0857 -0.1655
 6312W        W10056   8.365   7.621   2.347  0.1616  0.1930  0.0494
 6313W        W10057   1.419   3.424   0.834 -0.0121  0.2570 -0.2088
 6314W        W10058   1.116   3.136   3.105  0.1281 -0.5735  0.4760
 6315W        W10059   3.597   8.618  11.631  0.0696 -0.0498  0.1271
 6316W        W10060   7.974   1.048  12.254  0.1711 -0.0511  0.1487
 6317W        W10061   5.722   4.767   2.685 -0.3375 -0.1579 -0.1443
 6318W        W10062   5.698   6.186   1.604 -0.2135 -0.2995 -0.0214
 6319W        W10063   2.806   2.139   1.484 -0.1224  0.1013 -0.1738
 6320W        W10064   0.154   1.655   3.396 -0.2313  0.2453  0.1905
 6321W        W10065   8.239   3.697   0.338 -0.1343  0.2045  0.1304
 6322W        W10066   5.897   6.467  12.562  0.4636  0.0097  0.2591
 6323W        W10067   7.353   2.582  12.367  0.0137 -0.3403 -0.0545
 6324W        W10068   8.845   8.928   0.223  0.0500  0.0742 -0.2512
 6325W        W10069   6.510   0.188   0.853  0.2657 -0.0191 -0.1522
 6326W        W10070   2.746   3.767   3.280  0.1120  0.1881  0.0982
 6327W        W10071   7.084   8.577   3.648  0.0277  0.0906  0.1358
 6328W        W10072   1.972   3.877  10.033 -0.0066 -0.1959 -0.0979
 6329W        W10073   0.010   9.378   3.866  0.5005  0.0170  0.2541
 6330W        W10074   0.260   0.522   9.182 -0.1559 -0.2622 -0.1726
 6331W        W10075   7.179   1.738  11.500 -0.0379  0.0537  0.1005
 6332W        W10076   8.026   3.930   9.000  0.3460  0.1717  0.2146
 6333W        W10077   3.317   3.277   2.223 -0.1062 -0.0557  0.0983
 6334W        W10078   3.871   8.220   2.111 -0.0487  0.0830 -0.0154
 6335W        W10079   2.736   0.570  12.616 -0.5225 -0.3610  0.0829
 6336W        W10080   6.773   1.927   1.687 -0.3191  0.1315 -0.3483
 6337W        W10081   6.937   5.736  11.797 -0.1276  0.0244  0.1961
 6338W        W10082   7.813   2.971   0.150 -0.0301  0.3561 -0.1625
 6339W        W10083   3.425   0.857   0.926  0.2489  0.1473 -0.1222
 6340W        W10084   8.659   9.734   4.522 -0.4930 -0.1053  0.0586
 6341W        W10085   5.041   1.704  11.390 -0.2372 -0.0379 -0.1313
 6342W        W10086   0.502   0.608   9.602  0.2786  0.1305 -0.3561
 6343W        W10087   6.224   8.993   0.442 -0.2628  0.0599  0.0701
 6344W        W10088   1.766   2.660   0.166 -0.0506  0.2790  0.2832
 6345W        W10089   0.878   1.526   2.084 -0.1166  0.2196  0.0529
 6346W        W10090   4.127   1.391   0.896 -0.1654 -0.2977  0.0450
 6347W        W10091   6.378   6.192  10.824 -0.0027 -0.1559 -0.0484
 6348W        W10092   3.507   9.431  10.311 -0.0258 -0.0046 -0.0448
 6349W        W10093   7.891   7.198   9.143 -0.1226  0.3290 -0.0024
 6350W        W10094   0.063   6.137  11.803  0.1694  0.2588  0.0487
 6351W        W10095   4.360   6.257   0.670 -0.2367 -0.1656 -0.1393
 6352W        W10096   8.189   8.173   0.254 -0.2403 -0.0515  0.1426
 6353W        W10097   8.680   1.735   2.296 -0.1956  0.0747 -0.0018
 6354W        W10098   2.648   6.289   0.822 -0.2317 -0.0600  0.2025
 6355W        W10099   5.558   1.425   0.092  0.0146  0.2805  0.2150
 6356W        W10100   4.452   5.156   8.828 -0.1806 -0.1932 -0.0710
 6357W        W10101   1.121   2.334  10.802  0.0559 -0.0071  0.0212
 6358W        W10102   1.246   1.517   2.472  0.0793  0.0386 -0.2833
 6359W        W10103   6.682   1.511   8.433 -0.0725  0.3078 -0.0996
 6360W        W10104   0.297   7.932  10.832  0.0529 -0.2865 -0.1838
 6361W        W10105   4.729   9.822  11.355 -0.1266 -0.0160  0.1853
 6362W        W10106   1.276   9.907   9.825  0.1320  0.1399 -0.1420
 6363W        W10107   8.303   0.818   1.520  0.2160 -0.1729  0.0370
 6364W        W10108   2.180   8.986  10.299 -0.1667  0.0692  0.0623
 6365W        W10109   3.056   2.894   2.453 -0.2463  0.0899  0.1207
 6366W        W10110   4.968   6.017  10.595 -0.0788  0.0969  0.0791
 6367W        W10111   3.026   1.969  12.557 -0.3231 -0.2026 -0.5625
 6368W        W10112   6.166   3.594   9.472 -0.1233  0.3966 -0.1278
 6369W        W10113   7.199   3.197   8.139  0.0900  0.1765 -0.0000
 6370W        W10114   3.992   7.806   0.301 -0.0523  0.0053 -0.2012
 6371W        W10115   4.904   5.532  10.001 -0.0558 -0.1724  0.1192
 6372W        W10116   5.467   7.866   4.221  0.1762 -0.2954 -0.1901
 6373W        W10117   6.824   1.840   4.347  0.0465 -0.0870 -0.0517
 6374W        W10118   6.185   5.586   3.556  0.0326 -0.0083 -0.0815
 6375W        W10119   0.911   6.912   1.970 -0.2077  0.0651  0.2124
 6376W        W10120   4.283   2.704   3.773 -0.3844  0.1459  0.0465
 6377W        W10121   4.855   0.960  10.593  0.2431 -0.0768  0.0359
 6378W        W10122   8.289   9.121   9.126 -0.0873  0.1319  0.1130
 6379W        W10123   4.077   4.000   0.147 -0.0385  0.2298  0.2961
 6380W        W10124   0.086   0.269  10.209  0.0894  0.0208 -0.0293
 6381W        W10125   9.780   4.444   8.373  0.0908  0.1349 -0.2661
 6382W        W10126   9.890   3.932  11.198 -0.1221 -0.6747  0.0562
 6383W        W10127   6.297   7.109   1.093 -0.3770 -0.0784 -0.0616
 6384W        W10128   4.781   6.052  11.835  0.4612  0.0447 -0.1434
 6385W        W10129   7.237   0.203  12.224 -0.3397 -0.3202  0.4349
 6386W        W10130   7.983   8.897  10.179 -0.1922  0.1344 -0.1569
 6387W        W10131   0.217   8.344  11.119  0.3560  0.1041  0.1304
 6388W        W10132   1.067   1.079   0.875  0.1645 -0.0626  0.0386
 6389W        W10133   0.286   8.747   9.357 -0.1311 -0.0283 -0.2504
 6390W        W10134   2.193   5.580  10.111 -0.1575  0.1004 -0.3036
 6391W        W10135   6.522   7.026  11.507 -0.2370  0.0001 -0.5180
 6392W        W10136   2.152   5.729  11.932  0.0307 -0.0951 -0.1669
 6393W        W10137   1.121   2.361   3.340 -0.1351 -0.0818 -0.1818
 6394W        W10138   9.624   9.031  10.742 -0.2241  0.2146 -0.2316
 6395W        W10139   0.765   6.781   9.238  0.1165 -0.0076 -0.1339
 6396W        W10140   2.715   3.027   2.086  0.2588  0.5405  0.1335
 6397W        W10141   1.289   5.445  11.199 -0.1558 -0.3522  0.1979
 6398W        W10142   0.749   1.721   4.368  0.0160 -0.0755  0.0972
 6399W        W10143   8.684   0.058  10.850 -0.1766 -0.0126 -0.1093
 6400W        W10144   9.540   4.464   4.744 -0.2372 -0.0794 -0.2698
 6401W        W10145   9.930   7.174   0.863 -0.0121 -0.2722 -0.1558
 6402W        W10146   0.509   6.074  11.647  0.0364  0.0524  0.2249
 6403W        W10147   2.350   2.544   1.029  0.0236 -0.0448 -0.2959
 6404W        W10148   0.519   3.374   9.326  0.0583  0.1480  0.0435
 6405W        W10149   9.351   7.959   9.139  0.3478 -0.0595  0.1467
 6406W        W10150   3.720   5.231   2.188 -0.1131 -0.2236  0.1415
 6407W        W10151   7.987   5.792   0.388 -0.0159  0.2082  0.1458
 6408W        W10152   9.250   3.218   1.978  0.2854  0.0872  0.1758
 6409W        W10153   1.625   2.491   5.074 -0.1005  0.2864 -0.0859
 6410W        W10154   1.703   2.096   2.878 -0.4054 -0.3568 -0.3795
 6411W        W10155   7.930   7.685   8.137  0.0642 -0.0165  0.1763
 6412W        W10156   7.238   8.466   0.237 -0.1012  0.2661  0.1100
 6413W        W10157   0.930   3.321  12.363  0.2095  0.0391 -0.0882
 6414W        W10158   8.296   7.889   2.932 -0.1204  0.0225  0.2076
 6415W        W10159   9.472   3.214  10.826  0.1902 -0.2503  0.0530
 6416W        W10160   6.406   9.850   3.293 -0.2264 -0.2121  0.0502
 6417W        W10161   5.437   7.634   8.481  0.2031  0.0734 -0.3524
 6418W        W10162   0.024   2.044  12.700  0.1492 -0.2397 -0.2592
 6419W        W10163   4.924   5.201   1.281  0.0936  0.2057  0.3196
 6420W        W10164   5.247   0.551  11.169 -0.2310  0.0189 -0.2326
 6421W        W10165   8.030   7.163  10.551  0.4378 -0.1543  0.3394
 6422W        W10166   9.307   4.149   9.599  0.0728  0.0468  0.0098
 6423W        W10167   0.927   2.479  10.303  0.1001  0.0718  0.0546
 6424W        W10168   5.748   2.428   0.563  0.0269  0.2739  0.0134
 6425W        W10169   5.117   1.577  12.766 -0.0856  0.1315  0.1833
 6426W        W10170   0.553   5.870   9.293  0.3191  0.3242  0.2908
 6427W        W10171   3.958   0.877   5.402  0.1533  0.2388 -0.1593
 6428W        W10172   4.198   6.933  12.031  0.1745 -0.1975  0.2168
 6429W        W10173   6.687   9.793   9.011  0.6670 -0.1780  0.1606
 6430W        W10174   4.523   7.870  11.716 -0.4235 -0.0944  0.1362
 6431W        W10175   3.595   3.166  10.627 -0.0119  0.0787 -0.0378
 6432W        W10176   5.540   6.875  11.309  0.1038  0.0330  0.2458
 6433W        W10177   4.563   6.355   0.253 -0.1281 -0.0457 -0.2434
 6434W        W10178   5.264   0.455  10.235 -0.1935 -0.0233  0.0502
 6435W        W10179   4.226   5.082   2.312 -0.0885 -0.0084  0.1383
 6436W        W10180   2.944   1.145  10.920  0.2856  0.0876 -0.1677
 6437W        W10181   5.003   6.862   0.762 -0.1187 -0.0512 -0.1331
 6438W        W10182   5.642   9.401  11.758  0.2602  0.1418 -0.1171
 6439W        W10183   7.851   6.210   1.916  0.3259  0.1175  0.3137
 6440W        W10184   2.593   8.189   3.064  0.2554  0.0865 -0.1358
 6441W        W10185   3.935   7.281   9.154  0.1378 -0.3704  0.0043
 6442W        W10186   7.749   7.229   4.555 -0.4465  0.2369 -0.0249
 6443W        W10187   1.126   8.726  10.051 -0.4182  0.2483  0.1073
 6444W        W10188   7.784   5.404   1.185  0.2685 -0.1822 -0.0493
 6445W        W10189   9.685   3.836   9.504 -0.1645  0.3681  0.5079
 6446W        W10190   6.957   9.492   2.287 -0.0904  0.5769  0.2798
 6447W        W10191   7.339   5.869   3.228 -0.0268  0.2842  0.3792
 6448W        W10192   9.866   5.412  12.733  0.1802  0.2632  0.1491
 6449W        W10193   4.646   5.982  11.338 -0.0890 -0.0541  0.0936
 6450W        W10194   2.206   7.771  10.734 -0.1261 -0.1235 -0.0023
 6451W        W10195   6.404   0.422  12.748  0.1698  0.0076 -0.1124
 6452W        W10196   2.887   9.484   3.932 -0.0938 -0.4561 -0.5039
 6453W        W10197   5.910   4.509  10.568 -0.1900  0.0284 -0.1403
 6454W        W10198   3.140   7.725   9.206 -0.4067  0.0777  0.1780
 6455W        W10199   3.295   7.522   1.713  0.0392  0.1994  0.1793
 6456W        W10200   0.105   0.094   2.035 -0.0850 -0.5510  0.1456
 6457W        W10201   6.361   4.846  11.813  0.1452  0.1935  0.0865
 6458W        W10202   3.514   5.952   9.984  0.1282 -0.0532 -0.1887
 6459W        W10203   6.878   4.174   2.312 -0.0256  0.0348 -0.3450
 6460W        W10204   5.794   3.860   9.625 -0.1144  0.2944  0.1211
 6461W        W10205   8.797   2.933  11.159 -0.2133  0.0819 -0.1002
 6462W        W10206   2.995   3.950   1.734 -0.1383 -0.0242 -0.2082
 6463W        W10207   4.955   9.244   3.137  0.0153 -0.0013 -0.0561
 6464W        W10208   0.891   1.074   2.287  0.0175  0.2473 -0.2056
 6465W        W10209   0.183   4.791   8.561  0.0181 -0.2408  0.0735
 6466W        W10210   9.939   0.734   4.314  0.2528 -0.1907  0.1267
 6467W        W10211   1.829   8.401   3.638  0.1483  0.0966  0.0133
 6468W        W10212   6.698   2.914   1.673 -0.0931  0.1220  0.3992
 6469W        W10213   7.793   1.079   2.074  0.1535 -0.0783 -0.2796
 6470W        W10214   5.963   7.937   9.326  0.0058  0.1630 -0.2030
 6471W        W10215   5.329   7.572  11.933  0.0475 -0.0382 -0.2437
 6472W        W10216   9.247   2.550   3.468  0.0254  0.1068  0.3482
 6473W        W10217   7.066   8.280   1.531  0.4700 -0.2038  0.0070
 6474W        W10218   3.572   7.916   9.458 -0.0015 -0.4587 -0.1491
 6475W        W10219   4.057   7.533  10.731  0.0267  0.1256 -0.0585
 6476W        W10220   6.033   8.810   0.837 -0.0231  0.2322  0.0765
 6477W        W10221   4.279   8.177  11.373  0.1945 -0.0894 -0.0737
 6478W        W10222   9.459   7.838  10.531  0.2311 -0.0247  0.0666
 6479W        W10223   1.655   7.313  10.941  0.0557  0.1101  0.2543
 6480W        W10224   1.642   9.532  10.617  0.0244  0.0076  0.0898
 6481W        W10225   4.072   9.706  12.330 -0.0253 -0.0965  0.3942
 6482W        W10226   9.168   6.313   1.778  0.0678 -0.1816 -0.0019
 6483W        W10227   7.810   6.444  12.588 -0.1852 -0.0503  0.1731
 6484W        W10228   2.185   3.933   1.078  0.1162  0.1151  0.0018
 6485W        W10229   2.281   0.155   4.002  0.1527  0.1383 -0.0063
 6486W        W10230   5.781   7.246   2.293 -0.0969  0.2548 -0.0445
 6487W        W10231   5.015   3.351   2.243 -0.0392  0.0617  0.0749
 6488W        W10232   3.137   7.825   9.732  0.1985 -0.0099 -0.1733
 6489W        W10233   4.484   4.670  11.636 -0.0267  0.1433 -0.0183
 6490W        W10234   3.702   0.631   2.958  0.0295  0.1955  0.2798
 6491W        W10235   3.963   6.596  11.793  0.0973  0.1749  0.3962
 6492W        W10236   8.371   0.849   3.357 -0.1396 -0.0826  0.2211
 6493W        W10237   3.862   6.503   2.686 -0.0169  0.2462 -0.1235
 6494W        W10238   5.926   2.576   1.276 -0.1050  0.1894  0.0330
 6495W        W10239   1.410   0.404  12.231  0.2036  0.3257 -0.0467
 6496W        W10240   6.156   1.577   8.334  0.1839  0.1598  0.3125
 6497W        W10241   4.266   8.831   3.888  0.0291  0.0012  0.0349
 6498W        W10242   0.588   9.531  11.027  0.1670 -0.2325  0.0756
 6499W        W10243   9.814   2.866   1.087 -0.0967 -0.1925  0.2636
 6500W        W10244   4.716   2.443  10.383  0.0482 -0.0273  0.0411
 6501W        W10245   6.573   9.822   1.404 -0.0865 -0.3709 -0.1139
 6502W        W10246   1.638   0.114  11.801  0.0560  0.1139 -0.0275
 6503W        W10247   6.871   5.812   2.981 -0.0513  0.1097  0.0715
 6504W        W10248   0.193   1.833   0.391 -0.2967  0.3486  0.2372
 6505W        W10249   7.703   2.105   1.286 -0.1121 -0.1591  0.3174
 6506W        W10250   3.272   5.307   9.891 -0.1344  0.1336 -0.1484
 6507W        W10251   8.716   7.163   2.475  0.0102 -0.1667  0.0457
 6508W        W10252   0.942   4.768   8.771  0.1481  0.2601 -0.0540
 6509W        W10253   1.267   1.286   9.271  0.0004 -0.0646 -0.0437
 6510W        W10254   2.212   0.365  10.396 -0.2721 -0.2417  0.0572
 6511W        W10255   7.570   5.260  10.130  0.0811  0.2310  0.2154
 6512W        W10256   8.426   9.270   9.996  0.1476  0.0875  0.2351
 6513W        W10257   9.664   9.167   8.722  0.0607 -0.0739 -0.0100
 6514W        W10258   6.544   9.346   1.351  0.2754 -0.1864  0.1561
 6515W        W10259   7.386   5.203  12.007  0.2295 -0.0385 -0.1410
 6516W        W10260   2.208   7.224   2.373 -0.0052 -0.4510  0.0348
 6517W        W10261   4.135   6.613   3.134  0.0818 -0.1446  0.3325
 6518W        W10262   5.251   5.296   3.094  0.3281  0.3993  0.2889
 6519W        W10263   9.667   0.216   9.266  0.1728 -0.0464  0.2415
 6520W        W10264   5.345   4.592  10.261 -0.0990 -0.1926  0.0961
 6521W        W10265   8.455   6.509  12.744  0.2334  0.2229 -0.0188
 6522W        W10266   1.196   2.050   2.910  0.3006  0.0105  0.1122
 6523W        W10267   8.721   7.718   9.740 -0.1181  0.0249 -0.0444
 6524W        W10268   1.873   3.069   0.408  0.0597 -0.3070 -0.1529
 6525W        W10269   5.399   7.291   9.187 -0.0902  0.1325 -0.1284
 6526W        W10270   1.070   1.197  12.187  0.2711  0.0697 -0.0694
 6527W        W10271   0.175   2.303  10.949  0.2962 -0.1682 -0.1458
 6528W        W10272   3.192   2.071   1.793  0.4048  0.0823 -0.0260
 6529W        W10273   8.597   5.820   2.404  0.0555  0.0413  0.0390
 6530W        W10274   0.768   3.531   1.241  0.1438 -0.0784  0.2809
 6531W        W10275   9.318   3.626  10.451 -0.4015  0.0195  0.0842
 6532W        W10276   9.027   5.658  10.682  0.0246  0.0351  0.0109
 6533W        W10277   5.211   0.609  12.480 -0.1207 -0.0125 -0.0837
 6534W        W10278   3.383   5.536  12.065 -0.0352  0.1609 -0.1654
 6535W        W10279   6.833   7.848   9.349 -0.1882 -0.0543 -0.0873
 6536W        W10280   7.715   0.785  11.518 -0.0033 -0.1026  0.1839
 6537W        W10281   0.737   3.794   0.285  0.0027 -0.1085  0.2074
 6538W        W10282   8.860   5.610   8.447 -0.4518 -0.0245 -0.1215
 6539W        W10283   6.815   2.587  12.408  0.1926  0.0989 -0.1340
 6540W        W10284   6.950   2.059   3.558  0.1629 -0.3380 -0.2087
 6541W        W10285   1.085   8.419   1.232  0.0935 -0.0038 -0.2608
 6542W        W10286   2.431   7.409  12.674  0.1986  0.0636  0.0676
 6543W        W10287   3.956   8.163   3.332  0.0008  0.2040 -0.2210
 6544W        W10288   3.254   1.599  11.152 -0.2117 -0.1152 -0.0066
 6545W        W10289   2.611   0.067   2.692  0.0261 -0.1089 -0.0617
 6546W        W10290   8.245   8.043   8.270  0.2730 -0.1792 -0.1183
 6547W        W10291   9.916   6.951   9.810 -0.1132 -0.0941  0.1668
 6548W        W10292   0.081   6.432  10.788 -0.3941  0.0318 -0.0818
 6549W        W10293   4.913   6.185  12.298 -0.2120 -0.0043 -0.0074
 6550W        W10294   6.039   0.609   3.033  0.2355  0.1052 -0.4143
 6551W        W10295   4.915   9.503   4.366  0.0397  0.1984 -0.0103
 6552W        W10296   0.733   6.319   3.951 -0.1428  0.1051 -0.0424
 6553W        W10297   0.562   2.169   4.552 -0.2007 -0.2215  0.0308
 6554W        W10298   7.265   6.268  12.711  0.1580  0.0240  0.0199
 6555W        W10299   8.197   5.052   1.975 -0.2043  0.2652  0.2129
 6556W        W10300   8.777   7.665  10.213 -0.1734 -0.0141  0.0977
 6557W        W10301   0.120   9.127   9.020  0.0507  0.1743  0.0202
 6558W        W10302   7.434   0.834  10.982 -0.1880 -0.0295  0.0191
 6559W        W10303   5.979   3.379   3.931 -0.1821  0.1139  0.1424
 6560W        W10304   2.947   9.674   2.253  0.0373  0.2138  0.2385
 6561W        W10305   9.072   0.315   9.872  0.0454 -0.0107 -0.0608
 6562W        W10306   8.000   5.702  12.507 -0.4265  0.3073  0.0805
 6563W        W10307   3.084   1.711   3.077 -0.0861 -0.0629  0.0625
 6564W        W10308   0.878   9.569   9.002 -0.0124 -0.0688 -0.2972
 6565W        W10309   6.893   1.325   4.241  0.1171  0.0304  0.0745
 6566W        W10310   1.530   5.996   3.422 -0.2151  0.1002 -0.2357
 6567W        W10311   1.808   0.405  10.778 -0.0032 -0.2224 -0.0313
 6568W        W10312   3.426   0.806   0.408  0.1495 -0.1433  0.1822
 6569W        W10313   5.705   7.273   1.640 -0.1502 -0.2340 -0.2296
 6570W        W10314   8.209   8.984  12.536  0.0415  0.0770  0.0796
 6571W        W10315   0.609   0.841  10.726 -0.0611 -0.2166 -0.1319
 6572W        W10316   8.260   5.796  10.525 -0.2039  0.3541  0.3525
 6573W        W10317   2.863   6.646   2.971 -0.0760  0.1141 -0.2949
 6574W        W10318   0.975   7.830   1.910 -0.1640  0.1048  0.1727
 6575W        W10319   7.311   3.946   2.183  0.0050 -0.2270  0.0918
 6576W        W10320   3.668   7.860  12.156 -0.2011  0.3632  0.0812
 6577W        W10321   5.441   2.077   4.019 -0.1906 -0.0790 -0.0065
 6578W        W10322   7.056   5.044   3.342 -0.2886 -0.0170  0.1880
 6579W        W10323   9.873   3.236   1.570 -0.3321  0.2885  0.0226
 6580W        W10324   0.057   7.664  12.433 -0.4539 -0.1136  0.0331
 6581W        W10325   2.717   9.536   4.743 -0.2674 -0.4315 -0.0512
 6582W        W10326   4.478   1.703  10.559 -0.1395 -0.0264 -0.5849
 6583W        W10327   4.488   0.489  10.478  0.0367 -0.0852  0.0188
 6584W        W10328   8.328   6.640  11.298  0.3289  0.2899  0.2273
 6585W        W10329   3.685   3.703  11.811  0.0591  0.0182 -0.0762
 6586W        W10330   3.190   8.725   4.536  0.1844  0.0907  0.1764
 6587W        W10331   0.968   3.616   3.284 -0.2168  0.1170 -0.3135
 6588W        W10332   5.633   3.665   0.446  0.0919  0.0050 -0.1731
 6589W        W10333   4.763   2.660   0.908 -0.1667  0.2379 -0.0105
 6590W        W10334   7.063   9.895   9.276  0.0372 -0.0930 -0.0149
 6591W        W10335   4.142   3.375   0.676  0.0240 -0.0237 -0.2595
 6592W        W10336   0.389   4.307   9.857  0.0885  0.0230 -0.0800
 6593W        W10337   1.789   9.111  12.410  0.1732 -0.1565 -0.0794
 6594W        W10338   3.920   9.938  10.995  0.1715  0.1615  0.1733
 6595W        W10339   7.641   4.942   9.270 -0.1183  0.3549  0.0708
 6596W        W10340   2.239   2.454   2.599  0.1403  0.0392  0.0088
 6597W        W10341   6.510   5.860   0.326 -0.1833  0.2255 -0.0049
 6598W        W10342   2.328   0.663   3.933 -0.1942  0.0366  0.3127
 6599W        W10343   6.706   6.903   1.320  0.0388 -0.0893  0.4411
 6600W        W10344   6.664   7.659   0.419 -0.2445  0.1050 -0.2225
 6601W        W10345   6.527   0.531   2.225 -0.1903  0.3132  0.0654
 6602W        W10346   0.299   1.844   9.501 -0.0773 -0.0727 -0.1128
 6603W        W10347   9.746   1.810  10.168  0.0537 -0.0333  0.0105
 6604W        W10348   4.911   7.149  10.513  0.0285  0.1434 -0.1026
 6605W        W10349   1.243   8.055   2.925  0.2065  0.3015 -0.2427
 6606W        W10350   5.083   6.690   1.251  0.1787 -0.1798  0.2325
 6607W        W10351   1.319   7.152   1.102 -0.0943  0.1071 -0.0252
 6608W        W10352   4.830   8.224   9.974  0.3713 -0.2501  0.0662
 6609W        W10353   1.494   1.413   9.828 -0.2699  0.0299  0.0451
 6610W        W10354   7.073   9.849   1.439  0.0229  0.1212 -0.0363
 6611W        W10355   4.591   5.671   1.491 -0.0148 -0.0565  0.3626
 6612W        W10356   7.101   6.325   9.842  0.1342  0.1549 -0.2782
 6613W        W10357   2.495   3.673   9.933 -0.2525  0.1979  0.1699
 6614W        W10358   4.374   5.361   0.145 -0.0094 -0.0844  0.1546
 6615W        W10359   4.115   0.828   4.481  0.3325  0.0404  0.1050
 6616W        W10360   8.417   2.125  12.650 -0.2698  0.1472  0.2793
 6617W        W10361   7.426   2.930   4.330 -0.0860  0.0113  0.3557
 6618W        W10362   2.200   8.966   4.278  0.2214  0.5512 -0.1045
 6619W        W10363   5.766   2.129  11.762  0.0491 -0.0446  0.3947
 6620W        W10364   6.272   9.269   0.864  0.0778  0.0562 -0.0996
 6621W        W10365   1.014   8.840   0.994  0.2821 -0.5739 -0.4331
 6622W        W10366   9.114   6.780   3.155  0.1275  0.0076 -0.1371
 6623W        W10367   4.397   1.698   2.924  0.1916 -0.4620 -0.1251
 6624W        W10368   6.686   2.910  10.322 -0.0602  0.0870 -0.0161
 6625W        W10369   9.167   3.397   1.044  0.0485 -0.1972 -0.2786
 6626W        W10370   9.662   7.249   2.108  0.3073  0.0522 -0.2390
 6627W        W10371   9.511   5.301   3.703  0.0796 -0.1958  0.0754
 6628W        W10372   2.119   6.861   9.333 -0.1912  0.4535  0.0142
 6629W        W10373   7.503   7.452   9.893  0.1894 -0.0293 -0.2125
 6630W        W10374   8.189   8.869   1.277  0.1148 -0.3048 -0.3078
 6631W        W10375   5.345   1.836  11.896  0.2926 -0.4671  0.1234
 6632W        W10376   2.743   7.636   1.492  0.1843 -0.0912  0.0838
 6633W        W10377   2.224   6.062  10.205  0.1862  0.0533  0.0953
 6634W        W10378   4.724   1.469   0.243 -0.1300  0.0501  0.1126
 6635W        W10379   5.297   0.070   2.004  0.0442 -0.4294  0.1871
 6636W        W10380   6.910   3.302   3.188  0.5477 -0.0322 -0.1364
 6637W        W10381   6.069   7.133   4.094 -0.2295  0.1620  0.2561
 6638W        W10382   8.089   8.659   0.431 -0.0066  0.0490 -0.4029
 6639W        W10383   1.346   2.856  10.806 -0.3814 -0.0886  0.1173
 6640W        W10384   5.717   7.427   2.785 -0.0142  0.4137 -0.1030
 6641W        W10385   3.512   4.019   1.971  0.0455  0.0293  0.1600
 6642W        W10386   3.138   0.752   2.742 -0.0874  0.1495 -0.1499
 6643W        W10387   9.197   7.149   0.429  0.4561 -0.0791 -0.0124
 6644W        W10388   5.163   9.037  12.102 -0.0486  0.1335 -0.1429
 6645W        W10389   7.916   1.776   3.653  0.1813  0.2288 -0.3247
 6646W        W10390   7.458   0.755   1.818 -0.3925 -0.0090  0.2921
 6647W        W10391   0.306   0.177  11.988 -0.1553  0.3975  0.1683
 6648W        W10392   1.675   4.280   9.984 -0.1445  0.1203  0.1562
 6649W        W10393   6.648   2.441   3.498  0.2692  0.2501  0.0851
 6650W        W10394   2.946   4.839  11.214 -0.0672 -0.0187  0.1042
 6651W        W10395   8.200   8.519   9.707  0.2605 -0.3477 -0.2996
 6652W        W10396   4.312   8.692  10.477 -0.2946  0.3724 -0.0014
 6653W        W10397   6.324   7.776  10.485  0.1888  0.0133  0.1657
 6654W        W10398   2.174   4.368   3.169 -0.3882 -0.0716  0.2138
 6655W        W10399   6.610   9.095  12.028 -0.0264  0.0175 -0.2099
 6656W        W10400   9.103   5.158  10.702  0.1136  0.1189 -0.0186
 6657W        W10401   0.369   9.105  10.903 -0.0716  0.0776  0.0946
 6658W        W10402   7.052   3.498  10.286  0.0412 -0.3023  0.2035
 6659W        W10403   3.696   5.939   1.073  0.1409 -0.1162  0.1162
 6660W        W10404   5.164   9.656   1.228 -0.2692 -0.0193 -0.0175
 6661W        W10405   6.188   6.308   3.368  0.2504  0.0976 -0.1847
 6662W        W10406   8.872   8.417  10.204 -0.4052  0.1001 -0.1338
 6663W        W10407   7.998   8.079   3.235 -0.2204  0.1393  0.1104
 6664W        W10408   1.673   9.323   2.078  0.0030 -0.3046 -0.0195
 6665W        W10409   7.846   5.383   0.123 -0.1428 -0.0605  0.1681
 6666W        W10410   6.220   6.360   8.843  0.0603  0.1991 -0.2929
 6667W        W10411   5.182   1.398   9.965 -0.1632  0.0173  0.2021
 6668W        W10412   2.622   3.099  12.603 -0.3439 -0.1786  0.2054
 6669W        W10413   1.224   4.281  12.642 -0.1051  0.5559  0.0484
 6670W        W10414   2.337   3.889   2.975 -0.0901 -0.0000  0.2809
 6671W        W10415   4.876   5.912   3.211 -0.0006  0.1012  0.0194
 6672W        W10416   8.865   3.644   8.980  0.2314 -0.0649 -0.2859
 6673W        W10417   2.672   5.368   1.321 -0.1835 -0.0053  0.3299
 6674W        W10418   4.724   5.612   9.461  0.0312 -0.0327  0.1341
 6675W        W10419   3.834   7.085   9.717  0.0826 -0.0706  0.2595
 6676W        W10420   2.663   2.788  10.290  0.2675 -0.0948  0.0232
 6677W        W10421   7.013   7.256   3.028  0.1847  0.1567  0.1118
 6678W        W10422   2.743   2.055  11.861  0.1639  0.1627 -0.0935
 6679W        W10423   8.631   2.513   2.759  0.0207  0.0227 -0.0500
 6680W        W10424   4.723   1.383   1.229 -0.1794  0.0099 -0.0463
 6681W        W10425   0.992   9.875   2.491 -0.1022  0.1188  0.0057
 6682W        W10426   2.095   4.902   2.261 -0.1711  0.1404  0.1537
 6683W        W10427   4.681   9.213   9.803 -0.2043  0.0973  0.1428
 6684W        W10428   8.201   6.881   9.424 -0.1862 -0.1320 -0.2093
 6685W        W10429   8.987   1.067  12.181  0.0761  0.1768 -0.2277
 6686W        W10430   2.810   1.051  12.417 -0.3335 -0.0807 -0.1860
 6687W        W10431   0.566   2.972  12.347 -0.0362  0.3239  0.0912
 6688W        W10432   2.696   7.345   0.510 -0.0840  0.0106  0.2101
 6689W        W10433   6.522   3.025   8.968  0.0655 -0.2820 -0.1232
 6690W        W10434   8.782   3.687  12.012 -0.1418 -0.0915 -0.2545
 6691W        W10435   1.618   1.967   9.707 -0.0450 -0.0581  0.3003
 6692W        W10436   5.919   3.628   0.906 -0.1367 -0.0400 -0.2943
 6693W        W10437   5.103   0.154   1.516  0.2407 -0.0191 -0.0176
 6694W        W10438   5.078   9.736   5.247  0.0290 -0.2122 -0.2383
 6695W        W10439   7.336   5.653   1.337 -0.2415  0.0369  0.1134
 6696W        W10440   6.639   1.374   9.010 -0.0185 -0.0706 -0.4331
 6697W        W10441   4.244   6.721  10.855 -0.0917 -0.1497  0.0901
 6698W        W10442   9.403   8.120   1.992 -0.4493  0.2922  0.0751
 6699W        W10443   5.929   1.360   0.936  0.0818  0.0200  0.3046
 6700W        W10444   0.428   5.449   4.304 -0.1794  0.2145 -0.2723
 6701W        W10445   7.987   2.173  11.662  0.2334  0.2279  0.0901
 6702W        W10446   5.233   6.862   8.849 -0.2133  0.1339  0.1392
 6703W        W10447   5.341   5.102  11.786  0.1752 -0.0145  0.0812
 6704W        W10448   9.583   8.215  11.830  0.1250  0.0201  0.0126
 6705W        W10449   0.470   8.636   2.606 -0.2587 -0.0614  0.2038
 6706W        W10450   3.652   6.975  11.673  0.0549  0.0579  0.1950
 6707W        W10451   3.136   4.984   1.348 -0.0324 -0.1834  0.1372
 6708W        W10452   2.476   5.366   2.683 -0.1972 -0.1794 -0.1504
 6709W        W10453   0.693   0.618   1.193 -0.3933 -0.0558  0.1505
 6710W        W10454   2.689   5.287  12.076  0.1183 -0.4439  0.2052
 6711W        W10455   9.386   7.576   4.372  0.1271  0.0191  0.1307
 6712W        W10456   5.565   8.774   4.345 -0.0820 -0.3258 -0.1399
 6713W        W10457   5.155   0.697   8.890  0.2542 -0.1286  0.0540
 6714W        W10458   4.141   2.753   9.659 -0.4208  0.2477  0.0556
 6715W        W10459   9.625   1.945   0.266 -0.0069  0.1125 -0.1372
 6716W        W10460   2.044   1.354   5.075  0.1288  0.0298 -0.0119
 6717W        W10461   1.928   4.878   1.083  0.3364 -0.0178 -0.0861
 6718W        W10462   0.467   9.887   2.548 -0.1125  0.1920  0.2250
 6719W        W10463   1.386   8.448   9.545 -0.0506  0.0253 -0.2127
 6720W        W10464   1.062   4.782  12.632  0.1632 -0.0705 -0.1366
 6721W        W10465   9.099   2.709  12.829 -0.0627  0.0222 -0.1561
 6722W        W10466   0.400   5.608  12.450 -0.0847 -0.1661 -0.2506
 6723W        W10467   5.570   6.122  11.634 -0.0084 -0.4182  0.2785
 6724W        W10468   0.426   9.602   4.082  0.2629  0.1104  0.2069
 6725W        W10469   4.054   0.014   3.434 -0.3240 -0.0304  0.0934
 6726W        W10470   3.779   7.797   1.281 -0.2595 -0.0281 -0.0662
 6727W        W10471   0.866   1.477   3.533 -0.0213  0.3556  0.2241
 6728W        W10472   1.282   8.660   2.964 -0.1786  0.1320 -0.0058
 6729W        W10473   2.637   6.814  11.782  0.0568 -0.4444 -0.2323
 6730W        W10474   7.625   3.816   0.289  0.5096  0.1124  0.3738
 6731W        W10475   0.480   1.425   9.669  0.1952  0.0190 -0.1075
 6732W        W10476   0.286   9.223   9.959  0.1953  0.2918  0.1195
 6733W        W10477   1.261   1.759   9.416  0.0918  0.2009  0.0885
 6734W        W10478   0.503   1.951  12.416 -0.1841 -0.0069  0.1557
 6735W        W10479   6.987   3.598  12.720  0.0925  0.0984  0.1460
 6736W        W10480   0.865   7.036  10.615 -0.2919 -0.0367  0.0074
 6737W        W10481   1.048   0.024   8.755  0.3588 -0.0925 -0.0330
 6738W        W10482   0.798   1.943   3.308 -0.0346  0.2925  0.0861
 6739W        W10483   1.824   3.552   0.043  0.1457 -0.0350  0.1277
 6740W        W10484   4.068   0.774  10.714  0.0717  0.2551 -0.1404
 6741W        W10485   8.591   5.061  12.644  0.1385 -0.0111  0.2241
 6742W        W10486   4.107   4.943   9.456  0.0916  0.0566 -0.2149
 6743W        W10487   8.256   0.394   8.291  0.1845  0.3685  0.1291
 6744W        W10488   1.394   1.287   2.072 -0.0987  0.1749 -0.1825
 6745W        W10489   7.693   9.017  12.268  0.1599 -0.2425  0.1450
 6746W        W10490   6.686   5.086   8.762 -0.1142  0.0852 -0.1183
 6747W        W10491   7.529   3.911   2.969 -0.1329  0.4216  0.3246
 6748W        W10492   1.765   1.108   9.107  0.4012  0.1225 -0.1789
 6749W        W10493   8.761   7.207   3.824 -0.0810 -0.0704  0.2358
 6750W        W10494   7.205   4.146  11.891  0.4232  0.2395 -0.0537
 6751W        W10495   0.632   2.235   1.002 -0.0735  0.0981  0.2411
 6752W        W10496   1.931   4.430  10.892  0.3770 -0.1137 -0.1701
 6753W        W10497   6.660   5.981   9.832  0.1828  0.1250  0.0354
 6754W        W10498   5.286   0.350   9.602 -0.1818 -0.3833 -0.3154
 6755W        W10499   4.284   3.075   3.437  0.1534 -0.0466 -0.1360
 6756W        W10500   9.106   6.251  11.620  0.1406  0.2392 -0.0575
 6757W        W10501   6.422   5.244   9.242  0.1639  0.0403 -0.0087
 6758W        W10502   6.002   5.944   3.911  0.0605 -0.1829  0.1747
 6759W        W10503   6.106   8.047   1.458 -0.3852 -0.1290  0.0065
 6760W        W10504   4.622   7.352  10.172  0.2783  0.0465 -0.3238
 6761W        W10505   4.432   6.518  11.992 -0.2179 -0.1235 -0.3121
 6762W        W10506   9.174   0.883   1.674 -0.1401 -0.1166 -0.1524
 6763W        W10507   2.192   6.131   0.836  0.2296 -0.0753  0.0562
 6764W        W10508   7.233   3.866   3.915 -0.2546 -0.3523 -0.2676
 6765W        W10509   4.107   3.178   0.149 -0.0275 -0.2605  0.0961
 6766W        W10510   6.830   0.700  11.909 -0.0388  0.2746 -0.1449
 6767W        W10511   3.135   0.178   3.466 -0.1292  0.2060 -0.0674
 6768W        W10512   1.390   0.967  10.406  0.2465  0.0155 -0.1056
 6769W        W10513   0.808   0.754   0.258  0.2928  0.1801 -0.0067
 6770W        W10514   8.307   9.535   4.262 -0.0578 -0.0660  0.0633
 6771W        W10515   1.884   7.710   9.411 -0.1710 -0.0627  0.1466
 6772W        W10516   4.817   0.605  12.124 -0.1513  0.0789 -0.1500
 6773W        W10517   0.508   5.075  11.389  0.2472 -0.1567  0.0494
 6774W        W10518   5.804   4.487   9.527  0.0029 -0.1464  0.1263
 6775W        W10519   7.167   2.774   2.941  0.1098  0.0546 -0.4122
 6776W        W10520   5.230   6.850  11.795 -0.0580 -0.0267  0.2855
 6777W        W10521   0.448   6.554   3.539  0.4617 -0.4123 -0.3966
 6778W        W10522   0.292   5.930   2.887  0.0652 -0.0126 -0.1011
 6779W        W10523   8.904   7.522  11.241 -0.4070 -0.4337  0.1095
 6780W        W10524   8.047   0.569   3.579 -0.0080 -0.1589  0.0084
 6781W        W10525   2.116   3.189  11.130  0.1818  0.0068  0.0392
 6782W        W10526   1.965   7.544   8.581  0.2768  0.1051  0.1831
 6783W        W10527   9.462   9.530  12.428  0.1187  0.4149 -0.2431
 6784W        W10528   5.080   8.560  11.079 -0.1200  0.1307  0.1088
 6785W        W10529   5.126   9.675  10.535 -0.1807  0.0431 -0.3082
 6786W        W10530   9.234   7.857  11.001  0.1288  0.1368  0.1206
 6787W        W10531   3.834   4.313  12.353 -0.2442  0.0780 -0.5645
 6788W        W10532   0.688   6.787  11.512  0.0602  0.1583  0.2046
 6789W        W10533   3.327   4.878   3.569  0.1822  0.2866 -0.0055
 6790W        W10534   4.796   7.930  10.705  0.1013 -0.2163 -0.0493
 6791W        W10535   8.879   4.968   8.557 -0.0494 -0.2249 -0.0502
 6792W        W10536   1.189   9.568   4.846 -0.5054  0.1509  0.0534
 6793W        W10537   1.033   0.010  11.245 -0.1305 -0.3297 -0.0561
 6794W        W10538   2.666   5.600   2.136 -0.0198 -0.0866  0.1552
 6795W        W10539   9.333   2.536   0.403  0.1250 -0.2744  0.0745
 6796W        W10540   8.667   2.399  11.404 -0.2074 -0.0483 -0.0374
 6797W        W10541   4.688   2.676  11.261 -0.0963 -0.0426 -0.1264
 6798W        W10542   5.685   0.212   1.723  0.0881  0.0722  0.3540
 6799W        W10543   6.675   4.166   1.301 -0.0680 -0.3779  0.2360
 6800W        W10544   9.190   7.803   0.962  0.1417 -0.0035  0.0613
 6801W        W10545   4.572   1.910   9.919  0.0322  0.1743 -0.2492
 6802W        W10546   2.019   6.710   0.658 -0.1729 -0.3126 -0.0540
 6803W        W10547   3.186   0.842  10.164  0.1908  0.0736 -0.1731
 6804W        W10548   3.356   1.522   1.670  0.1902 -0.0190 -0.4562
 6805W        W10549   6.064   8.704   9.607 -0.0246  0.0507  0.2220
 6806W        W10550   7.290   7.336  11.631  0.1618 -0.0564 -0.1053
 6807W        W10551   7.251   0.299   3.163  0.0632  0.1314 -0.0631
 6808W        W10552   9.911   5.799   4.090  0.0781 -0.0599  0.1631
 6809W        W10553   1.179   8.956   2.579  0.3143 -0.5103  0.0466
 6810W        W10554   8.340   7.738   3.451  0.0558  0.2199 -0.0113
 6811W        W10555   0.686   1.930   9.188 -0.3515  0.0114 -0.3033
 6812W        W10556   9.837   6.516   4.816  0.3202  0.0006  0.1838
 6813W        W10557   8.101   2.114   3.331  0.1272 -0.2911 -0.0413
 6814W        W10558   9.892   5.748   1.859 -0.2084 -0.1619  0.0885
 6815W        W10559   8.430   0.502   0.386 -0.0622  0.1345 -0.2300
 6816W        W10560   3.314   4.064  11.591 -0.2386 -0.2151  0.2381
 6817W        W10561   6.014   7.387   5.014 -0.0342 -0.0633 -0.1001
 6818W        W10562   9.590   7.824   9.967  0.1499  0.4013 -0.0660
 6819W        W10563   2.188   5.401   2.227  0.2534  0.2495 -0.4635
 6820W        W10564   3.187   4.273  10.531  0.2458 -0.3652 -0.1220
 6821W        W10565   9.081   6.104   1.197  0.4025 -0.0262 -0.0767
 6822W        W10566   4.199   3.452   1.350  0.0179 -0.0027 -0.1078
 6823W        W10567   0.033   4.827  12.257  0.2807  0.0318  0.0200
 6824W        W10568   7.334   2.868   9.045 -0.1830  0.0838 -0.0211
 6825W        W10569   0.513   7.980   1.193 -0.0564 -0.2052  0.2847
 6826W        W10570   3.893   0.358   3.885 -0.0285 -0.2570  0.0668
 6827W        W10571   2.779   6.648   4.044 -0.2671  0.1663 -0.2982
 6828W        W10572   9.388   3.886   0.212 -0.0908  0.3818 -0.1031
 6829W        W10573   4.552   3.890  11.902  0.3013 -0.1233  0.1043
 6830W        W10574   5.076   1.043   1.543 -0.2407 -0.1230  0.1374
 6831W        W10575   2.556   7.804   2.703 -0.0752 -0.0908  0.2659
 6832W        W10576   8.904   2.597  10.191 -0.1165  0.1625  0.1809
 6833W        W10577   1.398   5.555   0.035 -0.1590  0.0079  0.1729
 6834W        W10578   3.922   6.501   3.661 -0.3000 -0.2811  0.0269
 6835W        W10579   1.611   0.148   9.350 -0.0314  0.1656  0.0173
 6836W        W10580   3.724   4.176   0.986 -0.3617  0.5345 -0.0887
 6837W        W10581   8.531   1.389   9.130  0.2360 -0.1324  0.3599
 6838W        W10582   9.408   3.005   9.339 -0.3501 -0.0813 -0.2219
 6839W        W10583   5.683   0.729   2.644  0.2345  0.0534  0.0782
 6840W        W10584   9.890   4.101   9.884  0.0165  0.0652 -0.1442
 6841W        W10585   3.410   2.597   2.659  0.0947 -0.0364 -0.1542
 6842W        W10586   2.806   9.506  11.283 -0.0659 -0.1245 -0.1365
 6843W        W10587   2.891   1.104  11.543  0.2515  0.0248 -0.4487
 6844W        W10588   1.321   4.334   0.789 -0.1360 -0.1676 -0.4714
 6845W        W10589   7.144   9.848   8.785 -0.0609  0.0069 -0.0616
 6846W        W10590   0.245   2.329   9.090  0.3851 -0.0708 -0.0064
 6847W        W10591   8.563   6.015   9.582  0.2295  0.0970 -0.4479
 6848W        W10592   1.345   9.187  12.816 -0.0486 -0.0779  0.0730
 6849W        W10593   8.269   6.133   0.676 -0.3549 -0.1832 -0.1102
 6850W        W10594   1.123   6.115  10.960  0.0910  0.1743  0.1274
 6851W        W10595   8.055   3.144   3.167 -0.0327  0.1081 -0.3023
 6852W        W10596   0.174   8.395   3.024  0.0026 -0.0397 -0.0770
 6853W        W10597   2.229   8.540   0.412 -0.0051 -0.0969 -0.4266
 6854W        W10598   4.758   8.372   4.279  0.2293  0.0106 -0.1746
 6855W        W10599   7.300   8.478   2.748 -0.3902 -0.1542  0.1424
 6856W        W10600   1.145   2.495  11.297  0.0139  0.0861  0.0761
 6857W        W10601   2.296   3.508   2.499  0.2166 -0.0829 -0.1694
 6858W        W10602   0.761   3.474  11.568 -0.1334 -0.0020 -0.2104
 6859W        W10603   5.143   9.864   4.072 -0.0350  0.0868 -0.0071
 6860W        W10604   4.218   0.345  10.851 -0.0742  0.1491  0.1203
 6861W        W10605   4.716   1.452  12.564 -0.1171  0.2718 -0.1630
 6862W        W10606   7.076   8.334  10.603  0.0064  0.0379 -0.1002
 6863W        W10607   7.013   9.252  10.022 -0.2577  0.0146 -0.0043
 6864W        W10608   5.703   7.423   3.350  0.0136 -0.1428  0.0836
 6865W        W10609   9.033   4.733   2.417  0.3976  0.0283 -0.0569
 6866W        W10610   2.088   2.082   1.639 -0.2293 -0.2526 -0.1982
 6867W        W10611   2.353   6.460   3.833  0.1193  0.0619 -0.2903
 6868W        W10612   9.468   5.992   4.249  0.1557  0.1050 -0.0445
 6869W        W10613   8.639   3.700   2.097  0.1462  0.2184 -0.1057
 6870W        W10614   3.694   8.187   3.764  0.0427  0.2511  0.2718
 6871W        W10615   4.649   3.586   2.050  0.1809 -0.1362  0.1103
 6872W        W10616   2.842   3.134  11.615 -0.0771  0.0294 -0.0451
 6873W        W10617   5.341   3.250  12.617 -0.0733  0.0499  0.0688
 6874W        W10618   9.056   9.193  10.597 -0.3640 -0.1904  0.0224
 6875W        W10619   0.728   2.691  11.721 -0.1710  0.2658 -0.0922
 6876W        W10620   7.586   2.790  10.741 -0.0970 -0.1313  0.1805
 6877W        W10621   5.287   6.524   4.020 -0.0791 -0.0876  0.1173
 6878W        W10622   0.268   0.690   0.386  0.1434  0.0845 -0.0367
 6879W        W10623   3.779   3.617   1.066 -0.4446  0.2334  0.0984
 6880W        W10624   9.496   2.265   2.483 -0.0710  0.2531  0.2633
 6881W        W10625   7.624   3.954   9.321 -0.0362  0.2049  0.0410
 6882W        W10626   3.096   9.250   4.711 -0.0580 -0.2787 -0.1515
 6883W        W10627   0.125   4.245  10.384  0.0003 -0.2750 -0.2798
 6884W        W10628   7.069   1.093   1.846  0.4527 -0.0917  0.2159
 6885W        W10629   7.913   3.603   3.108  0.2253  0.2430 -0.0422
 6886W        W10630   5.807   5.091   9.643 -0.0374  0.2468 -0.2389
 6887W        W10631   9.034   7.548  11.905 -0.3606 -0.1145 -0.1528
 6888W        W10632   0.347   9.359   2.612 -0.0329 -0.1439  0.2998
 6889W        W10633   0.500   6.434   3.067  0.0892  0.2323 -0.1364
 6890W        W10634   7.741   9.342   1.778 -0.0530  0.0197 -0.1115
 6891W        W10635   8.547   5.632  10.920  0.2524  0.0913  0.2497
 6892W        W10636   6.530   9.360   9.967  0.1271 -0.1441  0.0545
 6893W        W10637   8.940   6.192   8.430  0.0989  0.1019  0.1503
 6894W        W10638   0.407   4.189  12.349  0.0113 -0.0527  0.0349
 6895W        W10639   6.739   7.496  12.213  0.0184 -0.1666  0.0864
 6896W        W10640   7.085   0.298  11.577 -0.1048  0.1085  0.0198
 6897W        W10641   7.586   7.518   2.770  0.3020 -0.2136  0.0941
 6898W        W10642   9.520   0.571  10.118  0.2246 -0.0264 -0.0648
 6899W        W10643   8.404   6.067  12.453 -0.0028 -0.1165 -0.0782
 6900W        W10644   5.660   9.803   0.726  0.2751 -0.0941  0.0714
 6901W        W10645   0.539   5.691   3.447  0.3457  0.0219  0.1032
 6902W        W10646   2.974   7.635  12.423  0.3869  0.1768 -0.3294
 6903W        W10647   9.583   9.008  12.285  0.1681 -0.0801 -0.1582
 6904W        W10648   1.311   8.480   0.754 -0.2039  0.2771  0.3202
 6905W        W10649   2.649   5.268   0.485 -0.1181 -0.3054  0.2337
 6906W        W10650   0.857   5.054   2.038 -0.1513  0.1579 -0.2454
 6907W        W10651   4.917   0.990   9.839 -0.3419  0.3115  0.1629
 6908W        W10652   0.040   6.490   8.039 -0.0604 -0.3229 -0.0119
 6909W        W10653   9.041   7.977   9.945 -0.1204 -0.1329  0.1847
 6910W        W10654   6.528   0.336   4.255  0.1106 -0.2016 -0.0412
 6911W        W10655   7.023   9.561  12.815  0.1496  0.1593 -0.0279
 6912W        W10656   0.700   5.396   1.727 -0.1034  0.1278  0.2047
 6913W        W10657   1.615   0.757   4.535 -0.2834  0.0645 -0.3339
 6914W        W10658   3.317   9.591  11.557  0.2890 -0.0611  0.0174
 6915W        W10659   3.592   3.947  12.819  0.1970  0.0757  0.2832
 6916W        W10660   8.269   9.279   1.583  0.1581  0.0384  0.1671
 6917W        W10661   0.959   0.175  10.260  0.0530 -0.0283 -0.0310
 6918W        W10662   0.077   9.777   9.965  0.1401  0.0062  0.1387
 6919W        W10663   2.788   7.292  10.578  0.0490  0.0835  0.0909
 6920W        W10664   6.443   2.228   1.977 -0.1341 -0.1965 -0.0351
 6921W        W10665   2.559   4.644   0.332  0.1053 -0.2858 -0.1430
 6922W        W10666   4.978   6.535   9.092 -0.1893 -0.2005 -0.1680
 6923W        W10667   9.023   3.884   1.283  0.0991 -0.4943  0.1053
 6924W        W10668   7.428   6.824   9.956 -0.3085  0.1581  0.2063
 6925W        W10669   1.359   2.834  11.723 -0.1536 -0.1842  0.0580
 6926W        W10670   0.519   7.383   0.496  0.1907 -0.2994  0.3241
 6927W        W10671   8.708   6.463   3.723 -0.3083  0.4679  0.1564
 6928W        W10672   8.841   8.090  12.025 -0.0445  0.1565  0.4626
 6929W        W10673   8.040   3.039   1.515 -0.0273 -0.3812 -0.0492
 6930W        W10674   7.147   9.686   0.922  0.1225  0.0530 -0.2642
 6931W        W10675   1.830   3.101   3.195  0.3359 -0.1644 -0.0731
 6932W        W10676   0.756   4.313  12.676 -0.0087  0.0214 -0.3287
 6933W        W10677   0.074   9.874   2.948 -0.0210 -0.0223 -0.1042
 6934W        W10678   9.220   8.497   0.317 -0.2076 -0.1397 -0.2616
 6935W        W10679   0.634   8.826   0.651 -0.1111  0.2293 -0.1384
 6936W        W10680   7.673   6.074   2.698 -0.0783  0.0977 -0.0855
 6937W        W10681   5.891   7.437  12.642  0.3253 -0.0386 -0.1704
 6938W        W10682   1.317   9.376   9.892  0.0737  0.2049 -0.3109
 6939W        W10683   3.584   2.007  11.052  0.1585 -0.4812 -0.2070
 6940W        W10684   2.311   1.827   3.336 -0.3049 -0.2045 -0.0891
 6941W        W10685   8.548   6.044   0.164  0.0746 -0.0627  0.3378
 6942W        W10686   3.564   9.946   4.219  0.1469 -0.4203  0.0243
 6943W        W10687   6.888   7.689   1.698 -0.4540 -0.0348 -0.2252
 6944W        W10688   3.148   9.633  10.655 -0.1189  0.2586 -0.2231
 6945W        W10689   9.694   6.335   8.537  0.0006  0.0508 -0.2595
 6946W        W10690   3.565   8.078  10.713  0.0158  0.2237  0.1584
 6947W        W10691   9.491   5.027   2.523 -0.0640  0.0554  0.0419
 6948W        W10692   9.661   0.864   1.461  0.5862 -0.0708  0.1796
 6949W        W10693   8.475   1.273  10.452 -0.1639  0.2980 -0.0543
 6950W        W10694   2.739   5.202  10.231 -0.0179 -0.4135  0.1260
 6951W        W10695   9.622   5.960   0.939 -0.0199 -0.1752 -0.1581
 6952W        W10696   6.062   6.146   0.256 -0.1470  0.3417 -0.0456
 6953W        W10697   6.330   3.693   3.999 -0.0130  0.1833 -0.0206
 6954W        W10698   1.533   8.251   0.086  0.0347  0.1529 -0.3481
 6955W        W10699   6.179   7.518   2.507  0.1151 -0.4384 -0.0836
 6956W        W10700   8.917   7.508   4.675  0.1682 -0.1764 -0.0842
 6957W        W10701   0.928   3.841   2.749 -0.0918 -0.2659 -0.0071
 6958W        W10702   7.385   9.187   2.146  0.0594 -0.0408  0.0611
 6959W        W10703   3.053   7.045   4.393 -0.1604 -0.0456 -0.0027
 6960W        W10704   3.078   0.743  10.651  0.1761 -0.2827  0.0110
 6961W        W10705   4.270   9.319   3.823 -0.2726  0.3337 -0.0838
 6962W        W10706   2.974   7.243   9.209 -0.0274 -0.1705 -0.0242
 6963W        W10707   5.155   2.346   1.174 -0.2372 -0.0842 -0.0006
 6964W        W10708   1.261   5.883   1.156 -0.0842 -0.0891 -0.1548
 6965W        W10709   4.739   9.752   2.778  0.2029 -0.1586 -0.0147
 6966W        W10710   8.193   0.936   4.015 -0.1386  0.3656  0.0731
 6967W        W10711   3.824   4.841   0.190 -0.3144 -0.1288 -0.0212
 6968W        W10712   5.937   3.094   2.738  0.1089  0.0671  0.0409
 6969W        W10713   8.778   3.321   0.105 -0.1213  0.0246  0.1316
 6970W        W10714   9.531   6.831   0.196  0.0146 -0.2164 -0.1446
 6971W        W10715   2.031   7.955  12.662 -0.1322  0.0661 -0.0097
 6972W        W10716   8.418   5.794  10.058  0.4050  0.0448 -0.2064
 6973W        W10717   9.213   7.339   8.590  0.1647 -0.0300  0.0290
 6974W        W10718   4.358   3.872   2.874 -0.2232 -0.1167  0.1510
 6975W        W10719   0.953   6.311   1.276 -0.2647  0.1403  0.0224
 6976W        W10720   6.602   7.779  10.911  0.0222 -0.2861  0.2009
 6977W        W10721   9.553   3.024   0.215  0.0532 -0.0050  0.1895
 6978W        W10722   9.074   5.407   8.906 -0.2258  0.0702 -0.0392
 6979W        W10723   5.889   0.218  11.528 -0.2051 -0.1932  0.0881
 6980W        W10724   5.441   4.975   9.282  0.0984  0.0508 -0.2586
 6981W        W10725   2.316   9.565   9.433 -0.1295  0.1770  0.0014
 6982W        W10726   2.604   4.065   2.012  0.1595  0.0892 -0.2360
 6983W        W10727   2.767   4.235   2.985 -0.0267 -0.0677 -0.1318
 6984W        W10728   0.385   9.431  12.013 -0.3623  0.0602 -0.1299
 6985W        W10729   2.158   5.637   0.499  0.1758 -0.2137  0.1819
 6986W        W10730   4.457   8.213   9.679  0.2008 -0.1961 -0.0386
 6987W        W10731   2.133   8.178   2.121  0.1952  0.0592  0.3025
 6988W        W10732   9.460   4.397   2.389  0.0163 -0.1740  0.2292
 6989W        W10733   5.514   3.168  11.148  0.1085  0.0852 -0.3216
 6990W        W10734   0.368   0.260   1.156  0.4519  0.1889  0.3390
 6991W        W10735   6.328   0.667  12.284 -0.1804 -0.0502 -0.3153
 6992W        W10736   0.802   5.573  10.095  0.1361  0.0621 -0.1321
 6993W        W10737   6.812   3.203   1.207 -0.1212 -0.0107  0.0225
 6994W        W10738   0.655   2.483  12.224  0.1928  0.1126  0.0996
 6995W        W10739   6.374   7.015  10.771 -0.0502 -0.0312  0.2756
 6996W        W10740   0.065   2.945   2.402 -0.1013 -0.1807 -0.0395
 6997W        W10741   3.626   8.095   2.587  0.0095 -0.3380  0.0886
 6998W        W10742   9.912   4.187  12.647  0.3178  0.1051 -0.2275
 6999W        W10743   2.423   4.640   3.803  0.2011 -0.2487  0.0447
 7000W        W10744   4.689   2.588   1.924 -0.2355  0.3843 -0.0141
 7001W        W10745   5.332   5.301   8.790 -0.2139  0.1110  0.1398
 7002W        W10746   3.893   1.200   3.652  0.0537  0.0425  0.1326
 7003W        W10747   2.799   4.536  10.695 -0.2791 -0.2969 -0.1464
 7004W        W10748   1.658   8.684  12.639 -0.0698 -0.2877  0.3276
 7005W        W10749   2.692   9.628   0.942 -0.1566 -0.1417  0.2231
 7006W        W10750   1.206   6.056   9.970 -0.0021  0.4768 -0.0119
 7007W        W10751   5.974   6.528   8.425 -0.2743  0.1919  0.1177
 7008W        W10752   7.286   2.659   9.693  0.1111 -0.1485 -0.2245
 7009W        W10753   2.037   8.217  11.079 -0.0589  0.0974  0.0836
 7010W        W10754   7.510   0.183  10.072 -0.0027  0.1010 -0.0223
 7011W        W10755   7.823   1.724  12.373 -0.2507 -0.4403 -0.1569
 7012W        W10756   4.912   1.917  10.355 -0.1357  0.2203  0.0120
 7013W        W10757   5.696   3.757   1.770  0.1045 -0.0029  0.0091
 7014W        W10758   8.988   9.378   3.802  0.0414  0.1400  0.1286
 7015W        W10759   6.133   2.175  11.443  0.1806  0.0975 -0.0812
 7016W        W10760   9.352   7.564  11.455 -0.1038  0.3028 -0.0415
 7017W        W10761   5.304   9.343   1.982  0.0171 -0.2364  0.0549
 7018W        W10762   4.350   9.034  11.671 -0.3999 -0.1147 -0.0988
 7019W        W10763   9.780   6.089   9.054 -0.1588  0.0622  0.2605
 7020W        W10764   5.422   4.246   9.826 -0.0334  0.3438 -0.3301
 7021W        W10765   0.635   2.368   9.392 -0.2873  0.2196 -0.0899
 7022W        W10766   3.057   7.261   1.363  0.1256 -0.0768 -0.2362
 7023W        W10767   4.073   1.374  12.139  0.2977  0.0293  0.1068
 7024W        W10768   0.452   6.773   2.684 -0.0604  0.0603  0.1372
 7025W        W10769   7.752   4.546  12.213 -0.1973  0.0132  0.0678
 7026W        W10770   5.171   5.745  11.009  0.1082 -0.0675  0.1408
 7027W        W10771   8.745   3.166   2.021  0.0003 -0.0105 -0.1234
 7028W        W10772   6.891   3.663   2.097 -0.2411  0.0709  0.0873
 7029W        W10773   9.850   2.186   1.169  0.1945  0.2396  0.3227
 7030W        W10774   3.314   9.723   1.903  0.0229 -0.0013 -0.1989
 7031W        W10775   9.227   7.378   1.275  0.0611  0.1791 -0.0908
 7032W        W10776   6.399   9.438   2.415 -0.3482  0.1910  0.1454
 7033W        W10777   3.604   2.477   3.587  0.1698 -0.0666 -0.2031
 7034W        W10778   6.845   6.581   1.629  0.1429  0.1774  0.2184
 7035W        W10779   5.303   0.019   0.280  0.0026  0.3266 -0.0389
 7036W        W10780   5.110   5.887   9.714 -0.0009 -0.4659  0.0641
 7037W        W10781   3.911   0.178  12.155  0.1564 -0.0720 -0.2208
 7038W        W10782   2.159   6.791   2.609  0.0954 -0.0360 -0.0006
 7039W        W10783   5.241   5.321  11.351 -0.2081 -0.1201  0.0799
 7040W        W10784   9.184   1.435  10.867  0.1438  0.7120  0.1593
 7041W        W10785   2.272   6.685  10.926 -0.2360 -0.1367  0.2869
 7042W        W10786   7.061   7.974  11.510 -0.1102  0.0489 -0.0235
 7043W        W10787   3.637   1.693   0.792  0.0593 -0.0878  0.0612
 7044W        W10788   2.922   8.005   3.413 -0.2417 -0.1461 -0.1889
 7045W        W10789   1.821   3.964   1.622  0.3303 -0.1744  0.3739
 7046W        W10790   1.364   3.767   4.922  0.0252 -0.0844  0.1256
 7047W        W10791   5.181   7.048  10.894  0.0714  0.0612 -0.1057
 7048W        W10792   4.045   8.130   2.843 -0.1096  0.4232  0.2277
 7049W        W10793   7.452   8.035   5.271 -0.2670 -0.3382 -0.1344
 7050W        W10794   9.486   0.613   3.447 -0.0196 -0.2196 -0.1926
 7051W        W10795   5.205   2.594  11.111  0.0720  0.2553  0.0282
 7052W        W10796   8.269   9.171  10.520  0.1739  0.3311  0.1510
 7053W        W10797   5.478   0.661  10.687  0.0969 -0.0087 -0.1144
 7054W        W10798   1.076   5.715   4.915 -0.0951 -0.2100 -0.0019
 7055W        W10799   5.326   3.770   3.124 -0.0977  0.2608  0.4741
 7056W        W10800   6.579   1.283   2.717  0.1501  0.0971  0.0001
 7057W        W10801   3.938   1.852  10.779  0.1513  0.2076 -0.3265
 7058W        W10802   9.073   7.518   2.512 -0.0667  0.1028 -0.0907
 7059W        W10803   9.799   0.015   1.022 -0.4558  0.0377  0.0233
 7060W        W10804   8.467   8.351  12.238 -0.0391  0.0860 -0.0306
 7061W        W10805   2.773   6.592  10.739  0.1658  0.0789  0.1623
 7062W        W10806   0.674   5.500   2.982  0.0728  0.1719  0.0208
 7063W        W10807   7.822   0.598   2.336 -0.0042 -0.0207  0.1212
 7064W        W10808   4.971   0.714   4.323 -0.4114  0.1897  0.1534
 7065W        W10809   6.498   5.804  11.678 -0.1298 -0.0011 -0.0799
 7066W        W10810   8.194   0.258   9.689  0.2316  0.2524  0.2400
 7067W        W10811   0.867   9.355   3.171  0.3728  0.0739  0.1239
 7068W        W10812   4.772   6.459  11.142 -0.0533  0.2074 -0.1605
 7069W        W10813   4.651   8.616  12.777 -0.0493 -0.2269 -0.0631
 7070W        W10814   6.897   0.963   9.698 -0.1751 -0.1468 -0.3268
 7071W        W10815   9.532   4.643   9.741  0.0534  0.4664 -0.0691
 7072W        W10816   9.045   9.428  11.577 -0.3116 -0.2906 -0.2659
 7073W        W10817   2.903   4.760   2.818  0.2949  0.1619  0.0235
 7074W        W10818   6.408   7.681   4.011  0.2274 -0.2938 -0.3109
 7075W        W10819   5.495   1.136   1.223  0.2471  0.1506  0.0474
 7076W        W10820   7.990   2.681  11.862  0.2431  0.1677  0.0598
 7077W        W10821   2.776   1.024   2.521 -0.0689  0.0068 -0.0784
 7078W        W10822   8.710   0.095   9.568  0.2678  0.0224 -0.2066
 7079W        W10823   4.001   0.503  10.221 -0.1979  0.2188  0.0750
 7080W        W10824   5.937   3.613  11.164 -0.0792 -0.3844  0.0841
 7081W        W10825   0.540   0.170   9.932  0.2403 -0.0536 -0.0082
 7082W        W10826   0.129   0.650  10.543  0.1454  0.2753  0.1629
 7083W        W10827   1.852   4.498   1.476  0.0972 -0.2436 -0.2701
 7084W        W10828   1.320   1.912   3.462 -0.0141 -0.1606  0.2852
 7085W        W10829   9.513   2.799  12.477  0.0630  0.1284  0.2585
 7086W        W10830   8.557   6.249  10.349  0.1564  0.0290 -0.3394
 7087W        W10831   6.922   2.969   9.391  0.0374 -0.0006  0.1622
 7088W        W10832   8.703   8.332   4.266 -0.2571  0.0350 -0.0007
 7089W        W10833   7.816   6.774  11.484  0.0260 -0.2044  0.1899
 7090W        W10834   6.302   7.286   8.525 -0.0207  0.0824 -0.1303
 7091W        W10835   9.630   6.737  11.981 -0.1620 -0.1733 -0.2197
 7092W        W10836   5.604   1.125  11.071 -0.2743  0.0678  0.1490
 7093W        W10837   6.239   3.662   0.149  0.0863  0.0780  0.2005
 7094W        W10838   7.732   9.762   0.080  0.0687 -0.0346 -0.2074
 7095W        W10839   5.665   1.215   4.791 -0.0897  0.3395  0.0667
 7096W        W10840   1.502   8.821   0.298  0.0609 -0.2940 -0.4288
 7097W        W10841   1.682   7.162   0.045 -0.0615 -0.0172 -0.0432
 7098W        W10842   8.804   7.985   8.940 -0.2252 -0.4359  0.0468
 7099W        W10843   6.343   4.768   1.156  0.1030 -0.0269 -0.0080
 7100W        W10844   6.921   7.718   1.018  0.0830 -0.0135 -0.0436
 7101W        W10845   2.549   5.876   2.556 -0.0019  0.2553 -0.0056
 7102W        W10846   6.230   5.382   0.497  0.0753  0.2090 -0.0864
 7103W        W10847   0.029   2.024   2.140 -0.0339 -0.1990 -0.0947
 7104W        W10848   0.134   4.160   3.497  0.3812  0.2388 -0.4374
 7105W        W10849   8.440   0.279   1.672  0.2578  0.3306 -0.1886
 7106W        W10850   3.559   5.234   0.218  0.1437  0.0857  0.1362
 7107W        W10851   4.461   2.147  11.541 -0.2040 -0.1758 -0.5222
 7108W        W10852   9.338   1.181   2.399 -0.3811  0.1062  0.1183
 7109W        W10853   1.073   6.823   1.479  0.0540  0.1071  0.0025
 7110W        W10854   3.306   6.843   3.956  0.0716  0.0885  0.0970
 7111W        W10855   6.870   3.639  11.912 -0.0758 -0.1138  0.1295
 7112W        W10856   4.377   5.743   0.524  0.1958  0.2709 -0.1107
 7113W        W10857   2.444   6.240   1.278 -0.1925  0.2429  0.0991
 7114W        W10858   1.701   3.532   2.364 -0.2749  0.1387  0.0895
 7115W        W10859   0.002   3.131  11.619  0.1616  0.0220  0.0380
 7116W        W10860   6.520   6.659   2.600 -0.0965  0.1062  0.5581
 7117W        W10861   4.905   4.986   0.851  0.3039  0.2199  0.2157
 7118W        W10862   0.715   1.130   1.289  0.0490  0.1201 -0.1246
 7119W        W10863   4.066   7.722  11.586  0.1616 -0.0884 -0.0339
 7120W        W10864   1.916   0.003   2.944  0.0202  0.0529 -0.0183
 7121W        W10865   6.504   4.894  11.034  0.3481  0.1641 -0.1997
 7122W        W10866   2.598   4.528   9.746  0.1920 -0.2265  0.0122
 7123W        W10867   7.599   3.650   2.535  0.0685 -0.2151  0.2245
 7124W        W10868   4.840   9.609   8.393  0.0448 -0.1756 -0.3009
 7125W        W10869   3.597   9.410   0.683  0.0250  0.0545 -0.1310
 7126W        W10870   5.065   3.124   1.099  0.1331  0.0266 -0.1505
 7127W        W10871   6.069   2.041   2.563  0.4250 -0.0121  0.2146
 7128W        W10872   5.829   1.404   1.434  0.1175  0.4848  0.0015
 7129W        W10873   3.219   4.850   0.133 -0.0588  0.1659  0.0588
 7130W        W10874   1.030   1.919   1.383  0.2618  0.2853  0.0185
 7131W        W10875   5.025   6.209   3.746  0.1434 -0.1339 -0.1336
 7132W        W10876   2.330   5.849   3.183 -0.0837 -0.2330  0.2705
 7133W        W10877   4.456   0.271   1.414  0.1785 -0.1337  0.3817
 7134W        W10878   8.996   1.234   4.535  0.1714  0.2394 -0.1147
 7135W        W10879   3.918   3.105  11.006 -0.0171  0.1546  0.1556
 7136W        W10880   9.404   9.032   2.159  0.0224 -0.0241  0.1350
 7137W        W10881   2.642   6.212   2.241 -0.1095 -0.0913 -0.1451
 7138W        W10882   1.036   3.193   1.471  0.0541 -0.0723  0.0295
 7139W        W10883   6.239   5.959  12.552  0.2738  0.0867 -0.3061
 7140W        W10884   0.434   7.472  12.008  0.2105  0.1357  0.0278
 7141W        W10885   0.560   4.613   0.675  0.1072 -0.2981 -0.1445
 7142W        W10886   0.069   1.036   1.807  0.2594  0.0311 -0.0876
 7143W        W10887   4.767   0.376  12.661  0.1775  0.1097 -0.2320
 7144W        W10888   8.322   3.175   0.306  0.3017 -0.1086  0.1783
 7145W        W10889   9.180   9.160  12.739 -0.0702 -0.0797 -0.1627
 7146W        W10890   0.501   6.277   1.150 -0.0298  0.1589  0.1307
 7147W        W10891   8.295   8.552  12.755 -0.1801  0.0381 -0.0881
 7148W        W10892   6.583   2.125  11.763  0.2529  0.1583  0.3658
 7149W        W10893   4.810   7.436   1.907 -0.1653  0.2370  0.1680
 7150W        W10894   4.903   9.437   2.362 -0.3910  0.0558 -0.0745
 7151W        W10895   6.721   5.563   9.539  0.0141  0.0866 -0.0811
 7152W        W10896   9.392   8.503   2.407  0.1237  0.0236  0.2411
 7153W        W10897   0.699   1.001   9.906  0.3549 -0.1021  0.0571
 7154W        W10898   6.373   8.306  11.640  0.0621 -0.0953  0.3029
 7155W        W10899   7.936   6.785   1.635  0.2025 -0.1026  0.1866
 7156W        W10900   3.942   2.879  11.940  0.0041 -0.0314  0.1680
 7157W        W10901   4.489   7.673   2.235 -0.1165 -0.0642 -0.0078
 7158W        W10902   1.799   8.167   9.599 -0.0327 -0.1465 -0.0230
 7159W        W10903   0.776   9.255   0.869  0.1121 -0.3573  0.2689
 7160W        W10904   5.737   2.768   9.658 -0.0498 -0.1105  0.3765
 7161W        W10905   0.779   8.668   1.846  0.1339 -0.3459 -0.3718
 7162W        W10906   4.241   1.195  11.649 -0.1351 -0.2497  0.3727
 7163W        W10907   2.792   0.648   1.271 -0.1171  0.1557 -0.3459
 7164W        W10908   1.935   8.585   2.302  0.3088 -0.1550 -0.0541
 7165W        W10909   1.319   8.273  12.415 -0.0535 -0.0888  0.0462
 7166W        W10910   8.194   9.058  11.035 -0.3287  0.0411 -0.0971
 7167W        W10911   9.590   6.189   0.498  0.0451 -0.3864 -0.1149
 7168W        W10912   6.150   0.290   1.296  0.0091 -0.4155 -0.1612
 7169W        W10913   1.873   1.614   0.430  0.0857  0.1385  0.1592
 7170W        W10914   2.044   5.864  10.671  0.1085  0.0242  0.0830
 7171W        W10915   7.982   9.000   3.445 -0.0340  0.2293  0.1993
 7172W        W10916   7.498   0.251  11.361 -0.2740  0.1918  0.1590
 7173W        W10917   8.670   8.088   0.179 -0.0663  0.0973  0.2995
 7174W        W10918   6.890   9.120   0.929 -0.3449  0.0908 -0.1793
 7175W        W10919   7.840   1.375   0.652  0.1438 -0.0179  0.1657
 7176W        W10920   3.415   3.141   3.360 -0.0593 -0.2101  0.0286
 7177W        W10921   1.743   8.491   0.555  0.4219  0.0358 -0.2984
 7178W        W10922   7.719   9.198  10.526  0.2977  0.0560  0.1128
 7179W        W10923   4.821   7.772  11.278  0.1097 -0.2934  0.0065
 7180W        W10924   4.280   9.464   1.004  0.0551 -0.1586 -0.1109
 7181W        W10925   1.110   9.050   0.554 -0.1218 -0.2831  0.0278
 7182W        W10926   0.439   0.381   1.709  0.1976 -0.1237  0.0100
 7183W        W10927   6.153   6.659   9.240 -0.1502 -0.2260  0.1100
 7184W        W10928   3.632   4.656  10.448  0.0045 -0.0769  0.0745
 7185W        W10929   4.307   0.365   0.669  0.2360  0.0081 -0.1133
 7186W        W10930   8.285   9.043   4.348  0.2832  0.1814  0.0690
 7187W        W10931   8.294   3.923   9.940 -0.2322 -0.1867 -0.1047
 7188W        W10932   3.516   5.726   1.989 -0.2692  0.1083  0.0910
 7189W        W10933   1.411   9.380   2.638  0.1206  0.0393  0.1488
 7190W        W10934   5.176   8.343   9.629 -0.2101 -0.1531 -0.1732
 7191W        W10935   2.690   0.123   4.654 -0.2395 -0.0122 -0.1239
 7192W        W10936   1.507   7.636   0.153  0.5761 -0.3880  0.0316
 7193W        W10937   9.224   3.643  11.725 -0.0195  0.2607  0.0626
 7194W        W10938   1.030   4.238  10.612  0.1087 -0.3352  0.1101
 7195W        W10939   5.106   1.937   9.849  0.1360  0.1439 -0.1472
 7196W        W10940   4.298   9.634  10.121 -0.2251  0.2046 -0.3576
 7197W        W10941   8.829   1.627  12.104 -0.3281 -0.0905  0.2817
 7198W        W10942   2.534   6.832   0.696  0.0974  0.2107  0.1531
 7199W        W10943   5.780   0.558   2.065 -0.0416 -0.0715 -0.2794
 7200W        W10944   1.581   9.386   0.559 -0.0932  0.4384 -0.1096
 7201W        W10945   0.088   8.424  11.632  0.2718  0.0590  0.0623
 7202W        W10946   1.281   7.307   3.984  0.1576  0.3914  0.0809
 7203W        W10947   8.069   2.903   9.160  0.1139  0.1079 -0.1455
 7204W        W10948   6.620   7.428   9.915 -0.0388 -0.1515 -0.0976
 7205W        W10949   5.666   6.024  12.774 -0.3337  0.2842 -0.4674
 7206W        W10950   1.538   0.158  12.654 -0.0245 -0.1152 -0.1021
 7207W        W10951   3.969   9.434  10.489 -0.2174 -0.2389  0.1079
 7208W        W10952   9.945   7.709   0.509  0.0630 -0.2149 -0.3631
 7209W        W10953   7.442   5.392   3.165  0.1644 -0.1449  0.1457
 7210W        W10954   6.336   4.407   3.398 -0.1092  0.1653 -0.1923
 7211W        W10955   4.149   5.715  11.136  0.1695 -0.0238  0.1456
 7212W        W10956   8.657   8.362   3.754  0.1249  0.1355 -0.0918
 7213W        W10957   0.087   1.846  12.237  0.3147  0.0159 -0.0076
 7214W        W10958   2.241   1.025  10.216 -0.1617 -0.0126  0.2187
 7215W        W10959   3.462   2.180   2.428  0.0234 -0.1917 -0.0654
 7216W        W10960   8.841   8.912   3.909 -0.0368  0.0579 -0.1713
 7217W        W10961   0.404   4.461   2.154 -0.1393  0.2536  0.1161
 7218W        W10962   2.330   6.505   4.337 -0.4088  0.2258 -0.0566
 7219W        W10963   2.696   9.874   4.221  0.2096  0.0698  0.1103
 7220W        W10964   8.755   2.822  10.688  0.0492  0.0974  0.0506
 7221W        W10965   8.987   2.505   5.193 -0.0346 -0.0093 -0.1623
 7222W        W10966   4.360   1.557  11.259  0.0264  0.2226  0.0651
 7223W        W10967   6.727   6.583   8.940  0.0826  0.1371 -0.0368
 7224W        W10968   4.415   3.556   0.065 -0.2648  0.1582 -0.0112
 7225W        W10969   6.247   7.222   2.132  0.0744  0.2275 -0.0597
 7226W        W10970   0.245   4.288   9.316  0.0644 -0.1709  0.0720
 7227W        W10971   0.769   9.007   0.198 -0.3324  0.2073 -0.1746
 7228W        W10972   8.371   7.082   8.537  0.0908 -0.0201  0.0717
 7229W        W10973   1.760   8.945   8.951  0.0961  0.0714  0.0944
 7230ION    NA+10974   7.688   0.612   8.737  0.0703  0.0490  0.3611
 7231ION    NA+10975   8.604   4.452   4.506 -0.1986  0.2428  0.3852
 7232ION    NA+10976   0.264   6.234   0.718 -0.2732 -0.1801  0.1396
 7233ION    NA+10977   6.460   2.034   3.765  0.3347  0.1350  0.4929
 7234ION    NA+10978   2.040   4.139   9.084 -0.1547 -0.3444 -0.1761
 7235ION    NA+10979   5.932   5.216   3.759  0.2985 -0.2845 -0.0387
 7236ION    NA+10980   3.780   3.202   2.042  0.1983  0.2480  0.0655
 7237ION    NA+10981   5.906   5.011  11.841 -0.2030  0.0452 -0.0999
 7238ION    NA+10982   7.373   8.780  10.594 -0.0627 -0.2044  0.4530
 7239ION    NA+10983   2.050   6.181   1.646  0.0810 -0.0878  0.1971
 7240ION    NA+10984   3.578   6.622   1.656 -0.1144 -0.0711 -0.2046
 7241ION    NA+10985   5.841   7.587  11.948  0.1665 -0.3846 -0.2584
 7242ION    NA+10986   6.789   9.803   1.886 -0.2610  0.2478  0.1003
 7243ION    NA+10987   4.984   9.770   3.283  0.0131  0.2405 -0.0542
 7244ION    NA+10988   5.464   7.208   0.711  0.4783  0.0330 -0.1288
 7245ION    NA+10989   0.591   9.013  12.255 -0.0672  0.2103  0.0565
 7246ION    NA+10990   5.248   1.420   2.183 -0.0408  0.1394  0.3525
 7247ION    NA+10991   2.153   6.931   1.098 -0.3190  0.1034 -0.3984
 7248ION    NA+10992   2.070   3.400   0.893  0.3809 -0.1711 -0.0585
 7249ION    NA+10993   8.806   6.565   8.745  0.0584 -0.1549  0.2452
 7250ION    NA+10994   0.918   2.623   9.098 -0.4099  0.2615  0.1118
 7251ION    NA+10995   8.696   6.651   8.145  0.0191  0.1523 -0.1016
 7252ION    NA+10996   5.929   3.208  11.538 -0.2949 -0.0220 -0.0547
 7253ION    NA+10997   6.903   2.736   8.834 -0.3884 -0.1465  0.2319
 7254ION    NA+10998   8.850   4.976   9.093 -0.2639  0.1058  0.1303
 7255ION    NA+10999   8.142   8.849   2.914 -0.1492 -0.0569  0.0971
 7256ION    NA+11000   6.034   0.488   9.183  0.0516 -0.1407  0.1420
 7257ION    NA+11001   7.767   1.325   0.162 -0.0336 -0.1621 -0.0912
 7258ION    NA+11002   2.199   8.909   4.762  0.0539 -0.3660  0.1019
 7259ION    NA+11003   1.440   7.973  10.424  0.2153  0.0530  0.1499
 7260ION    NA+11004   3.270   2.452  12.345  0.1358  0.0367 -0.0126
 7261ION    NA+11005   9.428   5.027   2.023 -0.1081 -0.1309  0.0976
 7262ION    NA+11006   3.787   2.036  10.352 -0.3642  0.1034 -0.2793
 7263ION    NA+11007   9.463   3.055   0.719 -0.2711 -0.0217 -0.0586
 7264ION    NA+11008   0.887   9.369   8.438  0.1656  0.1275  0.0190
 7265ION    NA+11009   4.620   6.726  10.496 -0.4763 -0.2726  0.0069
 7266ION    NA+11010   5.223   6.737   9.621 -0.3001  0.0625 -0.4217
 7267ION    NA+11011   8.822   8.590   8.860 -0.0445 -0.0147  0.0136
 7268ION    NA+11012   9.924   4.014   0.331  0.1099  0.2047 -0.0207
 7269ION    NA+11013   3.597   7.686   0.611 -0.2790 -0.1838  0.4100
 7270ION    NA+11014   0.370   0.526  12.409 -0.0992 -0.0081  0.1509
 7271ION    NA+11015   9.187   8.265   0.733  0.0961  0.6337  0.3108
 7272ION    NA+11016   5.082   6.315   0.912  0.0986  0.0280  0.1344
 7273ION    NA+11017   8.820   6.998   4.838 -0.2562 -0.2172 -0.2941
 7274ION    NA+11018   4.384   5.521   9.974 -0.2256  0.0302 -0.0371
 7275ION    NA+11019   2.259   3.033  10.425  0.1580 -0.1268  0.3128
 7276ION    NA+11020   2.686   0.622   2.221  0.0394 -0.0714  0.2582
 7277ION    NA+11021   8.075   9.504  10.271  0.1519 -0.2552 -0.1052
 7278ION    NA+11022   8.661   1.231   3.203 -0.2467 -0.0663  0.3343
 7279ION    NA+11023   3.837   9.375   4.970  0.1903  0.2643  0.3216
 7280ION    NA+11024   2.421   7.884   0.713  0.2618  0.1141 -0.0983
 7281ION    NA+11025   4.209   8.268   1.633  0.5920  0.2458 -0.1299
 7282ION    NA+11026   9.946   2.749   5.237  0.3995 -0.3177 -0.1305
 7283ION    NA+11027   9.453   3.095   4.854 -0.0610  0.0064  0.0439
 7284ION    NA+11028   2.475   9.731   8.407  0.0124 -0.0801 -0.0043
 7285ION    NA+11029   4.589   9.769   0.674 -0.2975 -0.0971 -0.0111
 7286ION    NA+11030   9.876   0.629   2.986 -0.1271 -0.0491 -0.1527
 7287ION    NA+11031   8.450   6.806   4.521 -0.2364  0.0121 -0.2829
 7288ION    NA+11032   2.926   3.323   3.553 -0.0822 -0.1614  0.1986
 7289ION    NA+11033   3.969   8.798  11.922 -0.0466 -0.1006 -0.1671
 7290ION    NA+11034   7.729   3.082   8.191  0.0451  0.0398  0.2500
 7291ION    NA+11035   0.179   2.324   0.338  0.0892 -0.0275  0.4387
 7292ION    NA+11036   1.610   4.867   2.411  0.0476 -0.0537  0.0532
 7293ION    NA+11037   7.178   4.929  10.878 -0.1037  0.2346 -0.1499
 7294ION    NA+11038   1.640   2.080   1.975  0.0046 -0.2837 -0.0871
 7295ION    NA+11039   4.198   5.752   3.908 -0.0614  0.0389 -0.3507
 7296ION    NA+11040   1.061   1.086  10.874 -0.1095 -0.3917  0.1712
 7297ION    NA+11041   8.589   8.181   4.738 -0.1056 -0.1504 -0.1039
 7298ION    NA+11042   5.108   7.938   1.809  0.1150  0.0261  0.1292
 7299ION    NA+11043   7.847   2.880   4.547 -0.4415 -0.1860  0.1119
 7300ION    NA+11044   4.200   0.981   2.415 -0.1531  0.0183  0.0735
 7301ION    NA+11045   9.532   8.026   4.729  0.0501  0.1113 -0.2006
 7302ION    NA+11046   3.991   1.287   9.005  0.1789 -0.0749 -0.1385
 7303ION    NA+11047   5.090   6.770   3.199 -0.2603  0.1685 -0.0626
 7304ION    NA+11048   4.131   0.480   3.318 -0.0620 -0.0431  0.0807
 7305ION    NA+11049   4.409   7.515   2.700  0.2436 -0.3197  0.3019
 7306ION    CL-11050   6.060   2.366   3.531  0.0137  0.1001 -0.2194
 7307ION    CL-11051   8.313   4.429   4.112 -0.1011 -0.2638 -0.1139
 7308ION    CL-11052   6.531   2.157  11.030  0.0027  0.0939  0.1055
 7309ION    CL-11053   4.592   6.806   3.089  0.2287 -0.1683 -0.0832
 7310ION    CL-11054   5.800   0.327  10.214 -0.0338  0.1220 -0.0244
 7311ION    CL-11055   3.374   8.383  10.299  0.0515 -0.2740  0.0278
 7312ION    CL-11056   9.645   6.451   1.843  0.1639 -0.0649  0.0208
 7313ION    CL-11057   2.801   2.516  10.684  0.0764 -0.0161 -0.4111
 7314ION    CL-11058   1.879   6.381   1.184  0.2183 -0.5599  0.0899
 7315ION    CL-11059   4.022   7.793   2.451 -0.1753 -0.2541 -0.0830
 7316ION    CL-11060   8.165   8.517   3.234 -0.3529  0.1453  0.0057
 7317ION    CL-11061   7.884   9.870   9.862 -0.2251  0.1706 -0.0580
 7318ION    CL-11062   2.822   7.617   0.971 -0.0350  0.0359 -0.0308
 7319ION    CL-11063   5.668   6.794   9.178 -0.0103  0.1877  0.2980
 7320ION    CL-11064   4.955   8.960  12.548 -0.1193 -0.2356  0.1085
 7321ION    CL-11065   9.521   7.772   8.667  0.3660 -0.2359 -0.1484
 7322ION    CL-11066   6.765   5.034  10.564  0.2036  0.2086 -0.3183
 7323ION    CL-11067   2.410   9.388   4.267  0.0896 -0.3173 -0.1481
 7324ION    CL-11068   8.642   6.189   4.214 -0.0963  0.1003 -0.0464
 7325ION    CL-11069   3.812   3.210   1.550  0.1575 -0.0897  0.2289
 7326ION    CL-11070   5.016   5.658   1.198  0.1468  0.0610  0.1947
 7327ION    CL-11071   2.349   3.064   1.074  0.0345 -0.0293 -0.2060
 7328ION    CL-11072   0.091   0.324   0.097 -0.1533 -0.0209 -0.1311
 7329ION    CL-11073   4.440   6.235  10.456  0.3729 -0.0247 -0.2765
 7330ION    CL-11074   3.432   2.238  10.116  0.0404  0.0616 -0.0378
 7331ION    CL-11075   6.511   9.525   3.767  0.1899  0.1695 -0.2645
 7332ION    CL-11076   0.481   3.872  12.737  0.0713  0.0376  0.0933
 7333ION    CL-11077   4.816   0.580   1.623 -0.3967  0.1579 -0.1191
 7334ION    CL-11078   8.684   0.268   3.554  0.2506  0.0367  0.0301
 7335ION    CL-11079   5.486   8.215   2.570 -0.2779  0.0955 -0.1309
 7336ION    CL-11080   1.329   1.676   1.745 -0.0268 -0.0850 -0.2082
 7337ION    CL-11081   4.862   0.038   1.004  0.0955  0.0041 -0.2182
 7338ION    CL-11082   0.349   5.093   3.430 -0.0224 -0.1645 -0.1030
 7339ION    CL-11083   5.679   4.705  11.487 -0.0721 -0.0088 -0.1647
 7340ION    CL-11084   3.615   0.504   4.323  0.1503  0.1768 -0.1504
 7341ION    CL-11085   6.057   3.697  11.650 -0.2486 -0.0177 -0.3812
 7342ION    CL-11086   4.669   5.122   9.942  0.2138  0.2681  0.0982
 7343ION    CL-11087   6.646   3.393   9.964 -0.1958 -0.0752  0.2639
 7344ION    CL-11088   4.224   1.524   2.387  0.0086 -0.1264  0.1629
 7345ION    CL-11089   7.614   1.257  12.537  0.1391  0.2972  0.0486
 7346ION    CL-11090   7.769   0.272   4.401 -0.1487 -0.3512  0.4250
 7347ION    CL-11091   0.824   8.674   9.382  0.2073 -0.2227 -0.1407
 7348ION    CL-11092   2.766   9.298   0.489  0.0199 -0.4201  0.2144
 7349ION    CL-11093   0.446   5.718   0.592 -0.2789  0.1724  0.0439
 7350ION    CL-11094   9.834   5.234   1.736 -0.0698  0.2935 -0.0509
 7351ION    CL-11095   3.817   8.174   0.692  0.2073 -0.0505 -0.1914
 7352ION    CL-11096   5.372   1.156   9.504  0.0233 -0.2232 -0.1646
 7353ION    CL-11097   5.342   7.111   2.637 -0.0814 -0.1511  0.0924
 7354ION    CL-11098   0.384   8.649   3.752 -0.1152 -0.1590  0.2907
 7355ION    CL-11099   9.184   8.981   8.723  0.0583  0.1600  0.4203
 7356ION    CL-11100   1.396   8.256  10.833  0.1430 -0.2364 -0.1390
 7357ION    CL-11101   9.151   5.243   9.393 -0.1288  0.1535  0.0023
 7358ION    CL-11102   1.258   3.796   1.872 -0.3230  0.1331 -0.1368
 7359ION    CL-11103   4.021   0.551   2.480 -0.0932  0.2007 -0.1771
 7360ION    CL-11104   2.354   8.153   0.156  0.1182  0.0120 -0.1616
 7361ION    CL-11105   7.433   8.966  10.125 -0.0242 -0.0878  0.1833
 7362ION    CL-11106   6.813   6.786   9.954 -0.0588 -0.0961  0.0816
 7363ION    CL-11107   1.051   6.459   9.489  0.0254 -0.3817  0.2000
 7364ION    CL-11108   7.616   1.491   9.195 -0.0343 -0.0541 -0.0851
 7365ION    CL-11109   5.144   7.232   1.109  0.1202 -0.0976  0.0075
 7366ION    CL-11110   2.184   6.355   3.084  0.5408  0.2052  0.0110
 7367ION    CL-11111   1.547   0.976  10.894 -0.1124  0.0078 -0.1585
 7368ION    CL-11112   7.195   4.844   3.893  0.3248 -0.0147 -0.0721
 7369ION    CL-11113   9.711   3.481   0.396 -0.1409 -0.1330 -0.3301
 7370ION    CL-11114   5.532   9.602  10.882  0.1180  0.0136 -0.2727
 7371ION    CL-11115   1.887   4.438   2.454 -0.0908  0.0194  0.2872
 7372ION    CL-11116   9.177   7.097  11.299  0.0825  0.0426 -0.2681
 7373ION    CL-11117   8.365   5.709   8.648 -0.2274  0.0471  0.0956
 7374ION    CL-11118   4.532   9.464   9.171 -0.5827 -0.1374  0.1227
 7375ION    CL-11119   5.469   6.737   0.901 -0.0070 -0.0134  0.1789
 7376ION    CL-11120   6.448   9.451   1.910 -0.0578 -0.2813 -0.1267
 7377ION    CL-11121   2.948   2.201   2.603  0.2750  0.0199 -0.1561
 7378ION    CL-11122   5.272   6.429  11.277 -0.2451 -0.0930 -0.2640
 7379ION    CL-11123   3.738   7.018   1.928  0.2610  0.3729 -0.1320
 7380ION    CL-11124   4.183   1.712  10.176 -0.0252  0.1333  0.2408
 7381ION    CL-11125   1.397   2.586   2.741  0.1181  0.0739 -0.0382
   9.94964   9.94964  12.82929
