generated by VMD, t= 0.000000
565
   85AUC    AUC    1   0.001   0.109  -0.002
   86AUC    AUC    2   0.246   0.109  -0.154
   87AUC    AUC    3   0.246   0.109   0.149
   88AUC    AUC    4  -0.244   0.109  -0.154
   89AUC    AUC    5  -0.244   0.109   0.149
   90AUC    AUC    6  -0.151   0.355  -0.002
   91AUC    AUC    7   0.153   0.355  -0.002
   92AUC    AUC    8  -0.151  -0.136  -0.002
   93AUC    AUC    9   0.153  -0.136  -0.002
   94AUC    AUC   10   0.001  -0.042   0.243
   95AUC    AUC   11   0.001   0.261   0.243
   96AUC    AUC   12   0.001  -0.042  -0.248
   97AUC    AUC   13   0.001   0.261  -0.248
   98AUC    AUC   14   0.492   0.109  -0.306
   99AUC    AUC   15   0.492   0.109  -0.002
  100AUC    AUC   16   0.492   0.109   0.301
  101AUC    AUC   17  -0.490   0.109  -0.306
  102AUC    AUC   18  -0.490   0.109  -0.002
  103AUC    AUC   19  -0.490   0.109   0.301
  104AUC    AUC   20  -0.302   0.600  -0.002
  105AUC    AUC   21   0.001   0.600  -0.002
  106AUC    AUC   22   0.304   0.600  -0.002
  107AUC    AUC   23  -0.302  -0.381  -0.002
  108AUC    AUC   24   0.001  -0.381  -0.002
  109AUC    AUC   25   0.304  -0.381  -0.002
  110AUC    AUC   26   0.001  -0.194   0.488
  111AUC    AUC   27   0.001   0.109   0.488
  112AUC    AUC   28   0.001   0.413   0.488
  113AUC    AUC   29   0.001  -0.194  -0.493
  114AUC    AUC   30   0.001   0.109  -0.493
  115AUC    AUC   31   0.001   0.413  -0.493
  116AUC    AUC   32   0.246  -0.042   0.395
  117AUC    AUC   33   0.246   0.261   0.395
  118AUC    AUC   34   0.246  -0.042  -0.399
  119AUC    AUC   35   0.246   0.261  -0.399
  120AUC    AUC   36  -0.244  -0.042   0.395
  121AUC    AUC   37  -0.244   0.261   0.395
  122AUC    AUC   38  -0.244  -0.042  -0.399
  123AUC    AUC   39  -0.244   0.261  -0.399
  124AUC    AUC   40   0.398   0.355  -0.154
  125AUC    AUC   41   0.398   0.355   0.149
  126AUC    AUC   42  -0.396   0.355  -0.154
  127AUC    AUC   43  -0.396   0.355   0.149
  128AUC    AUC   44   0.398  -0.136  -0.154
  129AUC    AUC   45   0.398  -0.136   0.149
  130AUC    AUC   46  -0.396  -0.136  -0.154
  131AUC    AUC   47  -0.396  -0.136   0.149
  132AUC    AUC   48  -0.151   0.507   0.243
  133AUC    AUC   49   0.153   0.507   0.243
  134AUC    AUC   50  -0.151  -0.288   0.243
  135AUC    AUC   51   0.153  -0.288   0.243
  136AUC    AUC   52  -0.151   0.507  -0.248
  137AUC    AUC   53   0.153   0.507  -0.248
  138AUC    AUC   54  -0.151  -0.288  -0.248
  139AUC    AUC   55   0.153  -0.288  -0.248
   56AUSL   AUS   56   0.410   0.109   0.578
   57AUSL   AUS   57   0.266  -0.307   0.508
   58AUL    AUL   58   0.492  -0.194   0.792
   59THSLK  S     59   0.376  -0.494   0.648
   60ETHY   C1    60   0.412  -0.893   0.863
   62ETHY   C1    61   0.522  -1.323   1.160
   64ETHY   C1    62   0.700  -1.687   1.495
   66ETHY   C1    63   0.934  -1.983   1.859
   68ETHY   C1    64   1.220  -2.200   2.247
   70ETHY   C1    65   1.551  -2.333   2.651
   72THSLK  S     66   0.503   0.057   0.819
   73ETHY   C1    67   0.707  -0.163   1.160
   75ETHY   C1    68   0.971  -0.340   1.589
   77ETHY   C1    69   1.247  -0.416   2.030
   79ETHY   C1    70   1.524  -0.399   2.475
   81ETHY   C1    71   1.794  -0.286   2.914
   83ETHY   C1    72   2.053  -0.077   3.340
   56AUSL   AUS   73   0.165  -0.042   0.671
   57AUSL   AUS   74  -0.163   0.261   0.671
   58AUL    AUL   75   0.001   0.109   0.979
   59THSLK  S     76   0.240  -0.097   0.908
   60ETHY   C1    77   0.304  -0.377   1.260
   62ETHY   C1    78   0.407  -0.632   1.718
   64ETHY   C1    79   0.534  -0.791   2.203
   66ETHY   C1    80   0.676  -0.860   2.703
   68ETHY   C1    81   0.830  -0.832   3.208
   70ETHY   C1    82   0.990  -0.708   3.707
   72THSLK  S     83  -0.248   0.215   0.923
   73ETHY   C1    84  -0.322   0.065   1.345
   75ETHY   C1    85  -0.427  -0.023   1.862
   77ETHY   C1    86  -0.549  -0.011   2.373
   79ETHY   C1    87  -0.687   0.090   2.868
   81ETHY   C1    88  -0.842   0.283   3.335
   83ETHY   C1    89  -1.011   0.564   3.763
   56AUSL   AUS   90   0.165   0.261   0.671
   57AUSL   AUS   91   0.511   0.374   0.414
   58AUL    AUL   92   0.492   0.413   0.792
   59THSLK  S     93   0.250   0.317   0.905
   60ETHY   C1    94   0.324   0.598   1.254
   62ETHY   C1    95   0.429   0.853   1.712
   64ETHY   C1    96   0.551   1.012   2.198
   66ETHY   C1    97   0.690   1.081   2.699
   68ETHY   C1    98   0.844   1.054   3.203
   70ETHY   C1    99   1.013   0.930   3.701
   72THSLK  S    100   0.683   0.472   0.575
   73ETHY   C1   101   1.046   0.443   0.845
   75ETHY   C1   102   1.468   0.499   1.168
   77ETHY   C1   103   1.860   0.653   1.484
   79ETHY   C1   104   2.214   0.891   1.788
   81ETHY   C1   105   2.521   1.212   2.075
   83ETHY   C1   106   2.772   1.609   2.339
   56AUSL   AUS  107   0.410   0.109  -0.582
   57AUSL   AUS  108   0.266   0.526  -0.513
   58AUL    AUL  109   0.492   0.413  -0.797
   59THSLK  S    110   0.512   0.057  -0.818
   60ETHY   C1   111   0.725  -0.163  -1.154
   62ETHY   C1   112   0.990  -0.340  -1.582
   64ETHY   C1   113   1.262  -0.416  -2.026
   66ETHY   C1   114   1.536  -0.399  -2.472
   68ETHY   C1   115   1.807  -0.286  -2.911
   70ETHY   C1   116   2.072  -0.077  -3.332
   72THSLK  S    117   0.444   0.637  -0.676
   73ETHY   C1   118   0.746   0.705  -1.008
   75ETHY   C1   119   1.065   0.868  -1.405
   77ETHY   C1   120   1.330   1.115  -1.786
   79ETHY   C1   121   1.542   1.435  -2.143
   81ETHY   C1   122   1.695   1.825  -2.466
   83ETHY   C1   123   1.786   2.277  -2.746
   56AUSL   AUS  124   0.165  -0.042  -0.676
   57AUSL   AUS  125   0.511  -0.155  -0.419
   58AUL    AUL  126   0.492  -0.194  -0.797
   59THSLK  S    127   0.644  -0.347  -0.556
   60ETHY   C1   128   0.827  -0.714  -0.753
   62ETHY   C1   129   1.099  -1.086  -1.022
   64ETHY   C1   130   1.424  -1.375  -1.319
   66ETHY   C1   131   1.790  -1.582  -1.631
   68ETHY   C1   132   2.194  -1.701  -1.950
   70ETHY   C1   133   2.627  -1.726  -2.270
   72THSLK  S    134   0.250  -0.098  -0.909
   73ETHY   C1   135   0.324  -0.379  -1.259
   75ETHY   C1   136   0.429  -0.635  -1.717
   77ETHY   C1   137   0.551  -0.793  -2.203
   79ETHY   C1   138   0.690  -0.862  -2.704
   81ETHY   C1   139   0.844  -0.835  -3.208
   83ETHY   C1   140   1.013  -0.711  -3.706
   56AUSL   AUS  141   0.165   0.261  -0.676
   57AUSL   AUS  142  -0.163  -0.042  -0.676
   58AUL    AUL  143   0.001   0.109  -0.984
   59THSLK  S    144  -0.255  -0.098  -0.908
   60ETHY   C1   145  -0.390  -0.376  -1.241
   62ETHY   C1   146  -0.551  -0.629  -1.683
   64ETHY   C1   147  -0.703  -0.786  -2.162
   66ETHY   C1   148  -0.839  -0.855  -2.663
   68ETHY   C1   149  -0.956  -0.829  -3.177
   70ETHY   C1   150  -1.049  -0.710  -3.695
   72THSLK  S    151   0.267   0.215  -0.922
   73ETHY   C1   152   0.413   0.065  -1.326
   75ETHY   C1   153   0.575  -0.026  -1.827
   77ETHY   C1   154   0.722  -0.016  -2.332
   79ETHY   C1   155   0.855   0.085  -2.828
   81ETHY   C1   156   0.972   0.280  -3.305
   83ETHY   C1   157   1.073   0.566  -3.751
   56AUSL   AUS  158  -0.408   0.109   0.578
   57AUSL   AUS  159  -0.264   0.526   0.508
   58AUL    AUL  160  -0.490   0.413   0.792
   59THSLK  S    161  -0.510   0.057   0.814
   60ETHY   C1   162  -0.722  -0.163   1.149
   62ETHY   C1   163  -0.988  -0.340   1.577
   64ETHY   C1   164  -1.260  -0.416   2.021
   66ETHY   C1   165  -1.534  -0.399   2.468
   68ETHY   C1   166  -1.805  -0.286   2.906
   70ETHY   C1   167  -2.070  -0.077   3.327
   72THSLK  S    168  -0.381   0.650   0.697
   73ETHY   C1   169  -0.424   0.793   1.127
   75ETHY   C1   170  -0.535   1.018   1.599
   77ETHY   C1   171  -0.711   1.295   2.010
   79ETHY   C1   172  -0.942   1.611   2.358
   81ETHY   C1   173  -1.228   1.959   2.633
   83ETHY   C1   174  -1.565   2.332   2.829
   56AUSL   AUS  175  -0.163  -0.042   0.671
   57AUSL   AUS  176  -0.509  -0.155   0.414
   58AUL    AUL  177  -0.490  -0.194   0.792
   59THSLK  S    178  -0.686  -0.318   0.521
   60ETHY   C1   179  -1.057  -0.575   0.577
   62ETHY   C1   180  -1.479  -0.863   0.732
   64ETHY   C1   181  -1.869  -1.118   0.977
   66ETHY   C1   182  -2.221  -1.335   1.298
   68ETHY   C1   183  -2.527  -1.506   1.693
   70ETHY   C1   184  -2.784  -1.627   2.152
   72THSLK  S    185  -0.265  -0.096   0.901
   73ETHY   C1   186  -0.411  -0.372   1.231
   75ETHY   C1   187  -0.573  -0.624   1.673
   77ETHY   C1   188  -0.720  -0.782   2.153
   79ETHY   C1   189  -0.853  -0.852   2.655
   81ETHY   C1   190  -0.970  -0.826   3.169
   83ETHY   C1   191  -1.071  -0.705   3.685
   56AUSL   AUS  192  -0.408   0.109  -0.582
   57AUSL   AUS  193  -0.264  -0.307  -0.513
   58AUL    AUL  194  -0.490  -0.194  -0.797
   59THSLK  S    195  -0.501   0.057  -0.824
   60ETHY   C1   196  -0.705  -0.163  -1.164
   62ETHY   C1   197  -0.969  -0.340  -1.594
   64ETHY   C1   198  -1.245  -0.416  -2.035
   66ETHY   C1   199  -1.522  -0.399  -2.480
   68ETHY   C1   200  -1.792  -0.286  -2.919
   70ETHY   C1   201  -2.051  -0.077  -3.344
   72THSLK  S    202  -0.435  -0.480  -0.627
   73ETHY   C1   203  -0.730  -0.806  -0.745
   75ETHY   C1   204  -1.048  -1.173  -0.967
   77ETHY   C1   205  -1.316  -1.508  -1.272
   79ETHY   C1   206  -1.530  -1.808  -1.644
   81ETHY   C1   207  -1.682  -2.066  -2.079
   83ETHY   C1   208  -1.768  -2.278  -2.568
   56AUSL   AUS  209  -0.163   0.261  -0.676
   57AUSL   AUS  210  -0.509   0.374  -0.419
   58AUL    AUL  211  -0.490   0.413  -0.797
   59THSLK  S    212  -0.636   0.501  -0.610
   60ETHY   C1   213  -0.813   0.582  -1.021
   62ETHY   C1   214  -1.084   0.722  -1.459
   64ETHY   C1   215  -1.411   0.910  -1.826
   66ETHY   C1   216  -1.780   1.139  -2.120
   68ETHY   C1   217  -2.182   1.406  -2.332
   70ETHY   C1   218  -2.611   1.708  -2.458
   72THSLK  S    219  -0.238   0.217  -0.929
   73ETHY   C1   220  -0.302   0.070  -1.355
   75ETHY   C1   221  -0.405  -0.019  -1.871
   77ETHY   C1   222  -0.532  -0.008  -2.382
   79ETHY   C1   223  -0.674   0.093  -2.876
   81ETHY   C1   224  -0.827   0.286  -3.343
   83ETHY   C1   225  -0.988   0.569  -3.773
   56AUSL   AUS  226   0.581   0.518  -0.002
   57AUSL   AUS  227   0.511   0.374  -0.419
   58AUL    AUL  228   0.795   0.600  -0.306
   59THSLK  S    229   0.689   0.473  -0.571
   60ETHY   C1   230   1.059   0.446  -0.834
   62ETHY   C1   231   1.481   0.502  -1.156
   64ETHY   C1   232   1.871   0.656  -1.475
   66ETHY   C1   233   2.223   0.893  -1.781
   68ETHY   C1   234   2.530   1.214  -2.067
   70ETHY   C1   235   2.786   1.613  -2.326
   72THSLK  S    236   0.847   0.571   0.003
   73ETHY   C1   237   1.301   0.593   0.008
   75ETHY   C1   238   1.823   0.707   0.009
   77ETHY   C1   239   2.306   0.916   0.006
   79ETHY   C1   240   2.742   1.206   0.005
   81ETHY   C1   241   3.121   1.573   0.005
   83ETHY   C1   242   3.435   2.013   0.009
   56AUSL   AUS  243   0.675   0.273  -0.154
   57AUSL   AUS  244   0.675  -0.054   0.149
   58AUL    AUL  245   0.983   0.109  -0.002
   59THSLK  S    246   0.931   0.312  -0.155
   60ETHY   C1   247   1.367   0.204  -0.219
   62ETHY   C1   248   1.893   0.166  -0.304
   64ETHY   C1   249   2.408   0.230  -0.392
   66ETHY   C1   250   2.902   0.384  -0.479
   68ETHY   C1   251   3.362   0.629  -0.560
   70ETHY   C1   252   3.781   0.961  -0.632
   72THSLK  S    253   0.902  -0.194   0.158
   73ETHY   C1   254   1.221  -0.510   0.223
   75ETHY   C1   255   1.654  -0.814   0.302
   77ETHY   C1   256   2.129  -1.024   0.382
   79ETHY   C1   257   2.632  -1.145   0.466
   81ETHY   C1   258   3.152  -1.171   0.553
   83ETHY   C1   259   3.680  -1.101   0.642
   56AUSL   AUS  260   0.675   0.273   0.149
   57AUSL   AUS  261   0.417   0.620   0.262
   58AUL    AUL  262   0.795   0.600   0.301
   59THSLK  S    263   0.600   0.734   0.421
   60ETHY   C1   264   0.983   0.852   0.635
   62ETHY   C1   265   1.401   1.075   0.883
   64ETHY   C1   266   1.760   1.380   1.117
   66ETHY   C1   267   2.057   1.753   1.335
   68ETHY   C1   268   2.282   2.187   1.533
   70ETHY   C1   269   2.429   2.675   1.710
   72THSLK  S    270   0.929   0.312   0.160
   73ETHY   C1   271   1.364   0.204   0.235
   75ETHY   C1   272   1.890   0.166   0.321
   77ETHY   C1   273   2.405   0.229   0.405
   79ETHY   C1   274   2.899   0.383   0.488
   81ETHY   C1   275   3.360   0.628   0.570
   83ETHY   C1   276   3.777   0.960   0.650
   56AUSL   AUS  277  -0.579   0.518  -0.002
   57AUSL   AUS  278  -0.509   0.374   0.414
   58AUL    AUL  279  -0.793   0.600   0.301
   59THSLK  S    280  -0.642   0.493   0.604
   60ETHY   C1   281  -0.825   0.565   1.014
   62ETHY   C1   282  -1.097   0.705   1.452
   64ETHY   C1   283  -1.422   0.896   1.819
   66ETHY   C1   284  -1.788   1.127   2.114
   68ETHY   C1   285  -2.191   1.394   2.326
   70ETHY   C1   286  -2.625   1.690   2.451
   72THSLK  S    287  -0.790   0.659   0.003
   73ETHY   C1   288  -1.012   1.056   0.008
   75ETHY   C1   289  -1.348   1.471   0.009
   77ETHY   C1   290  -1.751   1.810   0.006
   79ETHY   C1   291  -2.205   2.071   0.005
   81ETHY   C1   292  -2.704   2.245   0.005
   83ETHY   C1   293  -3.237   2.329   0.009
   56AUSL   AUS  294  -0.673   0.273  -0.154
   57AUSL   AUS  295  -0.415   0.620  -0.267
   58AUL    AUL  296  -0.793   0.600  -0.306
   59THSLK  S    297  -0.900   0.388  -0.202
   60ETHY   C1   298  -1.219   0.588  -0.456
   62ETHY   C1   299  -1.652   0.794  -0.692
   64ETHY   C1   300  -2.127   0.960  -0.844
   66ETHY   C1   301  -2.630   1.089  -0.915
   68ETHY   C1   302  -3.150   1.179  -0.900
   70ETHY   C1   303  -3.678   1.227  -0.797
   72THSLK  S    304  -0.527   0.783  -0.445
   73ETHY   C1   305  -0.606   1.093  -0.768
   75ETHY   C1   306  -0.781   1.467  -1.108
   77ETHY   C1   307  -1.035   1.835  -1.385
   79ETHY   C1   308  -1.355   2.192  -1.596
   81ETHY   C1   309  -1.736   2.530  -1.735
   83ETHY   C1   310  -2.171   2.844  -1.796
   56AUSL   AUS  311  -0.673   0.273   0.149
   57AUSL   AUS  312  -0.673  -0.054  -0.154
   58AUL    AUL  313  -0.981   0.109  -0.002
   59THSLK  S    314  -0.927  -0.127  -0.111
   60ETHY   C1   315  -1.362  -0.145   0.019
   62ETHY   C1   316  -1.888  -0.205   0.092
   64ETHY   C1   317  -2.403  -0.309   0.073
   66ETHY   C1   318  -2.897  -0.452  -0.028
   68ETHY   C1   319  -3.357  -0.635  -0.211
   70ETHY   C1   320  -3.775  -0.855  -0.471
   72THSLK  S    321  -0.901   0.379   0.202
   73ETHY   C1   322  -1.222   0.570   0.461
   75ETHY   C1   323  -1.655   0.774   0.697
   77ETHY   C1   324  -2.130   0.945   0.847
   79ETHY   C1   325  -2.632   1.077   0.917
   81ETHY   C1   326  -3.152   1.165   0.902
   83ETHY   C1   327  -3.681   1.206   0.803
   56AUSL   AUS  328   0.581  -0.300  -0.002
   57AUSL   AUS  329   0.511  -0.155   0.414
   58AUL    AUL  330   0.795  -0.381   0.301
   59THSLK  S    331   0.792  -0.441   0.003
   60ETHY   C1   332   1.014  -0.837   0.008
   62ETHY   C1   333   1.350  -1.252   0.009
   64ETHY   C1   334   1.753  -1.591   0.006
   66ETHY   C1   335   2.207  -1.852   0.005
   68ETHY   C1   336   2.706  -2.026   0.005
   70ETHY   C1   337   3.239  -2.110   0.009
   72THSLK  S    338   0.638  -0.346   0.559
   73ETHY   C1   339   0.815  -0.711   0.765
   75ETHY   C1   340   1.086  -1.083   1.035
   77ETHY   C1   341   1.413  -1.372   1.329
   79ETHY   C1   342   1.782  -1.580   1.637
   81ETHY   C1   343   2.184  -1.698   1.957
   83ETHY   C1   344   2.613  -1.723   2.284
   56AUSL   AUS  345   0.675  -0.054  -0.154
   57AUSL   AUS  346   0.417  -0.401  -0.267
   58AUL    AUL  347   0.795  -0.381  -0.306
   59THSLK  S    348   0.903  -0.194  -0.152
   60ETHY   C1   349   1.224  -0.511  -0.207
   62ETHY   C1   350   1.657  -0.814  -0.284
   64ETHY   C1   351   2.132  -1.024  -0.369
   66ETHY   C1   352   2.634  -1.145  -0.457
   68ETHY   C1   353   3.154  -1.172  -0.542
   70ETHY   C1   354   3.683  -1.101  -0.624
   72THSLK  S    355   0.533  -0.590  -0.397
   73ETHY   C1   356   0.617  -1.019  -0.521
   75ETHY   C1   357   0.792  -1.491  -0.702
   77ETHY   C1   358   1.045  -1.902  -0.912
   79ETHY   C1   359   1.363  -2.250  -1.139
   81ETHY   C1   360   1.745  -2.525  -1.379
   83ETHY   C1   361   2.183  -2.722  -1.625
   56AUSL   AUS  362  -0.579  -0.300  -0.002
   57AUSL   AUS  363  -0.509  -0.155  -0.419
   58AUL    AUL  364  -0.793  -0.381  -0.306
   59THSLK  S    365  -0.680  -0.326  -0.527
   60ETHY   C1   366  -1.044  -0.591  -0.584
   62ETHY   C1   367  -1.466  -0.881  -0.739
   64ETHY   C1   368  -1.858  -1.133  -0.984
   66ETHY   C1   369  -2.212  -1.346  -1.305
   68ETHY   C1   370  -2.519  -1.519  -1.699
   70ETHY   C1   371  -2.770  -1.646  -2.159
   72THSLK  S    372  -0.845  -0.352   0.003
   73ETHY   C1   373  -1.299  -0.374   0.008
   75ETHY   C1   374  -1.821  -0.488   0.009
   77ETHY   C1   375  -2.303  -0.697   0.006
   79ETHY   C1   376  -2.740  -0.987   0.005
   81ETHY   C1   377  -3.119  -1.354   0.005
   83ETHY   C1   378  -3.432  -1.794   0.009
   56AUSL   AUS  379  -0.673  -0.054   0.149
   57AUSL   AUS  380  -0.415  -0.401   0.262
   58AUL    AUL  381  -0.793  -0.381   0.301
   59THSLK  S    382  -0.603  -0.541   0.373
   60ETHY   C1   383  -0.990  -0.778   0.388
   62ETHY   C1   384  -1.408  -1.098   0.477
   64ETHY   C1   385  -1.766  -1.447   0.644
   66ETHY   C1   386  -2.061  -1.811   0.877
   68ETHY   C1   387  -2.286  -2.182   1.178
   70ETHY   C1   388  -2.437  -2.553   1.540
   72THSLK  S    389  -0.929  -0.117   0.111
   73ETHY   C1   390  -1.365  -0.127  -0.014
   75ETHY   C1   391  -1.891  -0.186  -0.086
   77ETHY   C1   392  -2.406  -0.293  -0.069
   79ETHY   C1   393  -2.900  -0.439   0.030
   81ETHY   C1   394  -3.360  -0.621   0.213
   83ETHY   C1   395  -3.779  -0.834   0.478
   56AUSL   AUS  396   0.001   0.689   0.407
   57AUSL   AUS  397  -0.415   0.620   0.262
   58AUL    AUL  398  -0.302   0.904   0.488
   59THSLK  S    399  -0.531   0.776   0.447
   60ETHY   C1   400  -0.615   1.078   0.775
   62ETHY   C1   401  -0.790   1.451   1.116
   64ETHY   C1   402  -1.043   1.822   1.390
   66ETHY   C1   403  -1.361   2.181   1.600
   68ETHY   C1   404  -1.743   2.519   1.739
   70ETHY   C1   405  -2.181   2.827   1.804
   72THSLK  S    406   0.043   0.911   0.530
   73ETHY   C1   407   0.227   1.186   0.842
   75ETHY   C1   408   0.377   1.566   1.186
   77ETHY   C1   409   0.443   1.989   1.493
   79ETHY   C1   410   0.430   2.440   1.759
   81ETHY   C1   411   0.333   2.909   1.980
   83ETHY   C1   412   0.153   3.388   2.151
   56AUSL   AUS  413  -0.151   0.783   0.161
   57AUSL   AUS  414   0.153   0.783  -0.166
   58AUL    AUL  415   0.001   1.091  -0.002
   59THSLK  S    416  -0.108   1.027   0.271
   60ETHY   C1   417   0.036   1.421   0.446
   62ETHY   C1   418   0.123   1.915   0.632
   64ETHY   C1   419   0.111   2.416   0.789
   66ETHY   C1   420   0.010   2.914   0.920
   68ETHY   C1   421  -0.182   3.395   1.022
   70ETHY   C1   422  -0.462   3.850   1.095
   72THSLK  S    423   0.208   1.014  -0.262
   73ETHY   C1   424   0.484   1.344  -0.409
   75ETHY   C1   425   0.734   1.785  -0.578
   77ETHY   C1   426   0.890   2.262  -0.734
   79ETHY   C1   427   0.959   2.764  -0.870
   81ETHY   C1   428   0.935   3.280  -0.980
   83ETHY   C1   429   0.818   3.800  -1.062
   56AUSL   AUS  430   0.153   0.783   0.161
   57AUSL   AUS  431   0.266   0.526   0.508
   58AUL    AUL  432   0.304   0.904   0.488
   59THSLK  S    433   0.437   0.634   0.678
   60ETHY   C1   434   0.732   0.699   1.018
   62ETHY   C1   435   1.050   0.861   1.415
   64ETHY   C1   436   1.318   1.110   1.793
   66ETHY   C1   437   1.532   1.432   2.148
   68ETHY   C1   438   1.684   1.820   2.471
   70ETHY   C1   439   1.770   2.270   2.757
   72THSLK  S    440   0.206   1.012   0.267
   73ETHY   C1   441   0.478   1.340   0.424
   75ETHY   C1   442   0.728   1.780   0.595
   77ETHY   C1   443   0.886   2.259   0.746
   79ETHY   C1   444   0.955   2.761   0.878
   81ETHY   C1   445   0.931   3.276   0.989
   83ETHY   C1   446   0.812   3.795   1.080
   56AUSL   AUS  447   0.001  -0.471   0.407
   57AUSL   AUS  448   0.417  -0.401   0.262
   58AUL    AUL  449   0.304  -0.685   0.488
   59THSLK  S    450  -0.046  -0.721   0.484
   60ETHY   C1   451  -0.236  -1.117   0.598
   62ETHY   C1   452  -0.387  -1.595   0.784
   64ETHY   C1   453  -0.450  -2.060   1.023
   66ETHY   C1   454  -0.435  -2.502   1.304
   68ETHY   C1   455  -0.339  -2.909   1.627
   70ETHY   C1   456  -0.164  -3.272   1.984
   72THSLK  S    457   0.529  -0.588   0.402
   73ETHY   C1   458   0.608  -1.016   0.535
   75ETHY   C1   459   0.783  -1.486   0.717
   77ETHY   C1   460   1.037  -1.898   0.923
   79ETHY   C1   461   1.357  -2.247   1.147
   81ETHY   C1   462   1.738  -2.522   1.388
   83ETHY   C1   463   2.173  -2.718   1.642
   56AUSL   AUS  464  -0.151  -0.564   0.161
   57AUSL   AUS  465  -0.264  -0.307   0.508
   58AUL    AUL  466  -0.302  -0.685   0.488
   59THSLK  S    467  -0.206  -0.800   0.240
   60ETHY   C1   468  -0.481  -1.159   0.283
   62ETHY   C1   469  -0.732  -1.624   0.364
   64ETHY   C1   470  -0.888  -2.114   0.476
   66ETHY   C1   471  -0.957  -2.613   0.617
   68ETHY   C1   472  -0.933  -3.113   0.787
   70ETHY   C1   473  -0.816  -3.601   0.984
   72THSLK  S    474  -0.442  -0.473   0.624
   73ETHY   C1   475  -0.744  -0.791   0.743
   75ETHY   C1   476  -1.063  -1.158   0.966
   77ETHY   C1   477  -1.328  -1.495   1.271
   79ETHY   C1   478  -1.540  -1.797   1.642
   81ETHY   C1   479  -1.693  -2.055   2.077
   83ETHY   C1   480  -1.784  -2.262   2.567
   56AUSL   AUS  481   0.153  -0.564   0.161
   57AUSL   AUS  482  -0.151  -0.564  -0.166
   58AUL    AUL  483   0.001  -0.872  -0.002
   59THSLK  S    484  -0.204  -0.803  -0.235
   60ETHY   C1   485  -0.476  -1.165  -0.269
   62ETHY   C1   486  -0.726  -1.630  -0.348
   64ETHY   C1   487  -0.883  -2.119  -0.464
   66ETHY   C1   488  -0.953  -2.618  -0.609
   68ETHY   C1   489  -0.929  -3.117  -0.778
   70ETHY   C1   490  -0.810  -3.608  -0.967
   72THSLK  S    491   0.107  -0.816   0.244
   73ETHY   C1   492  -0.040  -1.242   0.306
   75ETHY   C1   493  -0.126  -1.760   0.401
   77ETHY   C1   494  -0.114  -2.273   0.520
   79ETHY   C1   495  -0.012  -2.768   0.660
   81ETHY   C1   496   0.180  -3.233   0.820
   83ETHY   C1   497   0.458  -3.659   0.999
   56AUSL   AUS  498   0.001   0.689  -0.411
   57AUSL   AUS  499   0.417   0.620  -0.267
   58AUL    AUL  500   0.304   0.904  -0.493
   59THSLK  S    501   0.048   0.916  -0.528
   60ETHY   C1   502   0.238   1.195  -0.831
   62ETHY   C1   503   0.389   1.576  -1.175
   64ETHY   C1   504   0.453   1.996  -1.484
   66ETHY   C1   505   0.437   2.446  -1.753
   68ETHY   C1   506   0.341   2.916  -1.973
   70ETHY   C1   507   0.166   3.399  -2.139
   72THSLK  S    508   0.605   0.736  -0.416
   73ETHY   C1   509   0.992   0.856  -0.622
   75ETHY   C1   510   1.410   1.079  -0.868
   77ETHY   C1   511   1.768   1.383  -1.105
   79ETHY   C1   512   2.063   1.755  -1.327
   81ETHY   C1   513   2.288   2.190  -1.524
   83ETHY   C1   514   2.439   2.679  -1.694
   56AUSL   AUS  515  -0.151   0.783  -0.166
   57AUSL   AUS  516  -0.264   0.526  -0.513
   58AUL    AUL  517  -0.302   0.904  -0.493
   59THSLK  S    518  -0.105   1.030  -0.266
   60ETHY   C1   519   0.042   1.427  -0.431
   62ETHY   C1   520   0.128   1.921  -0.616
   64ETHY   C1   521   0.116   2.422  -0.778
   66ETHY   C1   522   0.014   2.918  -0.912
   68ETHY   C1   523  -0.178   3.399  -1.013
   70ETHY   C1   524  -0.456   3.857  -1.078
   72THSLK  S    525  -0.374   0.658  -0.700
   73ETHY   C1   526  -0.410   0.807  -1.128
   75ETHY   C1   527  -0.520   1.033  -1.599
   77ETHY   C1   528  -0.698   1.308  -2.011
   79ETHY   C1   529  -0.932   1.621  -2.360
   81ETHY   C1   530  -1.218   1.970  -2.635
   83ETHY   C1   531  -1.549   2.348  -2.830
   56AUSL   AUS  532   0.001  -0.471  -0.411
   57AUSL   AUS  533  -0.415  -0.401  -0.267
   58AUL    AUL  534  -0.302  -0.685  -0.493
   59THSLK  S    535  -0.598  -0.549  -0.371
   60ETHY   C1   536  -0.981  -0.793  -0.381
   62ETHY   C1   537  -1.399  -1.114  -0.470
   64ETHY   C1   538  -1.758  -1.460  -0.639
   66ETHY   C1   539  -2.055  -1.821  -0.874
   68ETHY   C1   540  -2.280  -2.193  -1.174
   70ETHY   C1   541  -2.427  -2.570  -1.531
   72THSLK  S    542  -0.041  -0.726  -0.481
   73ETHY   C1   543  -0.225  -1.127  -0.588
   75ETHY   C1   544  -0.375  -1.605  -0.773
   77ETHY   C1   545  -0.441  -2.068  -1.014
   79ETHY   C1   546  -0.428  -2.508  -1.299
   81ETHY   C1   547  -0.331  -2.915  -1.620
   83ETHY   C1   548  -0.151  -3.283  -1.972
   56AUSL   AUS  549   0.153  -0.564  -0.166
   57AUSL   AUS  550   0.266  -0.307  -0.513
   58AUL    AUL  551   0.304  -0.685  -0.493
   59THSLK  S    552   0.110  -0.818  -0.239
   60ETHY   C1   553  -0.034  -1.246  -0.292
   62ETHY   C1   554  -0.121  -1.765  -0.385
   64ETHY   C1   555  -0.109  -2.277  -0.508
   66ETHY   C1   556  -0.008  -2.771  -0.651
   68ETHY   C1   557   0.184  -3.236  -0.810
   70ETHY   C1   558   0.464  -3.664  -0.982
   72THSLK  S    559   0.383  -0.497  -0.646
   73ETHY   C1   560   0.427  -0.899  -0.854
   75ETHY   C1   561   0.537  -1.330  -1.150
   77ETHY   C1   562   0.713  -1.693  -1.488
   79ETHY   C1   563   0.944  -1.987  -1.854
   81ETHY   C1   564   1.230  -2.204  -2.241
   83ETHY   C1   565   1.567  -2.340  -2.640
  11.04408  11.02087  11.03325   0.00000   0.00000   0.00000   0.00000   0.00000   0.00000
