Protein in INSANE! Membrane UpperLeaflet>POPC=1.0 LowerLeaflet>POPC=1.0
11125
    1AU     AUC    1   1.027   6.467   6.395  0.0639  0.0163  0.0677
    1AU     AUC    2   0.747   6.537   6.279  0.1146 -0.0281 -0.0311
    1AU     AUC    3   0.953   6.317   6.122  0.0112  0.0298 -0.0345
    1AU     AUC    4   1.117   6.597   6.677 -0.0279  0.0031  0.0678
    1AU     AUC    5   1.346   6.432   6.446  0.0214 -0.0724 -0.0888
    1AU     AUC    6   1.248   6.708   6.362  0.0840  0.0297 -0.0237
    1AU     AUC    7   1.006   6.665   6.119  0.0238  0.1299 -0.0476
    1AU     AUC    8   1.080   6.282   6.615  0.0360 -0.0998  0.0218
    1AU     AUC    9   0.828   6.212   6.408  0.0830  0.0977 -0.0116
    1AU     AUC   10   1.123   6.160   6.327 -0.0495 -0.0334  0.0150
    1AU     AUC   11   1.249   6.459   6.139  0.0027 -0.0142 -0.0083
    1AU     AUC   12   0.816   6.528   6.610 -0.1665  0.0429 -0.0152
    1AU     AUC   13   0.916   6.746   6.422  0.0013  0.0950  0.0104
    1AU     AUC   14   0.395   6.596   6.136  0.0327 -0.0242 -0.0443
    1AU     AUC   15   0.588   6.374   5.960 -0.0605 -0.0279 -0.0570
    1AU     AUC   16   0.842   6.141   5.805 -0.0055 -0.0938 -0.0065
    1AU     AUC   17   1.239   6.732   6.991  0.0519 -0.0045 -0.0991
    1AU     AUC   18   1.511   6.550   6.779  0.0902  0.0081  0.0972
    1AU     AUC   19   1.693   6.378   6.569 -0.0694  0.0614  0.0002
    1AU     AUC   20   1.476   6.988   6.331 -0.0098 -0.0234 -0.0485
    1AU     AUC   21   1.225   6.992   6.083  0.1548 -0.0572 -0.0906
    1AU     AUC   22   1.003   6.883   5.869  0.0485  0.0387 -0.0931
    1AU     AUC   23   1.136   6.071   6.893  0.0441 -0.0966 -0.0200
    1AU     AUC   24   0.881   5.989   6.684  0.0270  0.0090 -0.0572
    1AU     AUC   25   0.579   5.950   6.464  0.0506  0.0618  0.0746
    1AU     AUC   26   1.269   5.837   6.249 -0.0303 -0.0309  0.0467
    1AU     AUC   27   1.401   6.118   6.091  0.0746 -0.0026  0.0488
    1AU     AUC   28   1.504   6.433   5.902 -0.0492  0.0772  0.0584
    1AU     AUC   29   0.567   6.509   6.822  0.0494  0.0051 -0.0351
    1AU     AUC   30   0.636   6.813   6.667 -0.0373 -0.0907  0.0532
    1AU     AUC   31   0.793   7.059   6.488  0.0577 -0.0990 -0.0743
    1AU     AUC   32   1.063   5.936   6.043  0.1332 -0.0366  0.0704
    1AU     AUC   33   1.158   6.254   5.827 -0.0565 -0.0360 -0.0044
    1AU     AUC   34   0.439   6.588   6.484  0.1228  0.0804 -0.0082
    1AU     AUC   35   0.551   6.871   6.291 -0.0041  0.0621  0.0518
    1AU     AUC   36   1.517   6.132   6.380  0.0358  0.0370 -0.0791
    1AU     AUC   37   1.634   6.425   6.205  0.0763  0.0050 -0.1169
    1AU     AUC   38   0.880   6.631   6.919 -0.1779 -0.0466  0.0105
    1AU     AUC   39   1.004   6.913   6.787  0.0341 -0.0006  0.0244
    1AU     AUC   40   0.684   6.748   5.941  0.0278 -0.0332  0.0476
    1AU     AUC   41   0.894   6.501   5.814 -0.0269 -0.0330 -0.0334
    1AU     AUC   42   1.376   6.847   6.652 -0.0677  0.0456  0.0790
    1AU     AUC   43   1.622   6.697   6.428  0.0044 -0.0248 -0.0921
    1AU     AUC   44   0.486   6.292   6.292 -0.1301  0.0232 -0.0937
    1AU     AUC   45   0.692   6.016   6.150  0.0133 -0.0177 -0.0752
    1AU     AUC   46   1.191   6.395   6.968 -0.0097  0.0077  0.0663
    1AU     AUC   47   1.410   6.221   6.702 -0.0503  0.0639 -0.0456
    1AU     AUC   48   1.510   6.742   6.077 -0.0188  0.0539  0.0907
    1AU     AUC   49   1.239   6.659   5.861 -0.0621 -0.0331 -0.0198
    1AU     AUC   50   1.209   5.951   6.586  0.0041 -0.0463  0.0618
    1AU     AUC   51   0.940   5.872   6.400 -0.0473  0.0200 -0.0442
    1AU     AUC   52   1.143   7.010   6.450 -0.0188 -0.0118  0.1046
    1AU     AUC   53   0.873   7.007   6.168  0.0619  0.0170 -0.1293
    1AU     AUC   54   0.835   6.284   6.911  0.0238  0.0688  0.0548
    1AU     AUC   55   0.563   6.245   6.618 -0.0036 -0.0538  0.0169
    1AU    AUSL   56   1.083   5.854   5.661 -0.0550  0.0820  0.1074
    1AU    AUSL   57   1.022   5.564   6.052 -0.0116 -0.0677  0.1072
    1AU     AUL   58   0.927   5.584   5.662  0.0019  0.0119 -0.0571
    1AU       S   59   0.718   5.285   5.962  0.2304 -0.0866 -0.2528
    1AU     LIG   60   0.547   4.954   6.126  0.1952  0.1442 -0.0594
    1AU     LIG   61   0.201   4.729   6.330  0.1478  0.1294  0.1231
    1AU     LIG   62  -0.010   4.440   6.353 -0.2061  0.4331 -0.1718
    1AU     LIG   63  -0.089   4.099   6.479  0.3906 -0.1134  0.2159
    1AU       S   64   1.376   5.468   5.580 -0.2701 -0.1352  0.0513
    1AU     LIG   65   1.489   5.064   5.534 -0.1019 -0.1956 -0.1971
    1AU     LIG   66   1.461   4.621   5.802  0.2059  0.0189 -0.2476
    1AU     LIG   67   1.692   4.223   5.626  0.0364  0.2441  0.0830
    1AU     LIG   68   2.063   4.107   5.630 -0.0498 -0.0333  0.0969
    1AU    AUSL   69   1.418   5.767   5.964 -0.0306  0.0954 -0.0077
    1AU    AUSL   70   1.778   6.095   5.911 -0.0740 -0.0605  0.0487
    1AU     AUL   71   1.676   5.843   5.715  0.0927  0.0558  0.0146
    1AU       S   72   1.472   5.514   5.940 -0.2248 -0.1718 -0.0530
    1AU     LIG   73   1.701   5.118   6.021 -0.4177  0.0294 -0.1437
    1AU     LIG   74   1.783   4.686   6.202 -0.0728 -0.0431  0.0134
    1AU     LIG   75   2.027   4.274   6.084  0.2120 -0.1018 -0.1137
    1AU     LIG   76   2.398   3.962   5.948  0.5073 -0.2648 -0.0362
    1AU       S   77   2.075   5.759   5.960  0.4807 -0.2452 -0.0253
    1AU     LIG   78   2.441   5.451   5.884 -0.5663 -0.3365 -0.1191
    1AU     LIG   79   2.459   5.181   5.577 -0.4454 -0.1682  0.0197
    1AU     LIG   80   2.646   4.796   5.319 -0.0577  0.2672 -0.2963
    1AU     LIG   81   2.630   4.576   5.008 -0.1320  0.0658 -0.1190
    1AU    AUSL   82   1.376   6.176   5.807  0.0184  0.0306  0.0015
    1AU    AUSL   83   1.033   6.258   5.476  0.0378  0.0437  0.0620
    1AU     AUL   84   1.303   5.978   5.466 -0.0336 -0.0362  0.0828
    1AU       S   85   1.821   6.208   5.467  0.0667  0.0335  0.2162
    1AU     LIG   86   2.071   6.216   5.135  0.2100 -0.2154 -0.0342
    1AU     LIG   87   2.457   6.160   5.338 -0.3057 -0.0900 -0.0391
    1AU     LIG   88   2.662   6.175   5.764 -0.4803  0.1115  0.2038
    1AU     LIG   89   3.081   6.369   6.116  0.1556 -0.2053 -0.2235
    1AU       S   90   1.104   6.247   5.175 -0.3982  0.0846  0.2661
    1AU     LIG   91   0.857   6.131   4.878 -0.1009  0.2738 -0.0964
    1AU     LIG   92   0.625   5.707   4.893 -0.2719  0.2518 -0.1957
    1AU     LIG   93   0.620   5.256   4.925 -0.1017 -0.0244  0.2978
    1AU     LIG   94   0.918   4.884   4.914  0.6209 -0.0049  0.0060
    1AU    AUSL   95   0.205   6.923   6.293  0.0431  0.0330  0.0254
    1AU    AUSL   96   0.530   7.221   6.170  0.1040  0.0588 -0.0174
    1AU     AUL   97   0.138   7.188   5.995 -0.0569  0.0166 -0.1197
    1AU       S   98   0.142   7.249   6.472  0.2734  0.1433 -0.3516
    1AU     LIG   99  -0.119   7.618   6.389 -0.0530  0.1155  0.1690
    1AU     LIG  100  -0.323   8.032   6.483 -0.3935 -0.2163 -0.0778
    1AU     LIG  101  -0.581   8.266   6.290  0.1091  0.3551 -0.1975
    1AU     LIG  102  -0.980   8.353   6.167 -0.0161  0.0249 -0.1190
    1AU       S  103   0.467   7.444   5.803  0.4508  0.1536 -0.0718
    1AU     LIG  104   0.146   7.833   5.820  0.0120 -0.1583  0.1569
    1AU     LIG  105   0.045   8.191   5.980 -0.1092 -0.1208 -0.1924
    1AU     LIG  106  -0.208   8.519   6.150 -0.2607  0.2895  0.4273
    1AU     LIG  107  -0.235   9.029   6.233  0.1341 -0.1381 -0.1510
    1AU    AUSL  108   0.175   6.790   6.715  0.0524  0.0439 -0.0083
    1AU    AUSL  109   0.108   6.510   6.355 -0.0338 -0.0409 -0.1445
    1AU     AUL  110  -0.026   6.780   6.421  0.0708 -0.0291  0.0652
    1AU       S  111  -0.195   6.384   6.544  0.5027 -0.0113 -0.0358
    1AU     LIG  112  -0.592   6.327   6.285  0.1950 -0.1484  0.1796
    1AU     LIG  113  -0.976   6.139   6.027  0.1526 -0.3168  0.0917
    1AU     LIG  114  -1.265   5.822   5.809  0.0571 -0.0425 -0.0079
    1AU     LIG  115  -1.564   5.813   5.527  0.1895 -0.2059  0.1145
    1AU       S  116  -0.034   7.212   6.659 -0.0415  0.0318  0.0312
    1AU     LIG  117  -0.464   7.342   6.755  0.1440 -0.3227 -0.3262
    1AU     LIG  118  -0.679   7.650   6.360  0.0635 -0.0520  0.1386
    1AU     LIG  119  -0.981   7.847   6.142  0.2025  0.3296  0.2318
    1AU     LIG  120  -1.313   7.440   5.966  0.0714 -0.0866 -0.0033
    1AU    AUSL  121   0.542   7.047   6.570 -0.0189  0.0960  0.0019
    1AU    AUSL  122   0.549   6.781   6.952 -0.0277 -0.0089  0.0167
    1AU     AUL  123   0.283   6.967   6.901  0.0205 -0.1046  0.0925
    1AU       S  124   0.424   7.114   7.324 -0.3573  0.4308  0.3547
    1AU     LIG  125   0.241   7.316   7.548  0.3266  0.2581  0.0339
    1AU     LIG  126   0.232   7.744   7.617 -0.0893 -0.0687  0.1131
    1AU     LIG  127   0.210   8.156   7.516 -0.1560  0.3669  0.2230
    1AU     LIG  128   0.139   8.360   7.813  0.1279 -0.0633  0.0793
    1AU       S  129   0.354   7.328   6.603 -0.1944 -0.1394 -0.0272
    1AU     LIG  130   0.282   7.742   6.723  0.5284  0.4043  0.3163
    1AU     LIG  131   0.296   7.913   6.327  0.1672  0.3136 -0.2128
    1AU     LIG  132   0.526   8.073   5.967 -0.0922  0.2253 -0.3352
    1AU     LIG  133   0.383   8.219   5.592 -0.2177 -0.0716 -0.0054
    1AU    AUSL  134   1.952   6.196   6.300 -0.0057 -0.0015 -0.0367
    1AU    AUSL  135   1.826   6.525   5.979 -0.0350 -0.1281 -0.0162
    1AU     AUL  136   2.076   6.316   5.914 -0.0389  0.0035 -0.0662
    1AU       S  137   2.291   5.903   6.145 -0.2602  0.0519 -0.1896
    1AU     LIG  138   2.748   5.843   6.101  0.0373 -0.5898 -0.0280
    1AU     LIG  139   3.213   5.973   5.888 -0.2366  0.1702 -0.1094
    1AU     LIG  140   3.637   6.220   6.088  0.3115 -0.0007  0.4254
    1AU     LIG  141   3.602   6.788   6.279  0.3490  0.1150  0.1015
    1AU       S  142   2.244   6.735   6.068  0.4867 -0.0075  0.0297
    1AU     LIG  143   2.636   6.941   5.954  0.2227 -0.0211  0.0920
    1AU     LIG  144   2.868   7.258   5.816  0.1081  0.4243 -0.1742
    1AU     LIG  145   3.135   7.459   5.578 -0.1322  0.4713 -0.3637
    1AU     LIG  146   3.479   7.609   5.693  0.2212 -0.0520 -0.2557
    1AU    AUSL  147   1.558   6.002   6.276  0.0353  0.0020 -0.0191
    1AU    AUSL  148   1.816   5.982   6.661  0.0741 -0.0042  0.0270
    1AU     AUL  149   1.915   5.930   6.413 -0.0386  0.0867 -0.0179
    1AU       S  150   1.980   5.688   6.809  0.2766  0.0887 -0.1925
    1AU     LIG  151   2.412   5.639   6.496 -0.3863  0.0280  0.4902
    1AU     LIG  152   2.854   5.496   6.409 -0.4910 -0.1916 -0.0500
    1AU     LIG  153   2.984   5.162   6.436 -0.2198  0.0625  0.0525
    1AU     LIG  154   2.918   4.807   6.612 -0.2074  0.2762 -0.3152
    1AU       S  155   1.933   5.639   6.060 -0.1627 -0.3521 -0.1494
    1AU     LIG  156   2.122   5.263   6.262 -0.1091  0.0976 -0.2017
    1AU     LIG  157   2.421   4.927   6.418 -0.0951 -0.0005  0.3638
    1AU     LIG  158   2.590   4.575   6.319  0.3679  0.1434 -0.1315
    1AU     LIG  159   2.596   4.234   6.313  0.3233 -0.4303  0.2551
    1AU    AUSL  160   0.915   6.907   7.168  0.0314 -0.1031 -0.0617
    1AU    AUSL  161   0.743   6.442   7.114  0.0982  0.0214  0.0059
    1AU     AUL  162   0.573   6.689   7.263 -0.0538 -0.0458  0.0217
    1AU       S  163   0.645   7.105   7.402  0.2490 -0.2410 -0.1116
    1AU     LIG  164   0.680   7.407   7.777 -0.1467 -0.5445  0.2833
    1AU     LIG  165   0.627   7.616   8.201 -0.0798 -0.1020  0.0241
    1AU     LIG  166   0.885   8.027   8.391 -0.0614  0.0610 -0.2910
    1AU     LIG  167   1.138   8.346   8.694 -0.0804 -0.0789  0.2322
    1AU       S  168   0.867   6.496   7.564  0.2430 -0.0644 -0.2301
    1AU     LIG  169   0.655   6.607   7.904 -0.0380 -0.0417 -0.4390
    1AU     LIG  170   0.462   6.955   7.925  0.0821 -0.0761  0.0618
    1AU     LIG  171   0.332   7.176   8.175  0.1226  0.1529  0.0818
    1AU     LIG  172   0.084   7.532   8.081  0.3333  0.1002  0.1738
    1AU    AUSL  173   0.685   7.223   6.923  0.0714 -0.0178  0.0199
    1AU    AUSL  174   1.288   7.112   7.084  0.0015 -0.0221  0.0196
    1AU     AUL  175   0.998   7.280   7.158 -0.0360 -0.1509  0.0267
    1AU       S  176   1.493   7.352   7.316 -0.1724  0.1116 -0.0331
    1AU     LIG  177   1.928   7.619   7.181  0.1372  0.2351  0.0424
    1AU     LIG  178   2.081   8.007   7.269 -0.2811 -0.0816  0.0091
    1AU     LIG  179   2.070   8.453   6.949 -0.0668 -0.2696 -0.3972
    1AU     LIG  180   2.027   8.791   6.631  0.5116  0.2215 -0.0215
    1AU       S  181   0.517   7.300   7.129  0.1561 -0.3790 -0.0510
    1AU     LIG  182   0.530   7.737   7.206 -0.1596 -0.0552  0.0205
    1AU     LIG  183   0.633   8.174   7.202 -0.3172  0.1404 -0.0905
    1AU     LIG  184   0.579   8.700   7.281  0.0584  0.5484 -0.0557
    1AU     LIG  185   0.277   9.071   7.225 -0.1906  0.3556  0.2987
    1AU    AUSL  186   0.678   6.791   5.548  0.1952 -0.0353 -0.0449
    1AU    AUSL  187   0.451   6.814   5.968  0.0453  0.0963 -0.0502
    1AU     AUL  188   0.350   6.927   5.639  0.0262  0.0463 -0.0079
    1AU       S  189   0.467   7.362   5.677 -0.4081 -0.2080 -0.1071
    1AU     LIG  190   0.410   7.375   5.180 -0.0112 -0.1444 -0.0265
    1AU     LIG  191   0.236   7.099   4.772  0.1739  0.1894  0.2045
    1AU     LIG  192   0.473   7.014   4.355  0.1183 -0.1207 -0.1655
    1AU     LIG  193   0.480   7.048   3.930 -0.0679  0.0801 -0.4022
    1AU       S  194   0.455   6.703   5.239 -0.4282  0.0270  0.0547
    1AU     LIG  195   0.651   6.842   4.864  0.0100  0.0078 -0.2378
    1AU     LIG  196   0.948   6.662   4.746  0.0638  0.0144  0.4042
    1AU     LIG  197   1.180   6.369   4.587 -0.1956  0.1359  0.1255
    1AU     LIG  198   1.357   6.016   4.820 -0.0565  0.2157  0.6318
    1AU    AUSL  199   0.288   6.503   5.716 -0.0236 -0.0745  0.1370
    1AU    AUSL  200   0.429   6.060   5.738 -0.0393 -0.0196 -0.0346
    1AU     AUL  201   0.104   6.207   5.652  0.0135 -0.0907  0.0463
    1AU       S  202   0.331   6.496   5.372 -0.5017 -0.4028 -0.2208
    1AU     LIG  203  -0.039   6.735   5.217  0.0785 -0.0736 -0.0066
    1AU     LIG  204  -0.322   6.919   5.546 -0.1761  0.0482  0.2366
    1AU     LIG  205  -0.415   7.276   5.667  0.0236 -0.1468 -0.4654
    1AU     LIG  206  -0.780   7.397   5.956 -0.2737  0.4265  0.2028
    1AU       S  207   0.046   5.734   5.776 -0.2214 -0.5432 -0.1518
    1AU     LIG  208  -0.094   5.454   5.474  0.3803 -0.0807  0.0709
    1AU     LIG  209  -0.246   4.992   5.474  0.0525  0.2728  0.1370
    1AU     LIG  210  -0.302   4.517   5.636 -0.1552 -0.1994  0.2167
    1AU     LIG  211  -0.073   4.139   5.893  0.0436  0.0703 -0.0105
    1AU    AUSL  212   0.703   6.378   5.709 -0.0286 -0.0021  0.0413
    1AU    AUSL  213   1.070   6.658   5.674 -0.0337 -0.0363  0.0128
    1AU     AUL  214   0.875   6.604   5.394  0.0776 -0.0413  0.0649
    1AU       S  215   1.214   6.563   5.104 -0.0082  0.0993  0.2738
    1AU     LIG  216   1.481   6.833   4.822  0.0122 -0.0861  0.2738
    1AU     LIG  217   1.893   7.057   4.917  0.0372 -0.1889 -0.1036
    1AU     LIG  218   2.234   7.055   5.249  0.2050 -0.1082 -0.1395
    1AU     LIG  219   2.321   7.194   5.664 -0.3479 -0.0590  0.2992
    1AU       S  220   0.498   6.318   5.337  0.0052 -0.1966 -0.0836
    1AU     LIG  221   0.389   6.189   4.985  0.3364 -0.0418  0.2919
    1AU     LIG  222   0.173   5.861   4.855 -0.3264  0.2101  0.1421
    1AU     LIG  223  -0.129   5.634   5.005 -0.1059  0.2019 -0.0342
    1AU     LIG  224  -0.378   5.365   4.977  0.0680  0.5252 -0.1015
    1AU    AUSL  225   1.696   6.994   6.527  0.0097  0.0104 -0.0093
    1AU    AUSL  226   1.885   6.600   6.414 -0.0106 -0.0514  0.0554
    1AU     AUL  227   2.032   6.993   6.568  0.0069 -0.0151 -0.1207
    1AU       S  228   2.180   6.644   6.307  0.1093 -0.0689 -0.1150
    1AU     LIG  229   2.637   6.801   6.414  0.2524 -0.0015  0.0929
    1AU     LIG  230   2.923   6.842   6.683 -0.1834 -0.2996 -0.3768
    1AU     LIG  231   3.339   6.748   6.815 -0.0478  0.1641  0.2226
    1AU     LIG  232   3.542   7.068   6.969  0.2916  0.3448 -0.0371
    1AU       S  233   1.776   7.346   6.418 -0.3623 -0.1516 -0.2227
    1AU     LIG  234   2.033   7.608   6.527 -0.3335 -0.2065 -0.3705
    1AU     LIG  235   2.440   7.584   6.572  0.1952 -0.4204 -0.3236
    1AU     LIG  236   2.757   7.677   6.183 -0.2898 -0.2345  0.0223
    1AU     LIG  237   3.172   7.603   6.094 -0.0738 -0.2601 -0.2578
    1AU    AUSL  238   1.475   6.817   6.867 -0.0173 -0.0080  0.0459
    1AU    AUSL  239   1.415   7.277   6.674 -0.0772  0.0305  0.0864
    1AU     AUL  240   1.659   7.146   6.868  0.0101 -0.0079 -0.1104
    1AU       S  241   1.415   6.909   7.465  0.2289 -0.0675  0.1255
    1AU     LIG  242   1.577   7.138   7.779 -0.1905  0.2617 -0.0675
    1AU     LIG  243   1.924   7.224   8.078 -0.0609 -0.1668  0.2186
    1AU     LIG  244   2.200   7.459   8.052  0.1346  0.1871  0.0818
    1AU     LIG  245   2.112   7.862   8.281 -0.1899 -0.2732  0.0127
    1AU       S  246   1.568   7.616   6.768  0.1019 -0.3214  0.2345
    1AU     LIG  247   1.789   8.021   6.738  0.1203  0.1214 -0.0998
    1AU     LIG  248   2.060   8.130   6.422  0.0610  0.0571 -0.0980
    1AU     LIG  249   2.154   8.493   6.229 -0.0018  0.2475  0.0716
    1AU     LIG  250   1.962   8.851   6.032 -0.0615  0.1781  0.2076
    1AU    AUSL  251   1.884   6.657   6.835 -0.0160 -0.0370  0.0727
    1AU    AUSL  252   1.572   6.557   7.187  0.0705 -0.0487  0.0412
    1AU     AUL  253   1.781   6.810   7.157  0.0267 -0.0320  0.0042
    1AU       S  254   1.902   6.290   7.240  0.2734  0.1231 -0.2856
    1AU     LIG  255   2.128   6.447   7.553  0.0508  0.0082 -0.0362
    1AU     LIG  256   2.302   6.420   7.992  0.0682 -0.0996  0.2322
    1AU     LIG  257   2.734   6.652   7.908  0.0674 -0.0779  0.0343
    1AU     LIG  258   3.062   6.871   8.167  0.3336  0.2157  0.1828
    1AU       S  259   2.141   6.632   6.848  0.1005  0.1152  0.1775
    1AU     LIG  260   2.534   6.876   6.936 -0.1420 -0.2329 -0.3527
    1AU     LIG  261   2.736   7.289   6.801 -0.0843  0.0714  0.3848
    1AU     LIG  262   2.919   7.711   6.649 -0.1776  0.1287 -0.0641
    1AU     LIG  263   3.116   8.091   6.330 -0.0608  0.3678 -0.2063
    1AU    AUSL  264   0.378   5.900   6.152  0.1108  0.0188 -0.0051
    1AU    AUSL  265   0.774   5.920   5.951  0.0348  0.0251  0.0295
    1AU     AUL  266   0.522   5.785   5.786  0.0455 -0.0264  0.0041
    1AU       S  267   0.165   5.738   6.139  0.1485 -0.0892  0.1619
    1AU     LIG  268  -0.235   5.417   6.049 -0.0609  0.1496 -0.2079
    1AU     LIG  269  -0.652   5.249   6.135  0.1451 -0.0332 -0.3682
    1AU     LIG  270  -1.059   5.200   6.044 -0.0383 -0.0365  0.0745
    1AU     LIG  271  -1.338   4.914   5.995 -0.1005  0.0632  0.0690
    1AU       S  272   0.573   5.390   5.967 -0.2131 -0.3404 -0.0641
    1AU     LIG  273   0.139   5.193   5.885 -0.1449 -0.1027 -0.4112
    1AU     LIG  274  -0.226   4.801   6.050  0.0658 -0.3385  0.2312
    1AU     LIG  275  -0.471   4.391   6.095 -0.2404  0.2234  0.1848
    1AU     LIG  276  -0.879   4.202   6.292  0.1047  0.0963 -0.0551
    1AU    AUSL  277   0.375   6.328   6.090  0.0106  0.0596  0.0446
    1AU    AUSL  278   0.159   6.085   6.471  0.0179  0.0065 -0.0337
    1AU     AUL  279   0.069   6.218   6.134 -0.1061 -0.0196 -0.0372
    1AU       S  280  -0.025   5.840   5.927  0.1166 -0.1333  0.1877
    1AU     LIG  281  -0.455   5.812   6.236 -0.3137  0.2130  0.0652
    1AU     LIG  282  -0.939   5.832   6.407  0.0504  0.0169 -0.1147
    1AU     LIG  283  -1.071   6.303   6.482  0.0646  0.1636  0.0100
    1AU     LIG  284  -1.066   6.674   6.768  0.1785 -0.0392  0.0329
    1AU       S  285  -0.225   6.157   6.537 -0.2448  0.0671 -0.1800
    1AU     LIG  286  -0.486   6.042   6.760  0.1777  0.2580  0.1704
    1AU     LIG  287  -0.935   6.098   6.920 -0.0376 -0.0519  0.1391
    1AU     LIG  288  -1.289   5.870   6.786  0.0256 -0.0506  0.1792
    1AU     LIG  289  -1.570   5.495   6.774 -0.1119  0.5563  0.4865
    1AU    AUSL  290   1.384   6.138   7.107 -0.0213  0.0013 -0.0411
    1AU    AUSL  291   1.155   6.547   7.166  0.0448  0.0369 -0.1093
    1AU     AUL  292   1.424   6.364   7.399  0.0492  0.0323  0.0011
    1AU       S  293   1.026   6.575   7.509  0.2690 -0.0923  0.1595
    1AU     LIG  294   1.062   6.896   7.751  0.1309  0.2629 -0.1232
    1AU     LIG  295   0.909   6.966   8.237  0.0380 -0.1097  0.1445
    1AU     LIG  296   0.649   7.208   8.567 -0.3488 -0.3602  0.0402
    1AU     LIG  297   0.170   7.060   8.734 -0.5221  0.1907  0.0587
    1AU       S  298   1.857   6.079   7.391  0.2217  0.1325  0.1939
    1AU     LIG  299   2.259   5.824   7.325  0.4141 -0.2182 -0.2877
    1AU     LIG  300   2.519   5.776   7.012 -0.1227  0.0760 -0.0272
    1AU     LIG  301   2.724   5.988   6.615  0.1742  0.0889 -0.1615
    1AU     LIG  302   2.610   6.349   6.385  0.0774 -0.0186  0.0427
    1AU    AUSL  303   1.613   6.336   6.805 -0.0179 -0.0869 -0.0018
    1AU    AUSL  304   1.393   5.925   6.726 -0.0350 -0.0246 -0.0041
    1AU     AUL  305   1.615   5.947   6.983  0.0072  0.0724  0.0439
    1AU       S  306   1.774   5.515   6.898  0.2387 -0.1078 -0.3432
    1AU     LIG  307   1.671   5.145   7.148 -0.1567  0.1044  0.0881
    1AU     LIG  308   1.289   4.880   7.073  0.1379 -0.1850 -0.1316
    1AU     LIG  309   1.059   4.538   7.033  0.0467  0.4301 -0.0283
    1AU     LIG  310   0.825   4.139   7.013  0.2708  0.2674 -0.0363
    1AU       S  311   1.958   6.257   7.095  0.0540  0.2813  0.1854
    1AU     LIG  312   2.409   6.247   7.164 -0.3973 -0.2017  0.0064
    1AU     LIG  313   2.632   6.421   6.878  0.3947 -0.3168 -0.2593
    1AU     LIG  314   3.050   6.349   6.641  0.2014  0.1137 -0.0448
    1AU     LIG  315   3.472   6.362   6.495  0.0996 -0.0174 -0.0440
    1AU    AUSL  316   1.524   6.774   5.805 -0.1604 -0.0214 -0.0456
    1AU    AUSL  317   1.817   6.926   6.129 -0.0311 -0.0021  0.0634
    1AU     AUL  318   1.878   6.750   5.756  0.0414 -0.0412 -0.0087
    1AU       S  319   2.050   7.038   6.074  0.0693  0.0546  0.0736
    1AU     LIG  320   2.446   7.291   6.176  0.0762  0.1342  0.1923
    1AU     LIG  321   2.951   7.274   6.353 -0.0726 -0.3165 -0.2280
    1AU     LIG  322   3.411   7.272   6.553 -0.5845  0.0963 -0.0205
    1AU     LIG  323   3.825   7.129   6.590 -0.2120 -0.1808  0.0085
    1AU       S  324   1.723   7.085   5.530  0.3121 -0.3813  0.2928
    1AU     LIG  325   1.939   7.486   5.319  0.3604 -0.1443 -0.2244
    1AU     LIG  326   2.315   7.657   5.415  0.1942 -0.0144 -0.0507
    1AU     LIG  327   2.614   7.700   5.716  0.1382  0.3199 -0.0986
    1AU     LIG  328   2.947   7.903   5.716 -0.4058  0.2563 -0.1363
    1AU    AUSL  329   1.529   7.196   5.976 -0.0025 -0.0804  0.0717
    1AU    AUSL  330   1.068   7.331   5.993 -0.0436 -0.0669 -0.0016
    1AU     AUL  331   1.340   7.520   5.809  0.0411  0.0965 -0.0056
    1AU       S  332   1.738   7.208   5.738 -0.3259 -0.2309 -0.1104
    1AU     LIG  333   2.037   7.544   5.852  0.0754 -0.0559 -0.0996
    1AU     LIG  334   2.293   7.771   6.152 -0.1050  0.1910 -0.3032
    1AU     LIG  335   2.645   8.144   6.370  0.0126 -0.0406 -0.3452
    1AU     LIG  336   2.484   8.520   6.571 -0.0664 -0.2813  0.0109
    1AU       S  337   1.164   7.757   6.127 -0.5701  0.5648  0.0860
    1AU     LIG  338   1.381   8.094   6.464 -0.1763  0.0647 -0.0368
    1AU     LIG  339   1.536   8.433   6.574  0.0935  0.0736  0.1899
    1AU     LIG  340   1.493   8.822   6.358 -0.2589 -0.0697  0.2739
    1AU     LIG  341   1.350   9.040   5.920  0.1574  0.3326 -0.2704
    1AU    AUSL  342   1.231   7.053   5.674  0.0054 -0.0193  0.0385
    1AU    AUSL  343   1.448   6.467   5.515  0.0009 -0.0812 -0.1054
    1AU     AUL  344   1.355   6.817   5.453  0.0933  0.0777  0.0082
    1AU       S  345   1.440   6.348   5.245 -0.3380 -0.3408 -0.0705
    1AU     LIG  346   1.668   6.391   4.904 -0.1273 -0.0090 -0.0457
    1AU     LIG  347   1.850   6.564   4.657  0.1020 -0.2629 -0.1078
    1AU     LIG  348   1.970   7.021   4.456  0.0709  0.0879  0.3534
    1AU     LIG  349   2.130   7.477   4.468  0.1901  0.0779 -0.0889
    1AU       S  350   1.492   7.242   5.504  0.4327  0.3176  0.0792
    1AU     LIG  351   1.496   7.318   5.075  0.0523  0.1557  0.0562
    1AU     LIG  352   1.608   7.328   4.590 -0.0750  0.0075  0.1587
    1AU     LIG  353   1.558   7.614   4.223  0.3413 -0.2070  0.1975
    1AU     LIG  354   1.625   7.748   3.793 -0.1078  0.0822 -0.0451
    1AU    AUSL  355   1.138   5.656   6.467  0.0615  0.0832 -0.0013
    1AU    AUSL  356   0.718   5.714   6.325 -0.0715 -0.0338 -0.0291
    1AU     AUL  357   1.024   5.401   6.319  0.1113 -0.0575  0.0555
    1AU       S  358   1.005   5.243   6.760  0.0712  0.3578 -0.2263
    1AU     LIG  359   1.125   4.887   6.564 -0.2355  0.6261 -0.4628
    1AU     LIG  360   1.211   4.556   6.263 -0.2271 -0.3659  0.1555
    1AU     LIG  361   0.946   4.605   5.965 -0.3614  0.1587 -0.0040
    1AU     LIG  362   0.727   4.807   5.614 -0.1900  0.2330  0.1434
    1AU       S  363   0.552   5.441   6.209 -0.1140 -0.0851 -0.0727
    1AU     LIG  364   0.209   5.310   6.371  0.0474  0.0674  0.2434
    1AU     LIG  365  -0.146   5.110   6.458 -0.1536 -0.5984  0.0893
    1AU     LIG  366  -0.545   4.878   6.472 -0.1840 -0.2281 -0.2695
    1AU     LIG  367  -0.872   4.789   6.234  0.3980  0.1907  0.0872
    1AU    AUSL  368   1.141   5.750   7.000 -0.0444 -0.0624  0.0730
    1AU    AUSL  369   1.566   5.620   6.439  0.0846  0.0137 -0.1500
    1AU     AUL  370   1.357   5.556   6.744  0.0995  0.0447 -0.0577
    1AU       S  371   1.074   5.332   7.036 -0.5805 -0.2568 -0.2772
    1AU     LIG  372   1.278   5.258   7.469 -0.0901  0.0222  0.1413
    1AU     LIG  373   1.602   5.138   7.680 -0.5316 -0.2185 -0.2524
    1AU     LIG  374   1.758   4.773   7.681  0.0725  0.1537 -0.3393
    1AU     LIG  375   2.205   4.598   7.580  0.0295  0.4183  0.3156
    1AU       S  376   1.843   5.510   6.631  0.0196  0.1736  0.1349
    1AU     LIG  377   1.859   5.073   6.708 -0.3950 -0.2120 -0.1353
    1AU     LIG  378   1.657   4.743   6.814 -0.1441 -0.0088  0.1469
    1AU     LIG  379   1.559   4.431   6.592  0.1287 -0.1700 -0.0803
    1AU     LIG  380   1.560   3.825   6.592  0.1439  0.4768 -0.2079
    1AU    AUSL  381   0.794   5.633   6.742  0.0289  0.0288 -0.0429
    1AU    AUSL  382   0.840   6.035   6.921 -0.0267 -0.0469  0.0389
    1AU     AUL  383   0.816   5.704   7.094 -0.0799 -0.0595  0.0163
    1AU       S  384   0.385   5.639   7.004 -0.1642  0.4548  0.1699
    1AU     LIG  385   0.231   5.192   6.884 -0.0842  0.0846  0.0610
    1AU     LIG  386   0.196   4.784   6.802  0.0995 -0.1189 -0.1315
    1AU     LIG  387  -0.143   4.589   6.767 -0.1897  0.4809  0.1647
    1AU     LIG  388  -0.472   4.409   6.749  0.5352  0.3797 -0.2814
    1AU       S  389   0.781   5.432   6.732 -0.0461  0.0102  0.2109
    1AU     LIG  390   0.570   5.037   6.576  0.2281 -0.0548  0.3877
    1AU     LIG  391   0.713   4.590   6.415  0.1059  0.0603  0.3578
    1AU     LIG  392   0.785   4.222   6.548 -0.1069 -0.0900 -0.0382
    1AU     LIG  393   1.026   3.982   6.556 -0.0202 -0.2403 -0.2099
    1AU    AUSL  394   0.872   7.348   6.407  0.0530  0.0001  0.0748
    1AU    AUSL  395   0.789   7.042   5.876 -0.0564  0.0497 -0.0054
    1AU     AUL  396   0.769   7.454   6.117  0.0311 -0.0072  0.0330
    1AU       S  397   1.030   7.734   6.365  0.1487  0.1899 -0.1061
    1AU     LIG  398   0.748   7.980   6.613  0.3335  0.2976 -0.0005
    1AU     LIG  399   0.324   8.217   6.801  0.0314 -0.0508  0.2777
    1AU     LIG  400  -0.039   8.434   6.623 -0.3319 -0.1503  0.0007
    1AU     LIG  401  -0.303   8.840   6.737 -0.1967  0.3585  0.0363
    1AU       S  402   0.720   7.286   5.668  0.3022  0.3401 -0.2039
    1AU     LIG  403   0.894   7.465   5.268  0.2030  0.2349 -0.2060
    1AU     LIG  404   1.007   7.849   5.176 -0.3115  0.3258 -0.3752
    1AU     LIG  405   0.970   8.022   4.820 -0.1771  0.4483  0.0009
    1AU     LIG  406   0.684   7.855   4.462 -0.0537  0.3628 -0.1392
    1AU    AUSL  407   1.266   7.140   6.305  0.0266 -0.0073  0.0255
    1AU    AUSL  408   1.019   7.087   6.706 -0.0144  0.0180  0.0465
    1AU     AUL  409   1.081   7.408   6.675 -0.0306 -0.0257  0.0545
    1AU       S  410   1.340   7.530   6.285 -0.0939 -0.4724 -0.0263
    1AU     LIG  411   1.679   7.791   6.220 -0.1999  0.1183 -0.0804
    1AU     LIG  412   1.758   8.175   6.028  0.1339 -0.1076  0.3191
    1AU     LIG  413   1.288   8.503   6.044 -0.2885 -0.1780  0.3564
    1AU     LIG  414   0.963   8.360   6.133 -0.3521 -0.0734 -0.1224
    1AU       S  415   1.366   7.562   7.051  0.0028  0.3673 -0.1231
    1AU     LIG  416   1.064   7.903   7.021  0.1667 -0.5191  0.2180
    1AU     LIG  417   1.028   8.303   6.887 -0.1794  0.0860  0.0025
    1AU     LIG  418   0.923   8.627   6.638  0.2280 -0.1981 -0.1018
    1AU     LIG  419   0.683   8.852   6.235 -0.0129  0.2856  0.0373
    1AU    AUSL  420   0.441   6.144   7.058 -0.0495  0.0680  0.0516
    1AU    AUSL  421   0.988   6.119   7.304 -0.0344 -0.0285  0.0347
    1AU     AUL  422   0.654   6.097   7.275 -0.0474 -0.1521  0.0669
    1AU       S  423   0.992   6.226   7.591 -0.1201 -0.0476  0.1875
    1AU     LIG  424   1.176   6.359   8.025 -0.1991 -0.0926  0.0642
    1AU     LIG  425   0.943   6.446   8.386 -0.0604  0.2868 -0.1966
    1AU     LIG  426   0.826   6.219   8.841  0.1710 -0.4001 -0.1934
    1AU     LIG  427   0.649   5.877   9.111 -0.1583 -0.4065 -0.1810
    1AU       S  428   0.357   5.770   7.161  0.3050 -0.0164  0.3110
    1AU     LIG  429  -0.149   5.615   7.268 -0.0553 -0.0600 -0.2490
    1AU     LIG  430  -0.541   5.601   7.034  0.0287  0.0086 -0.3351
    1AU     LIG  431  -0.914   5.596   6.898  0.0441 -0.2842  0.1839
    1AU     LIG  432  -1.275   5.797   7.222 -0.2515  0.0275  0.0906
    1AU    AUSL  433   0.504   5.940   6.659  0.0550 -0.0901 -0.0592
    1AU    AUSL  434   0.362   6.401   6.729  0.0001 -0.0381  0.0042
    1AU     AUL  435   0.199   6.101   6.864 -0.0689  0.0354  0.1501
    1AU       S  436   0.275   5.647   6.731  0.0610 -0.0973 -0.0312
    1AU     LIG  437  -0.163   5.595   6.728 -0.2283  0.1727  0.3514
    1AU     LIG  438  -0.573   5.436   6.551 -0.1706  0.0925  0.2102
    1AU     LIG  439  -1.066   5.278   6.559 -0.2652  0.0222  0.1146
    1AU     LIG  440  -1.338   4.912   6.534  0.0307 -0.3669  0.1266
    1AU       S  441  -0.126   6.409   6.771  0.2279 -0.1561 -0.1516
    1AU     LIG  442  -0.578   6.627   6.807 -0.2240 -0.1296  0.0773
    1AU     LIG  443  -0.733   6.846   6.425  0.0321 -0.2007  0.1659
    1AU     LIG  444  -1.023   7.119   6.296 -0.2162  0.0633 -0.1123
    1AU     LIG  445  -1.171   7.424   6.467 -0.0762  0.2945 -0.1133
    2POPC   NC3  446   8.567   2.063   8.323 -0.0964  0.3759  0.1702
    2POPC   PO4  447   8.853   2.335   8.422  0.1635 -0.3583  0.1705
    2POPC   GL1  448   8.951   2.160   8.026  0.0443  0.0173 -0.0198
    2POPC   GL2  449   9.141   2.237   7.861 -0.3845 -0.2094  0.1280
    2POPC   C1A  450   9.025   1.764   7.837 -0.3701 -0.0423  0.0454
    2POPC   D2A  451   9.070   1.528   7.542 -0.4241  0.0366  0.1113
    2POPC   C3A  452   9.521   1.368   7.458  0.0164  0.3711 -0.0308
    2POPC   C4A  453   9.760   1.029   7.364  0.2932 -0.2343 -0.1488
    2POPC   C1B  454   9.293   2.340   7.502  0.1885 -0.0720 -0.2277
    2POPC   C2B  455   9.607   2.363   7.227 -0.0328 -0.0831  0.2821
    2POPC   C3B  456   9.949   2.328   7.028 -0.2900  0.3624 -0.0499
    2POPC   C4B  457  10.305   2.211   7.103 -0.2833 -0.0044  0.1598
    3POPC   NC3  458   9.093   7.782   9.432  0.0018 -0.0468  0.0068
    3POPC   PO4  459   9.059   8.012   8.957  0.0644 -0.0305  0.3202
    3POPC   GL1  460   9.144   7.921   8.577 -0.0056  0.3725  0.2477
    3POPC   GL2  461   9.287   7.652   8.503  0.1988  0.1335 -0.4813
    3POPC   C1A  462   9.171   7.948   8.000 -0.0835 -0.1313 -0.3808
    3POPC   D2A  463   9.295   7.743   7.548 -0.0860 -0.2831  0.0110
    3POPC   C3A  464   9.669   7.737   7.376  0.1951  0.1536 -0.0862
    3POPC   C4A  465   9.846   7.472   7.137 -0.0450  0.2413  0.0638
    3POPC   C1B  466   9.445   7.554   8.099  0.1932 -0.3221 -0.2454
    3POPC   C2B  467   9.690   7.434   7.724  0.1346 -0.1490  0.0030
    3POPC   C3B  468   9.694   7.086   7.486  0.2529 -0.1941  0.2527
    3POPC   C4B  469   9.591   6.838   7.169 -0.0537 -0.3707  0.1861
    4POPC   NC3  470   1.944   7.224   9.651  0.2230  0.0147  0.3921
    4POPC   PO4  471   2.355   7.328   9.465  0.2770  0.0223  0.2100
    4POPC   GL1  472   2.366   7.473   9.019  0.0759  0.0370 -0.1303
    4POPC   GL2  473   2.735   7.438   8.985 -0.0739  0.1107 -0.1037
    4POPC   C1A  474   2.430   7.851   8.746 -0.0871 -0.1879 -0.0488
    4POPC   D2A  475   2.624   7.952   8.326 -0.1292  0.2866  0.0510
    4POPC   C3A  476   2.664   7.738   7.951  0.1890 -0.0587  0.1759
    4POPC   C4A  477   2.480   7.858   7.621 -0.0749 -0.1151 -0.1360
    4POPC   C1B  478   2.717   7.496   8.574 -0.2935 -0.2090 -0.0022
    4POPC   C2B  479   2.749   7.278   8.200 -0.2952 -0.0441 -0.2708
    4POPC   C3B  480   2.620   7.271   7.838 -0.0814 -0.0628  0.0929
    4POPC   C4B  481   2.164   7.318   7.574 -0.1697  0.3350  0.3463
    5POPC   NC3  482   1.188   3.717   8.995  0.1538  0.0529 -0.0608
    5POPC   PO4  483   1.188   3.697   8.568 -0.1007  0.1051 -0.0955
    5POPC   GL1  484   0.870   3.749   8.196 -0.2921  0.0146 -0.2178
    5POPC   GL2  485   0.849   4.010   8.252  0.2045  0.2735 -0.3949
    5POPC   C1A  486   1.088   3.882   7.841 -0.2013  0.2332 -0.2660
    5POPC   D2A  487   1.243   3.893   7.498 -0.0902  0.3126  0.1423
    5POPC   C3A  488   1.568   3.720   7.349  0.2362  0.1067 -0.2850
    5POPC   C4A  489   1.875   3.960   7.019 -0.1987  0.2329 -0.0840
    5POPC   C1B  490   0.582   3.952   7.838  0.2128  0.2098 -0.0753
    5POPC   C2B  491   0.279   4.092   7.453  0.0342 -0.0956  0.0322
    5POPC   C3B  492   0.339   4.004   6.970 -0.0356  0.2196  0.2681
    5POPC   C4B  493   0.329   4.348   6.695 -0.1672  0.1041 -0.2461
    6POPC   NC3  494   0.195   3.693   9.267  0.0441  0.0729 -0.0854
    6POPC   PO4  495  -0.125   3.766   8.977  0.2193  0.0790 -0.0272
    6POPC   GL1  496  -0.006   4.024   8.529  0.0726 -0.3852 -0.3084
    6POPC   GL2  497  -0.087   4.399   8.538  0.2682 -0.2062  0.0352
    6POPC   C1A  498  -0.007   3.957   8.016 -0.2912  0.1537 -0.2401
    6POPC   D2A  499  -0.117   4.191   7.744  0.1144 -0.2483  0.1175
    6POPC   C3A  500   0.077   4.545   7.582  0.0190 -0.2606 -0.1260
    6POPC   C4A  501   0.202   4.807   7.312  0.2597 -0.1500 -0.0908
    6POPC   C1B  502  -0.152   4.500   8.129  0.1623  0.3138 -0.0457
    6POPC   C2B  503  -0.270   4.817   7.835  0.0178 -0.0385  0.1961
    6POPC   C3B  504  -0.030   5.231   7.625 -0.0564 -0.0509  0.2468
    6POPC   C4B  505   0.297   5.408   7.866 -0.3182  0.2382 -0.2962
    7POPC   NC3  506   3.506   7.971   8.794  0.0451 -0.2127  0.1499
    7POPC   PO4  507   3.113   8.317   8.706 -0.0681  0.0338 -0.0477
    7POPC   GL1  508   3.223   8.225   8.311  0.0614 -0.2366  0.0544
    7POPC   GL2  509   3.557   8.348   8.251 -0.0503 -0.2018  0.1851
    7POPC   C1A  510   3.148   8.208   7.951 -0.4245  0.0498  0.1450
    7POPC   D2A  511   3.130   8.072   7.535 -0.0111 -0.0379 -0.3302
    7POPC   C3A  512   3.529   8.027   7.237 -0.2838 -0.2883 -0.0367
    7POPC   C4A  513   3.991   8.163   7.291 -0.0606  0.0311 -0.2461
    7POPC   C1B  514   3.621   8.319   7.757  0.1100  0.2717  0.2208
    7POPC   C2B  515   3.635   8.569   7.384  0.0578  0.0754 -0.0704
    7POPC   C3B  516   3.665   8.398   6.944  0.2548 -0.2411  0.0354
    7POPC   C4B  517   3.509   8.155   6.631 -0.2089  0.1113  0.4323
    8POPC   NC3  518   9.407   5.085   9.127 -0.0299 -0.1819 -0.1380
    8POPC   PO4  519   9.112   5.433   8.925 -0.0205  0.2985  0.4822
    8POPC   GL1  520   9.287   5.290   8.538 -0.0556 -0.2658 -0.0095
    8POPC   GL2  521   9.501   5.419   8.586  0.1470  0.0487  0.2746
    8POPC   C1A  522   9.161   5.192   8.046  0.0276 -0.0922 -0.0997
    8POPC   D2A  523   9.095   4.849   7.711 -0.2516 -0.1107 -0.1369
    8POPC   C3A  524   8.803   4.813   7.335 -0.1715  0.0750 -0.2534
    8POPC   C4A  525   8.543   4.628   6.993 -0.2056  0.0436 -0.0112
    8POPC   C1B  526   9.477   5.588   8.209  0.3451  0.4271  0.1415
    8POPC   C2B  527   9.589   5.545   7.851  0.0052  0.3255  0.0707
    8POPC   C3B  528   9.353   5.318   7.502  0.0718  0.1107  0.3728
    8POPC   C4B  529   8.887   5.416   7.377 -0.0359 -0.0902  0.0031
    9POPC   NC3  530   4.344   9.402   8.353  0.3890 -0.0002 -0.0804
    9POPC   PO4  531   4.039   9.175   8.411  0.2556  0.0215 -0.0809
    9POPC   GL1  532   3.871   9.400   8.041  0.0824  0.1374  0.1697
    9POPC   GL2  533   3.759   9.787   8.079 -0.3302  0.0907  0.1018
    9POPC   C1A  534   3.728   9.280   7.561 -0.0499  0.0658 -0.0246
    9POPC   D2A  535   3.674   9.412   7.104 -0.3504  0.0761 -0.0114
    9POPC   C3A  536   3.373   9.708   7.021 -0.0213 -0.2722 -0.0368
    9POPC   C4A  537   3.041  10.027   6.935 -0.3008  0.1204 -0.1231
    9POPC   C1B  538   3.895   9.900   7.693 -0.1104 -0.2059  0.1189
    9POPC   C2B  539   3.580  10.027   7.368 -0.1351 -0.2482  0.0498
    9POPC   C3B  540   3.603  10.153   7.018 -0.1286  0.0730  0.0324
    9POPC   C4B  541   3.904  10.154   6.673 -0.0969 -0.0690 -0.3159
   10POPC   NC3  542   3.892   2.017   8.134 -0.2712 -0.0645  0.2673
   10POPC   PO4  543   3.466   1.924   8.302  0.0292  0.0683 -0.3583
   10POPC   GL1  544   3.388   1.952   7.826 -0.2980  0.1166  0.0631
   10POPC   GL2  545   3.509   1.851   7.511 -0.0171 -0.1401 -0.2548
   10POPC   C1A  546   3.090   2.116   7.546 -0.1662 -0.2610  0.3304
   10POPC   D2A  547   2.629   2.056   7.510  0.3426  0.1079  0.1466
   10POPC   C3A  548   2.386   2.546   7.527 -0.1552  0.0594 -0.0006
   10POPC   C4A  549   2.105   2.764   7.342 -0.2667 -0.1023  0.0313
   10POPC   C1B  550   3.636   2.049   7.166 -0.2421  0.0513 -0.5814
   10POPC   C2B  551   3.633   1.996   6.781 -0.0757 -0.2908  0.0499
   10POPC   C3B  552   3.383   1.961   6.447 -0.1545  0.1466 -0.0554
   10POPC   C4B  553   2.906   1.966   6.455  0.1111  0.1483  0.1817
   11POPC   NC3  554   5.105   7.995   8.894  0.0761  0.1640 -0.0266
   11POPC   PO4  555   4.964   7.613   8.698  0.0883  0.1486 -0.1023
   11POPC   GL1  556   5.168   7.600   8.254  0.3395  0.2972  0.2217
   11POPC   GL2  557   4.831   7.512   8.193 -0.3462  0.1653  0.3823
   11POPC   C1A  558   5.510   7.551   7.959  0.0502 -0.2704  0.0147
   11POPC   D2A  559   5.549   7.348   7.492  0.2139  0.2605 -0.1781
   11POPC   C3A  560   5.816   7.454   7.138  0.3016 -0.1091 -0.0807
   11POPC   C4A  561   6.161   7.300   6.914  0.1180 -0.2149  0.1912
   11POPC   C1B  562   4.618   7.497   7.696  0.1135  0.0835  0.1067
   11POPC   C2B  563   4.508   7.329   7.293 -0.0794  0.1382 -0.1059
   11POPC   C3B  564   4.343   7.136   6.841  0.1616 -0.1910  0.1550
   11POPC   C4B  565   4.441   7.318   6.476 -0.1080 -0.2039  0.1730
   12POPC   NC3  566   6.104   6.900   8.576 -0.0947  0.2328 -0.0650
   12POPC   PO4  567   5.734   6.820   8.355 -0.0457 -0.1271  0.1248
   12POPC   GL1  568   5.669   7.084   8.013  0.1186  0.2804 -0.1423
   12POPC   GL2  569   5.347   7.038   8.042 -0.2877 -0.2756  0.0802
   12POPC   C1A  570   5.763   6.819   7.625 -0.3594  0.0391 -0.0327
   12POPC   D2A  571   5.958   6.434   7.424  0.2266  0.0387 -0.2777
   12POPC   C3A  572   5.842   6.346   6.954  0.1258 -0.2498  0.1227
   12POPC   C4A  573   5.852   5.982   6.658 -0.0526  0.2339 -0.1387
   12POPC   C1B  574   5.126   7.289   7.796 -0.0759 -0.2188  0.1426
   12POPC   C2B  575   5.005   7.338   7.345 -0.2853  0.3034  0.2240
   12POPC   C3B  576   4.854   6.953   7.176 -0.1068 -0.2773 -0.0206
   12POPC   C4B  577   5.017   6.762   6.817  0.1231  0.2182 -0.3110
   13POPC   NC3  578   7.049   1.704   8.391 -0.0965  0.0145 -0.0989
   13POPC   PO4  579   6.611   1.561   8.393  0.0219 -0.3141  0.0179
   13POPC   GL1  580   6.771   1.640   8.007 -0.0965  0.0605  0.2248
   13POPC   GL2  581   6.795   1.301   7.934  0.0138  0.1524 -0.1176
   13POPC   C1A  582   6.642   1.663   7.590 -0.3680  0.2660  0.1287
   13POPC   D2A  583   6.480   1.538   7.207  0.1200  0.0435 -0.0643
   13POPC   C3A  584   6.672   1.773   6.972 -0.2870 -0.1458 -0.1052
   13POPC   C4A  585   6.868   2.222   6.834 -0.1308 -0.2617  0.0298
   13POPC   C1B  586   7.118   1.212   7.716 -0.1525 -0.0836  0.0838
   13POPC   C2B  587   7.202   0.921   7.543  0.1431 -0.1253 -0.0405
   13POPC   C3B  588   7.285   0.633   7.375 -0.0440  0.1072 -0.1321
   13POPC   C4B  589   7.644   0.451   7.326 -0.1958  0.1236  0.1506
   14POPC   NC3  590   7.982   3.561   8.338 -0.0688 -0.1267  0.1618
   14POPC   PO4  591   8.261   3.217   8.271 -0.0474  0.3774 -0.5956
   14POPC   GL1  592   8.401   3.226   7.795 -0.3143  0.3497  0.0602
   14POPC   GL2  593   8.272   3.593   7.817 -0.1516 -0.0787  0.1190
   14POPC   C1A  594   8.265   3.193   7.302 -0.1802 -0.1172  0.3757
   14POPC   D2A  595   8.383   3.521   6.829  0.0989 -0.1702 -0.0229
   14POPC   C3A  596   8.686   3.716   6.576 -0.1372  0.1607  0.0559
   14POPC   C4A  597   9.104   3.730   6.460  0.3494 -0.1640  0.1201
   14POPC   C1B  598   8.428   3.686   7.415 -0.2456  0.3544 -0.1020
   14POPC   C2B  599   8.866   3.837   7.330 -0.0174  0.5697  0.1365
   14POPC   C3B  600   9.025   3.968   6.935  0.0859  0.5247  0.0854
   14POPC   C4B  601   9.463   3.872   6.727 -0.1551  0.2040  0.0271
   15POPC   NC3  602   4.503   6.983   8.604 -0.0953  0.0415 -0.2470
   15POPC   PO4  603   4.083   7.148   8.826 -0.1685 -0.0129  0.1644
   15POPC   GL1  604   4.081   7.239   8.352  0.1110  0.1765 -0.1544
   15POPC   GL2  605   4.236   7.490   8.415  0.1131  0.0926 -0.2741
   15POPC   C1A  606   3.912   6.976   8.046  0.1896  0.0493 -0.0145
   15POPC   D2A  607   3.856   6.928   7.637  0.1234  0.1283  0.1977
   15POPC   C3A  608   3.476   7.033   7.414 -0.1036  0.2982 -0.1371
   15POPC   C4A  609   3.047   6.975   7.173 -0.0566  0.2585 -0.3958
   15POPC   C1B  610   4.117   7.589   8.016 -0.0303  0.1723 -0.2163
   15POPC   C2B  611   4.006   7.492   7.509  0.2445  0.0155  0.0555
   15POPC   C3B  612   3.972   7.587   7.023  0.1341  0.1047 -0.0625
   15POPC   C4B  613   3.951   7.610   6.543 -0.2359 -0.1439  0.0983
   16POPC   NC3  614   2.236   1.117   8.307 -0.1950  0.2610 -0.0788
   16POPC   PO4  615   2.309   0.737   8.420  0.1021  0.2806 -0.0053
   16POPC   GL1  616   2.228   0.519   8.049  0.1967  0.0681 -0.5555
   16POPC   GL2  617   2.274   0.140   8.016 -0.1143  0.1077  0.1801
   16POPC   C1A  618   2.135   0.381   7.623  0.0582  0.2120  0.0556
   16POPC   D2A  619   1.959   0.097   7.378 -0.1665 -0.0796  0.0165
   16POPC   C3A  620   2.263  -0.188   7.307  0.0208  0.0532  0.3272
   16POPC   C4A  621   2.500  -0.606   7.450  0.1553  0.3464  0.0439
   16POPC   C1B  622   2.108  -0.278   7.860 -0.0735  0.2139 -0.1349
   16POPC   C2B  623   1.808  -0.389   7.498  0.2648 -0.0260 -0.1700
   16POPC   C3B  624   1.556  -0.738   7.282  0.0286  0.1019 -0.0886
   16POPC   C4B  625   1.638  -1.117   6.977 -0.0147  0.1783  0.2542
   17POPC   NC3  626   9.073   8.504   8.943 -0.0398  0.2721 -0.4661
   17POPC   PO4  627   9.227   8.723   8.696 -0.2102 -0.0265 -0.0163
   17POPC   GL1  628   9.337   8.764   8.216 -0.1648  0.1327  0.1504
   17POPC   GL2  629   9.162   8.846   7.929  0.1436  0.1596  0.0040
   17POPC   C1A  630   9.458   8.383   7.982 -0.1229 -0.0193  0.0138
   17POPC   D2A  631   9.255   8.322   7.614  0.3097 -0.2820  0.2992
   17POPC   C3A  632   9.482   8.145   7.339 -0.0173  0.0661  0.2014
   17POPC   C4A  633   9.773   8.028   6.966 -0.0599  0.0632  0.1769
   17POPC   C1B  634   9.421   8.866   7.617  0.0341  0.2247  0.0038
   17POPC   C2B  635   9.424   8.676   7.250  0.0520 -0.0804  0.5199
   17POPC   C3B  636   9.318   8.331   6.841 -0.0475 -0.1097 -0.0117
   17POPC   C4B  637   9.030   8.013   6.641 -0.1653  0.2008  0.1811
   18POPC   NC3  638   8.186   7.628   8.584  0.1792 -0.2474  0.0502
   18POPC   PO4  639   7.798   7.508   8.602  0.0562  0.0910 -0.0122
   18POPC   GL1  640   7.946   7.541   8.154 -0.0499  0.2420 -0.1026
   18POPC   GL2  641   8.218   7.656   8.042  0.0927 -0.2282  0.1044
   18POPC   C1A  642   7.848   7.376   7.779 -0.0649  0.4265 -0.0163
   18POPC   D2A  643   7.548   7.381   7.483  0.0094  0.3904  0.2975
   18POPC   C3A  644   7.590   7.556   7.147 -0.3150 -0.0207  0.3323
   18POPC   C4A  645   7.539   7.479   6.796 -0.0503  0.0151  0.1545
   18POPC   C1B  646   8.338   7.435   7.693 -0.0137  0.0159  0.0489
   18POPC   C2B  647   8.371   7.361   7.239 -0.1145 -0.0681  0.1296
   18POPC   C3B  648   8.604   7.059   7.001  0.2323  0.6054 -0.3439
   18POPC   C4B  649   9.069   6.987   7.022  0.0553  0.1401 -0.1191
   19POPC   NC3  650   7.724   0.128   9.154 -0.0460  0.0309 -0.1725
   19POPC   PO4  651   7.670  -0.237   8.843  0.0834  0.2175 -0.0200
   19POPC   GL1  652   7.704  -0.333   8.367 -0.0340  0.0054  0.0070
   19POPC   GL2  653   7.920  -0.577   8.148 -0.0137 -0.1204  0.0027
   19POPC   C1A  654   7.453  -0.460   8.015 -0.1383 -0.1631  0.0366
   19POPC   D2A  655   7.377  -0.451   7.486 -0.1220  0.1517 -0.0099
   19POPC   C3A  656   7.540  -0.780   7.375 -0.4801 -0.0541  0.3800
   19POPC   C4A  657   7.589  -1.142   7.414  0.2549  0.0455 -0.1254
   19POPC   C1B  658   7.865  -0.252   7.817 -0.1612 -0.2712  0.3164
   19POPC   C2B  659   8.014   0.111   7.490  0.1082 -0.0060 -0.0639
   19POPC   C3B  660   8.098   0.048   7.098  0.0427 -0.0090 -0.3054
   19POPC   C4B  661   8.320   0.209   6.761 -0.4835  0.2120  0.1123
   20POPC   NC3  662   4.567   5.954   8.772 -0.0714  0.0479  0.2732
   20POPC   PO4  663   4.166   6.242   8.691 -0.2334  0.0104  0.1306
   20POPC   GL1  664   4.340   6.007   8.318 -0.1000 -0.1506 -0.0367
   20POPC   GL2  665   4.623   5.765   8.222  0.0940  0.0830  0.0136
   20POPC   C1A  666   4.289   6.188   7.831  0.1715  0.2644 -0.2317
   20POPC   D2A  667   4.539   6.203   7.470 -0.1927  0.0282 -0.1374
   20POPC   C3A  668   4.381   6.049   7.089  0.0588 -0.2015 -0.0290
   20POPC   C4A  669   3.940   6.176   6.951  0.0935  0.2740  0.0899
   20POPC   C1B  670   4.610   5.759   7.773  0.4288  0.0300 -0.2634
   20POPC   C2B  671   4.616   5.635   7.348  0.0871  0.0164  0.0856
   20POPC   C3B  672   4.375   5.452   7.060  0.0074  0.1168 -0.2110
   20POPC   C4B  673   4.181   5.547   6.691  0.2096  0.0246  0.2213
   21POPC   NC3  674   9.305   2.206   8.373 -0.0657  0.2945 -0.2945
   21POPC   PO4  675   9.263   2.623   8.247  0.2481 -0.1142  0.1023
   21POPC   GL1  676   9.088   2.769   7.813  0.0012  0.0212  0.1466
   21POPC   GL2  677   8.844   2.958   7.748 -0.1984  0.1099  0.1300
   21POPC   C1A  678   9.244   2.816   7.360 -0.0032  0.1025  0.0034
   21POPC   D2A  679   9.116   2.794   6.950 -0.0859  0.0927  0.2560
   21POPC   C3A  680   8.900   2.819   6.497  0.0268 -0.1926  0.0842
   21POPC   C4A  681   8.634   2.863   6.155 -0.1118 -0.0779 -0.0418
   21POPC   C1B  682   8.793   3.297   7.453  0.0343 -0.1345 -0.0797
   21POPC   C2B  683   8.806   3.390   7.070 -0.0107  0.4114  0.2735
   21POPC   C3B  684   9.012   3.252   6.678 -0.0990  0.1021 -0.1345
   21POPC   C4B  685   8.944   3.247   6.180  0.2036  0.2834 -0.0482
   22POPC   NC3  686   1.045   4.673   9.893 -0.2576 -0.1158 -0.1165
   22POPC   PO4  687   1.095   5.131   9.758 -0.2731 -0.1471 -0.0352
   22POPC   GL1  688   1.179   5.274   9.329 -0.1040  0.1630  0.1414
   22POPC   GL2  689   0.883   5.413   9.216 -0.0647  0.1681  0.0490
   22POPC   C1A  690   1.358   5.251   8.868  0.1223  0.2493  0.1574
   22POPC   D2A  691   1.437   5.522   8.508 -0.1591  0.0508 -0.2942
   22POPC   C3A  692   1.501   5.898   8.271 -0.0951 -0.0937  0.1321
   22POPC   C4A  693   1.549   5.915   7.852 -0.0087  0.1319  0.0283
   22POPC   C1B  694   1.114   5.812   8.974  0.2090  0.2873  0.0212
   22POPC   C2B  695   1.395   6.086   8.919 -0.0000 -0.0116  0.1295
   22POPC   C3B  696   1.498   6.350   8.478  0.2848 -0.2589 -0.1377
   22POPC   C4B  697   1.379   6.738   8.296  0.0799 -0.1268  0.3544
   23POPC   NC3  698   6.852   6.368   8.639 -0.0253 -0.0588 -0.2244
   23POPC   PO4  699   7.164   5.938   8.480  0.0639  0.1048  0.0118
   23POPC   GL1  700   6.896   5.761   8.110  0.0151  0.0101  0.1148
   23POPC   GL2  701   6.625   5.636   8.166  0.2361 -0.0652 -0.0154
   23POPC   C1A  702   6.943   5.844   7.693 -0.2373 -0.1006  0.2205
   23POPC   D2A  703   7.209   5.875   7.414  0.0119 -0.1412  0.0888
   23POPC   C3A  704   7.162   5.600   7.086 -0.2509 -0.2899 -0.1644
   23POPC   C4A  705   7.503   5.377   6.867  0.0004 -0.2038  0.0611
   23POPC   C1B  706   6.680   5.401   7.816 -0.2152 -0.1449 -0.0607
   23POPC   C2B  707   7.098   5.211   7.658 -0.1226 -0.2112  0.1593
   23POPC   C3B  708   7.068   5.079   7.223 -0.0991 -0.1260 -0.0072
   23POPC   C4B  709   7.246   4.963   6.815 -0.0216  0.0246  0.1230
   24POPC   NC3  710   2.379   8.475   9.456  0.3419 -0.0952 -0.2994
   24POPC   PO4  711   2.334   8.598   9.127  0.0920 -0.1477  0.0326
   24POPC   GL1  712   2.035   8.363   8.862  0.0013  0.1765 -0.1825
   24POPC   GL2  713   2.092   8.320   8.556 -0.2148 -0.5071 -0.0679
   24POPC   C1A  714   1.671   8.131   8.747 -0.2552 -0.0674  0.4104
   24POPC   D2A  715   1.397   8.009   8.362 -0.0149  0.3475  0.0849
   24POPC   C3A  716   1.597   7.850   7.993  0.5017 -0.0495 -0.1422
   24POPC   C4A  717   1.972   7.757   7.774 -0.3183 -0.0211  0.0062
   24POPC   C1B  718   2.232   8.414   8.161  0.0631  0.1832  0.2401
   24POPC   C2B  719   2.111   8.198   7.802  0.1234  0.1231 -0.3358
   24POPC   C3B  720   1.724   8.223   7.593 -0.1745 -0.0162  0.0747
   24POPC   C4B  721   1.455   7.815   7.443 -0.1276 -0.1570 -0.2505
   25POPC   NC3  722   5.152   1.304   8.248 -0.3547  0.3520 -0.1264
   25POPC   PO4  723   5.243   1.775   8.175  0.1056 -0.0922 -0.0894
   25POPC   GL1  724   5.441   1.497   7.835  0.2142 -0.2215  0.1196
   25POPC   GL2  725   5.709   1.406   7.897 -0.0962 -0.4246 -0.0646
   25POPC   C1A  726   5.696   1.344   7.438 -0.2085  0.2258 -0.2285
   25POPC   D2A  727   6.037   1.358   7.212  0.1257 -0.1422 -0.0309
   25POPC   C3A  728   6.140   1.232   6.821 -0.2583  0.0066  0.1499
   25POPC   C4A  729   6.352   0.994   6.521  0.2631  0.2868  0.0041
   25POPC   C1B  730   5.998   1.028   7.696  0.2241  0.2403 -0.1511
   25POPC   C2B  731   6.239   0.836   7.355  0.0262 -0.4501  0.0640
   25POPC   C3B  732   6.554   1.014   7.045  0.1703  0.0180  0.2199
   25POPC   C4B  733   6.710   1.307   6.809 -0.3630 -0.0229  0.2115
   26POPC   NC3  734   6.219   1.761   8.162  0.0003 -0.2621  0.2852
   26POPC   PO4  735   6.143   1.347   8.266 -0.2478 -0.0912 -0.0101
   26POPC   GL1  736   6.261   1.368   7.829 -0.0532 -0.2975  0.0551
   26POPC   GL2  737   6.106   1.632   7.651  0.0122 -0.1741 -0.2004
   26POPC   C1A  738   6.475   1.171   7.629 -0.1272 -0.1152  0.2139
   26POPC   D2A  739   6.713   0.771   7.492 -0.1441 -0.2261 -0.2083
   26POPC   C3A  740   6.958   0.742   7.021  0.0728  0.1957 -0.2364
   26POPC   C4A  741   6.663   0.632   6.792 -0.1223  0.0701 -0.4368
   26POPC   C1B  742   5.923   1.870   7.300  0.1609 -0.3094  0.1006
   26POPC   C2B  743   5.899   2.258   6.888  0.1924  0.2845 -0.0648
   26POPC   C3B  744   6.082   2.574   6.660  0.0232  0.2581 -0.1938
   26POPC   C4B  745   6.181   2.919   6.405 -0.1395 -0.4401  0.1451
   27POPC   NC3  746   0.127   1.556   8.497 -0.2052  0.0680  0.3517
   27POPC   PO4  747   0.190   2.086   8.511  0.1816 -0.1221  0.0380
   27POPC   GL1  748   0.189   2.077   8.111 -0.2187  0.0129  0.1709
   27POPC   GL2  749  -0.116   1.932   8.123 -0.2469 -0.2706 -0.1599
   27POPC   C1A  750   0.460   2.174   7.796 -0.0054 -0.1402 -0.0453
   27POPC   D2A  751   0.793   2.365   7.568 -0.3991 -0.2083 -0.5642
   27POPC   C3A  752   0.783   2.609   7.120 -0.0263  0.1246  0.0290
   27POPC   C4A  753   1.037   2.897   7.319 -0.1171  0.3570 -0.1823
   27POPC   C1B  754  -0.404   1.884   7.799 -0.1248  0.2839 -0.3312
   27POPC   C2B  755  -0.402   1.911   7.361 -0.2975 -0.2782 -0.0161
   27POPC   C3B  756  -0.268   1.859   6.939  0.2960 -0.4024 -0.1827
   27POPC   C4B  757   0.099   1.826   6.658 -0.0321 -0.1673 -0.0042
   28POPC   NC3  758   2.500   4.301   8.749  0.1490  0.2809  0.0572
   28POPC   PO4  759   2.184   4.505   9.085  0.0433 -0.0627 -0.3267
   28POPC   GL1  760   2.293   4.733   8.710 -0.0729 -0.0858  0.0718
   28POPC   GL2  761   2.187   4.711   8.345  0.1006  0.0246 -0.1227
   28POPC   C1A  762   2.319   5.168   8.463  0.0021  0.0100 -0.0782
   28POPC   D2A  763   2.038   5.349   8.359  0.0563  0.2352  0.1234
   28POPC   C3A  764   1.984   5.463   8.028 -0.0480  0.1042 -0.0758
   28POPC   C4A  765   1.831   5.574   7.504 -0.1769 -0.4918 -0.1469
   28POPC   C1B  766   2.055   4.943   8.007 -0.0408 -0.0179  0.2391
   28POPC   C2B  767   2.093   5.125   7.643  0.2455 -0.0467 -0.0612
   28POPC   C3B  768   2.148   5.327   7.252  0.4453  0.1249  0.2547
   28POPC   C4B  769   2.262   5.346   6.909 -0.2466 -0.1579  0.1220
   29POPC   NC3  770   6.969   6.310   8.132 -0.1771 -0.1305  0.0362
   29POPC   PO4  771   6.620   6.134   8.312 -0.0570  0.0424 -0.1005
   29POPC   GL1  772   6.566   6.148   7.913 -0.0563 -0.0849  0.4065
   29POPC   GL2  773   6.370   6.378   7.740 -0.1358 -0.2280 -0.1485
   29POPC   C1A  774   6.394   5.880   7.627  0.0955 -0.1602  0.1530
   29POPC   D2A  775   6.667   5.584   7.281  0.0346  0.4576  0.2140
   29POPC   C3A  776   6.767   5.390   6.926  0.0125  0.1103  0.0000
   29POPC   C4A  777   7.065   5.452   6.632 -0.0746  0.2694  0.1837
   29POPC   C1B  778   6.424   6.656   7.417 -0.0925  0.0685 -0.0718
   29POPC   C2B  779   6.500   6.938   7.099  0.3192 -0.1340 -0.1732
   29POPC   C3B  780   6.633   7.362   7.027 -0.0259 -0.2241 -0.2674
   29POPC   C4B  781   7.114   7.449   7.119 -0.1802  0.1396 -0.0162
   30POPC   NC3  782   7.993   4.840   8.243 -0.2431 -0.1969 -0.3139
   30POPC   PO4  783   8.465   4.744   8.445 -0.1263  0.0247  0.1917
   30POPC   GL1  784   8.498   5.032   8.137 -0.0149  0.0930  0.4003
   30POPC   GL2  785   8.622   4.839   7.853 -0.0036  0.2157 -0.1175
   30POPC   C1A  786   8.656   5.474   7.876  0.2246  0.1911  0.2529
   30POPC   D2A  787   8.571   5.746   7.693  0.1101  0.1975 -0.0808
   30POPC   C3A  788   8.725   6.200   7.583 -0.1311  0.3071 -0.0889
   30POPC   C4A  789   8.500   6.581   7.810 -0.2573 -0.1140 -0.0650
   30POPC   C1B  790   8.304   4.745   7.575 -0.3424  0.1592  0.2610
   30POPC   C2B  791   8.004   4.699   7.352 -0.1940  0.0907 -0.2170
   30POPC   C3B  792   8.077   4.495   6.964 -0.1645  0.1612  0.2879
   30POPC   C4B  793   8.189   4.411   6.595 -0.2471  0.0013 -0.0690
   31POPC   NC3  794   6.862   8.469   8.540  0.0321 -0.0224  0.0563
   31POPC   PO4  795   6.819   8.105   8.516  0.0182 -0.0248 -0.2062
   31POPC   GL1  796   6.999   8.156   8.101  0.2681  0.2020  0.0566
   31POPC   GL2  797   6.753   8.282   7.972  0.0117  0.1396 -0.1597
   31POPC   C1A  798   7.218   8.009   7.788  0.0089  0.0397 -0.0630
   31POPC   D2A  799   7.198   7.914   7.315 -0.3073 -0.3560 -0.2967
   31POPC   C3A  800   7.146   7.950   6.913 -0.1249  0.1353  0.0305
   31POPC   C4A  801   6.826   7.677   6.717 -0.2354 -0.2489  0.2282
   31POPC   C1B  802   6.860   8.515   7.568  0.1521  0.0626 -0.1222
   31POPC   C2B  803   7.176   8.661   7.166  0.2896 -0.1351  0.2487
   31POPC   C3B  804   7.467   8.516   6.912 -0.0846  0.1516  0.1236
   31POPC   C4B  805   7.837   8.624   6.987  0.0898  0.0432  0.1659
   32POPC   NC3  806   0.940   6.340   9.947 -0.2373  0.0568 -0.1626
   32POPC   PO4  807   0.693   5.934   9.832  0.3709 -0.2002 -0.1131
   32POPC   GL1  808   0.420   6.157   9.477 -0.0572  0.1056  0.0538
   32POPC   GL2  809   0.570   6.388   9.329 -0.1751 -0.2687  0.3462
   32POPC   C1A  810   0.193   6.160   9.143  0.2810 -0.0096  0.1057
   32POPC   D2A  811   0.253   6.089   8.693  0.0277 -0.0214  0.0028
   32POPC   C3A  812   0.482   6.300   8.444  0.3897  0.1362 -0.5228
   32POPC   C4A  813   0.498   6.682   8.473 -0.3048 -0.2817  0.0381
   32POPC   C1B  814   0.482   6.536   8.964 -0.0571 -0.3969  0.2104
   32POPC   C2B  815   0.116   6.547   8.789  0.1044 -0.3368  0.0274
   32POPC   C3B  816  -0.131   6.351   8.445 -0.2360 -0.1343 -0.0044
   32POPC   C4B  817  -0.340   6.132   8.100 -0.1942  0.1060  0.0354
   33POPC   NC3  818   5.199   3.997   8.315 -0.2175 -0.4411 -0.0942
   33POPC   PO4  819   5.583   3.857   8.207 -0.4294 -0.1190 -0.0857
   33POPC   GL1  820   5.611   3.558   7.832  0.2950  0.2117  0.0639
   33POPC   GL2  821   5.418   3.236   7.784 -0.0576  0.0789 -0.2368
   33POPC   C1A  822   5.759   3.465   7.460 -0.1741 -0.0198 -0.0268
   33POPC   D2A  823   5.753   3.599   7.006 -0.1264  0.1693  0.2485
   33POPC   C3A  824   5.496   3.421   6.707  0.1879 -0.2689  0.0029
   33POPC   C4A  825   5.462   3.169   6.356  0.0661 -0.0457  0.3468
   33POPC   C1B  826   5.156   3.013   7.516  0.0192 -0.1882  0.0420
   33POPC   C2B  827   4.812   2.954   7.402 -0.2627 -0.0342 -0.1550
   33POPC   C3B  828   4.380   2.978   7.386  0.3173 -0.3138  0.1775
   33POPC   C4B  829   4.110   3.208   6.994 -0.0019 -0.1703 -0.2092
   34POPC   NC3  830   1.605   5.342   9.709 -0.0297 -0.1847 -0.1110
   34POPC   PO4  831   1.776   5.734   9.852  0.0145  0.0569 -0.1774
   34POPC   GL1  832   1.700   5.871   9.435  0.0658 -0.1894 -0.2236
   34POPC   GL2  833   1.524   5.759   9.278 -0.0579  0.0720 -0.1485
   34POPC   C1A  834   1.857   6.099   8.919  0.2121  0.1736  0.0033
   34POPC   D2A  835   1.732   6.595   8.921  0.1386 -0.2177  0.1108
   34POPC   C3A  836   1.399   6.815   8.815  0.0464  0.0091  0.0511
   34POPC   C4A  837   0.976   6.788   8.754 -0.0530  0.0991 -0.3761
   34POPC   C1B  838   1.666   5.669   8.890 -0.3630 -0.0428  0.0514
   34POPC   C2B  839   1.975   5.856   8.468 -0.2863  0.3690  0.1367
   34POPC   C3B  840   2.161   6.296   8.443 -0.2125  0.2719 -0.0612
   34POPC   C4B  841   2.124   6.648   8.645  0.1888  0.0376  0.1188
   35POPC   NC3  842   0.218   2.629   8.502  0.1734 -0.0057 -0.3620
   35POPC   PO4  843  -0.143   2.397   8.291 -0.2296 -0.0680  0.0294
   35POPC   GL1  844  -0.266   2.429   7.855 -0.2843  0.1633 -0.1920
   35POPC   GL2  845  -0.235   2.716   7.644  0.4104 -0.0314 -0.0295
   35POPC   C1A  846   0.068   2.231   7.544  0.0676 -0.0951 -0.1327
   35POPC   D2A  847   0.170   1.937   7.385  0.0127 -0.0172  0.0936
   35POPC   C3A  848   0.445   1.681   7.053  0.1589  0.2409  0.0478
   35POPC   C4A  849   0.378   1.364   6.826  0.0350 -0.1185  0.2040
   35POPC   C1B  850  -0.177   2.843   7.215 -0.1505 -0.2865  0.2945
   35POPC   C2B  851  -0.291   2.631   6.834 -0.1130  0.4001 -0.1918
   35POPC   C3B  852  -0.087   2.464   6.507  0.3776 -0.2475  0.0309
   35POPC   C4B  853   0.380   2.243   6.338  0.1093 -0.0439  0.3043
   36POPC   NC3  854   0.956   8.237   9.501  0.0777 -0.2349  0.1554
   36POPC   PO4  855   1.367   7.995   9.453 -0.1031 -0.2067  0.0996
   36POPC   GL1  856   1.579   7.822   9.110  0.1119 -0.2850  0.0029
   36POPC   GL2  857   1.671   7.424   9.243 -0.2295  0.2161  0.2824
   36POPC   C1A  858   1.936   7.743   8.853 -0.0864 -0.0667 -0.0222
   36POPC   D2A  859   2.179   7.382   8.589 -0.2327  0.2400 -0.1729
   36POPC   C3A  860   2.496   7.129   8.709 -0.0004  0.0825  0.2642
   36POPC   C4A  861   2.900   7.042   8.597  0.1673 -0.2789 -0.1014
   36POPC   C1B  862   1.862   7.201   8.910  0.3833 -0.2972  0.0820
   36POPC   C2B  863   1.800   6.999   8.574 -0.0883  0.1313 -0.0282
   36POPC   C3B  864   1.889   6.701   8.172 -0.1386 -0.2725  0.4553
   36POPC   C4B  865   1.725   6.353   8.030 -0.2168 -0.1409 -0.2608
   37POPC   NC3  866   2.912   9.626   9.164 -0.2050 -0.3521  0.3235
   37POPC   PO4  867   3.102   9.466   8.767 -0.0597  0.2105  0.1267
   37POPC   GL1  868   3.145   9.310   8.332 -0.1862 -0.2788 -0.1216
   37POPC   GL2  869   3.348   9.566   8.156  0.2827  0.3868 -0.0208
   37POPC   C1A  870   3.397   9.179   7.903 -0.3045 -0.0238 -0.0374
   37POPC   D2A  871   3.689   8.810   7.829  0.2478  0.1861 -0.2777
   37POPC   C3A  872   4.038   8.786   7.563 -0.1208 -0.3344 -0.0189
   37POPC   C4A  873   4.134   8.643   7.145  0.1612  0.1546  0.0254
   37POPC   C1B  874   3.324   9.651   7.736  0.0506 -0.2835  0.3093
   37POPC   C2B  875   2.989   9.713   7.426  0.0720 -0.0242 -0.3738
   37POPC   C3B  876   2.821   9.485   7.119 -0.1779  0.1113  0.1475
   37POPC   C4B  877   2.417   9.343   6.917 -0.3801  0.1220  0.2618
   38POPC   NC3  878   8.525   6.721   9.052  0.0582 -0.0221 -0.2735
   38POPC   PO4  879   8.187   6.519   8.778  0.1131  0.0349  0.0729
   38POPC   GL1  880   8.350   6.680   8.367  0.0862 -0.0771  0.1501
   38POPC   GL2  881   8.195   6.536   8.128 -0.2143 -0.2050  0.0969
   38POPC   C1A  882   8.162   7.022   8.055  0.3513 -0.1171  0.1542
   38POPC   D2A  883   8.088   7.017   7.543  0.0283  0.0281  0.1114
   38POPC   C3A  884   7.907   7.152   7.172  0.1806  0.3329 -0.0446
   38POPC   C4A  885   7.813   6.948   6.804  0.0164  0.0222 -0.3309
   38POPC   C1B  886   7.880   6.573   7.768 -0.3745  0.1130  0.0739
   38POPC   C2B  887   7.714   6.645   7.329 -0.0472  0.1341 -0.1531
   38POPC   C3B  888   7.806   6.410   6.927 -0.1855  0.0453  0.0107
   38POPC   C4B  889   7.766   6.104   6.505 -0.0141  0.0395  0.5737
   39POPC   NC3  890   3.177   1.619   8.629  0.2536  0.3719 -0.0605
   39POPC   PO4  891   2.961   1.754   8.331  0.2386 -0.2521 -0.2590
   39POPC   GL1  892   2.664   1.683   7.945  0.2207  0.2891 -0.2716
   39POPC   GL2  893   2.324   1.546   8.121  0.3027 -0.0777  0.0306
   39POPC   C1A  894   2.566   1.309   7.631  0.1098 -0.2198  0.4149
   39POPC   D2A  895   2.454   1.205   7.276 -0.2494 -0.0651  0.0612
   39POPC   C3A  896   2.809   1.054   7.119 -0.2860  0.4262  0.0663
   39POPC   C4A  897   3.095   1.044   6.824 -0.1516  0.1845  0.3929
   39POPC   C1B  898   2.209   1.621   7.659  0.1038  0.2663 -0.2470
   39POPC   C2B  899   2.318   1.677   7.253 -0.2050  0.1089  0.0248
   39POPC   C3B  900   2.216   1.483   6.869 -0.1755  0.3151  0.0202
   39POPC   C4B  901   2.492   1.405   6.593  0.1420 -0.1491 -0.0532
   40POPC   NC3  902   4.526   6.547   8.911 -0.3392 -0.0343 -0.0110
   40POPC   PO4  903   4.885   6.373   8.844  0.4243 -0.1768 -0.1418
   40POPC   GL1  904   4.752   6.260   8.349 -0.0861 -0.2584  0.0334
   40POPC   GL2  905   4.564   6.575   8.135 -0.0980  0.2855 -0.0446
   40POPC   C1A  906   4.805   6.211   7.917  0.0404  0.2637 -0.1748
   40POPC   D2A  907   4.873   6.555   7.603  0.0387 -0.2044 -0.3144
   40POPC   C3A  908   4.981   6.396   7.206  0.0489  0.0988  0.0858
   40POPC   C4A  909   4.897   6.148   6.947 -0.2488  0.4254  0.0975
   40POPC   C1B  910   4.339   6.643   7.737  0.0181  0.0271  0.2321
   40POPC   C2B  911   4.079   6.486   7.406 -0.2206 -0.0627  0.1333
   40POPC   C3B  912   3.624   6.514   7.308 -0.2843  0.0273  0.1905
   40POPC   C4B  913   3.242   6.420   7.166 -0.2601  0.0163 -0.0190
   41POPC   NC3  914   5.802   0.782   8.606  0.0377  0.1177  0.0897
   41POPC   PO4  915   5.594   1.118   8.336  0.3057 -0.0076 -0.5244
   41POPC   GL1  916   5.550   0.883   7.932  0.5254  0.0595 -0.0221
   41POPC   GL2  917   5.318   0.695   8.173 -0.1871  0.1067  0.1494
   41POPC   C1A  918   5.572   0.850   7.464  0.0406  0.0344  0.1979
   41POPC   D2A  919   5.804   0.922   7.117  0.2267 -0.0007  0.0107
   41POPC   C3A  920   6.123   0.674   6.925  0.1323 -0.0673 -0.0900
   41POPC   C4A  921   6.217   0.331   6.621  0.0599  0.1986  0.5167
   41POPC   C1B  922   5.196   0.641   7.705 -0.1114 -0.0729  0.0216
   41POPC   C2B  923   5.054   0.742   7.286 -0.2615 -0.0836 -0.2543
   41POPC   C3B  924   5.308   0.729   7.004 -0.2268 -0.0160  0.2492
   41POPC   C4B  925   5.532   0.602   6.756 -0.1277  0.1587 -0.0280
   42POPC   NC3  926   7.778   7.045   8.864 -0.0506  0.1441  0.0982
   42POPC   PO4  927   7.371   6.777   8.676 -0.0893  0.0144 -0.0613
   42POPC   GL1  928   7.246   6.797   8.194 -0.1934 -0.1283 -0.0268
   42POPC   GL2  929   7.452   6.636   8.046 -0.2491 -0.1323 -0.0477
   42POPC   C1A  930   7.067   7.007   7.878  0.2930  0.1800 -0.0747
   42POPC   D2A  931   6.834   7.019   7.417 -0.2697 -0.0859  0.2301
   42POPC   C3A  932   6.941   6.644   7.177  0.0199  0.1692  0.2126
   42POPC   C4A  933   6.843   6.349   6.800 -0.1259 -0.2461  0.2133
   42POPC   C1B  934   7.374   6.288   7.648 -0.1145 -0.1301  0.0588
   42POPC   C2B  935   7.287   6.331   7.164  0.0424 -0.2334 -0.4898
   42POPC   C3B  936   7.331   6.488   6.804 -0.2476 -0.1324 -0.5075
   42POPC   C4B  937   7.475   6.498   6.391  0.0997  0.0644  0.1951
   43POPC   NC3  938   5.737   0.125   9.267  0.2635 -0.2152  0.3850
   43POPC   PO4  939   5.621   0.021   8.822  0.0690  0.1330 -0.0609
   43POPC   GL1  940   5.642  -0.170   8.379 -0.1094 -0.0415  0.2597
   43POPC   GL2  941   5.467  -0.402   8.274 -0.2756  0.0186  0.2532
   43POPC   C1A  942   5.635   0.007   7.985  0.0482 -0.3779 -0.0995
   43POPC   D2A  943   5.681   0.041   7.623 -0.1514  0.0413  0.1258
   43POPC   C3A  944   5.446   0.316   7.416  0.0605 -0.1127  0.0418
   43POPC   C4A  945   5.333   0.192   6.993  0.1993  0.2551 -0.1383
   43POPC   C1B  946   5.386  -0.418   7.798 -0.1522 -0.2383 -0.0485
   43POPC   C2B  947   5.579  -0.434   7.338  0.1488 -0.2748 -0.1745
   43POPC   C3B  948   5.875  -0.281   7.118 -0.0252 -0.1389  0.5924
   43POPC   C4B  949   6.172  -0.091   6.801 -0.0284  0.3177 -0.1462
   44POPC   NC3  950   4.969   3.007   8.115 -0.1930 -0.0385 -0.1213
   44POPC   PO4  951   4.657   2.580   8.078  0.0422  0.2343 -0.1998
   44POPC   GL1  952   4.565   2.293   7.702 -0.2223 -0.1762 -0.1546
   44POPC   GL2  953   4.396   2.443   7.541 -0.2077  0.0277 -0.0100
   44POPC   C1A  954   4.676   2.064   7.364 -0.2920  0.1241  0.0357
   44POPC   D2A  955   4.585   1.875   7.025  0.0743 -0.1721  0.3398
   44POPC   C3A  956   4.254   1.686   6.956 -0.3403 -0.0929  0.0980
   44POPC   C4A  957   3.959   1.602   7.269  0.1071 -0.1998  0.1960
   44POPC   C1B  958   4.553   2.533   7.226  0.0680  0.2257  0.0704
   44POPC   C2B  959   4.545   2.887   6.934  0.2317 -0.3409 -0.2686
   44POPC   C3B  960   4.383   2.919   6.550 -0.1810 -0.0693  0.4437
   44POPC   C4B  961   4.173   2.917   6.173 -0.2751 -0.0196 -0.0809
   45POPC   NC3  962   6.822   7.231   8.527  0.0031 -0.1181 -0.1427
   45POPC   PO4  963   6.660   6.788   8.454  0.2520  0.1947 -0.1427
   45POPC   GL1  964   6.651   6.760   8.050 -0.0568  0.1501 -0.0133
   45POPC   GL2  965   6.824   6.600   7.721 -0.0463 -0.0203 -0.2591
   45POPC   C1A  966   6.490   7.045   7.738  0.1888  0.2438 -0.3201
   45POPC   D2A  967   6.217   7.219   7.371  0.1086  0.0945  0.1640
   45POPC   C3A  968   5.952   6.869   7.154 -0.2227  0.0452  0.4760
   45POPC   C4A  969   6.056   6.791   6.762  0.2880 -0.1372 -0.0140
   45POPC   C1B  970   6.773   6.219   7.396 -0.1510 -0.2467 -0.0886
   45POPC   C2B  971   6.603   6.027   7.123 -0.0002 -0.0485  0.5987
   45POPC   C3B  972   6.307   6.178   6.792 -0.3434  0.0453  0.2383
   45POPC   C4B  973   6.182   6.396   6.514  0.2591  0.2107  0.0399
   46POPC   NC3  974   2.323   2.672   8.573 -0.0968  0.0809 -0.1446
   46POPC   PO4  975   1.950   2.937   8.422 -0.3589 -0.1317  0.1565
   46POPC   GL1  976   1.962   3.045   8.040  0.0962  0.2853  0.2540
   46POPC   GL2  977   1.811   3.366   7.924  0.1437 -0.2441  0.0954
   46POPC   C1A  978   2.258   3.044   7.710 -0.2130  0.2272 -0.2473
   46POPC   D2A  979   2.373   3.322   7.342 -0.3175 -0.2665  0.0903
   46POPC   C3A  980   2.779   3.422   7.169  0.2440  0.2549 -0.1698
   46POPC   C4A  981   2.898   3.331   6.713  0.1168  0.0148  0.0151
   46POPC   C1B  982   2.163   3.574   7.733 -0.3134 -0.0823 -0.1285
   46POPC   C2B  983   2.205   3.780   7.385  0.1887  0.0541 -0.0572
   46POPC   C3B  984   2.431   3.785   7.047 -0.1369 -0.0295 -0.4668
   46POPC   C4B  985   2.537   3.838   6.638 -0.1854  0.0823 -0.3298
   47POPC   NC3  986   2.687   9.139   8.506  0.1684 -0.0337 -0.0468
   47POPC   PO4  987   2.778   9.659   8.465 -0.0312 -0.0673 -0.2188
   47POPC   GL1  988   2.637   9.673   8.068  0.1195 -0.1510  0.2204
   47POPC   GL2  989   2.815   9.524   7.887  0.0219  0.1397  0.0635
   47POPC   C1A  990   2.645   9.987   7.649  0.1296 -0.2558  0.0696
   47POPC   D2A  991   2.686  10.136   7.289  0.0299 -0.2086 -0.0363
   47POPC   C3A  992   2.464   9.939   6.852  0.1148 -0.2100  0.1325
   47POPC   C4A  993   2.344   9.937   6.414  0.4082  0.0312 -0.2017
   47POPC   C1B  994   2.987   9.191   7.625  0.2527  0.1633  0.1827
   47POPC   C2B  995   3.236   9.276   7.223  0.1729  0.0191 -0.1111
   47POPC   C3B  996   3.330   9.320   6.735  0.0067  0.2895  0.0047
   47POPC   C4B  997   3.132   9.189   6.355  0.0680 -0.0415  0.1421
   48POPC   NC3  998   2.014   0.238   8.416 -0.0606  0.1553 -0.2432
   48POPC   PO4  999   1.887   0.565   8.734 -0.0924 -0.2141  0.1248
   48POPC   GL1 1000   1.788   0.707   8.326 -0.0228  0.0963 -0.2833
   48POPC   GL2 1001   1.643   0.431   8.125  0.0088 -0.3814  0.2474
   48POPC   C1A 1002   1.817   0.758   7.829  0.0501 -0.2250 -0.0173
   48POPC   D2A 1003   2.138   0.945   7.630  0.2024 -0.1191  0.0996
   48POPC   C3A 1004   1.979   1.332   7.349 -0.0169 -0.1059  0.0939
   48POPC   C4A 1005   1.749   1.690   7.265 -0.0688  0.2324  0.1759
   48POPC   C1B 1006   1.607   0.287   7.842  0.0768 -0.1388  0.1510
   48POPC   C2B 1007   1.495   0.355   7.383 -0.3626  0.0721  0.0654
   48POPC   C3B 1008   1.485   0.306   6.881  0.0407 -0.0818  0.0979
   48POPC   C4B 1009   1.449  -0.071   6.638  0.4014 -0.2729  0.0077
   49POPC   NC3 1010   3.726   5.532   8.914 -0.0961  0.3357  0.2102
   49POPC   PO4 1011   3.314   5.545   9.112  0.4696 -0.0564 -0.2491
   49POPC   GL1 1012   3.247   5.663   8.815  0.2196  0.1209  0.1662
   49POPC   GL2 1013   3.328   5.989   8.729  0.0762 -0.0005  0.3149
   49POPC   C1A 1014   2.875   5.783   8.607  0.1684 -0.0126 -0.3605
   49POPC   D2A 1015   2.815   6.142   8.399  0.1018 -0.0249 -0.1217
   49POPC   C3A 1016   3.054   6.275   8.006  0.0726 -0.1569 -0.1948
   49POPC   C4A 1017   3.046   6.228   7.588 -0.0585 -0.2140  0.0073
   49POPC   C1B 1018   3.459   6.001   8.299  0.0658  0.2188 -0.1098
   49POPC   C2B 1019   3.467   6.041   7.808 -0.4075  0.0598 -0.0309
   49POPC   C3B 1020   3.421   5.969   7.347 -0.0639 -0.3648  0.0872
   49POPC   C4B 1021   2.941   6.053   7.103 -0.1348 -0.2795  0.2078
   50POPC   NC3 1022   5.470   9.491   8.867 -0.1757  0.2418 -0.1627
   50POPC   PO4 1023   5.408   9.036   8.687 -0.0678 -0.3766 -0.1309
   50POPC   GL1 1024   5.316   8.753   8.312  0.1472 -0.1827 -0.4151
   50POPC   GL2 1025   5.595   8.633   8.304 -0.1523  0.2771 -0.1124
   50POPC   C1A 1026   5.134   8.566   8.061 -0.3578 -0.0967  0.2301
   50POPC   D2A 1027   5.142   8.457   7.634  0.1027  0.1931 -0.1424
   50POPC   C3A 1028   5.243   8.698   7.413 -0.2707  0.0564 -0.1339
   50POPC   C4A 1029   5.329   8.547   6.906  0.3871 -0.0372  0.1045
   50POPC   C1B 1030   5.738   8.634   7.892  0.1728 -0.0175  0.2521
   50POPC   C2B 1031   6.019   8.688   7.526 -0.3658  0.2472 -0.0193
   50POPC   C3B 1032   6.397   8.652   7.443 -0.0943  0.3754  0.1064
   50POPC   C4B 1033   6.572   8.887   7.212 -0.2421  0.3156 -0.4184
   51POPC   NC3 1034   3.951   0.832   8.129 -0.0934  0.0830  0.1391
   51POPC   PO4 1035   3.687   1.081   8.241  0.2662  0.1377  0.0684
   51POPC   GL1 1036   3.556   1.100   7.826 -0.0105  0.0175 -0.1863
   51POPC   GL2 1037   3.538   1.415   7.679 -0.0025  0.2949  0.0368
   51POPC   C1A 1038   3.821   1.098   7.346  0.0176  0.2805 -0.2732
   51POPC   D2A 1039   4.257   1.191   7.074  0.0016 -0.2037 -0.1776
   51POPC   C3A 1040   4.070   1.224   6.685 -0.1698  0.3427 -0.3304
   51POPC   C4A 1041   3.806   1.149   6.394 -0.2625  0.0604 -0.0488
   51POPC   C1B 1042   3.040   1.572   7.582 -0.0452 -0.1625  0.4366
   51POPC   C2B 1043   2.822   1.560   7.273  0.1118 -0.0094  0.0392
   51POPC   C3B 1044   2.936   1.512   6.846  0.1741  0.1617  0.4208
   51POPC   C4B 1045   3.324   1.349   6.513 -0.3191 -0.0263 -0.1611
   52POPC   NC3 1046   1.943   9.530   8.771  0.2277  0.0230  0.2728
   52POPC   PO4 1047   1.685   9.875   8.736 -0.1457  0.1213 -0.0393
   52POPC   GL1 1048   1.681   9.656   8.347  0.1092 -0.2269  0.0822
   52POPC   GL2 1049   1.767   9.331   8.331  0.1889  0.1856 -0.0854
   52POPC   C1A 1050   1.551   9.597   7.973  0.4370  0.3395  0.4998
   52POPC   D2A 1051   1.303   9.652   7.539  0.0829 -0.1672  0.1350
   52POPC   C3A 1052   1.531   9.636   7.137  0.1655  0.0136 -0.0128
   52POPC   C4A 1053   1.902   9.386   6.962  0.2443  0.0761  0.0840
   52POPC   C1B 1054   1.686   9.054   8.067  0.0302  0.1392 -0.0665
   52POPC   C2B 1055   1.527   9.174   7.750 -0.1003 -0.1124  0.1329
   52POPC   C3B 1056   1.098   9.174   7.681 -0.4248  0.1011 -0.0390
   52POPC   C4B 1057   0.673   9.156   7.497  0.1406 -0.3403  0.0606
   53POPC   NC3 1058   6.677   3.572   8.959 -0.4026 -0.4578  0.0165
   53POPC   PO4 1059   6.762   4.031   8.711  0.0899 -0.0070 -0.2470
   53POPC   GL1 1060   6.812   4.084   8.328  0.0258 -0.1894 -0.2919
   53POPC   GL2 1061   6.767   4.418   8.257 -0.2706  0.0832 -0.1135
   53POPC   C1A 1062   7.001   3.982   7.892  0.2724 -0.0789 -0.1760
   53POPC   D2A 1063   6.864   3.935   7.470  0.0709  0.1519  0.3050
   53POPC   C3A 1064   6.612   3.919   7.062  0.2050 -0.1414  0.2101
   53POPC   C4A 1065   6.492   3.984   6.624 -0.0473 -0.3239 -0.0524
   53POPC   C1B 1066   6.613   4.327   7.748 -0.0316 -0.1666  0.1852
   53POPC   C2B 1067   6.584   4.336   7.306 -0.1078  0.3823  0.0810
   53POPC   C3B 1068   6.799   4.335   6.881  0.3297 -0.1388 -0.2548
   53POPC   C4B 1069   6.696   4.383   6.477 -0.0116 -0.2618  0.0617
   54POPC   NC3 1070   0.763   9.201   8.537 -0.0746 -0.1012 -0.1783
   54POPC   PO4 1071   0.293   9.161   8.558  0.0089 -0.2600  0.0805
   54POPC   GL1 1072   0.340   8.910   8.214  0.3327 -0.3854 -0.0413
   54POPC   GL2 1073   0.366   8.653   8.214 -0.3727 -0.0412 -0.2490
   54POPC   C1A 1074   0.279   9.095   7.806 -0.2901  0.2366 -0.0906
   54POPC   D2A 1075  -0.110   9.260   7.499 -0.0127  0.1997  0.1247
   54POPC   C3A 1076  -0.269   9.119   7.148  0.1122  0.2745 -0.0191
   54POPC   C4A 1077  -0.729   9.079   6.873 -0.1533  0.0310 -0.0562
   54POPC   C1B 1078   0.569   8.658   7.788 -0.2572 -0.0758  0.0558
   54POPC   C2B 1079   0.961   8.575   7.649 -0.2774 -0.3066  0.1243
   54POPC   C3B 1080   1.216   8.227   7.432  0.1054  0.1326  0.0899
   54POPC   C4B 1081   1.510   8.219   7.141  0.3969 -0.3316 -0.3779
   55POPC   NC3 1082   0.943   1.225   8.627 -0.0608  0.0108  0.2107
   55POPC   PO4 1083   0.463   1.096   8.589 -0.3226  0.2593 -0.0734
   55POPC   GL1 1084   0.303   1.179   8.205 -0.1587  0.1156 -0.0451
   55POPC   GL2 1085   0.375   1.190   7.989  0.1657 -0.0190  0.1644
   55POPC   C1A 1086  -0.095   1.050   7.876  0.0486  0.0506 -0.2218
   55POPC   D2A 1087  -0.373   0.687   7.802  0.1638 -0.4687 -0.1600
   55POPC   C3A 1088  -0.466   0.697   7.463  0.4939  0.0383 -0.1696
   55POPC   C4A 1089  -0.713   0.674   7.157 -0.0166  0.2680  0.1169
   55POPC   C1B 1090   0.306   1.035   7.533 -0.0053  0.0123  0.0473
   55POPC   C2B 1091   0.225   0.882   7.020 -0.1612 -0.1023 -0.0003
   55POPC   C3B 1092   0.166   0.564   6.747 -0.2928 -0.0002  0.1171
   55POPC   C4B 1093   0.138   0.177   6.445  0.1741  0.0181  0.0650
   56POPC   NC3 1094   1.471   3.092   8.395 -0.0016 -0.0734  0.0405
   56POPC   PO4 1095   1.755   3.439   8.578 -0.1083  0.0358  0.0685
   56POPC   GL1 1096   1.698   3.747   8.331 -0.0415  0.0359 -0.1199
   56POPC   GL2 1097   1.392   3.601   8.161 -0.1649 -0.2065  0.0078
   56POPC   C1A 1098   1.710   3.868   7.886  0.2149 -0.1885 -0.4748
   56POPC   D2A 1099   1.417   4.241   7.809  0.1239  0.2424 -0.0129
   56POPC   C3A 1100   1.429   4.489   7.453  0.2024  0.0743  0.1944
   56POPC   C4A 1101   1.471   4.269   7.123  0.1224  0.0129 -0.0543
   56POPC   C1B 1102   1.288   3.424   7.709 -0.3091 -0.2313 -0.0571
   56POPC   C2B 1103   1.074   3.430   7.324  0.3481  0.1153  0.1818
   56POPC   C3B 1104   1.201   3.395   6.987 -0.0979 -0.3005 -0.2407
   56POPC   C4B 1105   1.088   3.078   6.771 -0.2492  0.1102 -0.0410
   57POPC   NC3 1106   3.113   0.218   8.388  0.0480 -0.0316  0.1662
   57POPC   PO4 1107   3.518   0.288   8.159  0.4653 -0.0469 -0.0775
   57POPC   GL1 1108   3.440   0.602   7.946 -0.3292 -0.0126 -0.1654
   57POPC   GL2 1109   3.168   0.654   8.012 -0.0244 -0.0524 -0.3905
   57POPC   C1A 1110   3.474   0.728   7.547 -0.2245 -0.0793  0.3083
   57POPC   D2A 1111   3.472   0.784   7.096  0.1944  0.0874 -0.4637
   57POPC   C3A 1112   3.601   1.126   6.854  0.0239  0.2465 -0.0351
   57POPC   C4A 1113   3.700   1.533   6.829  0.0381  0.0109 -0.2229
   57POPC   C1B 1114   3.041   0.442   7.591  0.1897  0.3379 -0.0152
   57POPC   C2B 1115   3.053   0.590   7.188 -0.0710 -0.1073  0.0255
   57POPC   C3B 1116   3.104   0.567   6.771 -0.4513 -0.0279 -0.1534
   57POPC   C4B 1117   3.307   0.274   6.553  0.2318  0.1525  0.0682
   58POPC   NC3 1118   6.728   0.608   8.444  0.0554  0.0035  0.1895
   58POPC   PO4 1119   6.278   0.573   8.545  0.3190  0.1205  0.0663
   58POPC   GL1 1120   6.256   0.345   8.152 -0.0341  0.1373  0.3395
   58POPC   GL2 1121   6.645   0.312   8.056  0.2117  0.0944 -0.0386
   58POPC   C1A 1122   6.201  -0.037   7.926 -0.0540  0.1388  0.1387
   58POPC   D2A 1123   6.401  -0.521   7.859 -0.1643 -0.0164 -0.0535
   58POPC   C3A 1124   6.170  -0.856   7.889 -0.0588 -0.2048 -0.0087
   58POPC   C4A 1125   6.017  -1.073   8.261  0.0449 -0.1277  0.1296
   58POPC   C1B 1126   6.745  -0.169   7.928  0.0014  0.1585  0.0206
   58POPC   C2B 1127   6.995  -0.604   7.907  0.1080 -0.0563 -0.4223
   58POPC   C3B 1128   7.126  -0.909   7.633 -0.2536 -0.3487  0.0518
   58POPC   C4B 1129   7.074  -0.717   7.164 -0.0813  0.2920 -0.1588
   59POPC   NC3 1130   7.951   8.515   8.589  0.2700  0.1395 -0.1997
   59POPC   PO4 1131   7.746   8.100   8.637  0.1183 -0.1373  0.1573
   59POPC   GL1 1132   8.046   8.104   8.180 -0.0092 -0.0055  0.2525
   59POPC   GL2 1133   7.883   8.069   7.942 -0.0497 -0.1565 -0.0789
   59POPC   C1A 1134   8.383   8.158   7.888  0.0909  0.0581 -0.2815
   59POPC   D2A 1135   8.359   7.957   7.505  0.1890 -0.0803  0.2030
   59POPC   C3A 1136   8.382   8.316   7.187 -0.1788 -0.0706  0.2232
   59POPC   C4A 1137   8.435   8.391   6.803 -0.4329  0.1250  0.1052
   59POPC   C1B 1138   7.691   7.883   7.601  0.0828 -0.0237 -0.0742
   59POPC   C2B 1139   7.984   7.701   7.368 -0.0116 -0.0461  0.2710
   59POPC   C3B 1140   8.055   7.611   6.956 -0.2625  0.2528  0.0463
   59POPC   C4B 1141   8.171   7.289   6.805 -0.1967 -0.2890  0.0469
   60POPC   NC3 1142   3.381   4.534   8.675  0.0931 -0.0201  0.0080
   60POPC   PO4 1143   3.617   4.200   8.484  0.3522  0.1750 -0.0142
   60POPC   GL1 1144   3.673   4.313   8.120  0.2243  0.2415 -0.0659
   60POPC   GL2 1145   3.481   4.039   7.945 -0.1465  0.0159 -0.2402
   60POPC   C1A 1146   3.852   4.477   7.809  0.1281  0.1534  0.0756
   60POPC   D2A 1147   3.865   4.452   7.270 -0.0040 -0.0827 -0.1223
   60POPC   C3A 1148   3.843   4.856   7.101  0.0307  0.1888 -0.2812
   60POPC   C4A 1149   3.757   5.199   6.877 -0.1126  0.0116 -0.1915
   60POPC   C1B 1150   3.522   4.172   7.476  0.1394 -0.2236 -0.1987
   60POPC   C2B 1151   3.320   4.250   7.123  0.1163 -0.0517 -0.0185
   60POPC   C3B 1152   3.457   4.476   6.739 -0.0102 -0.0972 -0.2419
   60POPC   C4B 1153   3.611   4.276   6.404 -0.0951  0.2138 -0.2111
   61POPC   NC3 1154   6.934   3.137   8.245  0.0126  0.3455 -0.0867
   61POPC   PO4 1155   6.827   2.720   8.225 -0.0812  0.0374  0.0236
   61POPC   GL1 1156   6.791   2.838   7.813  0.0556 -0.0973 -0.1769
   61POPC   GL2 1157   6.761   2.597   7.620  0.0640  0.2419  0.0221
   61POPC   C1A 1158   6.956   3.151   7.557 -0.2784  0.5478 -0.0091
   61POPC   D2A 1159   7.216   3.549   7.455  0.1563  0.2755 -0.0539
   61POPC   C3A 1160   7.604   3.770   7.162 -0.3950 -0.1445 -0.0213
   61POPC   C4A 1161   7.900   3.919   6.948 -0.0434  0.1124 -0.3383
   61POPC   C1B 1162   6.874   2.165   7.342  0.0249 -0.0719 -0.1444
   61POPC   C2B 1163   7.116   1.929   7.180 -0.1536  0.0045  0.1181
   61POPC   C3B 1164   7.011   1.558   7.284  0.1277 -0.2744 -0.0557
   61POPC   C4B 1165   7.049   1.178   7.121  0.0747  0.1401 -0.0355
   62POPC   NC3 1166   4.792   2.643   8.579  0.1516 -0.0990  0.1365
   62POPC   PO4 1167   5.157   2.564   8.292 -0.0353 -0.0196 -0.1653
   62POPC   GL1 1168   5.188   2.563   7.874  0.0691  0.0900 -0.1467
   62POPC   GL2 1169   5.428   2.463   7.688 -0.0258  0.2778  0.1718
   62POPC   C1A 1170   5.051   2.446   7.366  0.0692 -0.1651 -0.1193
   62POPC   D2A 1171   5.220   2.624   7.093 -0.3755  0.0161 -0.2027
   62POPC   C3A 1172   5.684   2.654   7.086  0.2817 -0.5679 -0.2367
   62POPC   C4A 1173   6.060   2.789   7.160  0.0094  0.2461 -0.0248
   62POPC   C1B 1174   5.489   2.196   7.349  0.2536 -0.0058  0.1352
   62POPC   C2B 1175   5.497   1.902   7.046  0.2951 -0.2711  0.0530
   62POPC   C3B 1176   5.620   1.522   6.963  0.0479 -0.0436  0.1048
   62POPC   C4B 1177   5.602   1.154   6.742  0.1855 -0.0534 -0.0443
   63POPC   NC3 1178   5.066   4.973   8.437 -0.0306 -0.5028 -0.0614
   63POPC   PO4 1179   5.544   4.818   8.437  0.2705  0.1195 -0.0146
   63POPC   GL1 1180   5.480   5.061   8.084  0.1383 -0.2674 -0.0825
   63POPC   GL2 1181   5.579   5.386   8.166 -0.4466 -0.0092 -0.0640
   63POPC   C1A 1182   5.424   5.405   7.667 -0.0340  0.2923 -0.1570
   63POPC   D2A 1183   5.101   5.507   7.443 -0.1309  0.0009  0.1004
   63POPC   C3A 1184   5.112   5.503   7.113  0.1675  0.0841  0.4571
   63POPC   C4A 1185   5.374   5.583   6.728  0.0202  0.0342 -0.1533
   63POPC   C1B 1186   5.665   5.725   7.939 -0.1730 -0.0354  0.0217
   63POPC   C2B 1187   5.663   6.048   7.699 -0.0532  0.0550 -0.1437
   63POPC   C3B 1188   5.422   6.393   7.541 -0.2917  0.0902  0.0738
   63POPC   C4B 1189   5.256   6.857   7.491  0.0311  0.1244 -0.2120
   64POPC   NC3 1190   4.435   8.457   8.747 -0.0565  0.0063  0.2310
   64POPC   PO4 1191   4.403   8.853   8.554  0.0313 -0.1803 -0.0405
   64POPC   GL1 1192   4.703   9.047   8.215  0.1047 -0.0061  0.0128
   64POPC   GL2 1193   4.500   9.164   7.914 -0.0374 -0.2540 -0.0030
   64POPC   C1A 1194   5.135   9.089   8.052  0.3979 -0.0020  0.0161
   64POPC   D2A 1195   5.261   8.979   7.808  0.3052 -0.0196  0.1801
   64POPC   C3A 1196   5.031   9.233   7.381  0.3928 -0.2710  0.1299
   64POPC   C4A 1197   4.625   9.261   7.084  0.1972  0.1791  0.0304
   64POPC   C1B 1198   4.249   9.258   7.473 -0.0760  0.1331 -0.0134
   64POPC   C2B 1199   4.164   9.249   7.044  0.0672 -0.0294 -0.2667
   64POPC   C3B 1200   3.865   9.012   6.842  0.0072  0.3480  0.0736
   64POPC   C4B 1201   3.419   8.856   6.864  0.0848  0.0513  0.2078
   65POPC   NC3 1202   7.738   2.754   8.616  0.2706 -0.1870  0.2993
   65POPC   PO4 1203   7.221   2.659   8.585  0.0238  0.0218  0.1155
   65POPC   GL1 1204   7.349   2.853   8.160  0.1072 -0.2038  0.0203
   65POPC   GL2 1205   7.233   2.568   7.947  0.0262 -0.1002 -0.2775
   65POPC   C1A 1206   7.447   3.000   7.734 -0.0490 -0.2002 -0.3498
   65POPC   D2A 1207   7.314   2.965   7.239  0.0886  0.0813  0.1832
   65POPC   C3A 1208   7.352   3.361   7.028  0.0330 -0.1552 -0.0710
   65POPC   C4A 1209   7.490   3.586   6.680 -0.0008 -0.0140 -0.2626
   65POPC   C1B 1210   7.211   2.510   7.489 -0.1585  0.3244  0.0736
   65POPC   C2B 1211   7.092   2.565   7.116  0.0166 -0.1130 -0.0958
   65POPC   C3B 1212   7.018   2.665   6.736 -0.1160 -0.1348  0.2000
   65POPC   C4B 1213   7.094   2.531   6.341 -0.0799 -0.2988 -0.1862
   66POPC   NC3 1214   7.392   7.702   8.863 -0.0951 -0.1551  0.4004
   66POPC   PO4 1215   7.235   7.284   8.847 -0.0516  0.2262 -0.0332
   66POPC   GL1 1216   7.393   7.340   8.397 -0.1781 -0.2469  0.2234
   66POPC   GL2 1217   7.662   7.108   8.123 -0.3515 -0.0693 -0.0845
   66POPC   C1A 1218   7.277   7.435   7.977  0.0411 -0.1325 -0.0530
   66POPC   D2A 1219   7.016   7.521   7.634 -0.0191  0.0616  0.0858
   66POPC   C3A 1220   6.554   7.532   7.570  0.1509  0.0708  0.1191
   66POPC   C4A 1221   6.270   7.726   7.436 -0.0821  0.0486  0.0654
   66POPC   C1B 1222   7.598   6.931   7.705 -0.0013 -0.0469  0.0768
   66POPC   C2B 1223   7.324   6.933   7.321  0.0140 -0.0684  0.0892
   66POPC   C3B 1224   7.250   7.008   6.916 -0.4199 -0.4732 -0.0879
   66POPC   C4B 1225   7.101   7.302   6.574 -0.4944  0.0607 -0.0497
   67POPC   NC3 1226   2.838   2.629   8.286  0.3849 -0.0547 -0.2420
   67POPC   PO4 1227   2.919   2.941   8.344  0.3836 -0.2122  0.3615
   67POPC   GL1 1228   3.045   2.978   7.932  0.2317  0.0295  0.2138
   67POPC   GL2 1229   3.245   2.774   7.755  0.1410  0.0992 -0.0073
   67POPC   C1A 1230   2.771   3.007   7.518 -0.0201 -0.0664  0.1998
   67POPC   D2A 1231   2.572   2.919   7.061 -0.0505  0.4663 -0.1733
   67POPC   C3A 1232   2.764   2.816   6.623 -0.0224  0.0880  0.1837
   67POPC   C4A 1233   2.883   3.067   6.221 -0.1542 -0.0077 -0.1802
   67POPC   C1B 1234   2.934   2.585   7.409  0.1718  0.1105 -0.4032
   67POPC   C2B 1235   2.784   2.468   7.035  0.2956 -0.0678 -0.1144
   67POPC   C3B 1236   2.283   2.456   6.918 -0.1433 -0.4522  0.0585
   67POPC   C4B 1237   2.036   2.312   6.556 -0.0986 -0.1577 -0.1499
   68POPC   NC3 1238   4.961   0.254   8.216  0.1511 -0.2259  0.1311
   68POPC   PO4 1239   4.831   0.728   8.381  0.0512  0.1094  0.3237
   68POPC   GL1 1240   4.700   0.632   7.964 -0.0948  0.1736  0.1623
   68POPC   GL2 1241   4.419   0.640   7.995  0.2906  0.1073  0.1433
   68POPC   C1A 1242   4.763   0.402   7.528 -0.0208 -0.0557  0.1222
   68POPC   D2A 1243   4.881   0.224   7.212  0.1417  0.1570  0.0926
   68POPC   C3A 1244   4.643  -0.122   7.107 -0.1507  0.2487  0.5257
   68POPC   C4A 1245   4.431  -0.273   6.625  0.0641  0.0203 -0.0541
   68POPC   C1B 1246   4.322   0.787   7.517  0.2027 -0.0823 -0.1357
   68POPC   C2B 1247   4.541   0.798   7.117  0.3154  0.3667  0.2520
   68POPC   C3B 1248   4.863   0.970   6.889  0.0891  0.0700  0.1881
   68POPC   C4B 1249   5.093   0.938   6.561 -0.0317 -0.1017 -0.1327
   69POPC   NC3 1250   0.778   9.095   9.102 -0.0296 -0.2080 -0.4221
   69POPC   PO4 1251   0.606   8.927   8.900  0.0955  0.2486 -0.4464
   69POPC   GL1 1252   0.778   8.682   8.593 -0.4899  0.4074 -0.0908
   69POPC   GL2 1253   0.502   8.428   8.636  0.2422 -0.3273  0.1718
   69POPC   C1A 1254   0.925   8.503   8.175 -0.5241 -0.1061 -0.0926
   69POPC   D2A 1255   1.231   8.186   7.943 -0.0071  0.1367 -0.1343
   69POPC   C3A 1256   1.119   7.808   7.832  0.2671  0.1345  0.0376
   69POPC   C4A 1257   1.177   7.443   7.725 -0.0131  0.2100  0.3467
   69POPC   C1B 1258   0.639   7.986   8.809  0.1996 -0.1715 -0.0968
   69POPC   C2B 1259   0.858   7.630   8.781 -0.5350  0.0617  0.2039
   69POPC   C3B 1260   1.427   7.603   8.704 -0.3139 -0.1134 -0.0189
   69POPC   C4B 1261   1.686   7.546   8.382  0.0914  0.1327 -0.0999
   70POPC   NC3 1262   8.955   0.520   8.728  0.0107 -0.2023  0.0943
   70POPC   PO4 1263   9.212   0.223   8.747 -0.0618  0.1130 -0.0709
   70POPC   GL1 1264   9.194   0.421   8.280  0.0749 -0.2603 -0.1530
   70POPC   GL2 1265   8.930   0.617   8.249 -0.0582  0.0102 -0.1388
   70POPC   C1A 1266   9.413   0.232   7.864  0.1514 -0.1781 -0.0098
   70POPC   D2A 1267   9.538   0.205   7.377  0.1914 -0.1570  0.0443
   70POPC   C3A 1268   9.527   0.047   6.990 -0.2520  0.0323  0.0509
   70POPC   C4A 1269   9.531  -0.239   6.687 -0.1312  0.1107  0.1752
   70POPC   C1B 1270   9.065   0.580   7.822  0.1000  0.3242  0.1913
   70POPC   C2B 1271   9.075   0.323   7.444  0.0766  0.0151  0.2072
   70POPC   C3B 1272   9.042  -0.004   7.152 -0.0904  0.2715 -0.0560
   70POPC   C4B 1273   9.136  -0.317   6.942 -0.1563 -0.1302 -0.2266
   71POPC   NC3 1274   4.065   7.803   9.029 -0.0921  0.4227 -0.1271
   71POPC   PO4 1275   3.993   8.151   8.840  0.0683 -0.0430  0.1263
   71POPC   GL1 1276   3.968   7.897   8.475 -0.1408 -0.0154 -0.2273
   71POPC   GL2 1277   3.998   8.020   8.152  0.2222  0.0999 -0.1863
   71POPC   C1A 1278   3.687   7.614   8.254 -0.0144 -0.0595 -0.2784
   71POPC   D2A 1279   3.627   7.374   7.850 -0.0973  0.2480  0.0574
   71POPC   C3A 1280   3.478   7.496   7.367 -0.2042 -0.1214 -0.2174
   71POPC   C4A 1281   3.296   7.514   7.002  0.0755 -0.2541 -0.0894
   71POPC   C1B 1282   4.093   8.364   7.848  0.1605 -0.0032 -0.3702
   71POPC   C2B 1283   4.369   8.407   7.503 -0.0797 -0.1336 -0.1447
   71POPC   C3B 1284   4.434   8.160   7.145 -0.2352  0.2151  0.4117
   71POPC   C4B 1285   4.401   7.770   6.888  0.1406  0.1752 -0.0525
   72POPC   NC3 1286   7.137   8.914   9.185  0.1306 -0.0688  0.2844
   72POPC   PO4 1287   7.223   8.838   8.702  0.2261 -0.0916 -0.0119
   72POPC   GL1 1288   7.289   8.774   8.287  0.2477  0.1547 -0.1479
   72POPC   GL2 1289   7.126   8.676   8.001 -0.2110  0.1449 -0.0185
   72POPC   C1A 1290   7.548   8.969   7.946  0.2566  0.0481 -0.0033
   72POPC   D2A 1291   7.892   9.114   7.718  0.0339  0.5170 -0.1371
   72POPC   C3A 1292   8.034   8.584   7.643 -0.1168 -0.2827  0.0721
   72POPC   C4A 1293   7.953   8.252   7.428  0.2643 -0.2517 -0.2209
   72POPC   C1B 1294   7.389   8.466   7.739 -0.0559 -0.0745 -0.1767
   72POPC   C2B 1295   7.478   8.300   7.331  0.0860 -0.2876 -0.0088
   72POPC   C3B 1296   7.662   8.043   6.996  0.2815 -0.2225 -0.0723
   72POPC   C4B 1297   8.002   8.082   6.757 -0.2479 -0.1829 -0.0058
   73POPC   NC3 1298   6.415   9.370   8.919 -0.2419 -0.0447 -0.2200
   73POPC   PO4 1299   5.967   9.344   8.804  0.0536  0.2263 -0.1511
   73POPC   GL1 1300   5.890   9.281   8.367 -0.0006 -0.3244 -0.0615
   73POPC   GL2 1301   6.004   9.458   8.181 -0.2233 -0.1439 -0.3303
   73POPC   C1A 1302   5.669   9.095   8.031 -0.0976  0.2742  0.0329
   73POPC   D2A 1303   5.682   9.019   7.529  0.1337 -0.0219 -0.1532
   73POPC   C3A 1304   5.590   8.967   7.152  0.1253 -0.1898  0.1264
   73POPC   C4A 1305   5.587   9.299   6.804  0.3982 -0.0682 -0.2523
   73POPC   C1B 1306   5.916   9.466   7.680  0.1912  0.2673 -0.3187
   73POPC   C2B 1307   6.127   9.238   7.339 -0.2514 -0.0078  0.0858
   73POPC   C3B 1308   6.407   9.410   6.949  0.1837 -0.0409 -0.0353
   73POPC   C4B 1309   6.454   9.485   6.565 -0.0187 -0.3155  0.0056
   74POPC   NC3 1310   7.701   6.515   8.940  0.2655  0.0049  0.1709
   74POPC   PO4 1311   7.744   6.145   8.845 -0.0133 -0.0970 -0.1214
   74POPC   GL1 1312   7.774   6.002   8.382 -0.2809 -0.1245  0.2596
   74POPC   GL2 1313   7.604   5.723   8.199  0.0526  0.1063 -0.1457
   74POPC   C1A 1314   7.803   6.110   7.941  0.2287  0.3167  0.0327
   74POPC   D2A 1315   7.811   6.044   7.538  0.1428  0.1538 -0.2398
   74POPC   C3A 1316   7.620   5.956   7.186 -0.0697 -0.1843 -0.2422
   74POPC   C4A 1317   7.905   5.751   6.826  0.0774 -0.1529 -0.0071
   74POPC   C1B 1318   7.576   5.689   7.755 -0.0143  0.0370 -0.1105
   74POPC   C2B 1319   7.700   5.475   7.371 -0.4767 -0.3622  0.3720
   74POPC   C3B 1320   7.972   5.273   7.097  0.1985 -0.1548  0.1223
   74POPC   C4B 1321   8.178   4.983   7.008 -0.2193 -0.2529 -0.0174
   75POPC   NC3 1322   5.472   5.239   8.707 -0.0009  0.0189 -0.3215
   75POPC   PO4 1323   5.260   5.413   8.512  0.0406  0.2860  0.0042
   75POPC   GL1 1324   5.020   5.451   8.147  0.3576  0.1137  0.1474
   75POPC   GL2 1325   5.100   5.765   7.916  0.2265  0.0349  0.0492
   75POPC   C1A 1326   4.855   5.273   7.830  0.2908 -0.1661 -0.3187
   75POPC   D2A 1327   4.660   5.065   7.553  0.4255 -0.1025 -0.0090
   75POPC   C3A 1328   4.757   5.181   7.072  0.0230 -0.2125 -0.1425
   75POPC   C4A 1329   4.902   5.137   6.735  0.3273 -0.2089 -0.0781
   75POPC   C1B 1330   5.050   5.993   7.562 -0.0005 -0.1798  0.1497
   75POPC   C2B 1331   5.353   5.966   7.302 -0.0814 -0.0551  0.1902
   75POPC   C3B 1332   5.712   5.941   7.164 -0.0523 -0.0914 -0.0575
   75POPC   C4B 1333   6.073   5.967   7.153 -0.0399 -0.0917 -0.0631
   76POPC   NC3 1334   3.519   4.846   9.079  0.1772 -0.0615 -0.1321
   76POPC   PO4 1335   3.755   5.015   8.781 -0.5517  0.1153  0.1493
   76POPC   GL1 1336   3.707   5.323   8.416 -0.0750  0.2352  0.2536
   76POPC   GL2 1337   3.378   5.401   8.413 -0.1976 -0.4182  0.0400
   76POPC   C1A 1338   3.605   5.479   7.948 -0.0307 -0.3311 -0.0610
   76POPC   D2A 1339   3.341   5.594   7.612  0.0619 -0.0522 -0.1430
   76POPC   C3A 1340   3.361   5.476   7.153 -0.1643 -0.3173  0.1705
   76POPC   C4A 1341   3.343   5.429   6.711 -0.0747 -0.0752  0.0044
   76POPC   C1B 1342   3.084   5.767   8.170 -0.0529  0.2131  0.0197
   76POPC   C2B 1343   2.893   5.776   7.807  0.1827 -0.1259 -0.5829
   76POPC   C3B 1344   2.841   5.661   7.380  0.2782 -0.2295 -0.1573
   76POPC   C4B 1345   2.895   5.398   6.891 -0.3391 -0.0734 -0.0489
   77POPC   NC3 1346   0.030   9.575   8.490 -0.2432 -0.0233  0.1280
   77POPC   PO4 1347   0.481   9.699   8.584  0.3685  0.1434  0.0486
   77POPC   GL1 1348   0.553   9.565   8.226  0.0272 -0.0109  0.1184
   77POPC   GL2 1349   0.202   9.503   8.008  0.1538 -0.1095  0.0872
   77POPC   C1A 1350   0.871   9.668   7.915 -0.1346 -0.3681  0.0263
   77POPC   D2A 1351   0.821   9.638   7.395 -0.0980 -0.4514 -0.2143
   77POPC   C3A 1352   1.060   9.300   7.215 -0.0932 -0.1878 -0.1249
   77POPC   C4A 1353   1.284   9.085   6.836 -0.1969 -0.0999 -0.0936
   77POPC   C1B 1354   0.348   9.516   7.576  0.0399 -0.0241 -0.2116
   77POPC   C2B 1355   0.530   9.452   7.075  0.2977 -0.0608 -0.3738
   77POPC   C3B 1356   0.359   9.585   6.706  0.1826 -0.0689  0.2567
   77POPC   C4B 1357   0.568   9.783   6.294  0.0371  0.4757 -0.0177
   78POPC   NC3 1358   1.462   7.329  10.387 -0.2301 -0.1442 -0.0635
   78POPC   PO4 1359   1.794   7.104  10.170  0.4091  0.5452  0.1581
   78POPC   GL1 1360   1.655   6.875   9.849  0.1745  0.1169  0.0498
   78POPC   GL2 1361   1.455   7.119   9.749  0.2856 -0.0981 -0.0802
   78POPC   C1A 1362   1.645   6.680   9.453  0.2985 -0.2068  0.0098
   78POPC   D2A 1363   1.336   6.506   9.216 -0.2951  0.2600  0.5004
   78POPC   C3A 1364   0.958   6.661   9.231  0.1421 -0.1102 -0.0470
   78POPC   C4A 1365   0.658   7.016   9.127  0.0888 -0.3293  0.0227
   78POPC   C1B 1366   1.323   7.012   9.385 -0.1591  0.0873  0.0726
   78POPC   C2B 1367   1.163   7.262   8.963  0.2008  0.1390 -0.2845
   78POPC   C3B 1368   1.179   7.201   8.539 -0.0321 -0.0571  0.0001
   78POPC   C4B 1369   1.154   7.429   8.207  0.0338  0.1636 -0.4699
   79POPC   NC3 1370   7.642   2.000   9.047 -0.0451  0.2687  0.0107
   79POPC   PO4 1371   7.589   1.873   8.619  0.0887  0.1710 -0.2462
   79POPC   GL1 1372   7.658   1.928   8.197 -0.0480 -0.2931  0.0638
   79POPC   GL2 1373   7.505   2.132   8.029 -0.0312 -0.1498  0.0956
   79POPC   C1A 1374   7.932   1.952   7.765 -0.0572  0.1231  0.1606
   79POPC   D2A 1375   7.958   1.974   7.326  0.1558  0.0805  0.1018
   79POPC   C3A 1376   8.369   1.868   7.121  0.3290  0.2703 -0.1068
   79POPC   C4A 1377   8.381   1.446   6.928  0.4520  0.0368  0.0626
   79POPC   C1B 1378   7.541   2.131   7.628  0.2233  0.0310  0.0072
   79POPC   C2B 1379   7.601   2.337   7.282  0.0699 -0.0514  0.0346
   79POPC   C3B 1380   7.607   2.624   6.887 -0.0274 -0.3769  0.0757
   79POPC   C4B 1381   7.915   2.526   6.504 -0.2810  0.0347  0.0558
   80POPC   NC3 1382   8.690   0.067   8.726 -0.2029  0.0058 -0.2381
   80POPC   PO4 1383   8.426   0.517   8.782  0.0708 -0.2091  0.0231
   80POPC   GL1 1384   8.492   0.325   8.393 -0.0720 -0.0907  0.4992
   80POPC   GL2 1385   8.761   0.097   8.240  0.0312 -0.0945  0.1407
   80POPC   C1A 1386   8.475   0.406   7.969  0.0446  0.1403  0.2465
   80POPC   D2A 1387   8.206   0.569   7.736  0.0304  0.1914  0.1409
   80POPC   C3A 1388   8.250   0.512   7.186  0.1512 -0.3461 -0.3590
   80POPC   C4A 1389   7.924   0.453   6.841 -0.1142 -0.5233  0.0500
   80POPC   C1B 1390   8.965  -0.057   7.725  0.0827 -0.1907  0.1117
   80POPC   C2B 1391   8.807  -0.330   7.447 -0.3012 -0.0734  0.0009
   80POPC   C3B 1392   8.824  -0.660   7.096  0.1709 -0.2132  0.0005
   80POPC   C4B 1393   8.678  -1.040   7.024 -0.1354 -0.0595 -0.0035
   81POPC   NC3 1394   4.902   2.137   8.210 -0.0372 -0.0638  0.0229
   81POPC   PO4 1395   4.443   1.998   8.126 -0.0341 -0.0868  0.1435
   81POPC   GL1 1396   4.285   1.861   7.742  0.0769  0.1746 -0.4486
   81POPC   GL2 1397   3.997   1.900   7.654 -0.4053  0.0778  0.0065
   81POPC   C1A 1398   4.428   1.570   7.427  0.1550 -0.2016 -0.2387
   81POPC   D2A 1399   4.744   1.448   7.072 -0.4927 -0.4445 -0.1077
   81POPC   C3A 1400   4.582   1.307   6.684  0.0823  0.3272 -0.2516
   81POPC   C4A 1401   4.443   0.793   6.615 -0.2595 -0.0032 -0.0968
   81POPC   C1B 1402   4.120   2.085   7.282  0.2040  0.1120 -0.0228
   81POPC   C2B 1403   4.058   2.185   6.836 -0.1586 -0.3527  0.0505
   81POPC   C3B 1404   4.088   1.898   6.563  0.1145  0.1175  0.0429
   81POPC   C4B 1405   4.180   1.975   6.076  0.1236 -0.2400  0.2896
   82POPC   NC3 1406   5.429   8.573   8.769  0.3293 -0.3741 -0.1992
   82POPC   PO4 1407   5.491   8.225   8.739  0.0697 -0.4814  0.0467
   82POPC   GL1 1408   5.429   8.180   8.360  0.0339 -0.1982 -0.0296
   82POPC   GL2 1409   5.718   8.013   8.203 -0.1449 -0.1442 -0.2851
   82POPC   C1A 1410   5.273   8.040   7.946 -0.2658  0.0063 -0.3815
   82POPC   D2A 1411   5.294   7.945   7.567 -0.1446 -0.0406 -0.1812
   82POPC   C3A 1412   5.264   8.162   7.215 -0.0660  0.2591 -0.0659
   82POPC   C4A 1413   4.879   8.382   7.101  0.1182 -0.2598  0.4666
   82POPC   C1B 1414   5.749   8.177   7.882  0.2151 -0.1700  0.0672
   82POPC   C2B 1415   5.668   8.385   7.480 -0.0803  0.2396 -0.0549
   82POPC   C3B 1416   5.843   8.548   7.082 -0.1936 -0.2040  0.4104
   82POPC   C4B 1417   6.000   8.801   6.924  0.1513  0.2836 -0.0335
   83POPC   NC3 1418   1.652   4.435   9.085 -0.1382  0.2287  0.1172
   83POPC   PO4 1419   1.180   4.249   9.137 -0.2992 -0.2560 -0.2455
   83POPC   GL1 1420   1.155   4.498   8.820 -0.3619 -0.3788  0.3690
   83POPC   GL2 1421   1.088   4.388   8.550 -0.2724  0.2195  0.1371
   83POPC   C1A 1422   1.317   4.836   8.584 -0.0191 -0.0751 -0.0653
   83POPC   D2A 1423   1.103   5.178   8.380  0.2099  0.1302  0.4328
   83POPC   C3A 1424   0.928   5.461   8.656  0.1390  0.1267 -0.4155
   83POPC   C4A 1425   0.587   5.702   8.591  0.2921  0.0121  0.0576
   83POPC   C1B 1426   1.324   4.566   8.160 -0.0540 -0.0153 -0.1282
   83POPC   C2B 1427   1.245   4.866   7.793 -0.0624 -0.0570  0.0067
   83POPC   C3B 1428   0.962   4.771   7.458 -0.0418  0.1620  0.2771
   83POPC   C4B 1429   0.705   4.958   7.086  0.0493  0.1250  0.0122
   84POPC   NC3 1430   8.445   4.213   8.451 -0.3517  0.0052  0.0933
   84POPC   PO4 1431   8.497   3.703   8.432  0.1951  0.0803  0.0951
   84POPC   GL1 1432   8.654   3.844   8.083  0.0898  0.0265  0.2547
   84POPC   GL2 1433   8.749   3.667   7.809 -0.3775 -0.0447 -0.1772
   84POPC   C1A 1434   8.496   4.113   7.745 -0.0988  0.0902  0.1322
   84POPC   D2A 1435   8.655   4.422   7.631 -0.2464 -0.0638 -0.2492
   84POPC   C3A 1436   8.686   4.279   7.319 -0.0101 -0.0811  0.1093
   84POPC   C4A 1437   9.048   4.397   7.206  0.0069  0.2290 -0.1742
   84POPC   C1B 1438   9.003   4.051   7.771 -0.1630 -0.2179  0.0494
   84POPC   C2B 1439   9.343   3.998   7.584  0.0642  0.2380  0.1001
   84POPC   C3B 1440   9.571   4.159   7.184 -0.0086 -0.4185  0.3273
   84POPC   C4B 1441   9.923   4.380   7.138  0.3988  0.2295  0.0726
   85POPC   NC3 1442   9.078   5.855   9.170 -0.0599 -0.2121 -0.0159
   85POPC   PO4 1443   9.246   6.228   9.376  0.3711 -0.1757  0.1652
   85POPC   GL1 1444   9.564   6.114   9.077 -0.1331  0.0386  0.0513
   85POPC   GL2 1445   9.449   6.275   8.824  0.2728 -0.0988 -0.1269
   85POPC   C1A 1446   9.729   5.878   8.654 -0.0159 -0.0029  0.0827
   85POPC   D2A 1447   9.994   5.815   8.225  0.0963 -0.1166  0.3290
   85POPC   C3A 1448  10.365   5.810   8.135  0.3844 -0.3372  0.0435
   85POPC   C4A 1449  10.595   6.122   7.983 -0.0517  0.1230  0.1381
   85POPC   C1B 1450   9.247   6.052   8.506 -0.0382 -0.0285 -0.1870
   85POPC   C2B 1451   9.084   5.833   8.063  0.2189  0.0610 -0.0672
   85POPC   C3B 1452   9.088   5.731   7.691  0.0216  0.0889  0.2145
   85POPC   C4B 1453   9.129   5.881   7.366  0.3211  0.1139 -0.2033
   86POPC   NC3 1454   4.204   2.834   7.976 -0.2223 -0.1241 -0.0173
   86POPC   PO4 1455   4.450   3.178   7.993  0.0289 -0.0424  0.0564
   86POPC   GL1 1456   4.610   3.387   7.699  0.0137  0.0200  0.4274
   86POPC   GL2 1457   4.882   3.418   7.679  0.1732 -0.1135  0.2744
   86POPC   C1A 1458   4.300   3.520   7.353  0.4140  0.0150 -0.0730
   86POPC   D2A 1459   4.155   3.839   7.126 -0.1643  0.0734 -0.0458
   86POPC   C3A 1460   4.109   3.686   6.803  0.2341 -0.2323  0.1035
   86POPC   C4A 1461   3.870   3.764   6.516 -0.2759  0.1961 -0.1973
   86POPC   C1B 1462   5.181   3.595   7.426  0.0851  0.2636  0.2196
   86POPC   C2B 1463   5.239   3.758   7.095 -0.2347 -0.0649 -0.2284
   86POPC   C3B 1464   5.159   4.180   7.025  0.3214 -0.0326  0.0510
   86POPC   C4B 1465   5.253   4.590   6.923  0.0825 -0.0218  0.0266
   87POPC   NC3 1466   0.529   0.601   8.364 -0.1862 -0.6516 -0.0704
   87POPC   PO4 1467   0.111   0.694   8.454 -0.0722  0.0457 -0.0030
   87POPC   GL1 1468   0.278   0.689   7.977 -0.0095 -0.0603  0.1315
   87POPC   GL2 1469   0.407   0.390   7.899 -0.4531 -0.0924 -0.0235
   87POPC   C1A 1470   0.066   0.619   7.574 -0.2192 -0.0571  0.1067
   87POPC   D2A 1471  -0.164   0.616   7.066  0.1140  0.2895  0.1005
   87POPC   C3A 1472  -0.351   0.938   6.834  0.0974  0.0754  0.3315
   87POPC   C4A 1473  -0.429   1.014   6.379 -0.0124 -0.1066  0.2315
   87POPC   C1B 1474   0.568   0.120   7.642  0.1355  0.3332 -0.0969
   87POPC   C2B 1475   0.594   0.041   7.084  0.3536 -0.3028  0.1807
   87POPC   C3B 1476   0.594   0.159   6.700  0.5824 -0.2322 -0.0034
   87POPC   C4B 1477   0.633   0.412   6.294  0.2308 -0.3114  0.4068
   88POPC   NC3 1478   3.305   1.452   8.130 -0.2628 -0.2648  0.0188
   88POPC   PO4 1479   3.157   1.113   8.389  0.2163 -0.0241  0.0582
   88POPC   GL1 1480   2.925   1.071   8.042 -0.0820  0.0072 -0.1113
   88POPC   GL2 1481   2.573   0.923   7.947  0.0890 -0.1191 -0.1737
   88POPC   C1A 1482   2.943   0.996   7.590 -0.0498 -0.2220  0.0922
   88POPC   D2A 1483   3.273   1.211   7.280  0.4668 -0.0294 -0.1087
   88POPC   C3A 1484   3.312   1.655   7.137 -0.0771 -0.1317  0.0400
   88POPC   C4A 1485   3.185   1.999   7.065 -0.0158  0.0499  0.0168
   88POPC   C1B 1486   2.549   0.679   7.529 -0.3948  0.0494  0.1530
   88POPC   C2B 1487   2.269   0.704   7.161  0.1245 -0.0412 -0.3731
   88POPC   C3B 1488   2.071   0.405   6.868 -0.1797 -0.0813  0.0763
   88POPC   C4B 1489   1.984  -0.092   6.835  0.0870  0.0728  0.0130
   89POPC   NC3 1490   7.775   0.985   8.588  0.3468 -0.4286  0.3419
   89POPC   PO4 1491   7.795   1.452   8.432  0.3798 -0.2222 -0.3253
   89POPC   GL1 1492   8.093   1.423   8.147  0.0950  0.4856  0.2691
   89POPC   GL2 1493   8.260   1.693   8.105  0.0731 -0.1588 -0.0895
   89POPC   C1A 1494   8.135   1.033   7.875  0.1251 -0.3888  0.0948
   89POPC   D2A 1495   8.298   0.984   7.496 -0.0467  0.0436  0.1553
   89POPC   C3A 1496   7.984   0.974   7.153  0.0463  0.0598  0.1292
   89POPC   C4A 1497   7.533   0.801   6.979 -0.0138 -0.2481 -0.0691
   89POPC   C1B 1498   8.569   1.824   7.691  0.0710  0.1298 -0.0382
   89POPC   C2B 1499   8.850   2.021   7.444 -0.3025 -0.0048  0.2451
   89POPC   C3B 1500   9.109   2.279   7.047  0.1709  0.0519  0.1580
   89POPC   C4B 1501   9.037   2.388   6.656  0.1448 -0.1046  0.3549
   90POPC   NC3 1502   3.848   0.774   8.639 -0.1183 -0.0814 -0.3516
   90POPC   PO4 1503   3.960   0.390   8.441 -0.1345 -0.1867  0.2188
   90POPC   GL1 1504   4.091   0.263   8.101  0.2550 -0.0545  0.0904
   90POPC   GL2 1505   3.896   0.482   7.819 -0.0037  0.0281 -0.0155
   90POPC   C1A 1506   4.296   0.242   7.665 -0.1994 -0.2272  0.0879
   90POPC   D2A 1507   4.222   0.244   7.239  0.0503 -0.0411  0.3199
   90POPC   C3A 1508   4.498   0.384   6.882  0.0110  0.3067  0.4048
   90POPC   C4A 1509   4.914   0.488   6.767  0.0129  0.5142  0.0370
   90POPC   C1B 1510   3.882   0.550   7.346  0.6146  0.0773 -0.2397
   90POPC   C2B 1511   3.937   0.773   6.923 -0.1396 -0.0863  0.2902
   90POPC   C3B 1512   3.694   0.705   6.614  0.2716 -0.0994 -0.0683
   90POPC   C4B 1513   3.386   0.803   6.412 -0.0901  0.0148 -0.2215
   91POPC   NC3 1514   6.332   4.016   8.427 -0.1183  0.1024  0.1194
   91POPC   PO4 1515   6.457   3.628   8.498  0.0719  0.2508 -0.0281
   91POPC   GL1 1516   6.663   3.638   8.134  0.2387  0.1235  0.2806
   91POPC   GL2 1517   6.504   3.897   7.973 -0.1340 -0.0459 -0.1929
   91POPC   C1A 1518   6.607   3.510   7.712  0.1660  0.0688 -0.1131
   91POPC   D2A 1519   6.710   3.420   7.222 -0.1364 -0.2041 -0.0885
   91POPC   C3A 1520   6.937   3.079   6.971  0.1759 -0.1557 -0.2116
   91POPC   C4A 1521   6.684   2.914   6.542  0.2825 -0.0466 -0.1553
   91POPC   C1B 1522   6.340   3.934   7.494 -0.3028  0.1748  0.1335
   91POPC   C2B 1523   6.209   3.681   7.053 -0.2164 -0.0457  0.0635
   91POPC   C3B 1524   5.975   3.885   6.659  0.1669  0.2116 -0.0155
   91POPC   C4B 1525   5.914   4.090   6.312 -0.1065  0.0866 -0.0787
   92POPC   NC3 1526   1.491   2.170   8.671 -0.0357  0.2158 -0.0974
   92POPC   PO4 1527   1.037   2.227   8.438 -0.1406  0.2547  0.1107
   92POPC   GL1 1528   0.972   2.223   8.043  0.3661 -0.0686  0.2676
   92POPC   GL2 1529   1.258   2.274   7.841 -0.2086  0.1558 -0.2217
   92POPC   C1A 1530   1.059   1.870   7.704  0.2754  0.0655  0.0586
   92POPC   D2A 1531   1.271   1.748   7.314 -0.1559 -0.1528 -0.2115
   92POPC   C3A 1532   1.226   1.656   6.850  0.4514  0.0057  0.2712
   92POPC   C4A 1533   0.860   1.481   6.887 -0.1117  0.0943 -0.0190
   92POPC   C1B 1534   1.373   2.687   7.780  0.1812 -0.0103 -0.2482
   92POPC   C2B 1535   1.511   2.983   7.687 -0.1464  0.1964  0.0604
   92POPC   C3B 1536   1.839   3.164   7.411  0.0127 -0.1047  0.0374
   92POPC   C4B 1537   1.995   3.467   7.082 -0.5484 -0.0694  0.1110
   93POPC   NC3 1538   1.127   2.384   8.917 -0.0735  0.0668  0.0382
   93POPC   PO4 1539   0.990   2.710   8.542  0.4455  0.0636 -0.1121
   93POPC   GL1 1540   0.884   2.712   8.063  0.3985 -0.3039 -0.3353
   93POPC   GL2 1541   0.582   2.885   8.100  0.1276  0.1053  0.2009
   93POPC   C1A 1542   1.005   2.980   7.808  0.4879  0.1874 -0.0366
   93POPC   D2A 1543   0.765   3.352   7.765 -0.1807 -0.2427  0.2816
   93POPC   C3A 1544   0.626   3.128   7.347 -0.4168  0.0500 -0.1747
   93POPC   C4A 1545   0.621   3.046   6.911 -0.0195 -0.0475 -0.1245
   93POPC   C1B 1546   0.521   2.788   7.672 -0.1141  0.0304 -0.1763
   93POPC   C2B 1547   0.312   2.744   7.312  0.0770 -0.0542  0.1286
   93POPC   C3B 1548   0.171   2.794   6.860  0.2075  0.0915 -0.3388
   93POPC   C4B 1549   0.126   3.151   6.594 -0.0626  0.0409  0.0799
   94POPC   NC3 1550   3.338   3.974   8.790  0.1316  0.3687 -0.1357
   94POPC   PO4 1551   3.017   4.237   8.728 -0.1452 -0.1484 -0.2135
   94POPC   GL1 1552   2.912   4.258   8.317 -0.0881  0.0772 -0.0950
   94POPC   GL2 1553   3.143   4.286   8.213 -0.1524  0.3421  0.3911
   94POPC   C1A 1554   2.714   4.367   7.960 -0.1624 -0.0670 -0.0020
   94POPC   D2A 1555   2.722   4.728   7.678  0.2141 -0.0397  0.0214
   94POPC   C3A 1556   2.942   4.974   7.763 -0.1678 -0.1890  0.2029
   94POPC   C4A 1557   3.079   5.248   7.940 -0.0369 -0.1767  0.1650
   94POPC   C1B 1558   3.208   4.554   7.918  0.2762  0.0037 -0.3570
   94POPC   C2B 1559   3.295   4.654   7.477 -0.0045 -0.1405 -0.1731
   94POPC   C3B 1560   3.348   4.920   7.006 -0.0300 -0.1553 -0.2691
   94POPC   C4B 1561   3.422   4.969   6.617  0.3335 -0.1875 -0.1889
   95POPC   NC3 1562   6.410   2.546   7.969 -0.1627  0.1050 -0.1161
   95POPC   PO4 1563   6.083   2.205   8.267 -0.1967 -0.3972  0.3731
   95POPC   GL1 1564   6.251   2.099   7.827  0.4327  0.1854 -0.0209
   95POPC   GL2 1565   6.623   2.145   7.801  0.1036 -0.4931 -0.1486
   95POPC   C1A 1566   6.381   2.092   7.351  0.3256 -0.0791 -0.0531
   95POPC   D2A 1567   6.383   2.188   6.904  0.0731  0.0986 -0.4610
   95POPC   C3A 1568   6.550   2.567   6.973 -0.0816  0.2496  0.2115
   95POPC   C4A 1569   6.580   2.927   7.345 -0.4988 -0.1300 -0.4286
   95POPC   C1B 1570   7.031   2.107   7.824  0.1218 -0.0673  0.2726
   95POPC   C2B 1571   7.223   1.749   7.770 -0.1758  0.3698 -0.1769
   95POPC   C3B 1572   7.474   1.695   7.443  0.0898 -0.0625  0.0443
   95POPC   C4B 1573   7.480   1.236   7.276  0.2284 -0.0805 -0.2123
   96POPC   NC3 1574   2.277   5.435   9.515  0.0342 -0.2792  0.0817
   96POPC   PO4 1575   2.600   5.208   9.426 -0.0116  0.2491  0.2385
   96POPC   GL1 1576   2.266   5.256   9.056  0.0880  0.3633  0.1995
   96POPC   GL2 1577   2.034   5.103   8.915 -0.1097 -0.1657 -0.1784
   96POPC   C1A 1578   2.272   5.563   8.736  0.0292  0.2690  0.1565
   96POPC   D2A 1579   2.432   5.960   8.720  0.0197  0.0633  0.1054
   96POPC   C3A 1580   2.307   6.289   8.915 -0.6771 -0.2886 -0.0690
   96POPC   C4A 1581   2.048   6.448   9.290  0.1422 -0.2725 -0.0431
   96POPC   C1B 1582   1.833   5.020   8.642 -0.0378 -0.1290 -0.0196
   96POPC   C2B 1583   1.608   5.071   8.153 -0.2720  0.3484  0.2320
   96POPC   C3B 1584   1.364   5.444   8.004  0.2371 -0.1095  0.0027
   96POPC   C4B 1585   1.036   5.783   7.831  0.4216  0.2989  0.0464
   97POPC   NC3 1586   4.930   8.911   8.732  0.2120  0.2292 -0.0237
   97POPC   PO4 1587   4.931   8.475   8.730 -0.1264 -0.1906  0.0994
   97POPC   GL1 1588   4.738   8.517   8.369  0.0787 -0.1550 -0.0924
   97POPC   GL2 1589   4.436   8.309   8.273 -0.0268  0.0489 -0.1643
   97POPC   C1A 1590   4.625   8.617   7.934  0.2182 -0.4530  0.0057
   97POPC   D2A 1591   4.612   8.892   7.518  0.0078 -0.0761 -0.0073
   97POPC   C3A 1592   4.567   8.779   7.112  0.0501 -0.4302 -0.3319
   97POPC   C4A 1593   4.753   8.780   6.685 -0.2328  0.1043 -0.0941
   97POPC   C1B 1594   4.802   8.179   7.976 -0.2294 -0.2987 -0.3246
   97POPC   C2B 1595   4.745   8.026   7.537  0.0397 -0.1033  0.2915
   97POPC   C3B 1596   4.882   7.806   7.226  0.1282  0.4067 -0.1784
   97POPC   C4B 1597   4.919   7.927   6.853 -0.2347  0.0895  0.1387
   98POPC   NC3 1598   5.159   7.129   8.531  0.0919  0.3528  0.2421
   98POPC   PO4 1599   4.915   6.723   8.441 -0.0174  0.1359  0.5717
   98POPC   GL1 1600   4.854   6.975   8.118  0.2878 -0.1712 -0.2551
   98POPC   GL2 1601   4.517   7.141   8.127 -0.2766 -0.0567  0.3182
   98POPC   C1A 1602   4.736   7.035   7.685  0.0033  0.0448 -0.2376
   98POPC   D2A 1603   4.452   6.822   7.325 -0.1273  0.2737  0.1415
   98POPC   C3A 1604   4.526   6.585   7.126  0.3741 -0.0423  0.2661
   98POPC   C4A 1605   4.439   6.405   6.724  0.1332  0.2084  0.3854
   98POPC   C1B 1606   4.241   7.125   7.654 -0.0049  0.0477 -0.0731
   98POPC   C2B 1607   4.048   7.052   7.215  0.0986  0.3709  0.2706
   98POPC   C3B 1608   4.009   6.747   6.788 -0.1418  0.2786 -0.1898
   98POPC   C4B 1609   4.026   6.442   6.388  0.2204 -0.1529 -0.2354
   99POPC   NC3 1610   5.492   4.263   8.711 -0.1697 -0.4178 -0.0863
   99POPC   PO4 1611   5.129   4.529   8.604  0.0418 -0.1492 -0.1466
   99POPC   GL1 1612   5.070   4.545   8.186 -0.0599  0.1533  0.1177
   99POPC   GL2 1613   5.054   4.743   8.016  0.2174 -0.2250 -0.0498
   99POPC   C1A 1614   5.135   4.359   7.749 -0.1772  0.0816 -0.1650
   99POPC   D2A 1615   4.960   4.074   7.454  0.2091 -0.0958 -0.2348
   99POPC   C3A 1616   4.771   3.859   7.162  0.0506 -0.3676 -0.0383
   99POPC   C4A 1617   4.605   3.670   6.948  0.1187 -0.0306 -0.1575
   99POPC   C1B 1618   5.225   4.887   7.606  0.1716  0.0533 -0.2374
   99POPC   C2B 1619   5.212   4.989   7.298 -0.0794  0.1364  0.3419
   99POPC   C3B 1620   5.493   5.034   6.871  0.0895 -0.0050  0.0748
   99POPC   C4B 1621   5.900   4.873   6.698  0.0066  0.1170  0.0272
  100POPC   NC3 1622   6.423   1.064   8.640  0.0569  0.1370  0.0949
  100POPC   PO4 1623   6.817   1.106   8.372 -0.3072  0.1270 -0.2275
  100POPC   GL1 1624   6.477   0.965   8.128  0.2323 -0.0080 -0.1669
  100POPC   GL2 1625   6.093   0.893   8.186 -0.3243  0.0286 -0.2590
  100POPC   C1A 1626   6.373   0.606   7.797  0.0664 -0.0666  0.0504
  100POPC   D2A 1627   6.463   0.275   7.593  0.1649 -0.2946  0.0023
  100POPC   C3A 1628   6.370   0.305   7.146  0.2084 -0.1457 -0.1016
  100POPC   C4A 1629   6.652  -0.003   6.981 -0.0978 -0.0143  0.0746
  100POPC   C1B 1630   5.862   0.497   7.847 -0.0186  0.0370 -0.0775
  100POPC   C2B 1631   5.939   0.460   7.363  0.1929 -0.0775  0.1838
  100POPC   C3B 1632   5.847   0.213   6.927  0.1338 -0.0598  0.0878
  100POPC   C4B 1633   5.743   0.108   6.545  0.1010  0.1176  0.1349
  101POPC   NC3 1634   2.604   4.823   9.065  0.1666 -0.1760  0.0274
  101POPC   PO4 1635   3.048   4.701   9.040  0.1133 -0.0403 -0.1330
  101POPC   GL1 1636   2.812   4.710   8.605  0.2023  0.2181 -0.1076
  101POPC   GL2 1637   3.073   4.822   8.395 -0.2079  0.0566  0.0386
  101POPC   C1A 1638   2.630   4.852   8.150 -0.2439 -0.0835  0.0618
  101POPC   D2A 1639   2.555   5.213   7.918 -0.1907 -0.0728  0.0987
  101POPC   C3A 1640   2.385   5.591   7.723  0.0142  0.0190  0.1361
  101POPC   C4A 1641   2.449   6.102   7.664  0.0196 -0.1461  0.1999
  101POPC   C1B 1642   2.829   5.239   8.478  0.0113  0.1572  0.3531
  101POPC   C2B 1643   2.564   5.572   8.342 -0.0878  0.0087 -0.0187
  101POPC   C3B 1644   2.363   5.904   8.164  0.1559 -0.0163  0.0142
  101POPC   C4B 1645   2.047   5.949   7.839  0.0921  0.2962 -0.2488
  102POPC   NC3 1646   0.288   0.327   8.739  0.4173  0.1523 -0.0324
  102POPC   PO4 1647  -0.133   0.118   8.613  0.2685 -0.3408 -0.2095
  102POPC   GL1 1648  -0.236   0.066   8.304 -0.0992  0.1423  0.1905
  102POPC   GL2 1649  -0.181   0.379   8.195  0.0776 -0.2216  0.1295
  102POPC   C1A 1650  -0.312  -0.253   7.921 -0.0025 -0.2600  0.0524
  102POPC   D2A 1651  -0.433  -0.248   7.456  0.1927  0.3171  0.0025
  102POPC   C3A 1652  -0.658  -0.532   7.410 -0.0969 -0.1085  0.0638
  102POPC   C4A 1653  -0.879  -0.963   7.434 -0.3981 -0.1621  0.0009
  102POPC   C1B 1654  -0.000   0.150   7.858 -0.1756  0.2189  0.0442
  102POPC   C2B 1655   0.090   0.002   7.439  0.0789 -0.4026 -0.3325
  102POPC   C3B 1656   0.007  -0.314   7.091  0.0632  0.2214  0.0108
  102POPC   C4B 1657  -0.056  -0.674   6.758  0.0735 -0.0282  0.0488
  103POPC   NC3 1658   8.228   5.345   9.073 -0.0169  0.0251  0.2973
  103POPC   PO4 1659   8.114   5.166   8.592 -0.3893 -0.0227  0.2287
  103POPC   GL1 1660   8.067   5.327   8.140 -0.1082 -0.1386 -0.1223
  103POPC   GL2 1661   7.797   5.197   7.952 -0.1850  0.2167 -0.0585
  103POPC   C1A 1662   8.076   5.621   7.844 -0.0894 -0.2001  0.0676
  103POPC   D2A 1663   8.124   5.706   7.412 -0.0422 -0.0868  0.3234
  103POPC   C3A 1664   8.149   6.056   7.179  0.1663  0.1966  0.2481
  103POPC   C4A 1665   8.210   6.196   6.752 -0.4137  0.3254 -0.0866
  103POPC   C1B 1666   8.041   5.146   7.604  0.0739  0.0044 -0.1751
  103POPC   C2B 1667   8.430   5.263   7.382 -0.1949  0.0503  0.0427
  103POPC   C3B 1668   8.639   5.111   7.040 -0.2590  0.3843  0.0590
  103POPC   C4B 1669   9.138   5.131   6.990  0.0229  0.3431  0.0079
  104POPC   NC3 1670   3.828   3.773   8.408  0.2136  0.0343  0.0876
  104POPC   PO4 1671   3.645   3.541   8.031  0.0168 -0.3615 -0.1073
  104POPC   GL1 1672   3.429   3.368   7.774 -0.0610  0.0706 -0.1329
  104POPC   GL2 1673   3.218   3.589   7.758 -0.1011  0.0607 -0.3383
  104POPC   C1A 1674   3.203   3.199   7.421  0.0780  0.0189 -0.1296
  104POPC   D2A 1675   3.108   2.887   7.085  0.0035  0.1368  0.1736
  104POPC   C3A 1676   3.348   2.853   6.731 -0.0537  0.2427 -0.0375
  104POPC   C4A 1677   3.408   2.854   6.320  0.0966 -0.0097 -0.2318
  104POPC   C1B 1678   3.271   3.688   7.312  0.0449 -0.1696 -0.1935
  104POPC   C2B 1679   3.590   3.763   7.004 -0.0426  0.0157  0.0868
  104POPC   C3B 1680   3.821   4.136   6.922 -0.0577 -0.0233  0.1833
  104POPC   C4B 1681   4.074   4.465   6.817 -0.2699 -0.1493 -0.1213
  105POPC   NC3 1682   3.512   3.030   8.153  0.1654 -0.3290 -0.0154
  105POPC   PO4 1683   3.790   2.748   8.255 -0.2246 -0.1383 -0.3149
  105POPC   GL1 1684   3.696   2.449   7.999 -0.0559  0.3087  0.1598
  105POPC   GL2 1685   3.975   2.397   7.763  0.1024 -0.0106  0.2706
  105POPC   C1A 1686   3.517   2.389   7.605  0.2310 -0.0189  0.0461
  105POPC   D2A 1687   3.396   2.468   7.268  0.1092  0.3771 -0.3952
  105POPC   C3A 1688   3.655   2.498   6.917  0.1700 -0.2744  0.0320
  105POPC   C4A 1689   3.658   2.419   6.434 -0.3014 -0.1698  0.3033
  105POPC   C1B 1690   3.877   2.572   7.353 -0.2282  0.0251 -0.2513
  105POPC   C2B 1691   4.089   2.671   6.958 -0.1021 -0.1432  0.1609
  105POPC   C3B 1692   3.847   2.909   6.617 -0.2087  0.0320  0.1121
  105POPC   C4B 1693   3.680   3.288   6.291  0.2279  0.0478 -0.4256
  106POPC   NC3 1694   8.043   1.889   8.581  0.2787 -0.0571 -0.1395
  106POPC   PO4 1695   8.088   2.198   8.312 -0.0141  0.1050 -0.0438
  106POPC   GL1 1696   8.247   2.318   7.929  0.1813 -0.1458 -0.2428
  106POPC   GL2 1697   8.536   2.409   7.991  0.0518 -0.2054  0.2947
  106POPC   C1A 1698   8.370   2.232   7.469 -0.1693  0.0998 -0.1216
  106POPC   D2A 1699   8.540   2.362   7.069 -0.1563  0.0905  0.0460
  106POPC   C3A 1700   8.681   2.048   6.751 -0.0656 -0.1869 -0.5320
  106POPC   C4A 1701   8.912   1.884   6.445 -0.0312 -0.3027 -0.2448
  106POPC   C1B 1702   8.781   2.455   7.596 -0.0110 -0.0928  0.3117
  106POPC   C2B 1703   8.732   2.822   7.268  0.0948  0.0583  0.0833
  106POPC   C3B 1704   8.584   2.911   6.914  0.0512  0.2434  0.1998
  106POPC   C4B 1705   8.517   3.155   6.522  0.0308  0.0516  0.0825
  107POPC   NC3 1706   8.606   2.749   8.302  0.1760 -0.0025 -0.0006
  107POPC   PO4 1707   8.154   2.669   8.418  0.1955  0.0192 -0.0300
  107POPC   GL1 1708   8.141   2.762   8.078  0.1292 -0.2530  0.0759
  107POPC   GL2 1709   7.824   2.663   8.051 -0.1049  0.2613  0.4046
  107POPC   C1A 1710   8.356   2.759   7.669 -0.1329  0.3941  0.4628
  107POPC   D2A 1711   8.250   2.733   7.242 -0.0036 -0.3947  0.0031
  107POPC   C3A 1712   8.021   2.441   7.037 -0.1963  0.0835  0.1914
  107POPC   C4A 1713   7.818   2.111   6.764 -0.1644 -0.0849  0.1272
  107POPC   C1B 1714   7.846   2.665   7.602  0.0998  0.0938  0.1119
  107POPC   C2B 1715   7.828   2.961   7.203  0.0947  0.1275 -0.3674
  107POPC   C3B 1716   8.099   2.882   6.791  0.1781 -0.1990  0.3117
  107POPC   C4B 1717   8.072   2.989   6.340 -0.0229 -0.0195  0.0281
  108POPC   NC3 1718   5.070   4.786   9.281 -0.1170  0.0919 -0.2563
  108POPC   PO4 1719   4.782   4.758   8.897  0.0900  0.1363  0.0212
  108POPC   GL1 1720   4.580   4.963   8.501  0.0688  0.1784 -0.2813
  108POPC   GL2 1721   4.362   4.834   8.284 -0.3207  0.4330  0.1360
  108POPC   C1A 1722   4.530   5.264   8.170  0.2286  0.0751 -0.1060
  108POPC   D2A 1723   4.300   5.349   7.709 -0.0308  0.0273  0.0026
  108POPC   C3A 1724   4.139   5.770   7.519 -0.1228  0.1563 -0.1163
  108POPC   C4A 1725   3.886   6.078   7.564  0.1434 -0.0237  0.1969
  108POPC   C1B 1726   4.252   4.845   7.836 -0.1961  0.5052 -0.2529
  108POPC   C2B 1727   3.895   5.076   7.607  0.1706  0.2349  0.1061
  108POPC   C3B 1728   3.825   5.367   7.396 -0.0483  0.2782  0.2518
  108POPC   C4B 1729   3.879   5.621   7.101 -0.0600 -0.1355  0.2963
  109POPC   NC3 1730   1.396   0.466   8.611 -0.1325 -0.3667  0.0944
  109POPC   PO4 1731   1.085   0.560   8.282  0.0327  0.0310  0.1038
  109POPC   GL1 1732   0.927   0.480   7.925  0.1846  0.0399  0.1698
  109POPC   GL2 1733   1.082   0.248   7.815 -0.0488 -0.3409  0.1900
  109POPC   C1A 1734   0.769   0.715   7.640 -0.3241  0.1595 -0.0644
  109POPC   D2A 1735   0.598   0.572   7.214  0.1337 -0.0686 -0.3895
  109POPC   C3A 1736   0.273   0.383   7.201 -0.1988  0.0546  0.0494
  109POPC   C4A 1737   0.117   0.110   6.947 -0.0233  0.0898  0.0107
  109POPC   C1B 1738   1.008   0.200   7.397 -0.3523  0.1066  0.1286
  109POPC   C2B 1739   1.093  -0.080   7.015  0.3377 -0.0199  0.1421
  109POPC   C3B 1740   0.948  -0.314   6.718 -0.2216 -0.1535  0.2204
  109POPC   C4B 1741   1.015  -0.745   6.362  0.3072  0.2885  0.1193
  110POPC   NC3 1742   7.614   4.320   8.824 -0.1283  0.0336  0.0049
  110POPC   PO4 1743   7.953   4.368   8.429  0.2142 -0.2283 -0.2566
  110POPC   GL1 1744   7.811   4.376   7.952 -0.3262 -0.4543  0.0029
  110POPC   GL2 1745   8.023   4.230   7.679 -0.0553 -0.0631 -0.1345
  110POPC   C1A 1746   7.582   4.410   7.639  0.2534 -0.1191  0.0121
  110POPC   D2A 1747   7.688   4.343   7.207 -0.1074  0.0038 -0.2532
  110POPC   C3A 1748   7.517   4.329   6.824  0.1891 -0.1104 -0.0585
  110POPC   C4A 1749   7.271   4.551   6.563 -0.1756 -0.0301  0.0186
  110POPC   C1B 1750   8.208   4.192   7.342 -0.0596  0.0163  0.1443
  110POPC   C2B 1751   8.493   3.997   7.002  0.0030 -0.2637 -0.1619
  110POPC   C3B 1752   8.793   4.353   6.715 -0.7015 -0.3386  0.2347
  110POPC   C4B 1753   8.985   4.722   6.732  0.0669  0.1385 -0.1741
  111POPC   NC3 1754   9.040   6.537   8.962  0.0394  0.1036 -0.4165
  111POPC   PO4 1755   9.078   6.847   9.266 -0.1481  0.2033  0.2287
  111POPC   GL1 1756   9.043   7.005   8.805  0.0510 -0.0666 -0.0857
  111POPC   GL2 1757   8.758   6.877   8.582 -0.1423  0.2253  0.1033
  111POPC   C1A 1758   9.201   7.201   8.339 -0.1160 -0.3912  0.0149
  111POPC   D2A 1759   9.325   7.097   7.970  0.0179  0.0287 -0.0451
  111POPC   C3A 1760   9.098   7.243   7.568  0.1213  0.1366 -0.1435
  111POPC   C4A 1761   9.357   7.345   7.237  0.0993 -0.2053 -0.0606
  111POPC   C1B 1762   8.937   6.837   8.198  0.1367 -0.0579  0.1153
  111POPC   C2B 1763   9.035   6.732   7.715  0.5165 -0.1188  0.1598
  111POPC   C3B 1764   9.104   6.509   7.265 -0.1360  0.1141 -0.0930
  111POPC   C4B 1765   9.514   6.222   7.173 -0.0677  0.1617  0.0092
  112POPC   NC3 1766   8.718   0.897   9.006 -0.1097 -0.1086  0.1479
  112POPC   PO4 1767   8.759   1.324   8.675 -0.0663  0.1779 -0.0789
  112POPC   GL1 1768   8.838   1.383   8.208  0.1080  0.1200  0.0479
  112POPC   GL2 1769   8.883   1.108   8.152  0.4469 -0.2943  0.3449
  112POPC   C1A 1770   8.553   1.359   7.839 -0.0955 -0.1366  0.1459
  112POPC   D2A 1771   8.685   1.235   7.407 -0.0572 -0.0349  0.0543
  112POPC   C3A 1772   8.841   1.503   7.106  0.0794  0.3174 -0.2514
  112POPC   C4A 1773   9.136   1.721   7.047 -0.2286 -0.1977  0.2666
  112POPC   C1B 1774   8.656   0.865   7.937 -0.2045 -0.0186 -0.0363
  112POPC   C2B 1775   8.685   0.649   7.488 -0.0495 -0.1729 -0.3192
  112POPC   C3B 1776   8.718   0.442   7.066  0.1656  0.1350 -0.1443
  112POPC   C4B 1777   8.961   0.268   6.763  0.1595 -0.0987 -0.0635
  113POPC   NC3 1778   2.245   2.142   8.784 -0.0654 -0.2539  0.1101
  113POPC   PO4 1779   2.642   2.309   8.540  0.0381 -0.0872 -0.1567
  113POPC   GL1 1780   2.212   2.245   8.227 -0.1242  0.2512 -0.0191
  113POPC   GL2 1781   2.212   2.544   8.034  0.4748  0.0132  0.0031
  113POPC   C1A 1782   2.162   2.104   7.765  0.0976 -0.0258  0.0794
  113POPC   D2A 1783   2.065   2.176   7.305  0.0683 -0.3280  0.1334
  113POPC   C3A 1784   2.008   1.983   6.952  0.0026  0.0282  0.1731
  113POPC   C4A 1785   1.781   1.695   6.752  0.0775  0.2095  0.1324
  113POPC   C1B 1786   1.902   2.574   7.736  0.2189  0.1015  0.0165
  113POPC   C2B 1787   1.675   2.595   7.357  0.3037  0.0130  0.1729
  113POPC   C3B 1788   1.794   2.501   6.935  0.1528  0.1464 -0.0067
  113POPC   C4B 1789   1.535   2.532   6.579  0.0199  0.1583  0.0376
  114POPC   NC3 1790   9.444   3.239   8.508 -0.2965 -0.0140  0.0801
  114POPC   PO4 1791   9.056   3.032   8.363  0.2489  0.2744  0.1948
  114POPC   GL1 1792   9.242   3.296   7.981 -0.3395  0.2858 -0.0141
  114POPC   GL2 1793   9.590   3.451   8.041  0.2770 -0.1347 -0.0780
  114POPC   C1A 1794   9.230   3.505   7.640 -0.4350 -0.4786  0.1014
  114POPC   D2A 1795   9.312   3.451   7.139 -0.3894 -0.1245  0.2554
  114POPC   C3A 1796   9.564   3.144   6.902  0.5578 -0.1478 -0.3030
  114POPC   C4A 1797   9.366   2.960   6.536  0.1523 -0.0816  0.0195
  114POPC   C1B 1798   9.831   3.635   7.648  0.0018 -0.3036  0.2260
  114POPC   C2B 1799   9.758   3.682   7.205  0.0395  0.3412  0.1873
  114POPC   C3B 1800   9.928   3.650   6.759  0.0106 -0.1395  0.0007
  114POPC   C4B 1801  10.092   3.739   6.406 -0.4719  0.1844 -0.0471
  115POPC   NC3 1802   4.790   3.451   8.172 -0.2075  0.0087 -0.0091
  115POPC   PO4 1803   5.236   3.436   8.264  0.0546 -0.0923  0.1020
  115POPC   GL1 1804   5.162   3.779   7.867 -0.3265  0.1237 -0.2079
  115POPC   GL2 1805   4.836   3.860   7.904  0.3050 -0.3910 -0.0884
  115POPC   C1A 1806   5.401   4.001   7.591  0.0764  0.3689  0.1072
  115POPC   D2A 1807   5.824   3.926   7.620 -0.1585 -0.1048  0.0889
  115POPC   C3A 1808   6.030   4.374   7.486 -0.1223  0.1279  0.0370
  115POPC   C4A 1809   6.134   4.693   7.672 -0.2982 -0.1079 -0.2206
  115POPC   C1B 1810   4.522   3.896   7.647  0.2347 -0.2927  0.4707
  115POPC   C2B 1811   4.421   4.183   7.403  0.0447  0.3141  0.4148
  115POPC   C3B 1812   4.378   4.540   7.238  0.1533 -0.0867 -0.2469
  115POPC   C4B 1813   4.309   5.004   7.250  0.2242  0.0514 -0.1393
  116POPC   NC3 1814   4.484   0.273   8.373  0.1402  0.1669  0.1997
  116POPC   PO4 1815   4.732  -0.177   8.313  0.0337  0.0754 -0.1087
  116POPC   GL1 1816   4.906  -0.373   7.954 -0.1505 -0.0943 -0.0918
  116POPC   GL2 1817   5.058   0.013   7.815 -0.1969  0.0170 -0.0680
  116POPC   C1A 1818   4.632  -0.243   7.600 -0.2228  0.1618  0.3238
  116POPC   D2A 1819   4.274  -0.181   7.427  0.2829  0.0312 -0.1004
  116POPC   C3A 1820   4.108  -0.176   6.982  0.0185  0.3907  0.2671
  116POPC   C4A 1821   3.912  -0.327   6.586  0.0558 -0.3052 -0.3234
  116POPC   C1B 1822   5.145  -0.183   7.428  0.1388 -0.1193  0.0497
  116POPC   C2B 1823   5.146  -0.331   6.962  0.0362  0.1838 -0.1522
  116POPC   C3B 1824   5.288  -0.257   6.563 -0.1374  0.2920 -0.0898
  116POPC   C4B 1825   5.495  -0.493   6.238  0.2349  0.1190 -0.0145
  117POPC   NC3 1826   0.157   7.708   9.641  0.1296 -0.1430 -0.0979
  117POPC   PO4 1827   0.031   7.306   9.476  0.0342 -0.1928  0.0921
  117POPC   GL1 1828   0.223   7.458   9.071  0.0213  0.0464  0.1463
  117POPC   GL2 1829   0.197   7.849   9.041 -0.0419  0.1619 -0.1382
  117POPC   C1A 1830   0.275   7.558   8.583 -0.0342 -0.0990 -0.5457
  117POPC   D2A 1831   0.342   7.965   8.386  0.0027  0.2110 -0.2260
  117POPC   C3A 1832   0.503   8.002   8.052 -0.0408 -0.0960  0.1679
  117POPC   C4A 1833   0.696   8.045   7.727 -0.0164 -0.0619  0.0072
  117POPC   C1B 1834  -0.121   7.924   8.864  0.1864 -0.2612 -0.2442
  117POPC   C2B 1835  -0.151   7.819   8.510 -0.0824  0.0611  0.2056
  117POPC   C3B 1836  -0.093   7.975   8.228  0.1100  0.1708 -0.0103
  117POPC   C4B 1837  -0.183   7.943   7.831  0.1418  0.3424  0.2198
  118POPC   NC3 1838   3.609   7.159   9.131 -0.0743  0.0421 -0.0047
  118POPC   PO4 1839   3.195   7.390   9.214 -0.0514 -0.2049 -0.1962
  118POPC   GL1 1840   3.230   7.419   8.754  0.0061 -0.1233 -0.0269
  118POPC   GL2 1841   3.194   7.701   8.602  0.1324  0.2811  0.1940
  118POPC   C1A 1842   3.327   7.248   8.304 -0.3978 -0.0422  0.0055
  118POPC   D2A 1843   3.148   7.328   7.844  0.2386 -0.0437  0.2389
  118POPC   C3A 1844   2.943   7.544   7.550 -0.1731 -0.1666  0.2548
  118POPC   C4A 1845   2.599   7.444   7.383  0.1904  0.2936 -0.1583
  118POPC   C1B 1846   3.198   7.720   8.166 -0.0135  0.0154 -0.2290
  118POPC   C2B 1847   3.436   7.860   7.859 -0.0266  0.0514  0.0916
  118POPC   C3B 1848   3.802   7.884   7.691 -0.0666  0.0700 -0.0203
  118POPC   C4B 1849   4.266   7.900   7.649  0.0213  0.3650  0.0774
  119POPC   NC3 1850   8.416   5.611   8.476  0.3309  0.0506  0.2668
  119POPC   PO4 1851   8.288   5.816   8.923  0.3403  0.0189  0.1857
  119POPC   GL1 1852   8.428   6.096   8.572 -0.0517  0.2635  0.2017
  119POPC   GL2 1853   8.684   6.338   8.541 -0.2838 -0.1055 -0.3703
  119POPC   C1A 1854   8.317   6.056   8.073  0.0321  0.1103 -0.0609
  119POPC   D2A 1855   8.260   6.170   7.642 -0.3586 -0.1510  0.1978
  119POPC   C3A 1856   8.178   6.527   7.345 -0.1611  0.1275 -0.1058
  119POPC   C4A 1857   8.239   6.702   6.968 -0.0562 -0.0148 -0.1232
  119POPC   C1B 1858   8.898   6.272   8.144 -0.2609 -0.1339 -0.0934
  119POPC   C2B 1859   9.178   6.252   7.721  0.2853 -0.2752  0.1612
  119POPC   C3B 1860   9.587   5.992   7.619  0.1270 -0.0473  0.1656
  119POPC   C4B 1861  10.005   5.845   7.704 -0.0152  0.0215  0.0357
  120POPC   NC3 1862   6.365   8.091   8.884 -0.0632 -0.1568  0.1104
  120POPC   PO4 1863   6.420   8.446   8.728  0.1867  0.3383  0.0500
  120POPC   GL1 1864   6.388   8.560   8.253 -0.1569  0.1643  0.2642
  120POPC   GL2 1865   6.632   8.739   8.040  0.0933 -0.0760 -0.3372
  120POPC   C1A 1866   6.282   8.357   7.816 -0.3725  0.0114  0.2376
  120POPC   D2A 1867   6.104   8.171   7.488 -0.0900 -0.1233 -0.0366
  120POPC   C3A 1868   6.266   8.261   7.122  0.2091 -0.4008 -0.0317
  120POPC   C4A 1869   6.381   8.559   6.798 -0.1320  0.0604  0.1792
  120POPC   C1B 1870   6.656   8.976   7.692 -0.0684  0.0532 -0.0124
  120POPC   C2B 1871   6.710   9.367   7.427  0.1152 -0.2314  0.1969
  120POPC   C3B 1872   6.510   9.680   7.399  0.2668  0.1278  0.1070
  120POPC   C4B 1873   6.114   9.900   7.427 -0.1496  0.0883 -0.1434
  121POPC   NC3 1874   9.305   9.185   8.811 -0.1327 -0.1709  0.1512
  121POPC   PO4 1875   9.072   9.180   8.496 -0.1288 -0.0232  0.0028
  121POPC   GL1 1876   9.269   9.297   8.181 -0.0613  0.1564  0.2153
  121POPC   GL2 1877   9.095   9.393   7.869  0.2009  0.1401 -0.0143
  121POPC   C1A 1878   9.548   9.171   7.948  0.2048  0.1595  0.0262
  121POPC   D2A 1879   9.798   8.790   7.906 -0.1535  0.1253 -0.5603
  121POPC   C3A 1880   9.887   8.758   7.511 -0.1165 -0.2877  0.0024
  121POPC   C4A 1881   9.976   8.507   7.181 -0.5458  0.0422 -0.0474
  121POPC   C1B 1882   8.806   9.178   7.844  0.3433  0.2914  0.1233
  121POPC   C2B 1883   8.497   9.139   7.481 -0.0493  0.0603  0.1015
  121POPC   C3B 1884   8.225   8.843   7.172  0.4317 -0.1031 -0.0309
  121POPC   C4B 1885   8.271   8.864   6.683 -0.2106  0.2080 -0.5451
  122POPC   NC3 1886   1.389   8.865   9.350  0.2239 -0.0697  0.1173
  122POPC   PO4 1887   1.213   8.950   8.926 -0.0983 -0.1181 -0.1002
  122POPC   GL1 1888   1.266   8.895   8.490 -0.3460 -0.0206  0.1075
  122POPC   GL2 1889   1.171   9.146   8.269 -0.0898 -0.1657 -0.1408
  122POPC   C1A 1890   1.472   8.499   8.396 -0.0093  0.0127 -0.2063
  122POPC   D2A 1891   1.755   8.355   8.176  0.1538 -0.1995  0.0112
  122POPC   C3A 1892   1.843   8.624   7.820 -0.2592  0.0992  0.3838
  122POPC   C4A 1893   2.245   8.568   7.498  0.1755 -0.1572  0.1501
  122POPC   C1B 1894   1.339   8.748   7.972 -0.3179 -0.0575  0.2616
  122POPC   C2B 1895   1.447   8.698   7.469 -0.1957  0.0239  0.1103
  122POPC   C3B 1896   1.151   8.752   7.122  0.1169  0.1940 -0.0054
  122POPC   C4B 1897   0.769   8.990   6.935  0.0020 -0.0367 -0.2344
  123POPC   NC3 1898   0.563   5.400   9.692  0.2245  0.1948 -0.2745
  123POPC   PO4 1899   0.649   4.927   9.728 -0.3111  0.0057  0.0294
  123POPC   GL1 1900   0.609   4.995   9.216 -0.1099  0.0542 -0.0163
  123POPC   GL2 1901   0.843   4.938   9.004  0.0129  0.2595  0.1229
  123POPC   C1A 1902   0.504   5.221   8.820 -0.2351  0.0626 -0.4640
  123POPC   D2A 1903   0.548   5.204   8.371  0.1211 -0.2009  0.0116
  123POPC   C3A 1904   0.827   5.516   8.172 -0.0084  0.1252 -0.0418
  123POPC   C4A 1905   1.001   5.942   8.363  0.0587  0.2645  0.0928
  123POPC   C1B 1906   0.796   4.803   8.608 -0.1536 -0.2784  0.2688
  123POPC   C2B 1907   0.782   4.715   8.214 -0.0779 -0.0263 -0.2886
  123POPC   C3B 1908   0.786   4.970   7.961 -0.0629  0.0780  0.1499
  123POPC   C4B 1909   0.915   5.273   7.759  0.1420 -0.2341  0.0869
  124POPC   NC3 1910   7.808   0.105   8.463  0.0892  0.2200 -0.0589
  124POPC   PO4 1911   7.344   0.207   8.587 -0.0894  0.1835  0.1266
  124POPC   GL1 1912   7.076   0.346   8.245  0.0793  0.3364 -0.0858
  124POPC   GL2 1913   7.180   0.043   8.059 -0.3967  0.0366 -0.2124
  124POPC   C1A 1914   7.037   0.508   7.787  0.0446  0.3486 -0.0454
  124POPC   D2A 1915   6.969   0.226   7.496  0.1971  0.0453  0.4075
  124POPC   C3A 1916   7.092   0.280   7.089  0.0379 -0.1350 -0.2245
  124POPC   C4A 1917   7.465   0.312   6.898  0.1005 -0.0080  0.1569
  124POPC   C1B 1918   7.496   0.079   7.657  0.0253 -0.2426 -0.0759
  124POPC   C2B 1919   7.613  -0.082   7.237  0.0274  0.2871  0.0430
  124POPC   C3B 1920   7.489  -0.415   6.988 -0.2593  0.0916  0.1167
  124POPC   C4B 1921   7.465  -0.373   6.612 -0.1274  0.0968 -0.0814
  125POPC   NC3 1922   9.019   7.252   9.553  0.0702  0.0311  0.0310
  125POPC   PO4 1923   8.717   7.185   9.087 -0.0042 -0.1866 -0.2615
  125POPC   GL1 1924   8.778   7.439   8.582 -0.2319  0.0180  0.0302
  125POPC   GL2 1925   8.484   7.297   8.357  0.0148 -0.2140 -0.2969
  125POPC   C1A 1926   8.917   7.558   8.173 -0.1405  0.0089  0.4165
  125POPC   D2A 1927   8.722   7.802   7.851  0.1909 -0.3985 -0.3073
  125POPC   C3A 1928   8.779   7.624   7.464  0.1402  0.0511  0.0148
  125POPC   C4A 1929   8.874   7.524   7.021  0.0731  0.1760  0.0033
  125POPC   C1B 1930   8.754   7.164   7.910  0.0458 -0.0131 -0.1269
  125POPC   C2B 1931   8.593   7.073   7.581 -0.0336 -0.2824  0.5092
  125POPC   C3B 1932   8.631   6.709   7.339 -0.0645 -0.0215  0.0115
  125POPC   C4B 1933   8.553   6.354   7.112 -0.2403  0.0476  0.1702
  126POPC   NC3 1934   6.612   4.738   8.710 -0.0857 -0.1977  0.1674
  126POPC   PO4 1935   6.114   4.795   8.767 -0.1734 -0.1535 -0.1437
  126POPC   GL1 1936   6.210   4.731   8.353 -0.1009  0.2276 -0.0006
  126POPC   GL2 1937   5.947   4.773   8.118  0.0791  0.0170  0.1034
  126POPC   C1A 1938   6.432   4.829   8.021  0.1115 -0.0682  0.0060
  126POPC   D2A 1939   6.686   4.886   7.702  0.0389 -0.1306 -0.2449
  126POPC   C3A 1940   6.588   5.022   7.343 -0.0367 -0.0391  0.1553
  126POPC   C4A 1941   6.142   5.279   7.206  0.1695  0.1160  0.2985
  126POPC   C1B 1942   5.602   4.590   7.696  0.0538  0.1203 -0.3794
  126POPC   C2B 1943   5.425   4.441   7.379 -0.1427 -0.1920 -0.0176
  126POPC   C3B 1944   5.713   4.147   7.125 -0.0011 -0.1324 -0.1215
  126POPC   C4B 1945   6.164   4.169   7.023 -0.1017 -0.0011  0.3501
  127POPC   NC3 1946   5.830   7.488   8.984 -0.0472 -0.0213  0.1295
  127POPC   PO4 1947   6.113   7.405   8.601 -0.0807  0.0959 -0.1450
  127POPC   GL1 1948   6.003   7.408   8.209  0.1494 -0.1816 -0.2598
  127POPC   GL2 1949   6.077   7.672   8.154  0.1410  0.0999  0.0752
  127POPC   C1A 1950   6.020   7.413   7.764 -0.2371 -0.1514 -0.3690
  127POPC   D2A 1951   5.821   7.752   7.590 -0.1631  0.0757 -0.1355
  127POPC   C3A 1952   5.731   7.975   7.166 -0.2902  0.1400  0.0009
  127POPC   C4A 1953   5.518   8.089   6.754  0.0496 -0.1212 -0.3745
  127POPC   C1B 1954   6.388   7.894   7.913  0.1272 -0.1705 -0.1972
  127POPC   C2B 1955   6.589   8.023   7.626 -0.0617 -0.0459  0.2439
  127POPC   C3B 1956   6.673   7.851   7.158  0.0188  0.0434 -0.2282
  127POPC   C4B 1957   6.548   8.090   6.773  0.1994  0.1140  0.1440
  128POPC   NC3 1958   1.482   0.910   9.017 -0.4274  0.3428  0.2207
  128POPC   PO4 1959   1.337   0.946   8.491  0.0413 -0.2026  0.1528
  128POPC   GL1 1960   1.309   1.030   8.045 -0.1068 -0.3203  0.0909
  128POPC   GL2 1961   1.329   0.748   7.813  0.0641  0.1628  0.0702
  128POPC   C1A 1962   1.274   1.309   7.607  0.0657  0.0392 -0.0701
  128POPC   D2A 1963   1.181   1.231   7.247  0.2667 -0.1229  0.3395
  128POPC   C3A 1964   1.581   1.309   6.990 -0.1785 -0.1242 -0.2373
  128POPC   C4A 1965   1.769   1.189   6.599 -0.1679 -0.2760  0.2264
  128POPC   C1B 1966   1.185   0.728   7.332  0.1604 -0.0882  0.0899
  128POPC   C2B 1967   1.289   0.799   6.964 -0.1541 -0.0404  0.1798
  128POPC   C3B 1968   1.213   1.141   6.756  0.1797  0.0342  0.0105
  128POPC   C4B 1969   1.353   1.422   6.460 -0.3492 -0.2662  0.2266
  129POPC   NC3 1970   4.247   4.819   8.834  0.1752  0.4427  0.0463
  129POPC   PO4 1971   3.855   4.510   8.912  0.0336 -0.1834  0.1295
  129POPC   GL1 1972   3.899   4.699   8.416  0.1933  0.0801 -0.1538
  129POPC   GL2 1973   3.644   4.807   8.282 -0.0783 -0.4368  0.2423
  129POPC   C1A 1974   4.034   5.144   8.118  0.4925  0.1353  0.1510
  129POPC   D2A 1975   4.077   5.609   8.086  0.0215 -0.0243 -0.1382
  129POPC   C3A 1976   3.898   6.084   8.083  0.0236 -0.2442 -0.0334
  129POPC   C4A 1977   3.758   6.494   7.832  0.2950  0.3314  0.2073
  129POPC   C1B 1978   3.510   4.979   7.940  0.0948 -0.0031 -0.0926
  129POPC   C2B 1979   3.370   5.127   7.526 -0.0800  0.3384 -0.0365
  129POPC   C3B 1980   3.049   5.181   7.325 -0.5078 -0.0783 -0.1125
  129POPC   C4B 1981   2.597   5.163   7.427  0.3394 -0.0749  0.2312
  130POPC   NC3 1982   2.156   3.744   8.694  0.3658 -0.4950 -0.2935
  130POPC   PO4 1983   2.000   4.150   8.813  0.0325 -0.1523  0.1547
  130POPC   GL1 1984   2.074   4.181   8.354  0.3508 -0.0140 -0.2195
  130POPC   GL2 1985   2.421   4.091   8.241 -0.1442 -0.0225  0.0614
  130POPC   C1A 1986   1.936   4.388   8.012  0.2561  0.0926  0.3029
  130POPC   D2A 1987   1.910   4.179   7.447  0.0384 -0.0815  0.0436
  130POPC   C3A 1988   1.926   4.435   7.136 -0.0287 -0.0080 -0.1978
  130POPC   C4A 1989   2.083   4.877   7.124 -0.0348 -0.0334 -0.2785
  130POPC   C1B 1990   2.358   4.147   7.761  0.3233 -0.1231  0.0851
  130POPC   C2B 1991   2.386   4.249   7.301 -0.0335  0.1553 -0.1394
  130POPC   C3B 1992   2.342   4.351   6.811 -0.1198  0.0863 -0.1053
  130POPC   C4B 1993   2.075   4.523   6.572  0.2941  0.2716  0.5035
  131POPC   NC3 1994   3.468   8.983   8.788  0.3242 -0.1088 -0.1635
  131POPC   PO4 1995   3.127   8.871   8.615  0.1430 -0.0656  0.1199
  131POPC   GL1 1996   2.954   8.739   8.177  0.2219 -0.1082  0.1569
  131POPC   GL2 1997   2.770   8.612   8.427 -0.0455  0.0427 -0.0212
  131POPC   C1A 1998   3.183   8.676   7.748  0.0882  0.0245 -0.2149
  131POPC   D2A 1999   3.196   8.686   7.270  0.0410  0.0612  0.1378
  131POPC   C3A 2000   3.111   8.295   7.036 -0.0545  0.0936 -0.1232
  131POPC   C4A 2001   2.844   7.864   7.129 -0.4413  0.1019  0.2675
  131POPC   C1B 2002   2.684   8.378   8.015  0.3286 -0.2002  0.0766
  131POPC   C2B 2003   2.667   8.320   7.544 -0.0691  0.3268 -0.1194
  131POPC   C3B 2004   2.599   8.363   7.084 -0.2232 -0.3939  0.1771
  131POPC   C4B 2005   2.416   7.985   6.873  0.2545  0.0136 -0.0042
  132POPC   NC3 2006   2.990   6.120   9.577 -0.1344 -0.3466  0.1436
  132POPC   PO4 2007   2.985   6.466   9.243  0.1009  0.2070  0.2376
  132POPC   GL1 2008   2.922   6.398   8.861  0.0270 -0.1202 -0.0859
  132POPC   GL2 2009   3.147   6.470   8.573  0.1629  0.3054 -0.1868
  132POPC   C1A 2010   2.635   6.644   8.468  0.0911 -0.1178 -0.1534
  132POPC   D2A 2011   2.362   6.942   8.262 -0.2215  0.1088  0.0869
  132POPC   C3A 2012   2.247   6.908   7.820 -0.0407 -0.1244  0.0872
  132POPC   C4A 2013   2.372   6.883   7.420 -0.0047 -0.1149 -0.1008
  132POPC   C1B 2014   3.453   6.573   8.235  0.3945 -0.3831  0.0124
  132POPC   C2B 2015   3.428   6.911   7.849  0.0857  0.2310 -0.3139
  132POPC   C3B 2016   3.107   6.750   7.650  0.4430  0.0149 -0.2147
  132POPC   C4B 2017   2.751   6.585   7.343 -0.3674 -0.3342 -0.1622
  133POPC   NC3 2018   6.984   5.453   8.563  0.2296 -0.3699  0.1814
  133POPC   PO4 2019   6.994   5.052   8.436  0.0655 -0.2583 -0.1341
  133POPC   GL1 2020   7.066   4.772   8.096  0.2047  0.0487 -0.0605
  133POPC   GL2 2021   7.401   4.918   7.964  0.1029 -0.0421 -0.1366
  133POPC   C1A 2022   7.050   4.548   7.686 -0.2621 -0.0827  0.0819
  133POPC   D2A 2023   7.146   4.585   7.179  0.1187  0.1597 -0.0914
  133POPC   C3A 2024   6.794   4.833   6.908 -0.1939  0.0629 -0.1169
  133POPC   C4A 2025   6.384   5.046   6.741 -0.1093  0.2445  0.0166
  133POPC   C1B 2026   7.586   4.938   7.562  0.1411 -0.0927 -0.1915
  133POPC   C2B 2027   7.612   4.935   7.143 -0.0066 -0.0170 -0.2026
  133POPC   C3B 2028   7.760   4.856   6.752 -0.3458 -0.3037  0.1813
  133POPC   C4B 2029   7.768   4.545   6.377  0.1377  0.2003  0.0683
  134POPC   NC3 2030   4.691   1.164   8.439 -0.0039 -0.0320  0.1907
  134POPC   PO4 2031   4.341   1.150   8.107  0.1233  0.1564  0.1198
  134POPC   GL1 2032   4.667   1.164   7.715  0.0345  0.3289  0.2317
  134POPC   GL2 2033   4.938   1.047   7.826  0.0337  0.1649 -0.3401
  134POPC   C1A 2034   4.895   1.499   7.480 -0.1229  0.1705  0.0457
  134POPC   D2A 2035   5.056   1.787   7.181  0.3045 -0.1865  0.3113
  134POPC   C3A 2036   4.963   2.229   6.944  0.4304 -0.1650 -0.1578
  134POPC   C4A 2037   4.887   2.650   6.741 -0.0084  0.0581 -0.0976
  134POPC   C1B 2038   5.193   1.132   7.627 -0.1875 -0.4225 -0.0598
  134POPC   C2B 2039   5.227   1.196   7.142  0.0670 -0.1600  0.0285
  134POPC   C3B 2040   5.186   1.387   6.747 -0.0700  0.0481  0.0977
  134POPC   C4B 2041   4.987   1.769   6.702  0.0068  0.2683 -0.2083
  135POPC   NC3 2042   9.354   6.768   9.678 -0.0976 -0.0523  0.1109
  135POPC   PO4 2043   9.445   7.169   9.376  0.1869  0.2067 -0.1389
  135POPC   GL1 2044   9.721   7.104   9.048  0.2268 -0.3516 -0.0262
  135POPC   GL2 2045   9.591   7.364   8.852 -0.0406 -0.1442  0.1857
  135POPC   C1A 2046   9.503   6.877   8.686  0.3366 -0.0262  0.2587
  135POPC   D2A 2047   9.288   6.590   8.447  0.0262 -0.0685  0.0265
  135POPC   C3A 2048   9.449   6.622   7.989 -0.0176  0.0068  0.3408
  135POPC   C4A 2049   9.539   6.552   7.572  0.0182  0.1560  0.0236
  135POPC   C1B 2050   9.710   7.308   8.441 -0.0431 -0.2953 -0.0828
  135POPC   C2B 2051   9.744   6.959   8.192  0.0296  0.1203 -0.0840
  135POPC   C3B 2052  10.040   6.665   8.145 -0.0062 -0.3448  0.0870
  135POPC   C4B 2053  10.100   6.296   8.055 -0.1522 -0.2561  0.1002
  136POPC   NC3 2054   7.269   4.002   8.550 -0.1578  0.1251  0.0397
  136POPC   PO4 2055   7.604   3.890   8.281  0.2086 -0.0469  0.0404
  136POPC   GL1 2056   7.724   3.713   7.905  0.0109 -0.0139 -0.0895
  136POPC   GL2 2057   7.608   3.954   7.736 -0.2219 -0.0296  0.0027
  136POPC   C1A 2058   7.755   3.403   7.531 -0.2365  0.1088 -0.1147
  136POPC   D2A 2059   7.889   3.366   7.022 -0.0166  0.0508  0.2430
  136POPC   C3A 2060   7.630   3.099   6.751 -0.2329  0.0310 -0.0412
  136POPC   C4A 2061   7.459   2.802   6.450 -0.2942  0.2821  0.1758
  136POPC   C1B 2062   7.339   4.045   7.409  0.1053 -0.2086  0.1446
  136POPC   C2B 2063   7.195   3.991   7.020 -0.1010 -0.1577  0.0603
  136POPC   C3B 2064   7.128   4.066   6.557 -0.4300  0.4653  0.0299
  136POPC   C4B 2065   7.233   4.193   6.245 -0.0252 -0.2259 -0.0859
  137POPC   NC3 2066   9.419   4.194   8.776  0.2311 -0.1366  0.1148
  137POPC   PO4 2067   9.293   4.516   9.156  0.3683  0.1970  0.1662
  137POPC   GL1 2068   9.357   4.724   8.677 -0.3784  0.1972 -0.0808
  137POPC   GL2 2069   9.193   4.459   8.455 -0.2593  0.2886  0.3098
  137POPC   C1A 2070   9.505   4.917   8.291 -0.2537  0.1548 -0.0612
  137POPC   D2A 2071   9.811   5.235   8.209  0.0805  0.0331  0.1708
  137POPC   C3A 2072  10.020   5.454   8.546  0.1124  0.0877  0.1293
  137POPC   C4A 2073  10.069   5.557   8.975  0.0559 -0.0674  0.4103
  137POPC   C1B 2074   9.262   4.523   8.039  0.0565  0.2662  0.1425
  137POPC   C2B 2075   9.427   4.479   7.575 -0.3383  0.1193  0.1000
  137POPC   C3B 2076   9.457   4.668   7.169 -0.1165 -0.1557  0.1663
  137POPC   C4B 2077   9.679   5.123   7.029 -0.1780  0.0690 -0.3491
  138POPC   NC3 2078   4.846   3.712   8.615 -0.0005  0.3946 -0.0035
  138POPC   PO4 2079   4.591   3.989   8.353 -0.0053  0.1006  0.1708
  138POPC   GL1 2080   4.570   4.382   8.043 -0.3672 -0.0288 -0.0794
  138POPC   GL2 2081   4.248   4.215   7.935  0.1376 -0.0614  0.0632
  138POPC   C1A 2082   4.677   4.570   7.679  0.1915  0.1407 -0.2925
  138POPC   D2A 2083   4.879   4.622   7.229  0.0588  0.3841  0.1590
  138POPC   C3A 2084   4.682   4.670   6.869  0.1186  0.1497 -0.0001
  138POPC   C4A 2085   4.397   4.812   6.571  0.0292  0.0837 -0.0333
  138POPC   C1B 2086   3.991   4.012   7.647 -0.0049 -0.1169  0.1111
  138POPC   C2B 2087   3.804   3.684   7.449 -0.0890 -0.0092  0.3287
  138POPC   C3B 2088   3.699   3.344   7.298  0.1826 -0.0878 -0.0269
  138POPC   C4B 2089   3.595   2.924   7.185  0.0571 -0.0320 -0.0976
  139POPC   NC3 2090   2.253   8.802   8.710 -0.1777  0.2425 -0.0353
  139POPC   PO4 2091   2.176   9.214   8.573 -0.2706 -0.0804  0.0928
  139POPC   GL1 2092   2.146   8.988   8.259 -0.1166 -0.1805  0.1428
  139POPC   GL2 2093   2.478   8.943   8.087  0.2369 -0.1347  0.2143
  139POPC   C1A 2094   2.077   9.063   7.743 -0.0172 -0.1466 -0.0256
  139POPC   D2A 2095   2.031   8.988   7.262  0.0422 -0.1022  0.1405
  139POPC   C3A 2096   2.386   8.877   6.960 -0.3239  0.1585  0.2328
  139POPC   C4A 2097   2.581   9.035   6.496 -0.1262  0.2332  0.1972
  139POPC   C1B 2098   2.716   8.797   7.684  0.0865 -0.1458 -0.0613
  139POPC   C2B 2099   2.730   8.862   7.275 -0.1201 -0.0421 -0.0815
  139POPC   C3B 2100   2.868   9.010   6.907 -0.0587  0.1120  0.2850
  139POPC   C4B 2101   2.989   8.742   6.576 -0.0922  0.0350  0.0850
  140POPC   NC3 2102   8.059   9.360   8.744  0.2067 -0.1710  0.0054
  140POPC   PO4 2103   8.274   9.679   8.453 -0.1664 -0.2292  0.1116
  140POPC   GL1 2104   8.252   9.865   8.078  0.2654  0.1167  0.3074
  140POPC   GL2 2105   7.973  10.108   7.979  0.2836  0.0270 -0.0529
  140POPC   C1A 2106   8.443   9.890   7.752 -0.1377 -0.0691 -0.1114
  140POPC   D2A 2107   8.573  10.012   7.405  0.5560  0.0447  0.2427
  140POPC   C3A 2108   8.576   9.719   7.001  0.1825 -0.2599 -0.2340
  140POPC   C4A 2109   8.393   9.388   6.824  0.3343 -0.0543  0.3159
  140POPC   C1B 2110   7.705  10.449   7.838 -0.0078  0.1103 -0.1936
  140POPC   C2B 2111   7.779  10.788   7.569  0.1120  0.0753  0.1074
  140POPC   C3B 2112   7.910  11.283   7.496  0.1016  0.0550 -0.2917
  140POPC   C4B 2113   8.268  11.406   7.432  0.2844 -0.0290 -0.0458
  141POPC   NC3 2114   1.749   1.607   8.671  0.1543 -0.0143 -0.0058
  141POPC   PO4 2115   1.855   1.900   8.473 -0.2227 -0.2676 -0.1804
  141POPC   GL1 2116   1.780   1.670   8.158  0.0466 -0.0282 -0.2129
  141POPC   GL2 2117   1.774   1.374   8.210 -0.0593 -0.2594 -0.1150
  141POPC   C1A 2118   1.660   1.793   7.763  0.0852  0.2234  0.0904
  141POPC   D2A 2119   1.653   2.147   7.590 -0.1897 -0.3581  0.4581
  141POPC   C3A 2120   1.234   2.300   7.338 -0.1284 -0.2104  0.1861
  141POPC   C4A 2121   1.192   2.523   6.903 -0.1273 -0.1070  0.2014
  141POPC   C1B 2122   1.697   1.255   7.749 -0.0795 -0.0521 -0.0226
  141POPC   C2B 2123   1.610   0.927   7.360 -0.2270  0.2644 -0.0267
  141POPC   C3B 2124   1.806   0.856   6.983  0.0061 -0.2615 -0.4817
  141POPC   C4B 2125   2.169   0.922   6.726  0.1841  0.0997  0.1803
  142POPC   NC3 2126   5.709   3.354   8.274 -0.1757  0.0036 -0.2825
  142POPC   PO4 2127   5.979   2.986   8.196  0.0423 -0.3212 -0.2552
  142POPC   GL1 2128   5.921   3.088   7.802 -0.1652 -0.1892  0.0532
  142POPC   GL2 2129   6.205   3.005   7.677 -0.0455  0.2071  0.0461
  142POPC   C1A 2130   5.698   2.962   7.513 -0.0825 -0.0009  0.0379
  142POPC   D2A 2131   5.468   3.154   7.144  0.0070  0.1482  0.2546
  142POPC   C3A 2132   5.046   3.260   6.939  0.2672  0.2982 -0.0618
  142POPC   C4A 2133   4.758   3.235   6.744 -0.1439 -0.1555 -0.2053
  142POPC   C1B 2134   6.189   3.227   7.247  0.0217 -0.1993 -0.1627
  142POPC   C2B 2135   6.024   3.201   6.897  0.0554  0.0468 -0.0500
  142POPC   C3B 2136   5.786   3.036   6.701  0.2814  0.4841 -0.2556
  142POPC   C4B 2137   5.373   2.831   6.678 -0.2760 -0.1675 -0.1471
  143POPC   NC3 2138   0.494   3.398   8.333 -0.3808  0.0236 -0.0401
  143POPC   PO4 2139   0.095   3.101   8.456  0.0785 -0.0503 -0.1786
  143POPC   GL1 2140   0.172   3.124   8.033  0.3753  0.3029 -0.0790
  143POPC   GL2 2141   0.268   3.473   7.908  0.1087  0.3102  0.0300
  143POPC   C1A 2142   0.127   3.076   7.551  0.0777  0.2447 -0.1144
  143POPC   D2A 2143   0.099   3.284   7.152 -0.1899  0.2661  0.1360
  143POPC   C3A 2144   0.415   3.485   7.005  0.1127  0.3035  0.1610
  143POPC   C4A 2145   0.783   3.649   6.885 -0.3761  0.0778  0.0778
  143POPC   C1B 2146   0.359   3.549   7.470 -0.1380 -0.0806 -0.1432
  143POPC   C2B 2147   0.709   3.855   7.401  0.1818 -0.0821 -0.4920
  143POPC   C3B 2148   0.966   4.283   7.467 -0.0783  0.3609  0.0242
  143POPC   C4B 2149   0.970   4.441   7.866  0.0653 -0.0367 -0.1485
  144POPC   NC3 2150   0.692   4.479   9.177  0.0130 -0.0068  0.0922
  144POPC   PO4 2151   0.307   4.617   9.365 -0.0323  0.0131  0.0880
  144POPC   GL1 2152   0.374   4.649   8.820 -0.2992  0.0968  0.1640
  144POPC   GL2 2153   0.529   4.387   8.679  0.1207 -0.1346  0.2620
  144POPC   C1A 2154   0.322   4.719   8.343 -0.0539 -0.0254 -0.2332
  144POPC   D2A 2155   0.214   4.866   7.966 -0.0004  0.1026 -0.0802
  144POPC   C3A 2156   0.472   5.022   7.655 -0.0545  0.4327  0.3447
  144POPC   C4A 2157   0.410   5.274   7.380 -0.1912  0.2086 -0.3251
  144POPC   C1B 2158   0.394   4.216   8.324  0.0417  0.0257 -0.0918
  144POPC   C2B 2159   0.435   4.362   7.965  0.2254 -0.0898 -0.0468
  144POPC   C3B 2160   0.525   4.570   7.683  0.0437 -0.0155  0.0243
  144POPC   C4B 2161   0.523   4.482   7.290 -0.1163 -0.0460  0.2403
  145POPC   NC3 2162   0.639   2.031   8.780 -0.1322  0.2405  0.0452
  145POPC   PO4 2163   0.569   1.670   8.698  0.3300  0.2614 -0.0698
  145POPC   GL1 2164   0.604   1.898   8.313  0.1486  0.1676 -0.1434
  145POPC   GL2 2165   0.876   1.749   8.221 -0.0850 -0.0649  0.0952
  145POPC   C1A 2166   0.544   1.681   7.923  0.4242  0.1271  0.1147
  145POPC   D2A 2167   0.627   1.695   7.493  0.1360  0.1558 -0.2023
  145POPC   C3A 2168   0.837   1.955   7.180  0.2210 -0.3409  0.3483
  145POPC   C4A 2169   0.836   2.141   6.794  0.0020  0.3373  0.1298
  145POPC   C1B 2170   0.999   1.483   8.051  0.0709 -0.3213 -0.1768
  145POPC   C2B 2171   0.783   1.285   7.733 -0.1125  0.1100  0.0500
  145POPC   C3B 2172   0.599   1.258   7.267 -0.1960 -0.0407 -0.3849
  145POPC   C4B 2173   0.763   0.982   7.023 -0.1971 -0.0298 -0.1653
  146POPC   NC3 2174   8.974   1.556   9.034 -0.1913  0.4042 -0.0120
  146POPC   PO4 2175   9.365   1.386   8.860  0.0734  0.2113  0.0162
  146POPC   GL1 2176   9.323   1.379   8.338  0.1609 -0.1850 -0.3033
  146POPC   GL2 2177   9.713   1.410   8.170 -0.1387 -0.1746 -0.0097
  146POPC   C1A 2178   9.358   1.209   7.894 -0.1299 -0.0283 -0.1266
  146POPC   D2A 2179   9.118   1.031   7.546 -0.0880  0.2122 -0.3279
  146POPC   C3A 2180   9.210   1.153   7.127  0.1245  0.0004 -0.1383
  146POPC   C4A 2181   9.131   1.364   6.716 -0.2639  0.1120  0.0805
  146POPC   C1B 2182   9.966   1.509   7.766 -0.0729  0.1360 -0.3312
  146POPC   C2B 2183   9.983   1.436   7.357  0.2034 -0.1589  0.1362
  146POPC   C3B 2184   9.793   1.397   6.913 -0.1495 -0.0848 -0.1077
  146POPC   C4B 2185   9.643   1.484   6.490 -0.1210  0.2497  0.0945
  147POPC   NC3 2186   3.080   3.391   8.212 -0.1242  0.3548 -0.0348
  147POPC   PO4 2187   2.651   3.416   8.406 -0.0185  0.0704  0.2068
  147POPC   GL1 2188   2.678   3.403   7.916 -0.1237  0.1219 -0.0149
  147POPC   GL2 2189   2.802   3.799   8.010  0.0228  0.1578 -0.0965
  147POPC   C1A 2190   2.700   3.684   7.533 -0.1948  0.0613  0.2723
  147POPC   D2A 2191   2.863   3.972   7.231 -0.1164  0.2449 -0.1537
  147POPC   C3A 2192   3.032   3.834   6.864 -0.0782  0.2220  0.1483
  147POPC   C4A 2193   3.287   3.546   6.545  0.2250 -0.0462 -0.2946
  147POPC   C1B 2194   3.030   4.060   7.691  0.0896  0.0196  0.1708
  147POPC   C2B 2195   2.892   4.400   7.416  0.3140 -0.0762 -0.3188
  147POPC   C3B 2196   2.795   4.736   7.136  0.1175 -0.0511 -0.1040
  147POPC   C4B 2197   2.553   4.938   6.951 -0.1510  0.1235  0.1716
  148POPC   NC3 2198   8.571   9.291   8.598 -0.3020  0.3069  0.1548
  148POPC   PO4 2199   8.208   8.936   8.543  0.0330 -0.0146  0.5691
  148POPC   GL1 2200   8.347   9.107   8.128  0.2506  0.0074 -0.2099
  148POPC   GL2 2201   8.430   8.852   7.851 -0.1508 -0.1263 -0.1966
  148POPC   C1A 2202   8.276   9.408   7.827  0.0046  0.0237 -0.0151
  148POPC   D2A 2203   8.239   9.582   7.436  0.1130  0.2238  0.1093
  148POPC   C3A 2204   7.975   9.330   7.254  0.0205  0.0305  0.0923
  148POPC   C4A 2205   7.904   9.229   6.861  0.3879  0.2493 -0.0658
  148POPC   C1B 2206   8.625   8.607   7.545  0.2925 -0.0490  0.1067
  148POPC   C2B 2207   8.890   8.453   7.305 -0.4253 -0.3240  0.1949
  148POPC   C3B 2208   9.013   8.079   7.166 -0.0130 -0.0550  0.1134
  148POPC   C4B 2209   9.337   7.795   7.016 -0.1538 -0.3302 -0.2331
  149POPC   NC3 2210   5.917   6.168   8.462  0.0678  0.0173 -0.1033
  149POPC   PO4 2211   6.260   5.716   8.493  0.3010 -0.1172  0.1130
  149POPC   GL1 2212   6.162   5.534   8.025  0.0648  0.1132 -0.2149
  149POPC   GL2 2213   6.102   5.256   7.958 -0.2095 -0.0662  0.1160
  149POPC   C1A 2214   5.982   5.600   7.546  0.0646  0.0994 -0.1078
  149POPC   D2A 2215   5.666   5.391   7.256  0.0575 -0.2405  0.2974
  149POPC   C3A 2216   5.861   5.374   6.815 -0.0764  0.0100 -0.0783
  149POPC   C4A 2217   5.834   5.490   6.557  0.0363 -0.0301 -0.2660
  149POPC   C1B 2218   5.815   5.118   7.707  0.0070  0.0903 -0.0372
  149POPC   C2B 2219   5.687   4.903   7.333 -0.1038  0.3235  0.2026
  149POPC   C3B 2220   5.825   4.812   7.147  0.0830 -0.1056 -0.0841
  149POPC   C4B 2221   6.242   4.694   7.076 -0.2975 -0.1366  0.3140
  150POPC   NC3 2222   8.736   6.692   3.508 -0.0239  0.1186  0.2394
  150POPC   PO4 2223   8.388   6.853   3.735 -0.1003  0.0943  0.0052
  150POPC   GL1 2224   8.851   7.004   3.937 -0.0502 -0.1999  0.1916
  150POPC   GL2 2225   9.068   7.140   3.753  0.1591  0.3153 -0.3569
  150POPC   C1A 2226   9.230   6.764   4.106 -0.1708 -0.1030 -0.1173
  150POPC   D2A 2227   9.339   6.857   4.429 -0.0001 -0.1353  0.0866
  150POPC   C3A 2228   9.665   6.874   4.562 -0.0916 -0.2429 -0.2080
  150POPC   C4A 2229   9.982   6.630   4.738 -0.1644 -0.0686  0.0224
  150POPC   C1B 2230   9.390   6.803   3.666 -0.0200 -0.0534 -0.0995
  150POPC   C2B 2231   9.717   6.459   3.743 -0.1486 -0.0670 -0.1551
  150POPC   C3B 2232  10.010   6.190   3.562 -0.3905  0.1215  0.1344
  150POPC   C4B 2233   9.836   5.972   3.123 -0.1432 -0.1101  0.0501
  151POPC   NC3 2234   6.299   0.110   4.544  0.1877 -0.3720 -0.1713
  151POPC   PO4 2235   6.518   0.473   4.803 -0.0914 -0.1484 -0.0524
  151POPC   GL1 2236   6.664   0.288   5.247  0.0707  0.0238  0.1372
  151POPC   GL2 2237   6.764  -0.139   5.253  0.1591 -0.0515 -0.2648
  151POPC   C1A 2238   6.859   0.350   5.539 -0.1995  0.0466 -0.0811
  151POPC   D2A 2239   6.737   0.552   5.849  0.2402  0.0525 -0.2013
  151POPC   C3A 2240   6.988   0.546   6.153  0.0527 -0.1834  0.0580
  151POPC   C4A 2241   7.141   0.456   6.555 -0.1212 -0.1528 -0.0469
  151POPC   C1B 2242   6.498   0.019   5.644 -0.1401 -0.3402 -0.0315
  151POPC   C2B 2243   6.283   0.018   6.074 -0.0316 -0.0693 -0.3821
  151POPC   C3B 2244   6.060  -0.233   6.274 -0.2019 -0.4743 -0.2274
  151POPC   C4B 2245   6.008  -0.583   6.587  0.0447  0.0723  0.1425
  152POPC   NC3 2246   1.834   9.781   3.936  0.3733  0.0933 -0.1209
  152POPC   PO4 2247   1.647   9.583   4.267 -0.0708 -0.2117 -0.1753
  152POPC   GL1 2248   1.450   9.401   4.558  0.1881  0.0578  0.2470
  152POPC   GL2 2249   1.192   9.482   4.711 -0.0882 -0.2142 -0.0623
  152POPC   C1A 2250   1.613   9.322   5.037  0.0712 -0.1504 -0.1459
  152POPC   D2A 2251   1.388   9.230   5.494 -0.2007 -0.1618 -0.0218
  152POPC   C3A 2252   1.283   9.516   5.868  0.1274  0.0801 -0.0650
  152POPC   C4A 2253   1.138   9.644   6.167 -0.0600 -0.1203 -0.3564
  152POPC   C1B 2254   1.327   9.671   5.203 -0.0492 -0.1751 -0.0243
  152POPC   C2B 2255   1.454   9.868   5.590 -0.1824 -0.0797 -0.1045
  152POPC   C3B 2256   1.557   9.920   6.041 -0.2560 -0.1192 -0.0546
  152POPC   C4B 2257   1.916   9.758   6.234  0.4550 -0.0859  0.0663
  153POPC   NC3 2258   8.227   4.999   3.828 -0.0199 -0.3109 -0.0762
  153POPC   PO4 2259   8.590   5.129   3.606  0.1666 -0.0321  0.2401
  153POPC   GL1 2260   8.991   5.185   3.934  0.0350  0.0086  0.3451
  153POPC   GL2 2261   8.860   5.481   4.041 -0.2269 -0.2507 -0.0049
  153POPC   C1A 2262   9.142   5.153   4.372  0.0159 -0.1233 -0.0575
  153POPC   D2A 2263   9.061   4.867   4.718 -0.2442  0.0237  0.0130
  153POPC   C3A 2264   9.152   5.025   5.210  0.2116 -0.0488  0.1501
  153POPC   C4A 2265   9.254   5.107   5.675  0.6112  0.0784 -0.1980
  153POPC   C1B 2266   8.741   5.342   4.448 -0.1854  0.1083  0.0500
  153POPC   C2B 2267   8.977   5.529   4.762  0.0666 -0.1190 -0.4389
  153POPC   C3B 2268   8.860   5.679   5.225 -0.0746  0.0520 -0.0568
  153POPC   C4B 2269   9.014   5.996   5.510  0.3374 -0.0870  0.1323
  154POPC   NC3 2270   7.401   6.669   4.225  0.0732 -0.0287  0.3348
  154POPC   PO4 2271   7.201   6.476   4.596  0.0904 -0.0530 -0.7121
  154POPC   GL1 2272   7.338   6.504   5.001 -0.1607 -0.1833  0.1404
  154POPC   GL2 2273   7.470   6.177   4.965  0.1517  0.0407  0.2086
  154POPC   C1A 2274   7.173   6.603   5.308  0.2333 -0.2005 -0.0252
  154POPC   D2A 2275   7.189   6.949   5.627 -0.1253 -0.2590  0.1029
  154POPC   C3A 2276   7.528   6.978   5.864  0.1357  0.0147  0.0751
  154POPC   C4A 2277   7.844   6.875   6.120  0.2355 -0.0740  0.1556
  154POPC   C1B 2278   7.765   6.385   5.204 -0.0095 -0.1827 -0.0954
  154POPC   C2B 2279   8.134   6.233   5.297  0.1092 -0.1282  0.1611
  154POPC   C3B 2280   8.460   6.307   5.628 -0.1134  0.3200 -0.0036
  154POPC   C4B 2281   8.908   6.483   5.653  0.1115  0.3354 -0.0523
  155POPC   NC3 2282   9.763   1.447   4.575  0.1386 -0.2597  0.1715
  155POPC   PO4 2283   9.550   1.169   4.841  0.0262 -0.0580  0.0368
  155POPC   GL1 2284   9.860   1.083   5.123 -0.2195  0.1603  0.0763
  155POPC   GL2 2285   9.791   0.772   5.326 -0.0696 -0.0497 -0.1688
  155POPC   C1A 2286  10.207   1.128   5.391 -0.0404  0.1585  0.2634
  155POPC   D2A 2287  10.302   1.330   5.812  0.2681  0.0544 -0.0665
  155POPC   C3A 2288  10.278   1.011   6.144  0.3808  0.0028 -0.0662
  155POPC   C4A 2289  10.427   0.843   6.539  0.0185  0.0155  0.0547
  155POPC   C1B 2290   9.543   1.147   5.484 -0.2158 -0.3383  0.1068
  155POPC   C2B 2291   9.476   1.574   5.636  0.3521 -0.1195  0.1098
  155POPC   C3B 2292   9.469   1.827   6.043 -0.0199  0.0457  0.2043
  155POPC   C4B 2293   9.780   2.061   6.264 -0.0242  0.1203  0.0610
  156POPC   NC3 2294   3.537   0.448   4.389 -0.0555  0.0011 -0.1662
  156POPC   PO4 2295   3.613   0.111   4.630  0.2108  0.2296 -0.0795
  156POPC   GL1 2296   3.614   0.161   5.050 -0.0325  0.0955  0.0947
  156POPC   GL2 2297   3.912   0.042   5.053  0.0172 -0.2049  0.1515
  156POPC   C1A 2298   3.711   0.527   5.298 -0.0146 -0.3761 -0.3911
  156POPC   D2A 2299   3.596   0.788   5.648  0.0345  0.2142  0.0448
  156POPC   C3A 2300   3.593   0.526   6.074  0.2127  0.2463  0.1136
  156POPC   C4A 2301   3.447   0.063   6.018 -0.2522 -0.1532  0.0865
  156POPC   C1B 2302   3.850   0.093   5.496 -0.2419  0.0671  0.0861
  156POPC   C2B 2303   3.968   0.108   5.962 -0.0656  0.1517  0.0519
  156POPC   C3B 2304   4.275   0.120   6.238  0.1338  0.1361 -0.0993
  156POPC   C4B 2305   4.582   0.344   6.334 -0.2814  0.0553 -0.0820
  157POPC   NC3 2306   4.713   7.142   4.543 -0.4925  0.1355 -0.0921
  157POPC   PO4 2307   4.445   7.464   4.510 -0.1374  0.1624  0.4084
  157POPC   GL1 2308   4.294   7.502   4.930 -0.1183 -0.2524 -0.2946
  157POPC   GL2 2309   4.676   7.354   5.067 -0.0577  0.0948  0.0588
  157POPC   C1A 2310   4.232   7.323   5.412 -0.1757  0.1420 -0.0054
  157POPC   D2A 2311   4.327   7.036   5.696  0.1683  0.0550  0.1361
  157POPC   C3A 2312   4.087   7.151   6.145 -0.2232 -0.0762  0.1836
  157POPC   C4A 2313   3.605   7.215   6.083  0.0155 -0.0065  0.0384
  157POPC   C1B 2314   4.677   7.432   5.434 -0.1464 -0.0035 -0.1781
  157POPC   C2B 2315   4.676   7.381   5.882  0.0377  0.3687  0.0235
  157POPC   C3B 2316   4.917   7.276   6.263  0.1235  0.0326  0.2369
  157POPC   C4B 2317   5.201   7.002   6.414  0.1331  0.1948 -0.0919
  158POPC   NC3 2318   0.384   9.029   3.634 -0.0785  0.0358 -0.2591
  158POPC   PO4 2319   0.383   8.621   3.614 -0.0062  0.0389  0.1643
  158POPC   GL1 2320   0.599   8.693   4.014  0.0507 -0.1003  0.2304
  158POPC   GL2 2321   0.945   8.570   4.002  0.0678 -0.3697  0.0507
  158POPC   C1A 2322   0.558   8.713   4.505 -0.1397 -0.0142  0.0766
  158POPC   D2A 2323   0.555   8.272   4.720 -0.0476 -0.2079 -0.3010
  158POPC   C3A 2324   0.704   8.251   5.184  0.0805 -0.0655 -0.5332
  158POPC   C4A 2325   0.900   8.278   5.617 -0.1132  0.0080  0.0596
  158POPC   C1B 2326   0.939   8.353   4.402 -0.0655 -0.0497  0.5124
  158POPC   C2B 2327   1.050   8.550   4.751  0.0005 -0.1691  0.0542
  158POPC   C3B 2328   1.244   8.300   5.216  0.1064  0.1624 -0.2730
  158POPC   C4B 2329   1.399   8.170   5.650 -0.2629 -0.2430 -0.0501
  159POPC   NC3 2330   8.246   0.901   4.914  0.1495 -0.0538 -0.1277
  159POPC   PO4 2331   8.005   0.741   5.225 -0.3777  0.1449  0.4856
  159POPC   GL1 2332   8.037   0.616   5.574 -0.4439 -0.0045 -0.3431
  159POPC   GL2 2333   8.119   0.334   5.625  0.2300  0.1268 -0.2384
  159POPC   C1A 2334   8.216   0.656   5.982 -0.2381  0.2264 -0.0202
  159POPC   D2A 2335   8.214   0.544   6.332  0.0201 -0.1031 -0.0693
  159POPC   C3A 2336   8.489   0.640   6.573  0.0812 -0.2466  0.2197
  159POPC   C4A 2337   8.877   0.964   6.726  0.0177 -0.1270  0.0932
  159POPC   C1B 2338   8.450   0.130   5.835 -0.1784 -0.0362 -0.1115
  159POPC   C2B 2339   8.481  -0.292   5.953  0.0126 -0.1170  0.0085
  159POPC   C3B 2340   8.690  -0.649   6.145 -0.1537  0.0520  0.3433
  159POPC   C4B 2341   8.768  -0.750   6.621 -0.0661  0.0202  0.1064
  160POPC   NC3 2342   1.253   5.772   2.832 -0.0721 -0.3320  0.0314
  160POPC   PO4 2343   1.619   5.771   3.114  0.1690 -0.0087  0.2286
  160POPC   GL1 2344   1.687   5.856   3.591 -0.2382  0.0798  0.0873
  160POPC   GL2 2345   1.516   5.576   3.681 -0.1499 -0.1895  0.2522
  160POPC   C1A 2346   1.566   6.029   3.983  0.0253 -0.0128 -0.2485
  160POPC   D2A 2347   1.668   6.231   4.361 -0.1235  0.3536 -0.0602
  160POPC   C3A 2348   1.897   6.005   4.716  0.0138 -0.0182 -0.5509
  160POPC   C4A 2349   1.815   5.771   5.133  0.0527 -0.1348 -0.4007
  160POPC   C1B 2350   1.697   5.449   3.988 -0.0546 -0.1591 -0.2325
  160POPC   C2B 2351   1.816   5.749   4.293 -0.0746  0.0127 -0.3926
  160POPC   C3B 2352   2.129   6.171   4.280  0.1286  0.0240  0.0723
  160POPC   C4B 2353   2.246   6.494   4.340  0.0505  0.0219 -0.0364
  161POPC   NC3 2354   6.674   3.159   3.749 -0.0555 -0.1218 -0.0583
  161POPC   PO4 2355   6.881   3.502   4.176  0.2786 -0.0760  0.2619
  161POPC   GL1 2356   6.729   3.522   4.574  0.3700  0.0766  0.4061
  161POPC   GL2 2357   6.644   3.141   4.632  0.1371  0.0225  0.1637
  161POPC   C1A 2358   6.793   3.540   5.073 -0.1974 -0.0499  0.1419
  161POPC   D2A 2359   7.038   3.750   5.392 -0.3402 -0.0004 -0.1977
  161POPC   C3A 2360   7.307   4.077   5.289  0.1168 -0.3192 -0.1160
  161POPC   C4A 2361   7.215   4.502   5.308  0.0328  0.1375  0.3012
  161POPC   C1B 2362   6.498   3.143   5.055 -0.3072 -0.2045  0.0060
  161POPC   C2B 2363   6.350   3.480   5.440  0.2465 -0.1326 -0.3147
  161POPC   C3B 2364   6.473   3.642   5.865  0.1278 -0.1710 -0.1060
  161POPC   C4B 2365   6.313   3.828   6.220  0.2205  0.2724  0.4034
  162POPC   NC3 2366   5.013   1.622   4.716 -0.3079 -0.0714  0.1269
  162POPC   PO4 2367   5.280   1.255   4.961  0.1246  0.0016 -0.3822
  162POPC   GL1 2368   5.472   1.150   5.338  0.0863  0.2236  0.1536
  162POPC   GL2 2369   5.208   0.959   5.431 -0.1509 -0.2278 -0.0589
  162POPC   C1A 2370   5.498   1.313   5.741 -0.2368 -0.0201 -0.3542
  162POPC   D2A 2371   5.662   1.127   6.119 -0.3110  0.2644 -0.0188
  162POPC   C3A 2372   5.504   0.800   6.225 -0.1195 -0.2686 -0.2017
  162POPC   C4A 2373   5.394   0.581   5.816 -0.0879  0.1476 -0.2659
  162POPC   C1B 2374   5.170   1.016   5.883 -0.4218  0.1919  0.0684
  162POPC   C2B 2375   5.195   1.286   6.255  0.2634  0.1259  0.1463
  162POPC   C3B 2376   5.504   1.537   6.391  0.0241  0.1031  0.0635
  162POPC   C4B 2377   5.663   1.940   6.487 -0.0903 -0.0921  0.0533
  163POPC   NC3 2378   1.991   5.520   3.447  0.0206 -0.3499 -0.0268
  163POPC   PO4 2379   2.280   5.270   3.704  0.0697  0.2101  0.0263
  163POPC   GL1 2380   2.513   5.337   4.036 -0.0465  0.2228  0.2469
  163POPC   GL2 2381   2.772   5.115   4.020  0.0401  0.2602  0.0887
  163POPC   C1A 2382   2.616   5.202   4.519  0.1430 -0.1057 -0.3871
  163POPC   D2A 2383   2.446   5.077   4.948 -0.1370 -0.1847  0.1079
  163POPC   C3A 2384   2.210   5.398   5.198 -0.2887 -0.0502  0.0890
  163POPC   C4A 2385   2.303   5.740   5.529  0.0711  0.1065 -0.0503
  163POPC   C1B 2386   2.401   4.846   4.213  0.0266  0.3480 -0.2380
  163POPC   C2B 2387   2.175   4.888   4.602  0.0714 -0.0105 -0.1550
  163POPC   C3B 2388   1.819   4.963   4.901  0.2149  0.2207  0.0248
  163POPC   C4B 2389   1.754   5.290   5.193 -0.1485 -0.0912  0.1921
  164POPC   NC3 2390   4.249   1.217   4.710 -0.0424 -0.0412 -0.5316
  164POPC   PO4 2391   4.718   1.158   4.682 -0.0293  0.0728 -0.0308
  164POPC   GL1 2392   4.760   1.341   5.137 -0.0515 -0.0527  0.1702
  164POPC   GL2 2393   4.855   1.678   5.193  0.1504 -0.3289  0.1197
  164POPC   C1A 2394   4.856   1.316   5.576 -0.2016 -0.2233 -0.2545
  164POPC   D2A 2395   4.700   1.289   6.014 -0.1550  0.1166  0.3919
  164POPC   C3A 2396   4.735   1.599   6.271 -0.1968 -0.2802  0.0143
  164POPC   C4A 2397   4.641   2.053   6.491  0.0316  0.0726  0.2589
  164POPC   C1B 2398   4.604   1.752   5.542  0.0813 -0.1130 -0.1192
  164POPC   C2B 2399   4.175   1.629   5.684 -0.3483 -0.1051 -0.1169
  164POPC   C3B 2400   3.857   1.578   5.869 -0.0633 -0.1703  0.3837
  164POPC   C4B 2401   3.694   1.588   6.277  0.1092  0.0830  0.1488
  165POPC   NC3 2402   9.265   2.992   4.594 -0.1217  0.1029  0.0792
  165POPC   PO4 2403   8.877   3.137   4.702 -0.2252  0.0107  0.3400
  165POPC   GL1 2404   8.839   3.424   5.079  0.2199  0.1070 -0.1382
  165POPC   GL2 2405   8.835   3.228   5.281  0.1321 -0.4182  0.1260
  165POPC   C1A 2406   8.716   3.660   5.542 -0.3419  0.1804  0.0304
  165POPC   D2A 2407   8.672   3.873   5.915  0.0696 -0.1318 -0.0176
  165POPC   C3A 2408   8.539   4.116   6.274  0.2511 -0.4306  0.0767
  165POPC   C4A 2409   8.624   4.482   6.292 -0.2129 -0.2683  0.0507
  165POPC   C1B 2410   8.983   2.990   5.684  0.1703 -0.0203  0.0710
  165POPC   C2B 2411   9.129   2.817   6.038  0.0728 -0.0912 -0.1095
  165POPC   C3B 2412   9.384   2.494   6.258  0.4480  0.3090 -0.2032
  165POPC   C4B 2413   9.454   2.156   6.603 -0.2896 -0.1521 -0.2688
  166POPC   NC3 2414   7.294   2.767   4.646 -0.0009 -0.0723  0.4521
  166POPC   PO4 2415   7.553   2.480   4.869 -0.0147  0.1915 -0.0663
  166POPC   GL1 2416   7.508   2.226   5.184  0.1205  0.1251  0.0174
  166POPC   GL2 2417   7.771   2.212   5.319 -0.3943 -0.2847  0.0905
  166POPC   C1A 2418   7.413   2.357   5.615  0.0938  0.1528 -0.3809
  166POPC   D2A 2419   7.556   2.408   6.060  0.0194 -0.1995  0.0125
  166POPC   C3A 2420   7.852   2.150   6.205  0.3612  0.0931  0.2629
  166POPC   C4A 2421   8.014   1.819   6.146 -0.2398  0.0297  0.1220
  166POPC   C1B 2422   7.905   2.232   5.702  0.0903  0.0382 -0.0497
  166POPC   C2B 2423   8.267   2.313   6.098  0.0188 -0.1460  0.0850
  166POPC   C3B 2424   8.249   2.124   6.521  0.1255  0.2984 -0.0724
  166POPC   C4B 2425   8.506   1.657   6.490  0.1861 -0.2261 -0.1407
  167POPC   NC3 2426   3.752   1.249   4.677  0.0120  0.0342  0.1705
  167POPC   PO4 2427   3.937   1.675   4.776 -0.0409 -0.1701 -0.1899
  167POPC   GL1 2428   4.066   1.658   5.183 -0.0740 -0.0066 -0.2601
  167POPC   GL2 2429   4.302   1.425   5.256  0.0661 -0.0381  0.0604
  167POPC   C1A 2430   4.040   2.027   5.402 -0.0872  0.2803 -0.1160
  167POPC   D2A 2431   4.351   2.206   5.647 -0.3768  0.1439 -0.1460
  167POPC   C3A 2432   4.414   2.453   5.947  0.3724  0.3205  0.1715
  167POPC   C4A 2433   4.643   2.578   6.331 -0.1310  0.1692  0.1381
  167POPC   C1B 2434   4.028   1.161   5.590 -0.2804  0.0491  0.0406
  167POPC   C2B 2435   3.951   0.994   5.950 -0.1712 -0.1295 -0.1161
  167POPC   C3B 2436   4.251   1.062   6.196 -0.0749 -0.3944 -0.3087
  167POPC   C4B 2437   4.262   1.477   6.270 -0.0610  0.4523  0.0320
  168POPC   NC3 2438   5.291   5.922   4.806 -0.0875 -0.1585 -0.0743
  168POPC   PO4 2439   5.432   5.484   4.831  0.0416  0.0346 -0.1481
  168POPC   GL1 2440   5.345   5.329   5.222  0.1174  0.2776  0.1462
  168POPC   GL2 2441   5.292   4.968   5.331 -0.5067 -0.0331  0.2790
  168POPC   C1A 2442   5.259   5.298   5.717 -0.0281  0.0941  0.0680
  168POPC   D2A 2443   5.080   5.341   6.114 -0.0643  0.0029  0.0530
  168POPC   C3A 2444   5.049   5.713   6.328  0.2862  0.1000 -0.1783
  168POPC   C4A 2445   4.802   5.641   6.710  0.1067 -0.0897 -0.2541
  168POPC   C1B 2446   5.773   5.032   5.423  0.2768 -0.1923 -0.0117
  168POPC   C2B 2447   6.206   5.144   5.472  0.1005 -0.0773  0.0146
  168POPC   C3B 2448   6.490   5.232   5.834  0.2999  0.3234 -0.1489
  168POPC   C4B 2449   6.928   5.198   5.826 -0.0395 -0.1648 -0.4085
  169POPC   NC3 2450   7.545   0.482   4.807  0.1135 -0.0067 -0.3544
  169POPC   PO4 2451   7.748   0.889   4.788  0.2156 -0.2189 -0.1108
  169POPC   GL1 2452   7.515   0.827   5.176 -0.1611  0.1402 -0.4780
  169POPC   GL2 2453   7.504   1.038   5.347  0.2451 -0.1689  0.3335
  169POPC   C1A 2454   7.370   0.529   5.564 -0.2021 -0.0457 -0.0258
  169POPC   D2A 2455   7.370   0.212   5.798 -0.2420  0.4037  0.2731
  169POPC   C3A 2456   6.982   0.087   6.098 -0.1176  0.0353 -0.4098
  169POPC   C4A 2457   6.649   0.062   6.444 -0.2308  0.1371 -0.1052
  169POPC   C1B 2458   7.584   1.032   5.726  0.6282  0.0759  0.1099
  169POPC   C2B 2459   7.734   0.611   5.976 -0.0856 -0.3227  0.0288
  169POPC   C3B 2460   7.849   0.219   6.149 -0.1123 -0.1302 -0.2158
  169POPC   C4B 2461   8.232   0.024   6.254  0.1902  0.1736  0.2639
  170POPC   NC3 2462   3.037   1.289   4.670  0.1250  0.1658  0.1693
  170POPC   PO4 2463   2.777   1.099   4.994 -0.1623 -0.2495 -0.2460
  170POPC   GL1 2464   2.804   0.806   5.165  0.3168 -0.0516 -0.1215
  170POPC   GL2 2465   3.172   0.841   5.346  0.2253  0.1836  0.4297
  170POPC   C1A 2466   2.758   0.505   5.616 -0.0577 -0.3444  0.0171
  170POPC   D2A 2467   2.629   0.339   5.965 -0.0356 -0.0279 -0.1220
  170POPC   C3A 2468   2.257   0.523   6.206 -0.1732  0.1392 -0.1047
  170POPC   C4A 2469   1.995   0.862   6.199  0.0814 -0.1729 -0.3756
  170POPC   C1B 2470   3.087   0.763   5.859  0.1473  0.0188  0.2913
  170POPC   C2B 2471   3.065   0.530   6.137  0.0043 -0.2519 -0.3768
  170POPC   C3B 2472   2.797   0.414   6.455 -0.1729 -0.1346 -0.0675
  170POPC   C4B 2473   2.577   0.514   6.764  0.0710 -0.1023 -0.0299
  171POPC   NC3 2474   7.690   9.318   4.492  0.0023  0.1154  0.2589
  171POPC   PO4 2475   7.449   9.077   4.922  0.0250  0.2226  0.1030
  171POPC   GL1 2476   7.235   9.089   5.322  0.0726  0.0432  0.1704
  171POPC   GL2 2477   7.008   9.371   5.450  0.0279  0.0912  0.2727
  171POPC   C1A 2478   7.141   9.018   5.719 -0.0830  0.1460  0.0979
  171POPC   D2A 2479   6.915   9.109   6.011  0.1993 -0.2186 -0.1854
  171POPC   C3A 2480   7.157   9.127   6.562 -0.1003  0.2406  0.1669
  171POPC   C4A 2481   7.417   8.991   6.898 -0.2728  0.2012  0.1316
  171POPC   C1B 2482   6.774   9.526   5.816  0.1016 -0.0044  0.0225
  171POPC   C2B 2483   6.956   9.548   6.317 -0.0453  0.0546  0.3679
  171POPC   C3B 2484   6.887   9.467   6.823 -0.2125 -0.2833  0.2138
  171POPC   C4B 2485   7.107   9.702   7.185  0.0652  0.0521  0.6819
  172POPC   NC3 2486   7.064   5.637   4.723  0.1723 -0.1168 -0.1082
  172POPC   PO4 2487   7.129   5.095   4.642 -0.3458  0.0074 -0.0089
  172POPC   GL1 2488   7.333   5.247   5.004 -0.0321 -0.1405  0.0057
  172POPC   GL2 2489   7.466   5.574   5.028 -0.0038 -0.1410  0.0673
  172POPC   C1A 2490   7.688   5.255   5.390 -0.1146 -0.0438 -0.0436
  172POPC   D2A 2491   7.922   5.465   5.724  0.2029 -0.1773  0.0147
  172POPC   C3A 2492   8.077   5.155   5.998 -0.0242  0.0484  0.0837
  172POPC   C4A 2493   8.102   4.904   6.350 -0.1754 -0.0034  0.1073
  172POPC   C1B 2494   7.670   5.752   5.392  0.1571 -0.1363 -0.0146
  172POPC   C2B 2495   7.894   6.055   5.689  0.1265  0.3856  0.0197
  172POPC   C3B 2496   7.877   6.281   6.045  0.0891  0.0370 -0.0639
  172POPC   C4B 2497   7.989   6.511   6.413  0.0777 -0.0650 -0.3034
  173POPC   NC3 2498   7.772   6.388   4.539  0.0979  0.0430 -0.4707
  173POPC   PO4 2499   7.892   6.553   4.189 -0.0548 -0.1077 -0.3715
  173POPC   GL1 2500   8.140   6.757   4.585  0.2273  0.0636 -0.1993
  173POPC   GL2 2501   8.069   6.626   4.972 -0.0885 -0.2959 -0.2872
  173POPC   C1A 2502   8.418   6.917   4.834  0.3470 -0.0480  0.4770
  173POPC   D2A 2503   8.870   6.934   4.951 -0.3471 -0.1552  0.1634
  173POPC   C3A 2504   9.066   6.860   5.420 -0.1327 -0.0263 -0.1267
  173POPC   C4A 2505   9.252   6.817   5.897  0.1110 -0.1153  0.1618
  173POPC   C1B 2506   8.051   7.058   5.281  0.1251  0.0350  0.0808
  173POPC   C2B 2507   8.164   7.113   5.720 -0.0894 -0.1876 -0.1132
  173POPC   C3B 2508   8.294   7.158   6.218 -0.3059  0.1158  0.1660
  173POPC   C4B 2509   8.462   6.914   6.499 -0.0666  0.1938 -0.1642
  174POPC   NC3 2510   8.876   6.133   2.935  0.0383  0.0708 -0.0673
  174POPC   PO4 2511   8.730   6.192   3.363  0.0357 -0.2442 -0.2667
  174POPC   GL1 2512   8.963   6.228   3.757  0.2306 -0.0815  0.1956
  174POPC   GL2 2513   8.878   6.439   3.899 -0.2010 -0.1782  0.4007
  174POPC   C1A 2514   9.334   6.263   4.019  0.3974 -0.1792  0.2306
  174POPC   D2A 2515   9.657   5.961   4.176 -0.2445  0.2245 -0.0691
  174POPC   C3A 2516  10.012   6.148   4.091  0.1367 -0.1392  0.0283
  174POPC   C4A 2517  10.305   5.928   4.390  0.1066  0.0000  0.3073
  174POPC   C1B 2518   8.720   6.367   4.316  0.1564  0.0719  0.2470
  174POPC   C2B 2519   8.520   6.465   4.686 -0.0740  0.1709 -0.0933
  174POPC   C3B 2520   8.547   6.546   5.113 -0.2343 -0.0598  0.3254
  174POPC   C4B 2521   8.565   6.816   5.422  0.0537 -0.1182  0.0623
  175POPC   NC3 2522   4.222   4.458   4.180  0.1060  0.2586  0.1531
  175POPC   PO4 2523   4.155   4.109   4.448 -0.0753 -0.0910 -0.2046
  175POPC   GL1 2524   4.077   4.274   4.927 -0.2235 -0.4353 -0.0104
  175POPC   GL2 2525   4.222   4.493   4.995 -0.0445 -0.2409  0.0517
  175POPC   C1A 2526   4.132   3.980   5.284  0.3624  0.0314 -0.1283
  175POPC   D2A 2527   3.837   3.981   5.689  0.2404 -0.1551 -0.0307
  175POPC   C3A 2528   3.991   4.316   5.995  0.0557  0.0162 -0.1649
  175POPC   C4A 2529   4.166   4.177   6.355 -0.0365  0.1169 -0.0233
  175POPC   C1B 2530   4.150   4.401   5.500  0.3166 -0.0820 -0.1037
  175POPC   C2B 2531   4.359   4.654   5.837 -0.0463 -0.2776  0.1098
  175POPC   C3B 2532   4.180   4.853   6.114 -0.1739 -0.3415 -0.2194
  175POPC   C4B 2533   4.074   5.165   6.267 -0.0040  0.0151 -0.0682
  176POPC   NC3 2534   6.983   9.433   4.928 -0.2662  0.1675  0.1111
  176POPC   PO4 2535   7.394   9.656   4.870  0.4147 -0.0401 -0.0033
  176POPC   GL1 2536   7.675   9.720   5.202  0.1236 -0.0496  0.2610
  176POPC   GL2 2537   7.759   9.420   5.202 -0.2783  0.2697  0.0465
  176POPC   C1A 2538   7.766   9.787   5.620  0.0282 -0.2895  0.0551
  176POPC   D2A 2539   7.705   9.650   6.008 -0.0372  0.0026 -0.1859
  176POPC   C3A 2540   7.423   9.893   6.282 -0.0467 -0.1197 -0.1926
  176POPC   C4A 2541   7.101   9.913   6.682 -0.1738  0.0332 -0.1114
  176POPC   C1B 2542   7.660   9.223   5.584 -0.0867 -0.1426 -0.0245
  176POPC   C2B 2543   7.806   8.962   5.892  0.0523 -0.0566  0.2063
  176POPC   C3B 2544   7.524   8.578   5.921 -0.0301 -0.1454 -0.0326
  176POPC   C4B 2545   7.581   8.274   5.612 -0.1774 -0.0045 -0.1394
  177POPC   NC3 2546   5.027   9.083   4.884 -0.0457 -0.1835  0.0167
  177POPC   PO4 2547   5.345   9.414   4.806 -0.0641  0.5865 -0.0263
  177POPC   GL1 2548   4.998   9.585   5.084 -0.0011  0.1991 -0.1177
  177POPC   GL2 2549   4.647   9.658   4.916 -0.1820  0.1631  0.0778
  177POPC   C1A 2550   4.981   9.491   5.548 -0.0386 -0.4052  0.0325
  177POPC   D2A 2551   4.750   9.395   5.919  0.0020 -0.1123  0.1736
  177POPC   C3A 2552   4.712   9.698   6.242 -0.1171 -0.0491 -0.0828
  177POPC   C4A 2553   4.862   9.858   6.677 -0.0773 -0.1537  0.1867
  177POPC   C1B 2554   4.453   9.860   5.246  0.1830 -0.2650 -0.0828
  177POPC   C2B 2555   4.303  10.147   5.535  0.0527  0.1221  0.0519
  177POPC   C3B 2556   4.252  10.439   5.865  0.1067 -0.0434  0.3954
  177POPC   C4B 2557   4.044  10.530   6.295  0.1341  0.0578  0.4659
  178POPC   NC3 2558   1.594   2.716   4.813  0.1672 -0.1783  0.1442
  178POPC   PO4 2559   1.554   2.274   4.733  0.0559  0.0294 -0.3351
  178POPC   GL1 2560   1.460   2.372   5.230  0.0375  0.2647  0.3443
  178POPC   GL2 2561   1.314   2.681   5.284  0.1696  0.2201 -0.1976
  178POPC   C1A 2562   1.166   2.311   5.516 -0.1256  0.1469 -0.2299
  178POPC   D2A 2563   1.226   2.403   6.019  0.3933 -0.0958  0.1015
  178POPC   C3A 2564   0.974   2.506   6.346  0.1230  0.3778 -0.0116
  178POPC   C4A 2565   0.627   2.620   6.641 -0.0142  0.0524  0.0616
  178POPC   C1B 2566   1.117   2.836   5.624 -0.1260 -0.4789  0.1552
  178POPC   C2B 2567   1.001   2.948   5.962  0.2926  0.3127 -0.2555
  178POPC   C3B 2568   0.782   3.026   6.381 -0.0798  0.2404  0.1249
  178POPC   C4B 2569   0.573   3.385   6.540 -0.0574 -0.2110 -0.0093
  179POPC   NC3 2570   9.706   5.116   2.942 -0.5124 -0.3129 -0.0824
  179POPC   PO4 2571   9.331   5.109   3.326  0.0331  0.4047 -0.0329
  179POPC   GL1 2572   9.390   5.097   3.663  0.2720  0.0432  0.0073
  179POPC   GL2 2573   9.438   5.301   3.821 -0.0742  0.2631 -0.0759
  179POPC   C1A 2574   9.298   4.688   4.025 -0.0507  0.1772  0.0453
  179POPC   D2A 2575   9.410   4.475   4.282 -0.3540  0.2537 -0.3171
  179POPC   C3A 2576   9.721   4.381   4.558  0.1073 -0.1188  0.1087
  179POPC   C4A 2577   9.999   4.437   4.931  0.0276  0.4881  0.0267
  179POPC   C1B 2578   9.644   5.296   4.204 -0.1212  0.0182 -0.0168
  179POPC   C2B 2579   9.757   5.582   4.485 -0.1699 -0.4129  0.0639
  179POPC   C3B 2580   9.964   5.317   4.695 -0.0780  0.4256 -0.0490
  179POPC   C4B 2581  10.113   5.301   5.102 -0.0354 -0.0245  0.2637
  180POPC   NC3 2582   3.875   5.875   4.287 -0.1592 -0.1365  0.3294
  180POPC   PO4 2583   4.205   5.685   4.444  0.1410  0.0860 -0.3256
  180POPC   GL1 2584   4.005   6.016   4.738  0.1914 -0.3471 -0.2624
  180POPC   GL2 2585   4.033   5.970   4.965 -0.0903 -0.2534 -0.0301
  180POPC   C1A 2586   3.529   5.867   4.943  0.0017 -0.2368 -0.1644
  180POPC   D2A 2587   3.164   5.889   5.123  0.1611  0.0873  0.1195
  180POPC   C3A 2588   3.030   6.215   5.390 -0.1402 -0.0537 -0.0279
  180POPC   C4A 2589   2.821   6.579   5.321  0.2513  0.1616 -0.4396
  180POPC   C1B 2590   4.017   6.200   5.269 -0.1296 -0.0391 -0.1735
  180POPC   C2B 2591   3.822   6.465   5.614  0.0966  0.1756  0.2418
  180POPC   C3B 2592   3.420   6.548   5.734  0.1703 -0.3717 -0.1982
  180POPC   C4B 2593   3.073   6.861   5.595  0.0468 -0.0289 -0.0011
  181POPC   NC3 2594   9.855   3.385   3.971  0.0781  0.3598  0.2033
  181POPC   PO4 2595  10.070   3.780   4.068 -0.0981 -0.1431 -0.0100
  181POPC   GL1 2596  10.213   4.183   4.378  0.0980 -0.0023 -0.0939
  181POPC   GL2 2597  10.580   4.150   4.451  0.3191 -0.1605  0.0123
  181POPC   C1A 2598  10.217   4.605   4.502  0.1681 -0.1413 -0.5425
  181POPC   D2A 2599  10.222   4.873   4.847 -0.1250  0.0895 -0.0374
  181POPC   C3A 2600  10.156   4.789   5.303  0.0059  0.0597  0.0212
  181POPC   C4A 2601  10.148   4.697   5.767  0.1518  0.1818 -0.1609
  181POPC   C1B 2602  10.500   4.428   4.850  0.2432  0.0184 -0.0210
  181POPC   C2B 2603  10.480   4.291   5.260 -0.1397 -0.4378 -0.1807
  181POPC   C3B 2604  10.489   4.313   5.708 -0.1462  0.1433  0.0064
  181POPC   C4B 2605  10.346   4.251   6.084  0.1246 -0.1845 -0.0082
  182POPC   NC3 2606   5.774   9.006   4.779 -0.5272  0.0468 -0.0526
  182POPC   PO4 2607   5.363   8.754   4.756 -0.0888  0.1702 -0.1016
  182POPC   GL1 2608   5.235   8.667   5.206  0.1195 -0.2642  0.1208
  182POPC   GL2 2609   5.025   8.485   5.454  0.1191  0.1526 -0.1344
  182POPC   C1A 2610   5.429   8.657   5.623  0.0168  0.1292  0.0359
  182POPC   D2A 2611   5.457   8.588   6.050  0.2520  0.0033 -0.1931
  182POPC   C3A 2612   5.731   8.270   6.271  0.1125  0.0305  0.1318
  182POPC   C4A 2613   6.032   8.253   6.668 -0.1699 -0.0475  0.0660
  182POPC   C1B 2614   4.649   8.417   5.711 -0.1047  0.0948  0.0116
  182POPC   C2B 2615   4.261   8.214   5.842  0.1530  0.3245  0.0834
  182POPC   C3B 2616   4.031   8.183   6.235 -0.0930  0.0594  0.4792
  182POPC   C4B 2617   3.996   8.094   6.660  0.0051 -0.0153 -0.3602
  183POPC   NC3 2618   5.920   0.843   4.464 -0.2841 -0.1424 -0.3372
  183POPC   PO4 2619   6.296   1.108   4.527  0.0341  0.0513 -0.0082
  183POPC   GL1 2620   6.271   0.885   4.936  0.1877 -0.2110 -0.0606
  183POPC   GL2 2621   6.041   0.762   5.004  0.1016  0.1245 -0.2270
  183POPC   C1A 2622   6.490   0.882   5.392  0.2190  0.2025 -0.0617
  183POPC   D2A 2623   6.267   1.150   5.688 -0.1726 -0.0149  0.2530
  183POPC   C3A 2624   6.475   1.554   5.869 -0.1316  0.1160  0.0520
  183POPC   C4A 2625   6.589   1.699   6.176 -0.1139 -0.0656  0.1046
  183POPC   C1B 2626   6.161   0.510   5.449 -0.1794  0.0104 -0.0326
  183POPC   C2B 2627   5.992   0.369   5.873  0.1030 -0.1725  0.0975
  183POPC   C3B 2628   5.899   0.510   6.249 -0.3197 -0.2103 -0.3372
  183POPC   C4B 2629   5.924   0.816   6.482  0.3422  0.0456 -0.1202
  184POPC   NC3 2630   3.580   8.222   4.074 -0.1076  0.1401  0.1061
  184POPC   PO4 2631   4.069   8.170   4.250  0.0708  0.0154 -0.0535
  184POPC   GL1 2632   3.655   8.115   4.549 -0.0047  0.0098  0.1880
  184POPC   GL2 2633   3.485   7.754   4.306  0.2162 -0.2417 -0.0010
  184POPC   C1A 2634   3.389   7.920   4.842 -0.1354 -0.1170 -0.2727
  184POPC   D2A 2635   3.204   7.709   5.152 -0.1647 -0.1271 -0.0602
  184POPC   C3A 2636   2.720   7.839   5.272 -0.2079  0.0516  0.0864
  184POPC   C4A 2637   2.400   8.165   5.278  0.2783  0.1413  0.1128
  184POPC   C1B 2638   3.063   8.192   4.440 -0.2818  0.0688 -0.3551
  184POPC   C2B 2639   2.871   8.549   4.558  0.2386 -0.1050 -0.1016
  184POPC   C3B 2640   2.659   8.544   5.065 -0.0195  0.3605  0.1020
  184POPC   C4B 2641   2.860   8.384   5.424  0.4821  0.2275 -0.0600
  185POPC   NC3 2642   0.442   7.466   2.828 -0.0702 -0.1560 -0.1041
  185POPC   PO4 2643   0.514   7.824   3.086 -0.1528  0.1737  0.1799
  185POPC   GL1 2644   0.450   7.430   3.383  0.1595 -0.0647  0.0491
  185POPC   GL2 2645   0.282   7.160   3.508 -0.0335 -0.0066  0.1880
  185POPC   C1A 2646   0.837   7.327   3.694  0.0451 -0.1124 -0.2316
  185POPC   D2A 2647   1.210   7.468   3.907  0.1094  0.2445 -0.0889
  185POPC   C3A 2648   1.468   7.140   4.109  0.2394 -0.3394 -0.0977
  185POPC   C4A 2649   1.464   6.806   4.328 -0.1064 -0.1853 -0.1426
  185POPC   C1B 2650  -0.051   7.027   3.750  0.0102  0.1240 -0.1804
  185POPC   C2B 2651  -0.212   6.765   4.110 -0.0624  0.1014 -0.1321
  185POPC   C3B 2652  -0.188   6.432   4.307  0.1542 -0.0679  0.1674
  185POPC   C4B 2653  -0.025   6.152   4.570 -0.0535 -0.1736 -0.1118
  186POPC   NC3 2654   3.689   4.154   4.675  0.1845  0.2678 -0.3984
  186POPC   PO4 2655   3.329   3.914   4.535  0.0529  0.0824  0.0948
  186POPC   GL1 2656   3.315   3.930   4.969 -0.1179 -0.3201 -0.0692
  186POPC   GL2 2657   3.140   3.614   5.025  0.2236 -0.0231  0.0056
  186POPC   C1A 2658   2.963   4.058   5.257  0.3173  0.0847  0.2001
  186POPC   D2A 2659   2.587   4.006   5.382 -0.0385 -0.0536  0.1931
  186POPC   C3A 2660   2.301   3.609   5.471  0.0035  0.0287 -0.2692
  186POPC   C4A 2661   2.086   3.278   5.461  0.0962 -0.1402  0.0512
  186POPC   C1B 2662   3.100   3.593   5.408 -0.1228 -0.0839 -0.0871
  186POPC   C2B 2663   3.139   3.793   5.737  0.2393 -0.2291 -0.2373
  186POPC   C3B 2664   2.874   4.144   5.950  0.4596 -0.0289  0.2052
  186POPC   C4B 2665   2.463   4.390   5.782  0.0370 -0.1348  0.0185
  187POPC   NC3 2666   2.239   2.721   4.441  0.1223 -0.0645  0.1988
  187POPC   PO4 2667   2.066   2.925   4.728 -0.1003 -0.1807  0.0915
  187POPC   GL1 2668   2.065   2.732   5.160  0.1083 -0.4326 -0.0275
  187POPC   GL2 2669   2.242   2.858   5.299  0.2033  0.0715  0.2624
  187POPC   C1A 2670   1.954   2.454   5.397 -0.3384 -0.0283  0.0095
  187POPC   D2A 2671   1.595   2.460   5.685 -0.0360 -0.2088  0.1222
  187POPC   C3A 2672   1.519   2.832   5.993 -0.0106  0.0028 -0.2669
  187POPC   C4A 2673   1.426   2.966   6.282  0.0938  0.4318 -0.1130
  187POPC   C1B 2674   2.448   3.004   5.634  0.0292 -0.0858  0.1546
  187POPC   C2B 2675   2.449   2.976   6.001 -0.2631 -0.3245  0.0035
  187POPC   C3B 2676   2.435   3.235   6.377  0.1884 -0.0794  0.0438
  187POPC   C4B 2677   2.363   3.321   6.718 -0.0159  0.1796  0.2748
  188POPC   NC3 2678   3.549   4.993   4.540 -0.2635 -0.0994 -0.2530
  188POPC   PO4 2679   3.448   4.566   4.448 -0.0012  0.3581 -0.3823
  188POPC   GL1 2680   3.366   4.588   4.864  0.2386  0.2132  0.0557
  188POPC   GL2 2681   3.582   4.391   5.082 -0.1758  0.2817 -0.5898
  188POPC   C1A 2682   3.160   4.617   5.228 -0.2170 -0.1021 -0.1190
  188POPC   D2A 2683   2.970   4.405   5.527  0.1791  0.2272  0.0571
  188POPC   C3A 2684   2.921   4.649   5.918  0.0430  0.1370  0.0110
  188POPC   C4A 2685   3.285   4.966   6.101 -0.1429  0.2144  0.5302
  188POPC   C1B 2686   3.435   4.221   5.481  0.0077  0.0967 -0.4500
  188POPC   C2B 2687   3.367   4.325   5.973 -0.0656 -0.2680  0.3812
  188POPC   C3B 2688   3.133   4.465   6.348  0.2921  0.1966 -0.3491
  188POPC   C4B 2689   2.877   4.267   6.745  0.0868 -0.0393  0.1748
  189POPC   NC3 2690   4.693   5.782   4.282 -0.2309  0.3567 -0.1310
  189POPC   PO4 2691   4.984   5.594   4.575 -0.1003 -0.1694 -0.0541
  189POPC   GL1 2692   4.924   5.639   5.054 -0.0837  0.2586  0.0006
  189POPC   GL2 2693   4.889   5.997   5.178 -0.0121  0.2157 -0.2422
  189POPC   C1A 2694   4.499   5.750   5.274  0.2755 -0.1179  0.0859
  189POPC   D2A 2695   4.286   6.005   5.590 -0.4471 -0.1576  0.4147
  189POPC   C3A 2696   4.179   6.233   5.911 -0.3353 -0.2490  0.1191
  189POPC   C4A 2697   4.041   6.712   5.977  0.1344 -0.2607 -0.1520
  189POPC   C1B 2698   4.778   6.150   5.545 -0.1748  0.2099 -0.0442
  189POPC   C2B 2699   4.982   6.117   6.004 -0.0161 -0.5399  0.1033
  189POPC   C3B 2700   5.317   6.115   6.343  0.0635 -0.1925  0.2585
  189POPC   C4B 2701   5.343   6.189   6.753  0.1902 -0.1677 -0.0506
  190POPC   NC3 2702   6.216   7.320   4.407 -0.0345  0.2184 -0.0649
  190POPC   PO4 2703   6.290   7.299   4.794 -0.0757 -0.0928  0.0045
  190POPC   GL1 2704   6.352   7.124   5.231  0.1386 -0.3861 -0.0298
  190POPC   GL2 2705   6.395   7.270   5.513 -0.3740  0.0373 -0.1454
  190POPC   C1A 2706   6.583   6.794   5.612  0.2001  0.0914 -0.5354
  190POPC   D2A 2707   6.821   6.643   5.965  0.1137 -0.1439  0.0973
  190POPC   C3A 2708   7.192   6.556   5.882  0.0948  0.3809  0.0069
  190POPC   C4A 2709   7.487   6.416   5.657 -0.1964  0.1447  0.1217
  190POPC   C1B 2710   6.503   7.699   5.751 -0.2638 -0.2628  0.0985
  190POPC   C2B 2711   6.483   7.773   6.148 -0.0982  0.0374 -0.1277
  190POPC   C3B 2712   6.357   7.623   6.561 -0.2524  0.3473  0.0649
  190POPC   C4B 2713   6.209   7.830   6.944  0.4310  0.1332  0.2702
  191POPC   NC3 2714   5.279   0.120   4.062 -0.0733  0.1745  0.0971
  191POPC   PO4 2715   5.525   0.106   4.440 -0.0529 -0.2235  0.3979
  191POPC   GL1 2716   5.431   0.022   4.815 -0.0491 -0.1681  0.0227
  191POPC   GL2 2717   5.298   0.388   4.795  0.0182  0.2375  0.5263
  191POPC   C1A 2718   5.447  -0.093   5.264  0.2089 -0.2370  0.0723
  191POPC   D2A 2719   5.498   0.080   5.553  0.2057  0.0102  0.0848
  191POPC   C3A 2720   5.095   0.151   5.720  0.0435 -0.1111 -0.3590
  191POPC   C4A 2721   4.692   0.214   5.857  0.5881 -0.0590 -0.2888
  191POPC   C1B 2722   5.723   0.341   5.159  0.1526  0.1878 -0.1537
  191POPC   C2B 2723   5.579   0.620   5.326  0.2460  0.1303 -0.2408
  191POPC   C3B 2724   5.195   0.464   5.316  0.1899 -0.2279  0.0095
  191POPC   C4B 2725   4.991   0.130   5.248 -0.5157  0.2645 -0.0035
  192POPC   NC3 2726   0.147   2.437   4.010  0.1632  0.0193  0.0459
  192POPC   PO4 2727   0.103   2.309   4.459  0.0630  0.0189  0.1396
  192POPC   GL1 2728   0.122   2.675   4.706 -0.1535  0.0722 -0.2148
  192POPC   GL2 2729   0.015   2.984   4.646  0.0857  0.2052  0.0056
  192POPC   C1A 2730  -0.047   2.805   5.127 -0.0038 -0.1738 -0.1565
  192POPC   D2A 2731  -0.405   2.549   5.282  0.0449  0.1378 -0.0154
  192POPC   C3A 2732  -0.795   2.691   5.185 -0.4101 -0.0637  0.2979
  192POPC   C4A 2733  -1.271   2.750   5.291 -0.2195  0.0818  0.0627
  192POPC   C1B 2734  -0.079   3.309   4.947 -0.3302  0.5177  0.3750
  192POPC   C2B 2735  -0.221   3.583   5.293  0.4527  0.0020  0.1291
  192POPC   C3B 2736  -0.244   3.630   5.675  0.5254 -0.1407  0.2604
  192POPC   C4B 2737  -0.284   3.728   6.140  0.2883 -0.0956  0.2266
  193POPC   NC3 2738   7.498   1.634   4.348  0.1305  0.1306 -0.0358
  193POPC   PO4 2739   7.522   1.346   4.579  0.1687 -0.3162 -0.1781
  193POPC   GL1 2740   7.289   1.371   5.043 -0.1508 -0.0529  0.0303
  193POPC   GL2 2741   6.963   1.274   5.261  0.1428 -0.2708 -0.3214
  193POPC   C1A 2742   7.362   1.553   5.504  0.0580  0.1828  0.0236
  193POPC   D2A 2743   7.523   1.919   5.874 -0.3126  0.2062 -0.2662
  193POPC   C3A 2744   7.149   2.117   6.212  0.1776  0.1632 -0.1058
  193POPC   C4A 2745   6.909   1.974   6.396  0.1628  0.0138 -0.5738
  193POPC   C1B 2746   6.804   1.268   5.624  0.0091 -0.1482 -0.1549
  193POPC   C2B 2747   6.720   1.072   6.009 -0.0264 -0.2354 -0.2869
  193POPC   C3B 2748   6.823   0.936   6.471 -0.2072 -0.0627  0.3034
  193POPC   C4B 2749   7.184   1.038   6.646  0.2718  0.2134  0.2874
  194POPC   NC3 2750   2.707   2.081   4.321 -0.0691  0.4493 -0.1174
  194POPC   PO4 2751   2.445   1.950   4.633  0.0406 -0.2909  0.1890
  194POPC   GL1 2752   2.214   1.944   5.007 -0.2043  0.1004 -0.2780
  194POPC   GL2 2753   1.927   2.021   5.095 -0.3375 -0.0084  0.1553
  194POPC   C1A 2754   2.320   2.007   5.480  0.0998 -0.0779 -0.0484
  194POPC   D2A 2755   2.033   2.081   5.878 -0.0540 -0.1029  0.0278
  194POPC   C3A 2756   2.257   2.133   6.167 -0.1568  0.3023  0.0517
  194POPC   C4A 2757   2.413   1.880   6.554 -0.0524  0.2841 -0.2555
  194POPC   C1B 2758   1.729   1.987   5.465  0.1904 -0.2805  0.1195
  194POPC   C2B 2759   1.563   1.844   5.880  0.0730 -0.0249  0.3165
  194POPC   C3B 2760   1.615   1.418   6.029  0.0807 -0.0701  0.2011
  194POPC   C4B 2761   1.510   0.916   6.123 -0.3435  0.0867 -0.0561
  195POPC   NC3 2762   9.827   4.273   3.348  0.1535 -0.0252 -0.1601
  195POPC   PO4 2763   9.766   4.595   3.056  0.3340 -0.2420 -0.1164
  195POPC   GL1 2764   9.858   4.752   3.473  0.0094  0.0444 -0.2041
  195POPC   GL2 2765   9.830   5.136   3.443  0.2985  0.2626  0.2690
  195POPC   C1A 2766   9.794   4.913   3.856 -0.0392 -0.2712 -0.3098
  195POPC   D2A 2767   9.794   4.843   4.274  0.2798 -0.1019 -0.0091
  195POPC   C3A 2768   9.574   4.858   4.582  0.1932 -0.0821 -0.2506
  195POPC   C4A 2769   9.564   4.636   4.953 -0.4218 -0.0036  0.1406
  195POPC   C1B 2770  10.272   5.009   3.602  0.4994  0.4725 -0.1998
  195POPC   C2B 2771  10.623   5.075   3.973  0.1602 -0.0468 -0.0011
  195POPC   C3B 2772  10.702   5.399   4.331 -0.1281  0.2167  0.1376
  195POPC   C4B 2773  10.912   5.525   4.668 -0.0570  0.5356  0.0944
  196POPC   NC3 2774   5.887   3.749   4.995 -0.2098  0.1096  0.0327
  196POPC   PO4 2775   5.779   3.457   4.676 -0.3316  0.0011 -0.1434
  196POPC   GL1 2776   5.966   3.247   5.076  0.4679 -0.0951 -0.3193
  196POPC   GL2 2777   5.807   3.433   5.407  0.4858  0.0736  0.1928
  196POPC   C1A 2778   6.072   2.987   5.397  0.1052  0.1970 -0.0611
  196POPC   D2A 2779   5.968   2.937   5.876 -0.2659 -0.0288  0.5640
  196POPC   C3A 2780   6.066   3.349   5.978 -0.1260  0.0425 -0.2135
  196POPC   C4A 2781   5.951   3.726   5.837 -0.2430 -0.1617  0.0592
  196POPC   C1B 2782   5.508   3.420   5.786  0.2218 -0.0465  0.2194
  196POPC   C2B 2783   5.127   3.456   6.154  0.0397 -0.2375  0.1052
  196POPC   C3B 2784   5.060   3.567   6.524 -0.2880  0.1103  0.4223
  196POPC   C4B 2785   4.961   3.872   6.664 -0.0360 -0.1530 -0.1139
  197POPC   NC3 2786   2.316   9.535   4.538 -0.2782  0.1772 -0.2793
  197POPC   PO4 2787   2.369   9.109   4.370  0.1193  0.4262 -0.2925
  197POPC   GL1 2788   2.132   9.126   4.723 -0.0271  0.0380 -0.3630
  197POPC   GL2 2789   1.917   8.814   4.827 -0.0182  0.0745 -0.0348
  197POPC   C1A 2790   2.053   9.172   5.186 -0.3704  0.0618  0.1309
  197POPC   D2A 2791   2.242   9.090   5.686  0.2412  0.1189  0.1824
  197POPC   C3A 2792   2.429   8.950   6.043 -0.0669 -0.0732 -0.0295
  197POPC   C4A 2793   2.876   8.867   6.081  0.0791  0.0058  0.1401
  197POPC   C1B 2794   2.128   8.696   5.271  0.0118  0.2014 -0.1327
  197POPC   C2B 2795   2.387   8.559   5.607  0.4340  0.0446  0.1467
  197POPC   C3B 2796   2.685   8.462   5.891  0.2233  0.1898  0.0479
  197POPC   C4B 2797   3.077   8.385   5.870  0.0239  0.1503  0.0792
  198POPC   NC3 2798   4.339   4.921   4.303  0.1171 -0.0163 -0.2624
  198POPC   PO4 2799   4.017   5.145   4.578 -0.0096 -0.0757 -0.1544
  198POPC   GL1 2800   3.879   4.922   4.977 -0.0576  0.2387  0.1018
  198POPC   GL2 2801   4.081   4.994   5.287 -0.1679 -0.1825 -0.2036
  198POPC   C1A 2802   3.619   4.883   5.253 -0.0766  0.0584 -0.1645
  198POPC   D2A 2803   3.512   4.782   5.668 -0.2434 -0.0223 -0.0773
  198POPC   C3A 2804   3.746   4.727   6.008  0.3082 -0.0995  0.1433
  198POPC   C4A 2805   3.813   4.772   6.451  0.1150  0.3451 -0.0373
  198POPC   C1B 2806   3.954   5.014   5.674 -0.2068 -0.1085 -0.1740
  198POPC   C2B 2807   3.657   5.240   6.014  0.0015 -0.4439  0.3993
  198POPC   C3B 2808   3.257   5.483   6.126 -0.1214  0.0877  0.2439
  198POPC   C4B 2809   3.259   5.877   6.379 -0.0840  0.0454 -0.0336
  199POPC   NC3 2810   0.231   1.814   4.547  0.2840  0.0723  0.0174
  199POPC   PO4 2811  -0.164   1.922   4.641  0.2321 -0.1367 -0.0738
  199POPC   GL1 2812  -0.065   2.089   4.955  0.0493  0.1773 -0.0047
  199POPC   GL2 2813   0.057   2.287   4.997 -0.1159  0.1491  0.1956
  199POPC   C1A 2814  -0.224   2.011   5.412  0.0031 -0.0715 -0.0030
  199POPC   D2A 2815  -0.441   2.250   5.720  0.0248  0.3741 -0.1708
  199POPC   C3A 2816  -0.786   2.533   5.690 -0.0624 -0.1565  0.3062
  199POPC   C4A 2817  -1.264   2.577   5.783  0.3574 -0.0098 -0.1510
  199POPC   C1B 2818   0.210   2.476   5.417 -0.0534  0.0928 -0.0824
  199POPC   C2B 2819   0.095   2.902   5.671 -0.0776  0.3901 -0.1075
  199POPC   C3B 2820   0.198   3.329   5.642 -0.2834 -0.1090  0.0437
  199POPC   C4B 2821   0.209   3.709   5.840 -0.0707 -0.0680 -0.1740
  200POPC   NC3 2822   5.850   6.978   5.003  0.0806  0.0366  0.2301
  200POPC   PO4 2823   5.551   6.833   4.827 -0.1755  0.0741 -0.2844
  200POPC   GL1 2824   5.449   6.745   5.303  0.3436  0.1101  0.2868
  200POPC   GL2 2825   5.688   6.925   5.486  0.1672 -0.0483  0.1543
  200POPC   C1A 2826   5.070   6.582   5.580  0.1449 -0.0487 -0.0265
  200POPC   D2A 2827   4.921   6.918   5.916  0.1327  0.2011  0.0334
  200POPC   C3A 2828   4.534   6.935   6.192  0.2705 -0.0644  0.2281
  200POPC   C4A 2829   4.601   6.841   6.591  0.3222 -0.0826  0.1169
  200POPC   C1B 2830   5.551   6.696   5.802 -0.1319 -0.3234  0.2791
  200POPC   C2B 2831   5.314   6.543   6.032 -0.2399  0.0295 -0.0561
  200POPC   C3B 2832   4.998   6.518   6.400  0.0176  0.1790  0.0395
  200POPC   C4B 2833   4.734   6.083   6.460  0.0801 -0.1642 -0.2664
  201POPC   NC3 2834   1.348   7.342   2.650 -0.0627  0.0018 -0.2171
  201POPC   PO4 2835   1.482   7.318   3.097  0.0843  0.0648 -0.0467
  201POPC   GL1 2836   1.239   6.987   3.380  0.2104 -0.0473  0.5060
  201POPC   GL2 2837   1.367   6.676   3.289  0.2025  0.0401 -0.1029
  201POPC   C1A 2838   1.235   6.881   3.764  0.1703  0.2227 -0.3037
  201POPC   D2A 2839   1.298   6.504   4.031 -0.0567  0.3592  0.2652
  201POPC   C3A 2840   1.072   6.208   4.110  0.1181  0.2190 -0.1162
  201POPC   C4A 2841   0.881   5.987   4.429  0.3822 -0.1604  0.4267
  201POPC   C1B 2842   1.215   6.365   3.553  0.0181  0.2828  0.0505
  201POPC   C2B 2843   1.110   5.886   3.668 -0.3169 -0.2204  0.3226
  201POPC   C3B 2844   1.165   5.502   3.990  0.1901 -0.0408  0.0807
  201POPC   C4B 2845   1.334   5.047   3.975 -0.0233  0.0906 -0.1656
  202POPC   NC3 2846   2.708   6.815   3.519  0.2972 -0.3096 -0.3742
  202POPC   PO4 2847   3.182   6.965   3.658 -0.0859  0.2831 -0.4980
  202POPC   GL1 2848   3.009   6.965   4.088 -0.0059 -0.1298  0.1447
  202POPC   GL2 2849   2.857   7.209   4.047  0.1748  0.1322 -0.0889
  202POPC   C1A 2850   2.793   7.056   4.499  0.5643 -0.0503  0.4236
  202POPC   D2A 2851   2.383   7.084   4.710 -0.5292 -0.2454 -0.4142
  202POPC   C3A 2852   2.342   7.482   4.906  0.0073  0.2746  0.1161
  202POPC   C4A 2853   2.020   7.870   4.988 -0.0135  0.0847  0.2234
  202POPC   C1B 2854   3.143   7.430   4.393 -0.0899 -0.0223 -0.3480
  202POPC   C2B 2855   3.407   7.441   4.722  0.0254 -0.1283 -0.2490
  202POPC   C3B 2856   3.344   7.216   5.118  0.1055  0.0901 -0.0682
  202POPC   C4B 2857   3.397   6.774   5.162 -0.1732  0.2581  0.0034
  203POPC   NC3 2858   4.357   1.930   3.973 -0.2032 -0.1022 -0.1293
  203POPC   PO4 2859   4.184   1.952   4.375 -0.1460 -0.2047  0.3141
  203POPC   GL1 2860   4.217   2.080   4.898 -0.3099  0.5112 -0.0351
  203POPC   GL2 2861   4.140   2.384   5.111  0.3066 -0.0700  0.0642
  203POPC   C1A 2862   4.541   2.086   5.191  0.2249  0.1668  0.1709
  203POPC   D2A 2863   5.071   2.133   5.279  0.0514  0.0807  0.1563
  203POPC   C3A 2864   5.260   1.728   5.448  0.3223 -0.0299 -0.0047
  203POPC   C4A 2865   5.127   1.590   5.853 -0.5432 -0.0772 -0.0691
  203POPC   C1B 2866   4.092   2.594   5.573 -0.1885  0.2930 -0.0487
  203POPC   C2B 2867   3.919   2.507   6.039  0.3081 -0.0301  0.0207
  203POPC   C3B 2868   4.211   2.434   6.405  0.2943 -0.0408 -0.2810
  203POPC   C4B 2869   4.462   2.399   6.796 -0.1724  0.1386  0.0623
  204POPC   NC3 2870   5.057   4.310   4.505 -0.0106 -0.3408  0.2373
  204POPC   PO4 2871   4.874   4.729   4.687 -0.0872  0.0426  0.0344
  204POPC   GL1 2872   4.723   4.574   5.092  0.0857  0.0687 -0.0832
  204POPC   GL2 2873   4.567   4.785   5.326 -0.3233  0.2898  0.3045
  204POPC   C1A 2874   4.633   4.305   5.427 -0.2375 -0.1924 -0.1797
  204POPC   D2A 2875   4.739   4.293   5.836 -0.3163 -0.1290 -0.5079
  204POPC   C3A 2876   4.575   4.419   6.253 -0.0627 -0.0626 -0.2835
  204POPC   C4A 2877   4.459   4.225   6.754 -0.1397 -0.1486  0.1195
  204POPC   C1B 2878   4.890   4.858   5.649 -0.0662  0.0782 -0.4039
  204POPC   C2B 2879   5.085   4.858   6.005  0.0222 -0.1297 -0.0161
  204POPC   C3B 2880   5.036   4.860   6.378  0.0194 -0.0155  0.2181
  204POPC   C4B 2881   4.993   4.469   6.497 -0.2139  0.0564 -0.0968
  205POPC   NC3 2882   9.341   9.387   4.692 -0.0094  0.0120  0.2522
  205POPC   PO4 2883   9.065   9.805   4.820 -0.0303  0.0876 -0.2593
  205POPC   GL1 2884   8.982   9.789   5.240 -0.2783  0.1111  0.1146
  205POPC   GL2 2885   8.708   9.781   5.480 -0.1786 -0.0733 -0.0844
  205POPC   C1A 2886   9.110   9.544   5.608 -0.0543 -0.1245  0.3083
  205POPC   D2A 2887   8.991   9.726   6.076  0.1393  0.3194 -0.1870
  205POPC   C3A 2888   9.311   9.948   6.338 -0.3353  0.1993 -0.0062
  205POPC   C4A 2889   9.565  10.382   6.534  0.0277  0.1013 -0.0493
  205POPC   C1B 2890   8.946  10.070   5.690  0.3483  0.0332  0.1186
  205POPC   C2B 2891   9.056  10.620   5.777  0.0173  0.0941 -0.1689
  205POPC   C3B 2892   9.042  10.953   6.095 -0.3466 -0.1136  0.1251
  205POPC   C4B 2893   9.223  11.378   6.239 -0.2294  0.0302 -0.3086
  206POPC   NC3 2894   2.985   1.782   4.754  0.0735 -0.1175 -0.2524
  206POPC   PO4 2895   3.385   1.654   4.874  0.1621 -0.1826  0.1708
  206POPC   GL1 2896   3.572   1.529   5.185  0.1431 -0.0928  0.3939
  206POPC   GL2 2897   3.475   1.775   5.436 -0.0262  0.0497 -0.0027
  206POPC   C1A 2898   3.516   1.253   5.537  0.1086  0.0908 -0.0494
  206POPC   D2A 2899   3.433   1.082   5.977  0.1059  0.3176 -0.0808
  206POPC   C3A 2900   3.078   1.105   6.174  0.0809  0.3644 -0.1115
  206POPC   C4A 2901   2.732   1.010   6.410  0.1275 -0.2500 -0.2458
  206POPC   C1B 2902   3.066   1.843   5.560 -0.0372  0.1474 -0.0776
  206POPC   C2B 2903   2.671   1.661   5.741  0.1608 -0.1738 -0.0489
  206POPC   C3B 2904   2.319   1.682   6.010 -0.2318 -0.3425  0.0906
  206POPC   C4B 2905   2.108   1.397   6.243 -0.1080  0.0520 -0.1177
  207POPC   NC3 2906   2.780   0.737   4.408  0.2281 -0.0042  0.4603
  207POPC   PO4 2907   3.105   0.762   4.691  0.3659  0.2013  0.1469
  207POPC   GL1 2908   3.123   0.447   4.962  0.0703 -0.0271  0.0025
  207POPC   GL2 2909   3.128   0.169   4.904  0.3148  0.0028 -0.0413
  207POPC   C1A 2910   3.266   0.316   5.399  0.2589 -0.0061 -0.0948
  207POPC   D2A 2911   3.004   0.101   5.756 -0.3089 -0.3158 -0.1937
  207POPC   C3A 2912   2.994  -0.022   6.258 -0.0719  0.0698 -0.0974
  207POPC   C4A 2913   2.954  -0.254   6.641 -0.3007 -0.1470 -0.0150
  207POPC   C1B 2914   3.283  -0.154   5.358  0.0285 -0.0264 -0.3418
  207POPC   C2B 2915   3.547  -0.319   5.730 -0.3984  0.3271  0.0782
  207POPC   C3B 2916   3.699  -0.427   6.150 -0.2602 -0.0708 -0.0909
  207POPC   C4B 2917   3.458  -0.165   6.458  0.2667  0.1101 -0.1512
  208POPC   NC3 2918   4.469   2.441   4.657  0.1499 -0.1148  0.3094
  208POPC   PO4 2919   4.425   2.925   4.734  0.2862  0.0198  0.0259
  208POPC   GL1 2920   4.539   2.673   5.049 -0.1733  0.0207 -0.0561
  208POPC   GL2 2921   4.918   2.671   5.061  0.1628 -0.0583 -0.0309
  208POPC   C1A 2922   4.575   2.663   5.516  0.1483  0.1368  0.1324
  208POPC   D2A 2923   4.590   2.921   5.831  0.4146  0.2932 -0.1188
  208POPC   C3A 2924   5.023   3.210   5.737  0.2260  0.2674 -0.2894
  208POPC   C4A 2925   5.111   3.488   5.493  0.2229 -0.1139 -0.1811
  208POPC   C1B 2926   5.172   2.691   5.477 -0.0957 -0.1860 -0.0927
  208POPC   C2B 2927   4.995   2.598   5.913  0.2888  0.0672 -0.1904
  208POPC   C3B 2928   5.188   2.451   6.326 -0.0113 -0.0881  0.2472
  208POPC   C4B 2929   5.383   2.288   6.684  0.1322  0.0057  0.0927
  209POPC   NC3 2930   2.976   6.046   2.826 -0.3495  0.0631 -0.1496
  209POPC   PO4 2931   2.944   6.083   3.260 -0.0522 -0.1949  0.2395
  209POPC   GL1 2932   2.749   6.324   3.639  0.1025 -0.0916 -0.0150
  209POPC   GL2 2933   2.997   6.403   3.887 -0.1080 -0.0329 -0.1707
  209POPC   C1A 2934   2.527   6.135   3.972 -0.0826 -0.2583  0.0240
  209POPC   D2A 2935   2.595   6.081   4.421 -0.1646  0.1457  0.1665
  209POPC   C3A 2936   2.341   6.238   4.713  0.0919 -0.0986 -0.3211
  209POPC   C4A 2937   2.327   6.611   5.001  0.0145 -0.0382  0.3359
  209POPC   C1B 2938   2.744   6.504   4.239  0.0546  0.1115  0.3736
  209POPC   C2B 2939   2.721   6.559   4.606  0.0243  0.2238 -0.0387
  209POPC   C3B 2940   2.808   6.851   4.941  0.0271 -0.2731  0.0806
  209POPC   C4B 2941   2.720   7.244   5.354  0.0680 -0.0638 -0.1042
  210POPC   NC3 2942   8.326   8.628   4.342  0.0697 -0.1478  0.0068
  210POPC   PO4 2943   8.262   8.648   4.787  0.0571 -0.0927 -0.0987
  210POPC   GL1 2944   8.298   8.757   5.186  0.3968 -0.2375 -0.0101
  210POPC   GL2 2945   7.920   8.923   5.352 -0.0071  0.2723 -0.1565
  210POPC   C1A 2946   8.313   8.866   5.620 -0.0966 -0.1315 -0.1608
  210POPC   D2A 2947   8.298   8.919   6.104 -0.3910 -0.0178  0.0089
  210POPC   C3A 2948   8.639   8.687   6.372  0.1922  0.1720  0.2179
  210POPC   C4A 2949   8.939   8.571   6.630  0.1180 -0.1137 -0.0424
  210POPC   C1B 2950   7.998   8.517   5.539 -0.0025 -0.2350  0.1501
  210POPC   C2B 2951   7.980   8.516   5.963  0.0962 -0.0249  0.1031
  210POPC   C3B 2952   8.200   8.390   6.370 -0.0940  0.0233 -0.3367
  210POPC   C4B 2953   8.506   8.098   6.313  0.3849  0.1946 -0.0323
  211POPC   NC3 2954   4.544   8.312   4.672  0.1576  0.0772  0.0413
  211POPC   PO4 2955   4.922   8.456   4.888  0.0020  0.1426  0.0684
  211POPC   GL1 2956   4.716   8.716   5.104 -0.1254 -0.1676 -0.3177
  211POPC   GL2 2957   4.809   8.936   5.280 -0.0376  0.0368 -0.0768
  211POPC   C1A 2958   4.351   8.742   5.445  0.2796 -0.0439 -0.0738
  211POPC   D2A 2959   4.008   8.657   5.715 -0.1422  0.2043 -0.0508
  211POPC   C3A 2960   3.558   8.571   5.840  0.1276  0.1490  0.4851
  211POPC   C4A 2961   3.359   8.644   6.255 -0.0058 -0.1449 -0.0999
  211POPC   C1B 2962   5.020   9.011   5.624  0.3574 -0.0051  0.2534
  211POPC   C2B 2963   5.229   9.069   5.985 -0.0823  0.3171  0.1386
  211POPC   C3B 2964   5.209   9.022   6.458 -0.0145  0.0278  0.1793
  211POPC   C4B 2965   5.128   8.989   6.959 -0.2353  0.0753  0.0428
  212POPC   NC3 2966   4.359   6.589   4.068 -0.0031  0.3972 -0.1390
  212POPC   PO4 2967   4.698   6.578   4.425 -0.1884 -0.1403  0.4220
  212POPC   GL1 2968   4.526   6.703   4.795  0.0842  0.2648  0.0634
  212POPC   GL2 2969   4.322   6.896   4.763 -0.0684 -0.2047  0.1840
  212POPC   C1A 2970   4.450   6.372   5.090  0.0754 -0.0928  0.0777
  212POPC   D2A 2971   4.292   6.540   5.496 -0.0279 -0.1790  0.2956
  212POPC   C3A 2972   4.551   6.625   5.830 -0.4320 -0.0318 -0.2281
  212POPC   C4A 2973   4.499   6.468   6.226 -0.1042 -0.0387  0.2479
  212POPC   C1B 2974   4.320   6.988   5.125 -0.2664  0.2086 -0.2262
  212POPC   C2B 2975   4.660   6.839   5.376  0.1583  0.3324 -0.0999
  212POPC   C3B 2976   5.046   7.089   5.461  0.0564  0.0052 -0.2372
  212POPC   C4B 2977   5.279   7.238   5.812 -0.1229  0.0365 -0.1493
  213POPC   NC3 2978   5.362   4.996   4.836  0.1180  0.0414 -0.1361
  213POPC   PO4 2979   5.427   4.594   4.758 -0.2143 -0.2918  0.0406
  213POPC   GL1 2980   5.601   4.596   5.122 -0.0698  0.3308  0.1857
  213POPC   GL2 2981   5.800   4.266   5.104  0.2894 -0.0781 -0.0361
  213POPC   C1A 2982   5.545   4.748   5.678 -0.1015  0.1013 -0.2656
  213POPC   D2A 2983   5.612   5.012   5.957  0.2693 -0.0963  0.0516
  213POPC   C3A 2984   5.930   5.044   6.244 -0.1226 -0.2033  0.2568
  213POPC   C4A 2985   6.276   5.089   6.264  0.1521  0.0739  0.1883
  213POPC   C1B 2986   5.559   4.196   5.473 -0.3257 -0.0337  0.1270
  213POPC   C2B 2987   5.622   4.078   5.853  0.2817 -0.1749  0.0322
  213POPC   C3B 2988   5.642   3.682   6.232 -0.1160 -0.1299  0.2449
  213POPC   C4B 2989   5.919   3.484   6.415 -0.1214 -0.1538  0.0502
  214POPC   NC3 2990   0.166   9.604   4.326  0.4080 -0.0000 -0.2827
  214POPC   PO4 2991  -0.181   9.706   4.723 -0.2968  0.0129  0.3285
  214POPC   GL1 2992  -0.080   9.261   4.715 -0.0691  0.0244 -0.2805
  214POPC   GL2 2993  -0.073   9.219   4.941  0.1728 -0.0616 -0.0462
  214POPC   C1A 2994   0.243   8.873   4.846 -0.0596  0.3556  0.0919
  214POPC   D2A 2995   0.637   8.708   4.997 -0.0057 -0.4873  0.1362
  214POPC   C3A 2996   0.980   8.700   5.252 -0.2231 -0.1234 -0.1542
  214POPC   C4A 2997   1.224   8.685   5.552 -0.0086 -0.0766 -0.0771
  214POPC   C1B 2998  -0.061   8.910   5.305  0.0485  0.0767  0.0323
  214POPC   C2B 2999  -0.053   8.659   5.684  0.2251 -0.1109  0.0265
  214POPC   C3B 3000   0.430   8.552   5.970  0.1423  0.0298 -0.0526
  214POPC   C4B 3001   0.421   8.439   6.386  0.1614  0.1068 -0.0276
  215POPC   NC3 3002   9.463   7.686   3.292 -0.0102  0.1709 -0.0302
  215POPC   PO4 3003   9.061   7.628   3.621 -0.0829  0.0133 -0.1541
  215POPC   GL1 3004   9.398   7.594   3.851  0.1259 -0.1211  0.2047
  215POPC   GL2 3005   9.358   7.743   4.185  0.2663 -0.1798 -0.2236
  215POPC   C1A 3006   9.539   7.264   4.079 -0.0709  0.0692 -0.0034
  215POPC   D2A 3007   9.872   7.211   4.298  0.4249  0.1568  0.1394
  215POPC   C3A 3008  10.231   7.509   4.375 -0.0499  0.2047  0.0340
  215POPC   C4A 3009  10.534   7.398   4.639 -0.3839 -0.0339 -0.0768
  215POPC   C1B 3010   9.741   7.665   4.464  0.1106  0.1646 -0.0951
  215POPC   C2B 3011   9.997   7.605   4.808 -0.0868 -0.1182 -0.0915
  215POPC   C3B 3012  10.408   7.791   4.926  0.0702  0.0801 -0.0561
  215POPC   C4B 3013  10.440   7.812   5.398 -0.2675  0.1963  0.1951
  216POPC   NC3 3014   6.622   5.824   4.600 -0.1821 -0.2170  0.2536
  216POPC   PO4 3015   6.956   6.075   4.851  0.1109  0.1714 -0.1621
  216POPC   GL1 3016   6.966   5.950   5.206  0.1561 -0.2105  0.1275
  216POPC   GL2 3017   6.702   5.760   5.224  0.3328 -0.1937 -0.0762
  216POPC   C1A 3018   7.273   6.024   5.459  0.0516 -0.0187  0.1840
  216POPC   D2A 3019   7.467   5.986   5.994  0.1777  0.0520  0.1038
  216POPC   C3A 3020   7.879   5.789   6.136 -0.2270  0.1351  0.1227
  216POPC   C4A 3021   8.226   5.824   6.388 -0.0193  0.1381 -0.1898
  216POPC   C1B 3022   6.904   5.682   5.637 -0.4393  0.2795  0.0763
  216POPC   C2B 3023   7.249   5.514   6.021 -0.0443  0.1529  0.2355
  216POPC   C3B 3024   7.653   5.359   6.151  0.2038 -0.0433  0.0983
  216POPC   C4B 3025   7.969   5.331   6.498 -0.0118  0.3350  0.2479
  217POPC   NC3 3026   2.985   9.476   4.499  0.0721  0.1493 -0.1763
  217POPC   PO4 3027   2.704   9.858   4.573 -0.0345 -0.0752 -0.1264
  217POPC   GL1 3028   2.823   9.647   4.936 -0.0362  0.0515 -0.2540
  217POPC   GL2 3029   2.463   9.593   5.016  0.0583 -0.0595  0.2202
  217POPC   C1A 3030   2.947   9.289   5.214 -0.1763  0.1958 -0.1384
  217POPC   D2A 3031   3.160   9.314   5.556  0.0947  0.0541  0.0989
  217POPC   C3A 3032   3.066   9.448   5.876  0.4608 -0.3071 -0.2499
  217POPC   C4A 3033   2.740   9.491   6.188  0.2205 -0.0420  0.1836
  217POPC   C1B 3034   2.183   9.630   5.334  0.0749  0.1292  0.0869
  217POPC   C2B 3035   1.818   9.501   5.598  0.0696 -0.1569 -0.1524
  217POPC   C3B 3036   1.763   9.362   5.999 -0.2480  0.0060  0.1241
  217POPC   C4B 3037   1.591   9.312   6.446 -0.0171 -0.0430 -0.0294
  218POPC   NC3 3038   7.029   7.675   4.452  0.1226  0.0911 -0.0102
  218POPC   PO4 3039   7.071   7.893   4.749 -0.1403 -0.1269  0.1069
  218POPC   GL1 3040   7.047   7.647   5.074  0.2627  0.0095 -0.1161
  218POPC   GL2 3041   7.305   7.750   5.193 -0.0952 -0.0058  0.1439
  218POPC   C1A 3042   6.917   7.458   5.537  0.0571  0.0420 -0.1421
  218POPC   D2A 3043   6.772   7.185   5.829  0.3001  0.1527 -0.1062
  218POPC   C3A 3044   7.103   7.111   6.117 -0.0114 -0.0807  0.2927
  218POPC   C4A 3045   7.473   6.976   6.427 -0.0189 -0.0061 -0.1892
  218POPC   C1B 3046   7.146   7.867   5.621 -0.1783 -0.3131 -0.1488
  218POPC   C2B 3047   6.971   7.651   6.051  0.4379  0.1121 -0.4330
  218POPC   C3B 3048   6.717   7.337   6.316  0.2711 -0.3222 -0.1124
  218POPC   C4B 3049   6.484   7.090   6.564  0.1671  0.0634  0.1069
  219POPC   NC3 3050   0.897   3.385   3.638 -0.4077 -0.0317 -0.0535
  219POPC   PO4 3051   0.544   3.209   3.888  0.1626 -0.2455 -0.5193
  219POPC   GL1 3052   0.385   3.320   4.328  0.0317  0.1668 -0.1138
  219POPC   GL2 3053   0.477   3.704   4.425  0.1243  0.2096  0.3981
  219POPC   C1A 3054   0.410   3.296   4.788 -0.0549  0.2912 -0.0194
  219POPC   D2A 3055   0.749   3.277   5.003  0.2483 -0.2326  0.2906
  219POPC   C3A 3056   0.741   3.395   5.435 -0.0995  0.2227  0.0196
  219POPC   C4A 3057   1.048   3.315   5.616  0.0886  0.2212 -0.0622
  219POPC   C1B 3058   0.639   3.892   4.869 -0.0850 -0.0489  0.3093
  219POPC   C2B 3059   0.824   3.888   5.297 -0.1026  0.2225  0.1069
  219POPC   C3B 3060   0.703   3.830   5.719 -0.5544 -0.0386 -0.1905
  219POPC   C4B 3061   0.638   3.697   6.185  0.2432 -0.1261  0.1026
  220POPC   NC3 3062   5.963   2.466   4.547  0.0198 -0.2136 -0.0210
  220POPC   PO4 3063   5.504   2.499   4.443 -0.1060 -0.2963 -0.0842
  220POPC   GL1 3064   5.567   2.354   4.807  0.0420  0.2511 -0.2942
  220POPC   GL2 3065   5.839   2.046   4.914 -0.1042 -0.2814  0.1104
  220POPC   C1A 3066   5.624   2.342   5.231  0.2000 -0.1521  0.0766
  220POPC   D2A 3067   5.696   1.967   5.600 -0.3283  0.0143 -0.1223
  220POPC   C3A 3068   5.519   1.875   5.955  0.1699  0.2154  0.2872
  220POPC   C4A 3069   5.203   1.972   6.311  0.1630 -0.1261  0.2331
  220POPC   C1B 3070   5.814   1.642   5.220  0.2648  0.0414  0.0192
  220POPC   C2B 3071   5.983   1.547   5.668  0.1748  0.1413 -0.2277
  220POPC   C3B 3072   6.003   1.497   6.089  0.2216 -0.0746 -0.1632
  220POPC   C4B 3073   6.202   1.458   6.409 -0.0573  0.3006  0.1677
  221POPC   NC3 3074   0.710   6.897   2.158 -0.3131  0.1116  0.1093
  221POPC   PO4 3075   0.957   7.024   2.572  0.0937 -0.0486  0.0489
  221POPC   GL1 3076   0.765   7.060   3.011  0.1294  0.2213  0.3700
  221POPC   GL2 3077   0.451   6.926   3.081  0.0780  0.1165 -0.1126
  221POPC   C1A 3078   0.731   6.878   3.476 -0.1221 -0.0704 -0.1237
  221POPC   D2A 3079   0.844   6.602   3.830 -0.3976 -0.1113 -0.0497
  221POPC   C3A 3080   0.599   6.224   4.028 -0.1978 -0.4134 -0.0877
  221POPC   C4A 3081   0.727   5.767   3.997 -0.0686  0.0628 -0.0312
  221POPC   C1B 3082   0.273   6.692   3.509  0.1748  0.4126  0.2246
  221POPC   C2B 3083   0.263   6.594   3.913 -0.0745  0.3442 -0.4634
  221POPC   C3B 3084   0.281   6.601   4.260  0.1477  0.1032  0.0624
  221POPC   C4B 3085   0.549   6.421   4.592  0.5330 -0.3366 -0.2083
  222POPC   NC3 3086   3.839   6.034   3.642  0.0519 -0.1926  0.2543
  222POPC   PO4 3087   3.979   6.302   4.019 -0.0721  0.0440  0.0440
  222POPC   GL1 3088   3.784   6.447   4.389 -0.1034 -0.0958  0.1263
  222POPC   GL2 3089   3.993   6.572   4.598 -0.1959  0.1285  0.0443
  222POPC   C1A 3090   3.627   6.371   4.842 -0.1074  0.2374  0.0700
  222POPC   D2A 3091   3.517   6.251   5.294 -0.0569  0.0308  0.1091
  222POPC   C3A 3092   3.685   5.879   5.479 -0.0313  0.1349  0.0748
  222POPC   C4A 3093   3.680   5.766   5.818 -0.0089  0.0973  0.1352
  222POPC   C1B 3094   3.949   6.658   5.037 -0.2935  0.1793  0.2439
  222POPC   C2B 3095   3.892   6.903   5.379  0.1634  0.1195 -0.0565
  222POPC   C3B 3096   3.561   7.102   5.613  0.0865  0.2191 -0.0778
  222POPC   C4B 3097   3.175   6.868   6.074  0.1805  0.0226 -0.1042
  223POPC   NC3 3098   7.554   7.717   4.695 -0.3374 -0.1649 -0.1689
  223POPC   PO4 3099   7.314   7.412   4.730 -0.1533 -0.1526 -0.1344
  223POPC   GL1 3100   7.619   7.326   5.092 -0.1029 -0.2763  0.0474
  223POPC   GL2 3101   7.370   7.019   5.057 -0.1055  0.1601  0.1605
  223POPC   C1A 3102   7.708   7.365   5.503  0.2231  0.0799 -0.1001
  223POPC   D2A 3103   7.429   7.460   5.809 -0.0107  0.1447  0.2165
  223POPC   C3A 3104   7.445   7.509   6.239  0.3107 -0.1488  0.4116
  223POPC   C4A 3105   7.327   7.824   6.480 -0.0553  0.2381  0.0998
  223POPC   C1B 3106   7.605   6.794   5.385 -0.1070 -0.1443 -0.0939
  223POPC   C2B 3107   8.010   6.590   5.653 -0.4652 -0.1118  0.1012
  223POPC   C3B 3108   8.369   6.690   5.973 -0.0992  0.0903  0.0050
  223POPC   C4B 3109   8.411   6.352   6.213  0.0310 -0.0256 -0.3479
  224POPC   NC3 3110   6.007   4.173   4.633 -0.2695  0.1112 -0.0553
  224POPC   PO4 3111   6.384   3.986   4.628  0.1380 -0.0495 -0.1304
  224POPC   GL1 3112   6.519   3.919   5.135  0.2354 -0.3448 -0.3916
  224POPC   GL2 3113   6.159   3.980   5.323  0.1912 -0.0856 -0.0435
  224POPC   C1A 3114   6.636   3.998   5.537 -0.1871 -0.0896 -0.1487
  224POPC   D2A 3115   6.785   4.037   6.021 -0.0458 -0.3511 -0.1828
  224POPC   C3A 3116   6.818   3.721   6.339  0.0771  0.1005 -0.0130
  224POPC   C4A 3117   6.935   3.620   6.787  0.0805 -0.0642  0.0441
  224POPC   C1B 3118   6.113   4.210   5.667 -0.2386  0.1231 -0.2167
  224POPC   C2B 3119   6.335   4.361   6.092  0.0868  0.3521  0.0443
  224POPC   C3B 3120   6.144   4.503   6.505 -0.1716  0.0870 -0.1070
  224POPC   C4B 3121   5.758   4.383   6.765 -0.1878 -0.2616  0.2796
  225POPC   NC3 3122   8.825   1.842   4.873  0.2482  0.2936 -0.1078
  225POPC   PO4 3123   8.964   1.399   4.723 -0.0591  0.2172 -0.3340
  225POPC   GL1 3124   9.067   1.378   5.178 -0.1342  0.0919  0.2234
  225POPC   GL2 3125   9.133   1.673   5.255  0.0959 -0.0029  0.0145
  225POPC   C1A 3126   8.926   1.401   5.669 -0.1023 -0.1078 -0.1118
  225POPC   D2A 3127   8.730   1.563   5.979 -0.2853 -0.2465  0.2308
  225POPC   C3A 3128   8.529   1.914   6.022  0.1462 -0.2117  0.1435
  225POPC   C4A 3129   8.355   2.076   5.675 -0.1014  0.0749  0.2685
  225POPC   C1B 3130   9.079   1.951   5.612 -0.2720 -0.0721 -0.1281
  225POPC   C2B 3131   9.065   2.140   5.991 -0.1617  0.0587  0.1373
  225POPC   C3B 3132   8.737   2.337   6.238 -0.1372 -0.1824  0.0882
  225POPC   C4B 3133   8.468   2.565   6.546  0.0717 -0.1641  0.1877
  226POPC   NC3 3134   5.094   2.813   4.659  0.0105 -0.0432  0.1412
  226POPC   PO4 3135   4.911   3.176   4.653  0.1404 -0.4097  0.2453
  226POPC   GL1 3136   4.831   3.236   5.028  0.0785  0.0354  0.1356
  226POPC   GL2 3137   4.717   3.641   5.134 -0.0512  0.1181 -0.2623
  226POPC   C1A 3138   4.631   3.247   5.429  0.3444 -0.1351 -0.4127
  226POPC   D2A 3139   4.501   3.393   5.869 -0.1979 -0.0721  0.4135
  226POPC   C3A 3140   4.666   3.349   6.283  0.0057  0.0919  0.2773
  226POPC   C4A 3141   5.035   2.958   6.296  0.4505 -0.0002  0.1064
  226POPC   C1B 3142   4.635   3.767   5.529 -0.1955  0.3021  0.0594
  226POPC   C2B 3143   4.291   3.913   5.834 -0.2011 -0.3908  0.0288
  226POPC   C3B 3144   4.042   3.594   6.079  0.1204  0.1691  0.3310
  226POPC   C4B 3145   4.130   3.362   6.415 -0.1878  0.0047 -0.2176
  227POPC   NC3 3146   1.604   1.614   4.451  0.1644 -0.0990  0.3067
  227POPC   PO4 3147   1.187   1.596   4.463 -0.0907 -0.2328 -0.0514
  227POPC   GL1 3148   1.112   1.485   4.959 -0.0130 -0.0473 -0.1309
  227POPC   GL2 3149   1.144   1.790   5.295 -0.0560  0.3577  0.0117
  227POPC   C1A 3150   1.034   1.262   5.419  0.1147  0.2435 -0.3183
  227POPC   D2A 3151   0.759   1.008   5.698  0.0976 -0.0821  0.2137
  227POPC   C3A 3152   1.035   0.733   5.996 -0.0348 -0.2987 -0.0613
  227POPC   C4A 3153   1.060   0.769   6.446  0.0974 -0.1695 -0.2041
  227POPC   C1B 3154   1.024   1.790   5.741  0.5052  0.2135 -0.0635
  227POPC   C2B 3155   1.068   1.897   6.236  0.0233  0.2000 -0.1564
  227POPC   C3B 3156   1.297   2.097   6.558  0.0128 -0.4110 -0.2056
  227POPC   C4B 3157   1.515   2.110   6.943  0.1121  0.4579  0.0653
  228POPC   NC3 3158   4.217   0.573   4.148 -0.1147 -0.2718 -0.2557
  228POPC   PO4 3159   4.433   0.217   4.392  0.0758  0.2401  0.0055
  228POPC   GL1 3160   4.386   0.243   4.873 -0.1035  0.3306 -0.1659
  228POPC   GL2 3161   4.723   0.442   4.886 -0.0401  0.1193 -0.4555
  228POPC   C1A 3162   4.210   0.444   5.109  0.1290 -0.2108  0.4512
  228POPC   D2A 3163   4.193   0.732   5.416  0.1552 -0.0935 -0.1617
  228POPC   C3A 3164   4.470   0.954   5.712 -0.0029  0.3008  0.0386
  228POPC   C4A 3165   4.638   0.826   6.138  0.1079 -0.0421 -0.1116
  228POPC   C1B 3166   4.710   0.549   5.309  0.0099 -0.0311 -0.1072
  228POPC   C2B 3167   4.916   0.602   5.751  0.2522 -0.1733  0.0037
  228POPC   C3B 3168   5.032   0.501   6.195 -0.0938  0.1038 -0.1607
  228POPC   C4B 3169   5.221   0.228   6.526  0.2926 -0.2227 -0.0843
  229POPC   NC3 3170   3.834   3.295   4.415  0.1504 -0.1058 -0.2565
  229POPC   PO4 3171   3.782   3.747   4.402  0.0829 -0.0045 -0.0081
  229POPC   GL1 3172   3.654   3.558   4.861  0.2159 -0.1500 -0.0360
  229POPC   GL2 3173   3.814   3.289   4.941  0.1964 -0.2223 -0.0311
  229POPC   C1A 3174   3.685   3.717   5.297  0.1063  0.3549  0.2618
  229POPC   D2A 3175   4.083   3.528   5.436  0.0868 -0.3393 -0.0227
  229POPC   C3A 3176   4.131   3.151   5.678  0.1348 -0.0305  0.0508
  229POPC   C4A 3177   3.682   2.907   5.888  0.0905 -0.0986 -0.0774
  229POPC   C1B 3178   3.713   3.211   5.309  0.1986 -0.0516 -0.2771
  229POPC   C2B 3179   3.596   3.480   5.791  0.0042  0.1821  0.2045
  229POPC   C3B 3180   3.578   3.836   6.117 -0.2221 -0.1257 -0.0697
  229POPC   C4B 3181   3.169   3.969   6.386  0.0296  0.1826  0.3764
  230POPC   NC3 3182   8.984   8.066   4.008  0.0827  0.0125 -0.2376
  230POPC   PO4 3183   8.455   8.097   4.103  0.0470 -0.2648 -0.4188
  230POPC   GL1 3184   8.718   8.293   4.480  0.0974 -0.0460 -0.1003
  230POPC   GL2 3185   8.771   8.619   4.604  0.3138  0.1865  0.0143
  230POPC   C1A 3186   8.734   8.349   5.001 -0.3309  0.0068 -0.1076
  230POPC   D2A 3187   8.571   8.282   5.326  0.0725 -0.2664  0.0398
  230POPC   C3A 3188   8.813   8.183   5.612 -0.0893 -0.1745  0.2368
  230POPC   C4A 3189   9.063   7.860   5.697  0.0154  0.1043  0.2229
  230POPC   C1B 3190   9.163   8.338   4.727 -0.0972  0.2147 -0.0436
  230POPC   C2B 3191   9.359   7.885   4.737  0.0218  0.1390  0.1160
  230POPC   C3B 3192   9.539   7.666   5.079  0.0936 -0.0879 -0.0523
  230POPC   C4B 3193   9.574   7.741   5.496 -0.0789  0.2966  0.5254
  231POPC   NC3 3194   6.713   4.874   4.488  0.2945  0.0343 -0.2260
  231POPC   PO4 3195   6.702   5.300   4.437 -0.0859 -0.1480 -0.0978
  231POPC   GL1 3196   6.756   5.278   4.904  0.0574 -0.0180 -0.0358
  231POPC   GL2 3197   6.880   4.847   5.057 -0.2763 -0.0489  0.0258
  231POPC   C1A 3198   6.891   5.304   5.279  0.2912 -0.0538  0.0311
  231POPC   D2A 3199   7.205   5.062   5.422  0.1303  0.0355  0.1193
  231POPC   C3A 3200   7.411   5.125   5.742 -0.3758 -0.0286 -0.0128
  231POPC   C4A 3201   7.730   4.845   5.910  0.0676  0.0767 -0.2043
  231POPC   C1B 3202   6.664   4.890   5.479  0.2962  0.0801 -0.3491
  231POPC   C2B 3203   6.502   4.705   5.802  0.2118 -0.0276 -0.1744
  231POPC   C3B 3204   6.688   4.793   6.178 -0.0843 -0.0695  0.0727
  231POPC   C4B 3205   6.934   5.066   6.307  0.0765  0.0444 -0.0833
  232POPC   NC3 3206   8.535   9.100   4.855 -0.3515 -0.0434  0.1032
  232POPC   PO4 3207   8.912   9.307   5.028  0.1789  0.0268  0.1860
  232POPC   GL1 3208   9.249   9.134   5.240 -0.2510 -0.0396 -0.0517
  232POPC   GL2 3209   9.497   9.404   5.289  0.4053 -0.0720  0.2081
  232POPC   C1A 3210   9.337   9.026   5.569  0.0693  0.2229 -0.1495
  232POPC   D2A 3211   9.327   8.713   5.944  0.1273 -0.0200 -0.0680
  232POPC   C3A 3212   9.204   8.858   6.351 -0.0625 -0.0076  0.2725
  232POPC   C4A 3213   9.217   9.382   6.452 -0.1422  0.1305 -0.3056
  232POPC   C1B 3214   9.797   9.289   5.628 -0.0947 -0.0601 -0.3200
  232POPC   C2B 3215  10.144   9.086   5.941 -0.2079 -0.0151 -0.0052
  232POPC   C3B 3216  10.121   8.881   6.462  0.0578  0.2415  0.2768
  232POPC   C4B 3217  10.297   8.727   6.793  0.1457 -0.2148 -0.1389
  233POPC   NC3 3218   0.076   8.017   3.256 -0.0823 -0.1458 -0.0543
  233POPC   PO4 3219   0.003   7.470   3.217  0.1002 -0.0517 -0.1551
  233POPC   GL1 3220   0.043   7.699   3.689  0.0510 -0.0400 -0.0366
  233POPC   GL2 3221   0.068   7.455   3.913 -0.2484  0.0879 -0.0430
  233POPC   C1A 3222  -0.013   7.925   4.059  0.1903 -0.3424  0.2628
  233POPC   D2A 3223  -0.243   8.215   4.471 -0.1420  0.1335 -0.0652
  233POPC   C3A 3224  -0.144   8.116   4.904  0.0010  0.0512  0.1206
  233POPC   C4A 3225   0.075   7.922   5.227  0.2277  0.1182 -0.3979
  233POPC   C1B 3226   0.468   7.600   3.925  0.1177  0.1231  0.0477
  233POPC   C2B 3227   0.860   7.429   4.205 -0.2146 -0.0558 -0.2845
  233POPC   C3B 3228   1.001   7.010   4.202  0.0787 -0.1324  0.0488
  233POPC   C4B 3229   0.845   6.658   4.281 -0.3618  0.0735 -0.1127
  234POPC   NC3 3230   0.894   3.333   4.395  0.2484  0.1796 -0.0431
  234POPC   PO4 3231   1.173   3.608   4.179 -0.1588  0.0921 -0.2155
  234POPC   GL1 3232   1.105   3.832   4.665  0.1861 -0.1525  0.3330
  234POPC   GL2 3233   1.157   3.604   4.918 -0.3125 -0.3681 -0.0532
  234POPC   C1A 3234   1.032   4.229   4.934  0.0812  0.3604 -0.1671
  234POPC   D2A 3235   1.003   4.487   5.258 -0.2680  0.0154 -0.3002
  234POPC   C3A 3236   1.115   4.179   5.593  0.1777 -0.1980  0.1253
  234POPC   C4A 3237   1.015   4.147   6.028  0.0437 -0.0734  0.1035
  234POPC   C1B 3238   1.359   3.869   5.177  0.1308  0.0261  0.1128
  234POPC   C2B 3239   1.430   3.799   5.570  0.3368 -0.0681 -0.1228
  234POPC   C3B 3240   1.144   3.678   6.019 -0.0277  0.0829 -0.2133
  234POPC   C4B 3241   1.048   3.478   6.332 -0.0351  0.1135 -0.0888
  235POPC   NC3 3242   6.390   8.165   5.070 -0.0365  0.2278 -0.1849
  235POPC   PO4 3243   5.862   8.201   5.085  0.0357  0.0491 -0.2987
  235POPC   GL1 3244   5.736   8.096   5.542 -0.2060 -0.1116 -0.0816
  235POPC   GL2 3245   5.394   8.096   5.492 -0.1129  0.0499 -0.0490
  235POPC   C1A 3246   5.605   7.904   5.940  0.1565  0.0152  0.1785
  235POPC   D2A 3247   5.501   7.558   6.220 -0.2136 -0.0791  0.1817
  235POPC   C3A 3248   5.222   7.582   6.626  0.2320  0.0495 -0.0515
  235POPC   C4A 3249   4.873   7.282   6.832 -0.0569 -0.2559 -0.0727
  235POPC   C1B 3250   5.163   8.180   5.866  0.0661  0.0287  0.0717
  235POPC   C2B 3251   4.944   8.614   6.061 -0.0673 -0.1326 -0.1980
  235POPC   C3B 3252   4.762   9.006   6.231  0.1949  0.1346  0.0119
  235POPC   C4B 3253   4.826   9.345   6.526 -0.1721  0.0505 -0.1912
  236POPC   NC3 3254   5.018   6.395   4.786 -0.1690 -0.4460 -0.0351
  236POPC   PO4 3255   5.464   6.360   4.970  0.0344  0.3273 -0.3622
  236POPC   GL1 3256   5.382   6.177   5.292  0.2078 -0.0070 -0.0287
  236POPC   GL2 3257   5.332   5.816   5.364 -0.0716 -0.1135  0.0158
  236POPC   C1A 3258   5.468   6.202   5.708 -0.0061 -0.0945 -0.1734
  236POPC   D2A 3259   5.409   5.829   5.838  0.2058 -0.0879 -0.0606
  236POPC   C3A 3260   5.605   5.563   6.123 -0.2438 -0.0908 -0.0884
  236POPC   C4A 3261   5.441   5.218   6.400 -0.0321 -0.0039  0.0369
  236POPC   C1B 3262   4.967   5.653   5.553  0.0659  0.3529 -0.2696
  236POPC   C2B 3263   4.706   5.569   5.896 -0.0274 -0.0251 -0.2143
  236POPC   C3B 3264   4.486   5.842   6.106 -0.0750 -0.3940 -0.0522
  236POPC   C4B 3265   4.235   5.928   6.399  0.1611  0.1310 -0.1457
  237POPC   NC3 3266   8.468   1.442   4.946 -0.3083 -0.1059 -0.0020
  237POPC   PO4 3267   8.155   1.714   4.875  0.2131 -0.0915 -0.2651
  237POPC   GL1 3268   8.165   1.768   5.261  0.1862  0.1905 -0.0386
  237POPC   GL2 3269   7.853   1.771   5.459 -0.0285 -0.0771 -0.1327
  237POPC   C1A 3270   8.257   1.505   5.754 -0.1823  0.0689 -0.1318
  237POPC   D2A 3271   8.228   1.376   6.205  0.0436  0.0521  0.0725
  237POPC   C3A 3272   7.942   1.612   6.573  0.1529  0.0689  0.2741
  237POPC   C4A 3273   7.709   1.618   7.058 -0.0623  0.2231 -0.2829
  237POPC   C1B 3274   7.778   1.467   5.829 -0.1424 -0.1308 -0.0256
  237POPC   C2B 3275   7.574   1.458   6.188  0.1494 -0.0400  0.3614
  237POPC   C3B 3276   7.479   1.803   6.454  0.4763  0.0026 -0.1788
  237POPC   C4B 3277   7.373   2.234   6.639 -0.0665  0.2181 -0.0828
  238POPC   NC3 3278   3.455   2.836   4.470  0.1081  0.0331  0.3187
  238POPC   PO4 3279   3.478   2.529   4.678 -0.1268  0.0204 -0.1664
  238POPC   GL1 3280   3.578   2.507   5.112  0.3093  0.1855 -0.0227
  238POPC   GL2 3281   3.814   2.772   5.220 -0.1272 -0.0619 -0.1591
  238POPC   C1A 3282   3.679   2.314   5.544  0.1722 -0.0421 -0.0557
  238POPC   D2A 3283   3.602   2.051   5.897  0.0475  0.1742 -0.4497
  238POPC   C3A 3284   3.140   2.025   6.015 -0.2338  0.0112  0.0078
  238POPC   C4A 3285   2.700   2.209   5.856  0.0467  0.0659  0.3503
  238POPC   C1B 3286   3.374   2.872   5.471 -0.2171  0.0675 -0.1449
  238POPC   C2B 3287   3.182   3.058   5.785 -0.2837  0.1497 -0.0094
  238POPC   C3B 3288   3.199   3.429   6.071  0.0190  0.2887  0.3593
  238POPC   C4B 3289   2.780   3.638   6.272  0.0015  0.2251  0.0527
  239POPC   NC3 3290   2.448   1.068   4.614 -0.3580 -0.1517 -0.1198
  239POPC   PO4 3291   2.117   1.407   4.658  0.0823  0.2788 -0.1555
  239POPC   GL1 3292   2.040   1.421   5.078 -0.3650 -0.0000  0.1904
  239POPC   GL2 3293   2.246   1.114   5.083 -0.0596 -0.1791 -0.1467
  239POPC   C1A 3294   2.365   1.488   5.361  0.0322  0.1801 -0.0208
  239POPC   D2A 3295   2.672   1.143   5.470 -0.1624  0.1587 -0.0466
  239POPC   C3A 3296   3.001   1.300   5.644 -0.2543  0.3748 -0.0378
  239POPC   C4A 3297   3.309   1.579   5.934  0.2904 -0.0338 -0.3150
  239POPC   C1B 3298   1.894   1.003   5.365  0.2552 -0.1282 -0.1605
  239POPC   C2B 3299   1.799   0.851   5.720 -0.2779  0.2586 -0.0801
  239POPC   C3B 3300   1.839   0.463   5.996 -0.2199  0.1308 -0.1262
  239POPC   C4B 3301   1.882   0.273   6.449 -0.0518  0.1260 -0.1219
  240POPC   NC3 3302   1.184   3.946   3.082 -0.3252 -0.1692  0.1546
  240POPC   PO4 3303   1.380   4.280   3.256  0.1113  0.1175  0.3856
  240POPC   GL1 3304   1.359   4.550   3.530  0.0746  0.0846  0.1390
  240POPC   GL2 3305   1.451   4.770   3.558  0.0063  0.0802 -0.2487
  240POPC   C1A 3306   1.006   4.617   3.884 -0.3954 -0.3366  0.0816
  240POPC   D2A 3307   0.684   4.490   4.065  0.2247  0.0968 -0.0091
  240POPC   C3A 3308   0.237   4.589   3.924  0.1412 -0.3052 -0.1973
  240POPC   C4A 3309  -0.127   4.414   3.987  0.2263 -0.2967  0.0076
  240POPC   C1B 3310   1.101   5.080   3.568  0.0698  0.0848  0.0045
  240POPC   C2B 3311   0.738   5.407   3.612  0.3283 -0.4463 -0.3133
  240POPC   C3B 3312   0.557   5.839   3.567  0.1368 -0.0204 -0.3397
  240POPC   C4B 3313   0.637   6.249   3.556 -0.2087  0.0886  0.1048
  241POPC   NC3 3314   6.804   0.991   4.320 -0.0468  0.0085 -0.1659
  241POPC   PO4 3315   6.936   0.621   4.499  0.2500  0.0769 -0.1852
  241POPC   GL1 3316   7.010   0.532   4.988 -0.3021 -0.2857 -0.4110
  241POPC   GL2 3317   7.164   0.250   5.121  0.0069  0.0588  0.1284
  241POPC   C1A 3318   6.987   0.746   5.364 -0.0102 -0.2855 -0.1763
  241POPC   D2A 3319   7.110   0.876   5.778 -0.1703 -0.5246 -0.1567
  241POPC   C3A 3320   7.390   0.984   6.175 -0.0211  0.3072 -0.3071
  241POPC   C4A 3321   7.580   0.609   6.426 -0.0339 -0.2521  0.1414
  241POPC   C1B 3322   7.251  -0.118   5.486  0.1416 -0.2500  0.4247
  241POPC   C2B 3323   7.269  -0.406   5.860 -0.0247 -0.0379  0.0572
  241POPC   C3B 3324   7.454  -0.645   6.197 -0.4024 -0.1486 -0.0774
  241POPC   C4B 3325   7.706  -1.079   6.360 -0.1915  0.0398  0.1773
  242POPC   NC3 3326   3.219   5.993   3.634  0.3183 -0.0557  0.1489
  242POPC   PO4 3327   3.435   5.730   4.009  0.0033 -0.1503  0.0117
  242POPC   GL1 3328   3.460   5.573   4.478 -0.1727 -0.1339  0.2516
  242POPC   GL2 3329   3.755   5.530   4.694  0.3982  0.2291  0.1475
  242POPC   C1A 3330   3.175   5.461   4.873  0.3045  0.0930 -0.1437
  242POPC   D2A 3331   2.997   5.188   5.189 -0.0975  0.1217 -0.0358
  242POPC   C3A 3332   3.006   5.123   5.656 -0.3044 -0.0437  0.0766
  242POPC   C4A 3333   2.730   5.043   6.047  0.2100 -0.0551  0.1583
  242POPC   C1B 3334   3.717   5.416   5.082 -0.1113 -0.1151  0.2703
  242POPC   C2B 3335   3.514   5.356   5.509 -0.1279 -0.3051 -0.1550
  242POPC   C3B 3336   3.197   5.603   5.529 -0.1069 -0.2705  0.3374
  242POPC   C4B 3337   2.789   5.675   5.604 -0.1487  0.1231  0.2254
  243POPC   NC3 3338   1.254   9.372   4.086 -0.4407 -0.1024 -0.2334
  243POPC   PO4 3339   1.322   8.896   3.884 -0.3220 -0.5458  0.3046
  243POPC   GL1 3340   1.556   8.533   4.071  0.0066 -0.0838  0.0040
  243POPC   GL2 3341   1.680   8.649   4.371  0.1620 -0.2461  0.0219
  243POPC   C1A 3342   1.394   8.247   4.336  0.1913  0.0380 -0.2139
  243POPC   D2A 3343   1.170   7.919   4.265 -0.0728 -0.2196  0.0873
  243POPC   C3A 3344   1.137   7.572   4.588 -0.3487 -0.0271  0.2840
  243POPC   C4A 3345   1.072   7.216   4.700  0.0432 -0.2920 -0.3672
  243POPC   C1B 3346   1.669   8.420   4.715 -0.1192  0.1510  0.0264
  243POPC   C2B 3347   1.760   8.376   5.163 -0.0853  0.0249  0.1130
  243POPC   C3B 3348   1.942   8.101   5.479 -0.2067  0.1094  0.2564
  243POPC   C4B 3349   2.218   8.150   5.835  0.3976 -0.1607  0.1705
  244POPC   NC3 3350   5.832   9.697   4.674  0.2347 -0.0796  0.1194
  244POPC   PO4 3351   6.172   9.396   4.721  0.0531 -0.1735 -0.1002
  244POPC   GL1 3352   6.227   9.094   5.117  0.0063  0.0409 -0.0076
  244POPC   GL2 3353   6.581   9.143   5.205  0.0030 -0.0807  0.0137
  244POPC   C1A 3354   5.906   9.027   5.491  0.1651 -0.1794  0.1288
  244POPC   D2A 3355   5.648   9.018   5.874 -0.2233 -0.2606 -0.4524
  244POPC   C3A 3356   5.735   8.983   6.400 -0.2951  0.5556 -0.0511
  244POPC   C4A 3357   5.649   8.656   6.529 -0.1345 -0.3534 -0.0214
  244POPC   C1B 3358   6.502   9.104   5.705  0.0358 -0.2085  0.0076
  244POPC   C2B 3359   6.483   8.755   5.990 -0.0306  0.1431  0.0232
  244POPC   C3B 3360   6.696   8.668   6.418  0.3510 -0.2330  0.1405
  244POPC   C4B 3361   6.786   8.875   6.751 -0.0937  0.0243 -0.1580
  245POPC   NC3 3362   3.809   9.586   4.644  0.2761  0.2191 -0.3645
  245POPC   PO4 3363   3.504   9.264   4.592  0.0596 -0.3413  0.0224
  245POPC   GL1 3364   3.615   9.247   4.975 -0.2660 -0.2678  0.3628
  245POPC   GL2 3365   3.746   9.487   5.147  0.1231 -0.3751 -0.2373
  245POPC   C1A 3366   3.739   9.128   5.530 -0.1780 -0.1305 -0.0779
  245POPC   D2A 3367   3.964   9.065   6.007  0.1597  0.3145  0.0341
  245POPC   C3A 3368   3.922   8.661   6.249  0.1090 -0.0075  0.0651
  245POPC   C4A 3369   4.067   8.603   6.657  0.2452  0.0877  0.2474
  245POPC   C1B 3370   4.068   9.556   5.467 -0.0264  0.0371  0.0010
  245POPC   C2B 3371   4.335   9.655   5.811 -0.0739 -0.5316  0.4016
  245POPC   C3B 3372   4.241   9.482   6.179  0.0206  0.1225  0.0674
  245POPC   C4B 3373   4.236   9.132   6.471  0.3259 -0.1732 -0.0374
  246POPC   NC3 3374   2.006   4.620   3.664  0.2082 -0.0923  0.1874
  246POPC   PO4 3375   2.116   4.302   3.989  0.2245 -0.1658 -0.1441
  246POPC   GL1 3376   1.837   4.339   4.277  0.2602  0.0685  0.4311
  246POPC   GL2 3377   1.515   4.472   4.054  0.3223 -0.0911 -0.2331
  246POPC   C1A 3378   1.865   4.538   4.679  0.0928  0.1577  0.1352
  246POPC   D2A 3379   1.408   4.729   4.912  0.1097  0.0815 -0.1776
  246POPC   C3A 3380   1.313   5.144   4.972  0.1861  0.0197  0.0678
  246POPC   C4A 3381   1.527   5.506   4.804 -0.1002 -0.0060  0.0872
  246POPC   C1B 3382   1.641   4.930   4.318 -0.2072 -0.1211 -0.1036
  246POPC   C2B 3383   1.900   5.243   4.395 -0.0923 -0.1406  0.1187
  246POPC   C3B 3384   2.017   5.440   4.743 -0.1213 -0.0392  0.0985
  246POPC   C4B 3385   2.299   5.730   4.806 -0.0030 -0.0425  0.3017
  247POPC   NC3 3386   8.019   7.094   4.133  0.1249 -0.2064  0.0916
  247POPC   PO4 3387   7.856   7.346   4.542  0.0156 -0.0497  0.1501
  247POPC   GL1 3388   8.274   7.365   4.811  0.3526 -0.3284  0.2279
  247POPC   GL2 3389   8.550   7.360   4.700 -0.0291 -0.1004  0.0443
  247POPC   C1A 3390   8.499   7.301   5.157 -0.1060  0.1845 -0.2605
  247POPC   D2A 3391   8.749   7.320   5.510  0.1125  0.0743 -0.2711
  247POPC   C3A 3392   8.739   7.005   5.863  0.3239 -0.0300  0.3507
  247POPC   C4A 3393   8.803   6.675   6.140 -0.4137 -0.1410  0.0784
  247POPC   C1B 3394   9.063   7.356   4.692 -0.3300 -0.1595  0.0584
  247POPC   C2B 3395   9.540   7.301   4.767 -0.2105 -0.2833 -0.0025
  247POPC   C3B 3396   9.774   7.238   5.108  0.0058  0.1760 -0.1149
  247POPC   C4B 3397   9.957   7.467   5.468 -0.1103 -0.1226 -0.1278
  248POPC   NC3 3398   9.101   0.957   4.808  0.1897  0.2703  0.5526
  248POPC   PO4 3399   8.739   1.052   5.010 -0.3419 -0.0580 -0.2327
  248POPC   GL1 3400   8.656   1.088   5.437 -0.0376  0.2875  0.0941
  248POPC   GL2 3401   8.419   0.957   5.406 -0.0720  0.0498 -0.0085
  248POPC   C1A 3402   8.550   1.050   5.897  0.1050 -0.2600  0.1352
  248POPC   D2A 3403   8.659   1.175   6.332 -0.0666 -0.2005 -0.0637
  248POPC   C3A 3404   8.272   1.084   6.629  0.0873  0.2325  0.2175
  248POPC   C4A 3405   8.479   0.906   7.028 -0.0033 -0.2496 -0.0046
  248POPC   C1B 3406   8.082   1.068   5.798 -0.0013  0.0614  0.2400
  248POPC   C2B 3407   7.927   1.003   6.194  0.1953 -0.0681 -0.1041
  248POPC   C3B 3408   7.725   1.098   6.545  0.0089 -0.1333 -0.0093
  248POPC   C4B 3409   7.542   1.387   6.691  0.3463  0.1600 -0.0741
  249POPC   NC3 3410   1.483   8.862   2.962 -0.0954 -0.1091 -0.0695
  249POPC   PO4 3411   1.378   8.842   3.372 -0.2091 -0.0260  0.1580
  249POPC   GL1 3412   1.508   8.459   3.529 -0.2300 -0.1003  0.0615
  249POPC   GL2 3413   1.773   8.299   3.665 -0.2234  0.2133  0.3312
  249POPC   C1A 3414   1.284   8.169   3.810  0.0346  0.0048 -0.0131
  249POPC   D2A 3415   0.853   8.064   3.940  0.0861 -0.0146 -0.1372
  249POPC   C3A 3416   0.468   8.223   4.178  0.4308 -0.2824  0.3152
  249POPC   C4A 3417   0.208   8.007   4.503 -0.1075  0.1175  0.2266
  249POPC   C1B 3418   1.802   8.121   4.082 -0.0023 -0.0942 -0.2364
  249POPC   C2B 3419   1.913   7.894   4.527  0.0660 -0.3601  0.0202
  249POPC   C3B 3420   1.575   7.873   4.756  0.1351 -0.0525 -0.3022
  249POPC   C4B 3421   1.493   7.792   5.274  0.0035  0.1778  0.1045
  250POPC   NC3 3422   8.551   0.093   4.888  0.2380 -0.1832  0.1159
  250POPC   PO4 3423   8.605  -0.239   4.905 -0.0265  0.0840  0.1820
  250POPC   GL1 3424   8.526  -0.545   5.334  0.2992 -0.0771 -0.2761
  250POPC   GL2 3425   8.235  -0.630   5.252  0.0436  0.0958  0.0942
  250POPC   C1A 3426   8.694  -0.778   5.667  0.1297 -0.3108 -0.4490
  250POPC   D2A 3427   8.777  -1.134   5.399 -0.2403 -0.2711 -0.1821
  250POPC   C3A 3428   9.150  -1.386   5.348 -0.0107 -0.2275 -0.0529
  250POPC   C4A 3429   9.118  -1.847   5.185  0.1203  0.1171  0.0706
  250POPC   C1B 3430   8.088  -0.531   5.715 -0.0211 -0.0534 -0.0734
  250POPC   C2B 3431   8.054  -0.534   6.165 -0.2423  0.0880  0.2522
  250POPC   C3B 3432   7.950  -0.287   6.568  0.0283  0.3257 -0.1160
  250POPC   C4B 3433   7.776   0.029   6.622  0.1204 -0.1578  0.0218
  251POPC   NC3 3434   5.292   3.459   4.502 -0.2513  0.1431  0.1406
  251POPC   PO4 3435   5.122   3.783   4.748 -0.3859  0.0635 -0.0795
  251POPC   GL1 3436   5.041   4.030   4.987 -0.0628  0.1231  0.0135
  251POPC   GL2 3437   5.157   4.342   5.101 -0.1898  0.0741 -0.0003
  251POPC   C1A 3438   5.055   4.012   5.422  0.0241  0.0033 -0.0533
  251POPC   D2A 3439   5.143   3.857   5.851 -0.0712  0.2229 -0.0080
  251POPC   C3A 3440   4.783   3.952   6.196  0.1287  0.0840  0.2431
  251POPC   C4A 3441   4.452   3.756   6.452  0.4348 -0.0925 -0.0273
  251POPC   C1B 3442   5.156   4.511   5.537 -0.1164 -0.0258 -0.2982
  251POPC   C2B 3443   5.217   4.408   6.031 -0.1029  0.1003 -0.1360
  251POPC   C3B 3444   5.378   4.166   6.334  0.1565  0.2224  0.1221
  251POPC   C4B 3445   5.475   3.895   6.687  0.3773  0.3877 -0.2545
  252POPC   NC3 3446   7.193   3.761   4.559  0.0273  0.0944  0.2540
  252POPC   PO4 3447   7.176   3.238   4.611  0.0650 -0.1240  0.1635
  252POPC   GL1 3448   7.007   3.139   4.916 -0.3108 -0.1365 -0.0471
  252POPC   GL2 3449   6.842   2.711   4.875 -0.1660  0.0268  0.1744
  252POPC   C1A 3450   6.813   3.168   5.382 -0.1175  0.1771 -0.2289
  252POPC   D2A 3451   6.888   3.412   5.820  0.2876 -0.0367 -0.1937
  252POPC   C3A 3452   6.716   3.257   6.198 -0.0682 -0.1923 -0.0713
  252POPC   C4A 3453   6.417   3.427   6.564  0.2357  0.1170 -0.0452
  252POPC   C1B 3454   6.609   2.620   5.304  0.0615 -0.3117 -0.0841
  252POPC   C2B 3455   6.435   2.530   5.765 -0.3995  0.1146  0.1071
  252POPC   C3B 3456   6.142   2.475   6.091 -0.1193  0.0040 -0.2291
  252POPC   C4B 3457   5.767   2.280   6.128 -0.0548  0.2537 -0.0461
  253POPC   NC3 3458   9.127   5.554   3.472 -0.2947 -0.1991  0.2206
  253POPC   PO4 3459   9.185   6.018   3.333  0.3005  0.0777  0.2838
  253POPC   GL1 3460   9.455   5.848   3.710 -0.3407 -0.0999 -0.0603
  253POPC   GL2 3461   9.251   5.794   3.907 -0.3138  0.2191  0.0194
  253POPC   C1A 3462   9.773   5.703   3.724 -0.0482 -0.1029  0.0426
  253POPC   D2A 3463  10.184   5.546   4.001 -0.2216  0.1485  0.0876
  253POPC   C3A 3464  10.204   5.148   4.255 -0.1866 -0.1023 -0.1449
  253POPC   C4A 3465  10.561   4.979   4.448 -0.1166  0.0863 -0.1537
  253POPC   C1B 3466   9.274   5.638   4.360 -0.0632 -0.3960  0.1226
  253POPC   C2B 3467   9.412   5.828   4.762  0.3244 -0.0359  0.3003
  253POPC   C3B 3468   9.355   5.920   5.119 -0.2796 -0.0490 -0.1609
  253POPC   C4B 3469   9.339   5.537   5.407 -0.0369 -0.0761  0.1341
  254POPC   NC3 3470   8.412   2.556   4.667  0.2416 -0.3892 -0.0284
  254POPC   PO4 3471   8.006   2.803   4.695  0.1661  0.0611  0.2716
  254POPC   GL1 3472   8.144   2.678   5.137  0.0695  0.0094 -0.2380
  254POPC   GL2 3473   7.850   2.745   5.163 -0.3090  0.0027  0.0200
  254POPC   C1A 3474   8.215   2.587   5.519  0.2911  0.0552 -0.0034
  254POPC   D2A 3475   8.118   2.801   5.877  0.0002  0.1445  0.0497
  254POPC   C3A 3476   7.739   2.888   5.998  0.0393 -0.1559  0.0653
  254POPC   C4A 3477   7.638   3.214   6.243 -0.3057  0.0978 -0.3027
  254POPC   C1B 3478   7.614   2.800   5.517  0.3946  0.0491 -0.1145
  254POPC   C2B 3479   7.213   2.808   5.745  0.1861  0.1662  0.0544
  254POPC   C3B 3480   6.815   2.873   5.837  0.0819 -0.1197 -0.0969
  254POPC   C4B 3481   6.428   3.114   5.751 -0.2399  0.1395  0.1426
  255POPC   NC3 3482   3.655   7.065   3.759  0.0297  0.1774  0.1607
  255POPC   PO4 3483   3.772   7.426   4.075  0.0530 -0.1080  0.4368
  255POPC   GL1 3484   3.515   7.098   4.334  0.1323  0.1783 -0.0968
  255POPC   GL2 3485   3.451   6.733   4.124 -0.0673 -0.0755 -0.0335
  255POPC   C1A 3486   3.663   6.913   4.710 -0.3085  0.3877 -0.0683
  255POPC   D2A 3487   3.857   7.131   4.984 -0.0273  0.0696  0.4012
  255POPC   C3A 3488   3.722   7.541   5.114  0.0088 -0.0822  0.3094
  255POPC   C4A 3489   3.768   7.817   5.276  0.2266  0.0997 -0.0296
  255POPC   C1B 3490   3.185   6.803   4.676 -0.1009 -0.4428  0.1543
  255POPC   C2B 3491   3.098   6.469   4.887  0.0703 -0.0268 -0.0244
  255POPC   C3B 3492   2.769   6.138   4.957 -0.4010 -0.0676  0.1966
  255POPC   C4B 3493   2.667   5.637   5.138 -0.0351 -0.1903 -0.0462
  256POPC   NC3 3494   9.015   3.424   3.908  0.0772  0.1899  0.0830
  256POPC   PO4 3495   9.422   3.105   3.966 -0.0242  0.0683 -0.1344
  256POPC   GL1 3496   9.557   3.350   4.364 -0.0313  0.3365 -0.1477
  256POPC   GL2 3497   9.848   3.564   4.447  0.0066 -0.1779  0.0415
  256POPC   C1A 3498   9.456   3.571   4.795  0.0472 -0.2224 -0.1077
  256POPC   D2A 3499   9.340   3.129   5.042 -0.0008 -0.1793 -0.1780
  256POPC   C3A 3500   9.421   3.092   5.472 -0.1771 -0.0644 -0.0532
  256POPC   C4A 3501   9.542   2.754   5.721 -0.0345 -0.2999 -0.1711
  256POPC   C1B 3502  10.007   3.796   4.817 -0.2283 -0.2600  0.0198
  256POPC   C2B 3503   9.609   4.025   5.060  0.0782  0.0740 -0.1770
  256POPC   C3B 3504   9.385   4.196   5.318  0.1747  0.0606 -0.1547
  256POPC   C4B 3505   9.149   4.572   5.385 -0.3148  0.1274  0.3462
  257POPC   NC3 3506   0.747   9.454   4.347 -0.1020  0.3333 -0.3632
  257POPC   PO4 3507   0.570   9.799   4.457 -0.0646  0.0299 -0.1068
  257POPC   GL1 3508   0.398   9.552   4.738 -0.2008 -0.0132 -0.1784
  257POPC   GL2 3509   0.523   9.317   4.850  0.1361 -0.3906  0.1310
  257POPC   C1A 3510   0.229   9.669   5.137 -0.0204 -0.1311  0.0703
  257POPC   D2A 3511  -0.041   9.835   5.452 -0.1999 -0.1862 -0.0030
  257POPC   C3A 3512  -0.377   9.710   5.842 -0.1115 -0.3443 -0.0543
  257POPC   C4A 3513  -0.555   9.286   5.997  0.1125 -0.2707 -0.1027
  257POPC   C1B 3514   0.395   9.200   5.169  0.1480  0.0458  0.0851
  257POPC   C2B 3515   0.359   9.420   5.591 -0.1784 -0.2587  0.0575
  257POPC   C3B 3516   0.187   9.576   5.909  0.1380 -0.4100  0.2549
  257POPC   C4B 3517  -0.060   9.638   6.303 -0.2757  0.1708  0.1806
  258POPC   NC3 3518   8.244   8.200   4.575  0.0583 -0.0186  0.2716
  258POPC   PO4 3519   8.068   7.844   4.699 -0.3620  0.0156  0.2136
  258POPC   GL1 3520   8.031   7.638   5.102 -0.2633 -0.0802 -0.3609
  258POPC   GL2 3521   7.810   7.823   5.207 -0.0400  0.2859  0.0639
  258POPC   C1A 3522   8.169   7.501   5.476 -0.0303 -0.4699 -0.1802
  258POPC   D2A 3523   8.071   7.569   5.922 -0.3013 -0.1776  0.3837
  258POPC   C3A 3524   8.287   7.660   6.377  0.1472 -0.0279  0.0732
  258POPC   C4A 3525   8.547   7.806   6.754  0.2449 -0.0807 -0.0890
  258POPC   C1B 3526   7.953   7.976   5.493 -0.0557  0.1902 -0.0161
  258POPC   C2B 3527   7.839   8.056   5.952 -0.0846 -0.0084  0.3805
  258POPC   C3B 3528   7.821   7.848   6.274  0.1366  0.1932 -0.4476
  258POPC   C4B 3529   7.837   7.317   6.424 -0.1580 -0.3717  0.2886
  259POPC   NC3 3530   1.951   3.836   3.979  0.1616  0.1775  0.1868
  259POPC   PO4 3531   1.963   3.858   4.392  0.1787  0.2000  0.0587
  259POPC   GL1 3532   1.680   4.034   4.617 -0.2282  0.0484 -0.0211
  259POPC   GL2 3533   1.423   4.226   4.591  0.3100  0.1698  0.0131
  259POPC   C1A 3534   1.731   4.223   5.106 -0.4422  0.3908  0.2225
  259POPC   D2A 3535   1.705   4.622   5.314  0.1108 -0.3051  0.0113
  259POPC   C3A 3536   1.956   4.682   5.717 -0.2642  0.2611 -0.0012
  259POPC   C4A 3537   2.233   4.878   5.922  0.2334  0.1004  0.2355
  259POPC   C1B 3538   1.062   4.528   4.527  0.0412 -0.0942  0.1187
  259POPC   C2B 3539   1.145   4.938   4.437 -0.0176  0.0331  0.2537
  259POPC   C3B 3540   1.343   5.307   4.393 -0.2492 -0.1885  0.0867
  259POPC   C4B 3541   1.321   5.812   4.382  0.0384 -0.1018 -0.1817
  260POPC   NC3 3542   0.813   1.242   4.620  0.0698  0.1829 -0.1982
  260POPC   PO4 3543   0.285   1.283   4.703 -0.1182 -0.0492  0.1287
  260POPC   GL1 3544   0.210   1.688   4.972 -0.1719 -0.0006 -0.0009
  260POPC   GL2 3545  -0.146   1.598   5.054 -0.0798  0.1906  0.0621
  260POPC   C1A 3546   0.279   2.011   5.316 -0.0307 -0.2530  0.1452
  260POPC   D2A 3547   0.061   2.099   5.799  0.0413 -0.0077 -0.1057
  260POPC   C3A 3548  -0.037   2.467   5.989 -0.1801  0.0877  0.2086
  260POPC   C4A 3549  -0.184   2.871   6.171 -0.1380 -0.2522  0.2463
  260POPC   C1B 3550   0.064   1.617   5.542 -0.1077 -0.0242 -0.1091
  260POPC   C2B 3551   0.047   1.638   6.009  0.0218  0.3473 -0.1132
  260POPC   C3B 3552   0.267   1.469   6.367 -0.1376 -0.1448 -0.2048
  260POPC   C4B 3553   0.048   1.055   6.533  0.1582 -0.0676  0.0486
  261POPC   NC3 3554   1.380   0.515   4.698 -0.0504  0.0149 -0.1494
  261POPC   PO4 3555   1.801   0.453   4.701  0.0059 -0.0490  0.2089
  261POPC   GL1 3556   1.694   0.294   5.048 -0.1277 -0.1748 -0.0213
  261POPC   GL2 3557   1.879   0.115   5.194 -0.2301 -0.2983 -0.1064
  261POPC   C1A 3558   1.635   0.482   5.448 -0.1098 -0.1191  0.4408
  261POPC   D2A 3559   1.441   0.457   5.784  0.1307 -0.1309  0.1528
  261POPC   C3A 3560   1.413   0.464   6.278 -0.1613 -0.0189  0.0078
  261POPC   C4A 3561   1.633   0.677   6.572  0.0079  0.0421 -0.0640
  261POPC   C1B 3562   1.974   0.064   5.650 -0.0861  0.0680 -0.0238
  261POPC   C2B 3563   2.263  -0.055   5.883 -0.0282  0.1250  0.0230
  261POPC   C3B 3564   2.270  -0.375   6.035  0.0466  0.0691  0.1127
  261POPC   C4B 3565   2.172  -0.628   6.349  0.2941 -0.2307  0.3118
  262POPC   NC3 3566   2.675   0.401   4.805  0.1432  0.0800 -0.0652
  262POPC   PO4 3567   2.278   0.576   4.576 -0.0367 -0.1830 -0.0400
  262POPC   GL1 3568   2.353   0.542   5.156 -0.2589  0.1690  0.1868
  262POPC   GL2 3569   2.074   0.538   5.267 -0.2326 -0.0906  0.1189
  262POPC   C1A 3570   2.427   0.217   5.458 -0.0377  0.2310  0.0554
  262POPC   D2A 3571   2.700  -0.060   5.364 -0.1324  0.0378 -0.1799
  262POPC   C3A 3572   2.616  -0.476   5.567  0.0398 -0.1992  0.1545
  262POPC   C4A 3573   2.547  -0.887   5.345  0.1132  0.1765  0.0268
  262POPC   C1B 3574   2.321   0.672   5.666  0.1135 -0.0249 -0.0703
  262POPC   C2B 3575   2.563   0.875   5.955  0.2063  0.1355 -0.1823
  262POPC   C3B 3576   2.648   1.277   6.027  0.3804  0.0186 -0.2221
  262POPC   C4B 3577   2.847   1.543   6.201  0.3353  0.1900 -0.3561
  263POPC   NC3 3578   0.422   0.303   4.827  0.3773  0.0051 -0.1672
  263POPC   PO4 3579   0.922   0.274   4.621 -0.1079  0.1070  0.0648
  263POPC   GL1 3580   0.880   0.430   4.992  0.0369 -0.0020 -0.0955
  263POPC   GL2 3581   1.209   0.326   5.152 -0.1236  0.3516 -0.1097
  263POPC   C1A 3582   0.604   0.614   5.332  0.2047 -0.1098 -0.0101
  263POPC   D2A 3583   0.494   0.557   5.745 -0.3159 -0.1850 -0.1090
  263POPC   C3A 3584   0.160   0.822   5.752 -0.0756 -0.0504 -0.2712
  263POPC   C4A 3585  -0.109   1.192   5.977  0.2315 -0.0222  0.1149
  263POPC   C1B 3586   0.993   0.117   5.485 -0.1269 -0.3136  0.0330
  263POPC   C2B 3587   0.834  -0.302   5.666  0.0388  0.2120 -0.0126
  263POPC   C3B 3588   0.711  -0.605   5.921  0.0510 -0.2814 -0.4663
  263POPC   C4B 3589   0.511  -0.632   6.345 -0.1726 -0.0355 -0.0038
  264POPC   NC3 3590   4.999   8.131   4.443  0.1778  0.0362  0.2499
  264POPC   PO4 3591   5.260   7.811   4.775  0.0216 -0.2215 -0.2842
  264POPC   GL1 3592   5.078   7.782   5.123  0.0353 -0.0972 -0.2257
  264POPC   GL2 3593   4.943   8.091   5.180  0.5175 -0.0229 -0.3348
  264POPC   C1A 3594   5.094   7.664   5.548 -0.0739 -0.3318 -0.0020
  264POPC   D2A 3595   5.047   7.685   5.948 -0.0816  0.0231  0.0781
  264POPC   C3A 3596   5.244   7.963   6.304  0.2390 -0.0394 -0.1739
  264POPC   C4A 3597   5.063   8.283   6.522  0.2211  0.1062  0.0485
  264POPC   C1B 3598   4.668   7.956   5.507 -0.0496 -0.1093 -0.0032
  264POPC   C2B 3599   4.594   7.839   5.836  0.1630 -0.2173 -0.0545
  264POPC   C3B 3600   4.692   8.127   6.135 -0.2075  0.0899  0.0416
  264POPC   C4B 3601   4.505   8.173   6.626  0.0733 -0.0423 -0.4211
  265POPC   NC3 3602   8.036   5.954   3.788 -0.1736  0.1237 -0.1986
  265POPC   PO4 3603   8.133   6.132   4.240 -0.0543  0.3290 -0.0861
  265POPC   GL1 3604   8.099   6.019   4.674 -0.2780 -0.0324 -0.1200
  265POPC   GL2 3605   7.848   5.837   4.742  0.0815 -0.2379 -0.1578
  265POPC   C1A 3606   8.423   5.989   4.987 -0.1891  0.0237  0.0627
  265POPC   D2A 3607   8.803   6.140   4.978 -0.0809 -0.1545 -0.1069
  265POPC   C3A 3608   9.066   6.412   5.146  0.0919  0.1528 -0.4858
  265POPC   C4A 3609   9.447   6.437   5.430 -0.2832  0.0918  0.2571
  265POPC   C1B 3610   8.029   5.749   5.082 -0.2842  0.0778  0.2194
  265POPC   C2B 3611   8.199   5.300   5.362 -0.0052  0.0785 -0.1465
  265POPC   C3B 3612   8.429   5.370   5.771  0.2523 -0.3872  0.0374
  265POPC   C4B 3613   8.434   5.366   6.289 -0.2088 -0.2520  0.1459
  266POPC   NC3 3614   2.423   3.210   4.932  0.2059 -0.0152 -0.0816
  266POPC   PO4 3615   2.849   3.089   4.842 -0.0842  0.2889 -0.0011
  266POPC   GL1 3616   2.845   2.907   5.283 -0.0213  0.3168  0.1568
  266POPC   GL2 3617   2.902   3.162   5.401 -0.4014  0.0375  0.3383
  266POPC   C1A 3618   2.829   2.686   5.705 -0.2831 -0.0526 -0.2464
  266POPC   D2A 3619   2.808   2.600   6.173 -0.0559 -0.0079  0.0005
  266POPC   C3A 3620   2.624   2.341   6.578 -0.1075 -0.2636  0.1810
  266POPC   C4A 3621   2.702   1.990   6.963 -0.1202 -0.1471 -0.1423
  266POPC   C1B 3622   2.788   3.362   5.773  0.0273 -0.2771 -0.1139
  266POPC   C2B 3623   2.375   3.453   5.906 -0.3584  0.0164 -0.1400
  266POPC   C3B 3624   2.174   3.632   6.303  0.0855 -0.1047  0.0213
  266POPC   C4B 3625   2.040   3.981   6.537  0.1242  0.0499  0.0811
  267POPC   NC3 3626   8.811   9.517   3.972  0.2663  0.3751 -0.1101
  267POPC   PO4 3627   9.152   9.234   4.150  0.0235  0.1928 -0.1279
  267POPC   GL1 3628   9.291   8.958   4.473 -0.0487 -0.0332  0.0501
  267POPC   GL2 3629   9.174   8.914   4.819  0.3479  0.1233 -0.0047
  267POPC   C1A 3630   9.758   8.802   4.555 -0.2523 -0.0369  0.0141
  267POPC   D2A 3631  10.025   8.448   4.721 -0.1005 -0.0641  0.2151
  267POPC   C3A 3632  10.146   8.431   5.150  0.1809  0.0620  0.1847
  267POPC   C4A 3633  10.321   8.738   5.454 -0.1334  0.1221  0.1376
  267POPC   C1B 3634   9.491   8.614   4.987  0.0235 -0.3112 -0.0783
  267POPC   C2B 3635   9.663   8.358   5.359  0.1711  0.1545  0.0081
  267POPC   C3B 3636   9.497   8.198   5.754 -0.4445 -0.1638  0.1043
  267POPC   C4B 3637   9.481   7.891   6.000 -0.1533 -0.1007  0.1823
  268POPC   NC3 3638   3.896   8.977   3.685 -0.3343  0.0203  0.0610
  268POPC   PO4 3639   3.569   8.818   3.987 -0.1988 -0.1964 -0.2564
  268POPC   GL1 3640   3.383   8.712   4.455 -0.2981  0.1894 -0.0263
  268POPC   GL2 3641   3.193   8.862   4.650 -0.1022  0.2797 -0.1606
  268POPC   C1A 3642   3.291   8.454   4.885  0.0166  0.0481 -0.1540
  268POPC   D2A 3643   2.989   8.154   5.005  0.3339  0.2440  0.1309
  268POPC   C3A 3644   2.548   8.150   4.750 -0.0816  0.1234  0.0880
  268POPC   C4A 3645   2.178   8.326   4.852  0.2296  0.1455 -0.0800
  268POPC   C1B 3646   3.087   8.787   5.150  0.0270 -0.0084 -0.2248
  268POPC   C2B 3647   3.155   8.842   5.621 -0.0202  0.1401 -0.0035
  268POPC   C3B 3648   3.399   9.061   5.960  0.1591 -0.0284  0.0874
  268POPC   C4B 3649   3.608   9.063   6.423  0.0753 -0.0011  0.1165
  269POPC   NC3 3650   7.726   4.037   4.205  0.0764 -0.1209 -0.2084
  269POPC   PO4 3651   7.330   4.201   4.383  0.1460 -0.0228 -0.2046
  269POPC   GL1 3652   7.433   4.334   4.824  0.3358  0.1243 -0.0460
  269POPC   GL2 3653   7.374   4.680   4.853 -0.2968  0.2454  0.4692
  269POPC   C1A 3654   7.802   4.293   5.144  0.1321 -0.0221 -0.3244
  269POPC   D2A 3655   8.060   4.300   5.589  0.2767  0.0897 -0.0697
  269POPC   C3A 3656   8.548   4.360   5.768 -0.0451  0.1614  0.2330
  269POPC   C4A 3657   8.947   4.447   5.829 -0.1106  0.1059  0.3061
  269POPC   C1B 3658   7.669   4.779   5.082 -0.4263  0.1012 -0.0275
  269POPC   C2B 3659   7.680   4.704   5.474  0.3099 -0.2196 -0.1301
  269POPC   C3B 3660   7.521   4.375   5.676 -0.2348  0.2852 -0.1463
  269POPC   C4B 3661   7.633   4.236   6.023 -0.0703 -0.0939  0.1335
  270POPC   NC3 3662   6.730   1.004   4.831 -0.0749  0.2028 -0.1687
  270POPC   PO4 3663   6.754   1.555   4.935 -0.1182  0.3751  0.0799
  270POPC   GL1 3664   6.352   1.350   5.107  0.1425  0.1824 -0.0811
  270POPC   GL2 3665   6.404   1.512   5.400 -0.4404  0.2040  0.1087
  270POPC   C1A 3666   5.929   1.159   5.246 -0.0909  0.3375  0.0239
  270POPC   D2A 3667   5.805   0.878   5.671 -0.1830 -0.0732 -0.2711
  270POPC   C3A 3668   6.280   0.760   5.994  0.3296  0.1967 -0.0035
  270POPC   C4A 3669   6.542   0.494   6.338 -0.0296  0.0898  0.1775
  270POPC   C1B 3670   6.763   1.776   5.552 -0.0725 -0.4856 -0.0614
  270POPC   C2B 3671   7.026   1.716   5.922  0.0322 -0.5000 -0.1532
  270POPC   C3B 3672   7.080   1.452   6.258  0.2846 -0.2548  0.3197
  270POPC   C4B 3673   7.049   1.623   6.691  0.1396 -0.0203 -0.0037
  271POPC   NC3 3674   5.599   7.748   5.144 -0.1525  0.0916 -0.2964
  271POPC   PO4 3675   5.925   7.404   5.195 -0.1935 -0.2976  0.2239
  271POPC   GL1 3676   5.694   7.442   5.610  0.1411 -0.1192  0.3051
  271POPC   GL2 3677   5.966   7.582   5.776 -0.0754  0.2402 -0.1064
  271POPC   C1A 3678   5.786   7.217   5.994  0.0747 -0.1045  0.1725
  271POPC   D2A 3679   5.756   6.899   6.253  0.2079  0.1702 -0.1212
  271POPC   C3A 3680   5.511   6.679   6.617  0.0946  0.1283 -0.1120
  271POPC   C4A 3681   5.429   6.612   7.061  0.0179  0.0288 -0.1996
  271POPC   C1B 3682   6.245   7.325   6.067  0.2565 -0.0723  0.1266
  271POPC   C2B 3683   6.038   7.268   6.423  0.2438 -0.0742 -0.1503
  271POPC   C3B 3684   5.621   7.174   6.680 -0.1199  0.0521 -0.1151
  271POPC   C4B 3685   5.313   7.056   7.008 -0.1501 -0.3290  0.1154
  272POPC   NC3 3686   7.341   3.318   4.101  0.0478 -0.0683  0.1683
  272POPC   PO4 3687   7.608   3.599   4.426 -0.2389 -0.2747  0.1258
  272POPC   GL1 3688   7.663   3.480   4.861 -0.3458 -0.2531 -0.0611
  272POPC   GL2 3689   7.343   3.513   4.962 -0.1603  0.0919  0.0531
  272POPC   C1A 3690   7.757   3.761   5.240 -0.0848 -0.0763  0.2410
  272POPC   D2A 3691   7.695   3.901   5.642 -0.0763  0.0336 -0.1300
  272POPC   C3A 3692   7.214   3.946   5.812  0.0448 -0.1750  0.1903
  272POPC   C4A 3693   7.261   3.627   6.176  0.0847 -0.1215  0.1043
  272POPC   C1B 3694   7.285   3.367   5.333  0.1493  0.1445 -0.1130
  272POPC   C2B 3695   7.389   3.351   5.833 -0.0133  0.2371 -0.2193
  272POPC   C3B 3696   7.215   3.063   6.149 -0.3478 -0.2650  0.1664
  272POPC   C4B 3697   7.073   3.205   6.515 -0.0890  0.0542  0.2732
  273POPC   NC3 3698   8.593   7.699   3.901  0.0971  0.2511 -0.1451
  273POPC   PO4 3699   8.763   7.795   4.423  0.0848 -0.4476 -0.0310
  273POPC   GL1 3700   8.754   7.828   4.863 -0.2392 -0.0881  0.3099
  273POPC   GL2 3701   8.464   7.885   4.968  0.1093  0.0551  0.1667
  273POPC   C1A 3702   8.949   7.581   5.154  0.0229  0.1294 -0.2378
  273POPC   D2A 3703   9.288   7.236   5.170  0.1773  0.0149 -0.0596
  273POPC   C3A 3704   9.410   6.756   5.015 -0.0859  0.7528 -0.0299
  273POPC   C4A 3705   9.501   6.412   4.779  0.0405  0.0531 -0.0317
  273POPC   C1B 3706   8.547   7.805   5.453  0.0202 -0.1273  0.2265
  273POPC   C2B 3707   8.396   7.981   5.833  0.0552  0.0039  0.4369
  273POPC   C3B 3708   8.477   8.439   5.856  0.1531  0.0832  0.2018
  273POPC   C4B 3709   8.826   8.796   5.970 -0.1319 -0.1070  0.1107
  274POPC   NC3 3710   1.109   0.449   4.149  0.0584 -0.0679  0.1597
  274POPC   PO4 3711   0.934   0.756   4.545 -0.0458 -0.0184  0.1802
  274POPC   GL1 3712   1.062   0.909   4.942  0.1452  0.1403  0.2421
  274POPC   GL2 3713   1.505   0.811   5.052 -0.0348  0.1749  0.0563
  274POPC   C1A 3714   1.181   0.760   5.398  0.0968 -0.2193  0.3545
  274POPC   D2A 3715   1.333   1.019   5.677  0.0304 -0.0195 -0.1683
  274POPC   C3A 3716   1.052   1.337   6.003 -0.4044  0.4108 -0.3710
  274POPC   C4A 3717   0.826   1.223   6.362 -0.5309  0.2924 -0.0265
  274POPC   C1B 3718   1.451   1.174   5.154  0.2045 -0.1318 -0.1230
  274POPC   C2B 3719   1.530   1.461   5.506 -0.0813  0.0015  0.0679
  274POPC   C3B 3720   1.933   1.529   5.586  0.2291  0.0820 -0.3587
  274POPC   C4B 3721   2.206   1.200   5.746  0.2088 -0.0633 -0.0666
  275POPC   NC3 3722   4.751   8.969   4.144  0.0937  0.0770  0.0473
  275POPC   PO4 3723   4.594   8.783   4.613  0.0669 -0.1691 -0.3369
  275POPC   GL1 3724   4.545   9.156   4.931  0.2813 -0.0798  0.1633
  275POPC   GL2 3725   4.199   9.343   4.924  0.2377 -0.2195  0.0184
  275POPC   C1A 3726   4.551   9.359   5.338 -0.0487 -0.1501 -0.2174
  275POPC   D2A 3727   4.364   9.203   5.656 -0.1224  0.2717  0.2364
  275POPC   C3A 3728   4.447   8.891   5.899 -0.0074 -0.0210 -0.1867
  275POPC   C4A 3729   4.386   8.614   6.232 -0.0439  0.1090  0.1468
  275POPC   C1B 3730   4.113   9.135   5.166  0.2488  0.0378  0.1434
  275POPC   C2B 3731   3.852   8.845   5.193 -0.0239 -0.1384 -0.0101
  275POPC   C3B 3732   3.551   8.652   5.307 -0.2512  0.0297 -0.1626
  275POPC   C4B 3733   3.327   8.248   5.453 -0.0457 -0.1603  0.0547
  276POPC   NC3 3734   1.496   3.603   4.567  0.0026 -0.2180  0.4180
  276POPC   PO4 3735   1.578   3.218   4.746 -0.0110  0.2724 -0.0986
  276POPC   GL1 3736   1.632   3.054   5.184  0.1685  0.1639  0.1585
  276POPC   GL2 3737   1.442   3.391   5.333  0.0083  0.1792 -0.1640
  276POPC   C1A 3738   1.686   3.008   5.581  0.0046  0.3332 -0.0522
  276POPC   D2A 3739   1.943   3.134   5.892 -0.2252  0.2329 -0.1436
  276POPC   C3A 3740   1.984   2.924   6.415 -0.1592 -0.1681  0.0875
  276POPC   C4A 3741   2.060   3.005   6.885  0.1028  0.0526  0.3861
  276POPC   C1B 3742   1.500   3.353   5.862 -0.1639 -0.1441  0.2545
  276POPC   C2B 3743   1.677   3.343   6.279  0.1615 -0.2168 -0.0417
  276POPC   C3B 3744   1.688   3.240   6.622 -0.0570 -0.1297  0.0889
  276POPC   C4B 3745   1.575   2.971   6.980  0.3307 -0.2900  0.1887
  277POPC   NC3 3746   7.237   8.627   5.155  0.1367  0.1747 -0.0807
  277POPC   PO4 3747   6.819   8.634   5.227  0.2016  0.3710 -0.0218
  277POPC   GL1 3748   6.754   8.575   5.589 -0.1641  0.0744  0.1648
  277POPC   GL2 3749   6.980   8.441   5.761 -0.2329  0.0189 -0.1165
  277POPC   C1A 3750   6.646   8.270   6.007 -0.1430 -0.0874 -0.2744
  277POPC   D2A 3751   6.942   8.043   6.353  0.0689  0.1859 -0.0784
  277POPC   C3A 3752   7.332   8.116   6.084  0.1823 -0.0661 -0.1180
  277POPC   C4A 3753   7.681   8.340   6.344  0.2305  0.0170  0.0988
  277POPC   C1B 3754   7.060   8.636   6.048 -0.2138  0.0736 -0.0941
  277POPC   C2B 3755   7.210   8.582   6.431 -0.1696 -0.1206  0.2227
  277POPC   C3B 3756   6.970   8.377   6.698  0.1155 -0.1043  0.0091
  277POPC   C4B 3757   6.793   8.304   7.144  0.0357  0.0353 -0.2403
  278POPC   NC3 3758   4.840   5.099   4.384 -0.0757 -0.0763 -0.0429
  278POPC   PO4 3759   4.514   5.344   4.524  0.0529  0.1113  0.3012
  278POPC   GL1 3760   4.453   5.367   5.005  0.1826  0.0272 -0.0478
  278POPC   GL2 3761   4.204   5.501   4.940 -0.2534 -0.3475 -0.0132
  278POPC   C1A 3762   4.625   5.270   5.437  0.0701 -0.0912 -0.0657
  278POPC   D2A 3763   4.380   5.212   5.818 -0.2085  0.3456 -0.1673
  278POPC   C3A 3764   4.659   5.098   6.173  0.1536  0.2217 -0.1946
  278POPC   C4A 3765   4.535   5.429   6.350  0.0517  0.0165 -0.1792
  278POPC   C1B 3766   4.121   5.478   5.499  0.3178  0.3112 -0.0135
  278POPC   C2B 3767   4.107   5.552   5.956 -0.0104  0.4741  0.2073
  278POPC   C3B 3768   3.776   5.598   6.327 -0.0614 -0.0657 -0.0952
  278POPC   C4B 3769   3.721   5.815   6.698 -0.0441  0.0106  0.2718
  279POPC   NC3 3770   6.433   8.784   4.739 -0.1979 -0.0208 -0.0753
  279POPC   PO4 3771   6.188   8.591   4.988  0.0385 -0.2219 -0.3018
  279POPC   GL1 3772   6.196   8.662   5.416  0.2016  0.0717 -0.1395
  279POPC   GL2 3773   6.262   8.379   5.580 -0.3495  0.3056  0.5394
  279POPC   C1A 3774   5.996   8.611   5.937 -0.0307  0.2335  0.1120
  279POPC   D2A 3775   6.213   8.536   6.306  0.1067 -0.1594 -0.2458
  279POPC   C3A 3776   6.273   8.939   6.500  0.0868  0.0232  0.2315
  279POPC   C4A 3777   6.317   9.204   6.166  0.0052 -0.1408  0.1502
  279POPC   C1B 3778   6.164   8.062   5.918 -0.0374 -0.0206  0.0545
  279POPC   C2B 3779   5.983   7.778   6.261 -0.0198 -0.0933 -0.3113
  279POPC   C3B 3780   5.801   7.651   6.678  0.0327 -0.0297  0.4471
  279POPC   C4B 3781   5.386   7.640   7.127  0.5022  0.1112  0.0414
  280POPC   NC3 3782   8.933   4.840   3.458  0.1323 -0.1260  0.2545
  280POPC   PO4 3783   8.857   4.355   3.503  0.0412 -0.1079  0.1007
  280POPC   GL1 3784   8.890   4.444   3.942  0.1030  0.2295  0.0884
  280POPC   GL2 3785   8.702   4.688   3.906  0.4347  0.0161 -0.0222
  280POPC   C1A 3786   8.974   4.260   4.402  0.2362 -0.3683  0.2300
  280POPC   D2A 3787   9.204   4.310   4.807  0.2417  0.0079 -0.3303
  280POPC   C3A 3788   8.770   4.578   5.106 -0.0140  0.0528 -0.0102
  280POPC   C4A 3789   8.709   4.800   5.545  0.1632  0.1876 -0.0689
  280POPC   C1B 3790   8.796   4.819   4.362 -0.0637 -0.0955 -0.1393
  280POPC   C2B 3791   8.552   4.922   4.829 -0.0892 -0.0151  0.3859
  280POPC   C3B 3792   8.175   5.027   4.868  0.0246  0.0350  0.2962
  280POPC   C4B 3793   7.842   5.323   4.886 -0.4195  0.2502  0.2855
  281POPC   NC3 3794   6.775   2.439   4.402  0.1435  0.1066  0.2019
  281POPC   PO4 3795   6.457   2.666   4.576 -0.0716 -0.2124  0.3286
  281POPC   GL1 3796   6.232   2.526   4.980  0.0258  0.0477 -0.1510
  281POPC   GL2 3797   5.970   2.725   4.952  0.1045 -0.0457  0.4994
  281POPC   C1A 3798   6.066   2.431   5.409  0.1174  0.2340 -0.0776
  281POPC   D2A 3799   5.766   2.515   5.707  0.0184  0.2252 -0.0677
  281POPC   C3A 3800   5.382   2.369   5.774  0.0851  0.2228  0.2902
  281POPC   C4A 3801   4.965   2.135   5.839 -0.0605 -0.1698  0.0231
  281POPC   C1B 3802   5.657   2.847   5.183 -0.1951 -0.3670 -0.2870
  281POPC   C2B 3803   5.571   2.980   5.527  0.1475  0.1656 -0.0582
  281POPC   C3B 3804   5.408   2.902   5.909  0.0476 -0.0147 -0.2396
  281POPC   C4B 3805   5.617   2.698   6.301  0.1639  0.0223 -0.0559
  282POPC   NC3 3806   3.975   7.708   4.530 -0.1977 -0.0583  0.2186
  282POPC   PO4 3807   4.126   8.024   4.749 -0.2313 -0.1356  0.3079
  282POPC   GL1 3808   4.278   7.959   5.139  0.0603 -0.0499  0.0864
  282POPC   GL2 3809   4.452   8.270   5.169  0.3844 -0.1891  0.1293
  282POPC   C1A 3810   4.164   7.792   5.570  0.0502 -0.0648 -0.0097
  282POPC   D2A 3811   4.114   7.618   5.994  0.1632 -0.2795 -0.0264
  282POPC   C3A 3812   4.339   7.840   6.300  0.0909  0.1512  0.1247
  282POPC   C4A 3813   4.758   7.737   6.426 -0.0445  0.3253  0.0708
  282POPC   C1B 3814   4.025   8.308   5.362  0.1061 -0.2190  0.1406
  282POPC   C2B 3815   3.754   8.147   5.671  0.0074 -0.0547  0.2412
  282POPC   C3B 3816   3.444   8.075   5.985 -0.2788 -0.0301 -0.1731
  282POPC   C4B 3817   3.606   7.800   6.275  0.1679 -0.0588 -0.1944
  283POPC   NC3 3818   9.041   0.456   4.664  0.0676 -0.0279  0.0930
  283POPC   PO4 3819   8.590   0.625   4.686 -0.0346  0.0668  0.1922
  283POPC   GL1 3820   8.730   0.567   5.048  0.0154 -0.0698 -0.2324
  283POPC   GL2 3821   8.485   0.514   5.165 -0.0560 -0.4292  0.0519
  283POPC   C1A 3822   9.069   0.441   5.334 -0.1931  0.2523 -0.2041
  283POPC   D2A 3823   9.448   0.404   5.387 -0.1262  0.1110  0.0168
  283POPC   C3A 3824   9.608   0.664   5.779 -0.0121 -0.0664 -0.1350
  283POPC   C4A 3825   9.898   0.671   6.211 -0.0784 -0.1126  0.3616
  283POPC   C1B 3826   8.598   0.531   5.561  0.1070  0.2839  0.3534
  283POPC   C2B 3827   8.662   0.569   6.068  0.0750  0.1433  0.0652
  283POPC   C3B 3828   8.685   0.292   6.330 -0.0411 -0.0380  0.1085
  283POPC   C4B 3829   8.675  -0.096   6.498  0.3394  0.2405 -0.5448
  284POPC   NC3 3830   8.609   4.056   3.834 -0.1708  0.0165  0.0718
  284POPC   PO4 3831   8.575   3.688   4.111  0.1391 -0.1555 -0.2840
  284POPC   GL1 3832   8.602   3.939   4.395  0.2305  0.1296  0.0210
  284POPC   GL2 3833   8.753   3.916   4.745 -0.0853  0.2625 -0.0755
  284POPC   C1A 3834   8.480   4.352   4.624  0.0116 -0.0625  0.2358
  284POPC   D2A 3835   8.094   4.552   4.863  0.1761  0.0148  0.0955
  284POPC   C3A 3836   8.187   4.708   5.297 -0.0917  0.0393  0.0465
  284POPC   C4A 3837   8.109   4.840   5.628 -0.3821  0.0855 -0.5729
  284POPC   C1B 3838   9.049   3.848   5.019  0.1997  0.2147  0.0300
  284POPC   C2B 3839   9.204   3.688   5.385 -0.0602  0.2444  0.1341
  284POPC   C3B 3840   9.146   3.573   5.834 -0.2268  0.1386  0.2332
  284POPC   C4B 3841   9.424   3.229   6.018 -0.1654 -0.1274 -0.2478
  285POPC   NC3 3842   6.747   0.033   4.766 -0.2143 -0.2227 -0.1107
  285POPC   PO4 3843   6.566  -0.188   4.782  0.1062  0.4892  0.2311
  285POPC   GL1 3844   6.316  -0.248   5.080  0.0366 -0.1384 -0.1783
  285POPC   GL2 3845   6.204   0.136   5.044 -0.0011  0.1637 -0.2115
  285POPC   C1A 3846   6.280  -0.424   5.452 -0.1385  0.0420  0.0541
  285POPC   D2A 3847   6.090  -0.399   5.842 -0.0223 -0.0399  0.1058
  285POPC   C3A 3848   5.752  -0.139   5.961  0.1890  0.0668  0.2394
  285POPC   C4A 3849   5.533   0.196   6.129 -0.3057 -0.2063  0.1822
  285POPC   C1B 3850   5.965   0.004   5.403  0.2022 -0.3973 -0.0098
  285POPC   C2B 3851   5.685  -0.422   5.553 -0.2168 -0.0073 -0.0973
  285POPC   C3B 3852   5.408  -0.430   5.763  0.1296 -0.1501 -0.1175
  285POPC   C4B 3853   5.165  -0.177   6.059 -0.1911  0.1554  0.0797
  286POPC   NC3 3854   5.835   5.171   4.770  0.3474  0.2282 -0.1899
  286POPC   PO4 3855   6.265   5.378   4.865  0.0335 -0.1411 -0.2414
  286POPC   GL1 3856   6.105   5.540   5.206  0.0509 -0.1407 -0.0679
  286POPC   GL2 3857   5.770   5.501   5.396 -0.0374  0.0052  0.0153
  286POPC   C1A 3858   6.372   5.622   5.533  0.1396 -0.0736  0.1260
  286POPC   D2A 3859   6.486   5.914   5.841 -0.0108  0.0443  0.1523
  286POPC   C3A 3860   6.662   5.645   6.167 -0.1350 -0.0197 -0.2053
  286POPC   C4A 3861   6.602   5.372   6.429  0.0231 -0.2519  0.1684
  286POPC   C1B 3862   5.946   5.510   5.754 -0.1553 -0.0478 -0.4615
  286POPC   C2B 3863   6.120   5.573   6.150 -0.2199 -0.0988 -0.0392
  286POPC   C3B 3864   6.280   5.744   6.509  0.1299  0.0993  0.2729
  286POPC   C4B 3865   6.319   5.650   6.879 -0.2228  0.0679  0.1118
  287POPC   NC3 3866   8.066   3.356   4.615 -0.1383  0.3827  0.0666
  287POPC   PO4 3867   8.109   3.774   4.346 -0.2323  0.1370 -0.0918
  287POPC   GL1 3868   8.228   3.854   4.745  0.0763 -0.2185 -0.0477
  287POPC   GL2 3869   8.394   3.657   4.895  0.0808 -0.0037  0.3643
  287POPC   C1A 3870   8.328   4.173   5.196 -0.2839  0.0263  0.0734
  287POPC   D2A 3871   8.702   4.086   5.229 -0.1937  0.1571 -0.0524
  287POPC   C3A 3872   8.952   4.074   5.571 -0.0210 -0.2577  0.0261
  287POPC   C4A 3873   9.320   3.984   5.864 -0.1257 -0.3756  0.1680
  287POPC   C1B 3874   8.361   3.609   5.242  0.1374 -0.3091  0.2177
  287POPC   C2B 3875   8.220   3.823   5.577 -0.1259 -0.1185  0.0110
  287POPC   C3B 3876   8.080   4.042   5.974  0.1364 -0.1518  0.2446
  287POPC   C4B 3877   8.144   4.513   6.057 -0.0387  0.2151  0.1542
  288POPC   NC3 3878   0.495   2.328   4.714  0.0950 -0.0156 -0.1703
  288POPC   PO4 3879   0.727   1.848   4.588  0.2744 -0.1840  0.0031
  288POPC   GL1 3880   0.715   1.818   5.008  0.0801  0.1733 -0.2041
  288POPC   GL2 3881   0.797   2.082   5.157 -0.2610 -0.0243 -0.0174
  288POPC   C1A 3882   0.594   1.607   5.409 -0.3665  0.3036  0.2869
  288POPC   D2A 3883   0.506   1.826   5.711 -0.1470  0.1166  0.1004
  288POPC   C3A 3884   0.572   1.831   6.138  0.1351  0.3662  0.0478
  288POPC   C4A 3885   0.615   1.799   6.566  0.0390  0.2627  0.2346
  288POPC   C1B 3886   0.653   2.249   5.430  0.0575 -0.3322 -0.0527
  288POPC   C2B 3887   0.765   2.312   5.779  0.0855  0.2331 -0.0807
  288POPC   C3B 3888   0.623   2.685   6.027 -0.0284 -0.0405  0.0873
  288POPC   C4B 3889   0.314   2.793   6.330 -0.3064 -0.0864  0.2296
  289POPC   NC3 3890   1.133   1.981   4.818  0.2056 -0.2171  0.0995
  289POPC   PO4 3891   1.073   2.443   4.918  0.1082  0.0687  0.0804
  289POPC   GL1 3892   0.824   2.701   5.229 -0.4046  0.0125 -0.2069
  289POPC   GL2 3893   0.537   2.687   5.109 -0.3412 -0.0953  0.0573
  289POPC   C1A 3894   0.639   2.945   5.599  0.0338 -0.0011 -0.1158
  289POPC   D2A 3895   0.464   3.196   5.994 -0.0342 -0.0134 -0.1564
  289POPC   C3A 3896   0.051   3.341   6.135  0.0196 -0.0664 -0.1551
  289POPC   C4A 3897  -0.270   3.377   6.455  0.0827 -0.1572  0.2037
  289POPC   C1B 3898   0.338   3.037   5.189 -0.0792  0.1422  0.0496
  289POPC   C2B 3899   0.317   3.512   5.207  0.1858 -0.0324  0.2084
  289POPC   C3B 3900   0.316   3.901   5.399  0.5454 -0.2735 -0.1506
  289POPC   C4B 3901   0.111   4.240   5.432 -0.1164 -0.0772  0.0589
  290POPC   NC3 3902   2.799   5.108   3.521  0.0127 -0.1803 -0.0055
  290POPC   PO4 3903   2.676   5.557   3.624 -0.0135 -0.2701  0.0538
  290POPC   GL1 3904   2.314   5.848   3.594 -0.1231 -0.2638 -0.0383
  290POPC   GL2 3905   2.079   5.682   3.903  0.0571 -0.1835  0.3493
  290POPC   C1A 3906   2.157   6.261   3.717 -0.0980 -0.0427 -0.0743
  290POPC   D2A 3907   2.363   6.649   3.888 -0.0716  0.0266 -0.0395
  290POPC   C3A 3908   2.427   6.918   4.201 -0.2027  0.1455  0.0710
  290POPC   C4A 3909   2.455   7.440   4.094  0.3612 -0.0279  0.1546
  290POPC   C1B 3910   2.381   5.661   4.342 -0.2170 -0.0288  0.3032
  290POPC   C2B 3911   2.760   5.672   4.686 -0.0606  0.0955  0.1111
  290POPC   C3B 3912   3.115   5.955   4.601 -0.2595  0.3343 -0.0365
  290POPC   C4B 3913   3.282   6.329   4.467 -0.2360 -0.0841  0.1080
  291POPC   NC3 3914   8.522   3.387   4.485 -0.4210  0.4148 -0.2776
  291POPC   PO4 3915   8.454   3.030   4.470  0.0885  0.0743 -0.1060
  291POPC   GL1 3916   8.329   3.111   4.927  0.0132 -0.0874 -0.1543
  291POPC   GL2 3917   8.046   3.218   5.105  0.0675 -0.0576 -0.4213
  291POPC   C1A 3918   8.405   3.144   5.455 -0.0277  0.2041 -0.1124
  291POPC   D2A 3919   8.480   3.220   5.917  0.1676  0.0218 -0.1364
  291POPC   C3A 3920   8.365   3.594   6.201  0.0391 -0.3045  0.0421
  291POPC   C4A 3921   8.189   3.857   6.522 -0.0689  0.0046 -0.0847
  291POPC   C1B 3922   7.845   3.328   5.508 -0.0343 -0.0516 -0.1494
  291POPC   C2B 3923   7.940   3.445   5.935 -0.1656  0.1872 -0.1604
  291POPC   C3B 3924   7.771   3.717   6.168  0.2752  0.1544 -0.2633
  291POPC   C4B 3925   7.637   3.993   6.495 -0.0984  0.1846  0.2287
  292POPC   NC3 3926   3.068   2.640   4.913  0.1727 -0.1373  0.3629
  292POPC   PO4 3927   2.773   2.283   4.777  0.3463  0.2663  0.0270
  292POPC   GL1 3928   2.804   2.361   5.219  0.0004 -0.0448  0.0462
  292POPC   GL2 3929   2.552   2.506   5.311  0.1830  0.0532 -0.1880
  292POPC   C1A 3930   3.204   2.317   5.571 -0.0723  0.1551  0.0959
  292POPC   D2A 3931   3.297   2.565   5.931  0.1685 -0.2256  0.0681
  292POPC   C3A 3932   3.181   2.407   6.383  0.1071  0.1803 -0.3899
  292POPC   C4A 3933   3.156   2.394   6.785  0.0307  0.1092  0.2815
  292POPC   C1B 3934   2.328   2.508   5.765  0.0049  0.1848 -0.5538
  292POPC   C2B 3935   1.966   2.558   6.007  0.0650 -0.2830  0.2992
  292POPC   C3B 3936   1.674   2.267   6.198 -0.0467 -0.1325  0.2395
  292POPC   C4B 3937   1.832   1.884   6.309  0.2155 -0.0930  0.3103
  293POPC   NC3 3938   7.856   5.669   4.175 -0.0541  0.2398 -0.4454
  293POPC   PO4 3939   7.937   5.244   4.248 -0.0374  0.1285  0.2131
  293POPC   GL1 3940   8.199   5.437   4.500  0.0326  0.0118 -0.2275
  293POPC   GL2 3941   8.392   5.717   4.399 -0.0977  0.1523 -0.4065
  293POPC   C1A 3942   8.423   5.438   4.956  0.2527 -0.0597  0.1967
  293POPC   D2A 3943   8.675   5.214   5.225  0.0876 -0.0869  0.0084
  293POPC   C3A 3944   8.850   5.327   5.557  0.2521 -0.3046 -0.2188
  293POPC   C4A 3945   9.108   5.632   5.817  0.1841  0.0513  0.0049
  293POPC   C1B 3946   8.668   5.844   4.610  0.1148  0.3763 -0.0584
  293POPC   C2B 3947   9.060   6.060   4.516  0.1780 -0.2915 -0.0236
  293POPC   C3B 3948   8.991   6.495   4.682 -0.0016 -0.1685 -0.0634
  293POPC   C4B 3949   8.787   6.883   4.412  0.2741  0.1284  0.2093
  294POPC   NC3 3950   6.806   4.567   4.125 -0.3814  0.1670  0.3240
  294POPC   PO4 3951   6.376   4.480   4.446  0.2099  0.1470  0.1175
  294POPC   GL1 3952   6.526   4.405   4.865  0.0147 -0.1963  0.0768
  294POPC   GL2 3953   6.294   4.408   4.997 -0.1524  0.0878  0.1779
  294POPC   C1A 3954   6.704   4.444   5.307  0.2027 -0.3466  0.0175
  294POPC   D2A 3955   6.915   4.394   5.700 -0.0355  0.2168 -0.0638
  294POPC   C3A 3956   7.220   4.713   5.905 -0.3682  0.1559  0.0045
  294POPC   C4A 3957   7.404   4.940   6.263  0.2654 -0.2515 -0.1177
  294POPC   C1B 3958   6.161   4.626   5.343 -0.1925  0.0703  0.1478
  294POPC   C2B 3959   6.023   4.761   5.804 -0.2474  0.0225 -0.0366
  294POPC   C3B 3960   5.801   4.545   6.116  0.0999 -0.0154  0.1831
  294POPC   C4B 3961   5.503   4.715   6.459  0.1455  0.0535 -0.0049
  295POPC   NC3 3962   6.884   6.788   4.847 -0.1124 -0.0912 -0.0882
  295POPC   PO4 3963   6.384   6.799   4.895 -0.0010  0.2135  0.0134
  295POPC   GL1 3964   6.165   6.663   5.273 -0.1216  0.3525 -0.5630
  295POPC   GL2 3965   5.815   6.456   5.349 -0.4032 -0.1975 -0.0047
  295POPC   C1A 3966   6.126   6.885   5.713 -0.0023 -0.0697  0.0987
  295POPC   D2A 3967   6.225   6.824   6.171 -0.1084  0.0830 -0.0592
  295POPC   C3A 3968   6.584   6.637   6.405  0.0251  0.0814  0.2375
  295POPC   C4A 3969   6.967   6.742   6.501  0.5386  0.2829  0.0173
  295POPC   C1B 3970   6.033   6.429   5.794  0.3274 -0.1328 -0.1178
  295POPC   C2B 3971   6.255   6.283   6.051  0.4277  0.0545  0.0025
  295POPC   C3B 3972   6.527   6.145   6.300 -0.0073 -0.0260 -0.0026
  295POPC   C4B 3973   6.728   5.885   6.656  0.0038  0.0862  0.1230
  296POPC   NC3 3974   1.828   8.843   3.697  0.0353 -0.0725  0.2478
  296POPC   PO4 3975   2.312   8.956   3.885 -0.3933  0.2241  0.1998
  296POPC   GL1 3976   2.161   8.673   4.123  0.0417  0.2212  0.1984
  296POPC   GL2 3977   2.227   8.379   3.868 -0.1612  0.2106 -0.4730
  296POPC   C1A 3978   2.266   8.218   4.352 -0.3344  0.0031  0.1307
  296POPC   D2A 3979   2.396   7.876   4.292 -0.3878 -0.1909  0.3850
  296POPC   C3A 3980   2.725   7.635   4.585  0.0121 -0.2268  0.1694
  296POPC   C4A 3981   2.893   7.344   4.913 -0.1777 -0.1208 -0.0733
  296POPC   C1B 3982   2.126   7.893   3.829 -0.3307  0.0418  0.2431
  296POPC   C2B 3983   2.006   7.457   3.964  0.0090  0.0936 -0.1276
  296POPC   C3B 3984   1.899   6.987   3.911  0.0089  0.3265  0.0582
  296POPC   C4B 3985   1.817   6.581   4.014 -0.3815  0.1625  0.2154
  297POPC   NC3 3986   6.718   1.915   4.570  0.0444  0.2534  0.1613
  297POPC   PO4 3987   6.422   2.162   4.655 -0.0855  0.1929 -0.1076
  297POPC   GL1 3988   6.676   2.188   5.052 -0.2807 -0.0620  0.2284
  297POPC   GL2 3989   6.382   1.915   5.135  0.0579 -0.2012 -0.1053
  297POPC   C1A 3990   6.913   2.245   5.390  0.1347  0.0856 -0.0951
  297POPC   D2A 3991   6.956   2.275   5.778  0.0782  0.0385  0.1268
  297POPC   C3A 3992   6.687   2.240   6.088  0.3280  0.4106 -0.1373
  297POPC   C4A 3993   6.555   2.448   6.419 -0.3387  0.1369 -0.1201
  297POPC   C1B 3994   6.318   1.973   5.574  0.2344 -0.0334 -0.2406
  297POPC   C2B 3995   6.216   2.039   5.988 -0.0090  0.0546 -0.0056
  297POPC   C3B 3996   6.228   1.999   6.405  0.2296 -0.0478 -0.0222
  297POPC   C4B 3997   6.049   1.782   6.805 -0.1266 -0.0775  0.3849
  298POPC   NC3 3998   2.861   3.548   4.645 -0.0352  0.2028 -0.0632
  298POPC   PO4 3999   2.469   3.650   4.612  0.0139  0.2099 -0.1541
  298POPC   GL1 4000   2.195   3.682   4.962 -0.3398 -0.0666 -0.0083
  298POPC   GL2 4001   1.816   3.671   4.915  0.1523 -0.1944  0.0442
  298POPC   C1A 4002   2.214   4.086   5.051 -0.0009  0.0125  0.1395
  298POPC   D2A 4003   2.269   4.452   5.336  0.2641 -0.0968 -0.1315
  298POPC   C3A 4004   2.111   4.886   5.282 -0.0105 -0.1538  0.0928
  298POPC   C4A 4005   2.001   5.237   5.612 -0.0927  0.2307 -0.2709
  298POPC   C1B 4006   1.849   3.752   5.294  0.2960  0.2145 -0.2845
  298POPC   C2B 4007   1.901   3.629   5.801 -0.1553 -0.1129 -0.1558
  298POPC   C3B 4008   1.609   3.852   6.036  0.0553  0.2664 -0.3347
  298POPC   C4B 4009   1.448   4.154   6.125 -0.4471  0.3402 -0.1983
  299POPC   NC3 4010   9.504   0.011   5.123 -0.0413  0.2442  0.1402
  299POPC   PO4 4011   9.849   0.307   4.966  0.1137 -0.1458  0.0394
  299POPC   GL1 4012  10.111   0.381   5.342 -0.1231 -0.2749 -0.4263
  299POPC   GL2 4013  10.392   0.075   5.482 -0.2557  0.0138  0.0535
  299POPC   C1A 4014   9.983   0.293   5.809  0.2034 -0.1403  0.0171
  299POPC   D2A 4015   9.755   0.235   6.111  0.0309  0.1408 -0.2412
  299POPC   C3A 4016   9.319   0.445   6.105 -0.2065 -0.0924 -0.1888
  299POPC   C4A 4017   9.100   0.596   6.456 -0.1032 -0.3614 -0.1391
  299POPC   C1B 4018  10.516   0.085   5.872  0.0079 -0.1033  0.1720
  299POPC   C2B 4019  10.945   0.164   5.978 -0.3225  0.0441  0.0467
  299POPC   C3B 4020  10.981   0.222   6.560 -0.1747 -0.1975 -0.0287
  299POPC   C4B 4021  10.886   0.436   6.948  0.1868 -0.0723 -0.0975
  300POPC   NC3 4022   6.400   6.521   4.135 -0.1696  0.1620  0.0303
  300POPC   PO4 4023   6.623   6.382   4.563  0.4736  0.1974  0.0441
  300POPC   GL1 4024   6.485   6.325   4.996  0.2205 -0.2337  0.0244
  300POPC   GL2 4025   6.689   6.468   5.212  0.1002  0.0001  0.0102
  300POPC   C1A 4026   6.339   6.159   5.428 -0.3448  0.0956  0.0874
  300POPC   D2A 4027   5.922   6.027   5.562 -0.0499  0.1272 -0.0449
  300POPC   C3A 4028   5.822   6.015   6.029  0.1285  0.0172  0.1446
  300POPC   C4A 4029   5.695   6.400   6.266  0.0225 -0.0059 -0.0323
  300POPC   C1B 4030   6.843   6.268   5.596 -0.0458 -0.2097 -0.0803
  300POPC   C2B 4031   6.947   6.116   5.925  0.0947 -0.1483 -0.0568
  300POPC   C3B 4032   7.030   6.150   6.280 -0.0559 -0.0230  0.2232
  300POPC   C4B 4033   7.294   6.011   6.726 -0.1364 -0.2994  0.0987
  301POPC   NC3 4034   0.840   8.855   3.516 -0.2249  0.3109  0.1157
  301POPC   PO4 4035   0.859   9.096   3.933  0.1086 -0.1133 -0.0469
  301POPC   GL1 4036   1.046   9.009   4.353  0.1963 -0.2306 -0.2044
  301POPC   GL2 4037   1.231   8.835   4.383 -0.0149  0.1456 -0.0867
  301POPC   C1A 4038   0.953   9.033   4.804 -0.1360 -0.1024 -0.2309
  301POPC   D2A 4039   1.139   9.129   5.094  0.2012 -0.2537 -0.1782
  301POPC   C3A 4040   0.891   9.129   5.475 -0.1120 -0.3605  0.1285
  301POPC   C4A 4041   0.828   8.819   5.804 -0.1361 -0.1503 -0.2407
  301POPC   C1B 4042   1.461   8.943   4.733 -0.0830 -0.5030 -0.1758
  301POPC   C2B 4043   1.476   8.748   5.126  0.3413 -0.2165  0.3525
  301POPC   C3B 4044   1.773   8.925   5.486  0.0719 -0.0565  0.0164
  301POPC   C4B 4045   1.837   8.572   5.643 -0.1174  0.1113  0.1078
  302W        W 4046   4.417   9.851   8.780 -0.1254  0.3266  0.3210
  303W        W 4047   1.814   7.751  12.010 -0.1783 -0.2298  0.0834
  304W        W 4048   2.734   0.464   8.050 -0.1573  0.3694  0.4399
  305W        W 4049   9.566   5.084  10.512  0.0008  0.3257  0.0646
  306W        W 4050   1.095   6.109  10.965 -0.3118 -0.3267 -0.0666
  307W        W 4051   7.629   6.891   4.639 -0.2945 -0.0950 -0.3422
  308W        W 4052   0.597   9.154  11.466 -0.1297  0.4989 -0.0723
  309W        W 4053   6.993   3.592   8.520  0.1460  0.1137  0.2496
  310W        W 4054   2.155   3.921   3.421 -0.1069  0.0703 -0.1224
  311W        W 4055   3.813   7.429   2.375 -0.4608 -0.0555  0.3241
  312W        W 4056   0.374   7.347   1.495  0.2601 -0.1504  0.2041
  313W        W 4057   4.541   9.618   0.296 -0.3241 -0.1042  0.0619
  314W        W 4058   8.373   4.433   0.198 -0.1022  0.0428  0.0756
  315W        W 4059   1.590   2.547   0.799  0.2563 -0.1398  0.2390
  316W        W 4060   4.026   2.686   9.804  0.2310 -0.0257 -0.0459
  317W        W 4061   3.983   8.516   3.201  0.0935  0.0662  0.2035
  318W        W 4062   1.226   7.727   3.437 -0.3092  0.0840 -0.1670
  319W        W 4063   4.485   8.667   9.618 -0.0317  0.2983  0.0667
  320W        W 4064   1.374   0.680  10.201  0.2186  0.2065  0.1827
  321W        W 4065   0.699   7.988   2.011  0.0799 -0.1877  0.2287
  322W        W 4066   0.019   0.894  12.576 -0.0693  0.3365 -0.0163
  323W        W 4067   6.895   1.424   2.695  0.1047 -0.0564 -0.1831
  324W        W 4068   3.122   2.194   3.597 -0.0789 -0.1428 -0.0018
  325W        W 4069   9.529   0.876   8.319  0.1372 -0.2406 -0.1499
  326W        W 4070   5.786   6.729  11.172  0.0003  0.2019 -0.0048
  327W        W 4071   1.951   8.889   2.724 -0.0874  0.2854 -0.0193
  328W        W 4072   1.035   7.433   0.222  0.4733  0.0395 -0.1617
  329W        W 4073   9.259   3.775  12.929 -0.1473 -0.0969  0.2677
  330W        W 4074   3.282   2.487   1.506  0.2552 -0.0590  0.3114
  331W        W 4075   4.628   9.312   8.789  0.2300 -0.2746  0.2604
  332W        W 4076   4.039   1.949   8.613  0.2021  0.1546  0.1314
  333W        W 4077   6.803   7.782   0.800  0.0256  0.0956  0.0053
  334W        W 4078   2.140   5.886  10.665  0.0063 -0.0824  0.0582
  335W        W 4079   0.522   5.775  11.631 -0.3030 -0.0577  0.0363
  336W        W 4080   7.212   2.872   9.243  0.0299  0.0486 -0.1744
  337W        W 4081   7.377   0.170   2.579  0.0115 -0.0950 -0.2650
  338W        W 4082   9.299   0.646   9.807  0.2704  0.3706  0.2914
  339W        W 4083   5.481   2.192   8.161  0.0154 -0.2266 -0.0025
  340W        W 4084   9.333   3.382   3.505  0.1848 -0.0671  0.0168
  341W        W 4085   2.494   3.510  12.442 -0.3049 -0.1614 -0.0470
  342W        W 4086   9.784   9.003  10.791  0.4456  0.0997  0.0364
  343W        W 4087   9.051   2.881   3.165 -0.0397 -0.1070 -0.0004
  344W        W 4088   8.331   2.978  10.902  0.0563  0.0712 -0.0145
  345W        W 4089   7.947   6.596   3.677  0.0874 -0.1481 -0.2867
  346W        W 4090   6.102   8.953  11.122 -0.3094 -0.2414 -0.2512
  347W        W 4091   3.721   1.194  12.362  0.3109 -0.0849 -0.3042
  348W        W 4092   5.206   5.293   1.080 -0.3886 -0.4923  0.0004
  349W        W 4093   3.718   3.551   3.808 -0.0650  0.0315  0.1920
  350W        W 4094   7.489   0.801   1.235 -0.0918 -0.1092 -0.1097
  351W        W 4095   4.295   0.483  11.034 -0.2680 -0.5478 -0.2061
  352W        W 4096   2.563   8.905  11.729  0.1999 -0.1416  0.2423
  353W        W 4097   5.255   2.155   0.560 -0.1577  0.0135  0.1282
  354W        W 4098   6.199   4.702   9.274 -0.2041 -0.1275 -0.1154
  355W        W 4099   9.529   2.004   9.630  0.0760 -0.2148 -0.0799
  356W        W 4100   9.377   0.157   1.831 -0.2379 -0.2105  0.0537
  357W        W 4101   3.640   0.363   8.823  0.0865  0.2208  0.1107
  358W        W 4102   7.323   1.405   8.159 -0.1702  0.0521  0.0693
  359W        W 4103   4.916   6.763  11.446  0.3752  0.0471 -0.0080
  360W        W 4104   6.548   2.866   0.416  0.3126  0.1296  0.2042
  361W        W 4105   2.580   1.946   1.307 -0.0022  0.1103 -0.1410
  362W        W 4106   0.141   2.844   8.925  0.1356 -0.0733  0.2285
  363W        W 4107   3.356   1.558   1.486 -0.0691  0.1557 -0.0007
  364W        W 4108   8.575   3.655   3.040  0.1870  0.0873  0.0406
  365W        W 4109   8.692   2.398  10.170 -0.3368  0.3852 -0.2034
  366W        W 4110   3.839   6.743   2.533 -0.1328 -0.1022  0.0970
  367W        W 4111   0.631   5.717  11.133 -0.0578  0.2132  0.4458
  368W        W 4112   5.923   0.199   2.590 -0.0558 -0.0264 -0.1377
  369W        W 4113   7.767   3.295   3.288 -0.0877 -0.2161  0.0273
  370W        W 4114   1.811   4.227   0.020 -0.0705  0.1094  0.1470
  371W        W 4115   6.763   7.289   0.919  0.1013  0.2716 -0.0850
  372W        W 4116   7.809   4.765   3.575  0.1280 -0.3021 -0.2290
  373W        W 4117   8.207   2.606  10.182  0.2305  0.1250  0.0940
  374W        W 4118   4.472   5.797   0.135 -0.1861 -0.2002 -0.1079
  375W        W 4119   5.219   1.362   0.734 -0.2224  0.3909  0.0069
  376W        W 4120   5.432   9.210   0.022 -0.2129  0.0274  0.0340
  377W        W 4121   5.081   2.603   9.327  0.0578  0.4053 -0.2188
  378W        W 4122   6.216   9.361   0.721  0.0573  0.2331  0.0233
  379W        W 4123   2.376   2.757   9.612 -0.1001 -0.2979 -0.1942
  380W        W 4124   7.470   8.886   4.239 -0.1901 -0.0823 -0.1406
  381W        W 4125   4.706   1.522   8.066 -0.0523  0.2660  0.0139
  382W        W 4126   4.909   7.094   0.087  0.1460 -0.0192 -0.1330
  383W        W 4127   1.174   2.991   4.925  0.3172  0.1494 -0.0325
  384W        W 4128   7.758   5.220   8.884  0.0456 -0.1593 -0.3053
  385W        W 4129   9.298   7.020  11.512  0.1695  0.0394 -0.2087
  386W        W 4130   3.308   3.115   0.161  0.0405 -0.1572  0.0417
  387W        W 4131   5.233   9.434   2.347  0.4244  0.0271 -0.0444
  388W        W 4132   4.402   3.830  10.288 -0.0712  0.1716  0.1417
  389W        W 4133   6.661   6.741   9.980 -0.2415 -0.2380  0.1261
  390W        W 4134   7.946   5.093   2.695  0.1038  0.2287  0.0567
  391W        W 4135   0.287   9.228   1.910  0.3629  0.1921 -0.1685
  392W        W 4136   9.270   9.517   0.010  0.1535  0.0754 -0.0642
  393W        W 4137   6.870   7.529  10.444  0.3975 -0.2003  0.1010
  394W        W 4138   3.772   4.920  11.786 -0.1848  0.1582 -0.2642
  395W        W 4139   3.993   2.832   4.249 -0.0402  0.2503 -0.2252
  396W        W 4140   5.187   4.140   1.256 -0.0256  0.0874 -0.0300
  397W        W 4141   3.810   2.963   9.191  0.1859 -0.0667 -0.1704
  398W        W 4142   6.783   4.696   3.194  0.0103 -0.0733 -0.2980
  399W        W 4143   9.248   5.048   1.558  0.0062 -0.0552  0.1304
  400W        W 4144   6.887   2.544  11.444 -0.1294  0.0359  0.1514
  401W        W 4145   3.997   0.431   4.653 -0.1909 -0.0356  0.0194
  402W        W 4146   6.265   2.698   0.930 -0.2700 -0.0206  0.2286
  403W        W 4147   2.500   3.882  12.794 -0.0332  0.1782 -0.0292
  404W        W 4148   4.301   8.195   9.853 -0.4474  0.1338 -0.0308
  405W        W 4149   9.341   0.908   1.383 -0.1023  0.2883  0.1257
  406W        W 4150   1.962   2.502   3.266  0.3765  0.3248  0.2354
  407W        W 4151   3.176   6.544   2.786 -0.0227 -0.0577 -0.4715
  408W        W 4152   3.037   3.514  11.136  0.0233 -0.0125 -0.2137
  409W        W 4153   0.214   1.479   0.515 -0.4332 -0.0276 -0.1041
  410W        W 4154   0.331   0.408   2.324 -0.1198 -0.0451  0.0331
  411W        W 4155   8.669   4.409  12.684  0.4964 -0.4624  0.1773
  412W        W 4156   5.771   8.475   4.629 -0.1658  0.3351 -0.1984
  413W        W 4157   4.581   7.763   0.939  0.1274 -0.2690 -0.1332
  414W        W 4158   4.888   2.695  10.276 -0.0479 -0.2760  0.0756
  415W        W 4159   2.688   1.575   4.389  0.1764 -0.1605  0.1668
  416W        W 4160   7.375   2.010   1.213 -0.1746  0.0630  0.2811
  417W        W 4161   7.185   9.018   9.697 -0.2195 -0.0303  0.1674
  418W        W 4162   2.315   6.441   1.128  0.2203  0.0751  0.1947
  419W        W 4163   4.667   0.287  11.927  0.1119 -0.0749  0.3142
  420W        W 4164   7.322   3.332   1.805  0.0908  0.0915  0.5603
  421W        W 4165   8.650   0.828  11.772 -0.0490  0.0281  0.2682
  422W        W 4166   4.840   9.819  11.027  0.0809  0.2176 -0.1990
  423W        W 4167   2.105   8.187   0.068  0.0357  0.0194  0.3630
  424W        W 4168   2.038   3.103   1.114 -0.0421  0.1334 -0.3829
  425W        W 4169   1.131   0.114   1.103  0.1245  0.1637  0.5194
  426W        W 4170   3.164   9.169   9.164  0.0799  0.1356  0.2363
  427W        W 4171   7.020   9.793   3.936 -0.1444  0.0426  0.1482
  428W        W 4172   8.716   1.909   3.545 -0.0088 -0.2053  0.5366
  429W        W 4173   3.077   3.296   2.018 -0.3546 -0.0757 -0.1381
  430W        W 4174   0.577   2.239  10.731  0.2725  0.1316 -0.1344
  431W        W 4175   3.452   5.598   9.651  0.2758  0.1265  0.1195
  432W        W 4176   2.154   8.950  10.166 -0.0588  0.2793  0.0257
  433W        W 4177   5.763   1.402   1.961  0.1246 -0.0117  0.0677
  434W        W 4178   1.481   3.899   9.396  0.0516  0.0290 -0.1270
  435W        W 4179   0.914   8.742   0.048  0.0438  0.0434  0.0544
  436W        W 4180   7.942   2.379  12.101 -0.1757 -0.0190  0.1947
  437W        W 4181   9.864   0.219  12.171  0.0963 -0.2547  0.1572
  438W        W 4182   7.416   1.485   9.886 -0.3237 -0.3249 -0.0847
  439W        W 4183   0.942   9.217   2.451 -0.3513  0.4107 -0.1576
  440W        W 4184   5.872   4.399   3.418 -0.2250 -0.0629  0.0601
  441W        W 4185   9.151   5.478   9.453 -0.3644  0.2544 -0.1692
  442W        W 4186   5.402   4.019   9.492 -0.0817 -0.2218  0.4599
  443W        W 4187   3.466   8.925  11.690 -0.1728 -0.0850 -0.3681
  444W        W 4188   5.671   7.148   3.719  0.2689  0.4068 -0.1599
  445W        W 4189   8.535   6.660  12.702  0.0098  0.1206 -0.3450
  446W        W 4190   6.412   7.614  12.157  0.0883 -0.1447  0.0312
  447W        W 4191   3.791   1.343  11.775  0.2240  0.4338  0.0743
  448W        W 4192   3.780   1.655  10.882 -0.0385  0.2908 -0.0000
  449W        W 4193   7.152   6.851   0.541  0.2328  0.1057 -0.0150
  450W        W 4194   6.154   6.910   0.196  0.0251 -0.1652  0.5498
  451W        W 4195   4.716   6.281   9.720  0.0218 -0.3489 -0.4325
  452W        W 4196   6.352   2.860  10.585 -0.0404  0.0682 -0.0464
  453W        W 4197   6.164   6.681   2.729 -0.0214 -0.2178  0.1856
  454W        W 4198   0.589   8.277   1.196  0.0613  0.2144  0.4995
  455W        W 4199   4.861   8.185  10.589  0.1029 -0.0761  0.0770
  456W        W 4200   8.216   5.086   1.446  0.1199  0.4887 -0.1302
  457W        W 4201   7.212   6.757   2.412 -0.0948  0.1083  0.1231
  458W        W 4202   5.098   5.811   3.857  0.3091 -0.0454 -0.1077
  459W        W 4203   5.073   9.787   3.151 -0.4836  0.0821 -0.0636
  460W        W 4204   2.672   3.579  11.617 -0.1710 -0.0581  0.0680
  461W        W 4205   3.448   7.935   3.541  0.4393  0.0120 -0.0639
  462W        W 4206   1.016   6.189  12.036  0.0883 -0.2200  0.2831
  463W        W 4207   4.109   2.812   1.764 -0.0063 -0.0965 -0.0812
  464W        W 4208   1.216   4.796   3.061  0.1358  0.2030 -0.1306
  465W        W 4209   5.283   7.466   1.638 -0.0158 -0.0322 -0.4772
  466W        W 4210   4.086   1.625   2.210 -0.1805 -0.1040 -0.4293
  467W        W 4211   6.611   0.998   2.545  0.0289  0.2208 -0.0931
  468W        W 4212   4.071   5.084   0.340 -0.1657  0.2085 -0.1207
  469W        W 4213   8.477   2.692   9.279  0.1260  0.1129  0.0235
  470W        W 4214   6.995   0.799   3.387 -0.1467  0.0503 -0.2280
  471W        W 4215   6.527   7.993   1.754  0.0476  0.0063  0.0071
  472W        W 4216   0.800   8.131  10.231 -0.0279  0.0260  0.4243
  473W        W 4217   7.811   8.662   0.286 -0.0642 -0.2235  0.1196
  474W        W 4218   5.454   0.985  12.861  0.0299 -0.0182  0.2314
  475W        W 4219   4.199   6.351  12.433  0.1138  0.0347 -0.1564
  476W        W 4220   4.959   7.337  10.635 -0.3196 -0.0242 -0.2161
  477W        W 4221   0.302   2.341   0.733 -0.0080  0.1511  0.0018
  478W        W 4222   3.819   0.721  12.795  0.3023  0.0941 -0.0188
  479W        W 4223   5.996   6.692   1.329 -0.0761 -0.1232 -0.3623
  480W        W 4224   2.006   2.948   2.949  0.0086 -0.2599  0.1124
  481W        W 4225   4.774   4.459   1.362 -0.1047 -0.2674 -0.1212
  482W        W 4226   9.191   8.673   1.648 -0.3834 -0.4658  0.0927
  483W        W 4227   9.880   0.757   4.668  0.0790 -0.0419  0.1161
  484W        W 4228   6.488   9.830   0.399  0.3403  0.1972  0.2996
  485W        W 4229   6.431   9.015   4.241 -0.1009  0.1351 -0.1973
  486W        W 4230   2.467   1.438   0.744  0.0411 -0.2425  0.0583
  487W        W 4231   9.675   1.443   0.171  0.2486  0.0471  0.2479
  488W        W 4232   4.070   5.050  11.163  0.2310 -0.0045 -0.1335
  489W        W 4233   1.436   3.936  11.140  0.1166  0.1673 -0.3590
  490W        W 4234   5.028   0.928  12.482 -0.2121 -0.1907 -0.1583
  491W        W 4235   3.652   4.112   1.954  0.1919 -0.3744 -0.1547
  492W        W 4236   6.137   9.354  10.782  0.0442 -0.1936 -0.1210
  493W        W 4237   1.441   1.951   0.360  0.3014 -0.0482 -0.2835
  494W        W 4238   5.221   4.794  12.821  0.1661  0.2810  0.2290
  495W        W 4239   0.839   1.879  12.226  0.4540  0.0181 -0.1578
  496W        W 4240   3.765   3.149  12.283 -0.1827  0.1233 -0.1789
  497W        W 4241   4.642   0.682   0.593  0.0253  0.2853 -0.1470
  498W        W 4242   0.152   1.833   8.956 -0.0917  0.1073  0.1837
  499W        W 4243   3.103   7.831  12.728 -0.1512  0.0014 -0.0332
  500W        W 4244   7.855   2.261  10.354 -0.0859  0.1375  0.1911
  501W        W 4245   4.497   0.532   3.591 -0.1303 -0.0573  0.0903
  502W        W 4246   1.696   7.414  11.185  0.0937  0.0856 -0.0269
  503W        W 4247   5.489   7.802   9.173 -0.1292 -0.0231 -0.0330
  504W        W 4248   1.834   0.522  11.402 -0.4571 -0.1093 -0.0101
  505W        W 4249   4.265   5.697   2.149 -0.0422  0.0583 -0.1021
  506W        W 4250   4.936   4.662  11.163 -0.0557 -0.0711  0.3517
  507W        W 4251   3.199   0.086   8.916 -0.1094 -0.1061 -0.0299
  508W        W 4252   3.182   6.623  12.811  0.3042  0.3905  0.2514
  509W        W 4253   6.327   2.282   1.163 -0.0358 -0.0543  0.1772
  510W        W 4254   7.105   4.710  12.356 -0.0128  0.0348  0.0189
  511W        W 4255   0.075   8.150  10.905 -0.4562  0.3561  0.0904
  512W        W 4256   9.676   8.451   2.036 -0.4355  0.0391  0.1269
  513W        W 4257   4.817   9.100   1.245  0.1377  0.0746 -0.1384
  514W        W 4258   2.963   2.207   9.814  0.0833  0.1356 -0.1008
  515W        W 4259   4.205   9.397   3.546 -0.1127  0.0335 -0.2634
  516W        W 4260   4.082   7.687   0.957  0.1139 -0.1068 -0.1120
  517W        W 4261   9.460   0.503  12.901  0.0050 -0.3122 -0.3158
  518W        W 4262   4.677   9.241   2.284  0.0957  0.1290 -0.2381
  519W        W 4263   7.743   7.824  11.559  0.2097  0.0052  0.2334
  520W        W 4264   0.960   3.047   0.329  0.0859 -0.0114 -0.1987
  521W        W 4265   5.604   4.433   1.504  0.4214  0.0950 -0.1000
  522W        W 4266   9.372   9.039   2.113 -0.1282  0.0247  0.1186
  523W        W 4267   8.336   7.771   2.591  0.0764 -0.1369  0.1688
  524W        W 4268   0.321   6.733  11.218 -0.2459 -0.3022  0.2667
  525W        W 4269   0.680   3.805   1.802  0.0541 -0.3031 -0.0670
  526W        W 4270   0.988   2.319   1.634 -0.0953 -0.1230  0.0466
  527W        W 4271   5.581   3.230  10.537  0.3379 -0.2006 -0.1713
  528W        W 4272   3.868   4.612   9.802 -0.0167  0.0360  0.0226
  529W        W 4273   7.637   1.478   2.011 -0.0978  0.2461 -0.1814
  530W        W 4274   1.191   1.153   9.904  0.1326  0.1226  0.4057
  531W        W 4275   8.436   3.927  11.253  0.2206  0.1401  0.0717
  532W        W 4276   5.154   6.818   4.481 -0.0881  0.1923  0.0003
  533W        W 4277   4.320   7.667   3.165 -0.0178 -0.2311  0.1897
  534W        W 4278   4.707   2.759   2.939  0.4644 -0.2807 -0.1011
  535W        W 4279   8.263   3.567  10.140  0.0417  0.1034 -0.1770
  536W        W 4280   4.460   7.914   8.611  0.2781  0.1544  0.1758
  537W        W 4281   8.385   3.448   9.686 -0.0757  0.1799  0.1627
  538W        W 4282   6.502   5.389  10.252  0.1310 -0.1023  0.1377
  539W        W 4283   9.475   5.975   2.069 -0.0107 -0.1572 -0.2192
  540W        W 4284   7.305   6.293   2.614  0.0982  0.1628  0.2314
  541W        W 4285   7.531   6.154   3.572 -0.0066  0.0444 -0.0943
  542W        W 4286   9.573   8.546   9.556 -0.1445 -0.0759 -0.1875
  543W        W 4287   6.541   4.884   0.642 -0.1476  0.2618 -0.2813
  544W        W 4288   5.390   1.885   1.681 -0.1222 -0.0242  0.2866
  545W        W 4289   3.941   8.635  10.938  0.2592  0.0025 -0.0479
  546W        W 4290   2.852   4.948  10.211  0.0292  0.0745  0.1242
  547W        W 4291   6.374   4.585  10.758 -0.1462 -0.0238 -0.1595
  548W        W 4292   3.363   6.025   0.178 -0.0963 -0.0956  0.0424
  549W        W 4293   9.257   4.294  12.890  0.0324 -0.0018  0.0207
  550W        W 4294   1.100   1.288   3.653 -0.0095 -0.0031 -0.3192
  551W        W 4295   7.678   7.657   0.528 -0.4241 -0.0079  0.1242
  552W        W 4296   4.986   9.459   2.764 -0.0512  0.0753 -0.2144
  553W        W 4297   0.789   5.475   2.692 -0.3956 -0.2400  0.1776
  554W        W 4298   1.118   1.722   3.460 -0.1949 -0.2976  0.1006
  555W        W 4299   2.057   1.791   1.471  0.1764 -0.1161  0.0899
  556W        W 4300   4.296   6.223   4.416 -0.0424  0.2025 -0.0578
  557W        W 4301   5.287   1.960   4.402 -0.0930  0.0137  0.0351
  558W        W 4302   1.702   1.513   0.232 -0.1454 -0.0733  0.3624
  559W        W 4303   5.681   4.817   1.838  0.1090 -0.0606  0.0086
  560W        W 4304   5.754   0.795   3.986 -0.1643 -0.0987 -0.3223
  561W        W 4305   7.608   2.903  10.929 -0.2160 -0.0878  0.4348
  562W        W 4306   6.043   9.148   1.282  0.0859  0.1011 -0.1929
  563W        W 4307   1.723   1.903  11.444 -0.4150  0.1368 -0.0099
  564W        W 4308   5.334   2.238   2.055 -0.0204 -0.0312 -0.1280
  565W        W 4309   5.525   2.190   3.385  0.2128 -0.0300 -0.2553
  566W        W 4310   2.418   2.370  10.903  0.5549  0.0582 -0.0440
  567W        W 4311   6.449   9.303   3.840  0.1855  0.3548  0.3492
  568W        W 4312   3.625   7.755   9.922  0.0499 -0.1110 -0.0249
  569W        W 4313   0.820   0.633  11.052  0.0765 -0.2181 -0.3417
  570W        W 4314   5.565   1.574   4.527 -0.2364  0.3046  0.0898
  571W        W 4315   7.059   7.100  12.918  0.0278 -0.1059 -0.3523
  572W        W 4316   5.705   5.417  12.226  0.0380 -0.0447 -0.0111
  573W        W 4317   9.775   1.124   9.767  0.0740  0.0098  0.1253
  574W        W 4318   0.152   4.650  12.434 -0.1394 -0.0845 -0.1196
  575W        W 4319   0.974   2.322   4.446 -0.4441  0.2297 -0.1061
  576W        W 4320   0.563   9.427  10.265  0.0109  0.4082 -0.2477
  577W        W 4321   0.872   1.386  11.106  0.1666  0.0251 -0.1552
  578W        W 4322   3.099   8.349   3.338  0.1432 -0.1949  0.0098
  579W        W 4323   2.804   3.424  12.078  0.1068  0.0945  0.2250
  580W        W 4324   5.544   3.974   9.992 -0.1694  0.1516  0.0940
  581W        W 4325   6.211   7.013   1.720 -0.1440  0.0599 -0.0803
  582W        W 4326   9.737   1.133   1.179 -0.0212 -0.0342 -0.4445
  583W        W 4327   1.472   4.425  10.046 -0.0157  0.1769  0.4110
  584W        W 4328   9.445   2.435   2.054  0.0939 -0.1111 -0.0836
  585W        W 4329   6.950   4.997  10.011  0.0648  0.1144 -0.3036
  586W        W 4330   8.822   7.257   0.644  0.2263 -0.0038  0.1222
  587W        W 4331   9.817   3.257   9.821  0.0244 -0.1244  0.0473
  588W        W 4332   0.859   4.057   8.801 -0.1316  0.3469  0.0865
  589W        W 4333   6.621   2.326   0.114 -0.4373  0.2227  0.0494
  590W        W 4334   4.417   4.079   0.625  0.3437 -0.1463  0.1019
  591W        W 4335   6.672   4.086  10.819 -0.2766 -0.0584  0.0865
  592W        W 4336   7.567   8.748   1.838 -0.0100 -0.0867  0.2655
  593W        W 4337   1.164   1.379   1.270  0.0073  0.0532  0.1023
  594W        W 4338   8.866   0.854   4.330  0.2220 -0.2481 -0.1258
  595W        W 4339   4.145   5.049   9.687 -0.2594  0.0413 -0.2261
  596W        W 4340   8.240   3.057   1.003  0.2363  0.1923 -0.0041
  597W        W 4341   5.189   2.292   1.034 -0.1756 -0.1804  0.0823
  598W        W 4342   5.177   6.869   3.690 -0.2575  0.3481 -0.3290
  599W        W 4343   4.976   4.141   1.717 -0.1298 -0.3227  0.3862
  600W        W 4344   1.254   1.733   2.975  0.0347 -0.2996  0.0253
  601W        W 4345   2.319   3.909  11.753 -0.0667  0.0046 -0.1733
  602W        W 4346   2.461   8.950   1.554  0.2356  0.0853  0.1938
  603W        W 4347   3.268   0.328   3.565  0.0579 -0.0698 -0.1024
  604W        W 4348   0.574   9.566  12.402 -0.3105  0.2421  0.0176
  605W        W 4349   0.409   0.343  11.280  0.2147  0.2210 -0.1347
  606W        W 4350   7.362   2.599  10.279  0.0802  0.2823 -0.1035
  607W        W 4351   8.093   4.769   2.289 -0.0891  0.2160 -0.1660
  608W        W 4352   0.450   7.749  10.208  0.1230  0.2000  0.0421
  609W        W 4353   4.591   0.925  11.237 -0.3355  0.6306  0.3770
  610W        W 4354   5.514   7.749  10.123  0.0143  0.0582  0.1128
  611W        W 4355   2.136   4.537   1.049 -0.1569  0.3196 -0.0178
  612W        W 4356   6.566   0.737  11.907  0.0342 -0.0237  0.2789
  613W        W 4357   6.490   7.309   2.202 -0.0796  0.0569 -0.3039
  614W        W 4358   3.209   7.680  10.936  0.0136 -0.2174  0.0333
  615W        W 4359   7.219   0.738   9.751 -0.2441  0.0846  0.0546
  616W        W 4360   8.235   7.892   0.372 -0.1184 -0.2518  0.0279
  617W        W 4361   8.466   2.567  11.377  0.0166 -0.0527  0.2373
  618W        W 4362   2.559   6.442  11.644 -0.0493 -0.0389 -0.0608
  619W        W 4363   2.960   4.314   4.582 -0.1225  0.2478  0.1135
  620W        W 4364   5.074   0.824   0.363  0.0127  0.1741 -0.0822
  621W        W 4365   8.797   7.026   0.170 -0.0091  0.0423 -0.0493
  622W        W 4366   7.288   5.354   9.101  0.1086  0.2530 -0.1047
  623W        W 4367   4.972   6.025  10.180 -0.1445  0.1640 -0.1600
  624W        W 4368   4.861   9.158   0.724  0.0405  0.0766  0.0960
  625W        W 4369   0.743   0.316   2.059  0.1707  0.2587  0.1514
  626W        W 4370   4.186   3.719   8.102 -0.0919  0.1446 -0.3710
  627W        W 4371   7.059   9.387   2.081 -0.2411 -0.2895 -0.1145
  628W        W 4372   7.842   0.137  10.999 -0.0360  0.1819 -0.2062
  629W        W 4373   4.268   3.733   1.810  0.1113  0.2394 -0.2695
  630W        W 4374   6.170   1.256   3.222  0.2558  0.1010  0.2148
  631W        W 4375   7.957   0.796  10.248  0.1823 -0.0498 -0.2415
  632W        W 4376   9.021   1.858   1.137 -0.0323 -0.1350 -0.1164
  633W        W 4377   3.830   5.467   2.024 -0.1316 -0.1878  0.1548
  634W        W 4378   0.455   5.297   5.506 -0.4081 -0.0088 -0.1632
  635W        W 4379   4.838   4.033   2.566  0.1790 -0.0201 -0.0565
  636W        W 4380   9.268   5.623  10.394  0.1758  0.0890  0.2878
  637W        W 4381   7.274   8.559   4.661 -0.0563 -0.0860  0.6947
  638W        W 4382   3.234   2.328   9.403  0.0240 -0.4495 -0.0470
  639W        W 4383   1.916   1.992   0.141  0.3624 -0.3930  0.0661
  640W        W 4384   9.306   9.798   2.284  0.0648  0.1713  0.0035
  641W        W 4385   0.976   1.392  10.323 -0.0110  0.1845 -0.1722
  642W        W 4386   1.049   3.300   9.288 -0.2726  0.2093  0.0347
  643W        W 4387   5.833   7.093   2.665 -0.1153  0.0167 -0.0503
  644W        W 4388   2.128   2.349   9.236 -0.3208  0.1895 -0.1660
  645W        W 4389   7.075   7.894   1.618  0.2976  0.0683 -0.2627
  646W        W 4390   9.492   3.113  10.467 -0.1192  0.1009  0.0853
  647W        W 4391   5.619   1.810   9.462  0.1612 -0.3178  0.3105
  648W        W 4392   5.167   6.897  11.057  0.1686 -0.1962  0.2291
  649W        W 4393   3.308   2.923  10.565  0.0778  0.0241 -0.0052
  650W        W 4394   9.870   0.618   2.057 -0.1291 -0.2636 -0.1094
  651W        W 4395   3.929   2.787  11.778  0.0977 -0.1963  0.2912
  652W        W 4396   3.480   7.301   3.109  0.2329  0.0967  0.1720
  653W        W 4397   8.803   9.038  12.185  0.0398  0.2177 -0.3159
  654W        W 4398   0.169   3.033  12.168  0.0219  0.1618 -0.1292
  655W        W 4399   1.867   1.348   1.459 -0.2576  0.1501  0.2438
  656W        W 4400   9.004   5.634  11.359 -0.0926  0.0645  0.0948
  657W        W 4401   8.772   7.193  10.343  0.3332 -0.2082  0.1187
  658W        W 4402   0.911   7.793   9.793  0.0984  0.1324  0.0621
  659W        W 4403   4.726   7.139  10.239 -0.0535  0.0689  0.1191
  660W        W 4404   8.431   0.911   0.131 -0.2487  0.2001  0.4798
  661W        W 4405   5.983   2.868   0.108  0.0723 -0.1084 -0.1956
  662W        W 4406   8.089   2.826   4.174 -0.3428  0.0438 -0.3369
  663W        W 4407   0.102   2.543   2.056 -0.2544  0.0213 -0.1800
  664W        W 4408   1.072   7.309  11.744 -0.3002 -0.0434  0.0299
  665W        W 4409   9.526   9.034  12.568  0.1371  0.1597 -0.1469
  666W        W 4410   6.100   0.715  11.734 -0.1177  0.2775 -0.0430
  667W        W 4411   3.686   4.639  10.410  0.1529 -0.1721  0.0279
  668W        W 4412   1.954   8.831   0.735  0.2564  0.0953  0.1793
  669W        W 4413   7.471   4.622   0.562  0.3577 -0.2362 -0.0882
  670W        W 4414   1.034   7.065  10.555  0.1261  0.0313 -0.1743
  671W        W 4415   1.859   2.406  10.738  0.2715  0.1110 -0.0668
  672W        W 4416   8.073   7.400   0.559  0.1033  0.1079  0.0514
  673W        W 4417   7.804   4.836   4.042 -0.2033  0.1015  0.0156
  674W        W 4418   8.145   8.216  10.843  0.0971 -0.1199 -0.2162
  675W        W 4419   0.570   2.945  11.495  0.1975  0.0815 -0.0417
  676W        W 4420   9.631   5.718   1.057 -0.1217  0.0192 -0.1412
  677W        W 4421   3.350   3.360   1.586 -0.1176  0.1322  0.1458
  678W        W 4422   4.776   4.839   2.105  0.0432  0.0228  0.3434
  679W        W 4423   5.465   4.085  10.519  0.1631 -0.0833  0.1861
  680W        W 4424   6.297   8.953   8.672 -0.0732  0.1799  0.0009
  681W        W 4425   4.750   3.149   8.578 -0.0007 -0.4138  0.1142
  682W        W 4426   0.729   7.802   3.553 -0.0225 -0.1804  0.0614
  683W        W 4427   6.810   1.379   8.814 -0.0032 -0.2015  0.0129
  684W        W 4428   6.642   9.694  10.604 -0.1052  0.2288  0.0095
  685W        W 4429   6.506   8.363  11.666 -0.0869 -0.1778  0.2170
  686W        W 4430   8.625   3.548   2.155 -0.1669  0.0176  0.4719
  687W        W 4431   3.206   5.123   8.818 -0.1393  0.2059  0.1564
  688W        W 4432   4.812   7.769   2.589  0.1339  0.0074 -0.2243
  689W        W 4433   1.251   3.913   9.896  0.6431  0.0720 -0.2046
  690W        W 4434   1.075   9.190  11.213 -0.1237 -0.0319 -0.0855
  691W        W 4435   0.254   9.474   3.318  0.1694 -0.1922 -0.0414
  692W        W 4436   5.399   2.591   3.662 -0.1816 -0.2881  0.0733
  693W        W 4437   7.004   9.590  10.972 -0.2483  0.0150  0.0707
  694W        W 4438   0.869   6.126  11.503  0.1402  0.2889 -0.1612
  695W        W 4439   1.574   7.612   9.835  0.2071  0.0318  0.0229
  696W        W 4440   0.131   6.535   7.196  0.0963  0.0808  0.0885
  697W        W 4441   3.044   7.910   2.786  0.0307 -0.0607  0.0391
  698W        W 4442   6.738   1.919  12.702  0.0195  0.0349  0.1204
  699W        W 4443   1.397   8.207   1.723 -0.1309 -0.3110  0.2025
  700W        W 4444   3.481   9.189  10.334 -0.0455 -0.3062  0.0574
  701W        W 4445   0.844   9.594   8.921  0.1503 -0.3222  0.0518
  702W        W 4446   4.705   2.021  11.332 -0.1970  0.1041  0.2633
  703W        W 4447   2.025   7.144   3.198 -0.1691  0.1852  0.0052
  704W        W 4448   1.055   8.060   9.045  0.5083  0.0614 -0.3630
  705W        W 4449   0.019   7.009   1.019  0.0462 -0.0732 -0.0988
  706W        W 4450   4.418   5.336   3.027 -0.0648 -0.1028 -0.2115
  707W        W 4451   3.726   6.574   3.674  0.3962 -0.1878  0.1506
  708W        W 4452   2.170   2.714  11.742 -0.0626 -0.0246 -0.2576
  709W        W 4453   8.674   4.797  11.025 -0.1098 -0.0299 -0.0087
  710W        W 4454   5.831   9.553   9.883  0.0595 -0.1336 -0.1051
  711W        W 4455   6.160   4.079   9.350  0.3906 -0.1693 -0.3270
  712W        W 4456   5.234   0.331   2.833  0.1991 -0.1819 -0.2584
  713W        W 4457   3.642   2.316  12.724 -0.0886 -0.2331  0.0645
  714W        W 4458   8.833   6.335  11.787  0.2742  0.3878 -0.1374
  715W        W 4459   6.253   1.069  11.236  0.1658  0.0322 -0.0401
  716W        W 4460   3.768   7.533   1.785 -0.1136  0.0152 -0.4771
  717W        W 4461   8.715   5.663   2.136  0.2912  0.3259  0.1658
  718W        W 4462   5.948   6.574   0.828  0.0042 -0.1619  0.0565
  719W        W 4463   8.491   8.251   0.634  0.2262  0.0738 -0.2105
  720W        W 4464   9.223   4.599   2.989  0.1559  0.0375  0.1839
  721W        W 4465   4.880   8.487   3.927 -0.1831  0.2133  0.0314
  722W        W 4466   5.115   5.571  10.090 -0.0017  0.0485 -0.1483
  723W        W 4467   0.387   7.851   2.447 -0.1956 -0.0242  0.2168
  724W        W 4468   3.766   8.704  10.416  0.1838 -0.1543 -0.1534
  725W        W 4469   8.494   7.724  10.826  0.0726  0.2857  0.1620
  726W        W 4470   3.080   4.668   2.587 -0.0554 -0.0139  0.0527
  727W        W 4471   0.949   7.496   3.094 -0.1941  0.2220 -0.1624
  728W        W 4472   6.370   8.551  11.184 -0.0219 -0.2397  0.2945
  729W        W 4473   9.317   8.484   0.319 -0.1154 -0.0503  0.0616
  730W        W 4474   9.478   1.469   2.169 -0.0217  0.0320 -0.3609
  731W        W 4475   5.962   5.201   1.700 -0.1609 -0.0345  0.3093
  732W        W 4476   4.849   9.190  12.417 -0.0618 -0.2854 -0.2194
  733W        W 4477   5.225   3.542   3.478 -0.0356 -0.1000 -0.3321
  734W        W 4478   4.949   0.820  11.971 -0.2160 -0.1977  0.1258
  735W        W 4479   0.347   0.514   0.540  0.2411  0.2511  0.0473
  736W        W 4480   6.526   4.354   2.111  0.2108  0.1937 -0.4309
  737W        W 4481   4.011   3.830  11.728 -0.0401  0.0618 -0.0647
  738W        W 4482   7.202   8.427   9.395  0.2140  0.1919  0.0893
  739W        W 4483   2.983   5.028   3.003 -0.1875  0.3505  0.0939
  740W        W 4484   9.404   6.875   3.033 -0.0746 -0.3794  0.1137
  741W        W 4485   3.836   8.442   4.808  0.3201  0.0303  0.0575
  742W        W 4486   4.277   7.749   2.342 -0.0015 -0.0184  0.0431
  743W        W 4487   5.903   2.196   3.072  0.2680  0.2015  0.1575
  744W        W 4488   2.638   5.655  11.404 -0.0314  0.1085  0.2882
  745W        W 4489   3.342   9.640  11.962 -0.2780 -0.1604  0.0615
  746W        W 4490   3.057   6.811   1.477 -0.2014 -0.2557 -0.5572
  747W        W 4491   1.360   2.056   9.182  0.1964  0.2113  0.2853
  748W        W 4492   3.217   8.115  12.237 -0.0733  0.0360  0.3767
  749W        W 4493   4.804   1.681  10.210 -0.0038 -0.1563 -0.4504
  750W        W 4494   4.846   2.311   1.469 -0.1338  0.0633  0.0292
  751W        W 4495   6.862   9.366   4.110 -0.5056  0.0585 -0.1272
  752W        W 4496   1.374   0.318   3.256 -0.1128  0.5410 -0.1302
  753W        W 4497   2.896   4.831  11.885  0.2416 -0.0384  0.2022
  754W        W 4498   0.554   8.567  10.017 -0.1968  0.1285  0.1953
  755W        W 4499   8.436   4.107  11.773 -0.1571 -0.1344  0.0516
  756W        W 4500   3.708   2.165   0.887  0.4959  0.0297 -0.1574
  757W        W 4501   2.124   0.888  11.097 -0.2242 -0.2722 -0.1047
  758W        W 4502   3.292   3.983  10.772 -0.3473 -0.2423  0.0386
  759W        W 4503   9.741   2.857  10.114  0.1284  0.1594  0.1068
  760W        W 4504   2.166   6.014   9.592  0.1487  0.1476 -0.0128
  761W        W 4505   4.020   8.762   1.981 -0.0273  0.0300 -0.1663
  762W        W 4506   7.204   5.847  10.540 -0.0498 -0.2291  0.2227
  763W        W 4507   7.541   7.488   3.761 -0.4403 -0.3172  0.0735
  764W        W 4508   5.807   6.228  11.941 -0.2419 -0.1455 -0.2745
  765W        W 4509   7.640   8.364   9.598 -0.2285 -0.5224 -0.0854
  766W        W 4510   7.193   1.814  12.853 -0.1247  0.0550  0.1994
  767W        W 4511   3.620   9.001  10.768  0.5227 -0.2194  0.3584
  768W        W 4512   2.045   0.854   9.117  0.0917  0.0350 -0.0140
  769W        W 4513   1.883   0.950   3.795 -0.1328  0.1765 -0.0866
  770W        W 4514   6.885   9.411   3.099 -0.1274 -0.2907  0.1639
  771W        W 4515   1.852   7.967  11.132  0.1154 -0.1484  0.1439
  772W        W 4516   2.053   5.762   2.872  0.0830 -0.4460  0.1251
  773W        W 4517   7.431   2.274  11.681 -0.1353 -0.1027  0.1292
  774W        W 4518   6.343   2.464   3.214  0.3386  0.1432 -0.0471
  775W        W 4519   2.562   5.865   9.801 -0.1230  0.0881  0.1828
  776W        W 4520   5.044   8.606   3.401 -0.1752  0.0487 -0.2764
  777W        W 4521   2.870   2.734   3.660 -0.1378  0.0590 -0.1272
  778W        W 4522   1.649   5.843   1.595  0.0142 -0.3085 -0.4261
  779W        W 4523   1.463   6.934   2.381  0.0684 -0.2364  0.0834
  780W        W 4524   6.089   3.589   8.088 -0.1688  0.2758 -0.2534
  781W        W 4525   3.396   6.536   0.900 -0.2555  0.0407  0.3187
  782W        W 4526   8.141   9.420  12.922 -0.1278  0.3579 -0.1828
  783W        W 4527   8.464   5.622  11.128 -0.0586 -0.0440  0.2916
  784W        W 4528   8.492   9.211   1.152  0.0422  0.3891 -0.0092
  785W        W 4529   9.485   8.766   2.998 -0.1949 -0.1170 -0.1906
  786W        W 4530   5.313   6.234   3.583 -0.1031 -0.0480  0.0714
  787W        W 4531   4.243   0.886   9.025 -0.1885 -0.0085 -0.0152
  788W        W 4532   4.510   3.826   0.204 -0.1023 -0.1755 -0.6617
  789W        W 4533   0.129   5.135   9.843 -0.0501  0.1797  0.4119
  790W        W 4534   4.166   2.510   2.174 -0.1728 -0.1427 -0.2001
  791W        W 4535   7.981   9.514   1.512  0.1583  0.2164  0.1059
  792W        W 4536   2.199   9.354   9.808 -0.0472 -0.3751  0.0688
  793W        W 4537   1.933   5.374   0.503 -0.0381 -0.0307  0.0417
  794W        W 4538   0.409   9.081  12.251 -0.3688 -0.0981 -0.0964
  795W        W 4539   7.581   0.344   3.009 -0.2252  0.0718  0.1086
  796W        W 4540   3.941   6.003  12.881 -0.4094 -0.1551  0.1379
  797W        W 4541   7.704   6.797  11.121  0.0525 -0.0490  0.1061
  798W        W 4542   7.247   1.610  10.320 -0.2044  0.1554 -0.1902
  799W        W 4543   1.098   3.651  11.324 -0.0904 -0.0422 -0.2784
  800W        W 4544   9.697   6.799  10.842  0.0532  0.0627  0.1573
  801W        W 4545   3.500   5.231   1.664  0.0331 -0.1612  0.2327
  802W        W 4546   2.243   0.204   3.885 -0.0745 -0.1170 -0.1506
  803W        W 4547   9.398   9.739   3.739 -0.1500  0.0321  0.1360
  804W        W 4548   8.688   3.425   9.085 -0.1421 -0.4958 -0.0913
  805W        W 4549   6.467   2.580  11.779 -0.0808  0.3864 -0.1215
  806W        W 4550   7.038   8.850  11.590 -0.1784  0.0412 -0.1005
  807W        W 4551   1.506   3.996   4.134 -0.2380 -0.0785 -0.1525
  808W        W 4552   7.856   1.299  12.744  0.0665  0.2267 -0.0565
  809W        W 4553   0.888   9.775   2.051  0.0972 -0.0272 -0.1402
  810W        W 4554   6.651   5.395   3.122 -0.0307 -0.0711  0.1187
  811W        W 4555   4.474   4.476   3.740 -0.1177 -0.2205  0.1364
  812W        W 4556   7.789   0.414   1.085  0.3021 -0.2829  0.3169
  813W        W 4557   5.714   4.063   2.294 -0.1609  0.0494 -0.0006
  814W        W 4558   3.778   1.279   3.012  0.3146  0.0007  0.2507
  815W        W 4559   4.920   0.411  10.985  0.0507  0.0633 -0.0286
  816W        W 4560   6.416   5.177  10.770  0.0640  0.0958  0.2855
  817W        W 4561   7.803   0.014   4.742  0.2763  0.0946 -0.0750
  818W        W 4562   8.697   3.522  11.558 -0.0968  0.1363 -0.2459
  819W        W 4563   0.809   9.787   4.933  0.6104 -0.2283  0.1331
  820W        W 4564   3.058   5.793  10.583 -0.1359  0.0477 -0.3592
  821W        W 4565   4.130   4.727  11.539 -0.0780 -0.0210 -0.1955
  822W        W 4566   2.034   2.014   3.616 -0.2394  0.4235  0.3398
  823W        W 4567   4.311   8.201   2.822 -0.0824  0.1621 -0.1544
  824W        W 4568   9.279   7.081   0.450 -0.1297 -0.0336  0.0040
  825W        W 4569   8.296   3.345   1.777 -0.2117  0.1712  0.0896
  826W        W 4570   5.775   9.062   9.698  0.1805  0.1613  0.3149
  827W        W 4571   4.104   4.937   3.074  0.0829 -0.0234  0.2247
  828W        W 4572   1.742   1.022  11.437  0.0348  0.0159  0.2291
  829W        W 4573   7.017   2.932   2.486 -0.2840  0.0621 -0.2683
  830W        W 4574   1.587   3.209   9.040  0.0718 -0.1847  0.1881
  831W        W 4575   9.057   9.004  10.088 -0.1884 -0.2181 -0.0021
  832W        W 4576   4.668   6.169   4.015 -0.1796 -0.1817 -0.0130
  833W        W 4577   6.627   5.520   0.738  0.2417 -0.0132 -0.2023
  834W        W 4578   0.348   5.134   2.745 -0.0296 -0.3524  0.0499
  835W        W 4579   0.678   4.997  11.951  0.3285 -0.0884  0.0746
  836W        W 4580   7.149   9.213   4.506  0.0010  0.0140  0.0884
  837W        W 4581   6.500   4.619   1.644  0.0141 -0.2262  0.0658
  838W        W 4582   8.721   0.099   4.329  0.0121  0.3432  0.0560
  839W        W 4583   8.500   2.333   0.382  0.1509 -0.1829 -0.1021
  840W        W 4584   1.708   6.776  11.651 -0.1638 -0.1797 -0.1465
  841W        W 4585   4.765   6.437   0.432 -0.1465  0.1562  0.0251
  842W        W 4586   1.944   6.796   1.199  0.1691 -0.0848 -0.4851
  843W        W 4587   8.277   5.005  10.524  0.0274 -0.1743 -0.0592
  844W        W 4588   7.048   4.206   9.501  0.0166 -0.2230  0.1365
  845W        W 4589   0.137   7.705   0.624 -0.2921  0.0195 -0.1016
  846W        W 4590   8.638   6.133   1.277 -0.0420 -0.0150  0.0138
  847W        W 4591   0.314   9.082   4.230  0.1867 -0.0486 -0.0094
  848W        W 4592   8.263   5.450  10.117  0.0350  0.3532 -0.2183
  849W        W 4593   7.990   5.608  11.031 -0.1002  0.1943 -0.0551
  850W        W 4594   5.586   6.217   9.447 -0.1229  0.0853  0.1659
  851W        W 4595   3.326   8.231  10.803  0.2727 -0.0721  0.1480
  852W        W 4596   1.782   4.169   3.598 -0.0886 -0.0310  0.1446
  853W        W 4597   7.446   5.641   0.550  0.0088 -0.1960 -0.2030
  854W        W 4598   2.772   4.127  11.733 -0.0499 -0.0481  0.0842
  855W        W 4599   8.132   5.212   1.921 -0.0127 -0.0065 -0.0589
  856W        W 4600   9.439   6.335   1.641  0.0762  0.2491 -0.2118
  857W        W 4601   4.672   2.543   2.401  0.0712 -0.2345  0.3787
  858W        W 4602   3.073   3.592   8.744  0.3443 -0.0100 -0.4663
  859W        W 4603   2.482   4.817   3.741 -0.3467  0.2482 -0.0275
  860W        W 4604   1.013   1.138   1.709  0.2138 -0.0764  0.0778
  861W        W 4605   1.347   4.317  10.836  0.2120  0.0425 -0.0666
  862W        W 4606   1.604   8.560   2.608 -0.1624  0.5587  0.1824
  863W        W 4607   3.908   7.167   2.853 -0.0921  0.2247  0.1164
  864W        W 4608   3.195   3.077   8.811 -0.2794 -0.1530 -0.1794
  865W        W 4609   9.237   2.759  11.809 -0.2016  0.2307  0.2129
  866W        W 4610   4.999   9.590   0.477  0.1495  0.0019  0.1432
  867W        W 4611   2.316   3.145   2.511  0.0742 -0.4453 -0.2942
  868W        W 4612   2.431   8.880   2.049  0.0281 -0.3080  0.3164
  869W        W 4613   7.933   8.962   1.623  0.0225  0.1036 -0.0458
  870W        W 4614   6.059   0.317   8.904  0.2698  0.1046  0.0258
  871W        W 4615   6.923   9.222   1.658 -0.0091  0.2090  0.3390
  872W        W 4616   4.091   6.556   0.179  0.2684  0.1777 -0.1157
  873W        W 4617   1.325   8.999   1.701  0.2754  0.2367  0.2364
  874W        W 4618   5.130   2.030   7.766  0.1533 -0.3226  0.0518
  875W        W 4619   0.445   6.322   1.494  0.0990 -0.0411 -0.2307
  876W        W 4620   7.266   6.099   1.286  0.2042 -0.2564 -0.2819
  877W        W 4621   0.801   3.922   0.360  0.0804  0.2002  0.2114
  878W        W 4622   8.450   0.854  10.439 -0.0833  0.1579  0.0953
  879W        W 4623   4.612   4.291  10.179  0.1162 -0.3121 -0.0493
  880W        W 4624   3.398   4.915   2.110 -0.0516 -0.0639  0.2241
  881W        W 4625   5.704   1.621   8.345 -0.1117  0.0889  0.0105
  882W        W 4626   3.611   1.171   3.514  0.1435  0.1769 -0.0939
  883W        W 4627   2.872   0.274  12.385 -0.1221  0.1737 -0.1584
  884W        W 4628   0.907   0.559   1.703  0.0528 -0.4695 -0.2300
  885W        W 4629   3.850   3.210   9.896  0.1416 -0.0533  0.1599
  886W        W 4630   0.964   4.666  12.214 -0.2078 -0.2532 -0.3181
  887W        W 4631   6.457   2.776  10.126 -0.2336  0.1903  0.2531
  888W        W 4632   5.233   0.937   8.671  0.1495 -0.0065  0.4394
  889W        W 4633   5.742   2.467  11.575 -0.3391  0.1419 -0.0335
  890W        W 4634   2.508   4.416  11.034  0.0098  0.1131  0.0898
  891W        W 4635   0.536   0.557   9.215  0.2503 -0.2706  0.0596
  892W        W 4636   1.035   1.668   9.516 -0.0767 -0.1310  0.1697
  893W        W 4637   3.630   7.525  11.321 -0.0319 -0.0014 -0.2597
  894W        W 4638   1.073   2.237  11.953 -0.2514  0.1895 -0.0161
  895W        W 4639   2.017   5.121  10.600  0.0408  0.3135 -0.0340
  896W        W 4640   0.121   1.572   1.291 -0.3250 -0.0943 -0.1479
  897W        W 4641   0.191   5.855   0.690 -0.0742  0.1287  0.3648
  898W        W 4642   0.324   8.056  11.339 -0.2586 -0.3651 -0.0753
  899W        W 4643   5.731   7.762  11.896  0.1901 -0.0346 -0.0504
  900W        W 4644   8.162   2.290   4.230  0.1060 -0.1996  0.0620
  901W        W 4645   7.589   2.469   2.061  0.0005 -0.1205  0.4047
  902W        W 4646   0.510   2.326   0.252  0.1341  0.2397 -0.0931
  903W        W 4647   9.542   7.714   0.467 -0.0765 -0.1295  0.2409
  904W        W 4648   1.449   5.133   6.443 -0.3261 -0.1787  0.0288
  905W        W 4649   6.028   8.490   3.293  0.1899 -0.1383  0.0238
  906W        W 4650   6.011   9.601  11.196 -0.3787 -0.1392 -0.3326
  907W        W 4651   1.619   0.332   2.765 -0.0270  0.0836 -0.0638
  908W        W 4652   7.383   7.943   4.212  0.1247  0.3041  0.1722
  909W        W 4653   5.253   7.586   2.954 -0.1500 -0.1698 -0.1766
  910W        W 4654   5.124   2.866   1.690 -0.0587  0.3469 -0.0004
  911W        W 4655   0.672   1.046  10.693 -0.1472 -0.2176  0.2157
  912W        W 4656   8.732   1.381   9.995  0.0593 -0.1635 -0.1086
  913W        W 4657   2.629   8.671   0.590  0.2000  0.0820  0.1874
  914W        W 4658   1.127   7.774   1.915 -0.0651 -0.1597  0.0312
  915W        W 4659   2.761   2.185  11.282  0.0338  0.1652  0.1052
  916W        W 4660   0.142   8.318  11.720 -0.0210 -0.1866  0.1686
  917W        W 4661   4.132   2.371  11.819  0.2343 -0.0311  0.3422
  918W        W 4662   7.570   7.991  12.254  0.1414  0.0293  0.1947
  919W        W 4663   0.610   4.400   9.791  0.0065 -0.0326 -0.3879
  920W        W 4664   2.543   8.322  11.688 -0.0122  0.0760 -0.2659
  921W        W 4665   7.553   2.319   8.470  0.1516 -0.0711 -0.0423
  922W        W 4666   2.929   1.553   1.157  0.2120  0.2305  0.1532
  923W        W 4667   5.277   0.807   9.928 -0.2272 -0.0872  0.0276
  924W        W 4668   4.417   5.442   2.556  0.2512 -0.0268 -0.0346
  925W        W 4669   9.097   9.857  11.573  0.0614 -0.0023  0.1715
  926W        W 4670   6.656   3.674   3.496  0.3543 -0.0813 -0.1636
  927W        W 4671   7.506   0.802   3.391  0.0173 -0.1041 -0.2765
  928W        W 4672   7.024   5.913   0.888 -0.0172  0.1432 -0.1068
  929W        W 4673   9.213   6.168  12.901 -0.0363  0.0575  0.0889
  930W        W 4674   4.998   7.690  12.486  0.1555 -0.2212 -0.1403
  931W        W 4675   0.042   3.309  11.780 -0.1429 -0.1518  0.0920
  932W        W 4676   7.631   2.352  10.798  0.0940 -0.2186 -0.2847
  933W        W 4677   4.762   0.856  12.924  0.0150 -0.1468  0.0473
  934W        W 4678   5.463   3.824   0.169  0.4434 -0.0019  0.3020
  935W        W 4679   6.274   0.056   0.945 -0.1466  0.1943  0.0448
  936W        W 4680   2.536   1.454   3.154 -0.0255  0.0315 -0.0164
  937W        W 4681   9.837   8.458   8.313  0.1031  0.2415  0.0942
  938W        W 4682   6.254   8.398   1.598  0.2455  0.0299  0.2621
  939W        W 4683   8.961   5.173  12.667  0.2566 -0.2960  0.1517
  940W        W 4684   1.363   3.475   0.371  0.0488 -0.0592 -0.1489
  941W        W 4685   4.933   9.334   3.349 -0.5068 -0.1849 -0.0954
  942W        W 4686   4.914   6.242   0.950  0.1080 -0.0166  0.1525
  943W        W 4687   8.116   7.773  11.135  0.1732 -0.0306 -0.1657
  944W        W 4688   4.775   6.628   1.726 -0.5844  0.0338  0.2742
  945W        W 4689   2.786   8.324   9.269 -0.1403 -0.0319 -0.4121
  946W        W 4690   2.251   1.716   4.220 -0.0609  0.0649 -0.1323
  947W        W 4691   9.820   2.147  11.195 -0.0796 -0.5069  0.0064
  948W        W 4692   3.909   0.112   9.599 -0.0841  0.0635  0.2435
  949W        W 4693   5.992   1.470   4.199  0.2434 -0.2196 -0.1041
  950W        W 4694   2.122   9.418   4.026  0.1440  0.1920 -0.3811
  951W        W 4695   5.694   3.498   8.832 -0.0429  0.3957 -0.2897
  952W        W 4696   9.637   9.045   1.633  0.0846  0.0786  0.1872
  953W        W 4697   7.724   6.998  11.731  0.0008  0.4753  0.0538
  954W        W 4698   3.309   8.120   0.197 -0.3544 -0.2257 -0.3398
  955W        W 4699   2.201   9.539   2.546 -0.3499  0.1203  0.0507
  956W        W 4700   2.769   3.135  10.741 -0.0426  0.1091 -0.0626
  957W        W 4701   3.516   3.123   3.999 -0.2690  0.1434  0.3244
  958W        W 4702   4.017   6.961  12.843  0.4086  0.0937 -0.2441
  959W        W 4703   6.334   3.544   4.881  0.1891 -0.3503  0.1614
  960W        W 4704   7.504   7.184   2.612 -0.2024  0.0912  0.2444
  961W        W 4705   4.812   5.232   3.450 -0.1062  0.2059 -0.1849
  962W        W 4706   1.574   2.654  12.699 -0.0469  0.0433  0.1458
  963W        W 4707   7.893   8.699   3.948  0.0524 -0.0888  0.1359
  964W        W 4708   2.218   2.280  12.716  0.0463 -0.0515  0.2773
  965W        W 4709   0.085   2.109   3.617  0.4462 -0.0523 -0.1389
  966W        W 4710   4.587   4.878   1.073  0.0009 -0.1790 -0.2974
  967W        W 4711   8.325   0.419  11.084 -0.0936  0.2193  0.4447
  968W        W 4712   0.971   5.833  12.568  0.1181  0.1592 -0.1454
  969W        W 4713   6.418   7.206   8.288  0.2595 -0.0761  0.1796
  970W        W 4714   4.671   7.034   3.613  0.3376 -0.2956 -0.1397
  971W        W 4715   6.902   4.976   2.669  0.0843 -0.2774  0.0239
  972W        W 4716   7.607   5.910  11.188 -0.1411 -0.2466 -0.1409
  973W        W 4717   7.042   6.734  12.546  0.0880 -0.0778 -0.1002
  974W        W 4718   8.959   3.795   1.863 -0.0915 -0.1955  0.0617
  975W        W 4719   2.334   4.946   2.087 -0.2841 -0.1408 -0.0493
  976W        W 4720   2.705   6.812  12.012  0.1271  0.0920 -0.1442
  977W        W 4721   5.242   8.991   1.578  0.0062  0.1560 -0.1426
  978W        W 4722   9.577   8.678   2.554 -0.0141 -0.0481  0.0701
  979W        W 4723   9.444   7.834  12.546  0.3104  0.1059 -0.2119
  980W        W 4724   5.537   4.741   0.838  0.1265 -0.2103 -0.0970
  981W        W 4725   8.067   1.958   1.429  0.1711 -0.1639  0.2948
  982W        W 4726   9.517   9.395  11.725 -0.0922 -0.0842  0.0730
  983W        W 4727   7.788   3.198   2.643 -0.1309 -0.4116 -0.0998
  984W        W 4728   2.230   9.316   1.862 -0.1834 -0.0569 -0.0270
  985W        W 4729   7.654   2.757  12.500  0.0276 -0.1748 -0.0542
  986W        W 4730   3.266   7.372  12.679 -0.0645 -0.0161 -0.2382
  987W        W 4731   1.769   2.127   2.373  0.2550  0.0302 -0.0807
  988W        W 4732   9.058   2.303  11.019 -0.0308 -0.1121 -0.1756
  989W        W 4733   0.364   3.096   9.687 -0.1115 -0.0082  0.1029
  990W        W 4734   8.769   5.057  12.249  0.0222 -0.0439 -0.0789
  991W        W 4735   8.598   6.394   9.948  0.2347  0.0488  0.0272
  992W        W 4736   2.867   5.688  12.426 -0.3225 -0.0831  0.1720
  993W        W 4737   4.282   8.975  10.811  0.0510 -0.4281 -0.0438
  994W        W 4738   0.143   3.863   1.881  0.2217 -0.0538 -0.1045
  995W        W 4739   8.278   0.597   9.285  0.0165 -0.2105  0.0932
  996W        W 4740   7.800   1.126   4.280  0.0337  0.1611  0.1358
  997W        W 4741   8.703   9.504   8.150  0.0234  0.0728  0.0476
  998W        W 4742   4.914   7.243  11.609  0.2293 -0.2215  0.3373
  999W        W 4743   6.832   4.282  12.741 -0.0457  0.1347  0.0185
 1000W        W 4744   5.720   7.628   9.630 -0.3429 -0.2391  0.0615
 1001W        W 4745   2.158   7.451   2.030 -0.2564 -0.1709 -0.1513
 1002W        W 4746   4.147   7.924   1.901 -0.0571 -0.0823  0.0877
 1003W        W 4747   6.630   4.177   3.326  0.1273  0.1384  0.0727
 1004W        W 4748   4.353   6.629   2.458 -0.1370 -0.0537  0.2973
 1005W        W 4749   2.252   1.589   8.723 -0.1527 -0.1073  0.1252
 1006W        W 4750   6.405   2.725  12.802  0.0559 -0.1934  0.0254
 1007W        W 4751   3.180   6.045  12.082 -0.1655  0.2470  0.2692
 1008W        W 4752   6.980   4.587  11.774  0.0715  0.1775 -0.0742
 1009W        W 4753   5.255   5.937   9.740  0.2418  0.0692  0.0964
 1010W        W 4754   9.321   0.526   9.198  0.2944  0.1613 -0.0598
 1011W        W 4755   2.826   5.553   2.784  0.1160 -0.0593 -0.0540
 1012W        W 4756   6.122   6.213   0.524  0.0032 -0.3599  0.1157
 1013W        W 4757   8.895   1.942   1.682  0.3100  0.0008  0.1480
 1014W        W 4758   0.261   9.257  11.089  0.3319  0.2944  0.2254
 1015W        W 4759   6.743   2.451  12.580  0.2830  0.2019  0.1107
 1016W        W 4760   3.939   6.931   2.057 -0.0631  0.0032 -0.2476
 1017W        W 4761   5.374   1.165   3.889  0.1925 -0.2699  0.0602
 1018W        W 4762   0.553   4.555   1.418  0.1503 -0.2607  0.1453
 1019W        W 4763   8.299   2.037  10.207  0.0395 -0.0037  0.3235
 1020W        W 4764   3.347   7.990   1.111 -0.1202 -0.2474 -0.1235
 1021W        W 4765   9.052   5.514   1.372 -0.1117 -0.2847  0.0240
 1022W        W 4766   9.438   3.681   4.040 -0.0874  0.1962  0.1047
 1023W        W 4767   5.210   9.732   3.671  0.2011  0.0459 -0.3155
 1024W        W 4768   6.896   6.165   2.375 -0.1871 -0.0819  0.0674
 1025W        W 4769   1.452   1.198   4.668  0.1852 -0.0510  0.0380
 1026W        W 4770   9.467   4.907  12.373  0.0865  0.0443 -0.0758
 1027W        W 4771   6.452   8.883  10.796 -0.0810  0.0148  0.1207
 1028W        W 4772   2.727   5.766  11.985 -0.0378  0.4104  0.0714
 1029W        W 4773   5.690   1.222  10.224 -0.0764  0.0060 -0.4848
 1030W        W 4774   5.086   8.358   2.857 -0.0988  0.4364 -0.0863
 1031W        W 4775   4.525   3.693   2.843  0.1750  0.1033  0.2239
 1032W        W 4776   4.774   2.018   4.325 -0.0936 -0.3595  0.0508
 1033W        W 4777   6.296   4.711  12.099 -0.1167 -0.4826  0.0803
 1034W        W 4778   1.284   4.001   0.258  0.2507  0.0686 -0.1097
 1035W        W 4779   3.909   9.875  11.499 -0.0790 -0.0743  0.2649
 1036W        W 4780   7.163   2.689   2.895  0.2285 -0.0157 -0.0719
 1037W        W 4781   5.942   9.411   3.666 -0.1521 -0.0559 -0.0660
 1038W        W 4782   0.688   7.405   9.552  0.1135 -0.1939  0.2429
 1039W        W 4783   0.592   3.259   2.409 -0.1353  0.0481  0.0216
 1040W        W 4784   7.210   8.300   2.758  0.2482  0.4042 -0.0534
 1041W        W 4785   6.567   3.637   2.324 -0.2132 -0.1806 -0.3487
 1042W        W 4786   8.769   1.575   0.788  0.0206 -0.0110  0.0829
 1043W        W 4787   4.899   2.267   8.927 -0.1138  0.2448  0.0000
 1044W        W 4788   5.096   1.277   0.143 -0.0121 -0.1612 -0.1954
 1045W        W 4789   3.413   7.538   2.646  0.3211 -0.2554  0.2557
 1046W        W 4790   8.731   1.493   1.521  0.0598  0.5881 -0.2657
 1047W        W 4791   5.850   5.773   3.085  0.1384  0.3062 -0.0752
 1048W        W 4792   9.036   1.695   3.854  0.0216 -0.3292  0.0067
 1049W        W 4793   1.589   1.986  11.904 -0.2987 -0.3883 -0.0275
 1050W        W 4794   4.546   8.622   2.643  0.0539  0.2805 -0.1692
 1051W        W 4795   6.691   5.312  12.635 -0.2644 -0.2508  0.4525
 1052W        W 4796   5.898   1.204  11.999  0.0435  0.2868 -0.1609
 1053W        W 4797   0.383   9.459   2.352  0.1337  0.0220  0.1489
 1054W        W 4798   0.579   7.409  11.004 -0.0672 -0.2799 -0.0253
 1055W        W 4799   2.686   6.682   1.857 -0.1871  0.1294 -0.0643
 1056W        W 4800   8.304   1.179   2.625 -0.1896 -0.3761  0.0633
 1057W        W 4801   3.250   0.638   9.434 -0.1460 -0.2691 -0.1181
 1058W        W 4802   4.257   1.012   0.931  0.1729 -0.0083  0.0421
 1059W        W 4803   7.309   0.171  10.080 -0.3322 -0.1941  0.1556
 1060W        W 4804   1.428   3.375   3.716  0.0044 -0.0100  0.4713
 1061W        W 4805   8.354   8.891   3.909 -0.1025 -0.1000 -0.3550
 1062W        W 4806   7.477   7.385   9.717  0.1763  0.1278  0.3723
 1063W        W 4807   2.149   6.229   1.577 -0.0029  0.1855  0.2044
 1064W        W 4808   7.976   1.202   9.354  0.1346  0.0955 -0.0260
 1065W        W 4809   7.235   4.926  10.439  0.3520  0.0697  0.2384
 1066W        W 4810   4.530   0.660   2.235  0.1590  0.0907 -0.1551
 1067W        W 4811   0.849   6.238   1.089 -0.0161 -0.0211 -0.1584
 1068W        W 4812   4.905   3.254   1.463  0.1186  0.1153 -0.3814
 1069W        W 4813   6.219   1.746   3.261 -0.0737  0.1922  0.0930
 1070W        W 4814   1.916   1.935   1.939  0.1427  0.1770 -0.1482
 1071W        W 4815   6.515   5.192   9.738  0.3162  0.1272 -0.0904
 1072W        W 4816   8.649   3.363  10.598 -0.0628 -0.0265  0.2785
 1073W        W 4817   4.595   4.196  11.097 -0.1388 -0.0344  0.0307
 1074W        W 4818   3.926   5.588  10.909 -0.0699 -0.0968 -0.0145
 1075W        W 4819   1.563   7.244   1.962 -0.0031 -0.2847  0.2934
 1076W        W 4820   7.008   7.362   0.477 -0.1395  0.0659 -0.0033
 1077W        W 4821   2.290   3.027  12.172  0.0903  0.0505 -0.0622
 1078W        W 4822   8.959   4.806   0.207  0.1619 -0.2915  0.0412
 1079W        W 4823   6.491   8.213   3.469 -0.0251  0.0730 -0.2635
 1080W        W 4824   6.842   8.463   2.368 -0.1894 -0.3621 -0.0517
 1081W        W 4825   0.725   4.025  11.495 -0.2915  0.3391 -0.1674
 1082W        W 4826   4.460   2.857  11.116 -0.0269  0.1209 -0.2493
 1083W        W 4827   7.147   5.134   9.500 -0.1929  0.1419 -0.3988
 1084W        W 4828   0.070   9.313   9.753 -0.1929  0.1262  0.1031
 1085W        W 4829   4.203   9.007   1.520 -0.2589  0.1281 -0.1163
 1086W        W 4830   5.753   7.595  10.642 -0.0603  0.0359 -0.0333
 1087W        W 4831   3.526   5.206  12.920  0.0629  0.0250 -0.3438
 1088W        W 4832   7.466   8.040   3.178  0.0132 -0.1486  0.0630
 1089W        W 4833   0.825   4.854   0.323 -0.3384 -0.3197  0.1946
 1090W        W 4834   8.797   3.100   9.519  0.1441 -0.2468 -0.2310
 1091W        W 4835   0.414   6.227   0.915  0.3275  0.1968 -0.0603
 1092W        W 4836   2.394   5.879   9.189  0.0459  0.1432 -0.2386
 1093W        W 4837   8.094   1.739   9.112 -0.1287  0.6442 -0.1090
 1094W        W 4838   0.453   5.480   0.347  0.3233  0.0776  0.1450
 1095W        W 4839   6.383   3.210   0.102 -0.0156  0.2834 -0.3822
 1096W        W 4840   2.063   9.556   9.262  0.0256  0.2897 -0.0223
 1097W        W 4841   2.575   9.853   2.777 -0.0477  0.1365 -0.0198
 1098W        W 4842   5.029   1.837   9.034  0.3517 -0.0344  0.1024
 1099W        W 4843   1.043   8.675   9.866 -0.1000  0.1685  0.1549
 1100W        W 4844   1.031   4.613   1.348  0.1134  0.0952  0.1587
 1101W        W 4845   0.840   7.013   1.606 -0.1457  0.2532 -0.2151
 1102W        W 4846   5.426   4.326   0.269 -0.1079 -0.1581 -0.1816
 1103W        W 4847   9.650   0.833   9.423  0.3353 -0.0329  0.1126
 1104W        W 4848   0.922   7.732   2.611 -0.0696  0.2400 -0.0338
 1105W        W 4849   3.598   7.378   9.627  0.2225 -0.0008 -0.2546
 1106W        W 4850   3.415   8.345  12.702  0.0669 -0.1715 -0.1741
 1107W        W 4851   4.602   1.660  12.146 -0.2418  0.0715  0.1293
 1108W        W 4852   5.748   6.425   7.990 -0.1265 -0.4051 -0.0760
 1109W        W 4853   7.400   6.313   9.769  0.1150 -0.2261 -0.2421
 1110W        W 4854   4.491   9.535   3.129  0.1361  0.0881  0.1243
 1111W        W 4855   0.960   3.499   0.021 -0.0859 -0.2469  0.1513
 1112W        W 4856   3.599   8.895   8.327 -0.1122 -0.1174  0.2547
 1113W        W 4857   4.322   0.747   8.461 -0.3166  0.0027 -0.2423
 1114W        W 4858   3.039   6.260  10.657 -0.2660 -0.1002  0.0111
 1115W        W 4859   3.722   3.238  12.834  0.0834 -0.0393  0.0637
 1116W        W 4860   0.207   8.198   2.805 -0.0145  0.2285  0.0455
 1117W        W 4861   2.839   0.147  10.603 -0.0300  0.2967 -0.0422
 1118W        W 4862   8.487   7.137   1.467  0.0265 -0.0161 -0.2570
 1119W        W 4863   7.122   1.186  10.118 -0.2438  0.0181  0.0500
 1120W        W 4864   9.323   2.359  12.281 -0.1728 -0.0471  0.1543
 1121W        W 4865   9.043   0.236   2.800  0.0244  0.2800 -0.1041
 1122W        W 4866   6.360   2.488  12.298 -0.0640  0.0825 -0.0396
 1123W        W 4867   9.123   2.995   8.857  0.0646 -0.0912 -0.1955
 1124W        W 4868   2.402   8.054  11.089 -0.0366 -0.0793  0.1372
 1125W        W 4869   2.189   3.921  12.314  0.1166  0.0492  0.0967
 1126W        W 4870   1.181   1.815   1.691  0.1735  0.1454  0.0388
 1127W        W 4871   0.757   0.197   3.944 -0.0108 -0.0913 -0.3548
 1128W        W 4872   0.026   8.363   9.906  0.1727 -0.1999  0.0182
 1129W        W 4873   4.261   5.771   3.454 -0.0829  0.0357  0.1612
 1130W        W 4874   8.587   2.464   2.280 -0.0117 -0.1766 -0.1417
 1131W        W 4875   1.571   2.779   9.939  0.1111 -0.1423 -0.1267
 1132W        W 4876   3.444   1.101   2.612 -0.0382 -0.0860 -0.1970
 1133W        W 4877   4.933   6.427   3.172 -0.0615  0.1928  0.0064
 1134W        W 4878   3.932   8.326   1.778  0.1431 -0.1980 -0.0738
 1135W        W 4879   1.078   5.582   3.278  0.0177 -0.1441  0.1592
 1136W        W 4880   8.526   8.768   9.828  0.0423  0.0495 -0.0043
 1137W        W 4881   5.374   0.049   0.690 -0.0890 -0.1397 -0.1505
 1138W        W 4882   7.377   6.699  12.918 -0.1112  0.1441 -0.0564
 1139W        W 4883   0.085   8.708  10.310 -0.2630 -0.0525 -0.0972
 1140W        W 4884   8.762   8.035   2.604  0.0721  0.0568  0.0724
 1141W        W 4885   1.440   7.735   0.329  0.0959  0.0515  0.1299
 1142W        W 4886   8.569   7.766   8.866 -0.0648  0.1890 -0.2747
 1143W        W 4887   3.837   8.244  10.050  0.2957  0.1436  0.0937
 1144W        W 4888   5.854   9.512  11.773 -0.1448 -0.0981 -0.1223
 1145W        W 4889   5.130   3.396   8.899 -0.1007  0.1757  0.0465
 1146W        W 4890   1.148   9.851   4.254  0.2421  0.0816  0.3704
 1147W        W 4891   4.523   8.697   2.109 -0.1754  0.0732 -0.4367
 1148W        W 4892   3.155   8.506   3.867  0.0188  0.0020 -0.1627
 1149W        W 4893   4.489   7.849   8.065  0.2590 -0.1280 -0.2869
 1150W        W 4894   5.191   0.209   0.272  0.0866 -0.2948 -0.1048
 1151W        W 4895   9.610   3.026   0.376 -0.0743  0.0462  0.1189
 1152W        W 4896   3.762   0.647   1.724 -0.0533  0.0512 -0.1720
 1153W        W 4897   9.585   0.146   2.707 -0.0795  0.0547 -0.0166
 1154W        W 4898   6.039   5.612   0.836 -0.1702  0.2732  0.1118
 1155W        W 4899   0.987   3.478   9.948  0.1370  0.0879 -0.1019
 1156W        W 4900   8.968   6.550  11.246 -0.1725  0.0192 -0.0043
 1157W        W 4901   5.083   1.826   0.028 -0.1791 -0.0792 -0.1568
 1158W        W 4902   9.652   7.194   2.034  0.0960  0.1029  0.2337
 1159W        W 4903   3.859   4.550  10.933 -0.0607 -0.0072 -0.0632
 1160W        W 4904   3.800   1.534   8.110 -0.4024  0.0135 -0.6421
 1161W        W 4905   5.213   3.225   1.984  0.1212  0.0991 -0.0106
 1162W        W 4906   8.109   0.212   3.200 -0.0618 -0.0126  0.2378
 1163W        W 4907   0.019   8.745  11.248  0.2889 -0.1186  0.0833
 1164W        W 4908   1.316   1.989  12.310  0.3623  0.1670 -0.1610
 1165W        W 4909   1.737   2.432  11.629 -0.1315 -0.1380  0.2354
 1166W        W 4910   7.477   2.508  11.252  0.3709  0.0640 -0.0651
 1167W        W 4911   7.090   9.876   3.249  0.3769 -0.0427  0.0905
 1168W        W 4912   5.691   6.724   1.916 -0.0635 -0.0920 -0.2717
 1169W        W 4913   4.295   8.954   3.982 -0.1943 -0.0442 -0.0024
 1170W        W 4914   1.592   2.538   2.955 -0.2815  0.0920  0.2143
 1171W        W 4915   3.207   8.563   1.885  0.2950 -0.0473  0.0300
 1172W        W 4916   7.450   8.080   9.144  0.0469  0.3946 -0.0086
 1173W        W 4917   7.872   5.710   1.702 -0.4812 -0.1620  0.0390
 1174W        W 4918   7.947   1.715   3.893 -0.1207  0.3745 -0.0901
 1175W        W 4919   8.585   7.281   2.155  0.1118  0.1524  0.0697
 1176W        W 4920   5.095   7.286   0.900  0.0559  0.1132 -0.0262
 1177W        W 4921   2.525   9.508   8.892 -0.0852 -0.1232  0.1424
 1178W        W 4922   6.735   5.856  10.351  0.2296  0.1521 -0.0637
 1179W        W 4923   4.308   1.610  12.618  0.2272 -0.0894  0.3217
 1180W        W 4924   7.824   5.675   9.145  0.2242  0.4399 -0.2697
 1181W        W 4925   7.657   1.465   0.214  0.0734  0.1514 -0.3511
 1182W        W 4926   4.263   5.876   3.956 -0.0968  0.1326  0.2771
 1183W        W 4927   5.335   6.434  11.098 -0.1382 -0.1913 -0.2530
 1184W        W 4928   6.705   8.765   1.523  0.2898 -0.3602 -0.1073
 1185W        W 4929   3.913   0.062   0.724  0.1315 -0.0822 -0.0540
 1186W        W 4930   2.051   5.029   1.028  0.0887  0.2605  0.3829
 1187W        W 4931   8.197   5.235   0.069 -0.1480  0.0798  0.0108
 1188W        W 4932   3.263   8.157   9.223 -0.2579 -0.3325 -0.0524
 1189W        W 4933   8.054   4.976  11.980  0.2113 -0.3510 -0.0065
 1190W        W 4934   4.269   4.560   1.432  0.1272  0.0175 -0.0079
 1191W        W 4935   3.640   4.958   2.887  0.4478  0.4197  0.0106
 1192W        W 4936   9.875   4.176   0.486 -0.0754  0.1318 -0.3522
 1193W        W 4937   5.736   1.933   2.186 -0.1040 -0.0346 -0.1138
 1194W        W 4938   7.224   5.291   2.261 -0.1286  0.0512 -0.1799
 1195W        W 4939   6.838   6.301  12.232 -0.1529  0.1483  0.0228
 1196W        W 4940   8.905   5.778   0.431 -0.0319  0.2424  0.0782
 1197W        W 4941   7.503   0.670   1.734  0.1084 -0.2021  0.3091
 1198W        W 4942   1.886   8.222   0.988 -0.1684 -0.2938  0.0283
 1199W        W 4943   2.678   8.309   3.643  0.1199  0.0170  0.1789
 1200W        W 4944   1.816   4.684   2.191  0.1394 -0.1300 -0.0086
 1201W        W 4945   0.837   4.347   0.566 -0.0595  0.1179  0.1431
 1202W        W 4946   6.934   1.814   0.789  0.0523  0.0955 -0.0773
 1203W        W 4947   4.868   7.757  11.539  0.0074 -0.2490  0.1993
 1204W        W 4948   7.956   2.710   2.303 -0.0161 -0.1758 -0.2642
 1205W        W 4949   3.932   2.178   3.937  0.2719  0.0121 -0.2639
 1206W        W 4950   7.409   9.818   0.517 -0.2504  0.1872 -0.1445
 1207W        W 4951   2.981   2.429   0.615  0.1413 -0.0552  0.0469
 1208W        W 4952   9.466   2.671   1.334 -0.1616 -0.1747  0.1053
 1209W        W 4953   8.489   7.938   1.166 -0.1330 -0.1164 -0.1628
 1210W        W 4954   0.484   8.536  11.351  0.1471  0.5212  0.1978
 1211W        W 4955   6.901   9.832  10.165  0.1253 -0.1013 -0.0311
 1212W        W 4956   4.411   5.471   1.214 -0.0651 -0.1218 -0.2391
 1213W        W 4957   6.412   2.936   9.579  0.2120 -0.0200  0.0192
 1214W        W 4958   9.261   7.365  12.853  0.1344 -0.2507  0.0625
 1215W        W 4959   9.511   6.916  12.550 -0.1017  0.1327  0.1756
 1216W        W 4960   0.180   8.143   1.777 -0.3568 -0.2842  0.0153
 1217W        W 4961   2.216   3.480  10.806  0.0615  0.1798  0.0072
 1218W        W 4962   6.339   0.831  12.329 -0.1605  0.3084 -0.0382
 1219W        W 4963   0.202   0.536   9.619 -0.3313 -0.1164 -0.0106
 1220W        W 4964   9.358   3.797  10.960 -0.3699 -0.0561  0.1714
 1221W        W 4965   4.557   3.165   0.464 -0.0294 -0.2121 -0.0709
 1222W        W 4966   5.450   7.086   2.940 -0.0273 -0.0294 -0.1981
 1223W        W 4967   1.488   4.365   2.224 -0.0693 -0.0557 -0.0985
 1224W        W 4968   9.556   6.628   9.207 -0.1328  0.2365  0.3752
 1225W        W 4969   7.432   9.743   4.353 -0.3782 -0.0701 -0.0728
 1226W        W 4970   5.406   7.764   3.754  0.0944  0.0990 -0.0576
 1227W        W 4971   4.689   5.801   2.946 -0.1159 -0.2900  0.2547
 1228W        W 4972   2.173   1.097   1.041 -0.2459 -0.0717  0.1651
 1229W        W 4973   6.068   3.751   1.604  0.0656  0.0919  0.1799
 1230W        W 4974   5.360   9.174   5.250  0.1615  0.0377  0.2190
 1231W        W 4975   0.925   2.604  12.833 -0.0808 -0.1567 -0.0298
 1232W        W 4976   4.050   6.847  10.023  0.1881  0.0958  0.2579
 1233W        W 4977   5.228   3.631  10.630 -0.0114 -0.1108 -0.1929
 1234W        W 4978   3.978   3.782   2.211  0.2011 -0.0113  0.0030
 1235W        W 4979   0.690   5.813   1.326 -0.2196 -0.0749 -0.2940
 1236W        W 4980   7.049   2.102   2.215  0.0503  0.2057 -0.0553
 1237W        W 4981   9.897   7.929  10.070  0.1452  0.2838 -0.1677
 1238W        W 4982   2.065   2.389   9.776  0.2611  0.1241  0.1858
 1239W        W 4983   1.659   2.890  11.421  0.4030  0.0476 -0.3390
 1240W        W 4984   4.707   0.441   1.083  0.1555  0.3696 -0.0497
 1241W        W 4985   0.787   0.516  12.451  0.2466  0.4820 -0.1916
 1242W        W 4986   8.269   9.724  12.555  0.0397  0.0961 -0.2063
 1243W        W 4987   0.726   3.259   1.557  0.0415 -0.0962  0.0981
 1244W        W 4988   4.320   0.153   0.501  0.0774 -0.0908  0.1266
 1245W        W 4989   8.217   3.167   9.216  0.0222  0.0015 -0.3019
 1246W        W 4990   3.517   5.822  12.638 -0.0809 -0.2603  0.0909
 1247W        W 4991   2.181   7.714   2.460  0.0303  0.1222 -0.0170
 1248W        W 4992   4.294   3.168   9.517  0.0997  0.1747 -0.1566
 1249W        W 4993   5.533   9.558   0.414  0.1342 -0.0867  0.1634
 1250W        W 4994   4.123   7.704  12.784 -0.2832 -0.0365 -0.1229
 1251W        W 4995   8.940   5.121   1.045  0.0659 -0.0929 -0.2849
 1252W        W 4996   3.495   0.598  10.022  0.1406  0.1029  0.1502
 1253W        W 4997   7.337   4.719   4.300  0.2109  0.0159 -0.0512
 1254W        W 4998   4.391   1.656   8.492 -0.2100  0.0419 -0.2836
 1255W        W 4999   3.409   9.863   2.398 -0.0429 -0.2396  0.0568
 1256W        W 5000   4.483   4.793   0.375  0.1956  0.0346  0.0425
 1257W        W 5001   2.388   1.999   3.298 -0.0145  0.3901 -0.4125
 1258W        W 5002   8.232   4.910   3.166 -0.4433 -0.1248 -0.0879
 1259W        W 5003   9.306   4.526  11.213 -0.2148  0.3425 -0.1128
 1260W        W 5004   2.440   4.322   3.586  0.2652  0.0681 -0.2446
 1261W        W 5005   2.322   4.000  10.692  0.3078  0.0474 -0.1423
 1262W        W 5006   5.544   3.090   0.354 -0.2308 -0.3401  0.1801
 1263W        W 5007   6.395   7.841   2.268 -0.3054 -0.2740  0.0882
 1264W        W 5008   8.460   6.623   1.430  0.1852  0.3031  0.0145
 1265W        W 5009   3.617   0.255  11.828  0.2907  0.3046  0.1964
 1266W        W 5010   1.459   8.390   9.129 -0.0138  0.1256  0.0843
 1267W        W 5011   4.978   3.518   2.855  0.0133  0.0203 -0.1123
 1268W        W 5012   6.145   4.773   9.839  0.1821 -0.0166  0.0253
 1269W        W 5013   6.978   8.875   3.226  0.0541  0.1926 -0.0300
 1270W        W 5014   3.337   9.755   0.449 -0.1495 -0.1295 -0.1067
 1271W        W 5015   6.566   7.800   4.670 -0.0748 -0.0328 -0.0118
 1272W        W 5016   6.363   9.376   1.629  0.1275  0.0211  0.0970
 1273W        W 5017   6.209   8.269   2.416  0.0664 -0.1406  0.1546
 1274W        W 5018   3.172   8.781  12.750  0.2148  0.3038 -0.2382
 1275W        W 5019   0.024   5.179  12.346  0.0527 -0.0499 -0.2635
 1276W        W 5020   9.718   9.544   9.369 -0.0860 -0.2409 -0.0667
 1277W        W 5021   7.034   1.397   4.549 -0.0188  0.1690 -0.0421
 1278W        W 5022   5.193   9.119   4.391 -0.0903 -0.0184 -0.2028
 1279W        W 5023   7.002   5.722  12.766 -0.1208 -0.2929  0.0424
 1280W        W 5024   4.970   0.776   3.536 -0.2563 -0.2480  0.1398
 1281W        W 5025   7.598   2.166   3.539 -0.0523 -0.1714 -0.1011
 1282W        W 5026   9.449   2.692   2.919  0.1004  0.0731  0.1165
 1283W        W 5027   7.378   4.942   1.856  0.0731  0.0224 -0.2972
 1284W        W 5028   2.914   5.755   0.454 -0.0183  0.1149  0.1009
 1285W        W 5029   4.126   7.702  11.200 -0.0866 -0.1864 -0.1667
 1286W        W 5030   6.530   6.908   3.027 -0.1014  0.0008 -0.0154
 1287W        W 5031   7.895   7.014   9.629  0.1605 -0.1774  0.0017
 1288W        W 5032   4.548   7.671   1.673  0.2668  0.1577  0.0495
 1289W        W 5033   0.576   3.167  11.930  0.0211 -0.3594 -0.0025
 1290W        W 5034   0.910   8.145   1.553 -0.0586  0.1082  0.1859
 1291W        W 5035   8.424   4.842   8.934 -0.0404  0.5370  0.3459
 1292W        W 5036   1.740   2.134  12.598 -0.3407 -0.0916  0.2184
 1293W        W 5037   3.398   4.283  12.427 -0.1592  0.0831  0.1180
 1294W        W 5038   0.886   4.255  10.147 -0.0950  0.1573  0.1310
 1295W        W 5039   0.550   6.480  11.788  0.0714  0.0784 -0.3229
 1296W        W 5040   1.207   6.719  10.885 -0.1126 -0.1049 -0.1059
 1297W        W 5041   0.145   2.427  10.781  0.1592  0.0823 -0.0133
 1298W        W 5042   2.092   0.118   4.372  0.1055  0.0028  0.1891
 1299W        W 5043   1.638   3.927   2.514  0.3319  0.3422 -0.3652
 1300W        W 5044   9.067   0.530  10.313  0.3535  0.1767  0.0372
 1301W        W 5045   5.144   6.981   1.371 -0.1884 -0.0513  0.1813
 1302W        W 5046   4.678   2.106  11.868  0.0196  0.1282  0.2927
 1303W        W 5047   8.706   6.157   0.102  0.1462 -0.1366  0.1071
 1304W        W 5048   6.632   7.043   0.333 -0.5654  0.3437  0.3395
 1305W        W 5049   2.521   9.831  12.831 -0.2402 -0.0361  0.1684
 1306W        W 5050   9.890   1.239  11.371 -0.1230 -0.0565  0.1497
 1307W        W 5051   7.213   0.314   3.625 -0.1165 -0.0400  0.1297
 1308W        W 5052   2.007   8.156  11.678 -0.2450 -0.0788 -0.0430
 1309W        W 5053   0.513   1.470  12.478 -0.3885  0.2708 -0.1437
 1310W        W 5054   0.250   1.195   0.942 -0.1350  0.0741 -0.1260
 1311W        W 5055   5.411   2.475   1.616  0.1480  0.3642  0.1377
 1312W        W 5056   4.997   3.315  10.942 -0.1290 -0.0960 -0.3198
 1313W        W 5057   2.385   3.478   4.066 -0.1417  0.1389 -0.1783
 1314W        W 5058   6.922   5.392  10.724 -0.1971  0.0193  0.3333
 1315W        W 5059   5.586   8.853   4.355 -0.0066 -0.2052  0.1179
 1316W        W 5060   8.435   9.557   4.295  0.2003  0.2205 -0.0361
 1317W        W 5061   2.639   5.040  11.179 -0.0849 -0.2689 -0.1371
 1318W        W 5062   7.960   2.483  11.639 -0.2821  0.0623  0.0057
 1319W        W 5063   2.160   8.450   0.497  0.0135  0.0759  0.0148
 1320W        W 5064   8.167   1.135   3.651  0.3939 -0.2490 -0.1497
 1321W        W 5065   1.223   2.242   0.705  0.0255  0.0376 -0.0812
 1322W        W 5066   2.375   0.827  12.132 -0.0313  0.0579  0.1187
 1323W        W 5067   0.138   7.186  10.888 -0.1946 -0.4054 -0.1109
 1324W        W 5068   0.568   2.380   8.312  0.1334 -0.0640 -0.1469
 1325W        W 5069   3.942   3.803   9.634  0.4856  0.2122 -0.0053
 1326W        W 5070   3.883   2.805   0.898  0.0259 -0.2576  0.0754
 1327W        W 5071   3.924   2.298   4.542  0.2604 -0.0204  0.0824
 1328W        W 5072   2.905   8.889   2.184  0.3200  0.4578 -0.1166
 1329W        W 5073   2.602   0.936   9.184  0.1251  0.0596  0.1088
 1330W        W 5074   3.185   9.249   0.824  0.1834  0.0170  0.0548
 1331W        W 5075   9.799   0.102   3.557 -0.1031 -0.3106 -0.0913
 1332W        W 5076   7.136   1.856   5.232 -0.4142  0.0560  0.0782
 1333W        W 5077   6.290   4.566   3.235  0.2902 -0.3846  0.0466
 1334W        W 5078   6.066   2.023  10.278  0.0406  0.0767  0.1732
 1335W        W 5079   5.510   5.446   9.778  0.1171  0.0237 -0.1179
 1336W        W 5080   4.994   9.329   3.917  0.1750 -0.3522  0.0138
 1337W        W 5081   5.378   1.844   4.935 -0.3131 -0.0451 -0.0564
 1338W        W 5082   4.947   6.077   1.485 -0.1535  0.0340  0.0321
 1339W        W 5083   0.612   6.900  10.852  0.1590  0.0269 -0.3476
 1340W        W 5084   4.575   3.227   1.068  0.1722 -0.1279 -0.0210
 1341W        W 5085   5.676   9.593   2.154 -0.0807 -0.2372 -0.0719
 1342W        W 5086   2.863   6.223  10.078  0.2338  0.0694 -0.1509
 1343W        W 5087   7.899   7.482   0.097 -0.3446  0.0462  0.0078
 1344W        W 5088   9.132   3.058   0.640 -0.0773  0.2012 -0.2736
 1345W        W 5089   5.759   7.567   2.892 -0.0160  0.0414 -0.1886
 1346W        W 5090   1.760   2.852   9.426  0.6391 -0.0636  0.0666
 1347W        W 5091   7.785   4.543  10.293  0.7710 -0.1194  0.0871
 1348W        W 5092   2.456   4.330   2.727  0.0880 -0.0597 -0.2575
 1349W        W 5093   6.022   6.456   9.912  0.3426  0.0695 -0.3131
 1350W        W 5094   2.488   3.220   0.783  0.0967 -0.3222  0.0928
 1351W        W 5095   3.694   5.907  10.593 -0.2050 -0.1684  0.4721
 1352W        W 5096   5.046   0.629   2.077  0.1600 -0.0201 -0.1087
 1353W        W 5097   4.908   0.027   4.599  0.0868  0.0517 -0.1024
 1354W        W 5098   3.772   2.101  12.204 -0.0505  0.3008  0.1284
 1355W        W 5099   3.481   0.955  12.006  0.1416  0.2027  0.0241
 1356W        W 5100   1.175   7.430  11.291  0.2205 -0.2719 -0.0919
 1357W        W 5101   7.764   0.338   5.278 -0.2454 -0.0730  0.1188
 1358W        W 5102   0.681   9.747  11.521  0.1770 -0.1144  0.1379
 1359W        W 5103   5.225   1.769   3.562  0.0031 -0.0775 -0.3011
 1360W        W 5104   7.606   0.370  12.394  0.0931  0.0684  0.1121
 1361W        W 5105   9.887   1.859   4.105  0.2864  0.2187 -0.1786
 1362W        W 5106   9.022   1.720  11.494 -0.0126  0.2093 -0.1506
 1363W        W 5107   6.181   3.392   2.149 -0.1922  0.1543 -0.0163
 1364W        W 5108   7.820   7.576   1.758 -0.1168 -0.1813 -0.0087
 1365W        W 5109   5.000   6.914   4.976  0.0615  0.0848  0.3423
 1366W        W 5110   2.759   0.447  10.988  0.1422 -0.0572  0.2308
 1367W        W 5111   3.309   8.761  11.097 -0.3265 -0.0419  0.4090
 1368W        W 5112   2.357   0.759   4.050 -0.0982 -0.0430  0.2529
 1369W        W 5113   1.807   1.509   2.084 -0.0666  0.1817 -0.1667
 1370W        W 5114   2.700   0.489  11.933 -0.0359  0.0348 -0.0020
 1371W        W 5115   3.244   3.809   2.421 -0.1202 -0.0627  0.0681
 1372W        W 5116   8.121   6.609   1.803 -0.0509  0.3042 -0.0720
 1373W        W 5117   7.301   0.172   9.556 -0.3388 -0.1213 -0.1196
 1374W        W 5118   1.696   1.125   9.928  0.2813 -0.0585  0.1433
 1375W        W 5119   7.892   1.914   1.933  0.1974 -0.2265  0.0246
 1376W        W 5120   7.997   7.135  10.124 -0.1528  0.2552 -0.0747
 1377W        W 5121   5.412   7.242   5.200 -0.1279 -0.1752 -0.1414
 1378W        W 5122   1.526   1.979  10.510 -0.0317  0.1974  0.0929
 1379W        W 5123   1.326   6.367   1.875 -0.1074 -0.0456  0.0583
 1380W        W 5124   4.067   4.480   0.503 -0.0316 -0.2292 -0.1576
 1381W        W 5125   1.156   9.442  11.654 -0.1906 -0.0572  0.0116
 1382W        W 5126   5.311   3.343  12.894 -0.0074 -0.1629 -0.1040
 1383W        W 5127   8.162   2.756   0.145  0.1179 -0.1783 -0.2194
 1384W        W 5128   5.906   9.529   1.742 -0.0890 -0.0480  0.2493
 1385W        W 5129   3.522   1.394   2.252  0.0140  0.1063 -0.0475
 1386W        W 5130   4.700   4.078   8.957 -0.1151 -0.0156  0.0913
 1387W        W 5131   2.622   8.592   9.893  0.1626  0.4171 -0.1172
 1388W        W 5132   9.074   8.042  10.463  0.3856  0.0274  0.0543
 1389W        W 5133   4.400   3.492   8.461  0.2749  0.2978  0.2775
 1390W        W 5134   1.205   1.082  11.399  0.0529  0.3662  0.3629
 1391W        W 5135   6.124   6.584  10.763  0.4002  0.2557  0.3184
 1392W        W 5136   8.287   5.507   3.938  0.2084 -0.0076  0.0040
 1393W        W 5137   3.329   5.347   2.874 -0.0677 -0.3636 -0.0929
 1394W        W 5138   3.013   7.077   1.894 -0.0506  0.1233  0.1080
 1395W        W 5139   0.580   2.746   3.685 -0.2100  0.2702 -0.1526
 1396W        W 5140   6.673   6.224  11.468  0.0904 -0.1783 -0.0049
 1397W        W 5141   7.911   3.181   8.703 -0.0401  0.0671  0.1646
 1398W        W 5142   1.157   7.508   9.488 -0.0073 -0.0205  0.2775
 1399W        W 5143   8.489   1.146   4.554  0.4005  0.0360 -0.3987
 1400W        W 5144   8.700   8.237   3.570 -0.0831  0.2776 -0.0050
 1401W        W 5145   5.624   0.049   1.085 -0.1792  0.0594 -0.2314
 1402W        W 5146   7.615   2.089   9.953  0.0008  0.1993 -0.3082
 1403W        W 5147   9.793   2.006   1.406 -0.1142  0.0592 -0.1497
 1404W        W 5148   1.163   5.944  10.366 -0.3498  0.5175  0.1375
 1405W        W 5149   6.403   8.630   3.870  0.1429 -0.0482  0.2078
 1406W        W 5150   2.829   2.125  12.728 -0.2136  0.2190  0.1221
 1407W        W 5151   3.168   4.720  12.389  0.1192  0.0840  0.2227
 1408W        W 5152   1.214   7.404   1.613  0.0569 -0.1151  0.1497
 1409W        W 5153   7.408   9.191  10.749  0.0786 -0.0500 -0.1460
 1410W        W 5154   1.141   4.330  12.570 -0.0689 -0.1364  0.4488
 1411W        W 5155   1.537   4.863   9.656  0.1715  0.1802  0.2938
 1412W        W 5156   0.707   3.423   0.471 -0.0373  0.3077 -0.1152
 1413W        W 5157   5.042   6.725   2.726  0.0018  0.1495 -0.2440
 1414W        W 5158   5.124   4.766   3.197  0.1289  0.3018 -0.1165
 1415W        W 5159   3.066   5.466  11.120  0.1103  0.1197 -0.0185
 1416W        W 5160   7.234   6.176  12.686 -0.0869 -0.1267 -0.0792
 1417W        W 5161   1.557   4.848   2.649  0.2830 -0.2289  0.1871
 1418W        W 5162   3.954   0.772  10.844  0.0435 -0.1460  0.2289
 1419W        W 5163   8.751   8.164  11.123  0.1865  0.1831  0.1352
 1420W        W 5164   5.876   0.744  12.214  0.3823  0.1501 -0.1330
 1421W        W 5165   0.290   0.388   3.336 -0.0270 -0.1547  0.1032
 1422W        W 5166   1.445   4.409  11.957  0.0816  0.1092 -0.3294
 1423W        W 5167   8.747   4.487   9.209  0.1389  0.4475 -0.2708
 1424W        W 5168   0.382   9.091   0.196 -0.1834 -0.0525 -0.0123
 1425W        W 5169   8.435   1.331   9.088  0.2587  0.1387 -0.0819
 1426W        W 5170   5.302   8.735  11.594 -0.0377 -0.2939  0.0189
 1427W        W 5171   5.494   7.386   1.165  0.0771 -0.1400 -0.0457
 1428W        W 5172   3.668   2.282   3.349 -0.1516  0.3348  0.2877
 1429W        W 5173   8.845   6.041  12.487  0.1457  0.1001 -0.5059
 1430W        W 5174   6.128   0.914   9.031 -0.0973 -0.0377  0.1077
 1431W        W 5175   8.217   5.238  11.558  0.3406  0.0681  0.1207
 1432W        W 5176   6.449   6.654   8.916  0.0627  0.2847  0.1052
 1433W        W 5177   7.341   0.283   1.320 -0.0700 -0.3614 -0.0007
 1434W        W 5178   0.161   9.836   2.591  0.0552 -0.1191  0.0330
 1435W        W 5179   1.188   6.824  10.151 -0.0548  0.0854 -0.1201
 1436W        W 5180   2.802   8.831   3.720 -0.0727 -0.2796 -0.0996
 1437W        W 5181   5.992   0.865   1.210  0.0212 -0.1303  0.3626
 1438W        W 5182   6.125   2.519  11.236 -0.1835  0.3008  0.2382
 1439W        W 5183   4.006   9.784   3.795  0.1299  0.3248 -0.0822
 1440W        W 5184   8.082   3.918   0.835  0.0457 -0.0329  0.0668
 1441W        W 5185   3.339   1.102   5.002  0.0439 -0.2553  0.0524
 1442W        W 5186   1.287   3.118   4.134  0.1499 -0.0895 -0.1851
 1443W        W 5187   3.293   2.010   3.979 -0.0473 -0.2424  0.1251
 1444W        W 5188   3.712   8.716   1.580 -0.3652  0.1470  0.3164
 1445W        W 5189   5.785   3.916   4.265 -0.0261  0.3961  0.0499
 1446W        W 5190   5.398   5.657   9.035 -0.1107  0.2369  0.3455
 1447W        W 5191   1.730   8.942   8.735  0.0594  0.0549 -0.2292
 1448W        W 5192   1.846   8.423   2.969 -0.2343  0.1725  0.1895
 1449W        W 5193   7.927   1.506   2.973 -0.3281 -0.1027  0.1526
 1450W        W 5194   8.902   0.777   9.507  0.1721  0.1289  0.1856
 1451W        W 5195   5.634   7.255   0.225  0.0492  0.0662 -0.1891
 1452W        W 5196   9.513   0.442   1.368  0.2016 -0.0531  0.0537
 1453W        W 5197   6.379   0.584   4.330 -0.0981  0.0142 -0.2741
 1454W        W 5198   4.170   2.153   2.946 -0.1201  0.0667 -0.3415
 1455W        W 5199   8.745   8.715   2.872 -0.6326  0.1574  0.0698
 1456W        W 5200   4.718   6.762   1.128  0.2273 -0.0102  0.2921
 1457W        W 5201   9.042   1.389  12.071  0.0619  0.1420 -0.4268
 1458W        W 5202   6.822   8.517  12.048  0.0658 -0.1050  0.0120
 1459W        W 5203   0.526   3.471  11.522  0.0843  0.3685  0.1672
 1460W        W 5204   3.203   6.705  10.789 -0.0387  0.0611 -0.0430
 1461W        W 5205   3.493   3.443  11.382  0.2400  0.0886  0.1174
 1462W        W 5206   6.778   7.025  11.785  0.0688  0.0227 -0.1133
 1463W        W 5207   8.316   8.566   8.916 -0.4109  0.2549  0.1092
 1464W        W 5208   4.591   5.003  10.975 -0.2106 -0.2507 -0.0719
 1465W        W 5209   5.271   4.837   2.275 -0.1596  0.0819 -0.1016
 1466W        W 5210   8.948   6.730   0.604  0.0913  0.0420  0.1977
 1467W        W 5211   5.850   7.148  12.125  0.0795 -0.2991 -0.1940
 1468W        W 5212   1.577   5.558   2.573 -0.0986 -0.2813 -0.1370
 1469W        W 5213   1.571   0.064  12.216  0.0062 -0.0737  0.1788
 1470W        W 5214   8.121   2.350   9.729  0.0067  0.0540  0.0188
 1471W        W 5215   9.712   7.187   0.143  0.0936 -0.0028 -0.0850
 1472W        W 5216   7.544   2.473   1.149 -0.0780  0.3438 -0.0551
 1473W        W 5217   4.695   5.410   0.845  0.2373  0.0293  0.1837
 1474W        W 5218   0.785   3.949  12.827 -0.3283 -0.0239 -0.2323
 1475W        W 5219   7.279   7.597  10.170 -0.3091  0.1298  0.0604
 1476W        W 5220   1.340   9.460   2.136 -0.1078  0.0019  0.0340
 1477W        W 5221   6.615   6.759  12.210 -0.0547  0.3191  0.2099
 1478W        W 5222   4.723   6.918  10.778 -0.2671 -0.0906 -0.0213
 1479W        W 5223   6.015   6.986   9.099  0.1882 -0.0380 -0.1105
 1480W        W 5224   3.593   2.695   1.956  0.3218 -0.0446 -0.0613
 1481W        W 5225   0.509   8.837  12.681 -0.0001  0.2166 -0.0586
 1482W        W 5226   6.813   3.085  10.920  0.0547 -0.3090 -0.1038
 1483W        W 5227   6.564   3.805   2.917  0.0426 -0.2661 -0.2570
 1484W        W 5228   8.623   6.046  11.370  0.2069  0.3218  0.1128
 1485W        W 5229   7.283   4.299   8.124  0.1616 -0.2783  0.0437
 1486W        W 5230   3.873   9.068  12.076 -0.1489  0.1036  0.0061
 1487W        W 5231   3.429   6.989   0.063 -0.2321 -0.2100 -0.0164
 1488W        W 5232   8.359   9.190   9.458  0.1070  0.0965  0.1461
 1489W        W 5233   7.835   7.981   0.052 -0.2092 -0.1446 -0.0703
 1490W        W 5234   4.824   2.145   0.341 -0.1287  0.1173  0.1383
 1491W        W 5235   0.318   0.833   2.552 -0.1303  0.1789 -0.2127
 1492W        W 5236   5.461   5.411  10.949 -0.0832 -0.0732  0.1096
 1493W        W 5237   3.390   8.370  10.265  0.0339  0.1062 -0.0215
 1494W        W 5238   4.921   9.246  12.936  0.1467  0.0284  0.0610
 1495W        W 5239   7.250   9.641  11.715  0.1303 -0.3535 -0.1517
 1496W        W 5240   7.740   5.816  10.628  0.1603 -0.0611 -0.2872
 1497W        W 5241   8.450   6.703   4.201  0.2308 -0.1396 -0.0898
 1498W        W 5242   8.595   3.908   9.922 -0.0527 -0.0436  0.0169
 1499W        W 5243   1.099   8.948  10.771  0.0596  0.0669 -0.2721
 1500W        W 5244   1.547   4.374   9.555  0.0576 -0.4023  0.1095
 1501W        W 5245   8.129   7.545   3.849 -0.3188 -0.1487 -0.0400
 1502W        W 5246   7.955   1.765   0.532 -0.0562 -0.2094 -0.0065
 1503W        W 5247   1.100   8.488  11.077  0.1156 -0.0476  0.2391
 1504W        W 5248   1.408   6.548   0.439  0.2634  0.0071 -0.1303
 1505W        W 5249   4.384   9.293  12.143  0.1743  0.2711 -0.0445
 1506W        W 5250   7.210   5.398   8.134 -0.1061  0.3233 -0.0532
 1507W        W 5251   3.769   4.719   4.109  0.3730 -0.0505  0.0184
 1508W        W 5252   9.502   6.733   0.791  0.0304  0.0799  0.0103
 1509W        W 5253   7.570   2.089   4.093  0.0321  0.0803  0.1453
 1510W        W 5254   6.468   1.917   9.131  0.0349  0.0939  0.2546
 1511W        W 5255   4.305   1.102   0.049  0.0497  0.0152  0.1439
 1512W        W 5256   0.165   5.109   2.116 -0.1883 -0.0362 -0.2316
 1513W        W 5257   7.280   3.355  10.982  0.0542  0.2656  0.0270
 1514W        W 5258   6.677   1.898  12.163 -0.4270  0.0497 -0.3500
 1515W        W 5259   3.436   6.987   2.700  0.0857 -0.0380  0.0159
 1516W        W 5260   5.758   8.547   3.939 -0.0083  0.0326 -0.2496
 1517W        W 5261   6.794   7.079   1.855 -0.3644  0.0616  0.0307
 1518W        W 5262   8.943   1.534   2.039 -0.2069 -0.0187 -0.0093
 1519W        W 5263   4.208   8.821   8.025  0.4040 -0.0612  0.1205
 1520W        W 5264   6.087   3.355  12.039 -0.1777 -0.0545  0.0434
 1521W        W 5265   5.682   4.741   9.460  0.0394  0.1352  0.2150
 1522W        W 5266   5.701   0.479   3.137 -0.3181 -0.3566 -0.2142
 1523W        W 5267   0.812   4.057   1.052 -0.0599 -0.1295  0.2311
 1524W        W 5268   8.205   8.477  11.725  0.1240  0.1088 -0.0623
 1525W        W 5269   4.333   9.521  10.809  0.1716 -0.2548  0.3522
 1526W        W 5270   1.219   8.736  11.966 -0.0588  0.0407 -0.1417
 1527W        W 5271   3.033   7.459  10.530  0.2796  0.0298 -0.0916
 1528W        W 5272   9.596   2.415   3.295  0.3745  0.4913  0.2337
 1529W        W 5273   3.487   3.419   8.507  0.0311  0.1123 -0.1819
 1530W        W 5274   2.733   4.335   9.201 -0.0631  0.1256 -0.2783
 1531W        W 5275   1.361   7.208  10.873  0.0825 -0.0968  0.0588
 1532W        W 5276   5.255   8.556   1.297 -0.0690 -0.2467 -0.3825
 1533W        W 5277   7.388   8.112   2.326  0.1935 -0.2733  0.1537
 1534W        W 5278   8.419   9.548   2.262  0.1509  0.1514 -0.2174
 1535W        W 5279   7.162   4.242   8.969 -0.0123 -0.1510  0.1231
 1536W        W 5280   3.575   5.440   2.414 -0.1426  0.2220  0.0697
 1537W        W 5281   7.843   7.007   3.012  0.1540 -0.0361  0.2223
 1538W        W 5282   5.845   9.144  12.731  0.1768  0.0750  0.4853
 1539W        W 5283   6.454   3.166   8.111  0.1885  0.1060  0.0333
 1540W        W 5284   9.581   6.132  10.111  0.1322 -0.3798  0.1754
 1541W        W 5285   6.275   5.059  12.559  0.1139 -0.0172 -0.1004
 1542W        W 5286   6.852   7.967  11.699 -0.2339 -0.3587  0.2788
 1543W        W 5287   8.271   1.351   8.612  0.3364  0.2169 -0.3621
 1544W        W 5288   7.502   9.758   2.166 -0.0648 -0.0746 -0.1246
 1545W        W 5289   0.977   0.826  12.887  0.0356  0.0131 -0.2739
 1546W        W 5290   9.225   5.228   2.785 -0.1275  0.1291 -0.0321
 1547W        W 5291   5.698   0.624   2.691 -0.0123  0.0600  0.1525
 1548W        W 5292   4.768   3.636   3.315  0.1271  0.0603  0.1044
 1549W        W 5293   2.638   5.313   2.307  0.2069 -0.0779  0.1773
 1550W        W 5294   6.755   1.956   8.695  0.1584 -0.2812  0.0796
 1551W        W 5295   6.729   8.573   2.843  0.1223  0.3567  0.2154
 1552W        W 5296   8.237   7.217  12.560 -0.0459 -0.1142 -0.0329
 1553W        W 5297   0.208   7.889  11.978  0.0600 -0.0400  0.0246
 1554W        W 5298   6.008   2.471   9.446 -0.2574  0.2337 -0.1650
 1555W        W 5299   6.407   5.736   2.833  0.0949 -0.0761  0.2169
 1556W        W 5300   6.167   1.163   0.339  0.4128  0.2039 -0.2075
 1557W        W 5301   3.559   7.847  10.414  0.0739 -0.1209 -0.3081
 1558W        W 5302   0.716   4.752   3.451 -0.0791  0.1141  0.5213
 1559W        W 5303   4.905   2.493   1.952  0.1069  0.1699 -0.3076
 1560W        W 5304   0.478   9.525   1.505  0.0670  0.3630  0.0916
 1561W        W 5305   8.807   3.363   3.358 -0.1070 -0.0261  0.1554
 1562W        W 5306   1.703   8.074   9.800 -0.0856  0.0505  0.2311
 1563W        W 5307   0.625   0.039  12.759 -0.0553 -0.1246 -0.0490
 1564W        W 5308   6.598   6.542  10.914 -0.0657  0.2771  0.2646
 1565W        W 5309   5.956   8.493   9.897  0.5549  0.0613  0.0830
 1566W        W 5310   2.904   1.744   3.918  0.0440 -0.0857 -0.1537
 1567W        W 5311   1.979   4.299   2.491  0.0734 -0.0322  0.2163
 1568W        W 5312   0.707   8.648  12.169 -0.0914  0.2127  0.1156
 1569W        W 5313   2.279   3.908   2.348 -0.0072 -0.2871 -0.1562
 1570W        W 5314   8.120   2.885   1.557  0.2973  0.3127 -0.1469
 1571W        W 5315   3.190   0.562  11.735 -0.1853  0.2454  0.0018
 1572W        W 5316   4.300   2.122   2.444  0.4080 -0.0876 -0.0826
 1573W        W 5317   7.421   4.324   3.938  0.0967  0.0134 -0.0339
 1574W        W 5318   5.814   2.926  10.793 -0.0711 -0.0038 -0.0734
 1575W        W 5319   1.442   5.195   0.459 -0.1329  0.1196  0.1083
 1576W        W 5320   3.590   2.311  11.730 -0.4650 -0.0539 -0.1080
 1577W        W 5321   9.416   0.976  10.127 -0.1257 -0.0731  0.1639
 1578W        W 5322   5.231   2.915   2.808 -0.1398  0.2674 -0.3573
 1579W        W 5323   8.381   6.757  11.905 -0.0008  0.0913  0.0456
 1580W        W 5324   5.116   7.369   2.101 -0.0482 -0.1282 -0.1836
 1581W        W 5325   8.553   0.893   8.448  0.0489 -0.0219  0.0804
 1582W        W 5326   7.959   9.108   1.141  0.1556  0.0528  0.0219
 1583W        W 5327   7.421   6.258  10.342 -0.2215 -0.0924  0.1230
 1584W        W 5328   7.921   1.277   9.831 -0.2734 -0.0397 -0.1647
 1585W        W 5329   1.820   6.275   0.253 -0.0795 -0.1572  0.1222
 1586W        W 5330   4.523   1.408  11.239 -0.0842 -0.2699  0.2732
 1587W        W 5331   2.402   4.071   1.096 -0.1192  0.1946  0.1872
 1588W        W 5332   3.295   7.626  11.719 -0.0214  0.1776  0.0781
 1589W        W 5333   0.346   9.560   0.057 -0.3133 -0.1626  0.0758
 1590W        W 5334   4.589   6.162   9.252 -0.2032 -0.1112 -0.2104
 1591W        W 5335   5.219   5.635   1.943  0.0346 -0.1283  0.0503
 1592W        W 5336   5.019   3.147   3.264 -0.1944 -0.0237 -0.1527
 1593W        W 5337   3.763   2.468   9.303 -0.0838  0.1305  0.0667
 1594W        W 5338   3.635   8.424   3.586 -0.1621  0.0759 -0.1271
 1595W        W 5339   1.065   3.232  11.632  0.0950  0.2367  0.3341
 1596W        W 5340   8.432   2.348   8.670  0.1271  0.0313 -0.0093
 1597W        W 5341   6.326   3.892  12.117  0.2193  0.2122  0.0090
 1598W        W 5342   3.580   4.725  11.277 -0.1623  0.2123  0.1019
 1599W        W 5343   1.559   8.382   0.544  0.1061 -0.3328 -0.0108
 1600W        W 5344   6.529   7.246   9.696 -0.1777  0.1357  0.0127
 1601W        W 5345   7.531   4.994   0.195  0.0851  0.0213 -0.0670
 1602W        W 5346   1.659   1.212   9.456 -0.3089 -0.1907 -0.1169
 1603W        W 5347   7.584   1.595   3.399 -0.1524  0.1028  0.0978
 1604W        W 5348   0.738   1.016   3.380  0.2945 -0.0902  0.4007
 1605W        W 5349   7.005   5.425  10.230 -0.2315  0.2571  0.1022
 1606W        W 5350   6.961   9.809   8.538 -0.4185 -0.2069  0.1340
 1607W        W 5351   0.741   9.045   8.064  0.1700  0.5735 -0.0224
 1608W        W 5352   5.371   9.422   1.837 -0.1303  0.1805  0.0803
 1609W        W 5353   1.431   6.385  10.242  0.2857 -0.0747 -0.1128
 1610W        W 5354   0.708   5.880   5.337 -0.0467  0.0153  0.4645
 1611W        W 5355   3.337   9.657   4.802 -0.1741  0.1158  0.0670
 1612W        W 5356   8.557   2.951   3.541  0.0723 -0.1190  0.0635
 1613W        W 5357   2.400   2.824   1.511 -0.0434 -0.0510  0.3827
 1614W        W 5358   7.820   6.507   9.505 -0.3102  0.0521  0.0727
 1615W        W 5359   4.390   2.972   2.341  0.0274  0.2550  0.3406
 1616W        W 5360   8.090   0.865  11.679 -0.1548 -0.1006 -0.0242
 1617W        W 5361   7.818   7.650  10.019  0.3923  0.0666  0.0637
 1618W        W 5362   2.149   8.618  11.470 -0.2826 -0.0178 -0.5056
 1619W        W 5363   7.627   5.500   2.661  0.0139  0.1671  0.1293
 1620W        W 5364   5.419   3.471   3.955 -0.1942  0.3502  0.0538
 1621W        W 5365   6.752   3.673   1.827  0.0333 -0.0498  0.2478
 1622W        W 5366   4.790   8.091   1.424  0.0376 -0.1595 -0.2908
 1623W        W 5367   5.380   3.705  11.281  0.2637 -0.0035 -0.0251
 1624W        W 5368   2.736   2.903   2.305  0.0724 -0.1229  0.2833
 1625W        W 5369   1.736   4.907   0.178 -0.0567 -0.0605  0.2800
 1626W        W 5370   1.053   4.169   4.156  0.2038 -0.4259 -0.3546
 1627W        W 5371   8.861   4.926   2.588 -0.0638  0.1711 -0.3220
 1628W        W 5372   0.660   1.692   0.392  0.2822 -0.0838 -0.1369
 1629W        W 5373   9.415   0.859   0.802  0.1172  0.3555  0.3733
 1630W        W 5374   5.632   2.085   1.209 -0.0820  0.0490 -0.3775
 1631W        W 5375   3.535   8.477  11.440  0.1658  0.0206 -0.2403
 1632W        W 5376   9.638   2.584  10.555  0.3841  0.0702  0.0564
 1633W        W 5377   4.278   2.642  10.640 -0.2835 -0.0633 -0.1389
 1634W        W 5378   6.683   9.655   9.200 -0.2015  0.0247 -0.1294
 1635W        W 5379   6.447   7.470  11.615  0.0570 -0.0293 -0.3453
 1636W        W 5380   8.102   6.370  10.010  0.3196 -0.2353  0.0502
 1637W        W 5381   9.246   7.675   1.927  0.0398 -0.1234  0.1440
 1638W        W 5382   7.963   8.981   2.133  0.0452  0.1441  0.2263
 1639W        W 5383   1.006   9.626   8.429  0.1417 -0.3714  0.0382
 1640W        W 5384   9.240   9.657   0.821  0.1267 -0.1969  0.3160
 1641W        W 5385   8.098   3.989   0.314  0.0652  0.0615 -0.2780
 1642W        W 5386   9.758   1.909   3.243  0.0034 -0.1971  0.1067
 1643W        W 5387   8.851   9.295   2.039  0.2951  0.0858 -0.0237
 1644W        W 5388   5.321   8.785   3.919  0.1250  0.0150 -0.0892
 1645W        W 5389   7.662   1.611   1.528  0.2119 -0.0364  0.1311
 1646W        W 5390   1.395   2.162   3.276  0.0606 -0.2290 -0.1516
 1647W        W 5391   8.846   3.479   1.460  0.2896  0.2584  0.3761
 1648W        W 5392   6.170   6.230   3.664  0.1782 -0.0825  0.2113
 1649W        W 5393   8.755   7.322  12.203  0.0558 -0.1818 -0.0500
 1650W        W 5394   1.489   5.699   0.607  0.2837  0.1371 -0.0793
 1651W        W 5395   5.031   9.354   8.464  0.0359 -0.1620  0.0418
 1652W        W 5396   7.565   9.740   3.054  0.0548 -0.4074 -0.0082
 1653W        W 5397   1.305   6.506  12.365 -0.1915  0.2101 -0.1089
 1654W        W 5398   6.037   0.960   1.690 -0.1026 -0.1158  0.3402
 1655W        W 5399   4.025   8.480   3.862 -0.2557  0.0086  0.3917
 1656W        W 5400   8.552   3.905   2.572  0.1662  0.2359  0.2403
 1657W        W 5401   3.683   7.832  10.899  0.1186  0.0811 -0.2439
 1658W        W 5402   7.342   9.374   3.995  0.1315 -0.2568  0.1171
 1659W        W 5403   7.110   2.937  11.264 -0.3017  0.0027 -0.2553
 1660W        W 5404   6.532   1.020   1.676  0.1355  0.0192 -0.3408
 1661W        W 5405   3.209   2.362   8.064 -0.3111  0.1340  0.1632
 1662W        W 5406   1.214   5.085   5.921  0.1888 -0.0510 -0.1287
 1663W        W 5407   2.723   3.540   2.262  0.0084  0.0275 -0.1573
 1664W        W 5408   9.035   0.120  12.102  0.4506  0.1139  0.5092
 1665W        W 5409   7.823   1.029   2.592  0.1392 -0.0236 -0.1857
 1666W        W 5410   2.242   1.266  10.801  0.1328 -0.0480 -0.0718
 1667W        W 5411   6.167   0.311   3.453 -0.0930  0.1486  0.3060
 1668W        W 5412   2.415   7.604  10.482 -0.1257  0.4358  0.0855
 1669W        W 5413   6.371   5.863   3.308  0.0927  0.1273 -0.0783
 1670W        W 5414   5.349   0.563  12.283 -0.1028 -0.0419 -0.0157
 1671W        W 5415   1.923   2.691   1.518 -0.2228  0.2947  0.1673
 1672W        W 5416   3.870   1.771   0.551  0.2021 -0.1520  0.2124
 1673W        W 5417   0.987   9.690   3.810 -0.1387  0.1234  0.1921
 1674W        W 5418   6.494   0.623   9.000  0.0163 -0.1432  0.2798
 1675W        W 5419   7.950   9.727   4.254 -0.0269  0.2006 -0.1110
 1676W        W 5420   4.437   4.087   1.533  0.2115 -0.1079  0.0914
 1677W        W 5421   0.118   6.548   1.220 -0.0337  0.0377  0.1324
 1678W        W 5422   3.919   6.128   0.831  0.2649  0.0076  0.1592
 1679W        W 5423   4.316   5.101   0.771 -0.0334 -0.2797 -0.1097
 1680W        W 5424   6.114   4.917   0.139  0.3053  0.0512  0.1174
 1681W        W 5425   3.565   4.696   2.495 -0.0022  0.2065  0.1743
 1682W        W 5426   6.154   9.166   9.986  0.0628  0.0809 -0.1735
 1683W        W 5427   8.102   4.522  11.735 -0.0520  0.1383 -0.2779
 1684W        W 5428   6.470   0.093   8.892 -0.0574  0.0197  0.1664
 1685W        W 5429   5.075   1.376  12.200 -0.0953 -0.2324 -0.0112
 1686W        W 5430   2.628   5.721  10.321 -0.0639  0.3303 -0.0658
 1687W        W 5431   3.923   6.388   3.289  0.1074 -0.2330 -0.0786
 1688W        W 5432   2.192   4.027   0.224 -0.0489 -0.0048  0.0890
 1689W        W 5433   2.119   7.117  11.157  0.2269 -0.2359  0.1450
 1690W        W 5434   2.316   6.816   2.765  0.0843 -0.0940 -0.0187
 1691W        W 5435   1.125   0.189  10.806 -0.0850  0.2825  0.0890
 1692W        W 5436   9.851   6.787   0.468  0.2630 -0.0435 -0.1489
 1693W        W 5437   8.672   7.769   0.680 -0.1090  0.2299  0.0663
 1694W        W 5438   4.703   5.833   1.123 -0.0714 -0.0167 -0.0687
 1695W        W 5439   4.957   0.746  10.386 -0.0597  0.0461 -0.2686
 1696W        W 5440   3.128   6.605  10.275 -0.5238  0.3313 -0.0191
 1697W        W 5441   0.559   0.460   9.987  0.2172 -0.2601 -0.1575
 1698W        W 5442   5.258   7.260   4.680  0.1682 -0.1725 -0.0773
 1699W        W 5443   2.537   1.514   4.888 -0.2333 -0.2496 -0.1798
 1700W        W 5444   5.740   9.374  10.365 -0.1032 -0.1592  0.0227
 1701W        W 5445   6.221   1.926   4.096  0.0742 -0.1769 -0.0591
 1702W        W 5446   3.725   2.713  10.724  0.0215 -0.0454  0.2167
 1703W        W 5447   6.975   7.554   9.764 -0.3178 -0.2339 -0.1271
 1704W        W 5448   1.173   8.247  12.654  0.1208 -0.2114  0.0985
 1705W        W 5449   1.859   0.866  11.892  0.1480 -0.0499 -0.3355
 1706W        W 5450   1.464   7.814  11.551 -0.0815  0.0061 -0.2855
 1707W        W 5451   6.787   6.292   1.114  0.2308  0.0324 -0.0778
 1708W        W 5452   0.763   6.568  11.164  0.1679  0.3770 -0.2659
 1709W        W 5453   3.830   9.545  10.626 -0.1207  0.1409  0.0069
 1710W        W 5454   7.435   7.614  12.818  0.4793 -0.3019  0.0996
 1711W        W 5455   4.801   6.514  11.044 -0.2242  0.3139 -0.0162
 1712W        W 5456   7.578   7.720   1.380  0.2252  0.0240 -0.1061
 1713W        W 5457   0.018   3.431  10.311 -0.0705  0.1992 -0.2641
 1714W        W 5458   5.002   3.795  12.792  0.4109  0.3982  0.1261
 1715W        W 5459   1.318   1.475   8.450 -0.3167  0.3589 -0.1296
 1716W        W 5460   6.615   5.025   0.131 -0.2552  0.0909 -0.1059
 1717W        W 5461   2.145   7.621  10.866 -0.0530 -0.0361  0.0334
 1718W        W 5462   7.221   2.868   2.022 -0.1430  0.0250  0.2097
 1719W        W 5463   1.560   6.845  10.523 -0.1028 -0.0628  0.1553
 1720W        W 5464   9.010   3.881   2.358 -0.2819 -0.0055  0.3269
 1721W        W 5465   7.781   4.285   0.524  0.3166  0.1493 -0.3239
 1722W        W 5466   3.028   6.996   9.990 -0.3098  0.0004  0.0117
 1723W        W 5467   6.340   1.572  11.369 -0.1678 -0.1705  0.0374
 1724W        W 5468   5.600   5.291   0.754  0.0453 -0.1720  0.0853
 1725W        W 5469   9.001   6.225   2.078 -0.2638 -0.0147 -0.2971
 1726W        W 5470   9.145   3.445  10.672 -0.1045 -0.0785 -0.1261
 1727W        W 5471   6.490   9.777  11.491  0.1659  0.2028  0.1425
 1728W        W 5472   9.698   4.068  11.229  0.1303  0.0880  0.0465
 1729W        W 5473   2.718   7.801   0.929 -0.2005 -0.1893 -0.2872
 1730W        W 5474   6.649   9.015  11.821  0.1563  0.3709 -0.0896
 1731W        W 5475   9.563   3.883  12.537  0.0389  0.0317 -0.1995
 1732W        W 5476   2.404   2.481   3.493  0.2125  0.1728  0.0997
 1733W        W 5477   5.106   8.076  12.921  0.0048 -0.2738 -0.0214
 1734W        W 5478   6.920   8.971   2.423  0.2406  0.2763 -0.0553
 1735W        W 5479   5.093   4.825   3.721 -0.1533 -0.0842 -0.2123
 1736W        W 5480   1.915   1.906   4.617  0.3387 -0.4677  0.3256
 1737W        W 5481   2.234   0.456  11.805  0.7353  0.0277 -0.1716
 1738W        W 5482   8.273   5.508   2.440 -0.1510  0.0079 -0.4001
 1739W        W 5483   6.499   1.963  10.036  0.1807  0.0264  0.2007
 1740W        W 5484   9.194   7.919  11.359 -0.0067 -0.0937  0.3324
 1741W        W 5485   7.491   6.043   0.804  0.0011  0.2007 -0.3166
 1742W        W 5486   8.225   5.951   2.144 -0.1187  0.0601 -0.1641
 1743W        W 5487   1.013   7.268  10.023 -0.2320  0.0919  0.5002
 1744W        W 5488   4.527   9.394   9.271  0.0425 -0.3044 -0.0919
 1745W        W 5489   3.787   0.734   0.801  0.0483  0.0928  0.4900
 1746W        W 5490   3.980   4.060   0.294 -0.3433  0.2064 -0.3007
 1747W        W 5491   1.845   8.358  12.664  0.0761 -0.0271  0.1912
 1748W        W 5492   7.216   1.952  10.909  0.0525 -0.2136 -0.1042
 1749W        W 5493   7.208   1.789   4.743  0.3088  0.0447 -0.0421
 1750W        W 5494   2.960   8.187   9.752 -0.1705 -0.0517 -0.1560
 1751W        W 5495   2.378   0.643   9.468 -0.0263  0.2352 -0.0821
 1752W        W 5496   5.216   3.332  11.597 -0.0506  0.1677  0.0793
 1753W        W 5497   9.361   1.618   4.789 -0.1324 -0.0002 -0.0262
 1754W        W 5498   5.576   4.633  12.503  0.2748  0.2664 -0.1855
 1755W        W 5499   8.556   1.653   2.634  0.2524  0.0300  0.0378
 1756W        W 5500   8.848   8.363   7.897 -0.3363 -0.0303 -0.1895
 1757W        W 5501   0.804   0.345   3.349  0.0949 -0.3754  0.1425
 1758W        W 5502   2.027   0.657   0.859  0.1960 -0.3081 -0.2880
 1759W        W 5503   7.137   9.785   9.033  0.0827 -0.1539  0.4457
 1760W        W 5504   7.688   6.607  10.105 -0.1768 -0.3241 -0.3150
 1761W        W 5505   4.707   2.728   4.302  0.0076  0.2748  0.3604
 1762W        W 5506   9.289   0.427   2.298 -0.2565  0.0765 -0.2744
 1763W        W 5507   8.375   0.561  12.098 -0.2498  0.1395 -0.0590
 1764W        W 5508   1.949   1.560   0.968  0.1523  0.2170 -0.1136
 1765W        W 5509   4.176   7.230  10.359 -0.5708  0.1119  0.0076
 1766W        W 5510   7.231   9.662  10.549  0.1897 -0.2207  0.0565
 1767W        W 5511   7.671   1.790  10.742  0.2472 -0.0271  0.1088
 1768W        W 5512   3.341   3.319  10.014 -0.0301  0.0396  0.1538
 1769W        W 5513   6.806   0.178   1.531  0.1595 -0.0032  0.1333
 1770W        W 5514   8.236   3.430   2.706 -0.1263  0.0431  0.4108
 1771W        W 5515   6.782   5.708   1.326 -0.0109 -0.3008  0.2427
 1772W        W 5516   1.643   7.421   0.666  0.4509  0.2098  0.1841
 1773W        W 5517   2.427   4.743   0.150  0.0987  0.1299 -0.0381
 1774W        W 5518   8.299   0.255   1.060  0.0572  0.0523 -0.1359
 1775W        W 5519   3.328   4.673   3.147  0.2654 -0.0579 -0.1009
 1776W        W 5520   3.512   4.128  11.181 -0.1772  0.3645 -0.2532
 1777W        W 5521   7.558   8.588  12.288  0.1892  0.1704  0.2792
 1778W        W 5522   2.021   2.621  12.367  0.0133 -0.0920 -0.1118
 1779W        W 5523   7.497   8.722  10.689  0.3599  0.1407  0.1119
 1780W        W 5524   0.701   0.028   2.540  0.4208  0.1402 -0.2102
 1781W        W 5525   0.647   2.524  11.769 -0.0550 -0.0187 -0.1429
 1782W        W 5526   6.163   5.673  10.491  0.1456 -0.0481  0.3166
 1783W        W 5527   7.086   7.708   2.411 -0.0985  0.0321  0.0795
 1784W        W 5528   9.349   8.136   1.679 -0.1706  0.1688 -0.1213
 1785W        W 5529   3.440   4.618   3.757  0.2884 -0.3654  0.1689
 1786W        W 5530   1.044   0.091  12.358 -0.1584  0.1605 -0.2067
 1787W        W 5531   7.606   2.230  12.594  0.0991 -0.0424 -0.0072
 1788W        W 5532   5.504   1.572   2.512  0.1564 -0.0745  0.2354
 1789W        W 5533   2.713   6.291  12.140 -0.2655 -0.0057 -0.0860
 1790W        W 5534   2.939   9.834   4.132 -0.0747  0.1633 -0.1126
 1791W        W 5535   1.658   8.629   1.787 -0.2377  0.1065 -0.3257
 1792W        W 5536   1.093   1.015   0.824  0.0872  0.5095 -0.0828
 1793W        W 5537   0.242   6.279  12.775 -0.2203 -0.0416  0.2522
 1794W        W 5538   2.265   9.702   8.425 -0.0873  0.0172  0.0716
 1795W        W 5539   3.647   4.109   2.445 -0.1716 -0.1693  0.0169
 1796W        W 5540   1.809   6.197  11.260 -0.2224 -0.3502 -0.1590
 1797W        W 5541   8.075   2.981  12.324 -0.2555 -0.2268  0.0288
 1798W        W 5542   1.342   6.502   9.745  0.1213  0.2838 -0.3039
 1799W        W 5543   5.223   0.808   2.995  0.1319  0.3472  0.0443
 1800W        W 5544   4.375   4.726  12.446 -0.1629  0.1639  0.0119
 1801W        W 5545   4.463   2.855   3.862  0.0677 -0.1738 -0.1478
 1802W        W 5546   3.280   6.916   9.535 -0.1839  0.2502 -0.1979
 1803W        W 5547   1.628   2.489   0.266 -0.0297 -0.1663  0.1386
 1804W        W 5548   5.753   3.138   2.778 -0.2481  0.2014  0.0416
 1805W        W 5549   0.025   6.263   1.713 -0.1628 -0.1384  0.2723
 1806W        W 5550   3.761   1.186   1.500 -0.1151  0.0142  0.2147
 1807W        W 5551   3.228   4.446  11.549  0.0353  0.1175  0.2512
 1808W        W 5552   4.532   8.019  12.631 -0.1151 -0.0048  0.2420
 1809W        W 5553   0.692   2.389  12.283  0.0446 -0.0916  0.0664
 1810W        W 5554   1.609   6.353  10.749  0.0254 -0.1551  0.0016
 1811W        W 5555   7.724   0.346   0.427  0.0260 -0.0361 -0.2952
 1812W        W 5556   5.758   8.717  11.390  0.0690  0.2029 -0.1302
 1813W        W 5557   2.313   5.514  11.850  0.0502 -0.1888 -0.1081
 1814W        W 5558   8.920   3.802   3.521 -0.1268 -0.0954  0.0012
 1815W        W 5559   6.965   8.157   5.210  0.0594 -0.2171 -0.1751
 1816W        W 5560   5.046   5.844   8.579  0.1378  0.0370 -0.0659
 1817W        W 5561   6.246   3.881  10.798  0.2242 -0.2249  0.0611
 1818W        W 5562   5.321   7.023   2.449 -0.0094  0.1272  0.1071
 1819W        W 5563   3.318   5.590   2.019  0.0902  0.2053 -0.2435
 1820W        W 5564   7.775   4.295   1.549  0.1532 -0.0571  0.0592
 1821W        W 5565   7.633   2.998  11.457 -0.2205  0.0011 -0.0473
 1822W        W 5566   7.227   1.064  11.164 -0.2199  0.0331 -0.3017
 1823W        W 5567   7.888   5.032  10.152  0.3310 -0.1387  0.1699
 1824W        W 5568   0.507   2.493   1.580  0.3835  0.1889  0.6515
 1825W        W 5569   8.348   6.474  10.473  0.1236  0.1718 -0.1193
 1826W        W 5570   1.669   6.506  12.728  0.1959  0.0310  0.2070
 1827W        W 5571   2.199   0.045   8.889 -0.1937  0.0096 -0.0445
 1828W        W 5572   6.983   7.383   1.427  0.2173 -0.1941 -0.0907
 1829W        W 5573   6.326   8.652   9.170 -0.0963 -0.0915  0.2215
 1830W        W 5574   6.187   8.569  12.838  0.0455  0.2404 -0.1886
 1831W        W 5575   9.109   5.074  10.377 -0.0409 -0.2639  0.1838
 1832W        W 5576   4.785   7.967  10.068  0.1389  0.1929  0.1828
 1833W        W 5577   5.378   8.255   3.780  0.1625 -0.1525  0.1465
 1834W        W 5578   0.855   2.908   4.101  0.3318 -0.0341  0.3209
 1835W        W 5579   4.306   9.561   0.739 -0.0789 -0.0407  0.2407
 1836W        W 5580   2.501   0.218   0.626  0.2574 -0.2837  0.0747
 1837W        W 5581   1.729   9.778  10.572 -0.0539 -0.0566  0.1468
 1838W        W 5582   6.290   7.971   0.116  0.1942  0.0512 -0.0653
 1839W        W 5583   6.814   2.210  11.035  0.5161  0.1340 -0.0437
 1840W        W 5584   8.756   9.573  12.282  0.4810 -0.2922  0.0084
 1841W        W 5585   5.363   5.277   2.517  0.1423 -0.1701 -0.0832
 1842W        W 5586   3.208   7.972  10.068 -0.2217  0.1323 -0.1588
 1843W        W 5587   3.390   0.662   8.480  0.3521  0.0808  0.2743
 1844W        W 5588   3.488   4.594  11.986  0.1378  0.2021 -0.1186
 1845W        W 5589   3.225   9.429  12.713  0.4337  0.0133 -0.1631
 1846W        W 5590   7.264   7.117   3.510  0.3255  0.0202 -0.0590
 1847W        W 5591   4.094   0.338  10.563 -0.1269  0.1120 -0.2183
 1848W        W 5592   2.655   1.519   0.265 -0.1444  0.0338  0.0932
 1849W        W 5593   1.551   2.171   3.741  0.0225  0.2606 -0.1644
 1850W        W 5594   7.304   9.436   2.698 -0.1986 -0.1831 -0.2528
 1851W        W 5595   4.240   2.297   1.388 -0.0509 -0.0427  0.1090
 1852W        W 5596   6.751   4.438  12.144  0.2196  0.1293  0.0845
 1853W        W 5597   0.428   7.025   2.548  0.2949  0.0535 -0.2703
 1854W        W 5598   1.132   2.709   0.876  0.0970  0.1985 -0.1040
 1855W        W 5599   0.347   3.095   3.359 -0.3161 -0.0645 -0.0142
 1856W        W 5600   8.887   2.994  12.763  0.0352 -0.2388 -0.2997
 1857W        W 5601   7.660   7.450  10.465 -0.2006  0.1012  0.1212
 1858W        W 5602   7.704   1.798  12.804 -0.0450  0.2973 -0.0040
 1859W        W 5603   9.639   3.122   1.340 -0.1243 -0.1828  0.1394
 1860W        W 5604   2.797   2.311   3.235  0.0198 -0.0332  0.2240
 1861W        W 5605   0.648   1.212   5.072 -0.0990 -0.0916 -0.1780
 1862W        W 5606   5.372   5.024  12.340 -0.3826 -0.0883 -0.1856
 1863W        W 5607   9.618   2.754   8.610  0.1527 -0.1753 -0.0877
 1864W        W 5608   7.535   8.204   1.366  0.1523  0.0296 -0.0055
 1865W        W 5609   7.031   5.969   9.591 -0.4257 -0.1020 -0.4602
 1866W        W 5610   2.193   3.865   0.689  0.1786  0.2732 -0.2160
 1867W        W 5611   6.628   4.546  10.140  0.0675  0.4305 -0.0249
 1868W        W 5612   7.527   1.140   9.524  0.0709  0.4706  0.0094
 1869W        W 5613   7.675   0.226  11.880 -0.0296 -0.2716 -0.1548
 1870W        W 5614   0.970   3.791  10.340 -0.1318  0.0581 -0.0458
 1871W        W 5615   2.425   1.493   1.234 -0.0544  0.0658  0.3646
 1872W        W 5616   9.466   3.202   3.055  0.2550  0.1148  0.1704
 1873W        W 5617   0.969   8.026   3.095 -0.0733  0.3054 -0.0717
 1874W        W 5618   6.305   0.003  10.883 -0.0874  0.0888 -0.0993
 1875W        W 5619   4.363   8.295   1.000 -0.1729 -0.0858 -0.1316
 1876W        W 5620   8.274   1.469   1.005  0.1156 -0.2271 -0.3733
 1877W        W 5621   6.963   2.574   0.495  0.0974  0.1678 -0.1606
 1878W        W 5622   1.117   9.728  12.733 -0.0779  0.1527  0.2753
 1879W        W 5623   4.970   8.401   2.303  0.1930 -0.0508 -0.0927
 1880W        W 5624   4.232   2.156   9.060  0.1313 -0.1837  0.0879
 1881W        W 5625   4.857   1.378  10.602 -0.1079 -0.0267 -0.1219
 1882W        W 5626   3.383   9.571  10.062  0.0218  0.1723  0.0016
 1883W        W 5627   9.797   7.037   1.533 -0.1250  0.1408  0.0024
 1884W        W 5628   5.740   5.936   9.894 -0.2410 -0.2489 -0.2177
 1885W        W 5629   5.404   7.171  11.831 -0.1218  0.2420  0.0005
 1886W        W 5630   5.304   5.263  12.944  0.3858 -0.0217 -0.1023
 1887W        W 5631   3.519   6.181   2.616  0.0061  0.1076 -0.1258
 1888W        W 5632   4.939   4.048   0.336  0.0420  0.2026  0.0541
 1889W        W 5633   3.548   3.857   2.878  0.0944  0.1572 -0.0083
 1890W        W 5634   3.768   8.077   2.562 -0.1213 -0.0600  0.2122
 1891W        W 5635   2.740   9.373   2.543  0.2781  0.0517 -0.0655
 1892W        W 5636   6.894   2.223  10.554 -0.1605 -0.0444  0.0873
 1893W        W 5637   6.635   4.586  11.346 -0.2602  0.2311  0.2721
 1894W        W 5638   1.160   1.733  11.877 -0.1587 -0.1795 -0.2797
 1895W        W 5639   4.924   0.293   2.443  0.3095  0.2719 -0.0963
 1896W        W 5640   8.156   2.923  11.440  0.1617 -0.1303  0.1395
 1897W        W 5641   8.913   2.713   9.837  0.0037 -0.0529  0.2406
 1898W        W 5642   0.773   7.099  12.918 -0.1661  0.0563  0.0150
 1899W        W 5643   2.642   9.394  12.555 -0.2887  0.0256  0.0098
 1900W        W 5644   3.658   1.174  10.741 -0.3127 -0.2090 -0.3577
 1901W        W 5645   6.922   5.514   9.776  0.0500  0.0817  0.0265
 1902W        W 5646   2.033   1.989  11.019  0.5181  0.0121 -0.2277
 1903W        W 5647   4.517   6.631   3.236  0.0258  0.1720 -0.2090
 1904W        W 5648   8.019   2.273   0.433  0.4534 -0.0234  0.0974
 1905W        W 5649   8.412   4.758   1.777  0.1252 -0.0411  0.1171
 1906W        W 5650   4.202   2.571   3.373  0.1023 -0.1646  0.2156
 1907W        W 5651   3.137   4.143   0.959 -0.0527 -0.0517 -0.0603
 1908W        W 5652   7.915   5.793   0.738 -0.4242 -0.3057  0.0707
 1909W        W 5653   3.427   1.682   1.005  0.1571 -0.0744 -0.0179
 1910W        W 5654   9.206   1.463  10.298  0.2165 -0.0017 -0.1628
 1911W        W 5655   4.418   1.146   2.187  0.3624 -0.1684 -0.0786
 1912W        W 5656   5.081   9.244   9.109  0.2443  0.1812  0.2127
 1913W        W 5657   2.524   8.023  12.848 -0.1965  0.0117 -0.0612
 1914W        W 5658   1.393   9.420   8.737  0.2377  0.0421  0.3705
 1915W        W 5659   2.069   1.787   2.715  0.2257  0.1649 -0.0113
 1916W        W 5660   1.867   9.835   0.921 -0.0800  0.1057  0.1749
 1917W        W 5661   7.019   5.710   1.996  0.3078 -0.0617 -0.0384
 1918W        W 5662   1.391   3.746   1.195  0.1758 -0.2159 -0.4187
 1919W        W 5663   6.002   4.595   1.039 -0.1723  0.0253  0.0282
 1920W        W 5664   0.433   1.554  11.399 -0.0503  0.0285  0.1181
 1921W        W 5665   0.515   0.992  12.655 -0.0806  0.0753 -0.1313
 1922W        W 5666   2.771   9.817   0.329 -0.1014 -0.1385 -0.0737
 1923W        W 5667   3.455   1.591   2.784  0.2012  0.2811  0.1125
 1924W        W 5668   1.979   0.231  10.352 -0.3310 -0.1390  0.1599
 1925W        W 5669   4.911   9.774  11.568  0.0551  0.1457 -0.2390
 1926W        W 5670   7.498   3.685   3.169  0.1898 -0.3203 -0.0501
 1927W        W 5671   2.668   4.308   0.195  0.3486 -0.4018 -0.3422
 1928W        W 5672   4.571   4.930  11.479  0.1546 -0.2653  0.1913
 1929W        W 5673   1.417   5.251  11.148 -0.0409  0.0258 -0.0317
 1930W        W 5674   8.538   9.251  11.860 -0.3039  0.2368  0.0774
 1931W        W 5675   8.874   4.090   3.068 -0.2500  0.2403 -0.1676
 1932W        W 5676   5.042   0.999  10.949 -0.0469  0.3796  0.2624
 1933W        W 5677   3.624   5.213   1.156  0.0133  0.0609  0.0772
 1934W        W 5678   2.857   4.488   2.970 -0.0821  0.1291  0.2795
 1935W        W 5679   6.018   6.343   4.807  0.1535  0.2315  0.1694
 1936W        W 5680   8.253   1.331   4.098 -0.1901  0.1719 -0.2018
 1937W        W 5681   4.737   1.519   2.879  0.0060 -0.1776  0.1874
 1938W        W 5682   7.570   4.052  10.259 -0.0293  0.0304 -0.2301
 1939W        W 5683   1.892   1.393   9.073 -0.0327 -0.0532 -0.0859
 1940W        W 5684   7.246   3.372   9.255  0.0400 -0.0191 -0.0891
 1941W        W 5685   2.769   9.780   3.337 -0.0440  0.0294 -0.1171
 1942W        W 5686   8.494   0.958   9.502  0.4653 -0.1714 -0.2636
 1943W        W 5687   5.626   5.699   2.205  0.0719 -0.0540 -0.1936
 1944W        W 5688   1.916   7.588   3.404 -0.2045  0.1634 -0.1115
 1945W        W 5689   9.793   4.263  10.359  0.0422  0.0900 -0.0480
 1946W        W 5690   7.417   8.376   4.059 -0.0071  0.0541 -0.3234
 1947W        W 5691   1.690   9.288   3.842  0.1674 -0.2870 -0.3028
 1948W        W 5692   4.913   7.418  11.131  0.0537  0.2721  0.0873
 1949W        W 5693   6.397   6.631   0.548  0.0327  0.1113 -0.2490
 1950W        W 5694   8.951   8.542   9.866 -0.0509  0.2643  0.1890
 1951W        W 5695   5.811   3.536  11.648 -0.1083 -0.0129  0.1598
 1952W        W 5696   6.227   7.441   0.021 -0.2650  0.0780  0.0842
 1953W        W 5697   3.815   1.112   0.342  0.1326 -0.0569  0.2575
 1954W        W 5698   0.428   0.887   2.009 -0.2272  0.0158  0.1430
 1955W        W 5699   1.994   9.022   1.440  0.0976  0.2675  0.2100
 1956W        W 5700   2.015   2.422   0.621  0.0959 -0.1759 -0.0136
 1957W        W 5701   8.111   0.713   8.334 -0.0128 -0.0552  0.1518
 1958W        W 5702   1.161   9.544   1.663 -0.0257  0.2235  0.0971
 1959W        W 5703   6.840   2.750  10.492  0.1232  0.0458 -0.5632
 1960W        W 5704   5.319   2.238  11.411 -0.1591 -0.2016 -0.5132
 1961W        W 5705   4.159   3.195   0.756  0.1089 -0.0609  0.2177
 1962W        W 5706   5.273   9.046  12.550 -0.2769 -0.1591  0.3952
 1963W        W 5707   2.728   7.802   1.431 -0.4450  0.2969 -0.2268
 1964W        W 5708   0.872   2.844   9.016  0.2544 -0.0445  0.1361
 1965W        W 5709   9.336   1.547  12.711 -0.1905  0.1650 -0.0536
 1966W        W 5710   7.558   9.163   2.337 -0.1010 -0.1477 -0.0236
 1967W        W 5711   0.147   1.998   9.813 -0.2635  0.3302 -0.1964
 1968W        W 5712   2.894   7.415   0.625 -0.3301 -0.1222 -0.1115
 1969W        W 5713   7.349   4.881   8.793  0.1235  0.3277  0.2488
 1970W        W 5714   7.514   3.039   4.986  0.1527 -0.1110  0.0429
 1971W        W 5715   7.361   8.644   2.387  0.0543 -0.1193  0.1239
 1972W        W 5716   7.617   7.814  11.077  0.0033 -0.0533 -0.0759
 1973W        W 5717   6.712   0.789   9.627 -0.3536 -0.1239  0.0906
 1974W        W 5718   9.892   7.642  10.574 -0.1039 -0.2075 -0.2055
 1975W        W 5719   3.963   4.627   4.591  0.1151 -0.0935  0.3026
 1976W        W 5720   1.293   9.511  12.229  0.1676  0.2822 -0.1488
 1977W        W 5721   6.444   3.412  10.799  0.0264  0.0800 -0.0032
 1978W        W 5722   1.681   6.374   3.591  0.0696 -0.0711  0.0494
 1979W        W 5723   8.271   2.936   2.654  0.0645  0.1508  0.0265
 1980W        W 5724   3.553   3.228   2.078 -0.4090  0.1661 -0.2262
 1981W        W 5725   1.953   7.704  11.513 -0.1566  0.2501 -0.0951
 1982W        W 5726   3.191   2.196   1.062 -0.1063  0.1375  0.0759
 1983W        W 5727   0.956   5.329   0.460  0.1791  0.0996  0.1233
 1984W        W 5728   8.229   3.085  10.440 -0.2021  0.0197  0.1745
 1985W        W 5729   7.970   1.640   2.399 -0.0385  0.2811  0.0434
 1986W        W 5730   5.726   6.813   0.469 -0.3290 -0.0980  0.1872
 1987W        W 5731   0.924   8.765   1.043  0.0537  0.0539  0.1386
 1988W        W 5732   4.876   1.664   8.531 -0.0081 -0.0097 -0.2856
 1989W        W 5733   5.200   9.596  12.561  0.0994  0.3182  0.0172
 1990W        W 5734   0.798   3.071   0.887  0.1798 -0.1482  0.1017
 1991W        W 5735   6.083   2.723   2.886 -0.2287  0.1024  0.2155
 1992W        W 5736   0.586   8.908   2.175  0.1283  0.1303 -0.0643
 1993W        W 5737   0.474   7.161   1.048 -0.3240 -0.0154  0.4012
 1994W        W 5738   7.033   0.628  11.299  0.2169  0.0342 -0.3497
 1995W        W 5739   9.626   9.538   3.278 -0.1593 -0.0729 -0.3131
 1996W        W 5740   0.368   8.247  10.469  0.1627 -0.0787  0.1034
 1997W        W 5741   3.155   0.667   4.066  0.1049 -0.2159  0.1494
 1998W        W 5742   1.404   8.827   2.220 -0.1932  0.0647  0.0476
 1999W        W 5743   5.862   0.733  10.429 -0.4731  0.1036  0.1554
 2000W        W 5744   8.751   3.831   9.424 -0.1299  0.2373  0.1692
 2001W        W 5745   3.436   1.082  10.231  0.0186 -0.0834  0.0218
 2002W        W 5746   5.324   3.568   0.552 -0.0317 -0.0163 -0.0973
 2003W        W 5747   6.780   2.379   9.988  0.0431  0.0145 -0.0740
 2004W        W 5748   6.771   1.737   3.639  0.1078  0.1172 -0.0928
 2005W        W 5749   9.636   2.271   8.759 -0.1107 -0.1066 -0.1105
 2006W        W 5750   7.042   5.846   0.427 -0.3044 -0.0725  0.0030
 2007W        W 5751   9.536   2.057   3.734 -0.0814  0.0899 -0.0060
 2008W        W 5752   9.034   9.824   9.207 -0.0628 -0.0178  0.0231
 2009W        W 5753   3.313   7.409   3.799 -0.0060  0.2200  0.1192
 2010W        W 5754   8.108   3.256   0.222 -0.0074 -0.0863 -0.2694
 2011W        W 5755   9.236   5.353  10.884  0.3905  0.2281  0.1209
 2012W        W 5756   3.186   1.731   1.935 -0.0815 -0.4531  0.1623
 2013W        W 5757   1.629   7.678   1.733 -0.1303  0.2735  0.2813
 2014W        W 5758   5.477   6.848   4.087 -0.2935  0.1563  0.1340
 2015W        W 5759   0.542   5.248   0.880 -0.1210  0.1349 -0.0852
 2016W        W 5760   3.158   0.279   3.035  0.1927  0.1006  0.1529
 2017W        W 5761   9.682   2.217   0.500  0.1826 -0.1899 -0.1964
 2018W        W 5762   9.183   2.467  12.775  0.1383 -0.0020 -0.1644
 2019W        W 5763   0.499   0.831   4.708 -0.2070  0.0268 -0.1284
 2020W        W 5764   7.243   8.153   8.711 -0.0291  0.2515  0.1920
 2021W        W 5765   2.309   7.535   9.933  0.0588 -0.0219 -0.0365
 2022W        W 5766   9.090   3.661   8.225 -0.2294  0.1524 -0.0160
 2023W        W 5767   6.791   5.451  12.087 -0.2116 -0.1866 -0.3786
 2024W        W 5768   4.175   3.847   1.164 -0.0727 -0.0113 -0.1955
 2025W        W 5769   7.901   0.623  12.046  0.0202 -0.0200  0.1136
 2026W        W 5770   0.123   3.052   2.209 -0.0689  0.1083  0.0512
 2027W        W 5771   5.263   6.499  12.403 -0.0398 -0.0137  0.1111
 2028W        W 5772   2.393   1.672   9.676 -0.3208  0.1580 -0.2783
 2029W        W 5773   9.141   3.942   9.836  0.0326  0.6302 -0.2399
 2030W        W 5774   1.088   0.277   2.783 -0.1125  0.2480 -0.3223
 2031W        W 5775   7.554   0.008  11.427 -0.2092 -0.0631  0.0339
 2032W        W 5776   7.112   2.300   4.781  0.1194 -0.4947  0.0359
 2033W        W 5777   7.227   7.230  10.537  0.1903  0.1404 -0.3156
 2034W        W 5778   2.241   2.021  10.017  0.2047  0.0448  0.1386
 2035W        W 5779   9.086   6.009  10.201 -0.3152 -0.2237  0.2035
 2036W        W 5780   1.906   0.505   4.053  0.1591  0.1239  0.1910
 2037W        W 5781   0.305   7.688   1.976  0.4106 -0.3177  0.0200
 2038W        W 5782   2.352   5.341   2.758  0.3102  0.0006 -0.3959
 2039W        W 5783   3.926   8.294  11.883 -0.1563 -0.2247 -0.1062
 2040W        W 5784   3.472   2.485   8.919 -0.0277 -0.0705 -0.1816
 2041W        W 5785   8.500   6.528  11.376  0.0049 -0.4667 -0.2665
 2042W        W 5786   3.414   4.247   1.489  0.0154  0.0417  0.2392
 2043W        W 5787   8.067   0.020  11.589  0.1579 -0.1653  0.0134
 2044W        W 5788   1.088   2.614   9.895 -0.0083 -0.0792 -0.2885
 2045W        W 5789   6.517   7.609  11.058  0.1918 -0.2114  0.2695
 2046W        W 5790   7.848   4.798   9.672  0.0506  0.1037  0.1011
 2047W        W 5791   9.124   4.893   2.086 -0.0609 -0.0251  0.3091
 2048W        W 5792   8.887   0.970   1.524  0.1571  0.1273 -0.1062
 2049W        W 5793   4.270   0.063   3.446  0.2099  0.0619  0.3493
 2050W        W 5794   8.656   8.625  12.435 -0.0680 -0.1551  0.2568
 2051W        W 5795   5.092   4.008   0.771 -0.3475 -0.1359  0.0451
 2052W        W 5796   2.727   1.748   8.867  0.0042  0.1441  0.2463
 2053W        W 5797   5.578   6.500   1.515 -0.2063  0.2267  0.2180
 2054W        W 5798   2.932   1.042   0.367  0.1966  0.0805  0.0625
 2055W        W 5799   5.709   3.467   3.503  0.0845 -0.3774  0.1046
 2056W        W 5800   2.742   7.440  10.114 -0.0169 -0.0190 -0.1207
 2057W        W 5801   6.758   5.885   8.746  0.1292  0.2254  0.0684
 2058W        W 5802   3.368   4.492  10.751 -0.2596  0.1900  0.0277
 2059W        W 5803   9.474   8.693  10.513  0.0377  0.0349 -0.1072
 2060W        W 5804   5.454   4.411   3.054 -0.0883  0.1266 -0.0919
 2061W        W 5805   8.881   3.500   2.652  0.3235 -0.0771 -0.1254
 2062W        W 5806   7.331   2.830   0.808 -0.0862 -0.1146 -0.0495
 2063W        W 5807   5.980   9.019   3.996  0.1245  0.1110  0.2893
 2064W        W 5808   3.723   7.492   0.582 -0.2360  0.0718 -0.2768
 2065W        W 5809   4.931   9.518   9.785 -0.0728  0.0077  0.0825
 2066W        W 5810   2.046   7.742   9.432  0.0191 -0.1655  0.2317
 2067W        W 5811   1.235   2.729   4.495 -0.1368  0.2183  0.4366
 2068W        W 5812   5.863   0.356   4.721 -0.3069 -0.0587 -0.1113
 2069W        W 5813   6.126   9.148   9.258 -0.0718  0.1267 -0.0284
 2070W        W 5814   5.983   7.192  10.469 -0.0296 -0.0555 -0.0875
 2071W        W 5815   7.964   0.130   2.695 -0.3807  0.0564 -0.2254
 2072W        W 5816   6.633   3.965   9.288  0.1177  0.4197 -0.2357
 2073W        W 5817   0.042   4.427   9.862  0.0801  0.1786 -0.0271
 2074W        W 5818   4.348   3.524  12.039 -0.4705 -0.0999  0.1577
 2075W        W 5819   5.999   5.784   2.553  0.0631 -0.0147 -0.0153
 2076W        W 5820   4.560   8.662   1.354 -0.1088  0.1157  0.0111
 2077W        W 5821   3.151   2.164   8.648  0.0385 -0.1625 -0.1519
 2078W        W 5822   6.679   7.536   2.667 -0.0084 -0.1844 -0.1848
 2079W        W 5823   0.771   6.067   2.480 -0.1016  0.1354 -0.0028
 2080W        W 5824   9.105   1.887   9.345 -0.0270 -0.2962 -0.1846
 2081W        W 5825   5.939   2.785   9.774 -0.1699 -0.2334 -0.0830
 2082W        W 5826   5.902   4.432  10.358  0.0723  0.0704 -0.2201
 2083W        W 5827   7.371   7.069  12.455 -0.2259  0.0989 -0.0681
 2084W        W 5828   6.263   1.918   2.097 -0.0255  0.0203  0.0101
 2085W        W 5829   3.940   4.749   9.312 -0.1670 -0.3063 -0.1370
 2086W        W 5830   6.417   7.131   8.886  0.1609 -0.0022  0.0386
 2087W        W 5831   7.431   6.787   9.690 -0.2592  0.2276 -0.0919
 2088W        W 5832   2.174   1.079   2.189 -0.2072 -0.0547 -0.1087
 2089W        W 5833   7.742   8.384   2.106 -0.2148 -0.2190 -0.0161
 2090W        W 5834   6.579   3.456  12.222 -0.0956 -0.0161  0.1010
 2091W        W 5835   5.847   2.126   1.721  0.0349 -0.1844  0.1176
 2092W        W 5836   1.350   0.506  12.132  0.2053 -0.0869 -0.4933
 2093W        W 5837   3.544   3.138  10.943  0.1382  0.0444  0.3157
 2094W        W 5838   8.459   4.708  12.346 -0.0050 -0.0985  0.4276
 2095W        W 5839   4.834   0.094   0.638  0.2610 -0.0962  0.1019
 2096W        W 5840   6.350   1.417   9.010 -0.2969 -0.2527  0.0769
 2097W        W 5841   4.764   4.924   2.882  0.2946 -0.3861  0.0677
 2098W        W 5842   8.758   3.165   1.863  0.1229  0.0031  0.1088
 2099W        W 5843   6.639   2.794   3.427 -0.2702  0.0300 -0.1170
 2100W        W 5844   0.374   3.035   0.590 -0.2021  0.3623 -0.0168
 2101W        W 5845   7.967   2.628   9.292 -0.0589 -0.0060  0.4996
 2102W        W 5846   3.748   5.397  12.505  0.2589  0.1890 -0.0042
 2103W        W 5847   9.404   4.424   0.812  0.3096  0.3166  0.1195
 2104W        W 5848   3.468   7.238  10.911 -0.1994 -0.0253  0.0175
 2105W        W 5849   0.209   0.013   0.647 -0.1756 -0.1461 -0.1085
 2106W        W 5850   1.933   8.219  12.134 -0.1932 -0.1588 -0.1980
 2107W        W 5851   9.837   0.234  11.030 -0.2672 -0.0652  0.0225
 2108W        W 5852   9.609   9.346   4.247 -0.0346 -0.0926  0.0822
 2109W        W 5853   1.368   2.660   1.609 -0.0249 -0.2341 -0.0952
 2110W        W 5854   0.928   9.614   1.244  0.2538  0.0970  0.2388
 2111W        W 5855   2.031   9.872  10.982 -0.0032  0.2783 -0.2158
 2112W        W 5856   3.720   8.207  12.317  0.2402 -0.1509 -0.1411
 2113W        W 5857   0.968   2.074   0.301  0.0002 -0.1854  0.1693
 2114W        W 5858   6.769   5.235   1.194  0.0512 -0.0312  0.1221
 2115W        W 5859   7.652   1.055   8.069  0.1191 -0.4496  0.1998
 2116W        W 5860   2.669   9.343   0.654  0.1222 -0.3787  0.0113
 2117W        W 5861   6.957   6.227  10.081  0.2997  0.3964  0.1937
 2118W        W 5862   6.210   3.780   8.963 -0.1388 -0.0298  0.0769
 2119W        W 5863   9.315   3.110   9.907 -0.1444 -0.1362  0.1481
 2120W        W 5864   2.293   9.470  11.062 -0.0412 -0.4085 -0.1831
 2121W        W 5865   2.874   9.591   9.737 -0.0401 -0.0133 -0.0523
 2122W        W 5866   8.237   8.276   0.055  0.0400  0.1426  0.3535
 2123W        W 5867   9.892   6.467   9.987 -0.2179 -0.0924 -0.2482
 2124W        W 5868   2.653   0.960   1.297  0.0160 -0.0378  0.0753
 2125W        W 5869   2.106   4.839   1.574  0.0266 -0.1816  0.3506
 2126W        W 5870   0.586   8.252  10.965 -0.0447  0.1095  0.0784
 2127W        W 5871   3.078   5.786   9.904 -0.2842  0.1230 -0.2005
 2128W        W 5872   5.697   0.579  12.662  0.2007  0.0686  0.1431
 2129W        W 5873   0.201   3.045   1.573  0.0356  0.1009  0.1010
 2130W        W 5874   4.057   0.958  11.334 -0.2173  0.2614 -0.2819
 2131W        W 5875   8.167   8.463  12.363  0.0580  0.0796  0.0771
 2132W        W 5876   8.076   6.004  10.296  0.1793  0.0509 -0.1261
 2133W        W 5877   9.819   8.237   3.642  0.2401  0.0445  0.1602
 2134W        W 5878   7.426   4.249  12.542 -0.1652  0.4376  0.0364
 2135W        W 5879   4.911   7.629   4.423  0.2877  0.0553 -0.1094
 2136W        W 5880   2.765   3.406  12.888  0.3368 -0.1263 -0.0596
 2137W        W 5881   7.405   5.946   1.754 -0.0769 -0.0153 -0.3554
 2138W        W 5882   0.206   0.910   3.366 -0.2072  0.2795  0.5510
 2139W        W 5883   4.353   6.130   2.410  0.1691 -0.2587  0.2046
 2140W        W 5884   7.138   6.397   0.771 -0.0699  0.0905  0.0611
 2141W        W 5885   1.024   5.068  11.508 -0.3037  0.0733 -0.0765
 2142W        W 5886   2.550   2.034  11.875 -0.1003 -0.0437  0.2374
 2143W        W 5887   2.031   1.179  10.281 -0.2380 -0.2168  0.0393
 2144W        W 5888   9.841   3.787   0.146 -0.0826 -0.0848 -0.3120
 2145W        W 5889   1.661   6.974  12.520  0.1606 -0.0039 -0.0752
 2146W        W 5890   6.410   4.958  11.671 -0.0695 -0.2596 -0.6122
 2147W        W 5891   2.119   9.094  11.825  0.3046 -0.1080 -0.0468
 2148W        W 5892   8.769   2.639   2.765 -0.4397  0.1339 -0.0791
 2149W        W 5893   8.740   8.776   1.906 -0.2794  0.0345 -0.0592
 2150W        W 5894   9.018   7.417  11.806  0.2450  0.1705 -0.1192
 2151W        W 5895   7.409   2.077  10.413 -0.0334 -0.2631 -0.2459
 2152W        W 5896   7.367   4.358  10.619  0.1096  0.0263 -0.1546
 2153W        W 5897   9.136   3.341   0.123 -0.1505 -0.3484  0.0416
 2154W        W 5898   5.767   8.756   0.053 -0.0055 -0.1122 -0.1572
 2155W        W 5899   3.374   9.318  11.197 -0.0005  0.1608  0.3695
 2156W        W 5900   8.013   1.865   9.701  0.3008  0.2133  0.0828
 2157W        W 5901   1.781   4.423  11.165  0.1154  0.2397  0.0580
 2158W        W 5902   8.560   5.066   2.140 -0.2232  0.0191  0.0166
 2159W        W 5903   8.079   9.275   2.506  0.1903  0.2178  0.1957
 2160W        W 5904   9.581   9.196   0.902 -0.0318  0.0543 -0.1512
 2161W        W 5905   4.463   0.854   5.051  0.0760 -0.2078 -0.1589
 2162W        W 5906   2.616   6.634  10.257  0.3239 -0.1925  0.0276
 2163W        W 5907   6.210   6.211   2.976 -0.0976 -0.0054 -0.1725
 2164W        W 5908   9.011   9.514   3.514 -0.1057  0.1614  0.1783
 2165W        W 5909   8.356   4.172  12.306 -0.0361  0.2308 -0.1454
 2166W        W 5910   3.451   2.089  10.825  0.3377  0.2779  0.0636
 2167W        W 5911   8.204   0.509   0.565  0.1878 -0.2725 -0.1017
 2168W        W 5912   6.666   7.821   3.149 -0.2423  0.2063  0.0134
 2169W        W 5913   3.572   6.495  11.610  0.0685  0.2517  0.1130
 2170W        W 5914   3.870   1.149   1.960 -0.0993 -0.1750 -0.1914
 2171W        W 5915   2.416   3.005   8.205  0.2458 -0.2204  0.0449
 2172W        W 5916   6.228   4.869  10.431  0.0111  0.0864 -0.3269
 2173W        W 5917   7.220   0.690  10.802  0.0652 -0.1433 -0.0733
 2174W        W 5918   2.675   4.422   4.016  0.2103  0.5177  0.1912
 2175W        W 5919   4.765   4.077  10.672 -0.2727  0.0191  0.0873
 2176W        W 5920   2.945   0.326   2.512  0.0608 -0.0544  0.0708
 2177W        W 5921   5.598   4.683   9.954  0.1604  0.0934  0.0294
 2178W        W 5922   3.081   9.807  11.031 -0.3092  0.1159 -0.0880
 2179W        W 5923   6.654   2.964  11.484 -0.1996  0.0354 -0.0322
 2180W        W 5924   6.774   2.397   2.996 -0.0458 -0.2238  0.0702
 2181W        W 5925   3.475   4.034   3.710 -0.1850 -0.1525  0.0117
 2182W        W 5926   7.577   2.048   4.608  0.2373 -0.1145 -0.3238
 2183W        W 5927   8.763   2.177   2.660  0.1520  0.1499  0.3063
 2184W        W 5928   4.278   5.232   2.087 -0.1321 -0.3715  0.1371
 2185W        W 5929   7.966   3.737   1.821 -0.2749 -0.0837  0.0900
 2186W        W 5930   6.921   5.314  11.620 -0.2235 -0.0159 -0.4408
 2187W        W 5931   6.016   6.860   3.979  0.0007  0.0499  0.0037
 2188W        W 5932   5.847   4.459   0.564 -0.0430  0.0522 -0.2154
 2189W        W 5933   2.985   9.318  10.255 -0.3665 -0.0077  0.1774
 2190W        W 5934   7.267   1.199  12.140  0.1137  0.5521 -0.2513
 2191W        W 5935   1.920   3.047  12.691 -0.0837  0.1509 -0.0663
 2192W        W 5936   5.393   4.351   2.561 -0.4636 -0.0501  0.0689
 2193W        W 5937   0.786   3.790   3.352 -0.0097 -0.0251  0.0777
 2194W        W 5938   5.465   7.742   8.625 -0.0710  0.0320 -0.0259
 2195W        W 5939   6.357   6.126  10.755  0.0299  0.0560  0.0893
 2196W        W 5940   7.939   2.818   3.333  0.0671  0.1369 -0.0170
 2197W        W 5941   7.901   9.477   2.028 -0.6482  0.1110 -0.0768
 2198W        W 5942   4.324   5.359  10.666  0.0126  0.0293  0.1826
 2199W        W 5943   7.518   7.221  10.992 -0.1147  0.0132 -0.0175
 2200W        W 5944   9.100   8.057   9.876  0.0371  0.1835  0.2323
 2201W        W 5945   9.634   6.022  12.075  0.1176  0.0188 -0.0983
 2202W        W 5946   8.447   7.382   0.960  0.2074  0.0140 -0.0358
 2203W        W 5947   4.749   7.285   1.276  0.3299 -0.2067 -0.1058
 2204W        W 5948   2.597   2.198   2.827 -0.3897 -0.1105  0.3352
 2205W        W 5949   1.931   7.916   2.074 -0.3211 -0.0505  0.0393
 2206W        W 5950   6.357   7.374   3.169  0.2640 -0.0317  0.3784
 2207W        W 5951   3.698   8.453   2.281 -0.1334 -0.2345  0.1798
 2208W        W 5952   0.685   8.323   2.604 -0.0177  0.0485  0.2870
 2209W        W 5953   3.819   2.046  11.252 -0.1186 -0.1246 -0.0385
 2210W        W 5954   8.563   2.632   4.199 -0.4009  0.0944 -0.0998
 2211W        W 5955   3.059   3.666   9.763 -0.0775  0.3690  0.0979
 2212W        W 5956   3.957   4.492  12.034 -0.0053  0.2748  0.0136
 2213W        W 5957   3.937   6.066  11.164 -0.2214 -0.3253  0.0539
 2214W        W 5958   6.910   2.025   1.526 -0.1489 -0.0100  0.1624
 2215W        W 5959   4.788   9.605   0.983  0.5348  0.0716 -0.0406
 2216W        W 5960   4.550   4.833   9.334 -0.0388 -0.3075  0.2254
 2217W        W 5961   7.614   0.395   2.205 -0.2422  0.0165  0.2415
 2218W        W 5962   5.786   5.659   8.742 -0.0006  0.0597  0.0996
 2219W        W 5963   1.451   0.024   4.699 -0.0793  0.0272  0.1053
 2220W        W 5964   3.028   7.401   1.411 -0.0880  0.0119  0.2607
 2221W        W 5965   2.297   9.011  12.840 -0.0541  0.0461 -0.0264
 2222W        W 5966   3.200   8.104   2.374  0.0313 -0.0482  0.1185
 2223W        W 5967   7.035   1.976   2.752  0.1469 -0.0251 -0.2806
 2224W        W 5968   5.422   5.708   0.183 -0.0108 -0.0551 -0.0186
 2225W        W 5969   8.685   0.447   0.281  0.2113 -0.1821 -0.4925
 2226W        W 5970   5.524   2.155   0.101 -0.0912 -0.0490 -0.0530
 2227W        W 5971   1.524   9.093  10.613 -0.0397 -0.0250 -0.2564
 2228W        W 5972   1.881   7.155  12.122 -0.1977 -0.0785 -0.0270
 2229W        W 5973   9.453   5.922  10.748  0.0328  0.4448 -0.0546
 2230W        W 5974   7.140   8.200  10.916 -0.0298 -0.2333  0.0299
 2231W        W 5975   3.145   0.965   3.574 -0.0341  0.0593  0.1864
 2232W        W 5976   8.558   8.710   9.337  0.0935  0.2945  0.2294
 2233W        W 5977   4.969   6.190  11.390  0.0243  0.2271  0.1592
 2234W        W 5978   4.974   9.335  10.264  0.0179 -0.1573  0.0240
 2235W        W 5979   9.201   4.268   2.123  0.0155  0.1397  0.0073
 2236W        W 5980   4.218   4.723   2.057 -0.0981  0.4347  0.2125
 2237W        W 5981   2.467   3.896   3.802 -0.4186 -0.0770  0.0707
 2238W        W 5982   2.844   8.267   0.877 -0.1622 -0.1997 -0.2290
 2239W        W 5983   5.932   2.877   0.607 -0.2230  0.0651 -0.0719
 2240W        W 5984   0.442   4.260   1.827  0.0474  0.1350 -0.1736
 2241W        W 5985   4.707   5.534   1.905 -0.0803 -0.2143  0.2467
 2242W        W 5986   5.351   8.292   9.222  0.0946  0.1874 -0.2377
 2243W        W 5987   2.014   1.805   0.563  0.1876  0.2826  0.4022
 2244W        W 5988   3.293   9.122   3.014  0.0408  0.2648  0.1287
 2245W        W 5989   8.313   2.974   0.544  0.0045  0.2617  0.2226
 2246W        W 5990   2.385   4.881  10.779 -0.0763 -0.2293 -0.2396
 2247W        W 5991   1.546   9.891   1.945  0.1225 -0.2598 -0.1330
 2248W        W 5992   9.348   7.226   1.653 -0.0257  0.0710  0.2461
 2249W        W 5993   6.303   0.002   1.615 -0.2702  0.0832 -0.0711
 2250W        W 5994   6.007   5.428  10.010  0.0153  0.3285  0.0156
 2251W        W 5995   9.663   6.344  12.552  0.0271 -0.0763 -0.1568
 2252W        W 5996   0.271   3.809   3.205 -0.2101  0.1771  0.0408
 2253W        W 5997   5.497   7.187  11.323  0.0573  0.0496 -0.0451
 2254W        W 5998   8.798   6.445   9.432 -0.1691 -0.1964 -0.2324
 2255W        W 5999   6.374   1.491   3.782  0.0491 -0.0085  0.0971
 2256W        W 6000   0.984   1.891  10.523  0.1596  0.1498 -0.2738
 2257W        W 6001   1.103   3.179   8.754 -0.0203 -0.0740  0.2622
 2258W        W 6002   8.060   5.574   2.891 -0.2566  0.0257  0.0711
 2259W        W 6003   5.642   2.510  11.041 -0.1070 -0.1029  0.1073
 2260W        W 6004   8.056   2.552  12.631 -0.2461 -0.0917  0.2133
 2261W        W 6005   0.213   0.793  10.920  0.1755  0.1628 -0.0543
 2262W        W 6006   6.707   2.231   3.530  0.2012  0.3653  0.0821
 2263W        W 6007   5.717   4.660   2.306 -0.1031  0.0509  0.2394
 2264W        W 6008   0.171   2.766  11.738 -0.1066  0.0881 -0.1437
 2265W        W 6009   9.129   1.196  11.591 -0.5497 -0.0163  0.1459
 2266W        W 6010   4.359   8.125  10.318  0.0980 -0.0167 -0.0923
 2267W        W 6011   8.256   8.294   2.712  0.0821 -0.1557  0.0530
 2268W        W 6012   2.745   4.011   0.659 -0.0964  0.4022  0.0048
 2269W        W 6013   2.587   6.822  11.224  0.0897  0.1424  0.2419
 2270W        W 6014   6.065   2.852   4.201  0.1299  0.2080  0.2014
 2271W        W 6015   3.347   5.072  12.017 -0.3830  0.0514  0.4855
 2272W        W 6016   1.039   9.830   3.302 -0.3394  0.1237  0.0673
 2273W        W 6017   5.765   2.311   9.882  0.2952 -0.0880 -0.0242
 2274W        W 6018   6.585   9.729   1.250  0.0619 -0.2795 -0.4277
 2275W        W 6019   7.749   8.617   5.042  0.0992  0.1149  0.1049
 2276W        W 6020   6.615   0.525   3.292 -0.1283 -0.1658 -0.0380
 2277W        W 6021   4.609   2.277   3.189  0.0015  0.0407  0.0452
 2278W        W 6022   9.119   4.802  10.807 -0.1907 -0.2027 -0.2408
 2279W        W 6023   5.245   0.234   9.076 -0.0739 -0.3994 -0.5071
 2280W        W 6024   0.075   9.153  11.619 -0.0662 -0.3752  0.0045
 2281W        W 6025   6.350   4.217  10.438 -0.0792 -0.1739  0.5001
 2282W        W 6026   8.398   1.095   1.455  0.1010  0.2970 -0.1273
 2283W        W 6027   2.845   6.959   2.718 -0.1810 -0.0562 -0.1133
 2284W        W 6028   9.756   4.267   9.387 -0.1816 -0.2984  0.0750
 2285W        W 6029   4.975   0.857   4.980 -0.0614 -0.1195  0.1577
 2286W        W 6030   1.374   2.216   2.694  0.2188  0.0634  0.0167
 2287W        W 6031   5.437   6.098   8.751  0.3413  0.1038  0.0523
 2288W        W 6032   0.787   6.360  12.545 -0.0238 -0.0125  0.1843
 2289W        W 6033   5.666   8.683   0.911  0.2702  0.2841  0.1291
 2290W        W 6034   9.050   0.435  12.635  0.1247  0.0128 -0.1749
 2291W        W 6035   7.258   8.924   2.806 -0.1026 -0.3443  0.2451
 2292W        W 6036   5.957   8.362   8.479  0.4275  0.2732 -0.1184
 2293W        W 6037   3.528   9.710   0.907  0.2818 -0.1489  0.2007
 2294W        W 6038   4.855   2.454   9.772  0.0277 -0.4082 -0.1531
 2295W        W 6039   7.344   8.033   9.792 -0.2539  0.0683  0.4654
 2296W        W 6040   8.608   4.784  11.821 -0.0257  0.0567  0.2289
 2297W        W 6041   2.335   7.454  11.897 -0.3233 -0.4146 -0.0810
 2298W        W 6042   7.559   2.898   9.628  0.1423 -0.1308 -0.2269
 2299W        W 6043   9.711   8.317  11.322 -0.0486 -0.2266 -0.0140
 2300W        W 6044   9.820   7.213   2.778 -0.0129  0.3442  0.0789
 2301W        W 6045   5.791   4.535  11.318  0.0655  0.1778 -0.0698
 2302W        W 6046   4.001   3.550  11.251  0.0234 -0.4207 -0.0662
 2303W        W 6047   0.796   1.527   9.063 -0.2931 -0.1729 -0.2396
 2304W        W 6048   8.384   9.637   1.760 -0.0624  0.2461  0.0553
 2305W        W 6049   7.474   5.648   1.301  0.0266 -0.2011  0.1226
 2306W        W 6050   1.626   2.770   2.042 -0.1345  0.1008  0.0528
 2307W        W 6051   4.179   1.602   0.132  0.0244 -0.0010  0.2552
 2308W        W 6052   3.676   9.110   9.639  0.3596 -0.0482 -0.1494
 2309W        W 6053   4.583   7.831   0.333  0.0742 -0.1128 -0.1432
 2310W        W 6054   9.098   1.639   2.508  0.1689  0.2269 -0.1700
 2311W        W 6055   5.461   7.993   3.238 -0.0278  0.1175  0.0838
 2312W        W 6056   9.813   3.326   3.445  0.3562  0.1472 -0.1662
 2313W        W 6057   1.301   2.654  11.743 -0.0108 -0.0201  0.2691
 2314W        W 6058   3.350   9.750  11.448 -0.2744 -0.0366 -0.2841
 2315W        W 6059   0.996   6.905  12.533  0.0344 -0.0533  0.0274
 2316W        W 6060   3.916   7.973   3.215 -0.0212  0.1509  0.0830
 2317W        W 6061   6.906   4.142  11.286  0.0448 -0.2341 -0.7050
 2318W        W 6062   8.112   0.056  12.175 -0.2206  0.0877 -0.0777
 2319W        W 6063   7.513   8.926   3.628  0.0170 -0.0460 -0.2015
 2320W        W 6064   9.213   7.422  11.203  0.1131 -0.1402  0.1007
 2321W        W 6065   4.051   5.991   1.861  0.0812  0.5532  0.0013
 2322W        W 6066   7.379   3.080  12.150 -0.0726  0.1608 -0.0897
 2323W        W 6067   7.048   3.449   3.625  0.1136 -0.0215 -0.0901
 2324W        W 6068   9.328   5.874  12.433  0.0353  0.2138  0.1268
 2325W        W 6069   0.840   4.257   3.626 -0.1688 -0.2391 -0.0325
 2326W        W 6070   6.082   9.848   3.047 -0.1210 -0.1305 -0.2299
 2327W        W 6071   3.354   5.513   0.311  0.3210  0.2477  0.1956
 2328W        W 6072   3.244   1.214   1.855  0.2957 -0.2316 -0.1025
 2329W        W 6073   5.465   8.548   9.749 -0.0788 -0.0704  0.1026
 2330W        W 6074   8.081   0.450   4.857  0.0647 -0.2370 -0.3821
 2331W        W 6075   1.883   0.472   3.124  0.1664 -0.1079  0.2213
 2332W        W 6076   4.330   7.112   9.644 -0.0479 -0.0567 -0.0683
 2333W        W 6077   2.615   5.852   1.508 -0.2424 -0.2143 -0.0956
 2334W        W 6078   9.230   5.380  12.235 -0.0253 -0.0230  0.1194
 2335W        W 6079   8.353   5.606  10.587 -0.2585 -0.1959  0.1277
 2336W        W 6080   9.171   7.824  12.035 -0.0853 -0.1357  0.0572
 2337W        W 6081   6.444   5.588  11.717 -0.2255  0.0465  0.2237
 2338W        W 6082   7.357   1.979   1.724  0.0860 -0.0944 -0.2077
 2339W        W 6083   6.301   6.213   2.486  0.1190  0.1113  0.0980
 2340W        W 6084   9.182   2.012   3.262  0.0001 -0.1132 -0.0715
 2341W        W 6085   4.009   3.669   9.172  0.0745 -0.1422  0.0761
 2342W        W 6086   7.798   4.564   2.613  0.0595  0.2135 -0.1558
 2343W        W 6087   0.601   8.108  11.772 -0.0544  0.2101  0.1742
 2344W        W 6088   1.865   8.262   1.460 -0.0746 -0.0841  0.2470
 2345W        W 6089   2.168   1.502   0.158 -0.3710  0.1603 -0.2487
 2346W        W 6090   9.737   6.258   9.517  0.0533 -0.1577  0.2388
 2347W        W 6091   6.545   8.329   9.901 -0.0622  0.3566 -0.1327
 2348W        W 6092   3.964   8.738  11.709 -0.1161  0.0689 -0.0307
 2349W        W 6093   6.208   8.769  11.638  0.1409  0.0182 -0.0563
 2350W        W 6094   0.810   9.790  10.576  0.1832 -0.1304 -0.2291
 2351W        W 6095   3.926   4.246   9.346 -0.3112 -0.0040 -0.5234
 2352W        W 6096   9.526   5.717   9.719  0.1840 -0.0531 -0.4846
 2353W        W 6097   1.829   9.379  10.919 -0.2268  0.0421 -0.2404
 2354W        W 6098   9.456   0.387  11.947  0.2270  0.0043  0.2389
 2355W        W 6099   3.533   5.982   1.181 -0.1420  0.1702  0.0776
 2356W        W 6100   5.117   8.604   0.782 -0.1037  0.1222  0.1401
 2357W        W 6101   2.060   0.095  12.675  0.2055  0.1475 -0.0934
 2358W        W 6102   4.225   6.798   3.656  0.2892  0.1451 -0.0372
 2359W        W 6103   0.923   5.451   1.009 -0.1175  0.2708 -0.0141
 2360W        W 6104   6.359   0.467   1.389  0.3077  0.0426 -0.4485
 2361W        W 6105   3.221   3.131   3.630  0.0371 -0.2827  0.1323
 2362W        W 6106   5.684   3.049  11.829 -0.1214  0.2232 -0.0560
 2363W        W 6107   5.167   2.562   0.129 -0.2532 -0.0121 -0.2823
 2364W        W 6108   3.815   7.914   1.523 -0.0720  0.1623 -0.0104
 2365W        W 6109   6.606   4.214  11.689 -0.0369  0.2437 -0.0107
 2366W        W 6110   1.042   2.478   3.524  0.1049  0.0828 -0.1288
 2367W        W 6111   8.900   6.870   9.877  0.0425  0.3751 -0.1931
 2368W        W 6112   6.196   1.019   4.037  0.1038 -0.1164 -0.1114
 2369W        W 6113   1.865   1.928   8.990  0.1104  0.0725  0.0208
 2370W        W 6114   5.730   8.991   3.113  0.0426  0.0700 -0.0058
 2371W        W 6115   0.555   0.479   4.314 -0.0452 -0.0881 -0.3342
 2372W        W 6116   4.900   5.137   4.960  0.0041  0.0730  0.1041
 2373W        W 6117   8.440   4.065   3.328 -0.0482 -0.2424 -0.1449
 2374W        W 6118   8.133   6.930   0.958 -0.0713 -0.0264 -0.4292
 2375W        W 6119   9.389   6.029   0.759 -0.0172 -0.2784  0.2201
 2376W        W 6120   3.902   8.029   3.721  0.1500  0.0143 -0.3873
 2377W        W 6121   3.731   5.100   3.730 -0.1088 -0.0240  0.3402
 2378W        W 6122   5.905   8.332   9.022  0.1298  0.3207 -0.3263
 2379W        W 6123   3.704   4.210   4.158 -0.2056  0.0322  0.0818
 2380W        W 6124   3.872   7.618   2.825  0.1137 -0.2348  0.0745
 2381W        W 6125   7.042   6.147   3.473 -0.0954 -0.2165  0.0269
 2382W        W 6126   3.057   6.010  11.130  0.1977  0.2497  0.1430
 2383W        W 6127   6.206   3.553   9.382  0.1329 -0.1512  0.0898
 2384W        W 6128   5.637   6.639   3.676 -0.1306 -0.3498  0.1721
 2385W        W 6129   1.914   9.802   3.312  0.3145 -0.0578  0.1554
 2386W        W 6130   9.035   3.319   2.202 -0.1624  0.3369 -0.0968
 2387W        W 6131   2.986   8.085   1.869 -0.0831 -0.0747 -0.0172
 2388W        W 6132   2.250   6.033  11.593 -0.3834  0.3781  0.1468
 2389W        W 6133   1.843   0.507  12.333  0.2419 -0.1083 -0.1649
 2390W        W 6134   4.683   7.357   0.520  0.0991  0.2329 -0.1883
 2391W        W 6135   5.536   3.022  10.071 -0.2922 -0.2514 -0.2609
 2392W        W 6136   1.904   9.120  11.326 -0.0756  0.1665 -0.2123
 2393W        W 6137   7.087   2.619  10.906 -0.0997  0.1444 -0.0329
 2394W        W 6138   9.843   6.218   5.178  0.1562 -0.2978  0.0649
 2395W        W 6139   8.775   2.723   0.595  0.2650  0.1330 -0.0107
 2396W        W 6140   3.492   6.117   3.237 -0.1044 -0.2369  0.2137
 2397W        W 6141   7.017   3.107   9.617 -0.2684 -0.1194 -0.1584
 2398W        W 6142   6.548   6.978   3.925  0.0373 -0.1486 -0.5113
 2399W        W 6143   8.824   8.742  11.277 -0.1961 -0.0727 -0.0479
 2400W        W 6144   9.792   3.102   2.640  0.0590 -0.1193  0.1002
 2401W        W 6145   7.666   2.953   3.698  0.0147 -0.0779  0.1459
 2402W        W 6146   6.788   1.633  11.181 -0.0648  0.4330 -0.0042
 2403W        W 6147   6.657   9.130   9.309  0.1179 -0.1569 -0.0322
 2404W        W 6148   0.936   0.794  11.843 -0.2193 -0.0573  0.3725
 2405W        W 6149   6.760   9.283   9.750 -0.2349  0.1155  0.1759
 2406W        W 6150   0.018   4.450   0.057 -0.2272  0.0435  0.1364
 2407W        W 6151   0.180   5.218  10.442  0.2987  0.1518  0.1590
 2408W        W 6152   1.571   7.989  12.421  0.0009 -0.1318 -0.1034
 2409W        W 6153   2.991   3.662  12.544 -0.1192  0.0409  0.1952
 2410W        W 6154   7.639   0.538   8.321 -0.0627  0.0357  0.2280
 2411W        W 6155   0.957   3.230   8.243  0.1315  0.0563 -0.0618
 2412W        W 6156   6.720   0.761  10.109 -0.3765 -0.0899 -0.1842
 2413W        W 6157   1.785   8.331  10.245  0.2568  0.0185 -0.0526
 2414W        W 6158   7.803   6.851   1.552 -0.0137  0.3197 -0.1804
 2415W        W 6159   0.779   2.355  11.264 -0.1017 -0.0100  0.0922
 2416W        W 6160   0.231   6.856   9.826 -0.1508 -0.2532 -0.1850
 2417W        W 6161   9.459   3.500   2.609 -0.0293  0.2429 -0.1846
 2418W        W 6162   1.858   3.073   2.348 -0.3586  0.0960  0.0410
 2419W        W 6163   4.928   2.966  11.322 -0.0811 -0.2049  0.0267
 2420W        W 6164   9.110   8.331   9.448  0.1323  0.0611 -0.1478
 2421W        W 6165   3.870   7.353  12.492 -0.2245  0.1699 -0.0165
 2422W        W 6166   5.276   1.482   8.716 -0.0758 -0.0882  0.1185
 2423W        W 6167   3.748   4.398   0.037  0.1598  0.3125  0.0583
 2424W        W 6168   8.083   8.009   1.931  0.3708 -0.0353  0.0299
 2425W        W 6169   8.571   8.273  10.577 -0.0562 -0.2972  0.1737
 2426W        W 6170   6.308   6.407   0.055  0.2617  0.0072  0.1309
 2427W        W 6171   2.872   9.608  12.197  0.1336  0.0647 -0.1279
 2428W        W 6172   0.252   8.644  10.779  0.1392  0.1666  0.0155
 2429W        W 6173   5.261   6.609   0.333  0.0804 -0.1139 -0.1445
 2430W        W 6174   5.366   9.359   9.947 -0.1323 -0.2910  0.1785
 2431W        W 6175   8.730   2.795  10.450 -0.1445 -0.3617 -0.1729
 2432W        W 6176   7.304   1.284   9.109 -0.0014 -0.0478 -0.3449
 2433W        W 6177   4.609   4.010   2.053 -0.0175 -0.0886 -0.3541
 2434W        W 6178   5.915   6.095   1.451  0.3628 -0.1592 -0.1075
 2435W        W 6179   6.231   3.478  11.299  0.1577 -0.1033  0.0271
 2436W        W 6180   3.107   8.672  12.301 -0.3352 -0.0975  0.1650
 2437W        W 6181   9.800   6.724   1.909  0.1909  0.0132 -0.2498
 2438W        W 6182   7.363   8.104  11.367 -0.1304  0.1004  0.2142
 2439W        W 6183   0.480   9.364   2.852  0.1349 -0.1202  0.4200
 2440W        W 6184   2.247   2.238   1.519  0.0462 -0.1976  0.4892
 2441W        W 6185   2.781   1.409  10.914 -0.3182 -0.0035  0.1199
 2442W        W 6186   8.490   4.873  12.874 -0.1493  0.1526 -0.3249
 2443W        W 6187   8.989   7.468   4.112  0.0518 -0.1726  0.2597
 2444W        W 6188   9.858   4.974  12.791  0.0541  0.1367  0.0973
 2445W        W 6189   3.651   7.025  11.578  0.0830 -0.0689 -0.1843
 2446W        W 6190   4.701   1.064   1.769 -0.0533 -0.0116  0.0064
 2447W        W 6191   9.752   8.624  11.922 -0.3116 -0.0669 -0.0336
 2448W        W 6192   2.295   9.015  12.349  0.1047  0.0444  0.2845
 2449W        W 6193   9.073   4.218  10.264 -0.0427 -0.0903 -0.0996
 2450W        W 6194   9.887   0.407   9.174 -0.0901  0.0350 -0.1645
 2451W        W 6195   1.758   9.096  12.691  0.2942 -0.1731 -0.0683
 2452W        W 6196   1.599   4.174   1.365  0.0989  0.1327  0.1176
 2453W        W 6197   7.030   4.032  10.393  0.2579 -0.0546 -0.3952
 2454W        W 6198   0.561   4.652  10.301 -0.3457  0.2350  0.0251
 2455W        W 6199   4.774   9.902   1.492  0.1810 -0.0499 -0.1363
 2456W        W 6200   0.080   1.126   3.844 -0.2384  0.1288 -0.0876
 2457W        W 6201   1.942   4.240  11.967  0.0619  0.1987  0.2207
 2458W        W 6202   4.633   3.480   9.015 -0.1332  0.0439  0.0537
 2459W        W 6203   2.035   0.072   2.814  0.0390 -0.1690  0.3424
 2460W        W 6204   0.102   0.398  10.526  0.4398  0.1072  0.0546
 2461W        W 6205   5.174   3.003  11.941  0.2859  0.0848  0.2629
 2462W        W 6206   7.903   8.276  11.359 -0.2490 -0.1446 -0.1891
 2463W        W 6207   6.230   4.246   9.969  0.1943  0.1426 -0.1145
 2464W        W 6208   6.453   4.073   1.633  0.0427  0.3180 -0.2884
 2465W        W 6209   4.228   5.160  10.198  0.1004 -0.0236 -0.2593
 2466W        W 6210   3.951   6.367   9.809 -0.1808 -0.0185  0.1785
 2467W        W 6211   3.010   6.766   2.315  0.1903 -0.1377  0.3497
 2468W        W 6212   9.338   2.299   9.250 -0.0141  0.3969 -0.0755
 2469W        W 6213   0.185   9.886  11.768 -0.2120 -0.0229  0.0066
 2470W        W 6214   7.863   1.202   1.210 -0.1064 -0.0442 -0.0008
 2471W        W 6215   0.308   6.270  11.356  0.1911  0.3465  0.0205
 2472W        W 6216   1.276   9.486   0.215  0.0201  0.0932  0.2885
 2473W        W 6217   6.554   9.444  11.071  0.0208 -0.0516  0.1070
 2474W        W 6218   9.164   3.150   1.224  0.0732 -0.2414  0.1264
 2475W        W 6219   1.338   1.432   8.965 -0.0659 -0.0859  0.0560
 2476W        W 6220   9.283   7.760   1.401  0.1913  0.2962 -0.0828
 2477W        W 6221   7.252   1.933   9.623  0.0705  0.4288 -0.0323
 2478W        W 6222   6.445   0.184  12.501 -0.0618  0.1402 -0.2845
 2479W        W 6223   8.350   3.055  12.751 -0.1948 -0.0535 -0.1301
 2480W        W 6224   1.012   2.123   3.890  0.1471  0.1329  0.2372
 2481W        W 6225   2.101   6.346  10.826 -0.0699  0.1248  0.0159
 2482W        W 6226   3.540   3.425   2.564 -0.0014 -0.1431  0.0756
 2483W        W 6227   2.626   6.536   2.572  0.1375  0.0036  0.1911
 2484W        W 6228   2.644   4.782  12.611  0.2146 -0.1344 -0.3580
 2485W        W 6229   2.627   5.854  10.860 -0.1150 -0.1154 -0.1674
 2486W        W 6230   4.645   6.586  12.315  0.1550  0.0854 -0.2264
 2487W        W 6231   2.166   9.879   0.292  0.1868  0.1833  0.2456
 2488W        W 6232   3.470   7.824   3.054  0.2178  0.1744  0.2315
 2489W        W 6233   8.604   5.754   3.629 -0.1892  0.0153 -0.0457
 2490W        W 6234   0.998   9.086   3.085 -0.2598  0.1075  0.0253
 2491W        W 6235   7.518   7.095  10.145 -0.2135 -0.0173  0.0304
 2492W        W 6236   1.149   6.026   1.425 -0.2792 -0.0671 -0.2106
 2493W        W 6237   9.606   2.933   8.119  0.2952 -0.1609 -0.0892
 2494W        W 6238   1.352   0.786   2.004  0.1602  0.2873 -0.2578
 2495W        W 6239   0.087   0.192   4.482 -0.1316 -0.2831  0.4377
 2496W        W 6240   1.848   2.419  10.218  0.3267  0.1754 -0.3442
 2497W        W 6241   5.281   7.429   9.632  0.3200  0.1687 -0.1735
 2498W        W 6242   2.728   6.700   0.266 -0.0218  0.0418 -0.1633
 2499W        W 6243   6.518   4.046   0.155  0.2597  0.3149  0.1791
 2500W        W 6244   7.088   5.931   3.861 -0.1005 -0.0419 -0.2507
 2501W        W 6245   6.652   3.398   9.434 -0.0157  0.0401  0.1181
 2502W        W 6246   0.115   1.871   2.770 -0.0611 -0.2045  0.2507
 2503W        W 6247   8.574   6.893   9.536 -0.1572  0.3210  0.1190
 2504W        W 6248   7.950   1.973  11.748  0.3473 -0.0508 -0.1424
 2505W        W 6249   3.189   6.571   0.426  0.1052 -0.0238 -0.0817
 2506W        W 6250   4.130   2.952  10.294 -0.0749 -0.1446  0.2594
 2507W        W 6251   6.114   8.920   3.500  0.0671 -0.3575  0.0714
 2508W        W 6252   7.141   0.937   1.899 -0.0167  0.1007 -0.2886
 2509W        W 6253   5.389   3.841  11.751  0.1391  0.1958  0.1497
 2510W        W 6254   7.402   4.146  11.073  0.0872  0.2796 -0.0644
 2511W        W 6255   6.657   9.635   1.917 -0.1344  0.2105 -0.0086
 2512W        W 6256   9.174   6.433  10.786  0.1775 -0.0156  0.0225
 2513W        W 6257   5.677   1.711  10.440  0.0969  0.3566 -0.0686
 2514W        W 6258   9.134   1.976   8.802  0.1937  0.1498 -0.1611
 2515W        W 6259   5.624   2.972   4.629  0.0288 -0.0314  0.0880
 2516W        W 6260   0.415   1.016   9.891 -0.1529 -0.1522  0.2841
 2517W        W 6261   5.288   3.897   4.276  0.1665 -0.0776 -0.0828
 2518W        W 6262   3.920   9.726   2.483 -0.0781  0.1046  0.5828
 2519W        W 6263   4.782   5.771   9.670  0.2315  0.2648 -0.0228
 2520W        W 6264   2.920   9.854   1.674  0.2366  0.1799 -0.4707
 2521W        W 6265   5.045   1.440  11.272 -0.1945 -0.4552  0.0315
 2522W        W 6266   5.578   9.381   1.334  0.0402 -0.2069 -0.0362
 2523W        W 6267   5.792   5.714   1.754 -0.1326 -0.4315  0.0519
 2524W        W 6268   4.769   6.026   3.502  0.0156  0.0455  0.0519
 2525W        W 6269   3.331   6.038   9.256 -0.1209  0.0029  0.2756
 2526W        W 6270   0.380   5.726   2.401  0.2475 -0.1015  0.1014
 2527W        W 6271   6.301   9.517   9.579 -0.2028 -0.0125  0.0925
 2528W        W 6272   6.123   7.339   9.448  0.1226  0.1488 -0.1990
 2529W        W 6273   7.620   5.034  12.307 -0.4389 -0.0990 -0.3966
 2530W        W 6274   0.140   5.750  11.256 -0.3414 -0.0296  0.2451
 2531W        W 6275   6.532   6.369  10.359 -0.2270 -0.5295  0.1409
 2532W        W 6276   8.638   6.835   1.847  0.0551  0.2774 -0.0806
 2533W        W 6277   6.927   5.137   0.490 -0.0963 -0.0512 -0.2183
 2534W        W 6278   6.874   2.654  12.087 -0.0697  0.2199 -0.2669
 2535W        W 6279   4.413   9.588   2.618 -0.0087 -0.3095 -0.1322
 2536W        W 6280   0.897   0.938   2.211 -0.2943  0.1322 -0.2624
 2537W        W 6281   9.147   6.380   9.882  0.1452 -0.0351 -0.1254
 2538W        W 6282   0.109   8.286   1.021  0.2619  0.1073  0.0194
 2539W        W 6283   8.975   0.476   1.662 -0.0359  0.1562  0.5758
 2540W        W 6284   9.068   4.643  12.503  0.3962 -0.2723  0.4029
 2541W        W 6285   1.814   0.780   0.398  0.0222 -0.0048  0.0333
 2542W        W 6286   2.617   1.087  10.452  0.0529  0.0066  0.0539
 2543W        W 6287   8.259   1.536  10.162  0.1869 -0.0074 -0.1907
 2544W        W 6288   6.867   1.626   9.801 -0.1334  0.0823 -0.1927
 2545W        W 6289   5.495   8.710   2.631  0.0785  0.0948  0.0459
 2546W        W 6290   9.072   4.094  12.472 -0.1262  0.0571  0.0415
 2547W        W 6291   6.719   0.796   2.090 -0.1209 -0.0735 -0.0947
 2548W        W 6292   2.524   7.182   0.467 -0.0939  0.1016 -0.0187
 2549W        W 6293   7.405   8.111  12.691  0.0050 -0.0787 -0.2250
 2550W        W 6294   9.897   9.391   2.835  0.2357 -0.0948 -0.0964
 2551W        W 6295   6.144   7.571   1.930 -0.0146 -0.1911 -0.2044
 2552W        W 6296   9.249   1.903   0.617 -0.2930  0.0528  0.0246
 2553W        W 6297   8.821   5.801   8.747 -0.2620 -0.0568  0.0638
 2554W        W 6298   7.095   2.162  12.359  0.1937  0.2297  0.0720
 2555W        W 6299   4.625   2.785   1.544 -0.1189 -0.0518  0.2239
 2556W        W 6300   3.926   6.686   8.900  0.2149 -0.0887  0.0690
 2557W        W 6301   8.675   4.293   1.535  0.0236  0.4369  0.2526
 2558W        W 6302   7.505   6.477   1.091  0.2742 -0.3283 -0.0039
 2559W        W 6303   0.055   4.462  11.139  0.0679  0.0537  0.3776
 2560W        W 6304   2.370   0.194   2.352 -0.3725  0.4233  0.1310
 2561W        W 6305   0.784   4.934  10.617  0.4893 -0.0563 -0.1615
 2562W        W 6306   7.671   9.755  12.210  0.3007 -0.0128  0.0621
 2563W        W 6307   0.928   5.466   1.623  0.1934  0.2565  0.1794
 2564W        W 6308   8.101   0.709   4.444  0.1839 -0.1133 -0.0134
 2565W        W 6309   5.181   2.263   3.010  0.0293 -0.2146 -0.0593
 2566W        W 6310   1.999   0.343   9.263  0.2749  0.0716  0.0487
 2567W        W 6311   7.572   2.004  12.101  0.1354 -0.0095 -0.0135
 2568W        W 6312   7.072   1.004   2.944 -0.0471  0.1580  0.2933
 2569W        W 6313   8.443   9.480   0.371 -0.5263 -0.0960  0.2744
 2570W        W 6314   7.500   9.273  10.254 -0.2405 -0.1497 -0.0889
 2571W        W 6315   6.872   0.880   8.842  0.0648 -0.2930 -0.1302
 2572W        W 6316   9.160   6.097   1.294 -0.4254  0.0866  0.1790
 2573W        W 6317   1.645   3.852   0.566  0.0267 -0.0215 -0.2005
 2574W        W 6318   5.390   0.499  10.554 -0.1079 -0.3195 -0.1064
 2575W        W 6319   5.656   1.082   2.587  0.1593 -0.0712 -0.1187
 2576W        W 6320   7.910   6.017   9.710 -0.4514 -0.0018 -0.1507
 2577W        W 6321   8.275   0.203   0.136  0.0366 -0.2854  0.1762
 2578W        W 6322   4.493   3.092  10.540  0.1363 -0.3863 -0.1052
 2579W        W 6323   7.069   9.397   0.572  0.1927  0.0625 -0.0599
 2580W        W 6324   1.490   6.315  11.800 -0.1918  0.1844 -0.0406
 2581W        W 6325   7.677   7.180   2.013 -0.2777 -0.0432 -0.2009
 2582W        W 6326   4.083   7.760  10.198  0.0913  0.0281 -0.1375
 2583W        W 6327   0.857   1.995   9.208  0.1907  0.4642  0.1694
 2584W        W 6328   3.589   6.034   9.715  0.0239  0.1402  0.2500
 2585W        W 6329   2.676   4.006   4.841  0.1244  0.1520  0.0431
 2586W        W 6330   8.850   9.380   4.506 -0.1643  0.0626  0.0328
 2587W        W 6331   4.784   3.000   2.086  0.1255 -0.3492  0.2920
 2588W        W 6332   6.031   4.103   0.889  0.0623 -0.0516 -0.2279
 2589W        W 6333   9.663   5.394  10.088 -0.5019  0.4659 -0.0544
 2590W        W 6334   0.178   5.400  12.823 -0.3152 -0.0974 -0.3180
 2591W        W 6335   7.218   2.288   0.826 -0.2951 -0.1478 -0.3805
 2592W        W 6336   1.582   1.268   3.459 -0.3879 -0.0770 -0.0630
 2593W        W 6337   3.403   3.507   0.940  0.0324  0.0951  0.1803
 2594W        W 6338   8.746   4.686   1.256  0.1072  0.0357  0.2556
 2595W        W 6339   2.526   0.032  11.842 -0.3416  0.4307 -0.3109
 2596W        W 6340   9.296   1.142   4.365  0.1129  0.0893  0.2737
 2597W        W 6341   7.547   2.009   0.314  0.0119 -0.1319  0.0810
 2598W        W 6342   7.498   4.027   9.210  0.0192  0.2278 -0.1139
 2599W        W 6343   9.779   1.135  10.913  0.3496  0.0690 -0.4288
 2600W        W 6344   5.672   3.566   2.029 -0.3291  0.1585  0.1733
 2601W        W 6345   8.935   5.270  11.812  0.0317 -0.1243  0.1919
 2602W        W 6346   7.631   0.978   2.103 -0.1774 -0.1749  0.3385
 2603W        W 6347   0.456   6.405   9.923  0.4010 -0.1380 -0.1850
 2604W        W 6348   7.838   1.336   0.636  0.2115 -0.2813  0.0787
 2605W        W 6349   0.628   2.485   8.838  0.1938  0.0255 -0.0444
 2606W        W 6350   0.887   6.262   0.491 -0.0437  0.3204 -0.1859
 2607W        W 6351   9.593   1.846   9.140  0.0510 -0.3936  0.3017
 2608W        W 6352   7.781   3.184   8.059  0.2061  0.0451  0.3607
 2609W        W 6353   1.836   3.702   0.167  0.0655  0.0375 -0.1202
 2610W        W 6354   7.712   4.522   9.318  0.0623  0.1855  0.0568
 2611W        W 6355   3.551   8.926   0.831  0.4260  0.1246  0.1681
 2612W        W 6356   9.395   3.576  10.114 -0.2130 -0.1558  0.0060
 2613W        W 6357   2.469   9.363  11.528  0.0983 -0.0471  0.2082
 2614W        W 6358   9.122   1.717   9.834 -0.1514 -0.5153 -0.0513
 2615W        W 6359   2.463   9.358  10.267  0.1025 -0.0733 -0.2981
 2616W        W 6360   6.234   2.754   3.749  0.1022 -0.2462 -0.0861
 2617W        W 6361   3.063   0.283   4.434  0.1382 -0.1914 -0.3525
 2618W        W 6362   8.248   5.408   3.309 -0.1821 -0.0466 -0.0792
 2619W        W 6363   2.898   6.180   0.146 -0.1553 -0.0977  0.0191
 2620W        W 6364   2.352   0.834   9.948 -0.4812 -0.1485 -0.1065
 2621W        W 6365   9.823   6.689   5.935  0.3729  0.0319 -0.1360
 2622W        W 6366   4.424   1.943   2.003  0.1756 -0.3725 -0.1736
 2623W        W 6367   4.039   9.462   1.255  0.0506 -0.2013 -0.4169
 2624W        W 6368   3.600   8.643   9.910 -0.1920 -0.1088  0.0275
 2625W        W 6369   0.871   1.549   2.061  0.1657  0.3079  0.0264
 2626W        W 6370   1.230   0.071  11.740 -0.0460  0.0955  0.2339
 2627W        W 6371   0.147   8.694   1.843  0.1101 -0.0113  0.0856
 2628W        W 6372   4.261   3.114   3.444  0.0536  0.0735 -0.1087
 2629W        W 6373   7.742   4.767   1.565 -0.0669 -0.0548 -0.0415
 2630W        W 6374   9.494   3.803   1.761 -0.0663  0.1609  0.0593
 2631W        W 6375   4.215   1.360   0.565 -0.1255 -0.1310  0.0145
 2632W        W 6376   7.878   3.759   2.808 -0.0859 -0.3656  0.1722
 2633W        W 6377   7.991   4.247   3.361  0.1671 -0.0049  0.1504
 2634W        W 6378   1.334   9.618  10.863 -0.0842  0.0957 -0.0127
 2635W        W 6379   2.152   5.509   2.261 -0.0229 -0.4259  0.3292
 2636W        W 6380   0.774   5.460  10.598  0.1296  0.1123  0.0761
 2637W        W 6381   9.830   0.572   3.659  0.1206  0.3390 -0.2074
 2638W        W 6382   9.460   2.148   2.834 -0.0084  0.2651  0.1351
 2639W        W 6383   8.688   8.997   4.252 -0.3051  0.0700 -0.1667
 2640W        W 6384   9.058   8.359   8.359 -0.0384 -0.4624  0.1398
 2641W        W 6385   7.987   0.653   2.010 -0.0659 -0.4291  0.1491
 2642W        W 6386   4.357   7.137   3.222 -0.1329  0.2056 -0.1358
 2643W        W 6387   4.236   2.021  12.194  0.1361 -0.1565 -0.2638
 2644W        W 6388   5.133   6.969   9.441  0.1791 -0.1368 -0.0926
 2645W        W 6389   3.074   9.723   2.769 -0.0763  0.1297 -0.2307
 2646W        W 6390   4.923   2.688   3.799  0.0457 -0.2192 -0.1281
 2647W        W 6391   3.637   4.240   1.056 -0.0231  0.1529  0.0702
 2648W        W 6392   6.044   9.209   2.090 -0.0229  0.1488 -0.0551
 2649W        W 6393   1.898   9.432   0.169 -0.1626  0.0213  0.0377
 2650W        W 6394   9.548   7.326   1.205  0.1042  0.0313 -0.1088
 2651W        W 6395   5.198   8.969   9.670 -0.3103  0.2147  0.0764
 2652W        W 6396   4.480   7.505   8.942  0.3175  0.1823 -0.0093
 2653W        W 6397   3.748   8.950   3.159  0.1499 -0.0051  0.0808
 2654W        W 6398   9.086   3.571   4.398  0.0551  0.1144 -0.0744
 2655W        W 6399   6.959   9.318  10.215 -0.1035 -0.0273  0.3653
 2656W        W 6400   3.703   5.776   2.963 -0.1404 -0.0935 -0.0247
 2657W        W 6401   0.154   2.607   3.462  0.1632  0.0401  0.1848
 2658W        W 6402   6.444   0.062   9.833 -0.3811 -0.0756 -0.0714
 2659W        W 6403   4.373   7.033   4.206  0.3409  0.0441 -0.0827
 2660W        W 6404   1.152   3.936   0.777 -0.0614 -0.1969  0.0094
 2661W        W 6405   8.207   7.881   9.853  0.0540 -0.1527 -0.1006
 2662W        W 6406   0.356   6.749   0.768 -0.0772 -0.0078 -0.1415
 2663W        W 6407   0.615   4.269   2.352  0.1270  0.1310  0.3102
 2664W        W 6408   4.974   5.042   0.669  0.1476  0.1495 -0.0855
 2665W        W 6409   7.720   9.555  11.737 -0.2185  0.0442 -0.1049
 2666W        W 6410   5.821   2.545   1.323  0.3339 -0.3783  0.0504
 2667W        W 6411   8.562   5.880   2.573  0.0759  0.2064 -0.0400
 2668W        W 6412   4.554   2.742   0.892  0.2372  0.0173  0.0765
 2669W        W 6413   4.972   2.506  11.187  0.0391  0.0321 -0.1334
 2670W        W 6414   0.109   6.736   9.371 -0.0742  0.2759  0.2351
 2671W        W 6415   5.893   7.867   0.435 -0.1513 -0.0444 -0.2076
 2672W        W 6416   6.269   2.956  11.117 -0.0602 -0.2228 -0.2514
 2673W        W 6417   5.885   3.624   3.925 -0.3134 -0.2438  0.1385
 2674W        W 6418   5.579   5.799   0.686  0.1550  0.1105  0.1332
 2675W        W 6419   7.675   2.105   0.778 -0.2617  0.2094  0.0927
 2676W        W 6420   7.559   8.508   8.914  0.4496  0.1971  0.0365
 2677W        W 6421   2.493   1.943  12.466  0.0640  0.1749 -0.4950
 2678W        W 6422   2.901   5.757   4.080 -0.0028 -0.0830  0.1563
 2679W        W 6423   5.249   8.007   1.694 -0.0985 -0.2507 -0.0730
 2680W        W 6424   5.591   9.889   1.613 -0.2058 -0.1140  0.0582
 2681W        W 6425   3.882   1.022   5.094 -0.1938  0.0001 -0.3881
 2682W        W 6426   2.465   6.216  10.521 -0.0885 -0.0427  0.2800
 2683W        W 6427   7.450   1.170   1.586  0.2173  0.2143  0.1120
 2684W        W 6428   0.748   1.965  11.605  0.3110 -0.1085  0.0667
 2685W        W 6429   7.946   6.909   0.503 -0.3133 -0.1105 -0.0678
 2686W        W 6430   3.190   9.134   2.470 -0.3542 -0.2436 -0.2080
 2687W        W 6431   2.288   5.289  11.413 -0.2840  0.1344  0.0016
 2688W        W 6432   3.331   2.468   2.352  0.2191  0.3573  0.0072
 2689W        W 6433   5.077   0.713   4.513  0.4969 -0.1373 -0.1283
 2690W        W 6434   9.726   2.347   9.992  0.3045 -0.0331  0.0090
 2691W        W 6435   3.548   1.713  11.505 -0.0676  0.3407  0.0108
 2692W        W 6436   8.348   2.654  11.931 -0.0164 -0.0420  0.0471
 2693W        W 6437   5.960   4.938   0.665 -0.1663  0.1490 -0.0989
 2694W        W 6438   6.853   3.932  12.353 -0.2663  0.3198  0.1179
 2695W        W 6439   9.608   5.912   5.505 -0.0465 -0.0964 -0.2111
 2696W        W 6440   8.334   4.343   2.401 -0.2616 -0.0279  0.1702
 2697W        W 6441   5.349   0.088   9.569  0.1019 -0.0442 -0.6367
 2698W        W 6442   9.544   5.822   1.525  0.1704 -0.0532 -0.3427
 2699W        W 6443   8.248   6.218  12.829 -0.1352  0.4019  0.0770
 2700W        W 6444   8.030   3.734  12.045  0.6251 -0.0125  0.1497
 2701W        W 6445   6.965   6.547   9.633 -0.3008  0.3051 -0.2647
 2702W        W 6446   9.885   0.675  10.065 -0.0729  0.2442  0.1040
 2703W        W 6447   8.692   5.244  11.380  0.2866  0.2322  0.2192
 2704W        W 6448   8.651   4.725   9.662  0.4855  0.1122  0.2160
 2705W        W 6449   7.202   4.443  10.183  0.2176 -0.0123  0.0442
 2706W        W 6450   6.182   2.160  11.812  0.3961  0.1656 -0.0456
 2707W        W 6451   8.429   6.841   2.301  0.1372 -0.0376 -0.1800
 2708W        W 6452   5.789   3.256   4.212 -0.2610 -0.1143 -0.2105
 2709W        W 6453   4.127   1.487   9.785 -0.2628  0.2678  0.1033
 2710W        W 6454   1.115   2.591   0.323 -0.6051  0.0202  0.1782
 2711W        W 6455   5.101   1.072   9.523  0.2689  0.1674 -0.0714
 2712W        W 6456   3.156   0.606   8.911 -0.2626 -0.1258  0.2257
 2713W        W 6457   0.149   7.650  11.100  0.0537  0.0046  0.1034
 2714W        W 6458   8.276   9.401   3.833 -0.0100 -0.2843  0.0445
 2715W        W 6459   1.709   0.329  11.839  0.0156 -0.1876  0.2479
 2716W        W 6460   9.001   8.264  12.171  0.2625  0.0067  0.1917
 2717W        W 6461   1.123   1.843   8.743 -0.1151  0.1919 -0.3566
 2718W        W 6462   3.321   6.367   9.837  0.2171  0.1181 -0.0593
 2719W        W 6463   6.100   2.360  10.781 -0.2936  0.1500  0.0442
 2720W        W 6464   1.377   5.972   9.887 -0.0841 -0.2112  0.1214
 2721W        W 6465   3.965   2.012   0.045 -0.0591  0.2042  0.0558
 2722W        W 6466   5.397   8.362   4.249 -0.1212 -0.0920  0.4755
 2723W        W 6467   2.424   5.222  10.304 -0.1925  0.0978 -0.0204
 2724W        W 6468   9.595   1.778   2.553  0.1194 -0.1178  0.0022
 2725W        W 6469   9.587   2.242   4.234 -0.2668 -0.0741  0.2305
 2726W        W 6470   9.754   3.813   3.647 -0.1125  0.2730  0.2448
 2727W        W 6471   7.757   9.184   9.688 -0.0472 -0.0754  0.1376
 2728W        W 6472   4.202   3.453   1.426  0.3013  0.1660 -0.0585
 2729W        W 6473   0.196   2.586   7.981  0.1547 -0.0861 -0.2469
 2730W        W 6474   9.118   6.071  11.151 -0.0350  0.1543  0.3467
 2731W        W 6475   6.601   8.398  10.813  0.0698 -0.1368  0.2370
 2732W        W 6476   4.630   8.683   0.802  0.0962 -0.0638  0.2992
 2733W        W 6477   5.697   5.544  11.413 -0.2355  0.0231 -0.2838
 2734W        W 6478   3.656   7.402  10.300  0.2324 -0.0958 -0.3703
 2735W        W 6479   2.177   0.827  12.571  0.2008  0.2738  0.1779
 2736W        W 6480   3.517   3.740   9.884  0.0908 -0.0082  0.0849
 2737W        W 6481   3.515   3.902  11.614  0.0202 -0.1217 -0.0306
 2738W        W 6482   8.642   0.328  11.764 -0.1322 -0.1842 -0.1084
 2739W        W 6483   4.551   1.808   8.940  0.2437  0.0451  0.0098
 2740W        W 6484   2.446   2.652   9.054  0.1116 -0.1517  0.0607
 2741W        W 6485   1.458   3.643  10.426  0.0183  0.0753  0.0298
 2742W        W 6486   7.749   3.596  10.138  0.0585  0.1562  0.1143
 2743W        W 6487   7.831   2.253   2.474  0.2325 -0.1037  0.0229
 2744W        W 6488   5.852   5.266  10.689 -0.0885  0.0084  0.0554
 2745W        W 6489   4.740   1.878  10.697  0.0094  0.0954  0.0840
 2746W        W 6490   4.338   9.756   8.033  0.3252 -0.5023  0.1606
 2747W        W 6491   4.561   6.995   2.734 -0.0007  0.1452  0.1001
 2748W        W 6492   8.207   3.761   2.250 -0.0861 -0.0554  0.0635
 2749W        W 6493   1.619   9.192  11.763 -0.2598  0.2817 -0.2315
 2750W        W 6494   2.609   3.978   1.970  0.1691  0.1019 -0.2937
 2751W        W 6495   7.418   3.431   0.199  0.1087  0.2233 -0.0994
 2752W        W 6496   7.831   1.283  10.908  0.2325  0.2126 -0.1001
 2753W        W 6497   9.551   2.490   4.679 -0.0083 -0.0709 -0.2408
 2754W        W 6498   7.381   4.151   1.184 -0.0738 -0.3442  0.1392
 2755W        W 6499   0.541   7.239   9.971  0.0461  0.0043 -0.2228
 2756W        W 6500   5.886   8.637   9.430  0.0140  0.0563 -0.1288
 2757W        W 6501   3.504   5.633   3.471 -0.1422  0.2584  0.2861
 2758W        W 6502   3.619   0.067   3.434  0.2062 -0.1950  0.3965
 2759W        W 6503   6.179   3.020   3.273 -0.0277  0.0659 -0.1646
 2760W        W 6504   5.186   9.856   8.569  0.0754 -0.1830 -0.1599
 2761W        W 6505   4.832   2.084   2.227  0.0489  0.2694 -0.1557
 2762W        W 6506   2.412   5.517  12.357  0.3345 -0.3499 -0.1352
 2763W        W 6507   4.454   7.482   2.744 -0.0048 -0.0463  0.0463
 2764W        W 6508   0.050   6.137   2.318  0.0382 -0.2144  0.2181
 2765W        W 6509   0.451   1.647  11.967  0.0063 -0.1451 -0.2911
 2766W        W 6510   0.870   4.784  12.656 -0.2098 -0.0682 -0.1781
 2767W        W 6511   6.908   1.026   0.314 -0.0670 -0.2767  0.2214
 2768W        W 6512   6.247   4.331  11.261 -0.2228  0.0131  0.0137
 2769W        W 6513   3.036   9.379   0.242  0.2068  0.1548  0.0345
 2770W        W 6514   4.234   3.060  12.135  0.1313  0.0955 -0.0934
 2771W        W 6515   6.292   2.036  12.442 -0.1710  0.0015  0.0222
 2772W        W 6516   1.882   4.630  11.662 -0.0960  0.2308 -0.1234
 2773W        W 6517   4.535   1.680   2.428  0.1089 -0.0939  0.1650
 2774W        W 6518   6.487   7.516   0.459  0.2862  0.0086 -0.1191
 2775W        W 6519   7.366   3.302   1.272  0.1548  0.1026 -0.0464
 2776W        W 6520   9.503   0.858   3.966 -0.3310  0.2331  0.0233
 2777W        W 6521   7.556   0.075   3.943 -0.0947  0.3765  0.1471
 2778W        W 6522   8.435   6.283   3.765  0.1824 -0.3867 -0.2050
 2779W        W 6523   8.443   5.558   1.714 -0.0572 -0.0114  0.3401
 2780W        W 6524   4.021   5.223   9.178 -0.0746 -0.0553 -0.1316
 2781W        W 6525   8.044   4.345  11.232  0.1760 -0.2909 -0.0914
 2782W        W 6526   4.153   2.419   8.298  0.2397  0.0404  0.2930
 2783W        W 6527   7.406   6.723  10.595  0.0823 -0.2424  0.2829
 2784W        W 6528   3.748   6.483   1.261 -0.1078 -0.0673  0.1624
 2785W        W 6529   0.805   1.959   1.403  0.0854 -0.1315 -0.3070
 2786W        W 6530   1.385   1.816   2.126  0.5390  0.1866 -0.0184
 2787W        W 6531   0.408   4.143   0.157 -0.2397 -0.1523 -0.0806
 2788W        W 6532   2.916   8.419  10.286  0.1780  0.0333 -0.1194
 2789W        W 6533   1.288   1.245   2.137  0.1696 -0.2549  0.0432
 2790W        W 6534   5.580   1.453   1.497  0.1683  0.2106 -0.0090
 2791W        W 6535   8.359   9.062   8.958  0.0870  0.1959 -0.0115
 2792W        W 6536   5.378   9.865   2.546 -0.2038 -0.1495  0.1958
 2793W        W 6537   0.232   6.826  11.796 -0.2576 -0.1161  0.0501
 2794W        W 6538   4.145   5.232  11.631  0.4449 -0.0937 -0.0436
 2795W        W 6539   7.179   0.626  10.251 -0.1130  0.0374  0.0791
 2796W        W 6540   9.232   7.058  12.083 -0.0266 -0.2429  0.0114
 2797W        W 6541   5.991   7.415   0.521 -0.1637  0.1121  0.3408
 2798W        W 6542   2.375   8.639   4.581  0.2186  0.2174  0.1349
 2799W        W 6543   0.336   2.030   1.159  0.0802  0.1488 -0.3680
 2800W        W 6544   4.065   4.098  11.153 -0.0850 -0.0069  0.2600
 2801W        W 6545   2.704   5.368   9.883  0.1956 -0.1143  0.3606
 2802W        W 6546   6.605   9.439   8.446  0.0730  0.4032  0.1152
 2803W        W 6547   6.489   5.174   8.322 -0.3302 -0.1775 -0.0260
 2804W        W 6548   4.126   4.261   1.926  0.2062  0.0313 -0.0677
 2805W        W 6549   3.101   6.626  12.296 -0.0428  0.2192  0.2941
 2806W        W 6550   3.498   0.188   3.948 -0.2639  0.2205 -0.1456
 2807W        W 6551   5.532   4.077   4.687 -0.1227  0.1317 -0.3028
 2808W        W 6552   9.669   8.105  12.926  0.0284 -0.1946  0.0531
 2809W        W 6553   9.468   0.710   4.447 -0.3244 -0.0696 -0.0924
 2810W        W 6554   0.488   5.666  12.558 -0.3875 -0.1769  0.0323
 2811W        W 6555   3.207   1.194   1.099 -0.2464 -0.4711 -0.0810
 2812W        W 6556   4.771   9.177  10.679  0.1455 -0.0426 -0.2576
 2813W        W 6557   0.629   4.051   2.864  0.1463 -0.0426 -0.4741
 2814W        W 6558   1.105   1.178   9.371 -0.2012  0.2299 -0.2720
 2815W        W 6559   5.537   7.168   2.068 -0.1462  0.0765 -0.2037
 2816W        W 6560   2.285   7.144  10.305  0.0545 -0.0732 -0.0829
 2817W        W 6561   1.425   9.014  12.342 -0.0376 -0.1225 -0.1087
 2818W        W 6562   7.882   8.887  12.477  0.2385  0.2573  0.1126
 2819W        W 6563   4.633   7.655  10.441 -0.2243 -0.3151  0.2396
 2820W        W 6564   1.253   4.836  10.862 -0.2214 -0.0821 -0.0350
 2821W        W 6565   6.113   9.705  10.478  0.1433 -0.1515 -0.0178
 2822W        W 6566   3.506   9.776  12.877  0.2748 -0.0274 -0.1326
 2823W        W 6567   2.438   1.876   8.405 -0.1382 -0.2861 -0.0904
 2824W        W 6568   4.292   0.410   1.439  0.3509 -0.3577  0.0532
 2825W        W 6569   2.434   6.780   0.825  0.1384  0.0654  0.0142
 2826W        W 6570   0.240   0.827   8.911  0.0483  0.0423 -0.2016
 2827W        W 6571   8.911   9.409  10.491  0.1239  0.3306 -0.0900
 2828W        W 6572   1.001   8.248  12.093 -0.1407  0.0990 -0.0734
 2829W        W 6573   7.645   1.324   3.872  0.1303 -0.0476  0.3515
 2830W        W 6574   5.698   3.770  10.879 -0.0392  0.0099  0.4886
 2831W        W 6575   6.225   5.404  12.927  0.1197 -0.1210 -0.2679
 2832W        W 6576   2.074   5.136   9.871 -0.2717  0.0122  0.0372
 2833W        W 6577   2.786   0.357   2.049  0.2181 -0.4374 -0.0773
 2834W        W 6578   5.813   4.456   9.053 -0.1149  0.1207  0.1972
 2835W        W 6579   8.347   3.991  12.803  0.0004  0.4856  0.3029
 2836W        W 6580   7.770   6.096   0.314  0.0081 -0.1602  0.1641
 2837W        W 6581   7.720   8.612   0.769  0.2554 -0.1720  0.3536
 2838W        W 6582   7.997   8.270   0.584  0.0689  0.0828  0.1322
 2839W        W 6583   7.485   8.673  10.072  0.1279 -0.3686 -0.0946
 2840W        W 6584   7.812   3.273   1.518  0.0649 -0.2146 -0.0454
 2841W        W 6585   3.305   2.594   0.094  0.3030 -0.1626 -0.4127
 2842W        W 6586   0.833   4.563   1.941 -0.1320  0.0484 -0.3527
 2843W        W 6587   7.331   7.547  12.311 -0.2932  0.1607  0.0153
 2844W        W 6588   7.521   3.692  12.635  0.0176  0.2502  0.2181
 2845W        W 6589   4.483   4.441   4.595  0.1595 -0.2783  0.2700
 2846W        W 6590   3.974   3.897   3.458  0.1003  0.1279 -0.0042
 2847W        W 6591   1.705   2.273   8.137 -0.2594  0.0621 -0.1279
 2848W        W 6592   6.177   1.875   0.923  0.1397  0.1273  0.2003
 2849W        W 6593   0.214   7.241   0.441 -0.1906  0.0996  0.0485
 2850W        W 6594   9.597   8.017   9.709  0.2713 -0.1082 -0.0040
 2851W        W 6595   7.169   6.714  10.142  0.1449  0.0146 -0.1618
 2852W        W 6596   6.404   5.308   2.626  0.0140  0.4419  0.1968
 2853W        W 6597   6.808   7.330   4.812 -0.0695  0.1365  0.1408
 2854W        W 6598   8.671   6.637   2.952  0.0988  0.2295 -0.1460
 2855W        W 6599   1.240   7.338  12.488  0.4330 -0.0155  0.1884
 2856W        W 6600   7.317   7.540   0.869 -0.1791  0.0096  0.2036
 2857W        W 6601   1.795   3.104  10.952  0.3371 -0.1993  0.1464
 2858W        W 6602   9.012   2.422   3.115 -0.1434  0.1149 -0.1494
 2859W        W 6603   4.455   6.316  12.882 -0.0751 -0.2058 -0.2626
 2860W        W 6604   9.130   7.977   0.577 -0.0254  0.1700 -0.0346
 2861W        W 6605   1.584   9.550  12.698 -0.0261 -0.2191 -0.0918
 2862W        W 6606   5.857   0.367   1.408 -0.0290 -0.2628  0.2864
 2863W        W 6607   0.440   2.011  11.165  0.1343  0.2173  0.0553
 2864W        W 6608   5.691   9.211  12.240  0.1632 -0.2170  0.0219
 2865W        W 6609   7.625   3.823   9.664 -0.1935  0.0828  0.0262
 2866W        W 6610   6.541   5.591   1.798  0.3588 -0.0624 -0.2963
 2867W        W 6611   5.658   3.957   3.325 -0.1150 -0.1373  0.2794
 2868W        W 6612   4.797   0.376   3.261 -0.0575 -0.0736  0.0294
 2869W        W 6613   8.273   2.105  11.153  0.2042 -0.0281  0.3967
 2870W        W 6614   2.766   8.411   2.257  0.0724  0.3021  0.0332
 2871W        W 6615   8.327   1.474   9.612  0.1031  0.0069  0.0570
 2872W        W 6616   7.740   6.190  12.791  0.0386 -0.1560  0.1123
 2873W        W 6617   8.253   8.623  10.381 -0.1699 -0.0085 -0.0817
 2874W        W 6618   4.599   6.369   2.792  0.6057  0.1207 -0.0334
 2875W        W 6619   7.087   2.573   3.452 -0.2086  0.0768 -0.2744
 2876W        W 6620   2.514   3.583   2.779  0.3025  0.2693 -0.1801
 2877W        W 6621   4.768   7.213   1.796 -0.3480 -0.0869 -0.2292
 2878W        W 6622   3.032   8.381   2.825  0.1802 -0.1231 -0.1402
 2879W        W 6623   5.877   7.356  11.609 -0.0984  0.2612  0.1159
 2880W        W 6624   8.702   3.217   0.989  0.0840  0.1754  0.1534
 2881W        W 6625   6.342   5.510   4.211 -0.1624 -0.2454  0.0109
 2882W        W 6626   1.858   9.321   0.976  0.1537 -0.0498 -0.0880
 2883W        W 6627   0.542   0.703   2.967 -0.1311 -0.3014 -0.0446
 2884W        W 6628   5.225   6.811  10.488  0.1363 -0.2400  0.2351
 2885W        W 6629   2.814   7.745   0.234 -0.0906  0.0251  0.1074
 2886W        W 6630   8.337   3.456   0.699  0.1968  0.1385  0.2610
 2887W        W 6631   4.508   3.733  12.486 -0.0188  0.1066  0.2436
 2888W        W 6632   9.366   0.702   3.397  0.0378  0.0982  0.2710
 2889W        W 6633   2.049   3.539   9.270  0.1258 -0.0697 -0.0200
 2890W        W 6634   5.185   6.896   1.929 -0.1051  0.2069  0.2366
 2891W        W 6635   2.265   4.494   1.918 -0.2718 -0.1071 -0.0854
 2892W        W 6636   2.908   4.752   4.278 -0.0864  0.1284 -0.1978
 2893W        W 6637   3.194   3.784   1.329 -0.2476  0.4616 -0.0509
 2894W        W 6638   6.820   6.574   2.787 -0.2337 -0.0382 -0.2600
 2895W        W 6639   7.185   5.846   9.054 -0.0399  0.2545  0.1495
 2896W        W 6640   5.075   6.810  12.071  0.2325  0.1125  0.1265
 2897W        W 6641   2.443   7.860  11.546  0.0106 -0.1606  0.1624
 2898W        W 6642   3.214   1.143   9.233  0.1024 -0.0818 -0.1319
 2899W        W 6643   6.582   1.218   9.901 -0.2784 -0.0934  0.1362
 2900W        W 6644   9.186   5.308   0.204  0.0159 -0.1036  0.0115
 2901W        W 6645   9.605   2.726   2.425  0.2457 -0.5240  0.0143
 2902W        W 6646   0.809   1.505   3.120 -0.0603 -0.2059  0.1404
 2903W        W 6647   8.545   7.923   8.378  0.0020 -0.4057 -0.0259
 2904W        W 6648   9.731   7.373  12.591  0.0755 -0.2696  0.1822
 2905W        W 6649   4.443   6.328   1.924  0.0519 -0.0257  0.0338
 2906W        W 6650   0.678   1.051   9.099  0.0682  0.1947  0.0769
 2907W        W 6651   0.560   2.236   3.640  0.2126  0.0019  0.0930
 2908W        W 6652   4.168   6.991  11.735  0.0528 -0.1081 -0.1393
 2909W        W 6653   3.912   2.783   3.731 -0.4181  0.4261 -0.1211
 2910W        W 6654   6.364   8.076   8.325  0.1750 -0.1961 -0.0353
 2911W        W 6655   9.615   2.547   3.769 -0.0961  0.3515 -0.0097
 2912W        W 6656   8.160   6.906  11.419  0.3196  0.2948  0.2129
 2913W        W 6657   8.206   3.177  11.907 -0.2607  0.2401  0.0595
 2914W        W 6658   3.708   5.035  10.760  0.0771  0.3847 -0.1098
 2915W        W 6659   0.410   0.510   1.697 -0.1417  0.3430 -0.0524
 2916W        W 6660   1.611   1.529  11.714 -0.1748  0.1674 -0.0956
 2917W        W 6661   8.294   7.528   3.116 -0.1351  0.0672 -0.0864
 2918W        W 6662   5.937   0.118   9.731 -0.2251  0.0802 -0.1516
 2919W        W 6663   2.679   3.928  12.187  0.2635 -0.0921 -0.0177
 2920W        W 6664   9.649   2.418  11.619 -0.0363 -0.0591 -0.2013
 2921W        W 6665   0.951   5.184  12.328 -0.1363  0.0684 -0.3965
 2922W        W 6666   5.874   6.185  11.009  0.0459  0.2263 -0.1610
 2923W        W 6667   8.114   0.476  12.529  0.2948  0.0813  0.3958
 2924W        W 6668   1.831   6.112   1.159  0.0148 -0.1231  0.0139
 2925W        W 6669   5.964   7.905   8.689 -0.0954 -0.3861 -0.1597
 2926W        W 6670   1.236   6.888   1.844  0.2107 -0.4776  0.1472
 2927W        W 6671   4.521   9.469   1.394 -0.2887 -0.0652 -0.0708
 2928W        W 6672   4.118   1.488   4.303  0.1049 -0.0596 -0.0870
 2929W        W 6673   8.342   9.645   2.742  0.2439  0.0492 -0.0668
 2930W        W 6674   9.747   1.577   1.693  0.0054 -0.1604 -0.0948
 2931W        W 6675   3.543   9.575   8.989 -0.1221 -0.3053  0.2175
 2932W        W 6676   5.928   5.152   8.424 -0.1879 -0.1623 -0.1325
 2933W        W 6677   6.728   7.373   9.198 -0.3315  0.1637 -0.0317
 2934W        W 6678   7.476   3.914   0.306  0.1139  0.1171  0.0982
 2935W        W 6679   5.916   0.745   0.123 -0.0496 -0.0913 -0.0412
 2936W        W 6680   4.420   0.096   3.913  0.0847 -0.2208  0.1002
 2937W        W 6681   7.511   3.755  12.077 -0.3653  0.1500  0.0350
 2938W        W 6682   7.940   3.641  12.892  0.3349 -0.0695 -0.2802
 2939W        W 6683   7.668   4.995   4.547 -0.0656  0.0152 -0.1308
 2940W        W 6684   5.761   1.082  11.570 -0.0418 -0.0798  0.0910
 2941W        W 6685   8.242   7.542  10.313  0.0803  0.3857 -0.0697
 2942W        W 6686   3.707   6.333   8.516 -0.0252 -0.0485 -0.1838
 2943W        W 6687   8.915   3.728   0.435  0.1586 -0.2667  0.0025
 2944W        W 6688   0.952   2.879  11.987  0.0510 -0.1134 -0.1414
 2945W        W 6689   2.543   3.123   4.424  0.0868  0.1064 -0.3240
 2946W        W 6690   9.259   2.196  11.809 -0.0406 -0.2275 -0.2202
 2947W        W 6691   9.489   0.248   0.943 -0.4018  0.1059 -0.0327
 2948W        W 6692   6.995   3.630   3.117 -0.2925 -0.0262 -0.2292
 2949W        W 6693   1.840   4.649  12.190 -0.3214 -0.3051 -0.2841
 2950W        W 6694   5.262   4.771   4.319  0.3087 -0.2090 -0.0754
 2951W        W 6695   1.743   0.013   1.508  0.0302  0.2659 -0.2312
 2952W        W 6696   4.628   1.130  12.183  0.1245  0.0131  0.1566
 2953W        W 6697   0.303   4.359  10.644 -0.3286  0.0971  0.1568
 2954W        W 6698   6.132   6.623   9.400  0.1439 -0.3678 -0.1873
 2955W        W 6699   3.063   5.905   1.667  0.1071  0.1931  0.0575
 2956W        W 6700   8.986   2.356   1.934  0.0117  0.2125 -0.1999
 2957W        W 6701   0.894   8.660  11.620  0.0332  0.1182  0.0146
 2958W        W 6702   9.791   5.372  11.405 -0.0577 -0.0382 -0.2464
 2959W        W 6703   7.752   5.197   3.177 -0.3180 -0.1091 -0.4481
 2960W        W 6704   7.576   8.804   9.345 -0.2801  0.1002 -0.0381
 2961W        W 6705   1.474   2.559  11.048  0.0462  0.0760 -0.0579
 2962W        W 6706   4.825   5.426  10.799 -0.3195 -0.2269  0.0405
 2963W        W 6707   5.956   6.094   0.979 -0.0765  0.0857  0.1610
 2964W        W 6708   2.951   4.391   1.814 -0.2093  0.0215  0.0443
 2965W        W 6709   7.016   1.673   4.093 -0.1400  0.0163 -0.3042
 2966W        W 6710   2.158   6.773  10.028 -0.1354  0.2010 -0.0235
 2967W        W 6711   5.591   0.515  11.514  0.0854  0.3273  0.0805
 2968W        W 6712   9.168   7.496  10.442  0.0968  0.0472 -0.2793
 2969W        W 6713   2.151   4.801  12.739 -0.1264 -0.1139 -0.2239
 2970W        W 6714   2.970   8.244   1.344 -0.0600 -0.0718  0.3102
 2971W        W 6715   2.321   4.367  12.525  0.3230 -0.1458 -0.2135
 2972W        W 6716   3.453   8.255   1.534 -0.1301  0.0461  0.0836
 2973W        W 6717   5.188   0.844   2.482 -0.0659 -0.0869 -0.2089
 2974W        W 6718   3.825   1.888  10.448  0.0230  0.2084  0.1428
 2975W        W 6719   4.960   0.531   9.557  0.1981  0.0822 -0.1064
 2976W        W 6720   8.633   1.587   5.367  0.0119 -0.0105 -0.0430
 2977W        W 6721   4.945   2.479  11.808 -0.0118  0.0859 -0.0534
 2978W        W 6722   6.859   0.322   9.264  0.0739  0.0111 -0.0466
 2979W        W 6723   5.476   2.982  12.333 -0.0409  0.0202  0.2265
 2980W        W 6724   0.803   1.095   2.780 -0.0834 -0.0373  0.1448
 2981W        W 6725   5.612   4.362   8.231  0.1215  0.0515  0.1287
 2982W        W 6726   9.585   7.086   6.206  0.2444 -0.0614 -0.1730
 2983W        W 6727   4.169   7.857  10.722  0.3461 -0.1524 -0.0611
 2984W        W 6728   0.512   3.970  12.211 -0.0607  0.0151 -0.1990
 2985W        W 6729   4.832   3.617   1.881 -0.0837  0.2245 -0.1237
 2986W        W 6730   1.632   6.133   2.703 -0.3144 -0.0392  0.1935
 2987W        W 6731   6.484   1.567   9.483 -0.2299  0.0835  0.3659
 2988W        W 6732   2.060   5.026   2.470 -0.0387 -0.1349 -0.0256
 2989W        W 6733   6.688   0.527   0.567 -0.2287 -0.2339  0.0459
 2990W        W 6734   1.851   7.224  10.690 -0.0016  0.1142 -0.1119
 2991W        W 6735   0.500   7.065  12.293  0.0500 -0.0411  0.2300
 2992W        W 6736   8.767   9.104   3.765 -0.1289  0.1336  0.1268
 2993W        W 6737   5.238   3.903   2.120 -0.0445 -0.0449 -0.0851
 2994W        W 6738   7.675   2.455   4.410  0.2113 -0.1626 -0.1474
 2995W        W 6739   6.328   8.798   2.363  0.1883 -0.0674 -0.1950
 2996W        W 6740   9.700   5.316   2.412 -0.1098  0.0677  0.1147
 2997W        W 6741   4.680   1.127   0.440  0.2581  0.0932 -0.2319
 2998W        W 6742   6.855   8.395   9.009  0.1796 -0.3946 -0.3242
 2999W        W 6743   3.044   0.078   7.901 -0.1636  0.0462  0.0759
 3000W        W 6744   5.178   7.806  10.561 -0.0564 -0.1210  0.0456
 3001W        W 6745   0.086   5.573  11.786  0.0352 -0.0867 -0.3852
 3002W        W 6746   8.329   7.678  12.824  0.7288 -0.0750 -0.0140
 3003W        W 6747   2.879   1.737   9.939  0.1964 -0.0216 -0.1173
 3004W        W 6748   4.424   3.777  11.336 -0.2924 -0.0470 -0.1049
 3005W        W 6749   2.643   1.204  11.429  0.0179 -0.1889  0.0369
 3006W        W 6750   4.923   3.068   0.742  0.2453  0.0214 -0.2540
 3007W        W 6751   9.309   4.030   9.318  0.1033  0.2060 -0.1495
 3008W        W 6752   3.907   0.783  11.836  0.1041 -0.0604  0.2282
 3009W        W 6753   3.041   8.776   0.955  0.0947 -0.2492  0.1131
 3010W        W 6754   3.649   2.848  10.198 -0.3856 -0.0372  0.1120
 3011W        W 6755   8.871   5.220   0.560  0.0182  0.1570  0.0197
 3012W        W 6756   5.299   9.483   9.433  0.4814  0.1900 -0.0662
 3013W        W 6757   5.811   3.361   1.556 -0.1134  0.1213 -0.1424
 3014W        W 6758   7.766   3.982   4.741  0.0572 -0.0914  0.2389
 3015W        W 6759   3.270   0.322  10.834 -0.0849 -0.0896  0.0139
 3016W        W 6760   1.557   4.887   1.731  0.0112  0.0223  0.0854
 3017W        W 6761   5.493   7.526   2.478 -0.0641 -0.0794 -0.1116
 3018W        W 6762   6.278   2.731   8.477 -0.3287 -0.0668  0.1795
 3019W        W 6763   1.858   5.215   2.935 -0.0776  0.0228  0.2143
 3020W        W 6764   7.310   4.472   1.633 -0.0686 -0.2571  0.0329
 3021W        W 6765   3.178   8.660   9.079  0.1475 -0.2251 -0.1787
 3022W        W 6766   8.475   8.104  12.621  0.0977 -0.0293  0.1420
 3023W        W 6767   1.653   9.596   0.550 -0.1479  0.2678 -0.0295
 3024W        W 6768   4.038   1.517  11.349  0.1678 -0.0510  0.1356
 3025W        W 6769   5.254   5.709  10.586 -0.0397  0.1294 -0.0355
 3026W        W 6770   5.503   0.830  11.870  0.2943  0.3695  0.2003
 3027W        W 6771   7.935   8.733   8.120 -0.0489  0.0015 -0.2136
 3028W        W 6772   7.056   8.699   0.508  0.1972  0.0370 -0.0927
 3029W        W 6773   5.020   7.577   0.121 -0.1114 -0.1508  0.0911
 3030W        W 6774   0.193   2.677   1.199 -0.4164 -0.1441  0.1070
 3031W        W 6775   1.194   8.440  10.377  0.0052  0.0086 -0.0651
 3032W        W 6776   1.900   8.713  12.347 -0.3519 -0.3503  0.2910
 3033W        W 6777   3.284   4.265   0.007 -0.1223  0.1870  0.0655
 3034W        W 6778   9.341   4.791   2.543  0.1165  0.2469  0.1675
 3035W        W 6779   3.270   3.915   0.535 -0.2312  0.1596  0.0867
 3036W        W 6780   9.137   2.751  10.780  0.1997  0.3001  0.1709
 3037W        W 6781   8.169   8.052  10.331  0.3788  0.1148 -0.3425
 3038W        W 6782   6.636   4.763  12.548  0.2379 -0.0091 -0.3990
 3039W        W 6783   7.517   5.522  12.343  0.2259  0.1943 -0.2783
 3040W        W 6784   2.600   4.550   2.280 -0.2336  0.0396  0.1138
 3041W        W 6785   0.625   1.633  10.769 -0.0871 -0.0795 -0.1466
 3042W        W 6786   8.243   4.297   2.858  0.3775 -0.1583 -0.1746
 3043W        W 6787   7.569   9.594   9.395  0.1280 -0.4465  0.0945
 3044W        W 6788   9.806   1.441   3.099  0.0780  0.1618 -0.2740
 3045W        W 6789   3.906   5.016   2.307 -0.1267 -0.2997  0.2137
 3046W        W 6790   7.965   1.783   4.413  0.1735 -0.0294 -0.3786
 3047W        W 6791   4.314   4.503   9.615 -0.0553 -0.0807 -0.3040
 3048W        W 6792   8.311   7.614   4.319  0.0042 -0.2391  0.0125
 3049W        W 6793   9.085   0.656  11.543 -0.4181 -0.1699  0.0539
 3050W        W 6794   3.891   5.375   3.262  0.1014  0.4887 -0.0557
 3051W        W 6795   3.132   3.169  12.668  0.0328  0.0621  0.1186
 3052W        W 6796   4.597   1.865   1.059 -0.3464 -0.0033 -0.2213
 3053W        W 6797   1.465   0.399  10.571  0.0535 -0.2352 -0.3571
 3054W        W 6798   5.718   6.049   4.581  0.0671  0.1194  0.3295
 3055W        W 6799   9.712   8.652   0.819  0.0352  0.0924  0.2502
 3056W        W 6800   2.668   4.984   1.564 -0.1993 -0.0292 -0.0648
 3057W        W 6801   7.817   4.220  10.713 -0.1562  0.0164 -0.1013
 3058W        W 6802   3.174   2.069   5.086 -0.0427  0.2186 -0.0964
 3059W        W 6803   9.032   0.816  12.940 -0.0961  0.1169 -0.4451
 3060W        W 6804   1.182   6.104   0.818  0.1325 -0.0491 -0.0401
 3061W        W 6805   7.141   2.057  11.371  0.2835 -0.0415 -0.2328
 3062W        W 6806   9.016   4.363  11.733  0.4174  0.0483  0.2712
 3063W        W 6807   5.649   3.799   1.189  0.1131  0.3230  0.0064
 3064W        W 6808   2.494   3.226   9.714  0.0806 -0.0209  0.1747
 3065W        W 6809   7.460   9.067   0.423 -0.1297  0.2237  0.1003
 3066W        W 6810   3.011   6.262   2.385 -0.1870 -0.1422 -0.1988
 3067W        W 6811   0.627   5.942  12.145 -0.0257  0.1041 -0.1179
 3068W        W 6812   8.325   6.460   9.476 -0.0595 -0.1686 -0.3077
 3069W        W 6813   8.131   0.951   8.943 -0.2166 -0.1223  0.0832
 3070W        W 6814   6.182   7.877   1.346  0.2167  0.1659 -0.1288
 3071W        W 6815   0.144   3.783  11.327 -0.0788 -0.0369  0.1892
 3072W        W 6816   6.274   0.205  11.980  0.1379  0.0095 -0.0542
 3073W        W 6817   4.680   2.051   2.753 -0.4179  0.0361 -0.0682
 3074W        W 6818   7.862   6.356  10.595  0.1219 -0.1395  0.4582
 3075W        W 6819   0.843   7.866  11.226  0.1770 -0.0130  0.2790
 3076W        W 6820   7.426   5.944   4.460  0.0396  0.1942  0.2404
 3077W        W 6821   0.799   5.225  12.938 -0.0123 -0.0732  0.1541
 3078W        W 6822   5.652   9.287  11.331 -0.0359 -0.2462 -0.0596
 3079W        W 6823   4.046   3.675  12.914  0.1549 -0.0477 -0.3859
 3080W        W 6824   5.985   7.468   2.386  0.0771 -0.1637 -0.2530
 3081W        W 6825   5.325   2.533   8.782  0.1755 -0.1955 -0.1401
 3082W        W 6826   3.255   8.571   2.419  0.3533 -0.3351  0.1436
 3083W        W 6827   1.130   5.160  10.243  0.0751 -0.1496  0.2295
 3084W        W 6828   6.138   9.721   9.129 -0.2439 -0.0185 -0.1166
 3085W        W 6829   8.535   8.302  10.064  0.3459  0.0128  0.0370
 3086W        W 6830   2.150   9.531  12.633  0.2908  0.0537 -0.1514
 3087W        W 6831   7.170   1.083   2.384 -0.3116  0.1581 -0.2300
 3088W        W 6832   2.287   7.595   1.158  0.0676  0.2907 -0.0317
 3089W        W 6833   3.572   7.027  10.000 -0.1033  0.0444  0.0621
 3090W        W 6834   3.793   2.417   0.419  0.3222  0.0061 -0.3091
 3091W        W 6835   9.363   9.594  10.450  0.1032 -0.2247  0.0824
 3092W        W 6836   4.298   9.810  11.847  0.3010  0.0732  0.0556
 3093W        W 6837   5.520   2.908  12.825  0.3148 -0.0313 -0.0078
 3094W        W 6838   3.087   5.229   4.440 -0.3634  0.0658 -0.0022
 3095W        W 6839   4.744   2.258  12.341  0.0137  0.2287  0.0715
 3096W        W 6840   7.950   7.132   3.567 -0.3222 -0.1080  0.0392
 3097W        W 6841   8.325   8.657   1.421  0.1924  0.0185 -0.3110
 3098W        W 6842   6.978   4.476   4.589 -0.3245 -0.2259 -0.2023
 3099W        W 6843   1.655   4.640  10.534 -0.0929 -0.2575  0.0444
 3100W        W 6844   0.355   9.123  10.581 -0.2934  0.2421 -0.1130
 3101W        W 6845   7.774   1.364   8.918 -0.1098  0.0912  0.2437
 3102W        W 6846   6.012   8.125   2.006 -0.2263  0.2530 -0.0284
 3103W        W 6847   2.404   0.537   8.882  0.1824  0.0500 -0.0778
 3104W        W 6848   5.644   7.067  10.827 -0.2114  0.2376 -0.2739
 3105W        W 6849   2.699   7.926  10.109  0.0333 -0.3737  0.0871
 3106W        W 6850   1.475   3.425  12.823 -0.2807 -0.2376 -0.1016
 3107W        W 6851   6.199   4.825  11.195  0.0566  0.0916  0.1362
 3108W        W 6852   5.578   3.590   2.970  0.0823 -0.1635  0.0339
 3109W        W 6853   2.494   0.609   1.062  0.0625  0.4546 -0.5097
 3110W        W 6854   1.779   6.159   1.957 -0.0549 -0.1174 -0.0578
 3111W        W 6855   3.606   0.375   0.475  0.1120 -0.0422 -0.2400
 3112W        W 6856   1.272   1.312  10.818 -0.1085 -0.1942  0.0947
 3113W        W 6857   4.535   8.407  11.842  0.3651 -0.0228  0.3553
 3114W        W 6858   9.133   9.826  12.607  0.4276 -0.2352 -0.3101
 3115W        W 6859   5.387   5.659   4.303 -0.3569 -0.2042 -0.1080
 3116W        W 6860   8.524   9.364   9.997 -0.2854  0.1107  0.1165
 3117W        W 6861   4.957   4.924  11.784 -0.1668  0.1864  0.2135
 3118W        W 6862   5.259   9.542  10.623  0.2897  0.1375 -0.1835
 3119W        W 6863   7.053   4.790   0.033  0.0049  0.0259  0.2873
 3120W        W 6864   8.690   8.522   3.991 -0.0195  0.0119  0.0684
 3121W        W 6865   7.340   6.193   2.148  0.1179  0.0724 -0.0274
 3122W        W 6866   9.168   3.784  11.609  0.0707 -0.1763  0.0620
 3123W        W 6867   5.757   2.590   8.429  0.0343  0.0897 -0.1138
 3124W        W 6868   5.189   1.730   2.139  0.0135  0.2934 -0.2311
 3125W        W 6869   0.662   1.214   3.869  0.4465  0.3019 -0.0410
 3126W        W 6870   5.612   6.716   9.550  0.0853 -0.3558 -0.0630
 3127W        W 6871   1.715   2.915   3.871  0.0108 -0.1921  0.2880
 3128W        W 6872   9.859   4.990   8.627 -0.0936 -0.0311 -0.2272
 3129W        W 6873   2.359   0.329  10.736  0.0060  0.0212  0.1478
 3130W        W 6874   8.630   6.050  10.435  0.2548 -0.1998 -0.1467
 3131W        W 6875   8.750   7.583  11.396 -0.0385 -0.0151 -0.0570
 3132W        W 6876   5.430   2.949   9.129  0.3710 -0.1055  0.0775
 3133W        W 6877   8.822   2.199   0.813 -0.0354  0.1454 -0.1166
 3134W        W 6878   7.287   2.578   4.135 -0.0190  0.1310 -0.2543
 3135W        W 6879   1.127   5.694   9.572 -0.1792  0.1886  0.2057
 3136W        W 6880   3.247   5.767   2.495  0.1343  0.0195 -0.0076
 3137W        W 6881   2.928   4.609   9.659 -0.0629 -0.0902  0.2164
 3138W        W 6882   5.020   4.609  12.342 -0.0186  0.0850 -0.2568
 3139W        W 6883   1.340   2.297   2.166 -0.1934 -0.1315  0.0293
 3140W        W 6884   8.647   9.439  12.824 -0.0179  0.3838 -0.3315
 3141W        W 6885   2.223   3.239   8.652  0.1268 -0.3201 -0.1221
 3142W        W 6886   6.746   7.517   0.007 -0.0925  0.0175  0.0399
 3143W        W 6887   3.165   3.385  10.629 -0.0206  0.0732  0.3639
 3144W        W 6888   7.675   8.410   2.735 -0.1352 -0.1384 -0.2306
 3145W        W 6889   8.174   6.046  10.861 -0.2073  0.0068 -0.1565
 3146W        W 6890   0.726   2.481   1.116 -0.1277  0.4206 -0.4718
 3147W        W 6891   3.311   9.463   2.086 -0.1764  0.1724  0.0669
 3148W        W 6892   9.315   2.544   0.636  0.0249  0.0912  0.4418
 3149W        W 6893   4.422   4.541   2.802 -0.0455  0.0920  0.3453
 3150W        W 6894   2.750   2.988   9.274 -0.0125 -0.1130 -0.1146
 3151W        W 6895   0.405   7.927  12.763 -0.3244 -0.1836  0.1063
 3152W        W 6896   5.196   2.051   8.616  0.0992 -0.1669  0.1685
 3153W        W 6897   1.664   5.168   3.395 -0.0189 -0.2409  0.1002
 3154W        W 6898   6.925   1.630   9.288 -0.1224 -0.1602 -0.1777
 3155W        W 6899   1.568   7.326   0.025  0.2305  0.1240 -0.1958
 3156W        W 6900   9.660   7.318   0.668  0.1124  0.1404  0.1010
 3157W        W 6901   0.911   3.413   2.021  0.0550  0.0320  0.1780
 3158W        W 6902   4.975   7.260   2.720 -0.0311  0.3241 -0.0003
 3159W        W 6903   6.115   0.443  11.295 -0.0435 -0.1180 -0.1398
 3160W        W 6904   5.210   6.646   0.807 -0.0392 -0.0285 -0.2397
 3161W        W 6905   0.453   0.635   3.822  0.1424  0.0583  0.2768
 3162W        W 6906   3.143   0.310   0.263 -0.1758 -0.2428  0.0885
 3163W        W 6907   6.406   1.954  11.016 -0.2248 -0.1999 -0.2582
 3164W        W 6908   9.748   6.772  11.494  0.1723  0.0238  0.2233
 3165W        W 6909   2.888   0.316   9.876 -0.0100 -0.1311  0.1756
 3166W        W 6910   5.199   4.417  10.139 -0.2362 -0.3914 -0.0043
 3167W        W 6911   9.010   3.477  11.154  0.0444 -0.1107  0.4609
 3168W        W 6912   3.435   1.029   8.802  0.0047 -0.0779 -0.1536
 3169W        W 6913   8.154   7.115   1.875 -0.0128 -0.1805  0.0977
 3170W        W 6914   7.377   6.358  11.419 -0.0745 -0.2367  0.0050
 3171W        W 6915   0.762   5.842   0.123  0.0786  0.6244  0.3158
 3172W        W 6916   9.097   5.633   0.892  0.3298  0.0791 -0.4715
 3173W        W 6917   6.045   4.631   4.106  0.1904  0.1893 -0.1236
 3174W        W 6918   5.891   1.401  12.490 -0.1483 -0.1916 -0.0116
 3175W        W 6919   1.822   1.113   8.687 -0.1833 -0.1267  0.2985
 3176W        W 6920   0.325   1.462   4.198 -0.0884 -0.0645 -0.0782
 3177W        W 6921   0.050   2.928  10.667 -0.0349  0.2688  0.1287
 3178W        W 6922   7.979   3.286  10.986  0.0607  0.0690 -0.0878
 3179W        W 6923   5.509   3.072   3.224 -0.0254 -0.0949 -0.0139
 3180W        W 6924   1.374   0.927   1.414 -0.4128  0.0883  0.1098
 3181W        W 6925   7.043   5.250   1.714 -0.1359 -0.3774 -0.2781
 3182W        W 6926   4.499   6.845  12.789 -0.1901  0.2261 -0.0195
 3183W        W 6927   8.730   6.391   2.534  0.0376  0.0453  0.1163
 3184W        W 6928   0.936   6.618   3.057 -0.0760 -0.1440 -0.1132
 3185W        W 6929   5.995   2.300   2.495 -0.1036 -0.0513 -0.0977
 3186W        W 6930   6.723   7.959  10.722 -0.1143  0.0485  0.2854
 3187W        W 6931   7.743   3.779   1.339  0.2770 -0.1460 -0.1037
 3188W        W 6932   9.229   1.082   9.208  0.1031 -0.1533 -0.0721
 3189W        W 6933   4.346   6.186   0.429  0.3082  0.1380 -0.0769
 3190W        W 6934   8.009   3.716   3.326 -0.0293 -0.2107  0.2332
 3191W        W 6935   0.608   9.815   3.536  0.0862 -0.0360  0.5390
 3192W        W 6936   8.602   0.580   1.291  0.0696  0.0680 -0.3107
 3193W        W 6937   1.722   3.502   2.066  0.3776 -0.0071  0.1975
 3194W        W 6938   5.663   5.710   1.193 -0.1320  0.1035  0.1999
 3195W        W 6939   4.188   5.792  10.456  0.0723 -0.0421  0.2433
 3196W        W 6940   6.162   3.125   4.651 -0.0823  0.0780  0.1655
 3197W        W 6941   7.424   3.061  10.108 -0.1267 -0.0698 -0.1960
 3198W        W 6942   6.197   6.044  10.056 -0.0555  0.0471  0.0357
 3199W        W 6943   4.228   2.873   1.281  0.1292 -0.0473 -0.1438
 3200W        W 6944   9.374   7.025   2.542  0.4692 -0.2099  0.0781
 3201W        W 6945   7.796   7.497  12.498  0.0957  0.2869 -0.2145
 3202W        W 6946   3.582   0.653   3.398 -0.0038 -0.2307 -0.2844
 3203W        W 6947   5.242   3.046   3.688 -0.0240 -0.1017  0.2426
 3204W        W 6948   4.793   1.375  12.614  0.2957  0.0405 -0.0858
 3205W        W 6949   7.462   9.609   3.596 -0.0016  0.0075 -0.0038
 3206W        W 6950   8.047   7.543   2.244 -0.0464  0.0940  0.3314
 3207W        W 6951   0.784   1.026   1.278  0.1093 -0.1272 -0.1369
 3208W        W 6952   6.771   4.071   4.370  0.1168 -0.3759  0.1706
 3209W        W 6953   2.471   5.365   0.397  0.0667 -0.0321 -0.2700
 3210W        W 6954   0.889   2.134   2.427 -0.0883 -0.1667  0.0066
 3211W        W 6955   8.616   9.161   2.749  0.0278 -0.0865  0.0408
 3212W        W 6956   2.915   1.222   2.855  0.0196 -0.0379  0.3284
 3213W        W 6957   6.452   9.603   2.893  0.2382 -0.0243 -0.1417
 3214W        W 6958   4.860   5.230   9.441 -0.0705  0.1960 -0.1498
 3215W        W 6959   4.628   9.118   2.946 -0.0474 -0.0948 -0.0513
 3216W        W 6960   5.449   1.103   4.446 -0.1750  0.0905  0.0466
 3217W        W 6961   2.518   9.590   1.044  0.1303  0.0203  0.1937
 3218W        W 6962   7.740   3.362  12.293 -0.0539 -0.1477  0.1057
 3219W        W 6963   9.089   0.332   0.653  0.0630 -0.0269  0.0044
 3220W        W 6964   2.026   8.029  10.593 -0.0628 -0.0225  0.1713
 3221W        W 6965   7.437   4.371   3.395 -0.0673 -0.4526 -0.2512
 3222W        W 6966   1.970   2.889   8.910  0.2020  0.0853 -0.1997
 3223W        W 6967   9.846   0.735  12.002 -0.0365  0.1277  0.0644
 3224W        W 6968   8.791   0.150   1.020 -0.0768 -0.0827 -0.0236
 3225W        W 6969   6.241   3.245  12.534  0.0039  0.1180 -0.2393
 3226W        W 6970   2.172   8.571   1.750  0.2492 -0.0045  0.5425
 3227W        W 6971   4.484   1.639  11.651  0.2211  0.0624 -0.1474
 3228W        W 6972   6.682   0.215   4.202 -0.1350  0.0599 -0.3669
 3229W        W 6973   8.691   3.035   2.333 -0.0178  0.3239 -0.1166
 3230W        W 6974   0.898   7.841   1.008  0.1079 -0.2212  0.1988
 3231W        W 6975   3.618   9.350  11.635  0.0618 -0.2737 -0.3925
 3232W        W 6976   3.795   3.987   8.897 -0.0467 -0.4546 -0.4015
 3233W        W 6977   8.438   5.881   9.908 -0.0086  0.0974 -0.2014
 3234W        W 6978   0.577   3.024   8.665  0.2057  0.1588 -0.1578
 3235W        W 6979   4.150   7.704   4.054 -0.2593  0.2108 -0.0184
 3236W        W 6980   2.197   6.778  11.936  0.1310  0.1742 -0.2048
 3237W        W 6981   6.202   6.734  10.282  0.1274 -0.1054  0.1389
 3238W        W 6982   2.843   8.250  10.945  0.0245  0.1420  0.2430
 3239W        W 6983   2.656   1.887   5.152 -0.1322 -0.0980  0.0397
 3240W        W 6984   0.681   9.330   3.397 -0.0467 -0.1223 -0.0411
 3241W        W 6985   7.302   9.632  12.718  0.1506 -0.0334  0.0633
 3242W        W 6986   9.741   1.214   9.154  0.0545 -0.6052  0.0210
 3243W        W 6987   2.538   0.460   2.966 -0.1538  0.1862 -0.0653
 3244W        W 6988   8.767   2.309   9.078 -0.0322  0.1687  0.2850
 3245W        W 6989   7.500   8.273   0.429  0.0617 -0.0557 -0.0730
 3246W        W 6990   4.199   9.327   0.077  0.1128  0.1660 -0.1773
 3247W        W 6991   8.589   5.766   0.931 -0.1252  0.2927  0.0364
 3248W        W 6992   6.758   6.778   3.463 -0.1103 -0.1856  0.0387
 3249W        W 6993   6.746   5.548   0.168 -0.2655  0.2848 -0.1637
 3250W        W 6994   6.072   1.397   1.454 -0.0680 -0.0737  0.1716
 3251W        W 6995   3.823   1.709   3.726  0.0360  0.2792  0.3337
 3252W        W 6996   0.244   8.348   2.230 -0.1754 -0.1251  0.0645
 3253W        W 6997   7.543   9.072  11.651 -0.0811 -0.2578  0.2093
 3254W        W 6998   4.303   1.685   3.039  0.1548  0.0618  0.0214
 3255W        W 6999   3.814   2.842   2.382 -0.1106  0.2972 -0.0208
 3256W        W 7000   5.691   9.739  10.787 -0.3104 -0.0779 -0.0251
 3257W        W 7001   8.135   4.470  12.674 -0.0871 -0.1172 -0.0099
 3258W        W 7002   8.899   6.503  10.353  0.3535  0.2537 -0.1515
 3259W        W 7003   9.583   4.398   2.433 -0.3301  0.0596 -0.0459
 3260W        W 7004   3.939   9.035   4.663  0.1140 -0.1530  0.0467
 3261W        W 7005   9.179   6.553   2.690 -0.4415 -0.1919 -0.1646
 3262W        W 7006   5.445   9.390   3.387  0.0745 -0.2798  0.2477
 3263W        W 7007   2.603   2.781  11.136 -0.2558 -0.0549  0.2522
 3264W        W 7008   6.779   9.466   2.446 -0.1541 -0.4418 -0.0049
 3265W        W 7009   0.321   6.344   2.659 -0.1983 -0.2280 -0.0134
 3266W        W 7010   2.891   0.534   0.660 -0.0296  0.0851 -0.1809
 3267W        W 7011   8.262   1.524  12.545 -0.3107  0.0612  0.0353
 3268W        W 7012   1.662   3.187   1.653  0.0667  0.0035 -0.0448
 3269W        W 7013   9.717   6.560   2.739  0.0935  0.1230  0.1869
 3270W        W 7014   8.813   5.278   3.164 -0.1168 -0.1791  0.0151
 3271W        W 7015   7.116   3.683   2.200  0.1119 -0.0005  0.1935
 3272W        W 7016   8.515   6.359   2.084  0.2785  0.1522 -0.2105
 3273W        W 7017   0.841   0.721   8.757 -0.0094  0.0974 -0.1347
 3274W        W 7018   9.082   0.476   4.114  0.1777  0.0034  0.1327
 3275W        W 7019   3.864   5.892   2.367 -0.1474  0.3733 -0.3620
 3276W        W 7020   4.630   7.385   2.256  0.4481 -0.0647  0.1630
 3277W        W 7021   0.150   6.818   7.594  0.1179  0.1271 -0.0640
 3278W        W 7022   2.583   9.868  11.024 -0.1618  0.0484  0.0173
 3279W        W 7023   0.515   7.803  10.679  0.1628 -0.1291 -0.1593
 3280W        W 7024   2.448   9.762   4.136 -0.4143  0.2039  0.0990
 3281W        W 7025   3.157   3.743  10.305  0.1655  0.0985 -0.0498
 3282W        W 7026   1.676   8.015   3.269  0.1343  0.1148  0.0328
 3283W        W 7027   5.535   0.333  10.041 -0.1376 -0.1090 -0.2447
 3284W        W 7028   4.650   8.230   0.598  0.0614  0.5074 -0.3035
 3285W        W 7029   7.040   2.033   0.374 -0.1074  0.1478  0.1525
 3286W        W 7030   5.275   9.515   0.945  0.0932  0.2147 -0.0971
 3287W        W 7031   3.244   2.596   3.280 -0.1538  0.2026 -0.1842
 3288W        W 7032   6.228   5.044   4.459 -0.0418 -0.2780 -0.0629
 3289W        W 7033   3.871   9.604   0.320  0.0897  0.1175  0.0327
 3290W        W 7034   6.499   5.641  10.886  0.0467  0.0358 -0.0902
 3291W        W 7035   0.213   2.519  12.133  0.0346  0.0194  0.0531
 3292W        W 7036   6.561   2.608  10.999  0.0131  0.1449 -0.2114
 3293W        W 7037   0.074   5.334   0.766  0.2464  0.2466 -0.1987
 3294W        W 7038   3.362   9.631   3.155 -0.1382 -0.0839 -0.3072
 3295W        W 7039   6.419   6.053   1.547  0.0398 -0.1701 -0.2121
 3296W        W 7040   6.073   7.521   9.947 -0.3446  0.1530  0.0541
 3297W        W 7041   7.616   0.533   9.943  0.0196  0.5600  0.0089
 3298W        W 7042   5.773   7.400   4.727  0.2205 -0.0032  0.0655
 3299W        W 7043   8.413   7.006   3.170 -0.0842 -0.1602 -0.1137
 3300W        W 7044   1.781   3.994   9.846 -0.0303  0.0616  0.1476
 3301W        W 7045   2.759   8.337  12.233  0.3203  0.2884 -0.1430
 3302W        W 7046   1.744   1.950  10.008 -0.1962  0.3249  0.0323
 3303W        W 7047   7.422   3.912  11.629 -0.2021  0.0643 -0.1883
 3304W        W 7048   8.543   5.362   1.270  0.0738  0.1752 -0.0682
 3305W        W 7049   5.857   0.303  10.851  0.1623  0.1840  0.1555
 3306W        W 7050   2.033   7.204  11.647  0.1425 -0.0133  0.1901
 3307W        W 7051   9.469   0.938   2.290 -0.0081 -0.1470  0.0907
 3308W        W 7052   5.288   2.875  10.974  0.1912  0.0426 -0.1581
 3309W        W 7053   6.439   7.525   3.906 -0.1563  0.1701  0.2006
 3310W        W 7054   7.119   0.801   9.289 -0.3434  0.0251 -0.1314
 3311W        W 7055   1.052   0.963  12.301  0.1229  0.0318  0.1324
 3312W        W 7056   3.637   5.146   9.528 -0.0689 -0.2718  0.2065
 3313W        W 7057   8.866   1.899  10.252  0.0763  0.2870 -0.1826
 3314W        W 7058   5.490   8.633   0.434  0.0388  0.0629 -0.0311
 3315W        W 7059   5.152   4.351   3.985 -0.1585 -0.3206 -0.1790
 3316W        W 7060   9.505   2.537  11.132 -0.2718  0.1372  0.0124
 3317W        W 7061   5.326   7.765   4.240 -0.0898 -0.2797 -0.1403
 3318W        W 7062   4.532   5.417   0.372 -0.0541  0.2250  0.2539
 3319W        W 7063   4.673   2.890   9.478  0.0153  0.0513  0.0661
 3320W        W 7064   3.707   1.790   4.237  0.0760 -0.2027  0.0141
 3321W        W 7065   1.111   3.575  10.785  0.2251 -0.1233 -0.1453
 3322W        W 7066   4.266   1.420   1.802  0.0249 -0.0467  0.2888
 3323W        W 7067   6.346   7.177  11.977  0.0229  0.0069  0.1482
 3324W        W 7068   4.786   8.830  11.242 -0.1151  0.2576 -0.0773
 3325W        W 7069   1.080   8.208  11.509  0.1278  0.0262  0.1308
 3326W        W 7070   4.291   3.660   4.337 -0.0086 -0.0532  0.0811
 3327W        W 7071   7.816   1.725  10.259 -0.0888  0.0513  0.0427
 3328W        W 7072   2.922   4.149   2.279 -0.0442 -0.1410 -0.2973
 3329W        W 7073   7.798   4.703   3.093  0.1125  0.2098  0.4672
 3330W        W 7074   3.204   7.076  12.121 -0.3278  0.2658 -0.2276
 3331W        W 7075   3.054   1.470   2.444  0.2912 -0.1652 -0.0308
 3332W        W 7076   1.223   0.155   0.593 -0.0782  0.0740  0.4720
 3333W        W 7077   9.237   1.838  12.279  0.0278  0.1099  0.1909
 3334W        W 7078   2.247   3.422   0.071  0.2321 -0.2324 -0.2751
 3335W        W 7079   0.026   0.981  10.422  0.4346 -0.1046  0.1058
 3336W        W 7080   5.121   4.619   1.051  0.3337 -0.0401  0.0059
 3337W        W 7081   5.618   2.932   1.788  0.1438 -0.1252 -0.4206
 3338W        W 7082   8.850   7.298  10.853  0.1446 -0.0363  0.1983
 3339W        W 7083   2.341   7.949  12.026  0.0601 -0.1917 -0.3621
 3340W        W 7084   1.952   1.513   9.826  0.3966  0.1551  0.2694
 3341W        W 7085   8.464   9.726   3.378 -0.2364  0.1662  0.1226
 3342W        W 7086   1.698   1.128   2.383  0.1954 -0.0583  0.4635
 3343W        W 7087   2.361   8.460  10.297  0.2301  0.1142 -0.1397
 3344W        W 7088   3.385   2.668   3.781  0.1662  0.2122  0.0073
 3345W        W 7089   3.402   3.104   2.997  0.1524  0.2910  0.0336
 3346W        W 7090   8.959   3.428   8.648 -0.1986  0.2398  0.3136
 3347W        W 7091   9.428   6.514   2.212  0.1654  0.0059  0.3037
 3348W        W 7092   1.337   3.258  11.146 -0.4932  0.4475 -0.1429
 3349W        W 7093   8.775   9.200  10.956 -0.0934  0.0629 -0.1779
 3350W        W 7094   9.736   1.449   0.799  0.1443  0.1098 -0.0181
 3351W        W 7095   1.465   7.870   0.864  0.2680 -0.0763  0.2371
 3352W        W 7096   4.932   1.050   4.161  0.1355  0.1997  0.1322
 3353W        W 7097   9.001   1.483   3.398  0.3436  0.2053  0.1084
 3354W        W 7098   0.819   5.146   3.081 -0.0295  0.0463  0.1883
 3355W        W 7099   3.094   8.787   1.461  0.0625 -0.0235 -0.2224
 3356W        W 7100   5.185   2.118  12.003  0.0629 -0.1137 -0.2288
 3357W        W 7101   8.793   1.838   3.030  0.0554  0.1024  0.1405
 3358W        W 7102   4.704   5.587  12.440 -0.0403  0.3211  0.4280
 3359W        W 7103   5.924   2.347   7.478  0.2610  0.1858  0.2166
 3360W        W 7104   3.578   9.813  10.969  0.0327 -0.1591  0.1004
 3361W        W 7105   8.372   2.200  11.748 -0.1407 -0.0342 -0.0088
 3362W        W 7106   7.715   7.100  12.806 -0.2840  0.1789 -0.2138
 3363W        W 7107   3.166   9.701   3.738 -0.0161 -0.1801 -0.1006
 3364W        W 7108   5.973   7.690  12.340 -0.0064 -0.0902 -0.2167
 3365W        W 7109   2.055   6.105  12.761  0.1180  0.2537 -0.2109
 3366W        W 7110   1.774   9.662  10.061 -0.1470 -0.1982 -0.0737
 3367W        W 7111   7.030   7.082   9.608 -0.1037  0.0949 -0.2372
 3368W        W 7112   7.333   0.082  10.926 -0.2721  0.1478  0.2715
 3369W        W 7113   7.188   3.557   7.981 -0.0615  0.1386 -0.0884
 3370W        W 7114   2.127   2.628   1.038  0.1436  0.2351 -0.0025
 3371W        W 7115   4.751   4.561   4.161  0.1846  0.0145  0.1263
 3372W        W 7116   2.923   8.848   3.229 -0.1764  0.0195  0.3454
 3373W        W 7117   6.879   9.760   9.619 -0.0042  0.0737 -0.2262
 3374W        W 7118   2.882   3.008   3.260 -0.1466 -0.1070 -0.0864
 3375W        W 7119   7.789   9.424  12.546 -0.1190 -0.1960 -0.0117
 3376W        W 7120   7.439   4.682  11.907  0.0448 -0.1095  0.0853
 3377W        W 7121   4.019   7.378   9.351 -0.0311 -0.1382  0.3867
 3378W        W 7122   5.559   8.986   2.222  0.0861 -0.1813  0.1561
 3379W        W 7123   5.279   5.534  12.439  0.3167  0.2646 -0.2507
 3380W        W 7124   4.688   1.403   0.916 -0.2252 -0.2763  0.1297
 3381W        W 7125   9.270   6.001  11.631  0.0056 -0.0553  0.1950
 3382W        W 7126   2.778   2.663   4.441  0.0120  0.3755 -0.0964
 3383W        W 7127   4.038   0.321  12.569  0.1076 -0.1718  0.5284
 3384W        W 7128   3.368   1.495  12.686 -0.0701 -0.1125  0.0349
 3385W        W 7129   8.325   4.827  11.371  0.1542  0.1706 -0.2257
 3386W        W 7130   7.893   0.017   0.796  0.2045 -0.0715  0.0030
 3387W        W 7131   9.475   4.955   9.939 -0.4006 -0.1034  0.0552
 3388W        W 7132   0.237   0.114   8.290 -0.1197  0.0404 -0.2941
 3389W        W 7133   0.016   4.988   1.679 -0.2566 -0.0020 -0.0053
 3390W        W 7134   6.765   6.342   9.199  0.0181  0.1641 -0.1096
 3391W        W 7135   5.502   1.743   0.897  0.1144 -0.0483 -0.2260
 3392W        W 7136   7.631   1.325  10.450 -0.1255  0.0039 -0.1695
 3393W        W 7137   3.956   3.669   2.689 -0.1420 -0.0471  0.0655
 3394W        W 7138   7.205   0.866   8.118  0.0572 -0.0577  0.1047
 3395W        W 7139   4.453   7.631   9.895 -0.1072 -0.1461 -0.2742
 3396W        W 7140   0.750   3.924   9.327 -0.5629  0.0928 -0.1223
 3397W        W 7141   7.484   9.243   1.849  0.2244  0.3117 -0.2538
 3398W        W 7142   9.462   8.317   1.162  0.1877  0.1938 -0.2104
 3399W        W 7143   4.124   4.828  10.603  0.0697 -0.0278 -0.0554
 3400W        W 7144   3.681   1.723   1.867 -0.1442 -0.1071  0.1870
 3401W        W 7145   0.553   7.986  12.289 -0.0828  0.2936  0.1256
 3402W        W 7146   8.492   1.445   3.090 -0.1317  0.1413 -0.2217
 3403W        W 7147   8.513   0.483   4.072 -0.3092 -0.0900 -0.1245
 3404W        W 7148   4.700   8.437  12.314 -0.0158  0.1397 -0.0490
 3405W        W 7149   0.303   5.706  10.699 -0.0743 -0.1941  0.0569
 3406W        W 7150   0.512   8.909   3.136  0.1653  0.0351 -0.0487
 3407W        W 7151   7.145   1.039  12.652 -0.3967  0.1700  0.3185
 3408W        W 7152   6.929   8.424  11.331 -0.0525  0.0960 -0.2823
 3409W        W 7153   0.110   2.318   3.046 -0.2005 -0.1189  0.0437
 3410W        W 7154   5.536   5.189   3.758  0.0527  0.0517 -0.0466
 3411W        W 7155   9.532   5.546   3.179 -0.2380  0.3811 -0.3368
 3412W        W 7156   3.091   3.833  11.992 -0.1242  0.0634  0.3069
 3413W        W 7157   1.627   9.774   9.230  0.0123 -0.3326  0.1585
 3414W        W 7158   5.591   4.665   3.905  0.1344 -0.1601 -0.1567
 3415W        W 7159   8.997   2.969   3.691 -0.3737  0.0120  0.0001
 3416W        W 7160   4.912   6.567  12.869  0.2198  0.1652  0.0317
 3417W        W 7161   5.893   2.538   3.448  0.3498 -0.1463 -0.1181
 3418W        W 7162   5.497   6.367  10.122  0.1471 -0.3494  0.2546
 3419W        W 7163   3.659   1.588   0.135  0.0622  0.0885  0.0454
 3420W        W 7164   5.299   8.490  10.597  0.0181  0.1850 -0.1209
 3421W        W 7165   6.746   7.247   3.587 -0.3671 -0.0402  0.3212
 3422W        W 7166   7.133   4.011   3.494 -0.0366  0.5440 -0.0352
 3423W        W 7167   5.744   2.990   3.722  0.0846  0.2693 -0.0586
 3424W        W 7168   7.469   7.391  11.476  0.1244  0.0245 -0.0708
 3425W        W 7169   9.092   1.891  10.777 -0.1210  0.1846  0.0179
 3426W        W 7170   1.281   3.072  10.209  0.0311  0.0322  0.0285
 3427W        W 7171   3.475   3.496  11.949  0.3039 -0.1847 -0.2026
 3428W        W 7172   1.968   3.558   2.568 -0.1220 -0.3372 -0.0552
 3429W        W 7173   3.074   8.626  11.824  0.4224  0.0041 -0.4196
 3430W        W 7174   8.883   1.785   4.374 -0.3140 -0.0976 -0.0694
 3431W        W 7175   0.176   1.958   0.404 -0.1621  0.2584 -0.1694
 3432W        W 7176   3.269   7.435  10.004 -0.0329 -0.0711  0.1476
 3433W        W 7177   0.474   2.011   4.120  0.1068  0.0421 -0.3237
 3434W        W 7178   8.891   6.735   2.256  0.0287  0.1246  0.0106
 3435W        W 7179   7.045   4.911   0.947  0.1642 -0.0518 -0.1230
 3436W        W 7180   2.393   7.329   1.643  0.1706 -0.1512  0.0317
 3437W        W 7181   2.100   7.915  12.570  0.0561 -0.1625  0.3718
 3438W        W 7182   1.563   0.475   1.208  0.1988  0.1802  0.0679
 3439W        W 7183   6.279   6.469   8.346  0.0258 -0.3081 -0.1948
 3440W        W 7184   8.197   0.808   1.038 -0.3392 -0.3598 -0.1637
 3441W        W 7185   9.876   1.961  10.292  0.0656  0.4004 -0.0920
 3442W        W 7186   9.848   3.650  12.183  0.0176 -0.1030 -0.0026
 3443W        W 7187   7.812   9.546  10.786  0.1206 -0.2568  0.0273
 3444W        W 7188   8.707   8.285   8.685 -0.1450  0.1166 -0.0048
 3445W        W 7189   4.260   5.300   4.046 -0.0736  0.4421  0.3803
 3446W        W 7190   7.220   2.724  11.742 -0.2278 -0.3985  0.0377
 3447W        W 7191   9.361   3.674  12.147 -0.0398 -0.0893 -0.1656
 3448W        W 7192   8.425   4.171   9.556 -0.4183 -0.1785  0.0738
 3449W        W 7193   4.681   2.461  12.898 -0.3837  0.1485  0.1647
 3450W        W 7194   1.004   3.533   2.789  0.0031  0.0426 -0.0168
 3451W        W 7195   4.628   6.953  11.913  0.1040  0.0384  0.0460
 3452W        W 7196   7.080   3.794   1.036 -0.0330  0.3221  0.1457
 3453W        W 7197   7.898   8.855   8.979 -0.2121 -0.0673  0.1602
 3454W        W 7198   1.206   4.652  10.387 -0.0960  0.0412 -0.0829
 3455W        W 7199   4.964   8.055   8.422  0.0400 -0.0785  0.1988
 3456W        W 7200   1.368   9.392  10.211  0.1927  0.0504  0.2858
 3457W        W 7201   1.442   5.686   1.149 -0.3869 -0.1732  0.1843
 3458W        W 7202   6.275   8.107   3.913 -0.1530  0.2661 -0.3367
 3459W        W 7203   3.899   9.479  11.133 -0.2218 -0.0418  0.2819
 3460W        W 7204   1.032   7.838  12.384 -0.0102 -0.0131 -0.0571
 3461W        W 7205   1.215   9.266   0.895 -0.0539  0.0378  0.1322
 3462W        W 7206   4.744   1.173  11.628  0.1553 -0.1717 -0.0370
 3463W        W 7207   7.913   7.322  11.264  0.0550 -0.1301  0.1978
 3464W        W 7208   7.301   7.790  10.626 -0.0655 -0.0529  0.0805
 3465W        W 7209   9.009   1.778   8.398 -0.0933 -0.1184 -0.1138
 3466W        W 7210   9.447   8.243   8.669  0.4197 -0.0860 -0.3274
 3467W        W 7211   3.194   2.628  10.007 -0.1169  0.0003  0.0941
 3468W        W 7212   1.587   3.428   9.449  0.1319  0.4244 -0.3290
 3469W        W 7213   7.783   6.499  11.956 -0.2025 -0.1216 -0.1352
 3470W        W 7214   4.039   9.274   2.904 -0.1627 -0.5003 -0.1932
 3471W        W 7215   0.083   3.540  12.624  0.1395  0.1840 -0.0082
 3472W        W 7216   4.444   6.389  11.378 -0.0700  0.0028  0.3733
 3473W        W 7217   2.279   6.912   9.085  0.3216 -0.1826 -0.2816
 3474W        W 7218   5.184   9.366  12.135 -0.1501 -0.2333  0.1465
 3475W        W 7219   8.597   0.178  12.341 -0.3111  0.3258 -0.0993
 3476W        W 7220   8.828   2.515  11.907  0.0421  0.0765  0.2668
 3477W        W 7221   6.259   7.068   0.732  0.1526  0.3875  0.1158
 3478W        W 7222   1.591   2.428  12.223 -0.0452  0.0211  0.2208
 3479W        W 7223   0.352   1.229  11.721  0.0907  0.2970  0.1682
 3480W        W 7224   7.385   5.624   9.525 -0.0962  0.1425  0.1280
 3481W        W 7225   6.101   9.436   0.105 -0.2627  0.1596 -0.1292
 3482W        W 7226   7.943   9.287   9.229 -0.0083 -0.3250  0.1143
 3483W        W 7227   2.478   6.243  11.188 -0.0807 -0.2128  0.1899
 3484W        W 7228   6.058   4.884   3.552  0.1497  0.2194  0.0343
 3485W        W 7229   6.638   1.487   1.516 -0.1011 -0.2725 -0.0290
 3486W        W 7230   3.159   2.451  10.905  0.1160 -0.3474  0.0097
 3487W        W 7231   0.262   8.573   0.517 -0.1244  0.1227 -0.0481
 3488W        W 7232   7.784   5.334   9.551 -0.3987  0.0526  0.0801
 3489W        W 7233   3.541   6.702   1.765 -0.1653 -0.1554 -0.1085
 3490W        W 7234   5.390   5.922   1.559 -0.0048 -0.0792 -0.3237
 3491W        W 7235   5.710   5.980   3.571  0.0166  0.0941 -0.0991
 3492W        W 7236   8.668   6.258  10.928  0.2855  0.2629 -0.0254
 3493W        W 7237   9.469   9.792  12.077 -0.2895 -0.0751  0.0151
 3494W        W 7238   4.408   9.098   0.520  0.0211 -0.4041  0.2619
 3495W        W 7239   9.529   8.161   9.219 -0.2113  0.1368  0.4795
 3496W        W 7240   9.568   3.891   2.272  0.1738 -0.0208 -0.1415
 3497W        W 7241   2.011   3.425   3.127 -0.3919 -0.0417  0.1037
 3498W        W 7242   5.464   5.907  11.026 -0.1294  0.0006  0.2211
 3499W        W 7243   5.672   7.011   1.542 -0.0262 -0.1344  0.0153
 3500W        W 7244   7.264   6.357   9.174  0.2325  0.0522 -0.0017
 3501W        W 7245   5.637   6.659  12.115 -0.1927  0.2532 -0.1544
 3502W        W 7246   9.230   8.587  11.865 -0.0335 -0.0390 -0.0571
 3503W        W 7247   5.343   6.232  11.792  0.2107 -0.3091 -0.0210
 3504W        W 7248   8.708   1.315  12.861 -0.1646 -0.0545 -0.2794
 3505W        W 7249   0.023   5.704   9.435  0.0062  0.1187  0.2095
 3506W        W 7250   5.831   9.429   5.093  0.0640 -0.1241  0.0949
 3507W        W 7251   8.339   8.502  11.221 -0.1468 -0.0962  0.0660
 3508W        W 7252   6.194   0.351   0.433 -0.0901  0.0961  0.1917
 3509W        W 7253   4.564   4.452   2.356  0.1557  0.0984  0.0389
 3510W        W 7254   0.369   6.334   7.577  0.0963  0.1121  0.0116
 3511W        W 7255   2.455   2.443  12.178 -0.0878 -0.1384 -0.0144
 3512W        W 7256   2.042   6.036   2.419 -0.0622 -0.2239 -0.1643
 3513W        W 7257   8.009   0.193  10.171 -0.1435 -0.3057  0.2151
 3514W        W 7258   8.686   3.479  12.792  0.2870  0.1406 -0.4313
 3515W        W 7259   9.514   8.549  12.780  0.2304  0.2151 -0.0189
 3516W        W 7260   6.403   7.013  10.751  0.1904 -0.0329 -0.2679
 3517W        W 7261   7.876   6.231   1.943 -0.1493  0.2410 -0.0541
 3518W        W 7262   8.082   8.318   1.092 -0.1761 -0.0843 -0.4233
 3519W        W 7263   6.911   3.252   2.096 -0.0125  0.4288  0.2904
 3520W        W 7264   3.334   9.116  12.140  0.0625  0.0198  0.1929
 3521W        W 7265   5.126   1.815   2.678  0.2107 -0.0509 -0.0354
 3522W        W 7266   4.485   3.176   4.271  0.2496  0.3816  0.0612
 3523W        W 7267   4.656   1.957  12.753  0.0936 -0.0704 -0.2378
 3524W        W 7268   1.874   2.473   8.631 -0.2358  0.2540 -0.0345
 3525W        W 7269   9.034   2.346  10.522  0.2365  0.3437 -0.1415
 3526W        W 7270   7.390   2.502  12.153  0.2129  0.1454 -0.3295
 3527W        W 7271   0.186   4.903  11.741 -0.0405 -0.0917  0.1953
 3528W        W 7272   8.513   1.994  12.701 -0.0457  0.2371 -0.0185
 3529W        W 7273   5.429   0.400   2.332  0.4988 -0.0303  0.1193
 3530W        W 7274   4.310   2.138  10.510 -0.1816  0.1255 -0.1790
 3531W        W 7275   1.662   3.527  11.435  0.0299 -0.0313 -0.2333
 3532W        W 7276   6.616   6.810   9.370  0.2333  0.0864 -0.0096
 3533W        W 7277   0.894   0.544   0.394 -0.1109  0.1948  0.1769
 3534W        W 7278   7.835   8.710   4.451 -0.0542  0.2493 -0.1751
 3535W        W 7279   6.099   3.280   9.797  0.1820  0.1390  0.0525
 3536W        W 7280   4.463   8.582   3.647 -0.0741  0.0408 -0.2619
 3537W        W 7281   4.455   2.366   1.807 -0.3220  0.0083 -0.1651
 3538W        W 7282   8.876   0.666   3.715 -0.1777  0.5496  0.2691
 3539W        W 7283   1.000   2.602   2.022 -0.1937 -0.3076 -0.0626
 3540W        W 7284   2.813   0.385   1.489 -0.4153  0.1414  0.2511
 3541W        W 7285   1.181   9.266   3.544  0.4399 -0.3768 -0.2812
 3542W        W 7286   2.139   4.376   3.206 -0.1157 -0.3066 -0.0699
 3543W        W 7287   1.029   3.059  12.677 -0.0674  0.0587 -0.2120
 3544W        W 7288   0.474   6.085   1.990  0.1167  0.1100 -0.2266
 3545W        W 7289   6.572   7.646   5.190 -0.0819  0.2915  0.1686
 3546W        W 7290   9.616   4.825  11.540  0.2014  0.0341 -0.2213
 3547W        W 7291   8.997   4.901   8.924 -0.3763  0.2471 -0.0445
 3548W        W 7292   1.351   8.802   0.708 -0.0512 -0.1081  0.3366
 3549W        W 7293   6.295   8.815   9.642 -0.0938 -0.2751  0.0328
 3550W        W 7294   6.856   3.372   2.660  0.1992 -0.1508  0.3155
 3551W        W 7295   0.065   7.445   2.309  0.0141  0.2913  0.0213
 3552W        W 7296   8.934   1.007  10.451 -0.1439  0.1095  0.1591
 3553W        W 7297   4.703   3.065  11.770  0.1457 -0.0551 -0.4058
 3554W        W 7298   6.219   8.805   2.933 -0.1015  0.1238  0.0628
 3555W        W 7299   8.127   5.666   1.283 -0.0862  0.0192  0.1610
 3556W        W 7300   0.493   1.911  10.346  0.1990  0.2351  0.0794
 3557W        W 7301   0.152   2.644   2.598  0.2952  0.1425  0.0477
 3558W        W 7302   2.018   3.370   4.564  0.1549 -0.0540 -0.0025
 3559W        W 7303   3.992   4.461   2.390  0.3460  0.2004 -0.0293
 3560W        W 7304   2.527   7.160   3.149 -0.0389  0.1189  0.1793
 3561W        W 7305   8.973   4.642   1.706  0.0292 -0.1318 -0.0406
 3562W        W 7306   3.978   0.794   1.352  0.0501 -0.2165 -0.0127
 3563W        W 7307   6.011   5.188   4.047 -0.0094 -0.5214  0.0150
 3564W        W 7308   9.495   1.021   0.316  0.0542 -0.3517 -0.2102
 3565W        W 7309   0.315   2.938  10.174 -0.1032 -0.3484  0.1235
 3566W        W 7310   3.378   1.963   0.012  0.0648  0.5700  0.0546
 3567W        W 7311   6.166   3.243   3.742  0.0821  0.2386  0.2820
 3568W        W 7312   2.979   7.822   3.273 -0.0407 -0.1201 -0.0746
 3569W        W 7313   6.248   1.952   0.156 -0.0245 -0.0660 -0.0663
 3570W        W 7314   6.441   4.260   1.085 -0.0708  0.0894 -0.1343
 3571W        W 7315   3.359   8.005  11.322 -0.1311 -0.0188  0.1147
 3572W        W 7316   5.931   1.282   8.777  0.1627 -0.0369  0.5823
 3573W        W 7317   9.637   4.724   9.504  0.2545  0.0837  0.0884
 3574W        W 7318   3.257   2.965   2.389  0.0400 -0.2829 -0.1721
 3575W        W 7319   0.222   9.760  11.272 -0.1940 -0.0114 -0.2571
 3576W        W 7320   0.009   1.617   3.673  0.2659 -0.1149  0.1532
 3577W        W 7321   8.226   5.112  11.004 -0.4236 -0.4108 -0.2279
 3578W        W 7322   3.361   8.826   3.478  0.2490  0.3639 -0.0269
 3579W        W 7323   7.682   8.241   4.547 -0.0340  0.0796  0.1178
 3580W        W 7324   0.207   1.488   9.937 -0.0717  0.0621 -0.0574
 3581W        W 7325   6.179   4.035   3.082 -0.2656  0.2346 -0.3474
 3582W        W 7326   3.736   4.668   1.371  0.1482  0.2246 -0.1745
 3583W        W 7327   3.636   8.665   9.282  0.0586  0.0538 -0.0797
 3584W        W 7328   9.898   1.669  11.145  0.0987  0.0262 -0.0475
 3585W        W 7329   2.603   2.591  10.018  0.1002  0.1087  0.1394
 3586W        W 7330   8.144   4.284   1.935  0.1067  0.1393 -0.2777
 3587W        W 7331   6.888   7.383  11.428  0.0772  0.2771  0.0316
 3588W        W 7332   1.037   5.846   1.931  0.0545 -0.3044  0.2100
 3589W        W 7333   9.375   6.393   0.450 -0.0237  0.4193  0.0401
 3590W        W 7334   9.632   5.216   9.521  0.0317  0.2006 -0.0158
 3591W        W 7335   6.792   6.160   0.155 -0.2555  0.1124 -0.0753
 3592W        W 7336   7.344   6.859   9.199  0.1474  0.0793  0.2008
 3593W        W 7337   5.017   5.225   8.950  0.2769  0.0018  0.1767
 3594W        W 7338   4.669   8.037   2.066  0.3423  0.2525 -0.2816
 3595W        W 7339   3.023   2.767   1.964 -0.0472 -0.2734  0.1426
 3596W        W 7340   1.604   0.883   2.902  0.0094 -0.3000 -0.1468
 3597W        W 7341   5.289   6.556   9.088 -0.3083  0.0702 -0.3645
 3598W        W 7342   5.394   1.071  11.270  0.0610  0.2709  0.1431
 3599W        W 7343   5.545   6.051   4.044  0.2253  0.0160  0.3498
 3600W        W 7344   4.007   8.950   0.326  0.1380  0.1385 -0.1834
 3601W        W 7345   7.708   8.442   3.574  0.1739 -0.0385 -0.2545
 3602W        W 7346   7.534   4.702   8.379 -0.3290  0.1319 -0.1442
 3603W        W 7347   8.259   3.508   8.804 -0.2429  0.2546 -0.3613
 3604W        W 7348   4.300   4.398   9.101 -0.1096  0.1430 -0.0634
 3605W        W 7349   9.167   6.254  12.180  0.1076  0.0247 -0.1559
 3606W        W 7350   0.020   9.883   3.093 -0.0541 -0.4532  0.1546
 3607W        W 7351   4.835   9.877   9.480  0.0787 -0.2036 -0.1462
 3608W        W 7352   2.507   5.791   3.115  0.3145 -0.0418 -0.1051
 3609W        W 7353   6.162   3.619   4.413 -0.2886 -0.1656  0.4881
 3610W        W 7354   4.447   3.959   9.803  0.0198 -0.3048  0.0779
 3611W        W 7355   7.827   3.345   9.601  0.0850  0.3585 -0.1520
 3612W        W 7356   6.730   8.838  12.521  0.3082 -0.1610 -0.1187
 3613W        W 7357   8.678   2.519  12.832  0.2157 -0.0984 -0.0887
 3614W        W 7358   7.100   5.597   4.210 -0.2504  0.1041 -0.0214
 3615W        W 7359   1.456   2.754   8.771 -0.2156  0.0592 -0.2476
 3616W        W 7360   4.916   3.524   0.250 -0.4087  0.1321 -0.1068
 3617W        W 7361   8.191   9.058   9.999  0.5110  0.1156  0.0837
 3618W        W 7362   3.582   8.472   8.761 -0.0824 -0.2809  0.0108
 3619W        W 7363   6.247   2.497   1.620  0.2509  0.1509 -0.1946
 3620W        W 7364   0.462   8.092   9.814 -0.1006  0.0932  0.2849
 3621W        W 7365   5.952   9.552   2.643 -0.2951  0.2772 -0.4270
 3622W        W 7366   5.566   2.032   2.707  0.0705  0.0297 -0.1134
 3623W        W 7367   8.608   4.070   2.070 -0.1883 -0.1335  0.3642
 3624W        W 7368   7.611   5.941   2.936 -0.1695  0.0675  0.2621
 3625W        W 7369   3.343   0.778  10.994  0.0665  0.0765  0.2446
 3626W        W 7370   0.712   1.523   1.470  0.1985 -0.1409 -0.4080
 3627W        W 7371   3.593   2.290   9.825 -0.3068  0.1497  0.1616
 3628W        W 7372   2.965   4.859   4.763 -0.5561  0.2004 -0.2137
 3629W        W 7373   6.215   0.953  10.170  0.0710 -0.4933 -0.2472
 3630W        W 7374   3.705   1.303   4.058 -0.0412 -0.0089 -0.1614
 3631W        W 7375   6.800   0.976  12.300 -0.2521  0.1393  0.0692
 3632W        W 7376   1.179   6.530   2.331 -0.0292 -0.0566 -0.0289
 3633W        W 7377   6.788   8.298   3.886  0.0971  0.0823  0.4511
 3634W        W 7378   2.522   1.262   4.070 -0.0875 -0.0781  0.1165
 3635W        W 7379   3.239   6.532   3.382  0.1008 -0.0852 -0.2619
 3636W        W 7380   3.961   8.727  12.810  0.1206  0.0283  0.4500
 3637W        W 7381   0.535   9.442   0.473  0.1929 -0.3079 -0.1570
 3638W        W 7382   3.391   2.735  11.668  0.1533 -0.1743 -0.0389
 3639W        W 7383   4.082   6.046   1.321  0.3383 -0.1447 -0.1333
 3640W        W 7384   1.001   9.117   0.472  0.1659 -0.0539 -0.0441
 3641W        W 7385   6.952   6.136   1.719  0.1638  0.0706  0.0704
 3642W        W 7386   8.291   2.417   2.698 -0.0015 -0.0668  0.1041
 3643W        W 7387   6.270   2.280   8.748 -0.1155  0.1553  0.2025
 3644W        W 7388   0.539   0.948   4.258 -0.1484 -0.0509  0.1929
 3645W        W 7389   6.803   4.026   3.866 -0.0917  0.0217 -0.1697
 3646W        W 7390   6.890   7.294  10.908  0.1035  0.3254 -0.2953
 3647W        W 7391   9.555   9.162  10.322  0.0413 -0.1125  0.0392
 3648W        W 7392   0.056   2.912   3.830 -0.2052 -0.1118 -0.1410
 3649W        W 7393   6.608   9.300   0.286 -0.2561  0.0113 -0.1465
 3650W        W 7394   7.717   2.213   9.481  0.1117 -0.3653  0.2101
 3651W        W 7395   5.035   4.624   0.295 -0.0425  0.2665 -0.0338
 3652W        W 7396   5.756   1.901   7.847 -0.0837 -0.2808 -0.3086
 3653W        W 7397   8.739   5.584  10.205 -0.3364  0.2118  0.0910
 3654W        W 7398   1.716   3.588  10.857  0.2525 -0.4283  0.1484
 3655W        W 7399   2.770   7.468  12.704  0.0878  0.0939  0.0090
 3656W        W 7400   5.638   0.041  11.258 -0.1104  0.2038  0.0364
 3657W        W 7401   2.067   6.743   3.486 -0.0519  0.0760  0.0237
 3658W        W 7402   6.943   5.026   9.061  0.0560  0.2000 -0.0220
 3659W        W 7403   2.603   5.355  12.805  0.1516 -0.1754  0.1554
 3660W        W 7404   3.340   7.612  12.198  0.1257  0.1999 -0.1261
 3661W        W 7405   1.377   0.565  11.606  0.2689 -0.0370  0.1458
 3662W        W 7406   8.059   6.848   9.192 -0.1259  0.1621  0.1017
 3663W        W 7407   6.018   2.699  12.043  0.1358  0.0467  0.2110
 3664W        W 7408   0.483   4.880   1.770  0.1536 -0.0537  0.0516
 3665W        W 7409   6.427   5.949   1.003 -0.0554 -0.1922 -0.1340
 3666W        W 7410   9.045   9.404   2.563  0.0196  0.1856 -0.1495
 3667W        W 7411   1.231   0.339   2.224  0.0439  0.0130  0.2266
 3668W        W 7412   2.795   8.963   0.078  0.4509 -0.4677  0.2431
 3669W        W 7413   3.976   6.342   2.779  0.1618  0.0233  0.2482
 3670W        W 7414   4.579   4.346   0.135 -0.0444 -0.0326 -0.0056
 3671W        W 7415   8.569   9.754  10.312  0.0512  0.0699 -0.0886
 3672W        W 7416   2.156   6.275   0.673  0.0247 -0.1411  0.0408
 3673W        W 7417   5.248   8.985  11.122 -0.2712  0.2398 -0.0447
 3674W        W 7418   8.083   1.186   2.132  0.0728  0.0050  0.0278
 3675W        W 7419   5.092   0.275   1.680 -0.2830  0.0210  0.1041
 3676W        W 7420   6.929   8.316   1.462 -0.0852  0.1223 -0.2094
 3677W        W 7421   6.223   7.707   2.747  0.0887 -0.2531 -0.5099
 3678W        W 7422   2.839   4.110  10.791 -0.1744 -0.2427 -0.1835
 3679W        W 7423   1.481   5.381   1.731 -0.0654  0.0293  0.0032
 3680W        W 7424   5.433   8.019   1.206  0.0695 -0.3535  0.0737
 3681W        W 7425   7.621   0.983  12.404 -0.0224  0.1541  0.3314
 3682W        W 7426   3.655   4.241   3.290  0.0595 -0.1461  0.1279
 3683W        W 7427   6.093   5.860  12.009 -0.1115  0.1594  0.2689
 3684W        W 7428   0.395   9.380   8.955 -0.0573 -0.0822  0.1423
 3685W        W 7429   5.724   7.952   4.565 -0.0723  0.2199  0.1016
 3686W        W 7430   1.202   9.460   9.316 -0.1988  0.2637  0.3504
 3687W        W 7431   8.722   1.930  11.924 -0.1297 -0.3305 -0.1740
 3688W        W 7432   4.561   4.123   3.094 -0.3035 -0.1842  0.2224
 3689W        W 7433   4.677   0.946   9.315  0.1155  0.1983 -0.2117
 3690W        W 7434   5.845   1.508   2.869  0.0373  0.0573 -0.0675
 3691W        W 7435   4.042   8.607  12.267 -0.3853 -0.1229 -0.0438
 3692W        W 7436   4.593   5.077   9.864 -0.0092  0.1992  0.1853
 3693W        W 7437   4.345   0.095  12.862 -0.1392 -0.4125 -0.0018
 3694W        W 7438   4.576   8.908   9.107  0.1566 -0.0692  0.2663
 3695W        W 7439   8.972   4.150   0.827  0.2499 -0.1349  0.1906
 3696W        W 7440   9.690   7.049   9.877  0.0649  0.1925 -0.0558
 3697W        W 7441   8.044   6.169   9.231  0.0464 -0.0283  0.1965
 3698W        W 7442   4.876   5.073   0.173 -0.0002  0.1704  0.2928
 3699W        W 7443   2.919   3.905   9.116  0.1900  0.2961 -0.0245
 3700W        W 7444   1.922   5.603  11.570  0.1922 -0.0810  0.1670
 3701W        W 7445   7.277   1.240   8.623 -0.2558 -0.0366 -0.1014
 3702W        W 7446   7.337   3.097  12.674  0.1044 -0.1244  0.3283
 3703W        W 7447   0.661   1.290   9.544  0.0480 -0.3004  0.0759
 3704W        W 7448   6.588   3.311   3.194 -0.0807  0.1569  0.1810
 3705W        W 7449   8.792   8.752   8.212  0.1030 -0.0472 -0.1049
 3706W        W 7450   8.980   7.540   0.287  0.0247 -0.0334  0.0501
 3707W        W 7451   1.423   3.994   1.820 -0.4018 -0.1190  0.1670
 3708W        W 7452   5.713   9.763   3.969  0.4796  0.5474 -0.1621
 3709W        W 7453   8.249   4.569   1.309 -0.0794 -0.3123 -0.0762
 3710W        W 7454   7.824   8.460  10.393  0.1423 -0.1669  0.0280
 3711W        W 7455   5.687   8.140   9.554 -0.3027  0.0358 -0.0841
 3712W        W 7456   4.413   8.878   0.066  0.0291  0.1166  0.0302
 3713W        W 7457   8.920   9.776   0.489 -0.0925  0.0042 -0.1687
 3714W        W 7458   9.036   4.725  10.003 -0.0585 -0.0181  0.0011
 3715W        W 7459   9.617   0.103  10.544 -0.1851 -0.0298  0.2796
 3716W        W 7460   3.041   1.497   5.224 -0.0004  0.1434  0.0182
 3717W        W 7461   9.353   4.180   3.208 -0.0097  0.2418  0.2442
 3718W        W 7462   3.336   3.606  12.937  0.0491 -0.1498 -0.0926
 3719W        W 7463   0.716   1.301   0.022 -0.1500  0.0296 -0.2454
 3720W        W 7464   8.150   9.829   5.123 -0.2321 -0.2206 -0.1418
 3721W        W 7465   9.037   5.895   2.450  0.0388  0.0009 -0.0352
 3722W        W 7466   4.942   6.550  10.175  0.3535  0.1938 -0.0684
 3723W        W 7467   4.236   8.652  10.392 -0.1160  0.1995 -0.1690
 3724W        W 7468   5.899   4.703   4.703  0.0010 -0.0840 -0.1337
 3725W        W 7469   7.213   0.062  12.204  0.1033  0.0054 -0.4153
 3726W        W 7470   1.680   4.759   0.755 -0.0883 -0.0981 -0.0088
 3727W        W 7471   8.110   1.079   3.147  0.0680  0.4191 -0.1133
 3728W        W 7472   8.928   8.344   1.430 -0.0346 -0.1904 -0.1390
 3729W        W 7473   0.459   1.714   9.411 -0.0874  0.3223 -0.3209
 3730W        W 7474   7.402   0.676  12.089 -0.2471  0.2028  0.0442
 3731W        W 7475   7.193   8.397   1.947 -0.3259 -0.3995  0.1529
 3732W        W 7476   8.390   2.740   3.095 -0.1311 -0.0304  0.2855
 3733W        W 7477   4.375   0.714  12.173 -0.1866 -0.3131 -0.5329
 3734W        W 7478   5.645   4.000   1.749 -0.0681 -0.3752  0.3372
 3735W        W 7479   4.056   4.193  10.054 -0.1161 -0.0285 -0.1009
 3736W        W 7480   8.373   7.306  11.160 -0.1474 -0.1009  0.0341
 3737W        W 7481   9.462   0.179   4.633 -0.1204 -0.2884 -0.1620
 3738W        W 7482   3.867   1.220  12.807 -0.1060 -0.0435  0.0089
 3739W        W 7483   4.932   4.174   3.496  0.0339  0.1470  0.0728
 3740W        W 7484   5.921   0.062  11.645 -0.0488  0.1541 -0.2625
 3741W        W 7485   2.712   5.217  11.668  0.0127  0.0824  0.0574
 3742W        W 7486   1.846   0.158   2.320  0.0908 -0.3605 -0.2485
 3743W        W 7487   7.112   0.437   3.064  0.1578 -0.3426 -0.0435
 3744W        W 7488   8.382   2.835   2.027  0.0086  0.0244 -0.0796
 3745W        W 7489   5.524   4.833   2.744  0.1692 -0.1786 -0.0838
 3746W        W 7490   5.781   7.125   0.840 -0.1022  0.1970  0.0704
 3747W        W 7491   2.688   4.025   9.696  0.0628 -0.0001  0.1225
 3748W        W 7492   6.242   5.289   0.483  0.1142 -0.0867  0.1817
 3749W        W 7493   0.077   5.097   9.115 -0.0623  0.0251 -0.0336
 3750W        W 7494   5.777   3.031   2.237 -0.1779  0.1054  0.2755
 3751W        W 7495   5.691   9.329   4.389  0.1079  0.0249 -0.0525
 3752W        W 7496   3.877   9.012   1.163  0.0638 -0.0965 -0.1005
 3753W        W 7497   7.888   4.033  12.423 -0.1784  0.0417  0.3119
 3754W        W 7498   9.412   0.719  12.434  0.1197  0.1320 -0.0201
 3755W        W 7499   6.888   8.053   2.105 -0.0583 -0.1442  0.0081
 3756W        W 7500   6.352   4.156  12.583 -0.0851  0.0190  0.3607
 3757W        W 7501   8.719   2.742   8.800  0.3508  0.1029  0.1137
 3758W        W 7502   7.325   0.400   9.027  0.1980  0.0675  0.3154
 3759W        W 7503   3.821   7.014   0.386 -0.0394  0.2723 -0.0987
 3760W        W 7504   8.898   2.225  12.358 -0.2322  0.2306 -0.0906
 3761W        W 7505   0.398   1.511   1.869  0.2093 -0.1437 -0.1173
 3762W        W 7506   2.818   9.033  12.196  0.1887  0.1408  0.0807
 3763W        W 7507   3.125   6.477   1.910 -0.3174 -0.0644 -0.1855
 3764W        W 7508   8.709   8.811   8.680  0.0955 -0.4750 -0.0663
 3765W        W 7509   8.788   7.069  11.275 -0.3665 -0.0855  0.1833
 3766W        W 7510   4.811   1.515   9.371 -0.1234  0.2516  0.1315
 3767W        W 7511   7.658   4.218   2.971  0.0093 -0.1026  0.0735
 3768W        W 7512   5.451   5.235  11.768  0.1466 -0.0821  0.1262
 3769W        W 7513   1.071   8.944  10.256 -0.2700 -0.0721 -0.2019
 3770W        W 7514   9.867   5.607   1.916 -0.2633 -0.0422  0.1174
 3771W        W 7515   7.264   1.677  12.055 -0.0696  0.1325 -0.2840
 3772W        W 7516   0.457   4.734  10.933 -0.4821 -0.1454 -0.3004
 3773W        W 7517   7.806   0.811   0.760 -0.2602 -0.1837 -0.1270
 3774W        W 7518   9.141   0.912   5.321  0.1355  0.1085  0.2790
 3775W        W 7519   1.110   6.576   1.340 -0.2621  0.1816  0.3586
 3776W        W 7520   0.451   3.848   8.631  0.2009 -0.1256  0.2252
 3777W        W 7521   5.529   0.776   3.562  0.2134 -0.1852 -0.3009
 3778W        W 7522   7.203   1.705   8.880  0.0420  0.3080 -0.0866
 3779W        W 7523   5.781   9.839   3.479 -0.1660 -0.3039 -0.1054
 3780W        W 7524   9.457   6.121   2.898  0.0473 -0.1482  0.3825
 3781W        W 7525   3.072   4.391   0.504 -0.2219 -0.2862 -0.3823
 3782W        W 7526   7.688   9.793   9.830 -0.3302 -0.0145 -0.0602
 3783W        W 7527   6.573   5.858  12.269 -0.1025 -0.2196 -0.1353
 3784W        W 7528   0.913   1.700  12.746 -0.2105  0.1623  0.1431
 3785W        W 7529   7.987   0.657   2.894  0.2929 -0.3849 -0.2200
 3786W        W 7530   8.242   8.270   9.567  0.0975 -0.1649 -0.1072
 3787W        W 7531   2.525   8.293   8.785 -0.1460  0.3714  0.2145
 3788W        W 7532   0.778   0.565   2.522 -0.2559  0.2176 -0.1715
 3789W        W 7533   4.068   3.307   0.276 -0.1840 -0.0540  0.2037
 3790W        W 7534   4.951   5.167  12.596  0.1934  0.0331 -0.0486
 3791W        W 7535   3.344   1.469   3.784 -0.2015 -0.2417 -0.2268
 3792W        W 7536   9.743   0.633   2.541 -0.2269 -0.0745  0.1065
 3793W        W 7537   9.471   8.202   4.021 -0.0755  0.0758  0.3315
 3794W        W 7538   9.697   3.970   9.922 -0.1236 -0.1487 -0.0207
 3795W        W 7539   8.658   2.458   3.673  0.0547 -0.1722  0.5432
 3796W        W 7540   8.890   3.761  10.287 -0.2307 -0.0399 -0.1901
 3797W        W 7541   8.693   1.675  11.036  0.2032 -0.0870  0.2682
 3798W        W 7542   8.502   7.221  11.655  0.3543  0.0354  0.0765
 3799W        W 7543   6.319   3.750   9.920 -0.0360 -0.1461  0.2421
 3800W        W 7544   0.040   1.696  11.661 -0.1288 -0.3059  0.1439
 3801W        W 7545   3.932   3.335  11.806  0.0336 -0.1464  0.2564
 3802W        W 7546   4.253   0.994   9.736  0.2528  0.1230 -0.0171
 3803W        W 7547   5.309   0.121  10.873 -0.0329  0.0726  0.0806
 3804W        W 7548   1.734   9.222   9.151 -0.1130  0.1371 -0.1134
 3805W        W 7549   3.196   1.302  11.761 -0.0814  0.2148 -0.1632
 3806W        W 7550   7.693   6.015   2.418 -0.0821 -0.2751 -0.0767
 3807W        W 7551   4.664   7.323  12.508 -0.2166 -0.1187 -0.1861
 3808W        W 7552   4.308   0.774   2.708  0.2326 -0.2802  0.2577
 3809W        W 7553   1.160   7.447   0.789  0.0716  0.0218  0.2196
 3810W        W 7554   7.144   6.926   1.082 -0.2558 -0.0430 -0.0449
 3811W        W 7555   2.318   2.669   2.493 -0.0722  0.3249  0.1536
 3812W        W 7556   1.076   3.323  12.093  0.1047 -0.5340 -0.1907
 3813W        W 7557   0.001   8.897   1.243  0.2092  0.2666 -0.2404
 3814W        W 7558   8.579   2.130   4.503  0.3298  0.0695  0.1577
 3815W        W 7559   0.877   0.384  11.495  0.0659  0.0101  0.1372
 3816W        W 7560   1.653   9.654   2.446 -0.0128  0.1037 -0.3189
 3817W        W 7561   0.998   5.546  11.419  0.1809  0.1388 -0.0395
 3818W        W 7562   6.869   3.306  10.426 -0.0094  0.0017 -0.2570
 3819W        W 7563   1.495   9.706   3.648 -0.1223  0.1761  0.1499
 3820W        W 7564   1.626   1.437   3.008 -0.1167  0.2090  0.1567
 3821W        W 7565   7.543   7.976   1.843  0.3158  0.1299  0.0560
 3822W        W 7566   1.283   0.088   8.236  0.0634 -0.3969  0.0849
 3823W        W 7567   6.375   9.128  12.762 -0.0451 -0.1520 -0.0562
 3824W        W 7568   8.287   0.241   4.473  0.2350 -0.0414 -0.0808
 3825W        W 7569   0.395   5.291  10.889 -0.1629  0.3621 -0.0607
 3826W        W 7570   4.685   8.479  10.059  0.1363 -0.0889  0.1318
 3827W        W 7571   6.260   1.060   2.190  0.0121 -0.0362  0.0044
 3828W        W 7572   1.800   5.361   9.267  0.0078 -0.1758 -0.0875
 3829W        W 7573   8.413   7.267   2.648 -0.1403  0.0760  0.0467
 3830W        W 7574   7.719   9.627   2.590 -0.1405  0.2503 -0.2584
 3831W        W 7575   0.573   7.649   0.280 -0.1275 -0.3199  0.3279
 3832W        W 7576   0.359   1.198   2.956 -0.2987 -0.0251 -0.2982
 3833W        W 7577   0.084   7.369  10.100  0.1408 -0.1082 -0.0062
 3834W        W 7578   2.183   7.996   2.886  0.0884 -0.0020  0.1456
 3835W        W 7579   0.728   9.563   9.525 -0.0687  0.0055  0.0690
 3836W        W 7580   4.286   1.217  11.792  0.0617 -0.0229  0.2711
 3837W        W 7581   2.284   5.883   1.953 -0.0094 -0.2020  0.5014
 3838W        W 7582   1.790   1.909   4.093 -0.0846  0.2802 -0.2374
 3839W        W 7583   1.413   5.881  11.333  0.0368  0.1058 -0.4738
 3840W        W 7584   1.583   9.663  11.824  0.1582 -0.3803  0.0612
 3841W        W 7585   8.444   3.797   1.727  0.1346  0.0821 -0.0955
 3842W        W 7586   8.873   9.175   9.092  0.2764  0.1071  0.2120
 3843W        W 7587   4.103   0.034  10.973 -0.0118  0.3957  0.2159
 3844W        W 7588   5.736   9.059   1.689 -0.0170  0.0019  0.0111
 3845W        W 7589   2.937   4.595   1.306 -0.0818 -0.0265  0.1014
 3846W        W 7590   6.039   4.744   1.480  0.3060 -0.0635  0.2086
 3847W        W 7591   0.423   5.423  12.085 -0.1069 -0.1723 -0.0004
 3848W        W 7592   3.890   6.703   0.785  0.0627  0.1704 -0.1829
 3849W        W 7593   1.169   8.218   2.560 -0.2225 -0.0036  0.2346
 3850W        W 7594   0.170   1.190   1.627  0.1661 -0.4582 -0.0808
 3851W        W 7595   5.736   2.538   2.036  0.0722 -0.1698  0.0609
 3852W        W 7596   4.044   7.169  11.269 -0.1878  0.1460  0.0199
 3853W        W 7597   4.962   5.440   2.775 -0.1433 -0.0700 -0.1240
 3854W        W 7598   4.115   1.828   0.980 -0.0733 -0.0567 -0.2413
 3855W        W 7599   5.824   3.942  12.028 -0.1367  0.1129 -0.0212
 3856W        W 7600   4.905   0.015  12.820  0.0717 -0.3531 -0.2652
 3857W        W 7601   4.001   5.423   1.507 -0.0453  0.2211 -0.2253
 3858W        W 7602   2.357   9.025   0.396  0.0707  0.0443 -0.1631
 3859W        W 7603   2.795   6.611   9.695  0.0320  0.1288 -0.1474
 3860W        W 7604   9.258   7.886   2.729 -0.2710 -0.0649  0.0358
 3861W        W 7605   3.309   4.473   2.144 -0.0366  0.0539  0.0072
 3862W        W 7606   5.710   5.095  11.231 -0.1321  0.1168 -0.1229
 3863W        W 7607   2.476   5.859   0.561  0.0637  0.0002  0.0345
 3864W        W 7608   2.711   1.490   2.112  0.2221 -0.2279  0.1316
 3865W        W 7609   9.601   3.361  12.871  0.1804  0.2313  0.1069
 3866W        W 7610   2.172   6.465  12.403 -0.1077 -0.0950 -0.0502
 3867W        W 7611   9.236   9.352   9.343 -0.1860  0.2111 -0.2743
 3868W        W 7612   8.754   1.315  11.350 -0.0116 -0.0841 -0.0433
 3869W        W 7613   8.446   0.477   3.427 -0.0506 -0.2796 -0.0948
 3870W        W 7614   0.498   8.366   9.111  0.1720 -0.0646  0.0799
 3871W        W 7615   2.957   6.482  11.238  0.0496 -0.1863 -0.2697
 3872W        W 7616   7.966   9.675   0.372  0.1448  0.0010  0.1202
 3873W        W 7617   6.794   7.088   2.557  0.2163 -0.0969 -0.2120
 3874W        W 7618   2.237   4.751  10.267  0.3714 -0.0778  0.1194
 3875W        W 7619   8.262   7.077   8.716 -0.0136  0.0920  0.2162
 3876W        W 7620   6.725   4.946  12.082 -0.0955  0.0606  0.1152
 3877W        W 7621   4.360   0.396   3.037  0.1628 -0.0155 -0.0204
 3878W        W 7622   2.649   7.790   3.830 -0.2115  0.2551 -0.0277
 3879W        W 7623   6.142   2.946   1.524  0.4971 -0.2233  0.0555
 3880W        W 7624   6.235   6.444  11.289 -0.2591  0.0828 -0.0379
 3881W        W 7625   5.077   7.832   2.158 -0.0927  0.0233 -0.2688
 3882W        W 7626   3.923   1.906  11.779  0.1452 -0.1197  0.0783
 3883W        W 7627   6.782   1.327   3.371  0.1444 -0.0632  0.1247
 3884W        W 7628   4.962   1.221   9.004 -0.0498  0.2685 -0.1204
 3885W        W 7629   5.152   0.424  11.807  0.0215  0.4236  0.1449
 3886W        W 7630   8.698   7.900   0.150  0.1132 -0.2821  0.2176
 3887W        W 7631   6.366   1.498   2.756 -0.0417  0.0682 -0.1488
 3888W        W 7632   7.096   9.027  12.092 -0.0034  0.2267 -0.1172
 3889W        W 7633   8.947   9.223   0.510  0.0614 -0.2097 -0.0506
 3890W        W 7634   0.013   2.956  12.693 -0.0690 -0.1536 -0.2046
 3891W        W 7635   8.537   6.484   0.743 -0.0455 -0.2055  0.3696
 3892W        W 7636   3.288   0.251  10.336  0.1273  0.0751  0.1082
 3893W        W 7637   9.616   9.875  11.468 -0.0850  0.1421  0.3083
 3894W        W 7638   8.508   9.523   9.078 -0.0154 -0.0824  0.1231
 3895W        W 7639   7.529   1.850   2.333  0.0021  0.0960  0.0447
 3896W        W 7640   1.706   3.997  11.548 -0.0430 -0.0241  0.2354
 3897W        W 7641   1.534   8.256  10.696 -0.0197 -0.0431 -0.0003
 3898W        W 7642   9.517   0.480   0.447 -0.2370  0.1356  0.0170
 3899W        W 7643   2.237   1.710   2.222  0.0549  0.0015  0.2741
 3900W        W 7644   3.923   1.666   2.662  0.0706  0.1056  0.0865
 3901W        W 7645   6.816   2.297   1.119  0.1473 -0.2827 -0.1669
 3902W        W 7646   6.762   2.955   9.198  0.0445  0.2313 -0.3764
 3903W        W 7647   8.440   1.873   0.399 -0.2330  0.1165 -0.2125
 3904W        W 7648   5.144   2.679   3.258 -0.2139  0.2999 -0.1538
 3905W        W 7649   2.882   5.363   0.712  0.0030 -0.2127  0.2547
 3906W        W 7650   7.731   0.868  11.201 -0.0116  0.2124 -0.0944
 3907W        W 7651   1.040   5.177   5.422  0.0198 -0.1522  0.1047
 3908W        W 7652   3.293   9.286   4.029  0.1686  0.1530 -0.2733
 3909W        W 7653   2.298   7.575   0.650 -0.1769 -0.1508 -0.2141
 3910W        W 7654   3.619   3.408   0.464  0.0544  0.2340 -0.0325
 3911W        W 7655   4.554   3.575   9.505  0.2979 -0.1735 -0.0469
 3912W        W 7656   1.184   1.636  11.381  0.0857 -0.0235 -0.1490
 3913W        W 7657   1.351   5.298   2.925 -0.1076 -0.1884  0.0397
 3914W        W 7658   1.650   5.186   2.214 -0.1330 -0.1722 -0.0289
 3915W        W 7659   4.595   4.759  10.508  0.1019 -0.1240  0.3735
 3916W        W 7660   9.592   2.022  12.582  0.0199  0.3922 -0.1696
 3917W        W 7661   7.231   9.625   1.536 -0.3921  0.0204 -0.0066
 3918W        W 7662   7.452   5.028   2.740 -0.1122  0.0723  0.0930
 3919W        W 7663   7.596   0.533   3.860 -0.0099 -0.4076  0.0130
 3920W        W 7664   8.810   1.292   9.444  0.2243  0.0978  0.2715
 3921W        W 7665   4.194   4.560   0.027 -0.0707  0.2762  0.2224
 3922W        W 7666   4.971   3.840   9.330 -0.1751 -0.4193  0.0567
 3923W        W 7667   9.892   1.179   2.122 -0.0468  0.2796 -0.1893
 3924W        W 7668   4.001   0.767   2.240 -0.1374 -0.0093  0.0129
 3925W        W 7669   6.134   8.600   4.321  0.0871  0.2546  0.0908
 3926W        W 7670   6.133   1.029  12.764 -0.3854  0.0324  0.3289
 3927W        W 7671   4.810   5.262  10.313 -0.1882  0.0476  0.1259
 3928W        W 7672   8.863   4.373   2.665  0.1820 -0.1452  0.0015
 3929W        W 7673   4.455   0.415  10.276 -0.2736 -0.1598 -0.2872
 3930W        W 7674   9.370   1.775   4.252 -0.3240 -0.2087  0.0172
 3931W        W 7675   0.869   3.325  10.457  0.1012  0.1025 -0.1176
 3932W        W 7676   2.192   3.622   8.218  0.1584 -0.1327 -0.1042
 3933W        W 7677   3.949   5.989  12.283 -0.1319  0.0516 -0.0091
 3934W        W 7678   7.040   8.349   0.133  0.2005  0.0691  0.3337
 3935W        W 7679   9.561   9.882   0.523  0.0588  0.3736 -0.2281
 3936W        W 7680   6.490   9.647   4.289 -0.2686 -0.0392  0.0029
 3937W        W 7681   8.905   2.538   4.704 -0.1249 -0.2390 -0.0684
 3938W        W 7682   6.548   0.698  11.168 -0.2482 -0.0247  0.3212
 3939W        W 7683   2.294   8.950   9.593 -0.0193 -0.1441  0.0979
 3940W        W 7684   3.196   1.281  12.278  0.1470 -0.0360  0.2136
 3941W        W 7685   2.857   9.397   3.036  0.2064  0.1123 -0.0251
 3942W        W 7686   9.476   6.731   0.093 -0.2720  0.0520 -0.0531
 3943W        W 7687   1.649   0.458   1.724 -0.1185  0.0447  0.1953
 3944W        W 7688   0.226   6.085  11.927  0.2789  0.2457 -0.1485
 3945W        W 7689   6.311   0.559   1.913 -0.2099  0.0749  0.2381
 3946W        W 7690   6.887   7.103   5.246 -0.1459 -0.0356 -0.2943
 3947W        W 7691   1.969   2.559  11.205  0.1696 -0.1434 -0.0108
 3948W        W 7692   3.016   0.606  12.788  0.0340  0.2655 -0.2249
 3949W        W 7693   0.432   4.536   0.459  0.0081 -0.1872 -0.0437
 3950W        W 7694   1.971   6.324  11.828 -0.2529  0.0330 -0.0933
 3951W        W 7695   5.152   8.755   9.152 -0.0619  0.2631 -0.3497
 3952W        W 7696   8.609   1.026   3.916 -0.2643  0.0658  0.0920
 3953W        W 7697   2.688   9.087   4.784 -0.0082  0.0199  0.0107
 3954W        W 7698   0.972   8.575   3.075  0.1308  0.3023  0.0888
 3955W        W 7699   8.041   7.277   1.366  0.2406  0.2782 -0.1682
 3956W        W 7700   2.070   9.904  12.003  0.1520 -0.0529  0.2216
 3957W        W 7701   6.208   5.860  11.401 -0.0506 -0.2733 -0.2835
 3958W        W 7702   0.041   3.227   9.329  0.1540  0.2958 -0.1816
 3959W        W 7703   8.370   1.050   9.997 -0.1135  0.1865  0.1241
 3960W        W 7704   5.465   8.241  12.103 -0.1446  0.1576 -0.0141
 3961W        W 7705   1.953   2.941   0.653 -0.2307 -0.2095 -0.2971
 3962W        W 7706   9.621   6.417   3.256  0.1853 -0.0422 -0.2760
 3963W        W 7707   7.528   2.502   9.045 -0.0959  0.1832 -0.0315
 3964W        W 7708   3.367   0.926   3.049 -0.0464  0.0783  0.2844
 3965W        W 7709   1.403   0.633  11.129  0.2616  0.0517 -0.2618
 3966W        W 7710   3.971   7.189   1.060  0.0265  0.1359  0.0807
 3967W        W 7711   8.778   2.164  11.452  0.2538 -0.0419  0.3436
 3968W        W 7712   0.159   1.452  10.681  0.0455 -0.1419  0.0375
 3969W        W 7713   1.682   5.661   2.077  0.1457  0.1520 -0.2836
 3970W        W 7714   2.126   6.803  10.723 -0.1455 -0.3665  0.0254
 3971W        W 7715   4.358   3.969   9.314  0.0810  0.1996  0.2936
 3972W        W 7716   5.730   4.071   2.821 -0.1462 -0.0680  0.0883
 3973W        W 7717   5.151   7.002   9.960  0.2616  0.0723  0.0517
 3974W        W 7718   7.816   7.880  10.658 -0.2042  0.2961 -0.0914
 3975W        W 7719   2.854   9.708  11.451  0.0678  0.1230 -0.0487
 3976W        W 7720   2.421   3.526   3.462 -0.0812  0.0019  0.2346
 3977W        W 7721   2.187   2.946   3.425 -0.0940  0.0335 -0.0445
 3978W        W 7722   5.547   1.300   9.722  0.0565  0.0004  0.0212
 3979W        W 7723   1.871   6.975   2.660 -0.1254  0.0978  0.0096
 3980W        W 7724   8.460   0.848   2.261  0.0410 -0.0392  0.0762
 3981W        W 7725   5.759   3.500  10.092 -0.0081  0.2501  0.0020
 3982W        W 7726   8.092   1.399  11.660  0.2988 -0.0974  0.0082
 3983W        W 7727   2.392   0.222   3.374 -0.0244  0.0454 -0.0533
 3984W        W 7728   9.622   8.164   2.592 -0.1057  0.0747  0.1308
 3985W        W 7729   3.078   3.236  11.625  0.0566 -0.1178  0.1272
 3986W        W 7730   7.776   4.545  12.338 -0.0182 -0.3557  0.0404
 3987W        W 7731   0.436   2.451   9.832  0.3235 -0.2469  0.2952
 3988W        W 7732   1.218   1.231  12.703  0.4090 -0.1820 -0.2426
 3989W        W 7733   3.493   4.761  12.741  0.1875 -0.0779  0.1694
 3990W        W 7734   0.046   0.225  10.003 -0.1614  0.1303  0.2614
 3991W        W 7735   5.309   2.573   9.994 -0.0541  0.1763  0.1866
 3992W        W 7736   8.592   3.199  12.346  0.1823  0.0849  0.0277
 3993W        W 7737   0.360   6.309   0.441 -0.0494  0.0182  0.0977
 3994W        W 7738   2.291   9.903  11.447  0.0291  0.0028 -0.3185
 3995W        W 7739   1.654   6.188   0.692  0.2841 -0.0212  0.0971
 3996W        W 7740   7.840   5.608   2.194 -0.1336 -0.1614 -0.0322
 3997W        W 7741   6.669   0.689   3.916 -0.0258 -0.1955  0.4182
 3998W        W 7742   1.068   7.045   1.183 -0.0021 -0.0091 -0.1102
 3999W        W 7743   1.974   3.380   3.683  0.0330  0.1071 -0.0608
 4000W        W 7744   1.147   6.444  12.874 -0.0912  0.3962 -0.1205
 4001W        W 7745   4.416   8.903  11.859 -0.0688 -0.0749  0.1491
 4002W        W 7746   0.970   0.375  10.394  0.2943  0.2983 -0.1486
 4003W        W 7747   8.703   1.073  12.202 -0.1596 -0.1909 -0.0190
 4004W        W 7748   1.840   3.725  12.036  0.0413 -0.2419  0.0732
 4005W        W 7749   2.638   0.922  10.969 -0.1920 -0.1688  0.1829
 4006W        W 7750   8.551   4.317  10.844  0.1615  0.3924 -0.3671
 4007W        W 7751   4.653   9.326  11.681 -0.1142 -0.0280 -0.0768
 4008W        W 7752   4.872   7.317   9.160  0.1224 -0.1239  0.1726
 4009W        W 7753   0.638   8.850  10.967 -0.0844  0.4039 -0.1042
 4010W        W 7754   3.130   5.384   3.786 -0.0999 -0.2531 -0.1911
 4011W        W 7755   5.347   5.205  10.347  0.0438  0.0975 -0.0349
 4012W        W 7756   7.553   1.400   2.627  0.3656 -0.4222  0.1555
 4013W        W 7757   1.445   3.928  12.728 -0.0498 -0.2013  0.3021
 4014W        W 7758   6.420   6.675  11.685 -0.1530  0.3059 -0.1469
 4015W        W 7759   3.330   3.094   5.025 -0.2012  0.2118  0.1013
 4016W        W 7760   2.729   8.583   1.757 -0.0398  0.2311 -0.1592
 4017W        W 7761   9.483   3.891  10.475 -0.3879  0.2594  0.0481
 4018W        W 7762   9.025   3.935   4.075  0.0412  0.0647  0.1144
 4019W        W 7763   0.645   8.666   9.504 -0.0954  0.2902  0.0445
 4020W        W 7764   7.329   5.816  10.031 -0.3714 -0.4692  0.3164
 4021W        W 7765   4.142   9.871   2.922 -0.2086 -0.1444 -0.2338
 4022W        W 7766   8.574   5.649  11.660  0.2299 -0.0669 -0.2577
 4023W        W 7767   6.805   9.379  11.489  0.0571 -0.1532 -0.1256
 4024W        W 7768   0.785   2.017   1.959 -0.1272 -0.1181 -0.1061
 4025W        W 7769   7.253   1.203  10.703 -0.1328 -0.0864 -0.1048
 4026W        W 7770   4.375   9.056  11.374 -0.0246  0.2063 -0.2382
 4027W        W 7771   5.806   2.509   8.988 -0.0926 -0.1379  0.1363
 4028W        W 7772   9.189   1.346   0.158 -0.0303 -0.3812  0.1677
 4029W        W 7773   7.912   5.771  12.573 -0.1270  0.5488  0.0773
 4030W        W 7774   3.081   7.272   2.430  0.0302 -0.3606 -0.1173
 4031W        W 7775   7.256   3.576  10.305 -0.1778 -0.0511 -0.0880
 4032W        W 7776   9.113   3.640   3.111 -0.2682  0.0170 -0.1640
 4033W        W 7777   5.623   0.584   9.060  0.2042  0.0135 -0.1614
 4034W        W 7778   5.645   5.596  10.319  0.0994  0.0773 -0.1590
 4035W        W 7779   6.293   5.185   1.078  0.1023  0.0158  0.0601
 4036W        W 7780   7.744   5.211  11.092  0.2916  0.2134  0.1604
 4037W        W 7781   6.125   9.128  11.978 -0.2484  0.4171 -0.0384
 4038W        W 7782   2.139   0.997   0.128  0.3065 -0.2397  0.0894
 4039W        W 7783   4.265   9.649   4.505 -0.0009 -0.3310  0.0336
 4040W        W 7784   4.652   7.945   9.083 -0.6060 -0.0731  0.1366
 4041W        W 7785   6.808   9.456  11.935 -0.1323 -0.1752 -0.0630
 4042W        W 7786   5.072   6.085   9.225  0.1542  0.3227  0.1747
 4043W        W 7787   5.980   7.901  10.313 -0.1604 -0.1230  0.3023
 4044W        W 7788   4.141   3.178  12.591  0.0636  0.0314 -0.1924
 4045W        W 7789   0.587   4.743   0.950 -0.2568  0.2904  0.0239
 4046W        W 7790   8.171   7.366   9.108  0.1670  0.0781  0.0216
 4047W        W 7791   7.683   9.753  10.348 -0.2038 -0.1450  0.4240
 4048W        W 7792   8.176   9.135   4.345 -0.1569 -0.2103 -0.3182
 4049W        W 7793   5.499   9.102  11.830 -0.0655 -0.2142  0.0802
 4050W        W 7794   3.663   0.089  12.337 -0.1039  0.0443 -0.0843
 4051W        W 7795   7.786   4.500   4.450  0.1229 -0.0156 -0.0598
 4052W        W 7796   5.811   3.598   2.568 -0.1076 -0.1861 -0.1439
 4053W        W 7797   1.341   6.003   2.303 -0.2526  0.2954  0.0384
 4054W        W 7798   4.450   8.112  11.294 -0.0250  0.0333  0.4898
 4055W        W 7799   5.815   4.292   9.705  0.2118  0.0502 -0.1145
 4056W        W 7800   0.736   7.473  12.134 -0.0225 -0.0391 -0.1201
 4057W        W 7801   3.060   6.944   3.184  0.0002 -0.1405  0.0581
 4058W        W 7802   7.179   2.980   3.800 -0.2727 -0.0979  0.1633
 4059W        W 7803   1.599   3.716   3.342  0.4079 -0.2016 -0.0896
 4060W        W 7804   7.771   5.259   1.503  0.0042  0.2526 -0.2054
 4061W        W 7805   3.648   6.436   9.405  0.0553  0.0088  0.1747
 4062W        W 7806   9.292   1.119   3.147 -0.0137  0.2689 -0.4269
 4063W        W 7807   0.975   2.979   3.285 -0.0472  0.1259 -0.1069
 4064W        W 7808   2.126   0.406   0.100 -0.0336 -0.2657  0.4377
 4065W        W 7809   7.787   6.062   1.297  0.0904 -0.1286 -0.0663
 4066W        W 7810   5.425   3.575   9.287 -0.2187 -0.0391 -0.0316
 4067W        W 7811   9.184   9.140   3.140 -0.1570 -0.5232  0.0684
 4068W        W 7812   5.953   3.388   0.359 -0.2205  0.1463 -0.0220
 4069W        W 7813   7.492   5.073   0.699  0.0741 -0.0004 -0.3124
 4070W        W 7814   7.981   2.622   0.815  0.4581 -0.0686  0.1808
 4071W        W 7815   7.413   5.236   9.888 -0.2821 -0.1882  0.0099
 4072W        W 7816   4.747   0.570   4.084 -0.1756  0.0338 -0.0662
 4073W        W 7817   1.237   3.115   9.717  0.0320  0.0525 -0.1584
 4074W        W 7818   6.599   3.543   0.412 -0.2325 -0.1613  0.0255
 4075W        W 7819   4.350   3.842  10.852  0.1786  0.3254  0.1773
 4076W        W 7820   4.215   7.403   1.958 -0.0113 -0.1449  0.0743
 4077W        W 7821   1.226   2.146   9.987 -0.3857  0.1130 -0.3396
 4078W        W 7822   6.613   0.363  11.532 -0.0515  0.1417  0.0682
 4079W        W 7823   5.270   9.067  10.637 -0.1312 -0.0658 -0.2158
 4080W        W 7824   8.877   3.077   4.213  0.1327  0.1276 -0.1197
 4081W        W 7825   6.297   9.653   3.445 -0.2331 -0.1248  0.1500
 4082W        W 7826   8.544   7.339   9.855  0.0840 -0.1107  0.0341
 4083W        W 7827   4.232   8.961   3.329 -0.1002 -0.1679  0.0133
 4084W        W 7828   4.103   8.038   0.593 -0.3545 -0.0570 -0.0447
 4085W        W 7829   6.393   5.839   0.431  0.1000  0.0244 -0.1678
 4086W        W 7830   4.910   3.486  11.953  0.0574 -0.0432 -0.0481
 4087W        W 7831   6.302   4.306   8.938  0.1198  0.1795 -0.0494
 4088W        W 7832   6.136   8.012   9.805  0.0050 -0.2654  0.1660
 4089W        W 7833   7.248   3.796   3.993  0.2103 -0.3547 -0.2128
 4090W        W 7834   9.136   5.303   9.976  0.0202  0.0652 -0.4066
 4091W        W 7835   7.851   6.647   0.091  0.0075  0.2949  0.1365
 4092W        W 7836   0.539   9.052   9.853 -0.2270  0.0154  0.1606
 4093W        W 7837   9.043   9.032  11.687 -0.0654 -0.1659 -0.1387
 4094W        W 7838   8.089   1.790   3.316 -0.2967 -0.2531  0.3020
 4095W        W 7839   9.415   1.174   1.816  0.1564 -0.1645 -0.2032
 4096W        W 7840   1.548   2.366   9.548  0.2136  0.2362  0.0374
 4097W        W 7841   4.928   7.312  12.083 -0.0837 -0.0845 -0.0220
 4098W        W 7842   7.442   5.383  10.514 -0.1628  0.3433 -0.3194
 4099W        W 7843   6.862   2.652   9.601  0.0103 -0.0881  0.2329
 4100W        W 7844   3.955   8.220  11.167  0.1573 -0.0597 -0.2173
 4101W        W 7845   7.247   1.195   4.131  0.0095  0.0652  0.2986
 4102W        W 7846   4.641   4.088   4.035 -0.1501 -0.1531 -0.1854
 4103W        W 7847   5.077   8.820  10.130  0.4296  0.0965  0.0633
 4104W        W 7848   6.470   3.058   1.218 -0.1238  0.0710  0.0622
 4105W        W 7849   7.297   4.380   0.163  0.2726 -0.0052  0.2533
 4106W        W 7850   9.767   2.054   1.940  0.1655 -0.1413 -0.0106
 4107W        W 7851   4.527   5.220   9.005 -0.0665 -0.1759 -0.0623
 4108W        W 7852   7.465   8.186   4.987 -0.0245  0.0073 -0.4203
 4109W        W 7853   1.739   1.984   3.006  0.0717 -0.0974 -0.1059
 4110W        W 7854   8.258   5.118   9.561 -0.1368 -0.1851 -0.0067
 4111W        W 7855   2.682   1.251  12.236 -0.1208  0.0085 -0.2781
 4112W        W 7856   9.463   8.867  11.498  0.0933 -0.0018 -0.1361
 4113W        W 7857   8.090   6.254  12.317 -0.0533  0.3836  0.0493
 4114W        W 7858   3.393   5.398  10.726 -0.1070  0.1010  0.1142
 4115W        W 7859   7.067   1.969  10.068  0.0718 -0.0455  0.0772
 4116W        W 7860   8.828   7.841  12.408 -0.0246  0.0108  0.1608
 4117W        W 7861   6.602   6.618   2.344 -0.1626  0.0279  0.0017
 4118W        W 7862   9.659   5.097   0.352  0.0051 -0.1244 -0.1254
 4119W        W 7863   1.657   4.327   0.450  0.2349 -0.0942  0.0022
 4120W        W 7864   0.638   2.683   2.497  0.1362  0.0137 -0.0605
 4121W        W 7865   7.571   7.601   2.226 -0.1128 -0.0874 -0.0130
 4122W        W 7866   3.762   1.138   9.869 -0.2902  0.0886  0.2052
 4123W        W 7867   0.038   4.738   2.607  0.0370 -0.2759  0.4210
 4124W        W 7868   7.453   2.402   3.105 -0.4188  0.1196  0.1726
 4125W        W 7869   5.344   6.541   2.270  0.4730  0.2997 -0.0433
 4126W        W 7870   6.289   5.347  12.152 -0.1743 -0.0505  0.1611
 4127W        W 7871   7.757   3.372  11.799 -0.2287  0.1298  0.0972
 4128W        W 7872   6.977   6.379  10.562  0.0395 -0.2609  0.1474
 4129W        W 7873   3.515   8.325   3.094 -0.3178 -0.0610  0.2039
 4130W        W 7874   9.164   2.510   3.615 -0.0942 -0.1770  0.0216
 4131W        W 7875   0.704   0.120   1.513 -0.3680  0.4456  0.1874
 4132W        W 7876   5.428   9.641  11.655  0.0852 -0.2004  0.1020
 4133W        W 7877   2.551   5.935   2.557  0.1414 -0.1402 -0.0590
 4134W        W 7878   2.756   2.158   8.072 -0.2334  0.0191  0.0182
 4135W        W 7879   0.954   4.054  11.054  0.3892 -0.0821 -0.0652
 4136W        W 7880   2.063   1.556   3.335 -0.0678  0.2145 -0.0721
 4137W        W 7881   6.539   1.471   2.324  0.2527 -0.1637 -0.0997
 4138W        W 7882   9.384   0.652   1.888  0.2284 -0.3622 -0.2380
 4139W        W 7883   8.697   6.010   1.735  0.0245  0.1292  0.3829
 4140W        W 7884   5.222   2.967   8.598  0.0744 -0.1779 -0.2951
 4141W        W 7885   6.853   2.815  12.939 -0.0426 -0.0717 -0.2145
 4142W        W 7886   5.373   6.674   3.243 -0.2338  0.0965  0.1590
 4143W        W 7887   1.191   3.393   3.273 -0.0620  0.0882 -0.1364
 4144W        W 7888   5.895   6.095   9.042 -0.2887 -0.1106  0.1064
 4145W        W 7889   5.532   0.611   4.376  0.2465 -0.0523 -0.0541
 4146W        W 7890   9.507   5.745   2.578  0.0532 -0.2185 -0.0856
 4147W        W 7891   1.384   4.909  11.853  0.2472 -0.2107  0.0062
 4148W        W 7892   2.170   4.773  11.306 -0.1431 -0.1274  0.2071
 4149W        W 7893   4.435   6.654  10.255  0.0127 -0.3144 -0.0674
 4150W        W 7894   3.600   5.387  11.698  0.1392  0.1425  0.1219
 4151W        W 7895   5.113   4.989  10.786 -0.1274  0.1667  0.0236
 4152W        W 7896   4.808   6.856   4.066 -0.2304  0.0665 -0.4762
 4153W        W 7897   8.154   4.687  10.866  0.4163 -0.1466 -0.0250
 4154W        W 7898   4.439   7.346  10.911 -0.0594 -0.1755  0.0477
 4155W        W 7899   6.460   3.295  10.194  0.3262  0.2063 -0.1213
 4156W        W 7900   5.934   7.652   3.862  0.0428  0.0202 -0.0081
 4157W        W 7901   7.510   4.685  12.731 -0.2519 -0.0124 -0.3984
 4158W        W 7902   0.579   4.409  12.504  0.1936 -0.0577  0.1081
 4159W        W 7903   1.503   0.782   4.356  0.1447  0.1905  0.3534
 4160W        W 7904   5.554   0.775   0.975  0.0968 -0.2680 -0.0020
 4161W        W 7905   8.261   3.245   3.212  0.1154 -0.3156 -0.1251
 4162W        W 7906   4.916   5.945  10.917 -0.0521  0.3240 -0.1208
 4163W        W 7907   4.640   7.841  10.921  0.0794 -0.1493  0.0284
 4164W        W 7908   0.080   9.677  10.331 -0.0529  0.0142 -0.4139
 4165W        W 7909   5.767   5.702   9.382  0.2049  0.1944 -0.1391
 4166W        W 7910   4.658   3.630   0.732 -0.0240 -0.0025 -0.2073
 4167W        W 7911   9.408   9.571   2.856  0.2677  0.1067 -0.3274
 4168W        W 7912   9.855   1.899   0.848  0.0397  0.2118  0.0888
 4169W        W 7913   9.492   9.157   2.588 -0.0965 -0.0433  0.0515
 4170W        W 7914   3.741   9.176   9.151  0.0169 -0.1758 -0.1092
 4171W        W 7915   7.771   5.393   1.013 -0.2125 -0.0460 -0.0498
 4172W        W 7916   8.315   9.825   9.873  0.2803 -0.0942 -0.0881
 4173W        W 7917   2.393   0.991   3.096 -0.1127  0.2431 -0.2006
 4174W        W 7918   3.917   0.588   9.180  0.3681 -0.0692 -0.2982
 4175W        W 7919   0.707   7.083   0.598  0.3086  0.0433 -0.2665
 4176W        W 7920   7.634   3.075   4.445 -0.2615 -0.2126 -0.0529
 4177W        W 7921   8.235   1.380   0.259  0.0122 -0.0123 -0.2821
 4178W        W 7922   9.057   4.388   0.372  0.2148  0.0147  0.0945
 4179W        W 7923   8.502   3.946   8.906 -0.2277  0.2553  0.0418
 4180W        W 7924   2.265   2.829  10.697 -0.1105 -0.2699 -0.0268
 4181W        W 7925   2.515   0.228   8.443 -0.2221  0.1600  0.2332
 4182W        W 7926   4.188   5.359   8.618 -0.3404 -0.2187 -0.1774
 4183W        W 7927   7.349   5.320  11.329  0.2772  0.2321 -0.0380
 4184W        W 7928   7.557   3.958   1.891 -0.1213 -0.1572  0.1623
 4185W        W 7929   9.536   0.613  10.427 -0.0549  0.0075 -0.0837
 4186W        W 7930   1.369   2.044   4.290  0.2193 -0.3537  0.2597
 4187W        W 7931   8.966   0.636   3.148 -0.0188  0.1794 -0.0546
 4188W        W 7932   6.431   3.188   4.203 -0.0675 -0.2179 -0.1764
 4189W        W 7933   4.708   3.412  11.461  0.0053 -0.0160 -0.5546
 4190W        W 7934   0.903   4.373   3.114 -0.1751 -0.3680 -0.0672
 4191W        W 7935   6.517   6.134   2.026 -0.0175 -0.0220 -0.0719
 4192W        W 7936   6.787   7.616   1.966 -0.1211  0.0918 -0.0533
 4193W        W 7937   4.715   0.375   0.189  0.1223  0.0476  0.2331
 4194W        W 7938   6.335   7.625   0.894  0.0947 -0.0844  0.0153
 4195W        W 7939   3.943   5.483   9.885  0.1279 -0.1407  0.1419
 4196W        W 7940   4.316   4.282  10.559  0.2334 -0.2201 -0.1523
 4197W        W 7941   1.846   6.707   0.721  0.0680 -0.0764 -0.3064
 4198W        W 7942   1.513   1.798   1.284 -0.0489  0.1943 -0.1132
 4199W        W 7943   1.696   9.293   1.779 -0.1005 -0.0878  0.1426
 4200W        W 7944   4.960   1.645  11.766 -0.1955 -0.1182  0.2853
 4201W        W 7945   4.104   1.387   7.748  0.1851 -0.0479  0.1015
 4202W        W 7946   8.259   6.147   1.598 -0.1092  0.4038 -0.0177
 4203W        W 7947   3.422   4.742   9.550  0.1439 -0.1910 -0.1534
 4204W        W 7948   7.153   6.703  12.094  0.2250 -0.3529  0.1473
 4205W        W 7949   0.003   8.885  12.884  0.2699 -0.1393 -0.1535
 4206W        W 7950   8.773   1.929   2.196 -0.0485 -0.1259 -0.0429
 4207W        W 7951   6.797   7.550   8.070  0.0748  0.1031  0.0908
 4208W        W 7952   3.162   1.907   9.049  0.3317 -0.0674 -0.3584
 4209W        W 7953   6.025   8.276  11.618  0.1343 -0.1358  0.0795
 4210W        W 7954   9.563   2.120  10.772 -0.2275  0.0813 -0.0494
 4211W        W 7955   2.758   4.824   0.515  0.1303 -0.0998 -0.4519
 4212W        W 7956   0.169   9.279  12.628 -0.1246  0.0026 -0.1416
 4213W        W 7957   9.394   9.161   3.628 -0.1867 -0.0391  0.3146
 4214W        W 7958   2.515   9.139  10.769  0.1260  0.0792 -0.3433
 4215W        W 7959   9.694   9.721   9.873 -0.1752 -0.0965 -0.0654
 4216W        W 7960   2.429   8.509  10.838 -0.2086  0.0693 -0.0397
 4217W        W 7961   8.637   2.271   9.596 -0.0443 -0.1866 -0.0276
 4218W        W 7962   8.026   7.403  10.784 -0.3384 -0.0567 -0.0139
 4219W        W 7963   1.963   3.530  12.579 -0.0518  0.0740  0.0534
 4220W        W 7964   8.019   1.269   5.179  0.0490 -0.2254 -0.0647
 4221W        W 7965   3.251   8.730  10.584  0.0153 -0.0560 -0.1425
 4222W        W 7966   4.528   4.103   4.972  0.0454  0.2321 -0.2979
 4223W        W 7967   7.820   5.298   3.670  0.4589  0.0968 -0.0915
 4224W        W 7968   2.923   4.046   3.623  0.4091 -0.5812 -0.1189
 4225W        W 7969   3.645   0.671   3.929 -0.0266 -0.1324 -0.1092
 4226W        W 7970   3.897   7.000   3.314  0.2569  0.2627  0.0337
 4227W        W 7971   0.862   7.920  12.909 -0.1735 -0.1404 -0.0090
 4228W        W 7972   1.535   3.528  12.341  0.1729  0.0482 -0.2088
 4229W        W 7973   2.092   1.727  12.679  0.2170 -0.0923 -0.0603
 4230W        W 7974   5.842   2.018  11.309 -0.1773 -0.0004  0.0669
 4231W        W 7975   2.421   1.082   8.755  0.0856  0.2250 -0.2637
 4232W        W 7976   4.068   6.353  10.372  0.0927  0.0986 -0.1453
 4233W        W 7977   0.083   9.555  12.139  0.2373 -0.1128 -0.2108
 4234W        W 7978   9.188   5.397   2.304  0.1615  0.1981  0.2348
 4235W        W 7979   3.982   7.188   4.518 -0.0823 -0.1451  0.0581
 4236W        W 7980   9.485   3.516   0.427 -0.1991 -0.1635  0.1235
 4237W        W 7981   1.076   8.723  12.522 -0.1394  0.1996 -0.3618
 4238W        W 7982   9.261   4.933   0.675  0.2333 -0.0454  0.0294
 4239W        W 7983   6.363   7.556  10.526  0.0350 -0.1353 -0.4460
 4240W        W 7984   1.503   3.055   2.725 -0.0013 -0.0178 -0.0314
 4241W        W 7985   8.458   9.051   0.599 -0.2044  0.1046 -0.1780
 4242W        W 7986   1.580   9.337   3.277  0.0822 -0.1538  0.0988
 4243W        W 7987   6.741   3.411  11.335 -0.1225 -0.0320  0.1532
 4244W        W 7988   7.160   2.222   8.864 -0.1085 -0.0768  0.1980
 4245W        W 7989   7.886   8.007   2.446  0.0882  0.4526 -0.0093
 4246W        W 7990   0.616   7.129  11.813 -0.1380  0.0009  0.0395
 4247W        W 7991   9.854   7.751  11.555  0.1191  0.0219 -0.0010
 4248W        W 7992   7.075   7.025   3.952 -0.1888 -0.1852 -0.0040
 4249W        W 7993   7.294   6.316   3.099 -0.3928  0.0588  0.1071
 4250W        W 7994   4.121   1.419   3.411  0.1160 -0.1249 -0.4072
 4251W        W 7995   0.302   3.536   3.622 -0.3703  0.2717  0.4035
 4252W        W 7996   2.071   4.111   1.477 -0.1596 -0.1187 -0.0156
 4253W        W 7997   6.589   4.304   2.852  0.1978 -0.0633  0.0580
 4254W        W 7998   7.021   3.718   9.502 -0.4069 -0.3201 -0.2337
 4255W        W 7999   5.434   3.117   1.365  0.0818 -0.1763 -0.1175
 4256W        W 8000   4.534   6.347   1.397 -0.1737  0.2653  0.2603
 4257W        W 8001   6.965   1.153   1.382  0.0154  0.0861 -0.2346
 4258W        W 8002   7.405   9.272   3.150  0.0804 -0.0951  0.0153
 4259W        W 8003   8.462   8.181   1.575 -0.1703  0.2935 -0.1081
 4260W        W 8004   4.131   6.655   8.403  0.1550 -0.0681 -0.5722
 4261W        W 8005   1.495   2.620   3.458 -0.1470  0.0487  0.0764
 4262W        W 8006   6.918   6.569   4.190 -0.0971  0.2163  0.1301
 4263W        W 8007   3.690   9.190   1.774  0.1115 -0.2052  0.0824
 4264W        W 8008   7.804   5.556  11.488  0.0960  0.1615  0.0964
 4265W        W 8009   3.051   2.001   1.493 -0.3648  0.3526 -0.0502
 4266W        W 8010   8.772   4.646  10.478  0.1503 -0.0869 -0.0140
 4267W        W 8011   0.790   9.375  12.866 -0.0855  0.0028 -0.1030
 4268W        W 8012   4.532   2.347  10.996 -0.2785  0.0267  0.1566
 4269W        W 8013   0.738   9.394  10.949 -0.1946 -0.1813 -0.1644
 4270W        W 8014   0.055   6.915  12.339 -0.1021 -0.0451 -0.5509
 4271W        W 8015   6.771   5.093  11.179  0.0805  0.1654 -0.1449
 4272W        W 8016   5.810   7.533   1.555 -0.1899  0.1422 -0.1868
 4273W        W 8017   1.509   5.250   0.917 -0.1294  0.0309  0.1679
 4274W        W 8018   3.690   7.557   1.210  0.2984 -0.1786 -0.1287
 4275W        W 8019   9.439   9.324   9.813  0.0298 -0.4363 -0.1931
 4276W        W 8020   8.776   3.001  11.068 -0.3363  0.0130 -0.0933
 4277W        W 8021   7.044   8.034  12.194  0.0887 -0.0662 -0.2834
 4278W        W 8022   6.429   0.038   2.583 -0.1733 -0.1535 -0.1787
 4279W        W 8023   4.583   3.217   3.050  0.0517 -0.2322 -0.1446
 4280W        W 8024   6.013   8.129  12.163 -0.2408  0.0764  0.1324
 4281W        W 8025   4.904   8.941  11.978 -0.0495  0.0665  0.2321
 4282W        W 8026   2.957   0.966   2.231  0.3053 -0.2920 -0.3250
 4283W        W 8027   4.127   4.830   3.785  0.1232 -0.2348  0.0183
 4284W        W 8028   1.860   9.180   2.279 -0.1578 -0.0137 -0.1619
 4285W        W 8029   2.727   5.437   1.276 -0.1589 -0.2934 -0.1527
 4286W        W 8030   6.545   7.703   9.975 -0.2521  0.0997  0.1519
 4287W        W 8031   1.863   9.072   4.282 -0.3015  0.0232  0.0087
 4288W        W 8032   3.285   0.352  11.339  0.1444 -0.0205  0.2218
 4289W        W 8033   3.399   1.526  10.490  0.0251 -0.0971  0.3606
 4290W        W 8034   2.155   6.759   1.722 -0.1443 -0.2112 -0.1391
 4291W        W 8035   3.855   0.699  12.317 -0.0272 -0.0099  0.1935
 4292W        W 8036   0.804   0.794   9.628 -0.1869 -0.1691  0.1720
 4293W        W 8037   4.451   8.333   1.745 -0.0759  0.2930  0.0141
 4294W        W 8038   0.164   1.214  12.238 -0.5040 -0.1481  0.2298
 4295W        W 8039   4.768   8.696  10.501 -0.0276  0.1541 -0.3222
 4296W        W 8040   1.781   0.237   0.569 -0.2144 -0.0020  0.0874
 4297W        W 8041   4.435   7.141   0.925  0.0536  0.1079 -0.0799
 4298W        W 8042   4.485   1.347   8.855 -0.4640  0.2229 -0.3376
 4299W        W 8043   5.791   3.495   0.798  0.2003  0.2135 -0.4501
 4300W        W 8044   1.027   9.359  10.562  0.5163  0.1086  0.2246
 4301W        W 8045   6.043   1.400   9.856 -0.2869  0.0351 -0.2056
 4302W        W 8046   9.790   6.253   0.196 -0.4587  0.2342  0.2100
 4303W        W 8047   0.138   4.180   2.391  0.1975  0.1209 -0.4170
 4304W        W 8048   9.481   9.654   8.774 -0.2119 -0.2635  0.4021
 4305W        W 8049   5.365   6.886  12.886 -0.1672  0.0097 -0.0161
 4306W        W 8050   6.866   4.237   1.466  0.1099 -0.1365 -0.3348
 4307W        W 8051   4.746   7.377   3.137 -0.3989  0.0296  0.0827
 4308W        W 8052   2.488   7.058  12.930 -0.3304  0.0406  0.0953
 4309W        W 8053   8.791   4.443   8.122 -0.1089 -0.1580 -0.3320
 4310W        W 8054   6.080   8.455  10.739 -0.0438 -0.0406  0.0096
 4311W        W 8055   7.371   9.074  12.559  0.3753 -0.1888  0.2921
 4312W        W 8056   5.876   3.779   9.665  0.0498  0.1217 -0.2720
 4313W        W 8057   5.066   8.918   2.090  0.3275 -0.2069 -0.1154
 4314W        W 8058   1.749   8.069   2.603  0.3328 -0.2303 -0.3208
 4315W        W 8059   4.363   9.618  11.313 -0.1972  0.2905  0.1036
 4316W        W 8060   0.698   9.280   0.933 -0.0455  0.2794 -0.4232
 4317W        W 8061   2.785   1.316   3.646 -0.0121  0.2726 -0.2224
 4318W        W 8062   7.397   7.407   4.221  0.2091  0.2823 -0.1093
 4319W        W 8063   7.656   0.201   3.452 -0.2807 -0.0679 -0.0034
 4320W        W 8064   1.178   1.150   3.171 -0.0177 -0.2277 -0.1149
 4321W        W 8065   1.643   1.019   0.948 -0.1833 -0.1524  0.1745
 4322W        W 8066   1.157   3.057   1.751  0.3082  0.1497 -0.0293
 4323W        W 8067   7.862   3.402   0.949 -0.0039 -0.1560 -0.0327
 4324W        W 8068   0.741   3.544   8.922  0.0809 -0.3405  0.3538
 4325W        W 8069   1.103   7.283   2.171  0.0819 -0.1501  0.0867
 4326W        W 8070   6.734   0.607  12.678  0.0809 -0.4198  0.1026
 4327W        W 8071   8.810   0.438   2.134  0.0654  0.3119 -0.0569
 4328W        W 8072   2.826   5.692   9.428  0.2326  0.0150  0.0163
 4329W        W 8073   2.354   8.565  12.055  0.2664  0.1530  0.2407
 4330W        W 8074   4.100   1.528  12.176 -0.2476 -0.1776  0.0281
 4331W        W 8075   8.633   0.005  11.366  0.3029 -0.1528  0.4710
 4332W        W 8076   6.639   3.094   8.638  0.0609  0.0787  0.1077
 4333W        W 8077   3.610   0.656   4.826  0.1324  0.2419  0.3079
 4334W        W 8078   0.262   3.405   8.818  0.2816  0.4285  0.1917
 4335W        W 8079   6.198   0.572   3.858 -0.0969 -0.0701  0.0239
 4336W        W 8080   6.659   7.764   1.270 -0.2768  0.1075 -0.0525
 4337W        W 8081   7.806   1.678   1.055 -0.1494  0.4869  0.0420
 4338W        W 8082   3.197   5.156   9.851 -0.0365 -0.1646 -0.0384
 4339W        W 8083   9.744   7.550   1.629  0.0416 -0.2079  0.0476
 4340W        W 8084   2.573   6.568  12.732 -0.0973 -0.0005 -0.0827
 4341W        W 8085   8.963   8.539  10.872 -0.2057  0.2408  0.0064
 4342W        W 8086   1.233   0.181   1.614 -0.0840  0.3123  0.0141
 4343W        W 8087   2.958   0.657  10.623 -0.3026  0.1190  0.0543
 4344W        W 8088   5.927   4.544   2.834 -0.1051  0.0265  0.3324
 4345W        W 8089   6.334   0.525   0.914 -0.1260 -0.0469  0.1720
 4346W        W 8090   5.133   4.331   9.046 -0.1596 -0.2844 -0.1683
 4347W        W 8091   6.391   8.210   9.423  0.0518 -0.2065  0.0060
 4348W        W 8092   3.793   9.228   2.295 -0.0065 -0.1386  0.0960
 4349W        W 8093   4.614   0.238  11.349  0.0204  0.0965 -0.0141
 4350W        W 8094   9.179   1.163   9.707  0.0811 -0.2003  0.2347
 4351W        W 8095   7.355   3.737   2.675 -0.1294 -0.2197 -0.1805
 4352W        W 8096   3.914   8.646   4.324  0.1395 -0.0389  0.0728
 4353W        W 8097   8.171   9.904   8.933 -0.0258 -0.3166  0.1632
 4354W        W 8098   0.642   2.883  12.397 -0.1931 -0.1120  0.0290
 4355W        W 8099   1.558   0.175  11.021  0.2694 -0.1091  0.2987
 4356W        W 8100   7.159   3.757   8.989 -0.1371 -0.0174 -0.0095
 4357W        W 8101   4.273   5.269  12.428 -0.1800  0.0728 -0.2743
 4358W        W 8102   3.263   3.659   4.054 -0.3475 -0.4357 -0.0061
 4359W        W 8103   5.664   6.303   0.567 -0.2376 -0.2480  0.1547
 4360W        W 8104   6.882   9.353  12.637  0.0394 -0.1723 -0.1006
 4361W        W 8105   8.028   2.523  11.064 -0.1176  0.1001 -0.0486
 4362W        W 8106   9.414   3.721   8.598  0.3925  0.1589 -0.4896
 4363W        W 8107   5.970   0.833   0.648 -0.1402  0.1049  0.0614
 4364W        W 8108   8.527   0.896   2.928 -0.0211 -0.1730  0.0366
 4365W        W 8109   8.322   8.839  12.146  0.0970 -0.0429 -0.0635
 4366W        W 8110   7.508   6.532  12.440  0.1111  0.1143  0.1668
 4367W        W 8111   8.361   4.404   4.150  0.3635 -0.1163 -0.2019
 4368W        W 8112   3.225   1.647   4.313  0.1524  0.1323  0.0450
 4369W        W 8113   0.507   3.614   0.952 -0.1125  0.2421  0.0088
 4370W        W 8114   0.025   6.160  10.923  0.1004  0.1552  0.0863
 4371W        W 8115   6.340   1.677  11.875  0.0928 -0.3434 -0.1525
 4372W        W 8116   2.119   1.298   2.855  0.0775 -0.0626  0.0104
 4373W        W 8117   8.440   0.687   1.825  0.1738 -0.1122  0.0464
 4374W        W 8118   6.271   8.837   0.322 -0.0809 -0.1069  0.2173
 4375W        W 8119   1.425   0.548   0.210 -0.1877 -0.2382  0.0726
 4376W        W 8120   1.332   5.804   7.451  0.0953  0.1406  0.1558
 4377W        W 8121   3.296   0.461  12.229  0.0466  0.1097  0.3461
 4378W        W 8122   8.902   1.779   0.183 -0.2438  0.0904 -0.1786
 4379W        W 8123   9.739   9.532  10.753  0.1586  0.0881  0.0297
 4380W        W 8124   1.090   6.724   0.839  0.0376  0.1652  0.0826
 4381W        W 8125   5.269   5.984  12.699 -0.0996  0.2107  0.0240
 4382W        W 8126   4.146   2.604   2.773 -0.3467  0.0077 -0.2426
 4383W        W 8127   6.311   1.465   1.903  0.0958 -0.2116  0.2571
 4384W        W 8128   0.148   5.982   9.875  0.2102 -0.0699 -0.2381
 4385W        W 8129   5.941   0.272   4.201 -0.3786  0.0556  0.1012
 4386W        W 8130   7.748   2.570   9.961 -0.3278 -0.0043 -0.0423
 4387W        W 8131   9.735   0.452   3.161 -0.3763 -0.2639  0.1029
 4388W        W 8132   4.558   0.708  11.701 -0.3003 -0.2511  0.3124
 4389W        W 8133   9.318   1.641   2.933  0.1427 -0.2744 -0.0810
 4390W        W 8134   0.088   4.972  11.221  0.1092 -0.1437 -0.0597
 4391W        W 8135   2.861   1.802   3.386 -0.0663  0.0795  0.0388
 4392W        W 8136   6.932   7.983  10.153  0.1402 -0.0062  0.0526
 4393W        W 8137   9.406   4.402   9.838 -0.1762  0.0270 -0.0036
 4394W        W 8138   2.862   3.413   4.169 -0.1110  0.0671  0.1569
 4395W        W 8139   8.852   5.415   8.306  0.0853 -0.2274 -0.4236
 4396W        W 8140   2.466   5.344   3.235 -0.0460 -0.1605 -0.0277
 4397W        W 8141   7.483   4.655   1.046 -0.0852 -0.1709 -0.4958
 4398W        W 8142   4.456   0.739   4.574 -0.1378 -0.0908  0.1516
 4399W        W 8143   1.106   4.925   0.882 -0.0976 -0.2089 -0.1701
 4400W        W 8144   5.151   1.888  11.009 -0.1748  0.0057 -0.0120
 4401W        W 8145   8.338   7.671  12.286  0.0197  0.3161  0.2411
 4402W        W 8146   3.247   1.639  10.936  0.2468 -0.1851  0.2638
 4403W        W 8147   1.735   4.546   8.532 -0.2646  0.0681  0.3227
 4404W        W 8148   5.065   4.279  11.918 -0.1382  0.0089 -0.2183
 4405W        W 8149   0.140   7.374  11.931 -0.0961  0.0745  0.1491
 4406W        W 8150   4.710   0.843   8.852  0.1097  0.3602  0.1145
 4407W        W 8151   0.001   8.999   2.277  0.3322  0.0969  0.0971
 4408W        W 8152   0.554   0.488   1.169  0.2806  0.2291 -0.1117
 4409W        W 8153   5.747   5.206   2.174  0.3401  0.1507  0.2593
 4410W        W 8154   5.609   1.345   3.334 -0.0792  0.2507 -0.0870
 4411W        W 8155   8.943   6.244   0.571  0.3574  0.3288 -0.3845
 4412W        W 8156   4.933   6.859   8.967 -0.1394  0.2972  0.0353
 4413W        W 8157   3.533   8.220   9.671 -0.0855  0.1698 -0.1705
 4414W        W 8158   3.148   9.140   9.661  0.2770  0.2642 -0.0578
 4415W        W 8159   2.317   8.336  12.486 -0.0438 -0.0808  0.1484
 4416W        W 8160   9.203   4.456   1.222 -0.1527  0.3041 -0.1904
 4417W        W 8161   8.261   8.649   1.936 -0.1007 -0.2891 -0.3977
 4418W        W 8162   3.165   9.221  10.734 -0.4492 -0.1665 -0.0114
 4419W        W 8163   5.744   5.260   0.261 -0.5009 -0.2024  0.0856
 4420W        W 8164   8.190   8.785  12.824  0.0496  0.1487 -0.0571
 4421W        W 8165   9.150   4.822  11.933  0.0602 -0.2742 -0.0472
 4422W        W 8166   6.839   8.950   3.808 -0.1008  0.2085 -0.1802
 4423W        W 8167   4.326   6.667   9.523 -0.1179 -0.0329  0.1703
 4424W        W 8168   8.120   9.865  10.595  0.2688  0.3477 -0.1975
 4425W        W 8169   1.515   3.508   9.966 -0.2825 -0.2281  0.1327
 4426W        W 8170   9.737   4.646   9.010 -0.2469  0.2052 -0.2713
 4427W        W 8171   8.689   8.053   9.636 -0.3769 -0.0544  0.1728
 4428W        W 8172   6.384   2.373  10.409  0.0792 -0.0749 -0.0748
 4429W        W 8173   9.802   2.512  12.508  0.2725  0.2804 -0.2347
 4430W        W 8174   6.757   2.051   9.529 -0.0211 -0.1465  0.0568
 4431W        W 8175   5.485   9.221   2.708 -0.0442 -0.3815  0.1160
 4432W        W 8176   6.600   6.927   1.385 -0.1263 -0.1604 -0.1374
 4433W        W 8177   0.728   6.737   9.650 -0.0787  0.1435  0.0343
 4434W        W 8178   0.867   2.823   1.421 -0.0163  0.1190  0.2157
 4435W        W 8179   4.942   6.951   3.165  0.0233  0.0199  0.1440
 4436W        W 8180   3.723   9.175  12.927  0.0483  0.1335  0.1211
 4437W        W 8181   9.772   9.688   0.927  0.0387  0.0075 -0.0451
 4438W        W 8182   2.436   3.196  10.400 -0.0806 -0.0486 -0.0349
 4439W        W 8183   9.240   8.004   2.260 -0.1215  0.0041  0.1031
 4440W        W 8184   2.917   1.937   2.345  0.2350  0.1176 -0.0668
 4441W        W 8185   6.573   2.303   8.320 -0.1533 -0.1288 -0.0822
 4442W        W 8186   3.137   1.168  11.275 -0.2300 -0.1283 -0.3515
 4443W        W 8187   2.892   2.202  12.242 -0.0070  0.0041 -0.2347
 4444W        W 8188   1.612   7.257   3.651  0.0350 -0.0111  0.1242
 4445W        W 8189   9.242   8.108   3.557 -0.0639  0.1346 -0.0210
 4446W        W 8190   4.646   1.535   4.280  0.1130 -0.0402 -0.0936
 4447W        W 8191   4.734   8.463   9.197 -0.1699  0.1575 -0.0103
 4448W        W 8192   6.664   3.914   0.753  0.3522  0.1458 -0.0075
 4449W        W 8193   4.437   3.530   2.366  0.1948 -0.2334 -0.1710
 4450W        W 8194   2.306   5.241   1.361  0.0922 -0.4326 -0.2763
 4451W        W 8195   3.930   2.866   4.745  0.0798 -0.2396 -0.0375
 4452W        W 8196   6.503   0.912   1.196 -0.3336  0.0193  0.1729
 4453W        W 8197   3.593   1.940   8.837  0.2114 -0.0913 -0.1023
 4454W        W 8198   6.219   8.910   1.742 -0.4257 -0.0979  0.2062
 4455W        W 8199   0.008   9.037   3.283  0.0826 -0.0803  0.2625
 4456W        W 8200   4.682   4.974   3.909 -0.1792  0.4939 -0.2801
 4457W        W 8201   3.017   2.559  11.428  0.2605 -0.0870  0.1459
 4458W        W 8202   2.229   4.917   0.544 -0.1614  0.0140  0.0531
 4459W        W 8203   0.165   8.785   9.648 -0.0680 -0.0242  0.0899
 4460W        W 8204   0.497   5.862   2.872 -0.0452 -0.1804 -0.2433
 4461W        W 8205   5.557   9.027   9.202 -0.0776  0.2984 -0.0541
 4462W        W 8206   1.304   8.922  11.531 -0.1114 -0.1988 -0.1561
 4463W        W 8207   9.045   0.823   2.570 -0.0306  0.5266  0.2537
 4464W        W 8208   7.048   8.182   0.692 -0.2527 -0.0686 -0.0441
 4465W        W 8209   8.893   9.671  10.964 -0.0364 -0.0688 -0.3132
 4466W        W 8210   4.136   3.654   0.668 -0.3193  0.0229 -0.0508
 4467W        W 8211   3.123   6.484  11.817  0.1717 -0.1833  0.3789
 4468W        W 8212   2.703   1.497  11.801  0.0786  0.2608 -0.2880
 4469W        W 8213   3.109   9.257   3.529 -0.0087 -0.1689 -0.1595
 4470W        W 8214   2.809   2.085  10.795 -0.1421 -0.0592 -0.1841
 4471W        W 8215   2.419   8.224   1.455  0.0455  0.0520  0.2367
 4472W        W 8216   9.334   4.812  12.877  0.1218  0.0957  0.0963
 4473W        W 8217   7.080   5.859  12.246  0.1174  0.0540  0.0294
 4474W        W 8218   4.341   4.920   2.532  0.0426  0.0871 -0.1458
 4475W        W 8219   8.709   5.093   1.640 -0.1331 -0.1881 -0.0112
 4476W        W 8220   3.922   6.812   4.109 -0.0845  0.0680 -0.1043
 4477W        W 8221   2.981   4.049  11.304 -0.3465  0.0875  0.2983
 4478W        W 8222   7.621   6.184   4.056  0.0655  0.1336  0.0486
 4479W        W 8223   4.525   7.741   3.698 -0.3156  0.2088 -0.1669
 4480W        W 8224   8.270   7.871   9.304  0.2034 -0.3153  0.1707
 4481W        W 8225   7.085   0.539   2.396 -0.2654  0.0873 -0.2021
 4482W        W 8226   6.562   6.349   3.288  0.0735  0.4084 -0.2027
 4483W        W 8227   8.083   2.432   1.262 -0.1338  0.1198 -0.0052
 4484W        W 8228   3.284   7.434   0.958  0.2206  0.1936  0.2411
 4485W        W 8229   6.691   4.589   9.198 -0.1138  0.1068 -0.0563
 4486W        W 8230   7.091   4.609  11.093 -0.4110  0.0479  0.0222
 4487W        W 8231   9.467   9.347   0.479  0.0096 -0.2668  0.1893
 4488W        W 8232   4.024   9.762   8.461  0.3876  0.1155  0.0076
 4489W        W 8233   0.816   2.369  10.216  0.0779 -0.0358  0.0727
 4490W        W 8234   4.667   2.650   0.384 -0.0879 -0.0259 -0.1193
 4491W        W 8235   4.213   2.788   0.480 -0.0151 -0.1609 -0.0068
 4492W        W 8236   5.628   7.305   8.480  0.1352  0.2780  0.2312
 4493W        W 8237   6.783   6.066   2.922  0.4046 -0.0005 -0.0149
 4494W        W 8238   5.646   0.307  12.034 -0.1365  0.2579 -0.1138
 4495W        W 8239   2.121   5.236   0.040 -0.2036 -0.2630  0.1022
 4496W        W 8240   0.071   5.592   2.793 -0.1301 -0.0345  0.0273
 4497W        W 8241   4.549   1.752   3.519  0.0135 -0.1358  0.0176
 4498W        W 8242   6.997   0.145   0.510 -0.2089  0.1505  0.0661
 4499W        W 8243   8.651   3.777  12.401 -0.1225 -0.4384 -0.0985
 4500W        W 8244   3.048   5.378  10.310 -0.3221  0.1280 -0.4757
 4501W        W 8245   3.444   2.176   1.881 -0.0904  0.0473  0.0804
 4502W        W 8246   8.624   8.976   0.110 -0.0744 -0.3475 -0.2461
 4503W        W 8247   9.635   7.810   0.924  0.1356  0.0342  0.0972
 4504W        W 8248   8.414   8.411   8.338 -0.1172  0.2822 -0.0528
 4505W        W 8249   2.485   0.777   0.465 -0.1318 -0.1195  0.3075
 4506W        W 8250   6.940   9.699   0.152  0.1911 -0.0644  0.0977
 4507W        W 8251   9.202   7.553   0.800  0.0946  0.2200  0.1105
 4508W        W 8252   4.265   3.859   8.769  0.1884  0.0694  0.0507
 4509W        W 8253   2.590   4.882   2.674  0.2001 -0.0902  0.2561
 4510W        W 8254   4.746   1.431   1.464 -0.5546 -0.1363  0.0865
 4511W        W 8255   4.241   4.905  11.996  0.0416  0.0984 -0.2146
 4512W        W 8256   9.389   0.123   3.201  0.1401  0.0737 -0.3906
 4513W        W 8257   2.571   3.507   8.882  0.0460 -0.2422  0.1808
 4514W        W 8258   4.848   5.985   2.009 -0.0331 -0.2444 -0.2770
 4515W        W 8259   0.316   4.995   0.367  0.1267 -0.0697 -0.0186
 4516W        W 8260   6.435   7.724   9.484 -0.1979  0.0249 -0.1320
 4517W        W 8261   5.454   5.695  11.902  0.0644  0.0753 -0.0411
 4518W        W 8262   1.798   8.646  11.847  0.0317  0.0903  0.2859
 4519W        W 8263   8.462   5.273  12.587  0.3031  0.1212  0.2666
 4520W        W 8264   7.929   4.355   3.881  0.0098 -0.3372  0.1939
 4521W        W 8265   8.084   9.519  10.191  0.0058 -0.3178  0.2789
 4522W        W 8266   4.687   8.107   9.565 -0.1539  0.0214  0.4186
 4523W        W 8267   1.336   9.097   9.800  0.3765 -0.2195  0.0249
 4524W        W 8268   6.393   5.126   9.292  0.0763  0.2276  0.0896
 4525W        W 8269   3.055   2.413   4.082  0.1911 -0.0769 -0.1330
 4526W        W 8270   8.239   6.168   2.846  0.1095  0.1107 -0.2951
 4527W        W 8271   5.487   0.552   0.473 -0.0479 -0.1732 -0.2858
 4528W        W 8272   9.654   7.146  10.366 -0.1335  0.0257 -0.1016
 4529W        W 8273   7.676   8.369  11.830 -0.0509 -0.0681  0.1956
 4530W        W 8274   7.419   8.626  11.237 -0.3322 -0.1086  0.0563
 4531W        W 8275   4.158   9.397   8.925 -0.2108 -0.3149  0.0446
 4532W        W 8276   7.444   0.794  11.612 -0.0306 -0.0970  0.1871
 4533W        W 8277   4.246   8.136  12.261 -0.0061  0.0004  0.0996
 4534W        W 8278   1.337   6.979  11.380  0.2391 -0.1164  0.0419
 4535W        W 8279   0.676   8.346  12.615  0.0864  0.0856  0.2134
 4536W        W 8280   7.845   6.343   3.192 -0.1095  0.0113  0.0349
 4537W        W 8281   0.744   5.042   1.303  0.0816 -0.3683  0.0097
 4538W        W 8282   8.841   7.865   1.558 -0.1691  0.1035  0.1775
 4539W        W 8283   2.745   0.277  11.427 -0.2389 -0.1264 -0.1387
 4540W        W 8284   1.953   5.267  12.046  0.3072 -0.0440  0.2038
 4541W        W 8285   2.536   4.443  10.550  0.2485  0.1795  0.2675
 4542W        W 8286   3.024   8.994  11.430 -0.1052 -0.0538  0.2281
 4543W        W 8287   4.977   1.813   0.745 -0.0709 -0.3023 -0.0406
 4544W        W 8288   4.504   7.429  11.885 -0.2609  0.1514  0.1974
 4545W        W 8289   8.944   7.548   2.441 -0.1120  0.0814  0.3840
 4546W        W 8290   4.040   8.984   9.959 -0.0533 -0.2689  0.3353
 4547W        W 8291   7.177   5.902  11.405 -0.0328 -0.1684 -0.1763
 4548W        W 8292   4.924   0.944   0.953 -0.3001 -0.0180 -0.1125
 4549W        W 8293   2.101   2.310   2.802 -0.0165  0.0675 -0.3246
 4550W        W 8294   6.742   1.106  11.447  0.0887 -0.0490  0.0816
 4551W        W 8295   8.542   4.071   0.557  0.0671  0.0574  0.1173
 4552W        W 8296   3.646   6.302  12.048 -0.1873  0.2288  0.0251
 4553W        W 8297   2.659   6.346   0.612  0.1485  0.0888  0.0279
 4554W        W 8298   6.142   6.793   8.011  0.2178 -0.1579 -0.1078
 4555W        W 8299   5.609   8.779   3.529 -0.0462 -0.2110 -0.0233
 4556W        W 8300   7.701   1.103  11.881  0.1380  0.1991 -0.2536
 4557W        W 8301   4.257   1.766  10.163  0.0254 -0.0221 -0.2184
 4558W        W 8302   6.633   9.070   2.890  0.0636  0.0415  0.2604
 4559W        W 8303   3.920   0.601   9.663 -0.0794  0.0412 -0.2249
 4560W        W 8304   7.870   7.804   9.001 -0.1389 -0.0142  0.2518
 4561W        W 8305   5.822   4.894  11.679 -0.5891 -0.0596 -0.4368
 4562W        W 8306   4.273   1.282   9.344  0.5899  0.0340  0.1727
 4563W        W 8307   6.670   6.209   0.649 -0.1024  0.1119  0.2365
 4564W        W 8308   8.415   5.376  12.005 -0.2741  0.0091  0.0303
 4565W        W 8309   7.336   6.202  10.847 -0.2059  0.2286 -0.0594
 4566W        W 8310   3.669   2.336   8.472 -0.0947 -0.3314 -0.2172
 4567W        W 8311   2.935   6.062   1.120  0.1258  0.0351  0.1647
 4568W        W 8312   5.015   7.749   9.410  0.0587 -0.1666  0.1680
 4569W        W 8313   0.322   4.124   9.499 -0.1622  0.3563  0.0711
 4570W        W 8314   5.301   8.999   1.064  0.2556 -0.3521 -0.1193
 4571W        W 8315   6.839   8.786   0.068 -0.0549  0.0181 -0.2097
 4572W        W 8316   5.478   3.672  12.560 -0.1234  0.1557  0.2265
 4573W        W 8317   1.697   6.693   1.954 -0.0122 -0.0356 -0.2835
 4574W        W 8318   0.746   2.788  10.443 -0.1625  0.0646 -0.1890
 4575W        W 8319   6.689   1.770   1.973 -0.0706 -0.2632  0.1789
 4576W        W 8320   7.207   0.962   4.807 -0.0733 -0.0312 -0.1038
 4577W        W 8321   7.002   3.099   0.512  0.1412  0.0773 -0.3127
 4578W        W 8322   0.818   0.200   8.760  0.0908  0.2466 -0.0928
 4579W        W 8323   8.198   4.449   0.765 -0.0075  0.2448  0.0677
 4580W        W 8324   9.880   9.550   3.778  0.2853  0.3939  0.1335
 4581W        W 8325   3.331   5.539  12.229  0.0471  0.1454 -0.0825
 4582W        W 8326   1.465   9.617   1.275  0.1616  0.0066  0.2024
 4583W        W 8327   5.223   6.385   1.825 -0.0394 -0.2741  0.1544
 4584W        W 8328   1.980   5.267   1.814  0.4485 -0.1102 -0.0828
 4585W        W 8329   9.122   3.955   1.397  0.0640 -0.2977 -0.0866
 4586W        W 8330   2.319   4.845  11.807  0.1085  0.0753  0.0142
 4587W        W 8331   7.839   8.447  12.756 -0.1761 -0.0071  0.0818
 4588W        W 8332   8.543   0.161   2.962 -0.0250  0.1531  0.0610
 4589W        W 8333   6.617   3.650  12.692  0.0575 -0.1639 -0.1343
 4590W        W 8334   6.935   2.866  10.038 -0.1228  0.1999  0.1690
 4591W        W 8335   1.388   1.374   0.617 -0.0253 -0.0642 -0.0879
 4592W        W 8336   6.736   8.668   9.498 -0.0648  0.0679 -0.1420
 4593W        W 8337   3.096   2.693   1.055  0.1170 -0.1122 -0.1472
 4594W        W 8338   7.694   9.107   2.785 -0.3033 -0.2827  0.2989
 4595W        W 8339   2.672   9.332   3.986 -0.0617 -0.1317 -0.1596
 4596W        W 8340   7.228   5.055  10.959 -0.3384  0.0994 -0.2732
 4597W        W 8341   1.038   6.172   9.464  0.0446 -0.1688 -0.2539
 4598W        W 8342   4.732   5.787   2.405  0.1107  0.1102  0.1604
 4599W        W 8343   7.490   5.460   1.901 -0.1333  0.0995  0.1569
 4600W        W 8344   7.159   1.324  11.622  0.0528 -0.1555  0.0696
 4601W        W 8345   3.114   1.117  10.657 -0.0919  0.0474  0.1950
 4602W        W 8346   0.425   8.982   1.513 -0.0566 -0.2197 -0.1637
 4603W        W 8347   6.006   6.877   4.505 -0.1606  0.0912 -0.0067
 4604W        W 8348   8.184   3.221   2.249  0.0590  0.1268  0.3946
 4605W        W 8349   4.792   5.648   9.161 -0.0765 -0.0579  0.2924
 4606W        W 8350   1.973   8.672   2.185 -0.0322  0.2774  0.1917
 4607W        W 8351   4.614   4.088   1.072 -0.2974  0.1141 -0.2366
 4608W        W 8352   4.301   2.900   8.515 -0.1577  0.2257 -0.2444
 4609W        W 8353   4.364   9.091   1.011  0.2737 -0.1738 -0.0203
 4610W        W 8354   5.130   6.052  12.184  0.4147 -0.1334 -0.0711
 4611W        W 8355   5.082   3.030   9.741  0.0074  0.1985 -0.1586
 4612W        W 8356   1.539   0.398   9.093 -0.0629 -0.2848 -0.0284
 4613W        W 8357   8.053   9.185  11.722  0.0379  0.0050  0.2905
 4614W        W 8358   0.008   4.746  10.282  0.1804 -0.3916 -0.4431
 4615W        W 8359   4.701   3.965   4.536 -0.1173 -0.1281 -0.0324
 4616W        W 8360   0.650   5.674   7.589  0.3151 -0.1250  0.0710
 4617W        W 8361   0.717   7.461  12.610 -0.1590 -0.2113  0.4192
 4618W        W 8362   3.956   9.545   9.427 -0.3386 -0.2619  0.0259
 4619W        W 8363   3.399   9.571   9.466  0.0588  0.2297 -0.1816
 4620W        W 8364   1.787   7.379   2.396 -0.3347 -0.0583 -0.0957
 4621W        W 8365   5.695   0.967   3.063  0.0626  0.0007  0.0816
 4622W        W 8366   5.549   4.293   0.988 -0.0571  0.1903 -0.1769
 4623W        W 8367   6.687   8.956  11.235 -0.1030  0.0223 -0.2551
 4624W        W 8368   9.879   2.879   3.104 -0.0539 -0.1359 -0.2123
 4625W        W 8369   8.640   8.739   3.446  0.1432  0.0636  0.0623
 4626W        W 8370   4.964   8.923   2.628  0.1202 -0.2028  0.0015
 4627W        W 8371   0.171   4.581   2.134 -0.0832  0.2585 -0.1561
 4628W        W 8372   9.703   1.384  10.342  0.1376 -0.1824 -0.1043
 4629W        W 8373   2.667   7.861  12.353  0.1917  0.0552  0.3324
 4630W        W 8374   3.041   0.005  12.885 -0.0155  0.0069 -0.1604
 4631W        W 8375   6.759   1.722   3.082  0.3769  0.0674  0.1669
 4632W        W 8376   3.684   6.548  12.826  0.2226  0.0472  0.0016
 4633W        W 8377   3.421   2.399  10.396 -0.1291  0.2268  0.0648
 4634W        W 8378   2.231   5.975  12.085  0.0686  0.1485 -0.2734
 4635W        W 8379   1.280   2.245   1.214  0.1061 -0.0521  0.0408
 4636W        W 8380   9.511   5.460   0.642  0.3409  0.0473 -0.6359
 4637W        W 8381   1.015   7.620  10.799 -0.0521 -0.2181  0.3488
 4638W        W 8382   7.394   3.277   2.954  0.4788 -0.0377 -0.1218
 4639W        W 8383   5.219   7.319   4.036  0.3013 -0.0330 -0.2105
 4640W        W 8384   2.382   3.722   1.533 -0.2998  0.0628  0.4574
 4641W        W 8385   6.863   7.877   8.944  0.1500  0.0291 -0.3149
 4642W        W 8386   4.384   7.054   1.464  0.1053 -0.0287 -0.0076
 4643W        W 8387   8.257   2.115   0.844  0.1213 -0.1846 -0.2311
 4644W        W 8388   7.640   9.805   1.159  0.0616 -0.0208 -0.1812
 4645W        W 8389   7.712   4.505   2.019 -0.1437 -0.0201 -0.2442
 4646W        W 8390   5.800   8.688  11.957 -0.1357  0.3485  0.0158
 4647W        W 8391   5.792   8.114   1.573  0.3275  0.1536 -0.1908
 4648W        W 8392   5.413   7.833   0.302  0.1923  0.0337  0.3036
 4649W        W 8393   6.921   4.767   1.456 -0.0252 -0.3893 -0.1403
 4650W        W 8394   4.488   5.473  11.280  0.0842 -0.1734 -0.2372
 4651W        W 8395   1.140   5.639  10.858 -0.2352  0.4077  0.2571
 4652W        W 8396   7.103   5.417   0.841 -0.1365 -0.0230  0.0641
 4653W        W 8397   4.311   1.347   1.291  0.0649 -0.2023  0.1913
 4654W        W 8398   2.136   7.809   1.646 -0.1975 -0.1626 -0.0036
 4655W        W 8399   9.483   3.395   0.898  0.0056 -0.0354 -0.2224
 4656W        W 8400   4.558   0.875   3.119  0.0887  0.0390  0.0415
 4657W        W 8401   6.344   1.972   1.592 -0.1660 -0.2309  0.0481
 4658W        W 8402   4.310   8.150   0.113 -0.1410 -0.0493 -0.1431
 4659W        W 8403   3.281   1.029   9.736  0.1457  0.0690 -0.1334
 4660W        W 8404   8.865   0.153  10.010  0.2048  0.4600  0.1932
 4661W        W 8405   3.146   5.069   1.273  0.2515 -0.2365 -0.0246
 4662W        W 8406   5.299   0.310   3.412 -0.1495  0.0114  0.0602
 4663W        W 8407   8.508   3.144   8.678  0.1319 -0.2051  0.1514
 4664W        W 8408   2.410   4.414  12.021 -0.0249  0.0701  0.0923
 4665W        W 8409   3.107   2.704  12.479 -0.0260  0.0819 -0.0656
 4666W        W 8410   7.694   9.044  11.118  0.1602 -0.3699  0.2712
 4667W        W 8411   4.344   2.274   0.269 -0.0395  0.2204  0.1518
 4668W        W 8412   7.471   5.261   4.078  0.2829  0.1908 -0.1859
 4669W        W 8413   5.947   0.543   9.423  0.1081  0.0005  0.3389
 4670W        W 8414   2.608   8.114   2.596  0.2076 -0.1608 -0.2000
 4671W        W 8415   6.114   8.889   0.783 -0.1769  0.1808  0.2571
 4672W        W 8416   2.230   6.177   6.724  0.0113  0.0328  0.0777
 4673W        W 8417   3.070   4.190   9.994  0.2336  0.1685  0.3616
 4674W        W 8418   3.495   6.928  12.518 -0.5295  0.1691 -0.0534
 4675W        W 8419   3.575   2.399   4.202 -0.1171  0.2369  0.0983
 4676W        W 8420   0.182   9.288   0.845  0.4126  0.0194 -0.0049
 4677W        W 8421   8.677   5.435   9.678  0.0321  0.0817  0.2131
 4678W        W 8422   6.955   4.125   0.387  0.1751  0.2335 -0.1685
 4679W        W 8423   9.001   5.888   9.682 -0.0088 -0.0520 -0.2312
 4680W        W 8424   3.126   5.595  11.656 -0.3437  0.4915  0.2075
 4681W        W 8425   1.074   4.081   2.562  0.0534  0.4231 -0.1925
 4682W        W 8426   3.861   9.203   4.227 -0.0602 -0.3709  0.1860
 4683W        W 8427   8.820   8.698   0.495  0.0166 -0.0512  0.1603
 4684W        W 8428   2.422   2.618   3.994  0.2935  0.0548  0.2177
 4685W        W 8429   8.240   3.672  10.613 -0.1939  0.1211  0.0860
 4686W        W 8430   0.045   8.498   3.168  0.2498  0.0855  0.0054
 4687W        W 8431   3.498   9.860   8.550  0.0118 -0.0886  0.1297
 4688W        W 8432   1.498   6.510   1.017 -0.0460  0.0349 -0.1398
 4689W        W 8433   5.500   8.160   0.718  0.1579  0.0087 -0.0730
 4690W        W 8434   7.710   6.083  11.650  0.0799  0.1663 -0.1271
 4691W        W 8435   2.215   3.554   2.004 -0.2802  0.3888 -0.0688
 4692W        W 8436   8.520   8.101  12.130  0.0080 -0.1245 -0.0239
 4693W        W 8437   5.502   4.692  11.978 -0.1728 -0.1484  0.0848
 4694W        W 8438   9.328   0.315   3.729 -0.0457  0.3181 -0.0212
 4695W        W 8439   2.141   2.351   4.789  0.2366 -0.2200  0.1279
 4696W        W 8440   2.779   8.802   2.697 -0.3437 -0.1646 -0.1513
 4697W        W 8441   5.011   3.050   0.262  0.0912  0.0061  0.1384
 4698W        W 8442   1.127   2.845  11.258  0.0044  0.3425 -0.1372
 4699W        W 8443   1.999   5.523  10.284 -0.1582  0.0861 -0.3251
 4700W        W 8444   8.339   7.070  10.571 -0.0163  0.3084  0.2324
 4701W        W 8445   0.361   7.838   1.079 -0.0829 -0.0280 -0.0196
 4702W        W 8446   1.850   6.521   2.978 -0.0090 -0.1403 -0.3651
 4703W        W 8447   0.248   5.779   5.321  0.2956 -0.0528  0.0272
 4704W        W 8448   5.923   5.753   0.298  0.0443  0.2808  0.0293
 4705W        W 8449   1.220   0.248   3.704 -0.2486  0.1638  0.0325
 4706W        W 8450   2.498   0.364  10.243  0.1696  0.4793 -0.0277
 4707W        W 8451   1.188   9.787   2.473  0.0972  0.0258 -0.1874
 4708W        W 8452   1.535   0.218  10.125 -0.2068 -0.3013  0.1032
 4709W        W 8453   0.304   2.001  12.344  0.1022 -0.2589  0.1857
 4710W        W 8454   8.729   7.383  12.748 -0.3703 -0.1148 -0.0961
 4711W        W 8455   8.276   6.749  10.955  0.2090  0.0386 -0.0093
 4712W        W 8456   8.294   6.219  11.774  0.4106  0.0280  0.0489
 4713W        W 8457   3.771   1.473   9.441  0.1293 -0.1328  0.2201
 4714W        W 8458   5.296   3.515  10.170 -0.0919 -0.0445  0.0414
 4715W        W 8459   0.994   7.859   0.460  0.3316 -0.0434 -0.2813
 4716W        W 8460   9.242   2.695  10.214  0.1621  0.2154 -0.3260
 4717W        W 8461   9.517   1.045  12.780  0.0158 -0.0070  0.2453
 4718W        W 8462   9.094   8.632   3.222  0.1538  0.0218 -0.1127
 4719W        W 8463   5.415   6.419   4.449 -0.1528  0.2068 -0.0059
 4720W        W 8464   6.334   0.264   9.373 -0.1838 -0.1948  0.1425
 4721W        W 8465   6.976   0.112  12.664 -0.0135 -0.1174 -0.2165
 4722W        W 8466   2.716   0.126   8.897 -0.1253  0.0836  0.2993
 4723W        W 8467   5.579   6.926   8.824  0.1394  0.0543 -0.1179
 4724W        W 8468   4.887   9.585   1.878 -0.0984  0.1336  0.3820
 4725W        W 8469   0.190   0.376   2.809 -0.1992  0.2343  0.0820
 4726W        W 8470   0.457   0.727  10.378 -0.0426  0.0959 -0.0425
 4727W        W 8471   2.453   9.790   1.977 -0.1573  0.1362  0.4264
 4728W        W 8472   1.952   9.849   9.639  0.1736 -0.1737 -0.2134
 4729W        W 8473   5.293   3.681   1.573  0.1974  0.1367  0.1246
 4730W        W 8474   4.664   2.818   3.404  0.1618  0.1518 -0.2130
 4731W        W 8475   3.895   5.567   3.792 -0.1928 -0.0802 -0.0692
 4732W        W 8476   5.885   2.315  12.308  0.0499  0.2873 -0.1455
 4733W        W 8477   6.698   2.100   4.009  0.1278 -0.3481 -0.2738
 4734W        W 8478   8.214   5.632   9.483  0.0766 -0.0692  0.1543
 4735W        W 8479   1.687   2.455   9.089 -0.1830 -0.0971  0.0885
 4736W        W 8480   5.028   2.287   3.505  0.0610  0.2553  0.1405
 4737W        W 8481   4.476   9.411  10.246 -0.0299 -0.2660  0.2419
 4738W        W 8482   8.427   2.222  12.242 -0.1298 -0.0442  0.0530
 4739W        W 8483   5.911   1.534   0.542 -0.0275 -0.1902  0.1210
 4740W        W 8484   4.065   1.266   8.517  0.2567 -0.0966 -0.1614
 4741W        W 8485   5.833   7.746  12.928 -0.0357 -0.2143 -0.2892
 4742W        W 8486   2.396   3.952   9.127 -0.0836 -0.0601 -0.1182
 4743W        W 8487   4.943   6.104   0.128  0.0936 -0.0895 -0.4322
 4744W        W 8488   0.351   4.062  10.176 -0.3093  0.2140 -0.1117
 4745W        W 8489   5.048   0.750   1.478  0.3710 -0.4264  0.0754
 4746W        W 8490   6.832   8.992   8.424 -0.0991 -0.1387  0.5082
 4747W        W 8491   6.703   8.861   8.937 -0.2154  0.1489  0.0998
 4748W        W 8492   0.298   7.238  12.865  0.0664  0.0345  0.2856
 4749W        W 8493   8.965   6.556   0.146 -0.1712 -0.2087  0.4563
 4750W        W 8494   5.118   8.017  11.061  0.1524  0.1526  0.0439
 4751W        W 8495   1.833   3.151   0.195 -0.0899  0.2912 -0.4645
 4752W        W 8496   8.234   9.796  11.099 -0.0268  0.1560 -0.3792
 4753W        W 8497   8.636   2.518  10.867 -0.0699  0.0027  0.0440
 4754W        W 8498   6.238   0.545  12.766  0.0722  0.1779 -0.0560
 4755W        W 8499   7.171   2.180   3.838 -0.2936 -0.1137  0.1148
 4756W        W 8500   7.999   9.789   3.572 -0.1301  0.1642 -0.0270
 4757W        W 8501   8.966   2.613  11.391 -0.1200  0.1514  0.2186
 4758W        W 8502   5.166   4.675   1.703  0.4016  0.2391  0.1538
 4759W        W 8503   5.391   4.946   0.394  0.2192  0.2489 -0.1441
 4760W        W 8504   3.657   4.787   0.304  0.1311  0.1519 -0.1628
 4761W        W 8505   8.638   5.207   8.732 -0.0278  0.0132 -0.1223
 4762W        W 8506   8.239   1.486   1.673 -0.1458 -0.1782 -0.1702
 4763W        W 8507   9.458   2.598   9.689  0.2291 -0.0127  0.3873
 4764W        W 8508   0.513   9.851   9.134 -0.3670  0.0194  0.2632
 4765W        W 8509   5.007   2.987  12.644  0.2075 -0.3350 -0.1960
 4766W        W 8510   8.719   7.561   2.874  0.0307  0.1383 -0.0307
 4767W        W 8511   0.604   4.688   2.793  0.1277  0.1134  0.1408
 4768W        W 8512   4.797   9.666  12.084  0.0448  0.1884  0.1230
 4769W        W 8513   8.389   2.038   1.847 -0.0742 -0.0197  0.0046
 4770W        W 8514   2.484   5.964  12.559  0.1489 -0.0397  0.2448
 4771W        W 8515   6.524   5.905   9.367  0.3028 -0.1131 -0.0731
 4772W        W 8516   8.022   5.792  11.906  0.1649  0.2074 -0.2941
 4773W        W 8517   4.031   2.593   8.801 -0.2243  0.1539 -0.1007
 4774W        W 8518   7.503   7.053   0.290 -0.5750 -0.3047  0.0462
 4775W        W 8519   8.802   3.972  12.931  0.2807  0.1417 -0.0967
 4776W        W 8520   0.974   8.577   9.129  0.0562  0.2221 -0.0431
 4777W        W 8521   7.175   9.810   0.968 -0.3137  0.0587  0.0330
 4778W        W 8522   6.506   6.835  12.776 -0.3719  0.0989 -0.3532
 4779W        W 8523   0.572   1.598   1.013  0.1333  0.2616  0.1133
 4780W        W 8524   6.506   4.850   2.351  0.3155 -0.1584 -0.5347
 4781W        W 8525   6.105   7.852  11.317 -0.0583 -0.3938 -0.1531
 4782W        W 8526   9.106   1.982  12.732  0.0491  0.0860 -0.1816
 4783W        W 8527   4.522   5.902   1.600  0.0355 -0.1745 -0.2393
 4784W        W 8528   8.167   1.911   2.821  0.3282 -0.1608 -0.1127
 4785W        W 8529   6.702   2.921   2.889 -0.1357 -0.0211  0.0849
 4786W        W 8530   7.664   3.970   3.668 -0.1227  0.0079  0.2243
 4787W        W 8531   4.692   3.575  10.568  0.1103 -0.0924  0.3948
 4788W        W 8532   8.854   0.861   9.983  0.2463  0.0465 -0.0436
 4789W        W 8533   3.074   3.355   9.242 -0.4182  0.0570  0.0573
 4790W        W 8534   1.922   8.895   3.202  0.1730  0.1194 -0.0076
 4791W        W 8535   3.940   2.628  12.247 -0.1059  0.0624 -0.0923
 4792W        W 8536   2.920   3.535   3.611 -0.2863 -0.0107 -0.1769
 4793W        W 8537   7.090   4.098   2.980  0.1704  0.2972  0.2518
 4794W        W 8538   3.210   3.121  12.126  0.2509  0.0635  0.1937
 4795W        W 8539   7.949   8.202   4.048  0.0965 -0.0887 -0.0015
 4796W        W 8540   3.528   2.749   9.663  0.1512  0.0137  0.1967
 4797W        W 8541   5.366   1.521  12.590 -0.2442  0.0887  0.2928
 4798W        W 8542   0.505   4.440  11.903  0.0629  0.1811  0.0182
 4799W        W 8543   7.009   8.838   1.966  0.1979 -0.2976  0.0032
 4800W        W 8544   0.946   8.703   1.555  0.1000 -0.1807 -0.0522
 4801W        W 8545   1.172   3.225   1.267  0.0786  0.1750  0.0596
 4802W        W 8546   6.921   4.287   0.931 -0.0943  0.0374 -0.0231
 4803W        W 8547   7.319   7.508   1.794  0.1565 -0.1180 -0.2321
 4804W        W 8548   6.538   9.654  12.823  0.1096 -0.1437 -0.1460
 4805W        W 8549   6.808   0.176  10.994  0.2103  0.0579  0.1567
 4806W        W 8550   4.499   2.556   8.980 -0.0719  0.1478 -0.1941
 4807W        W 8551   4.433   1.276  10.305  0.1781 -0.0328  0.1969
 4808W        W 8552   5.945   8.070   3.057  0.2160  0.3787  0.0030
 4809W        W 8553   6.922   7.981  12.816 -0.2960  0.0646  0.1470
 4810W        W 8554   8.837   1.320   4.230 -0.1531 -0.1751  0.2874
 4811W        W 8555   8.307   2.018   2.362 -0.0325  0.0228 -0.1906
 4812W        W 8556   7.964   5.617   8.626 -0.4266 -0.1383 -0.1476
 4813W        W 8557   6.424   4.933   4.966  0.0198 -0.0385  0.0048
 4814W        W 8558   0.764   0.046   0.324  0.0977 -0.0238  0.2029
 4815W        W 8559   4.712   4.242  12.571  0.0800  0.1247 -0.1039
 4816W        W 8560   2.569   2.362   1.089  0.0462 -0.1080 -0.0112
 4817W        W 8561   0.848   5.146  11.069  0.0599  0.0798  0.3633
 4818W        W 8562   6.087   7.770   4.852 -0.0838  0.4353 -0.0165
 4819W        W 8563   7.113   7.828   2.955  0.1479 -0.3709  0.1248
 4820W        W 8564   9.078   2.780   1.606 -0.1681 -0.4559 -0.0219
 4821W        W 8565   6.969   4.591   0.518  0.1640 -0.0605 -0.1128
 4822W        W 8566   6.047   4.199   1.384  0.1292  0.0733 -0.2676
 4823W        W 8567   5.458   8.272  11.617 -0.4291  0.2930  0.3023
 4824W        W 8568   0.691   2.458   4.107  0.2239  0.0254  0.1914
 4825W        W 8569   5.460   4.177  12.261 -0.1424 -0.1954 -0.4370
 4826W        W 8570   9.782   9.283   8.882 -0.3444  0.1361  0.0810
 4827W        W 8571   2.852   4.783  10.725  0.0095  0.0470 -0.1153
 4828W        W 8572   7.049   1.601   1.224 -0.0372  0.1980 -0.0632
 4829W        W 8573   7.084   3.803  12.925 -0.0712 -0.2210 -0.2430
 4830W        W 8574   5.170   2.659   0.615 -0.0610  0.0303  0.0442
 4831W        W 8575   2.201   8.323   2.430 -0.0091 -0.0404  0.2193
 4832W        W 8576   5.360   7.435  10.913  0.1158  0.0591 -0.1422
 4833W        W 8577   9.546   8.258  12.223  0.1879 -0.1188  0.0080
 4834W        W 8578   4.398   5.943  11.630 -0.0614  0.1230  0.1016
 4835W        W 8579   5.182   6.590   8.023  0.1362  0.1034 -0.0279
 4836W        W 8580   0.850   4.431   0.057  0.3025 -0.2249 -0.0983
 4837W        W 8581   0.151   5.967   1.321  0.1343  0.0983 -0.0601
 4838W        W 8582   6.865   7.580  12.434  0.3746  0.0504 -0.1627
 4839W        W 8583   4.316   1.390   3.845  0.2255 -0.1461  0.0658
 4840W        W 8584   9.254   1.407   0.637  0.0569 -0.0113  0.2242
 4841W        W 8585   9.761   3.670   1.329  0.2363 -0.3465 -0.0565
 4842W        W 8586   6.122   9.828   8.552  0.2171 -0.0154 -0.0165
 4843W        W 8587   9.127   2.255   9.826 -0.0542  0.0259 -0.3522
 4844W        W 8588   6.226   7.213   3.627  0.1048 -0.0440 -0.0065
 4845W        W 8589   8.199   3.547   1.264 -0.3748  0.1451  0.2902
 4846W        W 8590   7.551   4.284   9.753  0.3844 -0.1056 -0.4643
 4847W        W 8591   3.092   9.594   1.314  0.0333 -0.2463  0.1603
 4848W        W 8592   2.007   8.449  11.056  0.1329 -0.2337  0.0163
 4849W        W 8593   9.575   8.697   3.499  0.1521 -0.2801 -0.0019
 4850W        W 8594   1.133   1.539   0.192 -0.0346  0.0922 -0.0701
 4851W        W 8595   8.427   0.181   9.449 -0.0717  0.0888  0.0616
 4852W        W 8596   6.914   3.023   4.216  0.2166  0.0316  0.0259
 4853W        W 8597   7.838   5.648   3.338 -0.0650  0.0454  0.2600
 4854W        W 8598   1.201   5.820  11.792  0.1349 -0.0212 -0.1756
 4855W        W 8599   0.928   7.794  11.832 -0.1050 -0.0932 -0.0016
 4856W        W 8600   9.040   4.304  10.759  0.1583  0.1074  0.0198
 4857W        W 8601   8.256   3.757   9.319 -0.2036 -0.0798 -0.0969
 4858W        W 8602   3.887   9.517  10.040  0.0678 -0.3053 -0.2522
 4859W        W 8603   2.285   9.796  10.102 -0.3222 -0.0444  0.0386
 4860W        W 8604   6.876   3.169  11.899 -0.1041 -0.1084  0.0303
 4861W        W 8605   9.442   3.878   0.987  0.1518  0.3960 -0.1470
 4862W        W 8606   1.975   1.242  12.296 -0.1447  0.0275 -0.3242
 4863W        W 8607   0.416   3.031   2.869 -0.0429 -0.0559  0.2005
 4864W        W 8608   9.367   4.095   3.693  0.0293  0.1676  0.0437
 4865W        W 8609   1.009   4.545   2.533 -0.3072 -0.0522  0.1304
 4866W        W 8610   6.662   1.337   1.060 -0.3060 -0.0406 -0.1821
 4867W        W 8611   9.894   0.574   4.187  0.2298  0.1129  0.0185
 4868W        W 8612   6.674   6.952  11.194  0.1869 -0.0693 -0.3263
 4869W        W 8613   6.796   1.764  11.665  0.2037 -0.2245 -0.0917
 4870W        W 8614   1.831   4.101   0.958  0.1459  0.2548 -0.3092
 4871W        W 8615   9.751   9.419   0.022  0.1087 -0.0773  0.0169
 4872W        W 8616   5.705   8.453  12.441  0.0195 -0.4154 -0.0032
 4873W        W 8617   3.532   4.095  10.305 -0.1890 -0.1038 -0.0355
 4874W        W 8618   1.930   0.910   3.305 -0.2508  0.1779  0.0483
 4875W        W 8619   8.294   6.511   3.238 -0.1623  0.1110 -0.0060
 4876W        W 8620   3.739   4.571   1.907  0.0298 -0.0153 -0.1541
 4877W        W 8621   9.514   7.490   9.742  0.1284 -0.2577  0.1774
 4878W        W 8622   0.542   3.184   9.205  0.1695  0.1390 -0.1468
 4879W        W 8623   6.724   5.423   3.921  0.1306  0.1607  0.2719
 4880W        W 8624   6.548   3.036   2.388 -0.0321 -0.1937  0.1467
 4881W        W 8625   2.714   7.698  10.844 -0.2817  0.1794 -0.1136
 4882W        W 8626   4.055   7.474  11.649  0.0237  0.0347  0.0055
 4883W        W 8627   9.546   3.016  10.962 -0.1900  0.1292 -0.2299
 4884W        W 8628   9.774   4.248   1.955 -0.0109  0.0291 -0.0628
 4885W        W 8629   3.425   6.994   0.664  0.4158 -0.2496 -0.0242
 4886W        W 8630   8.897   8.573  10.335  0.0379  0.0850 -0.0125
 4887W        W 8631   6.220   9.701   2.196  0.1950 -0.0420 -0.0483
 4888W        W 8632   3.898   3.739  10.192 -0.1213  0.0978 -0.1845
 4889W        W 8633   2.861   0.695   3.302 -0.0640  0.2034  0.0458
 4890W        W 8634   7.423   0.157   0.072 -0.1564 -0.0386  0.2350
 4891W        W 8635   3.318   7.762   1.610  0.0253  0.1011  0.2022
 4892W        W 8636   4.237   9.806  10.383  0.2867  0.0930  0.1015
 4893W        W 8637   0.535   8.830   2.651 -0.2556 -0.1811 -0.4082
 4894W        W 8638   7.663   9.197  12.113  0.0742  0.1610 -0.0301
 4895W        W 8639   2.234   0.092   4.821  0.0298 -0.2630 -0.0100
 4896W        W 8640   4.427   6.833  11.146  0.0851 -0.0076  0.1026
 4897W        W 8641   9.510   4.615   1.712 -0.1703  0.4386  0.1262
 4898W        W 8642   4.556   8.947  10.111 -0.2268  0.1093 -0.1477
 4899W        W 8643   3.110   4.212   9.474  0.0942  0.2503 -0.4379
 4900W        W 8644   2.206   3.664   9.766  0.0141 -0.3029  0.1717
 4901W        W 8645   2.831   0.789   9.681  0.3224  0.3900 -0.0705
 4902W        W 8646   7.763   5.543  10.168 -0.2614 -0.0547  0.0672
 4903W        W 8647   4.572   3.977  11.872  0.1047  0.1813 -0.0512
 4904W        W 8648   8.944   3.341  11.974  0.1183  0.1677 -0.2598
 4905W        W 8649   5.445   1.024   2.054  0.0483  0.1654 -0.0597
 4906W        W 8650   7.944   6.980   2.438  0.2136  0.0043  0.3527
 4907W        W 8651   2.691   2.161   3.788 -0.1419 -0.1105  0.1514
 4908W        W 8652   9.227   7.933   0.071  0.1526 -0.0252 -0.0698
 4909W        W 8653   0.024   8.028  12.473 -0.2583  0.2032  0.0951
 4910W        W 8654   3.603   9.357   3.645 -0.2341  0.1117  0.1353
 4911W        W 8655   1.112   1.786   0.907 -0.1618  0.2140 -0.1297
 4912W        W 8656   6.522   7.669   8.543 -0.2777 -0.0564  0.0177
 4913W        W 8657   7.991   9.058   4.847  0.4603 -0.0683  0.0445
 4914W        W 8658   5.674   6.160  11.452 -0.1010  0.0443 -0.1230
 4915W        W 8659   7.752   2.512   3.868  0.0227  0.1134 -0.0019
 4916W        W 8660   3.817   7.890   0.199 -0.4311  0.0562 -0.1637
 4917W        W 8661   9.006   2.691   9.293 -0.1844  0.2703 -0.1355
 4918W        W 8662   8.022   2.233   4.793  0.2851 -0.0268 -0.0380
 4919W        W 8663   6.510   1.842  10.549  0.0317 -0.2655  0.1775
 4920W        W 8664   4.301   6.270   3.649  0.3451 -0.2290  0.0160
 4921W        W 8665   3.929   5.672  11.410 -0.1420  0.2773 -0.4855
 4922W        W 8666   1.932   7.572  10.331 -0.1124  0.0221  0.2113
 4923W        W 8667   9.608   1.619   9.918 -0.0806 -0.4734  0.1000
 4924W        W 8668   5.075   9.225  11.515 -0.0630  0.0126  0.1156
 4925W        W 8669   6.531   2.146  11.443 -0.0352  0.2318  0.0033
 4926W        W 8670   1.868   8.697   9.305  0.0218 -0.1534  0.2700
 4927W        W 8671   7.179   8.900  10.367 -0.1607  0.0402  0.1626
 4928W        W 8672   1.470   1.576  10.197  0.2997  0.2158  0.0102
 4929W        W 8673   4.775   0.585   2.837  0.0557 -0.1349  0.0779
 4930W        W 8674   3.851   9.060  11.352 -0.2566  0.1064  0.1471
 4931W        W 8675   6.054   4.251   0.169  0.1276  0.1028  0.0253
 4932W        W 8676   9.498   7.485  11.781  0.0589 -0.1906 -0.4409
 4933W        W 8677   8.070   2.416   1.925  0.0865  0.0991 -0.0998
 4934W        W 8678   8.245   4.753   9.996 -0.0995 -0.2908  0.0870
 4935W        W 8679   7.659   7.374   9.209  0.3008 -0.0673 -0.0678
 4936W        W 8680   6.451   1.529  12.426 -0.1553  0.0979 -0.1288
 4937W        W 8681   1.608   1.782   3.481 -0.0054  0.2971  0.2469
 4938W        W 8682   0.434   1.261  10.344 -0.1352 -0.1187 -0.2497
 4939W        W 8683   8.607   1.962  10.640  0.2020  0.0946 -0.1463
 4940W        W 8684   0.945   6.778   0.319  0.2688 -0.0770 -0.1625
 4941W        W 8685   3.993   2.323   1.778 -0.1723 -0.0596  0.3145
 4942W        W 8686   2.636   3.036   8.754 -0.0985  0.2242 -0.4563
 4943W        W 8687   9.900   1.615   9.418 -0.2644 -0.0683 -0.3244
 4944W        W 8688   7.194   6.932  11.373 -0.2374 -0.1624 -0.0793
 4945W        W 8689   6.938   3.666  10.747 -0.2087  0.2296  0.2959
 4946W        W 8690   2.385   6.245   0.171  0.1201  0.1507  0.0462
 4947W        W 8691   1.456   6.221   3.170  0.0135  0.2060 -0.1770
 4948W        W 8692   8.137   7.836   0.850  0.2381  0.0257  0.0190
 4949W        W 8693   8.022   4.919   0.631  0.2126 -0.0398 -0.3117
 4950W        W 8694   2.429   1.693   3.726  0.0788 -0.1673 -0.6684
 4951W        W 8695   6.270   9.894   3.853 -0.1508  0.0575  0.0380
 4952W        W 8696   5.978   5.189   8.971  0.0713 -0.3915  0.2834
 4953W        W 8697   3.444   0.358  12.729  0.0561 -0.1766 -0.0535
 4954W        W 8698   7.018   0.867  11.812  0.1070 -0.0760 -0.0976
 4955W        W 8699   1.495   3.246  11.861  0.2569 -0.2323  0.2700
 4956W        W 8700   6.185   7.982  10.855  0.4552 -0.2247 -0.0860
 4957W        W 8701   9.191   4.882   9.518  0.2584  0.0216  0.2897
 4958W        W 8702   5.831   2.488   3.952  0.2793  0.2224 -0.2099
 4959W        W 8703   4.258   0.887   1.769 -0.0884  0.1238 -0.2984
 4960W        W 8704   2.775   8.801   9.489  0.2082 -0.0395  0.0113
 4961W        W 8705   8.521   1.829   8.736  0.4046  0.2596  0.0975
 4962W        W 8706   7.831   6.707   8.393 -0.3297 -0.0104  0.4115
 4963W        W 8707   5.928   5.709  10.938 -0.1327 -0.0456 -0.1262
 4964W        W 8708   4.701   2.278   0.836 -0.0551 -0.1310 -0.1718
 4965W        W 8709   7.221   9.510  12.215 -0.1441  0.1380 -0.1358
 4966W        W 8710   1.713   3.388   4.140 -0.1868 -0.0536  0.0315
 4967W        W 8711   5.241   4.066  10.933 -0.0203  0.1707 -0.1415
 4968W        W 8712   6.759   7.954   0.341  0.1976 -0.0885 -0.0639
 4969W        W 8713   9.158   2.607   4.101 -0.1579 -0.0376  0.1937
 4970W        W 8714   3.152   5.121   9.371  0.1853  0.1497  0.2302
 4971W        W 8715   1.874   9.693   4.770  0.2070  0.0111  0.0751
 4972W        W 8716   9.777   5.416  10.829 -0.0730  0.4309 -0.1404
 4973W        W 8717   6.030   7.911   9.274  0.3573  0.2583 -0.3400
 4974W        W 8718   7.148   5.782   3.105 -0.3078 -0.0578 -0.1283
 4975W        W 8719   6.776   1.369  11.983  0.0447  0.0763 -0.2434
 4976W        W 8720   1.820   5.379   1.350 -0.0194  0.0665 -0.0960
 4977W        W 8721   6.543   0.996   3.036 -0.0308  0.1403 -0.3124
 4978W        W 8722   3.588   2.809  12.580  0.2079 -0.1075 -0.6940
 4979W        W 8723   8.681   8.616  11.868 -0.0140 -0.1531  0.0414
 4980W        W 8724   5.891   1.222  10.715  0.0776 -0.2252 -0.1061
 4981W        W 8725   5.158   1.522   4.222  0.1149 -0.0209 -0.2855
 4982W        W 8726   5.016   3.964  10.269 -0.0251  0.0756  0.0017
 4983W        W 8727   4.807   1.437   3.849  0.0693  0.1435  0.0590
 4984W        W 8728   4.501   2.957  12.940 -0.0792  0.1569  0.0088
 4985W        W 8729   6.352   3.351   2.720  0.1449 -0.3005  0.0388
 4986W        W 8730   9.202   2.182   4.528 -0.1347  0.1490  0.0668
 4987W        W 8731   9.160   2.483   8.783 -0.0716 -0.3145 -0.0599
 4988W        W 8732   8.796   1.244   2.437 -0.0719  0.0926  0.1059
 4989W        W 8733   3.946   7.415  10.785  0.1129  0.1903  0.0917
 4990W        W 8734   2.542   6.292   9.408  0.1393  0.0068 -0.1391
 4991W        W 8735   7.692   9.036  12.934  0.2125 -0.2438  0.1188
 4992W        W 8736   3.447   2.545   0.769 -0.0962 -0.2337  0.1387
 4993W        W 8737   7.321   5.091   1.346  0.0283  0.4229  0.0112
 4994W        W 8738   4.435   1.893   0.596 -0.2570  0.0697  0.3865
 4995W        W 8739   5.798   4.958  10.256 -0.0294 -0.2387  0.2852
 4996W        W 8740   4.897   5.884  11.782 -0.0998  0.1384  0.0292
 4997W        W 8741   7.011   9.877   2.250 -0.0628 -0.1665  0.2853
 4998W        W 8742   9.665   3.247   8.941 -0.1605  0.1315  0.1205
 4999W        W 8743   8.445   9.493  10.776  0.1811  0.0538  0.2883
 5000W        W 8744   6.939   1.596  10.668 -0.3272 -0.0612  0.0404
 5001W        W 8745   2.429   9.774   9.495 -0.1663 -0.2752  0.2987
 5002W        W 8746   8.769   4.582   2.190 -0.1468  0.1024 -0.0175
 5003W        W 8747   1.838   1.965   9.497 -0.2278 -0.1772 -0.0870
 5004W        W 8748   0.324   3.539   1.438  0.0726 -0.2638  0.1160
 5005W        W 8749   6.720   2.639   1.508 -0.3711 -0.0415  0.2570
 5006W        W 8750   3.073   8.820   0.440 -0.1201  0.1313  0.0916
 5007W        W 8751   2.182   7.989  10.125  0.0329  0.0515  0.0552
 5008W        W 8752   9.580   0.008  12.936 -0.0213 -0.1461  0.1150
 5009W        W 8753   9.470   2.928   3.472  0.1817 -0.0129 -0.0807
 5010W        W 8754   2.635   0.387   0.176  0.1347 -0.2846 -0.0223
 5011W        W 8755   7.217   3.928   9.924 -0.0523  0.0059 -0.1334
 5012W        W 8756   7.491   9.214   9.028 -0.0013 -0.0196  0.1571
 5013W        W 8757   8.235   6.119   1.034 -0.4103 -0.1585 -0.0325
 5014W        W 8758   7.658   2.762   1.565 -0.3115 -0.0626  0.0777
 5015W        W 8759   0.466   6.763   0.254 -0.2491  0.1292  0.1008
 5016W        W 8760   3.741   7.510   3.472  0.2038 -0.0920  0.0757
 5017W        W 8761   5.115   2.406   2.545  0.0407 -0.0956  0.2038
 5018W        W 8762   8.872   7.348   1.733 -0.1382  0.0734  0.1646
 5019W        W 8763   6.839   2.477   2.410 -0.1449  0.2870 -0.2257
 5020W        W 8764   6.799   5.634  11.272 -0.0754  0.0523  0.0914
 5021W        W 8765   2.114   6.726  12.856  0.0808 -0.0292 -0.0829
 5022W        W 8766   7.193   2.650   5.192 -0.2371 -0.3211 -0.0434
 5023W        W 8767   9.316   9.459   1.259  0.1413 -0.3733 -0.0533
 5024W        W 8768   1.570   8.852  11.040  0.0429  0.2151 -0.2333
 5025W        W 8769   1.670   9.887   0.127  0.0206  0.0091 -0.0333
 5026W        W 8770   1.848   6.379   9.772 -0.2723  0.1273 -0.0996
 5027W        W 8771   4.851   3.772  11.074  0.1080 -0.0518 -0.1317
 5028W        W 8772   3.898   2.321  10.231 -0.1384  0.3386 -0.4354
 5029W        W 8773   7.598   5.188  11.781 -0.1366  0.0517 -0.4714
 5030W        W 8774   5.665   4.409   4.339  0.5010 -0.0020  0.0630
 5031W        W 8775   9.087   1.101   3.809 -0.1136 -0.2170  0.0814
 5032W        W 8776   4.197   6.690   1.161  0.0212 -0.3036 -0.3101
 5033W        W 8777   3.363   0.026   1.856 -0.1962  0.0842 -0.0816
 5034W        W 8778   9.714   9.133   8.375 -0.1061 -0.2409 -0.1857
 5035W        W 8779   1.793   4.156  12.445  0.3105 -0.1015  0.0889
 5036W        W 8780   0.169   8.060   0.263  0.1715  0.1077 -0.0235
 5037W        W 8781   8.026   7.494   9.586  0.4432  0.5054 -0.0378
 5038W        W 8782   1.009   4.112   2.062 -0.0483  0.2016 -0.1567
 5039W        W 8783   1.475   1.641   9.683 -0.0057 -0.4056 -0.2105
 5040W        W 8784   4.073   6.347   9.258 -0.2869  0.0913  0.2048
 5041W        W 8785   6.720   6.361  12.653  0.3382  0.2413 -0.1580
 5042W        W 8786   2.140   7.141   7.078 -0.0944 -0.1021  0.1315
 5043W        W 8787   7.097   0.381  11.825  0.0617 -0.0903  0.3185
 5044W        W 8788   2.924   3.562   3.101 -0.0873 -0.0928 -0.0800
 5045W        W 8789   8.436   1.507   3.622 -0.1592 -0.0074  0.2108
 5046W        W 8790   0.689   1.721   3.671  0.0775 -0.0869 -0.1034
 5047W        W 8791   0.090   9.766  12.585 -0.1132 -0.1148  0.0658
 5048W        W 8792   6.052   4.971   3.039 -0.2528  0.0456 -0.0787
 5049W        W 8793   5.812   1.437  11.172  0.0036  0.0021 -0.2331
 5050W        W 8794   5.793   2.899  11.344 -0.5568  0.4149  0.1558
 5051W        W 8795   6.897   0.346   8.803  0.0936  0.0468  0.0235
 5052W        W 8796   0.221   0.794  11.426  0.1947 -0.4273  0.0130
 5053W        W 8797   4.049   3.003  10.893 -0.1178 -0.2570 -0.3381
 5054W        W 8798   1.308   3.688  11.743  0.0144 -0.2013 -0.1147
 5055W        W 8799   7.791   3.164   1.977  0.0667  0.0618 -0.2499
 5056W        W 8800   3.595   5.269  11.228  0.1219  0.1345  0.2055
 5057W        W 8801   3.905   5.943  10.113  0.1629 -0.0938  0.1330
 5058W        W 8802   0.906   3.631   1.297 -0.1196  0.0916  0.4303
 5059W        W 8803   1.820   1.287  12.758 -0.0064  0.0950  0.1870
 5060W        W 8804   3.292   2.071  11.343  0.2647 -0.2233  0.2901
 5061W        W 8805   2.231   0.426  11.172 -0.2249 -0.0907 -0.1406
 5062W        W 8806   6.413   8.210  10.372 -0.1446 -0.3505 -0.0523
 5063W        W 8807   3.330   5.135   3.355  0.0025  0.3054  0.1953
 5064W        W 8808   4.421   2.482  10.159 -0.3284  0.1001 -0.2753
 5065W        W 8809   6.947   3.344   0.047 -0.2115  0.0452 -0.2713
 5066W        W 8810   8.943   4.321   9.631  0.2868  0.0292 -0.1921
 5067W        W 8811   6.940   8.884   4.857 -0.0518 -0.2266  0.5274
 5068W        W 8812   4.804   9.769   4.130  0.0335  0.1443  0.0231
 5069W        W 8813   6.579   2.056   2.447 -0.0254  0.0402  0.0189
 5070W        W 8814   3.816   3.005  11.341  0.0538 -0.0577 -0.1301
 5071W        W 8815   4.549   0.834   1.330  0.2796 -0.0161 -0.0739
 5072W        W 8816   6.873   4.507  10.650  0.0764  0.1608  0.0839
 5073W        W 8817   6.057   4.198   8.064 -0.2018 -0.0238 -0.3572
 5074W        W 8818   8.565   6.378  12.209  0.0989  0.1220 -0.0515
 5075W        W 8819   9.060   1.342  10.887  0.1354 -0.0625  0.0870
 5076W        W 8820   9.368   5.837   0.310  0.0731  0.0430  0.3897
 5077W        W 8821   0.380   9.727   1.062  0.0003  0.0911 -0.0692
 5078W        W 8822   4.213   0.491   0.937 -0.2498  0.2475  0.0029
 5079W        W 8823   4.714   0.412   9.125  0.0947  0.2865  0.0010
 5080W        W 8824   0.607   2.071  12.818 -0.1806 -0.2946 -0.0489
 5081W        W 8825   5.049   5.321   3.948  0.2060 -0.0121 -0.2294
 5082W        W 8826   2.948   1.687  10.455  0.2731 -0.0233 -0.0367
 5083W        W 8827   2.052   0.180   1.856 -0.3821  0.2278  0.2512
 5084W        W 8828   1.526   4.874   9.145 -0.0665  0.0398 -0.0761
 5085W        W 8829   1.653   6.813  11.028 -0.1879  0.0372  0.3517
 5086W        W 8830   9.016   0.793   0.469 -0.2660 -0.1891 -0.2198
 5087W        W 8831   2.439   7.472  11.222 -0.3775 -0.0611  0.0307
 5088W        W 8832   4.894   0.336   8.684 -0.0600  0.0157  0.1011
 5089W        W 8833   5.833   7.953   2.521  0.1290  0.0401  0.0482
 5090W        W 8834   6.796   4.765   9.600 -0.0003  0.1492 -0.2341
 5091W        W 8835   7.356   2.274   2.603 -0.0385 -0.0932  0.3160
 5092W        W 8836   9.503   3.479  11.326 -0.1765  0.1773  0.2474
 5093W        W 8837   0.953   9.148   1.345  0.0863 -0.1483 -0.2327
 5094W        W 8838   0.220   0.108   3.912  0.4132  0.1053  0.0167
 5095W        W 8839   7.118   4.517   8.546  0.1158 -0.1080  0.0527
 5096W        W 8840   5.997   4.375   1.858  0.1393  0.0648  0.5098
 5097W        W 8841   9.679   8.524   1.516 -0.1287  0.1424  0.0288
 5098W        W 8842   8.510   7.262   4.114 -0.2790 -0.1560 -0.1425
 5099W        W 8843   2.897   0.761  11.386  0.0146  0.1701 -0.1999
 5100W        W 8844   9.528   7.579   2.422 -0.1215  0.0525  0.1412
 5101W        W 8845   2.984   6.949  11.607 -0.2048 -0.0918 -0.2089
 5102W        W 8846   3.546   2.511  11.235  0.1695 -0.1511  0.0647
 5103W        W 8847   8.222   2.164   3.654 -0.2111 -0.1783  0.1124
 5104W        W 8848   5.553   6.146   3.036  0.0695  0.1986 -0.2226
 5105W        W 8849   5.166   3.874   3.134 -0.1924 -0.0608  0.0314
 5106W        W 8850   4.672   5.066  12.200  0.1014  0.1239  0.2794
 5107W        W 8851   6.140   7.860   5.398 -0.0622  0.1143 -0.1526
 5108W        W 8852   2.703   8.607   1.218  0.1967 -0.2278 -0.1639
 5109W        W 8853   4.208   8.308   2.254  0.2294  0.0057  0.1054
 5110W        W 8854   4.723   1.537   1.998 -0.0288 -0.2318  0.2073
 5111W        W 8855   4.883   1.965   1.767  0.1337  0.1313  0.0151
 5112W        W 8856   7.599   1.883   2.901  0.0844 -0.2964  0.1606
 5113W        W 8857   2.933   9.352  11.799 -0.2839  0.2688 -0.0689
 5114W        W 8858   2.592   3.591   9.413 -0.0699 -0.1971  0.1055
 5115W        W 8859   1.830   6.670   5.262  0.1667 -0.2200 -0.1965
 5116W        W 8860   4.343   7.022   0.348  0.3657  0.0935  0.1392
 5117W        W 8861   1.279   0.700   2.552 -0.3316 -0.2028 -0.0633
 5118W        W 8862   7.218   6.889   2.862 -0.1577  0.4601 -0.1373
 5119W        W 8863   3.043   0.152   9.441 -0.1580  0.1023 -0.0300
 5120W        W 8864   2.324   7.446  12.393  0.0048 -0.0384  0.3488
 5121W        W 8865   6.983   6.569  11.618  0.0519 -0.0458 -0.0966
 5122W        W 8866   1.044   1.634   2.545 -0.0080 -0.0209  0.0022
 5123W        W 8867   3.754   2.885   7.723 -0.1967 -0.2671  0.0964
 5124W        W 8868   1.114   0.807  10.625 -0.2059 -0.0840  0.0834
 5125W        W 8869   8.571   0.581  12.705 -0.0353 -0.2597  0.1044
 5126W        W 8870   9.844   0.428  11.599  0.1558 -0.0707  0.0376
 5127W        W 8871   8.600   8.199   9.176  0.3817  0.0813 -0.3980
 5128W        W 8872   6.803   6.938  10.530 -0.2478 -0.1751  0.0048
 5129W        W 8873   4.016   4.064   2.975 -0.1316  0.3189  0.0857
 5130W        W 8874   2.500   4.894   9.871  0.1248 -0.1659 -0.0780
 5131W        W 8875   9.215   1.298   1.117  0.1351 -0.0542  0.2432
 5132W        W 8876   2.742   0.198   3.754 -0.1413 -0.0146  0.1260
 5133W        W 8877   4.307   7.594  12.297 -0.4161 -0.0304  0.2504
 5134W        W 8878   5.482   0.551   9.546 -0.3652  0.0065  0.0609
 5135W        W 8879   6.334   7.597   9.019 -0.1291 -0.2585 -0.1051
 5136W        W 8880   2.826   9.301  11.106  0.1416  0.0153  0.1750
 5137W        W 8881   2.167   2.143   1.009 -0.1779 -0.3904  0.0801
 5138W        W 8882   8.184   7.623  11.676  0.2124 -0.1217  0.0442
 5139W        W 8883   9.639   0.602   8.813  0.3486 -0.2289  0.1488
 5140W        W 8884   2.576   3.610   0.407 -0.1017  0.1084  0.0983
 5141W        W 8885   4.537   1.665   4.786  0.0126  0.0844 -0.1047
 5142W        W 8886   2.862   2.851   0.019 -0.0319 -0.0022 -0.3217
 5143W        W 8887   4.283   1.616  10.621  0.1596 -0.0460  0.0815
 5144W        W 8888   3.517   8.529   1.150 -0.2918 -0.0880  0.3030
 5145W        W 8889   7.085   6.583   1.988 -0.3916  0.2517  0.3413
 5146W        W 8890   3.438   0.095   9.856 -0.2849  0.0517 -0.5099
 5147W        W 8891   9.844   5.543   0.291 -0.0049 -0.1684  0.0946
 5148W        W 8892   0.955   0.752   3.720  0.0403 -0.0730 -0.2137
 5149W        W 8893   3.497   1.615  12.103 -0.0709  0.1598  0.2894
 5150W        W 8894   4.038   8.666   0.858 -0.0219 -0.1730 -0.2301
 5151W        W 8895   6.000   7.413  11.075  0.2145 -0.4305  0.1875
 5152W        W 8896   5.704   9.627  12.815 -0.0737  0.1356 -0.2378
 5153W        W 8897   6.268   5.382  11.226  0.2478  0.0633  0.2134
 5154W        W 8898   7.659   3.633   2.272 -0.1232 -0.0920 -0.0461
 5155W        W 8899   6.320   8.695   1.171  0.0899  0.1092 -0.0457
 5156W        W 8900   7.927   0.481  11.455 -0.0491  0.0094  0.0590
 5157W        W 8901   7.290   6.282   0.246 -0.3633 -0.0002  0.2022
 5158W        W 8902   5.752   8.052   4.037 -0.3380  0.2415 -0.2783
 5159W        W 8903   3.458   6.347  11.116  0.0260 -0.2447 -0.1427
 5160W        W 8904   1.979   1.239   0.526  0.2865 -0.0054  0.3738
 5161W        W 8905   0.775   9.185   1.833 -0.0427  0.1362  0.0785
 5162W        W 8906   8.615   9.240   3.276 -0.1077  0.1067 -0.1721
 5163W        W 8907   2.766   0.841   3.813 -0.2832  0.0517 -0.2531
 5164W        W 8908   1.246   9.858  10.344  0.0187  0.0776 -0.0587
 5165W        W 8909   7.346   6.973   1.760  0.2561 -0.0077 -0.1883
 5166W        W 8910   8.028   6.434  11.386 -0.3337  0.1468 -0.0090
 5167W        W 8911   1.406   1.948   8.242  0.3341  0.1628 -0.0837
 5168W        W 8912   5.858   4.795  10.838 -0.1385  0.3056 -0.0819
 5169W        W 8913   7.411   8.535   3.169  0.3471 -0.2419  0.0750
 5170W        W 8914   3.721   0.274   2.177  0.1572 -0.0479  0.0069
 5171W        W 8915   8.066   4.944  12.563 -0.0208  0.0942  0.1544
 5172W        W 8916   7.037   7.671   8.451  0.0445 -0.0152 -0.1358
 5173W        W 8917   0.219   3.703   9.817  0.1024  0.1531 -0.0717
 5174W        W 8918   0.706   9.890  11.081 -0.1380 -0.0937 -0.1199
 5175W        W 8919   1.291   6.921  12.916  0.2030  0.0858  0.1322
 5176W        W 8920   7.125   9.403   9.328  0.4082 -0.0172  0.1799
 5177W        W 8921   9.173   8.385  11.362  0.0226 -0.1539  0.0558
 5178W        W 8922   1.243   9.904   8.932 -0.0604  0.3034 -0.1652
 5179W        W 8923   8.976   8.828  12.786 -0.1762 -0.1731  0.0749
 5180W        W 8924   0.561   2.279   2.796  0.0531 -0.1539 -0.0808
 5181W        W 8925   3.676   5.020  10.028  0.2926 -0.1943 -0.1261
 5182W        W 8926   7.804   4.864  11.496 -0.0795 -0.2487  0.0041
 5183W        W 8927   9.482   5.310  12.674  0.1733  0.1581  0.3286
 5184W        W 8928   2.296   3.127   9.193 -0.1421  0.1271  0.1700
 5185W        W 8929   2.453   7.210  10.798  0.0930  0.1690 -0.3390
 5186W        W 8930   7.539   3.794  10.690 -0.3052  0.0190 -0.1423
 5187W        W 8931   3.398   6.004  11.547 -0.1689 -0.2813  0.4429
 5188W        W 8932   6.536   4.333   9.591  0.0591 -0.0031  0.4539
 5189W        W 8933   6.442   2.951  12.115 -0.2622 -0.1538  0.1653
 5190W        W 8934   1.098   4.694   9.403  0.3579  0.1313  0.1429
 5191W        W 8935   1.239   3.134   2.282  0.0913 -0.2306 -0.0567
 5192W        W 8936   8.425   8.196   2.224  0.6063 -0.0717 -0.1532
 5193W        W 8937   1.863   0.517  10.805 -0.0716 -0.0875 -0.0226
 5194W        W 8938   7.585   4.392  11.501 -0.1362 -0.0616 -0.2482
 5195W        W 8939   2.862   3.923   4.279 -0.2368  0.1220 -0.1786
 5196W        W 8940   9.360   1.960  10.297  0.0914  0.3090 -0.0179
 5197W        W 8941   7.665   0.891  10.691 -0.1208  0.3160  0.0089
 5198W        W 8942   3.456   1.362   0.569  0.0986  0.1514  0.3310
 5199W        W 8943   5.442   6.991  12.418  0.0574  0.0955 -0.0831
 5200W        W 8944   5.994   2.009   9.124  0.4036  0.0842  0.1161
 5201W        W 8945   9.262   7.444  12.330  0.1986 -0.0034 -0.1187
 5202W        W 8946   7.379   8.608  12.881  0.1673  0.1002 -0.1258
 5203W        W 8947   1.672   2.811  10.487 -0.2124 -0.0337  0.1631
 5204W        W 8948   5.285   9.613   4.302 -0.0186  0.1915 -0.0827
 5205W        W 8949   2.639   2.845   1.058  0.0831  0.1647  0.2217
 5206W        W 8950   5.017   5.398  12.069 -0.1856 -0.3502 -0.0225
 5207W        W 8951   8.472   0.366  10.281  0.0753  0.0913 -0.1010
 5208W        W 8952   1.561   9.026   0.331  0.0452  0.0202  0.1809
 5209W        W 8953   6.101   6.128   9.521 -0.3930  0.2770 -0.0086
 5210W        W 8954   7.201   8.274  11.806  0.1042 -0.0683 -0.0669
 5211W        W 8955   2.710   0.144   1.092 -0.0089 -0.0681  0.5487
 5212W        W 8956   1.756   2.808  11.994  0.2404  0.1098  0.0435
 5213W        W 8957   5.545   2.669   0.941  0.1326  0.3135 -0.1916
 5214W        W 8958   8.449   0.598   9.804  0.2751  0.0469  0.0808
 5215W        W 8959   7.708   7.501  11.964  0.1451  0.0027 -0.1752
 5216W        W 8960   0.811   0.979   8.183  0.1885  0.3517 -0.2366
 5217W        W 8961   1.024   2.553   2.960  0.1522 -0.0773  0.0477
 5218W        W 8962   2.711   2.189   9.136  0.2891 -0.0253  0.0946
 5219W        W 8963   5.999   1.430   2.369 -0.0102 -0.3297 -0.0822
 5220W        W 8964   0.003   0.228   1.719 -0.2271  0.0323 -0.3963
 5221W        W 8965   3.131   7.932   3.978  0.0362 -0.1712  0.0981
 5222W        W 8966   4.652   0.572   1.758  0.0649 -0.1592 -0.2125
 5223W        W 8967   1.075   0.699   3.008  0.1051 -0.1175 -0.1802
 5224W        W 8968   0.644   3.497   9.561  0.2016 -0.3044 -0.2659
 5225W        W 8969   1.039   4.214   9.603 -0.0571  0.0304  0.1490
 5226W        W 8970   1.053   6.706  11.698 -0.2366  0.0507 -0.0281
 5227W        W 8971   7.210   4.158  12.034  0.0758  0.0382  0.1219
 5228W        W 8972   9.774   0.793   1.564  0.0043  0.1165  0.1202
 5229W        W 8973   5.560   5.186   4.367 -0.0371  0.1009 -0.0674
 5230W        W 8974   9.786   2.240   2.445  0.2892  0.4309 -0.1215
 5231W        W 8975   5.030   8.428   9.628  0.0434 -0.3805  0.0870
 5232W        W 8976   1.785   6.655  12.186  0.2348  0.2384 -0.0058
 5233W        W 8977   9.504   7.852  10.989 -0.0610 -0.1662 -0.2946
 5234W        W 8978   5.494   4.876   1.320  0.0855 -0.2206  0.0855
 5235W        W 8979   2.409   5.470   0.892 -0.1251  0.2743 -0.0409
 5236W        W 8980   5.729   9.267   0.918  0.0153  0.0115  0.1647
 5237W        W 8981   6.557   8.202   1.214  0.5574 -0.0672 -0.0164
 5238W        W 8982   2.209   8.650   1.193  0.0355  0.0577 -0.0571
 5239W        W 8983   6.061   6.059   8.009  0.0772  0.0817 -0.0581
 5240W        W 8984   8.026   0.282   3.972  0.0847 -0.3146  0.1993
 5241W        W 8985   4.727   6.773   9.802  0.0612 -0.0782  0.1137
 5242W        W 8986   3.655   0.955   9.368 -0.0787 -0.0374 -0.0677
 5243W        W 8987   5.892   8.468   2.758  0.0690 -0.0348  0.0143
 5244W        W 8988   4.489   8.526   4.182 -0.2775  0.2270  0.0561
 5245W        W 8989   6.842   7.580  11.937 -0.0379  0.0082  0.0845
 5246W        W 8990   3.625   3.921  12.712 -0.0324  0.1084 -0.0106
 5247W        W 8991   0.729   0.151   8.194  0.0435 -0.0678  0.0330
 5248W        W 8992   5.360   8.715  12.139 -0.0634 -0.0852  0.0895
 5249W        W 8993   0.191   3.199   1.036  0.2208 -0.0460  0.4586
 5250W        W 8994   6.063   6.989   9.819  0.2306  0.1137 -0.4010
 5251W        W 8995   3.466   7.051   2.168 -0.0990  0.0239 -0.3954
 5252W        W 8996   8.471   8.141   3.163  0.0521 -0.1480 -0.1800
 5253W        W 8997   3.439   0.960   4.386  0.0550 -0.2134 -0.2188
 5254W        W 8998   5.454   8.509   1.752  0.0061 -0.1927 -0.0719
 5255W        W 8999   8.718   4.631   3.069 -0.0407 -0.1992 -0.0946
 5256W        W 9000   3.355   2.432  12.182 -0.1769  0.5235 -0.0744
 5257W        W 9001   9.153   6.914  10.569  0.0310 -0.0813  0.1306
 5258W        W 9002   8.271   1.009   0.600 -0.0361 -0.2109  0.1829
 5259W        W 9003   2.670   3.876   8.534  0.0061 -0.2971 -0.2135
 5260W        W 9004   1.844   0.727  10.254 -0.0591  0.0597 -0.0824
 5261W        W 9005   7.043   8.731  10.889 -0.0093 -0.1662  0.0634
 5262W        W 9006   8.210   3.445  11.530 -0.0613  0.0702 -0.1531
 5263W        W 9007   1.597   8.759  10.143 -0.0202  0.0388  0.1315
 5264W        W 9008   8.975   3.173  10.293 -0.0494 -0.0666 -0.1280
 5265W        W 9009   9.551   5.254   1.904  0.2131  0.1046  0.2007
 5266W        W 9010   4.559   2.301   3.773 -0.2001  0.0639 -0.0810
 5267W        W 9011   2.028   9.365  10.494  0.0655  0.0795  0.0172
 5268W        W 9012   2.180   1.169   9.533 -0.0430 -0.0265  0.3193
 5269W        W 9013   5.117   8.285  10.165 -0.1935  0.1557  0.0784
 5270W        W 9014   0.447   2.223   9.287 -0.0910  0.0622 -0.2245
 5271W        W 9015   2.755   6.538   3.052 -0.4497 -0.0830 -0.0836
 5272W        W 9016   5.899   5.734   3.966  0.3920  0.0854 -0.0157
 5273W        W 9017   2.605   9.438   1.522 -0.1749 -0.2472  0.1925
 5274W        W 9018   6.166   6.732   3.536  0.1410  0.2905  0.2274
 5275W        W 9019   1.959   5.011   3.973 -0.1044 -0.0512  0.1003
 5276W        W 9020   6.749   2.581   8.703 -0.1960 -0.2322 -0.0211
 5277W        W 9021   6.213   5.600   9.603  0.2287 -0.0298  0.3080
 5278W        W 9022   5.433   5.378   1.551 -0.1834 -0.0537  0.0410
 5279W        W 9023   2.464   8.984  11.236  0.0098 -0.3061  0.1033
 5280W        W 9024   0.978   4.612  11.698  0.0069 -0.2614  0.0378
 5281W        W 9025   6.357   6.466   1.119  0.2603 -0.0764  0.0380
 5282W        W 9026   2.796   0.739   8.493 -0.3549 -0.3231 -0.1664
 5283W        W 9027   9.082   9.520  11.927  0.2129 -0.0359  0.1233
 5284W        W 9028   9.639   3.157  12.320  0.1368  0.2746  0.1037
 5285W        W 9029   3.856   9.614   1.959  0.0566  0.1014 -0.1621
 5286W        W 9030   2.355   8.158   0.896 -0.2850 -0.0180 -0.1417
 5287W        W 9031   5.684   6.158   2.480  0.1500 -0.0921 -0.1486
 5288W        W 9032   8.905   9.607   3.034 -0.0508  0.0954  0.2306
 5289W        W 9033   2.482   1.732  11.295 -0.2177 -0.0459  0.2310
 5290W        W 9034   6.482   7.208  10.236  0.2198 -0.3440 -0.2194
 5291W        W 9035   8.824   9.167   9.570 -0.2079  0.1027  0.2942
 5292W        W 9036   5.356   3.300   4.993  0.3512  0.0960 -0.2577
 5293W        W 9037   7.775   3.373  10.570 -0.2488  0.0043  0.0339
 5294W        W 9038   2.915   7.024  12.613  0.0571 -0.2313  0.0165
 5295W        W 9039   3.780   4.913  12.305  0.2903  0.3507 -0.1740
 5296W        W 9040   2.885   7.408   3.529  0.0206  0.1048 -0.0288
 5297W        W 9041   6.895   4.823   1.952  0.0665 -0.2408  0.0329
 5298W        W 9042   8.933   7.056   3.241  0.1328 -0.2617  0.2431
 5299W        W 9043   1.520   2.167   1.723 -0.2956  0.3269 -0.3381
 5300W        W 9044   8.601   0.130  10.809 -0.0351 -0.0603  0.2653
 5301W        W 9045   9.236   1.627   1.653  0.0464 -0.0058 -0.0336
 5302W        W 9046   4.844   6.550   9.346  0.0843  0.2717  0.1265
 5303W        W 9047   8.284   8.654   0.355 -0.3147 -0.0669 -0.0365
 5304W        W 9048   1.871   4.038   2.051  0.1056  0.1950 -0.0199
 5305W        W 9049   9.861   3.579   8.411 -0.1562 -0.1217 -0.1300
 5306W        W 9050   5.663   9.244  10.851  0.0905  0.0285 -0.1037
 5307W        W 9051   6.119   3.539   3.212  0.0455  0.3120  0.2226
 5308W        W 9052   3.839   4.511   2.870  0.1645 -0.3148  0.2723
 5309W        W 9053   2.598   3.117   3.860 -0.0283 -0.0632  0.0722
 5310W        W 9054   7.391   8.198  10.254 -0.1422 -0.0756 -0.3239
 5311W        W 9055   0.575   0.039   3.002 -0.0237 -0.0899  0.1791
 5312W        W 9056   0.217   1.009   9.421 -0.0754  0.0389  0.1204
 5313W        W 9057   7.422   1.242   0.980  0.0450 -0.1549 -0.1228
 5314W        W 9058   4.814   9.372   4.511  0.2292  0.2074  0.0639
 5315W        W 9059   1.054   3.678  12.442 -0.2013  0.0047 -0.1944
 5316W        W 9060   3.844   2.064   2.206 -0.2621  0.2402 -0.0829
 5317W        W 9061   4.685   5.799  10.504 -0.1154 -0.1408 -0.0289
 5318W        W 9062   2.192   6.682   0.381 -0.1660  0.2166  0.1933
 5319W        W 9063   3.690   2.971   8.698  0.0262 -0.1330  0.0791
 5320W        W 9064   8.848   8.173  11.648 -0.1948  0.0585 -0.0030
 5321W        W 9065   3.018   7.954  10.498 -0.0459  0.2919  0.2543
 5322W        W 9066   5.829   9.102   0.441 -0.1924 -0.2434  0.1723
 5323W        W 9067   0.051   9.801   8.970  0.1265  0.1166  0.1474
 5324W        W 9068   5.949   3.900  10.310  0.4494  0.0005 -0.1193
 5325W        W 9069   8.451   0.116   2.321  0.0341  0.0823 -0.0065
 5326W        W 9070   6.808   3.606   9.995 -0.0201  0.1476 -0.0093
 5327W        W 9071   9.619   1.103   3.550  0.4401  0.0676 -0.0278
 5328W        W 9072   0.619   2.776  10.973 -0.2175 -0.0389 -0.0314
 5329W        W 9073   7.944   3.849  11.514 -0.1801  0.0081 -0.0909
 5330W        W 9074   3.757   5.894   0.398  0.0373 -0.1730  0.1775
 5331W        W 9075   0.009   2.763   9.677  0.1040  0.1560  0.0302
 5332W        W 9076   7.559   6.592   0.440 -0.2802  0.1198 -0.3781
 5333W        W 9077   2.852   3.535   1.588  0.3027  0.2792  0.0135
 5334W        W 9078   6.975   1.322   0.697 -0.4022 -0.2282  0.0932
 5335W        W 9079   4.972   3.295   9.351  0.1697 -0.3394  0.0637
 5336W        W 9080   6.101   1.972   9.592 -0.2970  0.1168 -0.1900
 5337W        W 9081   8.227   8.018   3.594 -0.0392  0.2076 -0.1128
 5338W        W 9082   5.686   4.652   0.051  0.1026 -0.0205  0.0348
 5339W        W 9083   4.228   2.281  12.617 -0.1012 -0.1736 -0.0105
 5340W        W 9084   9.606   1.789   8.602 -0.0943  0.0002 -0.2361
 5341W        W 9085   4.702   0.077   2.937 -0.1290  0.1084 -0.0364
 5342W        W 9086   3.079   7.933   0.614  0.1041 -0.1779 -0.0184
 5343W        W 9087   5.433   4.394   1.983 -0.3592 -0.2503 -0.1160
 5344W        W 9088   9.709   5.789  12.808  0.1398 -0.0034  0.1953
 5345W        W 9089   6.223   3.937   3.647  0.2075  0.1688 -0.1739
 5346W        W 9090   7.207   0.558  12.620  0.1910 -0.3092  0.1392
 5347W        W 9091   2.482   6.874   1.327  0.0376 -0.0001  0.0145
 5348W        W 9092   0.807   4.446  10.676  0.2335  0.3609 -0.2329
 5349W        W 9093   9.536   7.219   3.475 -0.1423 -0.1088  0.0856
 5350W        W 9094   6.848   4.012   2.528 -0.2980 -0.0010 -0.1321
 5351W        W 9095   2.779   1.964   0.833 -0.2926 -0.0608 -0.2641
 5352W        W 9096   7.216   5.327   3.610  0.0539 -0.0351 -0.1195
 5353W        W 9097   5.823   7.761   1.009  0.2879 -0.1943 -0.0423
 5354W        W 9098   8.021   8.573   9.930  0.0170  0.1003 -0.0004
 5355W        W 9099   9.550   4.936  11.030 -0.0022  0.0395 -0.0146
 5356W        W 9100   6.524   3.757  10.407 -0.0729  0.0106 -0.1222
 5357W        W 9101   6.288   1.406  10.397 -0.1370 -0.1238  0.0907
 5358W        W 9102   3.462   9.212   0.381 -0.0865  0.0318 -0.2766
 5359W        W 9103   1.269   7.845   1.385 -0.1642 -0.1492 -0.0253
 5360W        W 9104   0.402   2.569  12.655  0.2154  0.0559 -0.1273
 5361W        W 9105   1.003   6.454  10.506 -0.5587 -0.1568  0.0219
 5362W        W 9106   2.923   8.991   4.249 -0.1412 -0.0856  0.1785
 5363W        W 9107   4.578   4.425   8.565 -0.0031 -0.2046  0.4144
 5364W        W 9108   5.055   1.780   1.300 -0.0350  0.1055 -0.2316
 5365W        W 9109   2.956   9.806  10.195  0.2275  0.1403  0.4142
 5366W        W 9110   2.625   4.614  11.475 -0.2413 -0.0450 -0.1290
 5367W        W 9111   8.870   9.893   2.446 -0.1665 -0.1184 -0.1211
 5368W        W 9112   3.279   0.486   1.991 -0.0440  0.2027 -0.3210
 5369W        W 9113   4.283   3.451   9.964 -0.3406  0.1706 -0.0360
 5370W        W 9114   6.285   3.180   0.729  0.0049 -0.0154 -0.2537
 5371W        W 9115   6.146   5.617   1.408  0.1111  0.1288  0.1062
 5372W        W 9116   6.759   4.101   9.958 -0.1624  0.0121  0.0770
 5373W        W 9117   6.014   0.299  10.240  0.0688 -0.1669  0.0650
 5374W        W 9118   3.974   5.298   2.745  0.0880 -0.0914 -0.4185
 5375W        W 9119   6.191   3.947  11.603  0.3991 -0.3993  0.1003
 5376W        W 9120   5.490   2.941   8.156  0.0614  0.1527  0.0671
 5377W        W 9121   9.676   2.878   1.822  0.1415  0.0876  0.0655
 5378W        W 9122   6.238   5.687   9.026 -0.1135  0.3117  0.2759
 5379W        W 9123   0.162   8.839   9.071  0.2590 -0.2016 -0.0813
 5380W        W 9124   8.757   6.756  10.783  0.0310  0.2246  0.0191
 5381W        W 9125   8.958   6.914   1.379 -0.3079 -0.1214  0.1569
 5382W        W 9126   1.982   3.987  11.071  0.1958  0.0031  0.0055
 5383W        W 9127   6.195   7.842  11.785 -0.3393  0.2327 -0.0799
 5384W        W 9128   4.167   6.758   2.935  0.4927 -0.4278 -0.0231
 5385W        W 9129   2.772   7.390  12.230 -0.2152 -0.0463 -0.0042
 5386W        W 9130   6.631   9.579   0.815  0.1211 -0.1229  0.3277
 5387W        W 9131   0.614   2.936   1.953 -0.1290  0.1651  0.1921
 5388W        W 9132   6.068   4.576  12.698 -0.3612 -0.2550  0.2118
 5389W        W 9133   8.041   6.679  12.529  0.2713 -0.1793 -0.0230
 5390W        W 9134   3.360   4.612   0.934 -0.0705 -0.0911 -0.1899
 5391W        W 9135   2.197   3.511  11.473  0.1703  0.0813 -0.0582
 5392W        W 9136   2.368   1.337  12.688  0.2588 -0.2180 -0.0197
 5393W        W 9137   4.017   9.628  12.608  0.0235 -0.3273  0.0567
 5394W        W 9138   5.129   0.513   0.831  0.2573 -0.1504  0.1716
 5395W        W 9139   5.108   8.250   0.447  0.0372  0.1993  0.2685
 5396W        W 9140   0.428   4.032   0.666 -0.0688 -0.1194  0.1139
 5397W        W 9141   7.307   0.739   8.665 -0.0002 -0.0028  0.2105
 5398W        W 9142   2.894   3.136  10.253 -0.0273 -0.1623  0.0653
 5399W        W 9143   6.450   7.866  12.594 -0.1219 -0.0323 -0.1227
 5400W        W 9144   5.832   5.266   1.252  0.1743  0.2007 -0.2195
 5401W        W 9145   2.963   2.927   0.610 -0.0749  0.1258 -0.1716
 5402W        W 9146   9.276   3.214   1.785 -0.0294  0.0143  0.0293
 5403W        W 9147   4.697   3.383  12.812 -0.1025  0.1506 -0.1344
 5404W        W 9148   2.258   2.411  10.408 -0.1029 -0.0660 -0.0980
 5405W        W 9149   6.005   1.751  10.806  0.0760 -0.0295 -0.1838
 5406W        W 9150   8.016   3.981   8.739  0.0032 -0.1043 -0.1349
 5407W        W 9151   2.098   4.944   3.334 -0.0984 -0.0396  0.2938
 5408W        W 9152   0.215   6.865  10.312 -0.0184 -0.3577  0.1567
 5409W        W 9153   9.206   3.084   2.605  0.0485 -0.2442  0.4273
 5410W        W 9154   5.350   6.133   8.185  0.3050  0.4138 -0.1561
 5411W        W 9155   7.755   0.372   4.411  0.3740 -0.3095  0.2183
 5412W        W 9156   7.959   7.445   2.769 -0.0336  0.1461  0.0667
 5413W        W 9157   4.688   7.810   4.822 -0.2345 -0.1455  0.0002
 5414W        W 9158   0.554   3.941  10.614 -0.1360  0.0893  0.1461
 5415W        W 9159   5.418   3.497  12.078  0.1139 -0.0558 -0.0297
 5416W        W 9160   4.376   3.051   8.984  0.0456 -0.0671 -0.0523
 5417W        W 9161   9.744   5.359   1.445  0.1270 -0.1783  0.1922
 5418W        W 9162   9.139   3.115  11.440 -0.0931  0.1666 -0.2755
 5419W        W 9163   9.405   0.376  11.302  0.2677  0.4072  0.1569
 5420W        W 9164   7.265   9.349   8.473 -0.0325  0.1966 -0.1931
 5421W        W 9165   3.169   1.384   3.312 -0.0491 -0.1059 -0.0164
 5422W        W 9166   3.584   2.082   1.381 -0.0247  0.2370  0.1236
 5423W        W 9167   5.843   4.250  10.841 -0.1477 -0.0320 -0.1538
 5424W        W 9168   8.069   0.499  10.615  0.0105 -0.3833  0.0307
 5425W        W 9169   5.291   0.635   3.950  0.0996  0.2587  0.2361
 5426W        W 9170   9.082   1.163  12.522  0.2192 -0.0471 -0.0523
 5427W        W 9171   8.653   3.161   2.937  0.0874  0.2041  0.3855
 5428W        W 9172   3.339   1.944  10.207  0.2114  0.2234  0.0668
 5429W        W 9173   2.654   4.430  10.065  0.2928 -0.0478 -0.0655
 5430W        W 9174   2.093   6.621  11.349 -0.0112 -0.2343  0.4393
 5431W        W 9175   3.702   3.163   3.497  0.2123 -0.2562 -0.1512
 5432W        W 9176   1.430   8.169  11.879 -0.1340 -0.2210  0.3236
 5433W        W 9177   1.844   7.797   1.239  0.1980  0.0878 -0.0820
 5434W        W 9178   2.372   9.587   3.097  0.1437  0.3135 -0.1111
 5435W        W 9179   8.399   9.131   1.736  0.0777  0.1356 -0.5198
 5436W        W 9180   7.325   4.855   3.260  0.3023 -0.1055 -0.2702
 5437W        W 9181   6.544   6.924   4.462 -0.1218 -0.1470  0.2867
 5438W        W 9182   9.268   5.170  11.376  0.1306  0.1066  0.0185
 5439W        W 9183   3.228   9.839  12.443 -0.1328 -0.1847  0.0901
 5440W        W 9184   3.223   7.771   9.601 -0.1588 -0.3601  0.0825
 5441W        W 9185   5.154   5.746   3.165 -0.2471  0.2889 -0.0467
 5442W        W 9186   2.125   2.972   1.962 -0.0693  0.2809  0.1007
 5443W        W 9187   8.574   5.674   3.014 -0.0564  0.0089 -0.3857
 5444W        W 9188   5.591   1.107   0.411 -0.1331  0.0874  0.1088
 5445W        W 9189   7.587   6.752   3.379 -0.0491 -0.2601 -0.0841
 5446W        W 9190   2.406   6.367   9.867  0.1217 -0.2476 -0.1414
 5447W        W 9191   6.130   4.436  11.709  0.1170 -0.0480  0.0865
 5448W        W 9192   1.684   4.660  12.684  0.0695  0.0482  0.0319
 5449W        W 9193   7.519   7.189   1.356 -0.1906 -0.3902 -0.0928
 5450W        W 9194   2.987   1.782   2.880  0.2712  0.0627  0.0447
 5451W        W 9195   8.430   1.625   4.479  0.1254  0.0376 -0.3653
 5452W        W 9196   4.688   3.712   1.372  0.0021  0.0199  0.2815
 5453W        W 9197   2.929   5.211   0.207  0.2489  0.2523  0.1635
 5454W        W 9198   0.313   2.482  10.358 -0.1708 -0.2298  0.1216
 5455W        W 9199   8.974   6.499   1.116  0.0279 -0.0630  0.0846
 5456W        W 9200   3.862   1.166   8.967  0.0025  0.3667  0.0364
 5457W        W 9201   3.761   7.491   8.728 -0.0247  0.0547  0.3671
 5458W        W 9202   8.129   5.912  11.367 -0.2220 -0.2348 -0.2263
 5459W        W 9203   5.975   3.785  12.485  0.0172  0.1794  0.4107
 5460W        W 9204   4.939   3.850  11.559  0.0869  0.0561 -0.2202
 5461W        W 9205   0.628   5.162  10.172 -0.0542  0.0436 -0.1900
 5462W        W 9206   4.433   6.996   9.148  0.3363  0.3011  0.0752
 5463W        W 9207   1.798   2.598   2.515  0.1506 -0.0871 -0.1627
 5464W        W 9208   8.545   0.783  11.271 -0.0849  0.3104 -0.0068
 5465W        W 9209   3.634   9.357  12.463  0.1865 -0.0790 -0.0038
 5466W        W 9210   1.311   0.762   9.619  0.2479 -0.2273 -0.2078
 5467W        W 9211   3.770   5.333   4.193  0.0488  0.5398 -0.3843
 5468W        W 9212   7.810   8.129   9.992 -0.0808 -0.0808  0.1587
 5469W        W 9213   8.368   0.006   0.605 -0.0853 -0.2068  0.1484
 5470W        W 9214   7.948   8.409   1.642  0.2825  0.0796 -0.0140
 5471W        W 9215   5.811   3.341  11.103 -0.1760  0.4287  0.0835
 5472W        W 9216   8.088   2.095  12.936 -0.0548 -0.0613  0.0787
 5473W        W 9217   0.088   3.939   1.004 -0.0486 -0.2087  0.0399
 5474W        W 9218   5.661   1.638   8.968  0.0438  0.0655  0.0193
 5475W        W 9219   7.652   1.592   9.427  0.0289  0.1544 -0.3956
 5476W        W 9220   6.322   8.104   0.661 -0.0785 -0.1839  0.0063
 5477W        W 9221   9.863   2.271   9.328 -0.1310  0.2778 -0.3982
 5478W        W 9222   8.582   1.375  11.822  0.0389 -0.0951  0.0249
 5479W        W 9223   7.771   2.826  11.938 -0.1147  0.0238 -0.2917
 5480W        W 9224   2.631   2.575  12.641 -0.2695  0.1955  0.1149
 5481W        W 9225   6.828   4.890   3.686  0.3431  0.1461 -0.0795
 5482W        W 9226   3.008   0.765   2.753 -0.0637 -0.0358 -0.1065
 5483W        W 9227   2.133   3.052  11.271 -0.1977  0.1589 -0.1646
 5484W        W 9228   5.966   0.136  12.468 -0.2851 -0.5241 -0.1852
 5485W        W 9229   8.527   2.993  10.008  0.1515  0.0943 -0.0694
 5486W        W 9230   3.539   8.590  12.045 -0.2181  0.1282 -0.1536
 5487W        W 9231   6.177   3.966   2.090 -0.2002  0.0371 -0.2881
 5488W        W 9232   8.021   7.934   1.385 -0.3277  0.0122  0.1249
 5489W        W 9233   8.896   5.897  11.931  0.3331 -0.0058  0.1644
 5490W        W 9234   6.601   9.079   2.058  0.4354 -0.1030  0.0922
 5491W        W 9235   4.343   2.491   9.453  0.2762  0.1690 -0.1677
 5492W        W 9236   1.255   3.606   2.310  0.4039 -0.0155  0.3715
 5493W        W 9237   2.614   1.936   1.824  0.1504  0.1780 -0.3318
 5494W        W 9238   5.651   3.962   0.599  0.3129  0.0293  0.1826
 5495W        W 9239   8.273   4.642   9.379 -0.1363 -0.0496  0.0720
 5496W        W 9240   1.937   7.302   1.403 -0.1424 -0.0011 -0.2402
 5497W        W 9241   0.491   9.477   3.867  0.1002  0.0398 -0.2030
 5498W        W 9242   3.939   5.017   1.759  0.4336 -0.1711  0.0514
 5499W        W 9243   4.783   7.365   9.693 -0.1625  0.0586 -0.0863
 5500W        W 9244   4.295   0.431   8.848  0.0508 -0.0230  0.2171
 5501W        W 9245   2.660   2.094  10.270 -0.1149  0.0830  0.0891
 5502W        W 9246   9.711   7.840   2.075  0.3163  0.0657 -0.0087
 5503W        W 9247   1.959   6.455  10.364  0.0596 -0.2064  0.0996
 5504W        W 9248   6.083   7.197   1.204  0.1470 -0.6228 -0.3594
 5505W        W 9249   6.567   1.803   1.173  0.3877 -0.1693 -0.0503
 5506W        W 9250   5.894   2.615  10.270 -0.3277 -0.0423  0.1428
 5507W        W 9251   9.830   7.993   1.408  0.0719 -0.0632 -0.1463
 5508W        W 9252   7.638   6.638   2.171 -0.1419  0.0457 -0.4589
 5509W        W 9253   7.990   2.246   3.139  0.2273  0.0308  0.1640
 5510W        W 9254   2.486   7.986   1.969  0.1409  0.0670 -0.1366
 5511W        W 9255   1.093   5.666   5.166  0.1280 -0.0385  0.0510
 5512W        W 9256   6.835   5.497   9.242 -0.1280 -0.0876 -0.2032
 5513W        W 9257   5.447   6.211   0.126  0.0055  0.3099 -0.0236
 5514W        W 9258   9.903   1.367   2.617 -0.2516  0.0239 -0.0280
 5515W        W 9259   2.050   7.167   0.293 -0.3020 -0.3403  0.0137
 5516W        W 9260   1.572   4.733   1.272 -0.0979  0.0710  0.1420
 5517W        W 9261   2.897   8.364   0.278 -0.0739 -0.0612 -0.1452
 5518W        W 9262   9.023   0.985   2.065 -0.1256  0.1630  0.0243
 5519W        W 9263   2.971   7.181   0.163  0.2959 -0.1927 -0.0001
 5520W        W 9264   1.765   3.633   1.576  0.3075 -0.1105 -0.1301
 5521W        W 9265   2.508   8.045   0.445  0.0725 -0.2654  0.0350
 5522W        W 9266   2.078   9.272   3.465 -0.2063  0.0253  0.0968
 5523W        W 9267   3.499   3.285   9.556  0.0374 -0.3436  0.0075
 5524W        W 9268   0.843   6.501   1.765 -0.1157 -0.3245  0.1059
 5525W        W 9269   4.990   5.204  11.258  0.0441  0.0677 -0.3057
 5526W        W 9270   6.243   6.227  12.426  0.2478 -0.0474 -0.1101
 5527W        W 9271   5.053   7.680   1.269  0.1831  0.3634  0.0990
 5528W        W 9272   0.929   8.516   2.176  0.0282  0.1639  0.1456
 5529W        W 9273   1.800   4.033  10.629  0.3792 -0.2230  0.2186
 5530W        W 9274   0.626   1.075  12.136  0.0852  0.2715 -0.1405
 5531W        W 9275   7.266   2.490   1.671  0.2668 -0.0183 -0.0441
 5532W        W 9276   7.198   2.293   9.329 -0.2181 -0.1604  0.1036
 5533W        W 9277   6.939   0.010   2.760  0.2031  0.3250  0.1387
 5534W        W 9278   3.866   2.857   3.120 -0.0292  0.1305  0.0286
 5535W        W 9279   5.935   7.042   3.206  0.2231 -0.2023  0.0202
 5536W        W 9280   8.964   0.062  10.492 -0.1639 -0.0288 -0.0222
 5537W        W 9281   3.377   5.070   0.680  0.1850 -0.0307  0.3250
 5538W        W 9282   9.380   5.568  11.796  0.0903  0.0825 -0.0073
 5539W        W 9283   3.793   8.377   0.481  0.2690 -0.0969 -0.0966
 5540W        W 9284   0.584   8.470   1.814 -0.1060 -0.2267 -0.3765
 5541W        W 9285   9.899   4.159  12.085 -0.1287 -0.0736 -0.0203
 5542W        W 9286   6.851   5.566   2.619 -0.2134  0.0822 -0.2839
 5543W        W 9287   6.861   9.209  10.716  0.3922  0.1584 -0.0382
 5544W        W 9288   0.004   3.430  10.931  0.2838  0.1209 -0.1246
 5545W        W 9289   0.260   4.156   8.983  0.3698 -0.0597 -0.1226
 5546W        W 9290   5.282   2.768   2.206 -0.1520 -0.1323  0.0006
 5547W        W 9291   4.237   4.116  12.205 -0.2189 -0.0706  0.0852
 5548W        W 9292   6.489   1.025   0.685 -0.0692 -0.0647  0.1657
 5549W        W 9293   5.468   1.571  12.023 -0.2233 -0.1074 -0.0839
 5550W        W 9294   4.037   9.153  10.428  0.2609  0.0138  0.0428
 5551W        W 9295   2.256   1.852   9.255  0.0053 -0.0951 -0.1304
 5552W        W 9296   8.651   6.882   1.011 -0.2814 -0.1822 -0.1482
 5553W        W 9297   7.590   5.185   8.423  0.2314  0.0491 -0.4383
 5554W        W 9298   5.733   8.694   5.191 -0.1575  0.1068  0.0935
 5555W        W 9299   2.745   8.852  10.416  0.2063  0.3113  0.0284
 5556W        W 9300   8.056   8.778   9.484 -0.1067  0.0476  0.0853
 5557W        W 9301   4.905   5.448   1.419 -0.1867 -0.3902 -0.0666
 5558W        W 9302   1.394   2.610   8.263 -0.1182 -0.1044 -0.3359
 5559W        W 9303   0.496   0.931   0.383  0.0150 -0.2027  0.2377
 5560W        W 9304   9.128   6.532   3.217  0.0191 -0.0160 -0.2418
 5561W        W 9305   8.217   4.453  10.463 -0.0472 -0.1132  0.4124
 5562W        W 9306   6.067   8.855  12.384  0.2508 -0.0565  0.1498
 5563W        W 9307   1.917   8.771   0.108 -0.1347 -0.1344 -0.1782
 5564W        W 9308   6.661   9.244   4.626 -0.1568  0.1952  0.2198
 5565W        W 9309   5.546   1.960  12.347 -0.3540  0.1788  0.1867
 5566W        W 9310   0.402   1.892   3.244 -0.1073  0.0674 -0.2567
 5567W        W 9311   0.214   1.747  12.903 -0.1019  0.0020  0.3439
 5568W        W 9312   2.334   7.244   2.600 -0.0972 -0.0227  0.0569
 5569W        W 9313   7.658   0.569   9.410 -0.2957 -0.3533  0.0328
 5570W        W 9314   1.715   0.320   3.616 -0.2546  0.1262  0.0842
 5571W        W 9315   5.296   7.974   2.603  0.1566 -0.1994  0.0830
 5572W        W 9316   2.155   2.192  11.521 -0.2009  0.0065 -0.0776
 5573W        W 9317   5.783   7.279  12.704  0.0074  0.1321 -0.1872
 5574W        W 9318   8.589   1.770   9.309  0.1035  0.0546  0.1095
 5575W        W 9319   2.211   0.623   3.577 -0.4504  0.0749 -0.1974
 5576W        W 9320   4.426   6.007  10.921 -0.1441 -0.2269  0.0919
 5577W        W 9321   5.199   6.281  10.642  0.2794  0.0780  0.0011
 5578W        W 9322   2.195   4.914   9.413 -0.2268  0.1094 -0.0667
 5579W        W 9323   9.078   9.309  12.550 -0.0877  0.0352  0.0998
 5580W        W 9324   8.830   3.844  10.778 -0.2195  0.4369 -0.0507
 5581W        W 9325   0.909   3.040   2.811  0.0235  0.2405  0.0504
 5582W        W 9326   4.033   0.915  10.390 -0.1827 -0.4437 -0.0192
 5583W        W 9327   0.341   2.812   4.270 -0.2216 -0.0213 -0.1370
 5584W        W 9328   4.498   4.836   3.422  0.0707 -0.0247  0.0936
 5585W        W 9329   7.146   2.791   1.276 -0.2593  0.1867 -0.1091
 5586W        W 9330   6.064   1.847   2.574 -0.2757  0.2081 -0.1419
 5587W        W 9331   3.875   4.190   1.502 -0.2508  0.2166  0.1009
 5588W        W 9332   5.752   0.971   9.380 -0.0725 -0.0876 -0.0399
 5589W        W 9333   0.698   1.250   0.688 -0.1940 -0.3253 -0.0375
 5590W        W 9334   5.115   8.194  12.441  0.2475 -0.6182 -0.2112
 5591W        W 9335   4.264   3.130  11.491  0.1603  0.0703 -0.2635
 5592W        W 9336   1.511   7.001   1.443  0.2901  0.0852 -0.0250
 5593W        W 9337   7.184   0.192   4.655 -0.0874  0.0031  0.1140
 5594W        W 9338   4.906   5.601   0.103  0.2749 -0.2423  0.0156
 5595W        W 9339   4.703   9.106   9.621 -0.2219 -0.3474 -0.0646
 5596W        W 9340   3.613   7.954   0.716  0.2443 -0.1204  0.0411
 5597W        W 9341   5.540   6.784   1.101  0.4064 -0.2311 -0.2248
 5598W        W 9342   9.609   3.630   9.490 -0.1003 -0.0452 -0.0791
 5599W        W 9343   5.004   8.628   4.400 -0.3426 -0.1825 -0.0438
 5600W        W 9344   3.279   3.807   8.343 -0.2183  0.1534  0.1545
 5601W        W 9345   1.439   5.963  12.786  0.0351 -0.0907 -0.0219
 5602W        W 9346   3.649   7.771  12.679  0.3736 -0.3017 -0.2082
 5603W        W 9347   8.248   4.396   8.870  0.0603 -0.0009  0.0857
 5604W        W 9348   5.508   1.130   9.008 -0.0877 -0.1411 -0.1125
 5605W        W 9349   1.491   6.997   0.898 -0.0175  0.2051  0.0208
 5606W        W 9350   5.496   2.540  12.031 -0.0977  0.1671 -0.4521
 5607W        W 9351   7.981   5.379  12.247  0.1503  0.0047  0.3323
 5608W        W 9352   7.558   6.975   0.803 -0.0788  0.0094  0.0551
 5609W        W 9353   2.314   9.740  10.619 -0.1279 -0.1695  0.1575
 5610W        W 9354   5.883   2.346   0.842 -0.1439  0.0610  0.1907
 5611W        W 9355   8.302   4.922   4.279  0.1384  0.3523  0.4407
 5612W        W 9356   3.140   0.782   1.588 -0.2486 -0.0628  0.0166
 5613W        W 9357   3.053   8.349  11.409  0.1178  0.2062 -0.0223
 5614W        W 9358   1.267   7.710  12.813 -0.0366  0.1536 -0.2779
 5615W        W 9359   4.147   7.524   0.388  0.0893 -0.1109  0.0148
 5616W        W 9360   0.932   1.953  11.026  0.2212 -0.0711  0.0881
 5617W        W 9361   5.757   3.923   9.105 -0.0251  0.1341 -0.0057
 5618W        W 9362   7.587   1.080   3.020 -0.0556 -0.0335 -0.0712
 5619W        W 9363   6.122   6.428   2.037 -0.2600  0.1185 -0.1680
 5620W        W 9364   4.669   1.543   0.119 -0.1753 -0.0555  0.0721
 5621W        W 9365   0.116   4.084  12.657 -0.2054 -0.1373 -0.0439
 5622W        W 9366   5.573   4.281  11.663 -0.1091  0.1789 -0.0939
 5623W        W 9367   6.149   1.755   8.642 -0.0222 -0.0321  0.1517
 5624W        W 9368   4.307   5.791  12.618  0.0874 -0.0819  0.0914
 5625W        W 9369   3.977   5.414  12.040 -0.1786  0.2185 -0.1999
 5626W        W 9370   9.742   4.714  12.043 -0.2629  0.2204 -0.0210
 5627W        W 9371   5.810   1.330   0.037  0.0130 -0.1078 -0.1243
 5628W        W 9372   6.130   6.630  12.127  0.1611 -0.3578  0.2691
 5629W        W 9373   7.846   4.092   2.331  0.0183 -0.0991 -0.1416
 5630W        W 9374   8.850   7.017   2.736  0.0944 -0.0547 -0.2586
 5631W        W 9375   3.276   2.898   9.246  0.0722  0.1149 -0.0359
 5632W        W 9376   2.332   2.209   2.316  0.0842 -0.1510 -0.1902
 5633W        W 9377   1.257   8.219   9.971 -0.3031 -0.1175  0.0893
 5634W        W 9378   2.464   1.935   0.024  0.1032  0.1388 -0.0862
 5635W        W 9379   1.386   5.889  12.325 -0.3070 -0.1644  0.2059
 5636W        W 9380   5.824   6.503   0.064 -0.0452 -0.2861  0.1334
 5637W        W 9381   2.524   2.707   4.835 -0.4156  0.0659  0.1108
 5638W        W 9382   3.053   2.925   4.111 -0.1425 -0.2980 -0.0854
 5639W        W 9383   0.403   1.374   3.477  0.1987  0.2317 -0.0582
 5640W        W 9384   1.018   1.085   0.346  0.0965  0.1757 -0.2418
 5641W        W 9385   7.979   0.291   9.622  0.1947  0.4737 -0.1646
 5642W        W 9386   6.375   2.409   4.139  0.1829 -0.2234 -0.1088
 5643W        W 9387   3.431   6.286  12.492 -0.0579 -0.0177 -0.0498
 5644W        W 9388   4.755   6.530   3.666  0.1546  0.0077  0.0605
 5645W        W 9389   9.019   3.445  12.488 -0.0783 -0.0456 -0.1818
 5646W        W 9390   5.005   8.158   0.983 -0.0345 -0.2677 -0.0353
 5647W        W 9391   6.007   8.405   0.393 -0.3527 -0.1659  0.2115
 5648W        W 9392   7.809   5.365   0.350  0.1784  0.1012  0.1369
 5649W        W 9393   7.260   3.038  10.575 -0.1276 -0.0744  0.1514
 5650W        W 9394   7.711   5.386  12.807  0.2078 -0.0230  0.1229
 5651W        W 9395   3.477   8.123  11.797  0.2158  0.0716  0.2008
 5652W        W 9396   6.370   2.061   2.901  0.0342  0.0430  0.0824
 5653W        W 9397   9.146   2.329   2.423  0.0160  0.6407  0.0734
 5654W        W 9398   5.263   5.008   9.714 -0.2076 -0.0878 -0.3740
 5655W        W 9399   0.070   8.270   9.429 -0.3182  0.0414  0.2655
 5656W        W 9400   5.882   6.549   3.165 -0.0188 -0.0744 -0.1787
 5657W        W 9401   8.064   4.007   8.108 -0.2922  0.0734 -0.0404
 5658W        W 9402   5.054   8.354  11.884 -0.0330  0.0910 -0.1487
 5659W        W 9403   3.682   1.512   8.589  0.0587  0.0513  0.3670
 5660W        W 9404   5.160   2.067   9.506  0.0491  0.2107 -0.0146
 5661W        W 9405   0.462   4.189  11.109  0.0271  0.0859  0.3963
 5662W        W 9406   0.255   5.887   0.090 -0.0669 -0.0096 -0.2265
 5663W        W 9407   2.366   1.579  12.166  0.0008  0.3775 -0.0402
 5664W        W 9408   8.475   5.756  12.695  0.1585  0.0148 -0.1880
 5665W        W 9409   2.458   0.054   1.514 -0.2536 -0.3629 -0.0617
 5666W        W 9410   5.489   4.767   8.956  0.2122 -0.0996 -0.1386
 5667W        W 9411   7.797   3.580   9.135 -0.2654 -0.1287 -0.2667
 5668W        W 9412   6.212   3.044  11.612 -0.1416  0.0633 -0.0398
 5669W        W 9413   5.798   1.811   3.546  0.0691 -0.1086  0.2915
 5670W        W 9414   7.215   4.572   2.856 -0.4093 -0.0998  0.3911
 5671W        W 9415   3.389   0.512   2.611  0.0017 -0.1973 -0.0994
 5672W        W 9416   3.708   6.824  12.063 -0.1659 -0.0848 -0.0164
 5673W        W 9417   3.759   4.329  11.511 -0.0880  0.0791  0.1807
 5674W        W 9418   8.872   0.605  12.139  0.0585  0.1194 -0.2172
 5675W        W 9419   2.850   0.789  12.373  0.2594  0.0073 -0.0871
 5676W        W 9420   8.120   9.669   9.423  0.3554  0.2119  0.1098
 5677W        W 9421   9.383   9.580   1.792 -0.1924 -0.1647 -0.4243
 5678W        W 9422   3.595   9.632   4.192 -0.4062 -0.0627  0.0602
 5679W        W 9423   3.791   2.535   1.357 -0.1216 -0.1496 -0.1796
 5680W        W 9424   7.017   3.095   3.276  0.0661 -0.2800 -0.2565
 5681W        W 9425   5.108   0.048   1.081  0.3597  0.1151  0.1107
 5682W        W 9426   4.270   9.863   2.195  0.0412 -0.3364 -0.1900
 5683W        W 9427   5.386   3.751   5.211 -0.1656  0.0546  0.2569
 5684W        W 9428   4.445   9.478   4.039 -0.0503  0.2978 -0.0116
 5685W        W 9429   5.060   7.758   0.662  0.2714  0.0507 -0.0321
 5686W        W 9430   6.353   2.386   9.779 -0.1087 -0.2762  0.1742
 5687W        W 9431   3.996   0.433   3.677 -0.6055 -0.1894  0.0177
 5688W        W 9432   8.798   4.340  12.140 -0.1273 -0.0812 -0.0734
 5689W        W 9433   3.825   1.771   3.203  0.1979  0.1496 -0.0605
 5690W        W 9434   4.676   0.148   1.986  0.0451  0.2312 -0.2990
 5691W        W 9435   5.123   1.273   3.494  0.3045 -0.2722  0.0473
 5692W        W 9436   6.770   9.588   3.574  0.1219  0.2076  0.4150
 5693W        W 9437   4.295   4.036   2.523  0.1438  0.0366  0.0400
 5694W        W 9438   6.341   8.579  12.136  0.3215 -0.0876  0.1323
 5695W        W 9439   0.521   7.849   1.542 -0.1825 -0.2744 -0.1039
 5696W        W 9440   0.343   9.861   2.041 -0.3637  0.1408 -0.2120
 5697W        W 9441   8.680   7.826  10.185 -0.0197  0.2051 -0.2646
 5698W        W 9442   2.330   6.970  12.404  0.1403 -0.1333 -0.3995
 5699W        W 9443   0.552   0.493  12.939  0.1889 -0.0660 -0.0017
 5700W        W 9444   7.059   8.460   9.908 -0.2103 -0.0075 -0.1757
 5701W        W 9445   9.020   9.555  10.039  0.0714  0.1426 -0.0232
 5702W        W 9446   9.020   7.801  10.898 -0.2408 -0.0640  0.2077
 5703W        W 9447   3.816   6.889   9.585 -0.2734  0.1031  0.0609
 5704W        W 9448   7.119   7.925   1.158 -0.0653 -0.0334 -0.2844
 5705W        W 9449   5.967   9.782   0.554 -0.0020  0.1129 -0.1700
 5706W        W 9450   6.385   8.237   2.988  0.1182  0.1566  0.1408
 5707W        W 9451   2.951   2.601   8.901  0.1936 -0.0131 -0.0900
 5708W        W 9452   6.938   6.878   8.911  0.1457  0.2814  0.1454
 5709W        W 9453   5.018   4.501  10.669 -0.0705 -0.2210  0.1797
 5710W        W 9454   4.453   0.225   2.534  0.0099 -0.0073 -0.1310
 5711W        W 9455   7.177   7.228   2.201 -0.0982 -0.0383  0.0580
 5712W        W 9456   1.776   0.021  11.430  0.0647 -0.0720 -0.2333
 5713W        W 9457   9.438   8.339  10.921 -0.1024 -0.1343 -0.0079
 5714W        W 9458   1.808   6.163  12.324 -0.0335 -0.1450  0.1758
 5715W        W 9459   7.849   0.024  12.686 -0.1538 -0.5017  0.0289
 5716W        W 9460   0.989   8.105  10.672  0.1719 -0.1306 -0.1432
 5717W        W 9461   2.114   4.682   2.793 -0.1717 -0.2252 -0.1150
 5718W        W 9462   5.640   4.843   3.237 -0.1653  0.0183 -0.1487
 5719W        W 9463   2.430   0.423  12.627 -0.0730  0.1285  0.2765
 5720W        W 9464   6.306   0.567   2.410 -0.0546 -0.0485  0.1672
 5721W        W 9465   4.091   9.375  11.680 -0.1328  0.0076 -0.2881
 5722W        W 9466   9.815   8.645  12.413 -0.0190  0.1665  0.0216
 5723W        W 9467   6.755   8.835   9.995 -0.2871  0.1060 -0.3590
 5724W        W 9468   0.175   3.011  11.150 -0.2766  0.1454 -0.1572
 5725W        W 9469   7.304   9.532   9.878  0.0969 -0.1365  0.0726
 5726W        W 9470   3.125   5.174  12.606 -0.1688 -0.0519 -0.0541
 5727W        W 9471   2.593   3.295  11.199 -0.2957  0.2010  0.3449
 5728W        W 9472   3.773   3.640   1.726  0.0971  0.3349  0.2227
 5729W        W 9473   0.254   6.552  10.713 -0.1343  0.0769 -0.3040
 5730W        W 9474   8.666   1.070   1.079  0.0312 -0.0191  0.2520
 5731W        W 9475   4.100   0.301  12.054 -0.0824  0.0412  0.2665
 5732W        W 9476   8.951   9.856   1.930 -0.0254  0.0606 -0.0704
 5733W        W 9477   3.458   6.558   2.245 -0.3073 -0.2778 -0.1588
 5734W        W 9478   0.454   3.599   2.772  0.0426 -0.3492 -0.0694
 5735W        W 9479   9.137   0.861  11.057  0.2738  0.3142  0.4848
 5736W        W 9480   2.127   3.303   1.563 -0.0022  0.2979 -0.1862
 5737W        W 9481   7.017   0.656   1.494  0.1694  0.0131  0.0205
 5738W        W 9482   1.680   5.796  10.896 -0.0709  0.2255  0.1695
 5739W        W 9483   3.552   0.756  11.468 -0.2205  0.3041  0.3794
 5740W        W 9484   9.702   6.418  10.459  0.2922 -0.0985 -0.1543
 5741W        W 9485   6.972   4.355   1.949  0.0714  0.0332  0.0481
 5742W        W 9486   4.162   1.231  10.895 -0.2215 -0.1285  0.0092
 5743W        W 9487   8.850   7.511   1.239  0.0465  0.3043  0.0373
 5744W        W 9488   0.745   0.179   0.836  0.1124  0.3536  0.0295
 5745W        W 9489   1.611   8.420  11.444 -0.0543  0.5342 -0.1991
 5746W        W 9490   7.627   3.498   3.699  0.0562 -0.0028 -0.3856
 5747W        W 9491   4.736   5.890   0.555 -0.2123 -0.2222 -0.2447
 5748W        W 9492   8.676   5.047  10.095 -0.1314 -0.0386 -0.0021
 5749W        W 9493   5.032   0.717  11.422  0.0496  0.0013  0.3332
 5750W        W 9494   0.384   0.438  11.823 -0.0544  0.3178 -0.0444
 5751W        W 9495   5.928   2.412  12.886  0.2749  0.1123  0.3651
 5752W        W 9496   6.657   9.017   0.688  0.0091  0.1727  0.0465
 5753W        W 9497   0.131   4.401   0.950 -0.3951 -0.1258 -0.2205
 5754W        W 9498   0.260   6.217  10.407  0.0408 -0.2520  0.1589
 5755W        W 9499   4.078   2.514  11.217 -0.1218 -0.0443  0.0785
 5756W        W 9500   7.979   4.777   0.165 -0.0031  0.1092  0.0239
 5757W        W 9501   3.782   7.393   0.055 -0.0125  0.2939 -0.2009
 5758W        W 9502   5.100   2.221  12.692 -0.2067  0.3959 -0.0458
 5759W        W 9503   5.161   7.875  11.994  0.0404  0.2682 -0.1141
 5760W        W 9504   5.855   6.176  10.391  0.1134  0.0832 -0.1744
 5761W        W 9505   0.582   1.734   2.709  0.1638  0.2268  0.1217
 5762W        W 9506   8.052   1.283   4.658  0.0354 -0.2930  0.0198
 5763W        W 9507   4.286   8.589  11.378  0.0174 -0.0926  0.0268
 5764W        W 9508   1.315   2.447  10.387  0.0141 -0.0242 -0.0307
 5765W        W 9509   9.687   9.489   2.313  0.0074  0.2260 -0.0246
 5766W        W 9510   7.345   0.439   0.790 -0.1013 -0.0044  0.0484
 5767W        W 9511   2.038   1.125   4.239 -0.1634  0.0615 -0.0837
 5768W        W 9512   2.688   3.636  10.757 -0.2372 -0.1406 -0.2050
 5769W        W 9513   3.962   0.334   2.627  0.0051  0.2283  0.3334
 5770W        W 9514   0.522   5.103  12.525  0.2079 -0.2285 -0.0085
 5771W        W 9515   6.748   2.778   2.014 -0.0769  0.3359 -0.1707
 5772W        W 9516   2.920   6.031  11.606 -0.1054  0.0219  0.0388
 5773W        W 9517   8.650   0.487   2.591  0.0216  0.2107  0.1992
 5774W        W 9518   8.239   1.002  12.599 -0.1105  0.2219  0.1741
 5775W        W 9519   7.908   6.870  10.548  0.4379  0.0857  0.0100
 5776W        W 9520   6.434   3.598   3.932 -0.3989  0.0191  0.1821
 5777W        W 9521   4.440   3.981   3.548  0.2876  0.1909  0.0634
 5778W        W 9522   4.036   6.620   1.651  0.2247  0.1440 -0.0441
 5779W        W 9523   9.630   9.852   1.407  0.1613 -0.2609  0.1256
 5780W        W 9524   4.272   1.851   9.465 -0.0137  0.0047 -0.0223
 5781W        W 9525   1.882   0.809   1.368  0.1734  0.3778 -0.1137
 5782W        W 9526   9.850   6.939   3.197  0.1252 -0.0906  0.0492
 5783W        W 9527   2.837   6.552   1.035  0.0408 -0.0436  0.1870
 5784W        W 9528   6.210   0.479   2.985 -0.3405  0.1642  0.0811
 5785W        W 9529   9.805   5.784  10.412  0.6565 -0.2870 -0.1897
 5786W        W 9530   6.222   5.858   4.874 -0.1224 -0.3530  0.0133
 5787W        W 9531   3.621   5.722   1.625  0.2325 -0.3836 -0.3376
 5788W        W 9532   5.023   3.129  10.500 -0.0831 -0.3028  0.3269
 5789W        W 9533   3.646   5.814  11.935  0.0626 -0.0251  0.1231
 5790W        W 9534   9.280   8.667  12.310  0.2529  0.2408 -0.0100
 5791W        W 9535   9.138   8.439   0.833  0.0814 -0.0877 -0.0047
 5792W        W 9536   5.634   8.121  10.693 -0.0855  0.1545  0.1004
 5793W        W 9537   5.497   5.225   9.228 -0.3997  0.0277 -0.2805
 5794W        W 9538   6.061   0.774   3.392  0.0080  0.3799  0.1752
 5795W        W 9539   0.225   2.242  11.671  0.0098  0.2001 -0.0096
 5796W        W 9540   5.589   0.902   1.485 -0.2077 -0.2561 -0.0564
 5797W        W 9541   5.292   9.613  11.155  0.0522  0.1118 -0.2029
 5798W        W 9542   8.005   0.010   2.185 -0.1599  0.3170  0.2606
 5799W        W 9543   8.599   1.835   9.813  0.1038 -0.1237  0.2507
 5800W        W 9544   0.904   7.760   5.702 -0.0223 -0.2029  0.1462
 5801W        W 9545   2.293   6.779   9.568  0.1069  0.1015  0.0487
 5802W        W 9546   6.458   3.512  11.727 -0.3951 -0.3251 -0.0489
 5803W        W 9547   5.711   6.189   1.989  0.1043  0.0257  0.1522
 5804W        W 9548   5.868   3.860   8.609 -0.1844 -0.0618 -0.0676
 5805W        W 9549   3.017   4.701   0.061  0.0510 -0.3405  0.1104
 5806W        W 9550   8.640   7.777   2.078 -0.1175  0.1492  0.0413
 5807W        W 9551   4.125   0.893   3.358  0.2845  0.1283  0.0582
 5808W        W 9552   9.288   0.395  10.783  0.1659 -0.0081  0.1866
 5809W        W 9553   2.258   2.254   4.248  0.0817  0.0526  0.1818
 5810W        W 9554   4.723   4.716  12.776 -0.2142 -0.4504 -0.2602
 5811W        W 9555   3.106   5.216   2.434 -0.0123 -0.1175 -0.0716
 5812W        W 9556   0.411   5.394   1.753  0.1085  0.0977 -0.0918
 5813W        W 9557   7.482   9.499  11.170  0.2045 -0.1145  0.0985
 5814W        W 9558   5.079   3.413  12.457  0.0219 -0.0790 -0.0261
 5815W        W 9559   5.838   2.556   7.923 -0.4064  0.0036 -0.0267
 5816W        W 9560   4.068   0.960   3.850 -0.1354  0.1815 -0.0842
 5817W        W 9561   5.983   4.314   8.619 -0.0539  0.3293  0.2868
 5818W        W 9562   4.037   3.908   3.960  0.0957  0.2625 -0.1039
 5819W        W 9563   0.238   4.383   2.901 -0.1007 -0.0721  0.2317
 5820W        W 9564   0.742   5.764   0.673  0.5914 -0.2477 -0.3765
 5821W        W 9565   8.296   8.476   3.710  0.0919 -0.0891 -0.3676
 5822W        W 9566   0.050   4.841  10.722 -0.0558 -0.0183 -0.1921
 5823W        W 9567   7.264   1.207   3.542 -0.1121  0.2520 -0.0685
 5824W        W 9568   5.665   2.538   0.359  0.0898 -0.1279 -0.2723
 5825W        W 9569   6.813   1.148  10.964  0.4442  0.1694 -0.1277
 5826W        W 9570   0.904   1.343  11.726  0.2603  0.2490 -0.0084
 5827W        W 9571   5.402   0.179  12.625  0.1469  0.1536  0.1510
 5828W        W 9572   7.619   2.039  11.212  0.1456 -0.1262  0.1178
 5829W        W 9573   8.633   8.992  10.309  0.0091  0.2507 -0.1446
 5830W        W 9574   3.309   2.666   8.444 -0.1368  0.0848  0.5254
 5831W        W 9575   8.464   1.756  11.489  0.3077  0.2306 -0.0491
 5832W        W 9576   0.841   0.311  12.002 -0.2283  0.0765  0.0749
 5833W        W 9577   1.620   1.664   5.000 -0.0524  0.0393  0.1363
 5834W        W 9578   3.146   7.329  11.322  0.0597  0.0498 -0.1006
 5835W        W 9579   5.328   3.832   2.618  0.0675 -0.1005  0.2947
 5836W        W 9580   7.634   3.535  11.334 -0.1086  0.0357  0.2559
 5837W        W 9581   8.562   6.241   9.003  0.0216  0.1522 -0.0356
 5838W        W 9582   3.047   0.076  11.838 -0.1876 -0.1057 -0.1701
 5839W        W 9583   3.889   9.662  12.046 -0.1066 -0.1331  0.4204
 5840W        W 9584   9.382   1.954  11.272  0.1645 -0.1224 -0.0358
 5841W        W 9585   9.776   6.235  11.617  0.1971  0.1443  0.0419
 5842W        W 9586   1.574   0.218   4.248 -0.1565  0.0383  0.0759
 5843W        W 9587   9.077   0.258   9.610  0.2026 -0.2478  0.4751
 5844W        W 9588   7.709   9.010   8.533  0.1915  0.1024 -0.0192
 5845W        W 9589   3.756   6.072   9.010  0.1281 -0.0054  0.0944
 5846W        W 9590   6.436   1.434  10.897  0.1711 -0.1933  0.0755
 5847W        W 9591   5.512   2.464  12.550 -0.0651  0.1031 -0.1488
 5848W        W 9592   5.979   8.917  10.515  0.1966 -0.2070 -0.0881
 5849W        W 9593   8.893   6.463   1.642  0.1171 -0.1695  0.0485
 5850W        W 9594   2.395   0.761  11.493 -0.3543 -0.1853 -0.2384
 5851W        W 9595   2.978   1.105  12.719 -0.0063 -0.0976  0.1281
 5852W        W 9596   0.369   2.670   9.321  0.2543 -0.5695  0.1201
 5853W        W 9597   4.602   4.467   1.813 -0.0747 -0.2411 -0.0477
 5854W        W 9598   0.088   1.746   2.207 -0.3612  0.1608 -0.4106
 5855W        W 9599   9.170   7.063   0.968 -0.0191 -0.0912 -0.1771
 5856W        W 9600   8.091   8.262   5.056 -0.1133  0.1962  0.1335
 5857W        W 9601   9.538   8.073  11.741  0.3295  0.3506  0.1357
 5858W        W 9602   4.698   3.127  12.273  0.0801 -0.0642  0.0952
 5859W        W 9603   9.687   5.181  11.874  0.2977 -0.1435  0.0143
 5860W        W 9604   4.544   1.008   3.661 -0.1275 -0.1034  0.1224
 5861W        W 9605   4.777   6.092  12.542  0.0566 -0.1028  0.0762
 5862W        W 9606   9.629   4.815   2.135  0.1741  0.1389 -0.2235
 5863W        W 9607   0.953   8.305   0.773 -0.1100  0.4231  0.0552
 5864W        W 9608   2.469   3.169   3.070  0.2670  0.3425  0.0310
 5865W        W 9609   3.878   5.697   9.423 -0.3967 -0.1464  0.2953
 5866W        W 9610   6.502   0.222  10.327 -0.0434  0.1335 -0.0819
 5867W        W 9611   1.785   4.460   1.715 -0.1874 -0.0506  0.1793
 5868W        W 9612   4.468   0.496   9.574  0.0845 -0.1112  0.0040
 5869W        W 9613   3.667   7.335  11.968  0.0844  0.0333  0.2066
 5870W        W 9614   2.349   8.709   3.420  0.0197  0.3242  0.1676
 5871W        W 9615   2.615   2.449   0.218  0.1893 -0.0379  0.2934
 5872W        W 9616   1.506   3.559   2.890 -0.2849 -0.1840  0.3814
 5873W        W 9617   7.358   1.728   3.774  0.2110 -0.2012 -0.0503
 5874W        W 9618   3.191   3.865   1.904  0.3492  0.0004  0.0259
 5875W        W 9619   5.242   9.898   2.027 -0.1828 -0.1484 -0.0595
 5876W        W 9620   8.532   2.274   3.162  0.1024  0.0546 -0.1331
 5877W        W 9621   1.333   7.598  12.082 -0.0693 -0.0560 -0.3610
 5878W        W 9622   8.477   5.198   2.821 -0.0211 -0.3313 -0.1498
 5879W        W 9623   2.627   8.732  12.574  0.0185 -0.3472  0.1443
 5880W        W 9624   4.143   7.505   1.436  0.0426  0.2678 -0.1145
 5881W        W 9625   5.379   3.141   0.861 -0.1072 -0.5550  0.1557
 5882W        W 9626   4.625   6.318  10.614  0.0704 -0.1435 -0.0330
 5883W        W 9627   4.240   4.464   0.960  0.0568  0.1072  0.0908
 5884W        W 9628   9.772   0.123   2.207 -0.2561  0.2698  0.0493
 5885W        W 9629   9.074   5.671   2.922 -0.2339  0.0256 -0.0957
 5886W        W 9630   5.488   1.758   3.123  0.1261  0.0511  0.1426
 5887W        W 9631   5.377   0.410   1.273 -0.5534 -0.2243  0.1938
 5888W        W 9632   3.726   0.022  10.339  0.0517  0.2732 -0.0667
 5889W        W 9633   3.329   1.993  12.425 -0.0891  0.0380  0.0748
 5890W        W 9634   1.283   1.209   2.682 -0.0602  0.1309 -0.0711
 5891W        W 9635   9.447   8.256  10.192  0.0975  0.1010 -0.4463
 5892W        W 9636   5.171   6.472   9.726  0.0877 -0.0322  0.3344
 5893W        W 9637   2.603   3.547  10.109 -0.1372  0.3974 -0.0231
 5894W        W 9638   0.467   4.648  11.418  0.2278 -0.2167  0.1280
 5895W        W 9639   7.674   8.307  10.869 -0.1712  0.0428 -0.1597
 5896W        W 9640   1.074   1.068   4.186  0.3807 -0.5198  0.1890
 5897W        W 9641   1.543   1.092  10.473 -0.2559 -0.2839 -0.0350
 5898W        W 9642   7.165   1.964   3.362  0.0371  0.2990 -0.2318
 5899W        W 9643   8.865   8.231   1.958  0.2484 -0.1422 -0.0616
 5900W        W 9644   6.633   3.792   1.236  0.0314  0.1868 -0.0413
 5901W        W 9645   0.397   6.589   2.012  0.2744  0.2000 -0.3416
 5902W        W 9646   1.212   2.939   3.693  0.0308 -0.3226 -0.5008
 5903W        W 9647   2.334   6.578   5.580  0.0124  0.0510  0.1333
 5904W        W 9648   4.252   8.663   4.944  0.3308 -0.0849 -0.0415
 5905W        W 9649   0.277   7.260  11.429 -0.0564  0.4874  0.1188
 5906W        W 9650   2.858   2.657   9.579 -0.1829  0.0798 -0.2449
 5907W        W 9651   7.796   8.789   3.139 -0.0089  0.2355  0.2843
 5908W        W 9652   2.503   9.431   0.135 -0.2436  0.0055  0.3445
 5909W        W 9653   2.226   0.786  10.578  0.1900  0.1619  0.0985
 5910W        W 9654   7.984   0.791   9.711 -0.0406 -0.2422 -0.0504
 5911W        W 9655   3.246   4.955  10.949 -0.0190 -0.1252 -0.1274
 5912W        W 9656   0.262   7.567  12.462 -0.0747  0.0418  0.1607
 5913W        W 9657   3.508   0.176   9.279 -0.0715  0.2870  0.1321
 5914W        W 9658   7.085   0.563   0.202  0.0365  0.2660 -0.1420
 5915W        W 9659   9.638   0.661  11.001  0.0829 -0.3050  0.0735
 5916W        W 9660   1.379   2.565   4.026 -0.0872  0.3931  0.0143
 5917W        W 9661   4.809   5.281   2.317 -0.0203 -0.2175 -0.3203
 5918W        W 9662   9.547   1.243  12.340  0.2579  0.2908 -0.0655
 5919W        W 9663   2.553   5.806   0.070  0.3194  0.0777  0.0308
 5920W        W 9664   4.694   2.000   9.838 -0.0840 -0.3329  0.1193
 5921W        W 9665   3.621   3.338  10.431  0.1427  0.0565 -0.1710
 5922W        W 9666   1.016   2.511  10.824  0.0841  0.0333 -0.1487
 5923W        W 9667   2.453   4.455   1.453 -0.0409 -0.0484 -0.0292
 5924W        W 9668   6.716   8.043   2.635  0.1285 -0.1782 -0.0661
 5925W        W 9669   2.986   4.652   3.499 -0.0747 -0.2985 -0.2621
 5926W        W 9670   0.433   9.377  11.871 -0.3018 -0.2899 -0.0937
 5927W        W 9671   9.466   3.957   4.489 -0.1934 -0.0493  0.0476
 5928W        W 9672   4.757   9.092   1.726  0.1997 -0.0263  0.2047
 5929W        W 9673   4.468   6.123  10.102  0.2043 -0.0916  0.1012
 5930W        W 9674   0.393   8.157   3.714  0.1756  0.0531  0.1780
 5931W        W 9675   5.543   9.238   3.950  0.1254 -0.0270  0.2852
 5932W        W 9676   4.521   2.152   8.538  0.1476 -0.1182 -0.0117
 5933W        W 9677   2.902   3.241   2.670 -0.1810  0.1339  0.2228
 5934W        W 9678   6.520   9.288  12.315  0.0943 -0.0636 -0.1081
 5935W        W 9679   5.024   3.107   4.163  0.2575 -0.0089  0.2256
 5936W        W 9680   4.266   2.462   4.170  0.0305 -0.3768  0.0430
 5937W        W 9681   6.353   2.406   2.141 -0.2993 -0.1435 -0.1137
 5938W        W 9682   8.581   7.538   9.441  0.4036 -0.2531 -0.0714
 5939W        W 9683   1.954   2.474   3.838  0.3011  0.1211  0.4152
 5940W        W 9684   3.940   0.033   4.268 -0.3426 -0.4896 -0.2835
 5941W        W 9685   0.445   8.769   0.950  0.3813 -0.1621  0.2766
 5942W        W 9686   7.132   9.258   3.533 -0.0271  0.2287 -0.0682
 5943W        W 9687   8.509   8.751  10.785  0.2495 -0.1299 -0.3728
 5944W        W 9688   7.161   0.292   4.169  0.0981 -0.1411 -0.2739
 5945W        W 9689   6.085   9.294   3.169 -0.0607  0.1369  0.3492
 5946W        W 9690   1.277   5.138   1.326  0.0717  0.2361 -0.2913
 5947W        W 9691   8.292   8.849   3.062 -0.1837  0.3216  0.2347
 5948W        W 9692   8.166   0.878  10.942  0.0445  0.0598 -0.1091
 5949W        W 9693   2.162   0.313   9.870  0.0632 -0.0610 -0.0662
 5950W        W 9694   4.970   4.822  10.236 -0.1004 -0.0144  0.1820
 5951W        W 9695   6.975   9.694   4.439  0.0887  0.0527 -0.1678
 5952W        W 9696   6.241   0.980   9.545  0.4612 -0.3536 -0.3075
 5953W        W 9697   2.983   5.353   1.757  0.0888  0.0537  0.1997
 5954W        W 9698   4.391   0.061   1.112  0.0565 -0.1745 -0.0212
 5955W        W 9699   3.744   3.476   3.121  0.0370 -0.1089 -0.1838
 5956W        W 9700   7.332   8.963   0.922 -0.1176  0.3627 -0.2182
 5957W        W 9701   4.918   7.926   3.989  0.0871 -0.2647  0.0772
 5958W        W 9702   4.704   9.856  10.125 -0.1798  0.1725 -0.0511
 5959W        W 9703   1.518   1.071   0.155  0.1494 -0.0361 -0.3965
 5960W        W 9704   5.658   7.179   9.365 -0.0185 -0.1965  0.0048
 5961W        W 9705   6.218   7.077  11.327  0.0349 -0.0518  0.1273
 5962W        W 9706   7.786   7.389   0.991 -0.2509 -0.1591 -0.0097
 5963W        W 9707   7.912   4.763   8.838 -0.0084  0.1502 -0.0553
 5964W        W 9708   4.871   9.791   9.019 -0.0827 -0.1664  0.3511
 5965W        W 9709   2.503   2.257   9.587 -0.1166  0.1783  0.1190
 5966W        W 9710   8.448   2.554   1.600  0.2213  0.4620  0.1508
 5967W        W 9711   1.434   5.433  11.665 -0.1242  0.1004 -0.0813
 5968W        W 9712   5.180   1.253   1.228  0.1268  0.1519 -0.1858
 5969W        W 9713   4.505   7.956   4.347 -0.0740  0.0638 -0.2572
 5970W        W 9714   7.914   0.829   0.274  0.0504  0.1156  0.3620
 5971W        W 9715   3.490   6.522   8.934  0.0244  0.1244  0.0590
 5972W        W 9716   7.467   0.454  11.224  0.0451 -0.0262  0.0919
 5973W        W 9717   1.260   4.678   0.504  0.1190  0.2091  0.1441
 5974W        W 9718   6.458   4.998   4.010 -0.0727 -0.0085 -0.0366
 5975W        W 9719   8.995   8.134   3.086 -0.0416  0.2438 -0.0484
 5976W        W 9720   7.374   4.192   2.333  0.1247  0.2030 -0.0697
 5977W        W 9721   3.957   0.020   9.016  0.1319 -0.1654  0.0243
 5978W        W 9722   8.917   5.769  10.801 -0.0681  0.3158  0.0789
 5979W        W 9723   8.937   4.817  11.472 -0.2890 -0.3712  0.0666
 5980W        W 9724   8.977   3.915   8.970 -0.3005 -0.2337  0.2005
 5981W        W 9725   9.387   4.628  10.391  0.0664  0.0337 -0.2314
 5982W        W 9726   7.791   2.665   2.827  0.0283 -0.1638 -0.0087
 5983W        W 9727   0.072   4.499   1.558 -0.1643 -0.1141 -0.2558
 5984W        W 9728   1.262   4.851   2.200 -0.1625 -0.2330  0.0421
 5985W        W 9729   9.268   6.914  11.034 -0.1299  0.0260 -0.0572
 5986W        W 9730   3.771   7.793  12.079 -0.0841 -0.0160  0.2445
 5987W        W 9731   2.952   7.387   9.630 -0.0964  0.0153 -0.4439
 5988W        W 9732   5.908   4.950  12.188  0.0865 -0.0124  0.0416
 5989W        W 9733   8.191   6.712   2.782 -0.0354  0.0106  0.2336
 5990W        W 9734   4.887   0.403  10.002 -0.2210 -0.0652 -0.0573
 5991W        W 9735   1.699   7.543  12.480  0.0204  0.0972  0.0298
 5992W        W 9736   7.716   2.534   0.037 -0.1864  0.2976 -0.0265
 5993W        W 9737   9.131   9.154   1.604  0.3340  0.1813 -0.0912
 5994W        W 9738   4.175   4.089  12.733  0.1880 -0.1341  0.4079
 5995W        W 9739   8.121   2.835   9.707  0.2872 -0.0790  0.0877
 5996W        W 9740   6.964   4.051   4.859 -0.2111 -0.2313 -0.1694
 5997W        W 9741   6.020   3.470  10.587  0.0939 -0.1284 -0.1986
 5998W        W 9742   7.144   7.008   4.429  0.1623  0.0735  0.2590
 5999W        W 9743   6.665   7.864   4.132  0.2590 -0.0111  0.1340
 6000W        W 9744   1.326   9.760   9.844  0.1457  0.1558 -0.0885
 6001W        W 9745   8.806   5.584  12.323  0.1848  0.2512 -0.1264
 6002W        W 9746   2.573   3.183   1.917  0.0227 -0.1398 -0.1507
 6003W        W 9747   8.645   7.298   3.586  0.0246  0.3687 -0.3310
 6004W        W 9748   1.539   0.285  12.673  0.2096  0.2649  0.0368
 6005W        W 9749   4.669   7.959  12.145 -0.1359  0.0699  0.0889
 6006W        W 9750   0.879   0.818  10.124  0.1507  0.2395  0.2706
 6007W        W 9751   5.213   7.980   9.800 -0.6305  0.2662  0.0242
 6008W        W 9752   3.855   3.193   1.656  0.1728 -0.1002  0.3875
 6009W        W 9753   2.120   9.588   1.353  0.5310 -0.1880 -0.0740
 6010W        W 9754   0.713   6.789  10.182 -0.2305 -0.2054 -0.1681
 6011W        W 9755   5.399   0.466   8.658 -0.4213 -0.2283  0.0106
 6012W        W 9756   5.195   8.956   3.035 -0.0317  0.0830 -0.2559
 6013W        W 9757   5.443   2.107   3.864  0.0338 -0.3935 -0.0925
 6014W        W 9758   6.549   8.361   0.178 -0.3063  0.2976 -0.0841
 6015W        W 9759   3.330   4.968  10.432  0.1828 -0.0131 -0.0018
 6016W        W 9760   2.691   9.038   9.940  0.0363  0.1887 -0.2773
 6017W        W 9761   2.876   4.938   2.015 -0.1502  0.4565 -0.0421
 6018W        W 9762   2.675   3.573   5.179  0.0409  0.1334  0.0941
 6019W        W 9763   9.600   2.622   0.097 -0.0724  0.2220  0.0542
 6020W        W 9764   3.712   2.141   2.715 -0.0740  0.2582  0.2647
 6021W        W 9765   7.893   8.267   9.169  0.2119 -0.1859  0.1425
 6022W        W 9766   1.645   9.447   9.596  0.3809 -0.4482 -0.1477
 6023W        W 9767   4.831   3.120   2.595 -0.0736 -0.1595  0.1126
 6024W        W 9768   1.449   5.548  10.140  0.3079  0.1402  0.0323
 6025W        W 9769   3.734   3.863   0.703  0.1396  0.2535 -0.1666
 6026W        W 9770   7.719   5.040   2.228  0.1322  0.0152  0.1002
 6027W        W 9771   9.526   9.519  12.501 -0.2173  0.0541 -0.2779
 6028W        W 9772   1.306   8.030  11.096  0.0149  0.0901  0.0068
 6029W        W 9773   9.608   0.359   9.599  0.0807  0.0952 -0.0530
 6030W        W 9774   9.840   3.873   2.760 -0.0421 -0.2847 -0.1968
 6031W        W 9775   5.752   4.120  12.745 -0.0723  0.1192  0.1904
 6032W        W 9776   6.511   4.753   1.165  0.0703  0.0410  0.2227
 6033W        W 9777   2.334   9.085   0.948  0.0627 -0.2491  0.3803
 6034W        W 9778   4.290   7.018  12.294  0.0531 -0.0640  0.0594
 6035W        W 9779   2.534   3.256   1.283  0.0597 -0.0196  0.2053
 6036W        W 9780   8.522   4.069  10.410  0.0827  0.2470  0.1293
 6037W        W 9781   1.758   0.670  12.863  0.0903  0.0009 -0.1063
 6038W        W 9782   8.352   7.638   1.615 -0.1453  0.0955  0.1282
 6039W        W 9783   3.312   4.723   1.648  0.0070  0.1812 -0.0701
 6040W        W 9784   2.192   4.290  11.466 -0.0191  0.3073  0.1458
 6041W        W 9785   4.358   8.120   3.379 -0.1337 -0.0234 -0.0100
 6042W        W 9786   7.972   0.647   3.417  0.1978  0.2615 -0.0319
 6043W        W 9787   0.632   3.759   2.303 -0.0557 -0.3545 -0.1220
 6044W        W 9788   8.621   0.630   0.799 -0.0099  0.2752 -0.0722
 6045W        W 9789   3.802   6.825  11.012 -0.2101  0.0520 -0.0748
 6046W        W 9790   3.984   5.031  12.768  0.1839  0.3085  0.1509
 6047W        W 9791   4.170   0.818   0.478  0.1741  0.0221  0.0024
 6048W        W 9792   8.273   4.474   8.060 -0.0841 -0.1799  0.0407
 6049W        W 9793   5.114   2.393   4.117 -0.2449 -0.0519 -0.1926
 6050W        W 9794   5.208   2.093   9.985  0.0703  0.1123 -0.0645
 6051W        W 9795   9.636   2.794   4.273 -0.0438  0.0412 -0.2601
 6052W        W 9796   1.377   2.936   0.078 -0.3129  0.1597  0.0604
 6053W        W 9797   4.692   7.410   4.043  0.1242 -0.0562  0.0035
 6054W        W 9798   5.347   7.436  12.762 -0.1560  0.3518 -0.1448
 6055W        W 9799   0.442   6.378   3.139 -0.1415  0.1674  0.2542
 6056W        W 9800   1.117   6.284   2.759  0.3276 -0.1198  0.3020
 6057W        W 9801   8.224   8.097   8.775  0.1835  0.0776  0.0668
 6058W        W 9802   8.731   8.877   1.412  0.0095 -0.0005  0.0067
 6059W        W 9803   7.069   2.235   8.292  0.2433 -0.2054 -0.1541
 6060W        W 9804   2.027   6.966   2.165 -0.3554  0.0875  0.0903
 6061W        W 9805   7.531   8.329   8.211  0.2499  0.0729  0.2984
 6062W        W 9806   4.372   5.478   9.491 -0.0570 -0.1634 -0.1335
 6063W        W 9807   4.082   3.756   4.813  0.2021 -0.1292 -0.1680
 6064W        W 9808   1.373   4.075   8.249 -0.3182  0.1729 -0.0499
 6065W        W 9809   1.994   6.032   3.235  0.0799  0.0763 -0.0170
 6066W        W 9810   7.641   4.617  11.030 -0.0134 -0.1229 -0.5684
 6067W        W 9811   5.312   9.096   0.532 -0.1647 -0.3000 -0.1103
 6068W        W 9812   5.750   5.488   3.463 -0.1565  0.1062 -0.1308
 6069W        W 9813   9.833   9.062   3.806 -0.2475 -0.1171 -0.1301
 6070W        W 9814   4.959   2.201   4.770 -0.0129 -0.0531 -0.1467
 6071W        W 9815   4.826   8.802  12.687 -0.0146  0.0164  0.0192
 6072W        W 9816   6.018   3.099  10.255  0.0600  0.0247  0.1915
 6073W        W 9817   5.779   3.324  12.820  0.1691  0.0926  0.0367
 6074W        W 9818   6.771   0.684  10.645 -0.2071  0.0958 -0.4456
 6075W        W 9819   7.753   7.870   9.479  0.2217 -0.1162 -0.3893
 6076W        W 9820   6.635   1.145   9.229 -0.4584  0.1338  0.2938
 6077W        W 9821   5.093   5.172   1.922  0.1485 -0.0322  0.0370
 6078W        W 9822   4.302   5.258   3.564 -0.1986 -0.1607  0.3323
 6079W        W 9823   0.121   0.223   1.242  0.0876  0.1203  0.1075
 6080W        W 9824   3.388   1.944   2.351  0.0161  0.2312 -0.0286
 6081W        W 9825   2.928   8.318  12.709 -0.3012 -0.0819  0.1516
 6082W        W 9826   1.664   2.007   0.833 -0.0800 -0.1588 -0.1530
 6083W        W 9827   8.463   3.615   0.250 -0.1302 -0.0429 -0.2001
 6084W        W 9828   1.922   1.493   3.839  0.0584 -0.2771 -0.1580
 6085W        W 9829   0.963   5.549   9.989 -0.1633  0.0844  0.2306
 6086W        W 9830   2.156   3.028   4.094 -0.2301 -0.1398  0.1712
 6087W        W 9831   0.040   0.974   0.579 -0.3226 -0.0393  0.1062
 6088W        W 9832   7.272   4.877  11.490 -0.0000  0.4700  0.1353
 6089W        W 9833   0.411   3.673   0.189 -0.2617 -0.0740 -0.2114
 6090W        W 9834   6.138   3.475   1.129 -0.6457 -0.0819  0.0632
 6091W        W 9835   8.775   1.622  12.493 -0.0826  0.3243  0.2783
 6092W        W 9836   3.877   8.217  10.593  0.3983  0.1072  0.1283
 6093W        W 9837   8.851   0.142   3.317  0.3039  0.1824  0.1482
 6094W        W 9838   4.171   8.943   2.453 -0.2681 -0.1577 -0.0670
 6095W        W 9839   2.530   3.065  11.643  0.4029 -0.3016  0.0221
 6096W        W 9840   0.866   2.113   3.188 -0.1366  0.1769  0.2509
 6097W        W 9841   2.304   8.598   2.882 -0.0238  0.1095  0.1290
 6098W        W 9842   7.194   5.113  12.054  0.1254 -0.2163  0.0044
 6099W        W 9843   1.004   5.069   2.578  0.0223  0.2262  0.1072
 6100W        W 9844   0.579   4.800   2.334 -0.5221  0.0106  0.0608
 6101W        W 9845   6.754   4.966  10.447  0.2066 -0.0440 -0.3189
 6102W        W 9846   6.798   1.290   2.007 -0.0842  0.0219 -0.1464
 6103W        W 9847   3.796   1.967   9.313  0.4442  0.0115  0.2012
 6104W        W 9848   3.514   0.806   1.208  0.3073  0.1893 -0.1161
 6105W        W 9849   7.871   8.745  11.953 -0.3250 -0.5965 -0.1756
 6106W        W 9850   6.910   7.250   3.086 -0.0312 -0.0174 -0.2759
 6107W        W 9851   8.026   4.370   9.702  0.2313 -0.0400 -0.0363
 6108W        W 9852   2.401   3.053  12.713 -0.1223 -0.1133  0.1255
 6109W        W 9853   6.316   9.255   2.543  0.0408 -0.1283 -0.2226
 6110W        W 9854   0.435   2.836   0.123 -0.0667  0.1334  0.1199
 6111W        W 9855   1.959   9.611   2.067 -0.1818 -0.2844  0.2245
 6112W        W 9856   0.932   4.583  11.137  0.1033  0.2690  0.0757
 6113W        W 9857   3.397   9.188   1.263 -0.0673  0.1020 -0.1615
 6114W        W 9858   6.610   8.488   0.736 -0.1126  0.3383  0.0528
 6115W        W 9859   4.721   2.129   9.378 -0.0710 -0.1722 -0.2455
 6116W        W 9860   3.212   4.988  11.560  0.2449 -0.2666 -0.2034
 6117W        W 9861   3.880   4.438  12.515 -0.0473  0.2322  0.2554
 6118W        W 9862   6.116   5.939   2.050  0.0388 -0.1608 -0.1412
 6119W        W 9863   5.592   2.691   2.568 -0.2509  0.0661  0.3505
 6120W        W 9864   3.381   0.344   1.473  0.0010 -0.1097 -0.2742
 6121W        W 9865   2.909   2.653   2.911 -0.0124  0.1424  0.1288
 6122W        W 9866   7.208   1.506   3.061 -0.1338  0.0970 -0.0740
 6123W        W 9867   8.373   6.050   0.492 -0.2216  0.3703  0.0974
 6124W        W 9868   6.468   9.573  10.132 -0.1043  0.0497  0.1285
 6125W        W 9869   6.569   4.522   0.088 -0.0554 -0.2695  0.0840
 6126W        W 9870   0.555   2.429   2.075 -0.2668  0.1758  0.0778
 6127W        W 9871   4.931   8.445   1.748 -0.0857 -0.0209  0.0048
 6128W        W 9872   1.578   1.690   2.574 -0.2643  0.0728  0.1715
 6129W        W 9873   5.135   1.380   1.753 -0.3979  0.0101  0.4100
 6130W        W 9874   4.381   1.853   1.524  0.2196  0.0911  0.1046
 6131W        W 9875   4.981   6.876  12.533 -0.0561  0.1343 -0.0745
 6132W        W 9876   9.641   6.214   1.220 -0.4289  0.1493 -0.2852
 6133W        W 9877   3.246   6.373   1.391  0.2326  0.0665  0.1383
 6134W        W 9878   2.063   7.179   0.901  0.0606 -0.1058 -0.0345
 6135W        W 9879   6.596   2.187   0.612 -0.0477 -0.3784  0.4025
 6136W        W 9880   0.097   7.460   1.052  0.5672  0.2973 -0.2321
 6137W        W 9881   9.076   8.256  12.640 -0.0715 -0.1647 -0.1323
 6138W        W 9882   9.637   2.967  11.449 -0.1504  0.1202 -0.2136
 6139W        W 9883   5.179   7.295   3.432  0.2657  0.1642  0.1113
 6140W        W 9884   2.919   7.095  10.925  0.0006 -0.0669  0.0846
 6141W        W 9885   5.358   4.385   3.537 -0.0398  0.0318  0.0291
 6142W        W 9886   3.786   6.925  10.496  0.2003  0.0367 -0.0890
 6143W        W 9887   3.026   4.440  10.397  0.1737  0.1094  0.0388
 6144W        W 9888   7.568   0.365  10.545 -0.1696  0.0979  0.3314
 6145W        W 9889   1.205   3.902   3.581  0.3313  0.0299 -0.0987
 6146W        W 9890   5.407   3.352   2.489 -0.0088 -0.3207  0.2078
 6147W        W 9891   9.651   8.977   9.390 -0.2041  0.0116 -0.0513
 6148W        W 9892   7.750   7.916   3.628 -0.1075  0.0102  0.0242
 6149W        W 9893   5.663   9.699  12.304  0.4302 -0.0726 -0.0046
 6150W        W 9894   0.034   9.548   0.459  0.0111  0.2760  0.2488
 6151W        W 9895   5.406   1.506  10.868 -0.4924  0.0545  0.2681
 6152W        W 9896   0.116   1.944  10.759  0.3659 -0.3387  0.0707
 6153W        W 9897   3.605   8.829  12.496 -0.1007 -0.1559  0.2223
 6154W        W 9898   0.317   9.187   9.371  0.5699 -0.0036 -0.0450
 6155W        W 9899   2.776   7.055  10.431  0.3553  0.1992 -0.0579
 6156W        W 9900   8.068   6.478   2.354  0.2376  0.1418  0.0563
 6157W        W 9901   8.434   5.895  12.146  0.0799  0.4334 -0.0902
 6158W        W 9902   5.130   1.515   9.770 -0.2772  0.0410  0.2364
 6159W        W 9903   9.032   8.903   2.409 -0.1000 -0.0941  0.1042
 6160W        W 9904   6.637   0.207   2.062  0.1525  0.3013  0.1673
 6161W        W 9905   5.445   2.128   9.089 -0.2886  0.3249 -0.0103
 6162W        W 9906   9.234   3.508   9.163 -0.2555 -0.0287 -0.2724
 6163W        W 9907   3.514   3.491   9.019 -0.1361 -0.0667  0.1165
 6164W        W 9908   6.437   7.421   1.516  0.3960 -0.0740 -0.0757
 6165W        W 9909   5.577   2.096  10.784  0.2374 -0.3289 -0.2861
 6166W        W 9910   9.658   2.708  12.023 -0.0936  0.1370  0.1392
 6167W        W 9911   5.679   7.800  11.115  0.0184  0.1875 -0.2457
 6168W        W 9912   6.131   5.696  12.522 -0.1443  0.4149  0.0682
 6169W        W 9913   3.983   8.520   8.425 -0.2565  0.0146 -0.0138
 6170W        W 9914   2.013   2.426   1.933  0.0973  0.1492 -0.1849
 6171W        W 9915   2.841   1.481   1.652  0.1195 -0.1382  0.2543
 6172W        W 9916   0.386   1.205  11.064  0.1342 -0.2643  0.0490
 6173W        W 9917   9.064   2.857  12.266  0.1500  0.1661 -0.2789
 6174W        W 9918   0.773   3.024  10.005  0.2640 -0.0946 -0.0993
 6175W        W 9919   5.522   7.518   0.659  0.2633  0.0055  0.1480
 6176W        W 9920   6.553   9.182   1.211 -0.0343  0.0600  0.0955
 6177W        W 9921   3.380   1.812   3.378 -0.0406  0.1803 -0.0894
 6178W        W 9922   8.861   3.901  11.962  0.3650  0.1739  0.0951
 6179W        W 9923   5.468   0.988  10.656  0.1765  0.4451 -0.0645
 6180W        W 9924   9.682   3.774  11.677 -0.0225 -0.0762  0.0568
 6181W        W 9925   4.852   6.377  11.878  0.1087  0.0753  0.1096
 6182W        W 9926   5.207   5.641  11.478  0.0274  0.2782  0.2635
 6183W        W 9927   8.018   4.116   9.206  0.1238 -0.3559  0.0551
 6184W        W 9928   9.589   0.865  11.494  0.3058 -0.2131  0.3488
 6185W        W 9929   1.863   1.751  12.213  0.1360  0.1458 -0.0481
 6186W        W 9930   9.491   5.166   1.052  0.0758 -0.0409  0.2547
 6187W        W 9931   9.372   4.050   2.743 -0.1334  0.2045 -0.0859
 6188W        W 9932   2.105   2.803  10.114 -0.2021  0.0802 -0.0591
 6189W        W 9933   0.056   3.949  10.798 -0.1852 -0.0095  0.1502
 6190W        W 9934   1.681   5.526   0.035 -0.0436  0.0097  0.2411
 6191W        W 9935   6.803   1.171  10.472  0.0930  0.1813 -0.0106
 6192W        W 9936   8.905   4.050   8.434  0.0365 -0.2249 -0.2788
 6193W        W 9937   0.535   7.644  11.575  0.0511 -0.6339  0.2455
 6194W        W 9938   3.005   5.665  12.898 -0.0794 -0.1786  0.2183
 6195W        W 9939   7.857   3.553   0.478  0.2178 -0.1157 -0.2397
 6196W        W 9940   3.857   7.914  11.569 -0.1222  0.0601  0.0741
 6197W        W 9941   8.812   4.711   0.744  0.1095  0.3395 -0.0311
 6198W        W 9942   0.722   8.597  10.497 -0.0945  0.0595 -0.0600
 6199W        W 9943   4.274   5.989   9.665 -0.2770  0.3519 -0.2134
 6200W        W 9944   8.924   1.308   2.924  0.1527 -0.2050 -0.1724
 6201W        W 9945   4.742   9.349  11.120  0.2669 -0.0820 -0.1882
 6202W        W 9946   1.690   3.752   9.007  0.0810  0.1578 -0.0636
 6203W        W 9947   5.209   1.880  10.431 -0.0664  0.1366  0.1945
 6204W        W 9948   6.848   6.001  10.920 -0.0487  0.0533  0.1955
 6205W        W 9949   9.050   3.473   9.633 -0.1851  0.0854 -0.0246
 6206W        W 9950   7.534   3.771   0.836  0.0570  0.1949  0.0418
 6207W        W 9951   9.591   8.032  10.566 -0.0983  0.2846 -0.5196
 6208W        W 9952   1.880   7.678   0.078 -0.0118 -0.2332 -0.0721
 6209W        W 9953   0.344   1.956   1.708 -0.3430  0.1662  0.2774
 6210W        W 9954   1.929   4.348  10.261 -0.0851  0.1333  0.0026
 6211W        W 9955   4.587   5.833   4.777 -0.0405 -0.0659  0.0529
 6212W        W 9956   1.569   8.118   0.038  0.1076 -0.2151  0.0215
 6213W        W 9957   6.595   5.848   9.840  0.1642  0.0938  0.1388
 6214W        W 9958   8.747   3.204   0.350 -0.2023 -0.2590  0.1505
 6215W        W 9959   0.578   2.699   3.159 -0.0110  0.3223 -0.3250
 6216W        W 9960   2.344   4.431   0.593 -0.0869  0.0945 -0.1264
 6217W        W 9961   0.440   4.719  12.893  0.0787  0.0123  0.3964
 6218W        W 9962   7.369   4.756   9.807  0.1451  0.1136 -0.0242
 6219W        W 9963   7.618   3.039   9.076  0.1865 -0.4418 -0.0970
 6220W        W 9964   2.323   3.464  11.945 -0.2525 -0.1936 -0.2173
 6221W        W 9965   0.161   2.387   8.918 -0.0697  0.3176  0.1013
 6222W        W 9966   6.942   7.184  10.075  0.1849 -0.1558 -0.1551
 6223W        W 9967   5.719   3.011   8.716 -0.1663 -0.1158  0.4929
 6224W        W 9968   0.073   2.626   0.402  0.2238 -0.2585  0.0970
 6225W        W 9969   1.146   2.624   2.469 -0.0775 -0.2467  0.0775
 6226W        W 9970   1.298   4.465   1.796  0.1336 -0.2256  0.3491
 6227W        W 9971   8.798   5.450   2.592 -0.1429 -0.2497 -0.2757
 6228W        W 9972   4.731   4.383   9.374  0.0352  0.1502  0.1055
 6229W        W 9973   5.779   5.299   2.783  0.0182 -0.3438 -0.1937
 6230W        W 9974   5.852   1.243   3.692  0.0516  0.2215 -0.2711
 6231W        W 9975   9.343   4.010   0.468 -0.1153 -0.4477  0.1363
 6232W        W 9976   7.333   1.565  11.135 -0.0929 -0.0031 -0.2483
 6233W        W 9977   2.737   8.772   8.909  0.1220 -0.0313  0.2485
 6234W        W 9978   2.586   2.470  11.645  0.1597 -0.2741  0.2138
 6235W        W 9979   3.699   4.039  12.084 -0.0804  0.3159  0.1789
 6236W        W 9980   9.301   1.926   2.129 -0.2958 -0.2094 -0.1223
 6237W        W 9981   8.827   6.806  12.189 -0.0839 -0.2606 -0.3009
 6238W        W 9982   0.794   2.821   9.539  0.2236  0.1197  0.0122
 6239W        W 9983   2.894   7.614   1.918 -0.0654 -0.2959  0.0838
 6240W        W 9984   2.756   6.336   1.485 -0.0660  0.1872  0.1734
 6241W        W 9985   7.120   1.549   2.240 -0.2364  0.4127 -0.0134
 6242W        W 9986   7.408   1.616   0.640  0.4202  0.1414 -0.0370
 6243W        W 9987   8.942   4.926   8.451 -0.1242  0.0952  0.1132
 6244W        W 9988   3.769   4.754   3.384  0.1957 -0.0189  0.1948
 6245W        W 9989   6.690   6.365   3.754  0.1112 -0.0098  0.0109
 6246W        W 9990   7.187   9.143  11.247 -0.0544  0.0060  0.1272
 6247W        W 9991   2.400   2.632   3.039 -0.0502 -0.0518  0.0078
 6248W        W 9992   6.376   6.136   8.873 -0.1908 -0.3784 -0.1622
 6249W        W 9993   0.918   7.626  10.342 -0.3003  0.2133  0.0260
 6250W        W 9994   7.091   8.478  12.469 -0.0867 -0.1900  0.0210
 6251W        W 9995   9.789   8.519   0.246  0.3210 -0.1094  0.3490
 6252W        W 9996   8.232   2.203   9.250  0.2185 -0.1581  0.0284
 6253W        W 9997   5.173   0.223  11.382 -0.1660 -0.0847  0.0955
 6254W        W 9998   7.828   7.714   4.236 -0.0227 -0.2244  0.1400
 6255W        W 9999   8.883   2.194   4.062 -0.0299 -0.1572 -0.3281
 6256W        W10000   1.354   6.082   0.283  0.1141  0.1200 -0.0993
 6257W        W10001   1.487   1.399   1.724  0.1762  0.0419 -0.2680
 6258W        W10002   2.486   5.431   1.807  0.1631  0.2967  0.3056
 6259W        W10003   2.637   3.986   3.226 -0.1653 -0.2323  0.2014
 6260W        W10004   1.040   7.023   5.126 -0.1882  0.2473 -0.2636
 6261W        W10005   9.628   2.748   9.179 -0.5056 -0.1614  0.2396
 6262W        W10006   5.531   3.276   9.625  0.1560 -0.1967  0.1756
 6263W        W10007   4.939   8.824   0.336  0.0434  0.2928 -0.0602
 6264W        W10008   0.274   3.827  11.803 -0.2171  0.0617 -0.0210
 6265W        W10009   7.338   4.687   2.336  0.2496 -0.3554 -0.0993
 6266W        W10010   1.171   0.106   9.434  0.2755  0.1737 -0.0356
 6267W        W10011   3.002   7.428   2.927 -0.1157  0.1407 -0.3383
 6268W        W10012   9.107   0.986   8.599  0.1097  0.2738 -0.2487
 6269W        W10013   2.192   0.230   1.142  0.0206  0.1316  0.3156
 6270W        W10014   7.769   4.189  12.890 -0.1030  0.0655 -0.0957
 6271W        W10015   6.580   9.193   3.352  0.2964  0.0822 -0.3567
 6272W        W10016   8.113   0.591   1.498 -0.1036 -0.2055  0.1938
 6273W        W10017   0.309   5.448   3.247  0.0754 -0.1081 -0.0343
 6274W        W10018   9.018   3.560   0.940 -0.1773  0.3155 -0.3839
 6275W        W10019   8.155   9.406  12.125  0.0926 -0.2818 -0.1099
 6276W        W10020   4.223   4.660  10.145  0.2782 -0.2164  0.2136
 6277W        W10021   9.180   8.439   2.741 -0.0480 -0.0103  0.1115
 6278W        W10022   3.346   4.305   2.813  0.1895 -0.0459 -0.2113
 6279W        W10023   8.131   0.533   2.452  0.0456 -0.0674 -0.1355
 6280W        W10024   2.314   1.140   3.567  0.1506 -0.3866 -0.0384
 6281W        W10025   7.324   3.307   2.441  0.0484 -0.0487 -0.1741
 6282W        W10026   9.187   8.833   9.404 -0.0313 -0.2865  0.1825
 6283W        W10027   2.015   5.800   0.886  0.0149 -0.4258 -0.4604
 6284W        W10028   6.895   3.318   0.961 -0.3476  0.0674 -0.1856
 6285W        W10029   0.690   0.954  11.438  0.1262 -0.0311  0.2079
 6286W        W10030   7.263   7.245  11.876 -0.0556  0.1647  0.1175
 6287W        W10031   1.808   9.011   9.692  0.2008  0.2352 -0.1106
 6288W        W10032   6.869   8.774   1.067 -0.1110 -0.1552 -0.2901
 6289W        W10033   5.732   6.429  12.552  0.0289 -0.0071  0.0439
 6290W        W10034   9.874   0.725   0.153 -0.2736  0.1064 -0.1585
 6291W        W10035   0.303   1.342   9.016  0.0157 -0.0618 -0.1967
 6292W        W10036   7.130   7.641   3.417 -0.3381  0.1612 -0.1819
 6293W        W10037   0.050   0.361  12.666  0.1384 -0.0687  0.0351
 6294W        W10038   2.892   6.938   0.741 -0.1266  0.1628  0.0382
 6295W        W10039   4.764   3.525  10.093 -0.1678  0.3952  0.0377
 6296W        W10040   8.104   3.876   3.842 -0.1311  0.0810 -0.3659
 6297W        W10041   8.601   2.965   1.388 -0.1174  0.0530  0.1844
 6298W        W10042   4.057   5.516   0.083 -0.0456 -0.3492  0.2127
 6299W        W10043   1.184   3.459   0.826 -0.3012 -0.0758  0.0483
 6300W        W10044   3.874   8.181   1.052 -0.0489 -0.0082  0.1510
 6301W        W10045   6.543   5.742   2.326  0.0816  0.1073 -0.2946
 6302W        W10046   1.349   1.133  11.892 -0.2499  0.0040 -0.0512
 6303W        W10047   0.296   9.822  10.765 -0.1834  0.1971  0.2865
 6304W        W10048   5.195   5.834   1.018  0.2572  0.1958  0.2129
 6305W        W10049   3.300   4.976   4.044 -0.0373 -0.1320 -0.0147
 6306W        W10050   6.828   5.934  11.809 -0.1238  0.2700 -0.2897
 6307W        W10051   3.145   1.575   0.172 -0.0024 -0.0197 -0.1101
 6308W        W10052   2.746   3.990  10.323 -0.0581 -0.0746 -0.1274
 6309W        W10053   6.260   4.070   4.124  0.0631 -0.2798  0.0962
 6310W        W10054   9.290   0.986  12.003  0.2255 -0.0561 -0.0194
 6311W        W10055   2.789   1.076   0.836  0.0791  0.1219 -0.1790
 6312W        W10056   6.502   4.803   2.828  0.0366  0.0776 -0.2499
 6313W        W10057   7.954   5.349  10.618  0.1647  0.2428  0.3548
 6314W        W10058   3.550   2.587   2.859 -0.2841  0.0160  0.3530
 6315W        W10059   3.390   0.823  12.543 -0.1894 -0.1938 -0.0193
 6316W        W10060   2.665   1.327   8.428 -0.1037 -0.2371  0.1774
 6317W        W10061   3.584   7.713   9.235  0.2005  0.2390  0.1924
 6318W        W10062   3.713   0.405  11.064  0.2412 -0.0515  0.2406
 6319W        W10063   2.113   1.724  11.745  0.1263  0.2368 -0.1671
 6320W        W10064   5.859   0.688   2.147 -0.0754  0.1122 -0.1403
 6321W        W10065   5.761   4.198   3.861  0.0978 -0.1758  0.1492
 6322W        W10066   2.697   6.185   1.960 -0.0548 -0.1810 -0.3550
 6323W        W10067   1.968   3.216  11.759  0.0178  0.1982 -0.6411
 6324W        W10068   6.832   5.628   3.500  0.0808 -0.0557  0.0104
 6325W        W10069   0.625   3.653  11.012 -0.1830 -0.2394  0.1852
 6326W        W10070   0.868   8.358   3.582 -0.0766  0.2421 -0.2152
 6327W        W10071   7.013   9.314   1.067  0.1001 -0.0154  0.3309
 6328W        W10072   4.721   9.695   3.582 -0.0230 -0.0309  0.0970
 6329W        W10073   2.199   5.803  11.166 -0.4473 -0.2130 -0.0016
 6330W        W10074   2.808   2.442   2.441 -0.0648 -0.1135  0.2226
 6331W        W10075   6.957   4.418   3.588  0.3380  0.0252 -0.1265
 6332W        W10076   8.230   2.677   3.754 -0.1646 -0.0299  0.2692
 6333W        W10077   0.513   8.113   0.678  0.1875  0.2557 -0.3029
 6334W        W10078   7.709   4.908  10.654 -0.3076 -0.1011 -0.1557
 6335W        W10079   3.247   5.561   1.300 -0.3463  0.1591 -0.0466
 6336W        W10080   0.009   7.735   2.777 -0.2273  0.0460 -0.1878
 6337W        W10081   4.108   3.477  10.510  0.1126  0.1161  0.0160
 6338W        W10082   4.137   2.199   9.825  0.2121  0.2044  0.0519
 6339W        W10083   0.443   5.259  11.532 -0.1531 -0.0416  0.2278
 6340W        W10084   6.169   3.818   0.483 -0.1445  0.3071  0.1621
 6341W        W10085   5.792   0.764   9.908 -0.1336 -0.1472  0.0394
 6342W        W10086   2.881   5.968   9.038  0.0719  0.4227  0.0042
 6343W        W10087   3.340   5.584   0.790 -0.1142 -0.0807  0.2910
 6344W        W10088   8.412   7.014   0.565  0.0758 -0.2075 -0.2383
 6345W        W10089   2.330   1.533   1.748 -0.0577 -0.2066  0.1720
 6346W        W10090   8.560   1.184   1.888 -0.3000 -0.1375  0.1788
 6347W        W10091   7.181   6.633   3.678  0.0807 -0.0362  0.0470
 6348W        W10092   5.020   1.813  12.352 -0.0849 -0.0387 -0.0404
 6349W        W10093   3.022   0.685   1.121 -0.1566 -0.2369 -0.3008
 6350W        W10094   5.310   1.496   9.240  0.2291  0.1937 -0.0343
 6351W        W10095   9.484   3.117   9.447  0.3857  0.2621  0.1407
 6352W        W10096   7.809   2.942   1.156 -0.2736 -0.0054  0.0222
 6353W        W10097   1.445   0.761   3.368 -0.2828 -0.0793  0.1606
 6354W        W10098   8.894   0.083   3.839  0.1470  0.0843  0.2359
 6355W        W10099   8.687   8.553   2.407 -0.1319 -0.0714 -0.3109
 6356W        W10100   4.467   5.016   1.683  0.3137  0.3179 -0.1619
 6357W        W10101   9.798   9.064  12.161  0.0855 -0.0722 -0.2088
 6358W        W10102   7.400   3.334   0.721  0.3434  0.1496  0.1280
 6359W        W10103   6.912   4.490   2.457 -0.1275 -0.0849 -0.2726
 6360W        W10104   1.729   4.681   3.121  0.0804  0.0512  0.0396
 6361W        W10105   4.269   4.295  11.658  0.0679 -0.0270 -0.0105
 6362W        W10106   7.080   0.064  11.398 -0.1427  0.3403 -0.1663
 6363W        W10107   4.244   0.549   0.081  0.0730  0.1286 -0.0799
 6364W        W10108   3.843   1.325   1.011  0.1726  0.1997 -0.0543
 6365W        W10109   5.824   3.067   1.069  0.0818  0.0453  0.1764
 6366W        W10110   5.928   6.020  12.840  0.2102 -0.1797  0.2988
 6367W        W10111   1.330   4.516   0.033 -0.0048  0.2698 -0.0129
 6368W        W10112   2.816   5.294  10.737 -0.2595  0.0545 -0.3730
 6369W        W10113   7.823   9.350   3.889  0.0421 -0.1486  0.0140
 6370W        W10114   5.099   2.351  10.743 -0.4219 -0.0437  0.4231
 6371W        W10115   2.419   9.885  12.344  0.2482 -0.4024  0.3551
 6372W        W10116   7.393   7.368   3.068 -0.2547 -0.2060 -0.0749
 6373W        W10117   9.558   5.581   9.128  0.2162 -0.0916  0.0004
 6374W        W10118   6.250   6.057   4.304 -0.2501 -0.0514 -0.0961
 6375W        W10119   2.872   0.961  11.856 -0.2823  0.1345  0.2681
 6376W        W10120   9.110   2.801   2.147  0.0485  0.1461  0.0020
 6377W        W10121   7.129   3.162   8.800  0.0726  0.2391 -0.2579
 6378W        W10122   3.897   5.852   8.527  0.0625  0.0200 -0.0315
 6379W        W10123   9.427   1.588  11.788  0.1897  0.0727  0.0360
 6380W        W10124   9.287   9.118  12.100  0.2919 -0.0280  0.1578
 6381W        W10125   8.671   2.958  11.652 -0.1067  0.2345  0.0339
 6382W        W10126   4.001   1.601   8.943 -0.1725  0.0788  0.3528
 6383W        W10127   5.813   0.353   0.797 -0.0054  0.1994  0.4095
 6384W        W10128   9.374   4.389  12.179 -0.2542 -0.0384  0.0037
 6385W        W10129   4.415   6.842   1.988  0.3715  0.0059  0.1587
 6386W        W10130   0.045   8.363   8.823 -0.1245  0.0897  0.0181
 6387W        W10131   6.764   2.815   0.919 -0.4202 -0.1826 -0.1887
 6388W        W10132   8.511   1.982   1.242  0.1358 -0.0926  0.1294
 6389W        W10133   3.652   6.553  10.184 -0.0991 -0.0538  0.0644
 6390W        W10134   2.081   3.409   0.575 -0.2371 -0.1789 -0.1510
 6391W        W10135   0.323   7.170   1.978 -0.1955 -0.0577 -0.0802
 6392W        W10136   2.983   4.406  12.082 -0.0707  0.0728 -0.1471
 6393W        W10137   6.527   8.304   4.313  0.1229  0.1235  0.1203
 6394W        W10138   2.630   4.952   1.056 -0.0211  0.2316  0.0806
 6395W        W10139   3.464   3.842   9.370  0.0339 -0.1228 -0.0345
 6396W        W10140   7.888   4.920   1.122 -0.1558 -0.0925  0.0762
 6397W        W10141   6.748   0.049  11.909 -0.1769 -0.0434 -0.2649
 6398W        W10142   2.844   8.743  10.999  0.1227  0.2039 -0.3230
 6399W        W10143   8.134   0.777   3.966  0.1198 -0.1231 -0.1132
 6400W        W10144   8.970   9.566   8.802 -0.1458 -0.2040 -0.0918
 6401W        W10145   6.715   6.743   0.886 -0.1730  0.0475 -0.0728
 6402W        W10146   0.936   9.557   2.881 -0.1971  0.0481  0.1361
 6403W        W10147   7.527   2.780   2.452  0.2404 -0.0333 -0.3379
 6404W        W10148   4.948   4.397   2.873  0.0931 -0.2659  0.0173
 6405W        W10149   7.479   3.444   8.468 -0.1328  0.0902 -0.0342
 6406W        W10150   1.711   4.042   2.973 -0.2167  0.0066  0.0930
 6407W        W10151   5.711   0.344   3.737  0.1750 -0.0958  0.0088
 6408W        W10152   5.154   9.778  10.126 -0.0510 -0.1226 -0.2080
 6409W        W10153   0.717   2.813   4.654 -0.1617  0.1021  0.4709
 6410W        W10154   7.843   3.163  12.780 -0.1339  0.0937  0.1363
 6411W        W10155   3.604   7.974   2.013  0.0229  0.2204  0.0947
 6412W        W10156   0.944   9.219  12.440  0.0106 -0.0197  0.2619
 6413W        W10157   9.157   8.550   4.218  0.0659  0.1350  0.2914
 6414W        W10158   6.447   4.346   0.559  0.0716  0.0096  0.0658
 6415W        W10159   4.909   1.846   3.147  0.1568  0.0337 -0.0054
 6416W        W10160   8.186   1.744  10.758 -0.2156 -0.2256 -0.3635
 6417W        W10161   7.930   7.899   2.945  0.3228 -0.3674  0.0803
 6418W        W10162   4.181   2.394   0.748  0.2277  0.0280 -0.2466
 6419W        W10163   0.095   3.509   0.670 -0.1529 -0.1041  0.0311
 6420W        W10164   9.121   5.757   1.829 -0.0165 -0.2468 -0.0196
 6421W        W10165   7.965   3.362   4.101  0.1710 -0.1897  0.0353
 6422W        W10166   9.385   4.551   3.484  0.1005 -0.1833  0.1892
 6423W        W10167   4.842   1.067   2.734  0.0203 -0.1483  0.1768
 6424W        W10168   7.330   2.862   0.133 -0.2557 -0.1189 -0.1494
 6425W        W10169   0.740   5.359   2.174  0.5051  0.1612 -0.2758
 6426W        W10170   4.429   1.051   4.212  0.2723 -0.1004  0.0428
 6427W        W10171   6.340   3.359   1.644 -0.3884 -0.2417  0.0216
 6428W        W10172   5.892   1.243   4.788  0.0499 -0.0302 -0.2475
 6429W        W10173   7.589   6.025   9.330  0.0136 -0.0261 -0.1242
 6430W        W10174   8.222   2.798   8.889 -0.0031 -0.1405  0.1629
 6431W        W10175   6.282   5.506   3.644  0.0528  0.0517  0.1426
 6432W        W10176   3.491   9.452   2.703  0.2623 -0.2726 -0.2207
 6433W        W10177   0.176   4.884   1.230  0.2340 -0.1807 -0.2315
 6434W        W10178   4.525   2.714  12.499  0.1340  0.2520 -0.2480
 6435W        W10179   1.381   7.814   2.899 -0.0889 -0.3387  0.0677
 6436W        W10180   8.089   5.716   0.197  0.0191 -0.0220 -0.0588
 6437W        W10181   8.484   9.025   2.270 -0.0031  0.1844  0.0123
 6438W        W10182   8.484   2.700  12.399 -0.0930  0.0611  0.1760
 6439W        W10183   6.023   5.325  11.737  0.1777 -0.4293  0.0242
 6440W        W10184   7.109   1.422   0.169 -0.1810  0.4032 -0.0898
 6441W        W10185   2.461   8.569   0.101 -0.0550  0.3254 -0.2027
 6442W        W10186   7.729   0.511  12.885  0.3109 -0.0451  0.0718
 6443W        W10187   5.414   0.569  11.062 -0.1308  0.1724  0.4299
 6444W        W10188   8.594   4.404  11.364 -0.2158  0.0743 -0.2132
 6445W        W10189   5.110   3.579   1.059 -0.0060 -0.3863  0.0794
 6446W        W10190   0.585   7.862   9.360  0.1472 -0.3697 -0.1694
 6447W        W10191   5.604   8.218  10.157 -0.1827 -0.1015  0.1758
 6448W        W10192   1.892   9.482  12.240 -0.1465  0.0311  0.2460
 6449W        W10193   1.405   7.900  10.305 -0.0062  0.1451  0.2572
 6450W        W10194   2.339   7.556   0.092 -0.1608 -0.1851  0.1397
 6451W        W10195   5.673   8.740  10.825  0.0678  0.1545 -0.0142
 6452W        W10196   5.806   4.025  11.273 -0.0079 -0.0398  0.1478
 6453W        W10197   2.502   3.848  11.185 -0.0297 -0.0101  0.0800
 6454W        W10198   7.167   1.541   1.729  0.0453 -0.0108  0.0592
 6455W        W10199   6.121   9.902  12.918 -0.1377 -0.0820 -0.0111
 6456W        W10200   3.992   6.376   2.151  0.2699  0.0353  0.0538
 6457W        W10201   7.448   0.692   2.696 -0.3277 -0.1477 -0.0383
 6458W        W10202   3.780   1.828   9.967  0.0093 -0.1084  0.0790
 6459W        W10203   9.742   2.373   0.990  0.0165 -0.1761 -0.0103
 6460W        W10204   6.884   2.216  11.811  0.1567 -0.1981  0.2037
 6461W        W10205   4.719   4.471   0.711  0.0263  0.0942 -0.2381
 6462W        W10206   4.451   3.392  10.955 -0.5115 -0.3098 -0.4099
 6463W        W10207   7.184   8.766   1.496 -0.1273  0.1003  0.0374
 6464W        W10208   5.369   6.524   8.491  0.1044 -0.3300  0.1077
 6465W        W10209   2.491   2.982   0.354 -0.1102 -0.0657 -0.0877
 6466W        W10210   5.906   8.638   2.037  0.0624  0.1945  0.2386
 6467W        W10211   1.458   1.730  12.710  0.0015  0.0669 -0.3813
 6468W        W10212   2.791   9.119   1.128 -0.2294 -0.3886  0.1297
 6469W        W10213   6.886   8.729   4.369 -0.0748  0.0431 -0.1963
 6470W        W10214   8.512   0.171   1.792  0.0714 -0.3946  0.2412
 6471W        W10215   2.196   3.949   2.902  0.0837  0.0018 -0.1467
 6472W        W10216   5.525   8.845  10.244  0.1167  0.3970  0.1844
 6473W        W10217   1.089   0.264  12.921 -0.0955  0.3559  0.1654
 6474W        W10218   0.326   4.179   3.802  0.2212  0.1729  0.0523
 6475W        W10219   7.007   6.648   1.522 -0.0047 -0.1676  0.2781
 6476W        W10220   4.764   8.405   0.090  0.0663 -0.1434  0.2015
 6477W        W10221   9.054   0.578   1.130  0.0748 -0.0894  0.0490
 6478W        W10222   8.129   8.915   3.490  0.4981  0.2101  0.2033
 6479W        W10223   4.614   5.410  11.775 -0.1650 -0.3669  0.0836
 6480W        W10224   5.246   4.479   9.652  0.1906 -0.1532 -0.0260
 6481W        W10225   1.265   5.484   2.257  0.0389  0.2487 -0.3307
 6482W        W10226   9.180   9.766   8.405  0.1512  0.0719 -0.2726
 6483W        W10227   3.701   6.405   0.466 -0.2094 -0.4746  0.0529
 6484W        W10228   0.546   3.257  12.826  0.2072  0.1541 -0.2831
 6485W        W10229   7.996   6.433   0.742  0.1159  0.2857 -0.0640
 6486W        W10230   2.434   1.749  10.736 -0.3704 -0.0849  0.2558
 6487W        W10231   8.055   6.516   1.248 -0.0949  0.0166 -0.5943
 6488W        W10232   4.510   7.473  11.380  0.1194 -0.0358 -0.0520
 6489W        W10233   6.290   9.263  11.476 -0.1437 -0.1556  0.0861
 6490W        W10234   7.025   7.552   3.924 -0.1373 -0.1118 -0.2640
 6491W        W10235   6.143   1.701   4.646  0.1427  0.6482  0.1104
 6492W        W10236   7.536   4.977   9.254  0.0663  0.3418  0.1107
 6493W        W10237   4.274   8.328   9.220  0.0539 -0.0815  0.1040
 6494W        W10238   3.427   7.227   1.646 -0.2113  0.0164  0.2360
 6495W        W10239   1.376   6.988  12.126 -0.1837  0.0434  0.1165
 6496W        W10240   9.460   8.734  10.021 -0.1452 -0.2116  0.3523
 6497W        W10241   4.365   8.307  10.770 -0.3975  0.1483  0.0458
 6498W        W10242   5.468   2.885   4.127 -0.0533  0.0420 -0.1379
 6499W        W10243   1.336   8.287   1.216 -0.2439 -0.1839  0.0133
 6500W        W10244   0.805   7.471   1.292  0.0538 -0.3286  0.0487
 6501W        W10245   8.756   1.216   0.489 -0.0172 -0.0313  0.1436
 6502W        W10246   7.853   8.727  11.460  0.0841 -0.2810 -0.0628
 6503W        W10247   8.238   5.935   3.296 -0.0478  0.0304 -0.1975
 6504W        W10248   0.727   2.058   0.797 -0.0389 -0.0857 -0.1237
 6505W        W10249   7.334   4.838   3.784  0.1008 -0.1723 -0.1427
 6506W        W10250   8.697   8.518   1.039  0.3134  0.0421 -0.0508
 6507W        W10251   5.176   1.229  10.226  0.2790  0.0050  0.3254
 6508W        W10252   0.087   0.020   9.503  0.0893 -0.1264  0.2237
 6509W        W10253   8.009   7.999  12.521 -0.2029  0.2134  0.1364
 6510W        W10254   7.066   0.430   1.916 -0.1952  0.3544  0.4760
 6511W        W10255   6.705   9.734  12.331 -0.2059  0.1232 -0.0694
 6512W        W10256   7.762   6.992  12.205 -0.4630 -0.1019 -0.2347
 6513W        W10257   8.043   8.737   2.605 -0.1600  0.1581  0.2608
 6514W        W10258   2.845   4.063   1.423  0.1396  0.0240 -0.3672
 6515W        W10259   5.527   0.501   1.796  0.3761 -0.4166 -0.2048
 6516W        W10260   5.934   2.791  12.532 -0.0189 -0.0665  0.1595
 6517W        W10261   3.025   3.115   9.684  0.2149 -0.1089 -0.0795
 6518W        W10262   8.791   9.511   1.539  0.1122 -0.3334  0.2786
 6519W        W10263   6.513   1.507   4.310  0.2557  0.0475 -0.3228
 6520W        W10264   6.594   0.294   0.094 -0.2271  0.0324 -0.2699
 6521W        W10265   6.331   8.660  10.234  0.4836 -0.2527  0.1374
 6522W        W10266   6.635   6.611   1.838 -0.4481 -0.0917 -0.0152
 6523W        W10267   7.392   6.353   8.451 -0.0659  0.0354  0.2154
 6524W        W10268   7.976   9.444  11.292 -0.0523  0.0501 -0.3694
 6525W        W10269   9.370   0.974  10.669  0.1322 -0.2381  0.1010
 6526W        W10270   6.585   8.696   3.401 -0.1235 -0.0403  0.0133
 6527W        W10271   2.164   9.488   0.645  0.2327 -0.0117  0.1448
 6528W        W10272   4.849   2.779  10.786  0.2855  0.3729 -0.0914
 6529W        W10273   3.593   4.325   0.569 -0.2191  0.0064 -0.2186
 6530W        W10274   8.668   5.371   0.120  0.1257  0.2661 -0.1016
 6531W        W10275   2.981   9.740   0.774 -0.1919 -0.3306  0.1440
 6532W        W10276   0.422   0.113  12.272  0.3039 -0.2489 -0.3105
 6533W        W10277   2.810   1.270   9.700  0.3099 -0.1277 -0.1694
 6534W        W10278   5.709   6.847  10.227 -0.2298 -0.3115  0.0048
 6535W        W10279   9.802   0.977   2.950 -0.3696  0.0894  0.2145
 6536W        W10280   2.475   2.639   0.680 -0.0109  0.3466  0.3847
 6537W        W10281   4.625   1.350   9.811  0.0408 -0.0948 -0.0295
 6538W        W10282   7.156   7.703  11.092  0.3078 -0.1185  0.0065
 6539W        W10283   2.367   8.055   9.166  0.2933 -0.0304 -0.1872
 6540W        W10284   6.331   9.600  11.894 -0.3032  0.4133  0.1531
 6541W        W10285   9.663   2.876   0.875  0.3612 -0.2089 -0.1392
 6542W        W10286   8.793   0.575  10.760 -0.1832 -0.2654  0.0620
 6543W        W10287   4.256   1.938  11.013 -0.2362 -0.1201 -0.4242
 6544W        W10288   6.701   0.433   2.743 -0.2157 -0.1292 -0.0253
 6545W        W10289   5.523   7.750   2.020 -0.4194 -0.0357 -0.3408
 6546W        W10290   3.012   3.457   0.633  0.0509 -0.3023  0.1906
 6547W        W10291   5.421   6.706  11.562 -0.4259 -0.0159 -0.1796
 6548W        W10292   7.650   8.033   0.872 -0.1581  0.2177  0.1884
 6549W        W10293   6.476   4.488   3.741  0.1711  0.1096  0.2801
 6550W        W10294   3.165   4.095   3.216  0.1929 -0.0474 -0.0911
 6551W        W10295   7.128   3.738  11.272 -0.3693 -0.3072  0.2486
 6552W        W10296   1.447   0.692   3.841 -0.2011  0.0871  0.0323
 6553W        W10297   9.882   9.004   0.467 -0.0288  0.2303  0.2823
 6554W        W10298   5.298   3.857   8.847  0.1892  0.2546  0.1733
 6555W        W10299   5.518   6.194   1.094 -0.3632 -0.4176  0.0595
 6556W        W10300   8.067   4.077  10.227 -0.1043  0.0193 -0.1105
 6557W        W10301   4.328   6.134   3.145  0.0928 -0.1550  0.0551
 6558W        W10302   2.301   5.028  12.304  0.1098 -0.4771  0.1408
 6559W        W10303   2.101   2.699   0.189 -0.1345  0.0980  0.0925
 6560W        W10304   5.919   0.216   2.003  0.0041  0.5597  0.1928
 6561W        W10305   5.597   9.837  10.308  0.2057 -0.2688  0.2619
 6562W        W10306   2.971   1.288  10.178 -0.1372  0.3244  0.2450
 6563W        W10307   8.718   1.487  10.466  0.0280 -0.1258  0.0274
 6564W        W10308   1.500   5.367  12.188 -0.0517 -0.0312  0.1915
 6565W        W10309   2.355   7.248   3.638  0.0127  0.2857  0.2734
 6566W        W10310   3.179   1.998  11.845  0.1239  0.2368 -0.0465
 6567W        W10311   5.973   1.468   9.332  0.2419  0.0075 -0.0261
 6568W        W10312   3.848   0.141   0.097 -0.0516 -0.0447 -0.2611
 6569W        W10313   6.157   3.265   8.566  0.0811 -0.0971 -0.1894
 6570W        W10314   2.314   6.476   2.129 -0.2620 -0.1468 -0.0657
 6571W        W10315   2.541   2.572   1.962  0.2509  0.0336  0.0122
 6572W        W10316   1.717   2.883   4.351 -0.1028 -0.0793 -0.0228
 6573W        W10317   4.799   3.544   4.265 -0.2685  0.4301  0.4003
 6574W        W10318   5.084   7.537  10.087 -0.0054  0.0577 -0.1105
 6575W        W10319   2.773   0.478   9.226  0.1798 -0.2041 -0.5451
 6576W        W10320   1.369   4.924  12.402  0.2117  0.0199 -0.0708
 6577W        W10321   1.666   8.691   1.173 -0.2198  0.1965 -0.1272
 6578W        W10322   2.874   1.285   8.899 -0.2829 -0.2028 -0.1161
 6579W        W10323   4.545   9.479  12.654  0.4515 -0.0015  0.0111
 6580W        W10324   7.939   2.358   8.799 -0.0436 -0.1833 -0.1248
 6581W        W10325   1.159   2.976  10.714 -0.2476  0.0408  0.2511
 6582W        W10326   3.124   6.915   9.001  0.1474  0.1488  0.1243
 6583W        W10327   6.045   4.975   2.522 -0.1456 -0.0118 -0.1815
 6584W        W10328   4.176   0.386   1.940 -0.0285 -0.1019 -0.1208
 6585W        W10329   7.617   6.049  12.290  0.2209 -0.2190  0.3040
 6586W        W10330   5.707   2.008  11.837 -0.1938  0.2708 -0.0659
 6587W        W10331   4.450   9.898  12.350  0.1272 -0.2153 -0.0006
 6588W        W10332   6.281   3.215   9.026  0.1085 -0.0614 -0.1038
 6589W        W10333   5.867   2.058   0.427 -0.1547  0.1014  0.0308
 6590W        W10334   2.703   4.460   0.878  0.0601  0.0652 -0.0493
 6591W        W10335   4.457   5.149  12.903  0.1097 -0.0861  0.1638
 6592W        W10336   1.723   5.884  11.940  0.0178 -0.2892 -0.1656
 6593W        W10337   4.293   7.966  11.781  0.0809  0.1157  0.0342
 6594W        W10338   7.239   3.348  11.550  0.1019  0.4145 -0.2165
 6595W        W10339   0.817   7.059  11.351 -0.1994  0.3614 -0.3811
 6596W        W10340   0.513   1.355   2.329 -0.0124 -0.1383  0.5166
 6597W        W10341   2.054   1.900  10.458  0.1836 -0.1768 -0.0173
 6598W        W10342   0.088   8.555   4.062 -0.2374  0.0781 -0.2953
 6599W        W10343   4.783   9.681  10.574  0.1646  0.1707  0.1933
 6600W        W10344   3.261   0.237   0.856  0.0376  0.0494 -0.1669
 6601W        W10345   1.896   0.744   9.646  0.0304 -0.1515 -0.0681
 6602W        W10346   3.263   2.173   2.978  0.1774 -0.0682  0.1624
 6603W        W10347   8.438   9.795  11.866 -0.0191 -0.0371  0.2558
 6604W        W10348   6.601   0.075   3.140 -0.1037  0.0580 -0.0740
 6605W        W10349   4.523   2.664  12.034 -0.1350 -0.0571 -0.0428
 6606W        W10350   5.055   9.475   1.410  0.1044 -0.2076 -0.0910
 6607W        W10351   0.372   2.137   2.388 -0.0658  0.0658  0.1137
 6608W        W10352   1.741   1.581  10.734  0.0330  0.1540 -0.0528
 6609W        W10353   8.477   6.858  10.145  0.1366 -0.1385  0.0845
 6610W        W10354   7.147   5.300   3.117 -0.2315  0.0981 -0.2055
 6611W        W10355   8.185   9.489   0.802  0.4193  0.3007  0.4297
 6612W        W10356   8.251   3.490  12.497  0.1002 -0.0330 -0.2605
 6613W        W10357   8.422   4.977   0.979  0.0611 -0.2583  0.2497
 6614W        W10358   9.146   0.184   0.140  0.3207  0.2517 -0.1395
 6615W        W10359   3.633   1.220  11.277 -0.3942  0.1206  0.1759
 6616W        W10360   5.911   4.423  12.178 -0.0945 -0.1437 -0.0559
 6617W        W10361   5.535   2.256  10.326  0.2925  0.0264 -0.3030
 6618W        W10362   6.430   6.264  11.965  0.1910 -0.2337  0.0616
 6619W        W10363   2.241   1.204  11.841  0.0077 -0.3158  0.1077
 6620W        W10364   1.670   6.372   1.531 -0.5377 -0.2857  0.0111
 6621W        W10365   2.392   6.286   3.270  0.1683 -0.0568 -0.0240
 6622W        W10366   4.926   3.717   3.849  0.4389 -0.0094 -0.0001
 6623W        W10367   3.932   4.356   3.724  0.1257 -0.0405 -0.0998
 6624W        W10368   6.131   4.398   2.378  0.0249 -0.1306 -0.4077
 6625W        W10369   6.831   2.606   3.901  0.2336  0.1674  0.0874
 6626W        W10370   8.408   4.749   2.683 -0.1779  0.1223 -0.0298
 6627W        W10371   9.639   9.289  11.247  0.2006 -0.0386  0.1291
 6628W        W10372   3.443   4.321   9.137 -0.2810 -0.1036 -0.1092
 6629W        W10373   8.166   8.764   0.861 -0.3641 -0.0382  0.0881
 6630W        W10374   4.024   6.622  11.454 -0.1602 -0.1916 -0.2145
 6631W        W10375   7.545   9.493   0.172 -0.0552  0.2177 -0.0986
 6632W        W10376   0.705   6.597   2.652 -0.1082  0.1269  0.0148
 6633W        W10377   8.596   6.019   9.452  0.0885  0.2288  0.0247
 6634W        W10378   7.126   8.581   3.606 -0.0440  0.1471 -0.0255
 6635W        W10379   4.032   7.825   9.615 -0.1311  0.1914 -0.2315
 6636W        W10380   6.638   8.339  12.604 -0.2138  0.0564 -0.1184
 6637W        W10381   6.622   1.108  12.746 -0.0330  0.1520  0.4996
 6638W        W10382   1.059   0.522   9.209  0.2049 -0.1241 -0.1433
 6639W        W10383   3.599   6.201   1.668 -0.2023  0.1094  0.2262
 6640W        W10384   2.426   2.126   0.509  0.0058 -0.0959  0.1583
 6641W        W10385   9.415   3.226  11.884  0.0803  0.0920  0.0078
 6642W        W10386   6.222   1.542  12.861  0.0784 -0.0421  0.2993
 6643W        W10387   7.086   6.581  11.030 -0.0219 -0.1185  0.0437
 6644W        W10388   1.747   6.841   0.222  0.0792  0.1676  0.0539
 6645W        W10389   4.631   5.630   3.779 -0.1252  0.0176  0.0578
 6646W        W10390   8.485   3.446  11.090  0.0117 -0.0017  0.2136
 6647W        W10391   4.248   6.494  11.902 -0.0044 -0.0701 -0.2210
 6648W        W10392   7.611   6.970   3.908 -0.0417 -0.0944 -0.1974
 6649W        W10393   4.235   3.132   5.204 -0.0420 -0.0612 -0.2522
 6650W        W10394   9.090   9.895   1.365  0.1266 -0.4554 -0.1066
 6651W        W10395   7.000   8.191   4.321  0.0496  0.0726 -0.2889
 6652W        W10396   7.339   0.934   0.566 -0.1342 -0.4224  0.0735
 6653W        W10397   8.053   8.044  11.972  0.2038  0.1631 -0.1030
 6654W        W10398   3.882   9.252   0.714 -0.1945 -0.2798 -0.1516
 6655W        W10399   1.312   5.476  12.623 -0.0016 -0.3851  0.0567
 6656W        W10400   0.907   9.121  11.927 -0.0074  0.1061  0.1835
 6657W        W10401   4.039   2.770  12.880  0.1321  0.0350 -0.0098
 6658W        W10402   1.878   3.278  10.373  0.2623 -0.0328  0.0043
 6659W        W10403   2.657   9.273   9.337  0.1941 -0.0803 -0.1299
 6660W        W10404   0.744   7.442   1.854  0.1009 -0.3111  0.3874
 6661W        W10405   4.022   8.817   8.931 -0.2835 -0.3147 -0.0529
 6662W        W10406   8.486   4.936   0.443  0.1394  0.2705  0.3092
 6663W        W10407   9.694   7.712  12.169 -0.4498  0.1647 -0.0750
 6664W        W10408   5.853   8.089   3.571 -0.0915  0.1898  0.0310
 6665W        W10409   3.879   7.062   1.508  0.3010  0.2136 -0.1362
 6666W        W10410   3.027   4.525  11.151  0.0402  0.1029  0.0725
 6667W        W10411   8.434   3.140   3.987  0.0743 -0.1942 -0.2121
 6668W        W10412   9.045   7.578   9.951 -0.0451 -0.0648 -0.0779
 6669W        W10413   5.740   7.291   4.220  0.2652  0.4994 -0.2236
 6670W        W10414   5.575   0.007   3.013  0.0313 -0.1297  0.3877
 6671W        W10415   7.931   9.121   0.477 -0.0285 -0.1321  0.2074
 6672W        W10416   1.818   6.507   2.393  0.0912  0.0775 -0.0098
 6673W        W10417   8.111   9.520   4.735 -0.2026 -0.0656  0.0902
 6674W        W10418   1.332   4.152  10.396  0.0255 -0.3532 -0.0338
 6675W        W10419   2.364   5.418  10.843  0.1380 -0.1497  0.2183
 6676W        W10420   5.346   7.374   8.950  0.0153 -0.2244  0.1456
 6677W        W10421   9.319   7.366   2.900  0.0856 -0.0491 -0.1181
 6678W        W10422   2.476   7.036  11.634  0.1622 -0.1574 -0.0198
 6679W        W10423   7.667   1.292  11.426 -0.2678  0.2720 -0.0695
 6680W        W10424   1.908   7.906   0.508 -0.1454 -0.0060  0.0282
 6681W        W10425   5.191   0.574  12.844  0.0473 -0.1744  0.1979
 6682W        W10426   3.644   0.015   2.859 -0.1121  0.1986  0.0745
 6683W        W10427   2.898   2.727  11.970  0.1345 -0.1422 -0.1863
 6684W        W10428   3.299   8.419   0.620 -0.1814  0.3032 -0.0335
 6685W        W10429   9.588   4.174   1.391  0.0254  0.0302 -0.0371
 6686W        W10430   4.194   4.398   3.308 -0.1665  0.0434  0.0059
 6687W        W10431   5.325   8.476  11.094 -0.0272 -0.0753 -0.0506
 6688W        W10432   8.999   5.673  12.845 -0.1684  0.4023 -0.1268
 6689W        W10433   2.265   0.531   1.609  0.0226  0.1337  0.3980
 6690W        W10434   6.909   3.213   1.525  0.0607 -0.0252  0.0774
 6691W        W10435   1.188   5.605   0.153 -0.2953  0.3069 -0.0883
 6692W        W10436   0.328   5.649  10.203  0.0434 -0.2533  0.2859
 6693W        W10437   0.250   0.137   0.170  0.2930 -0.1020 -0.0683
 6694W        W10438   3.707   3.644  10.845 -0.0856  0.0567 -0.2798
 6695W        W10439   4.528   7.412   0.003 -0.0217 -0.1538 -0.1052
 6696W        W10440   4.964   3.517   2.321  0.3704 -0.1697  0.0688
 6697W        W10441   2.939   9.795   2.254  0.1465  0.0059 -0.1019
 6698W        W10442   7.264   5.601  10.958 -0.3380  0.1699 -0.1888
 6699W        W10443   7.220   8.021   3.776 -0.0576  0.2313  0.1479
 6700W        W10444   5.675   0.175   0.167 -0.1110 -0.2937 -0.0717
 6701W        W10445   7.518   5.434   4.556  0.0947 -0.2022 -0.0498
 6702W        W10446   1.759   8.704  10.621 -0.2548  0.3276 -0.0075
 6703W        W10447   2.774   3.665   1.038 -0.1524  0.0710  0.0805
 6704W        W10448   3.135   8.858  10.069 -0.0244  0.1189  0.0335
 6705W        W10449   2.258   1.075   1.637  0.4010 -0.0539 -0.1218
 6706W        W10450   9.336   9.299  10.827 -0.3271 -0.3554 -0.1158
 6707W        W10451   5.826   8.600   1.396  0.3805 -0.1447 -0.0169
 6708W        W10452   6.186   3.914   2.561  0.0613  0.1842  0.0812
 6709W        W10453   8.206   7.239  12.050  0.2552 -0.1657 -0.2408
 6710W        W10454   9.576   4.290  11.677  0.4169 -0.2152 -0.2610
 6711W        W10455   0.942   9.055   9.544  0.1856 -0.4933 -0.2135
 6712W        W10456   3.866   3.213   1.152 -0.0822 -0.2567 -0.1226
 6713W        W10457   3.404   3.061   0.768 -0.1209  0.1186  0.2700
 6714W        W10458   7.285   6.229  11.912 -0.1631 -0.0484 -0.0289
 6715W        W10459   1.934   3.203   9.820 -0.3984 -0.0486  0.2278
 6716W        W10460   6.732   2.270   1.888 -0.0217  0.2656 -0.1445
 6717W        W10461   5.886   9.016   2.593 -0.2430 -0.1853  0.2460
 6718W        W10462   4.427   8.131   3.890 -0.0795 -0.1750  0.0516
 6719W        W10463   1.720   3.450   0.901 -0.0485  0.3572 -0.0113
 6720W        W10464   2.034   5.843   0.250  0.1337 -0.0026 -0.0694
 6721W        W10465   0.644   6.701   1.206 -0.2397 -0.2389 -0.0650
 6722W        W10466   4.210   7.305   3.712  0.1726  0.1516  0.1689
 6723W        W10467   8.595   4.383  10.053  0.0784  0.0131  0.4154
 6724W        W10468   3.784   8.168   9.280  0.3267  0.1215 -0.0644
 6725W        W10469   8.691   7.775   3.344  0.3272  0.4443 -0.2202
 6726W        W10470   4.968   7.718   3.529 -0.0308 -0.1222 -0.2403
 6727W        W10471   4.714   5.476   8.626 -0.0832 -0.2157  0.2103
 6728W        W10472   4.109   4.257   8.437 -0.0372 -0.2647 -0.0553
 6729W        W10473   2.366   9.059   2.485 -0.0342 -0.0244  0.1088
 6730W        W10474   3.329   7.504   0.265  0.0009 -0.4305  0.0381
 6731W        W10475   6.188   2.168   3.609 -0.4265 -0.1111 -0.1395
 6732W        W10476   6.928   7.113  12.259  0.1705 -0.1100  0.1057
 6733W        W10477   1.793   5.097  11.445  0.0329 -0.0715 -0.0296
 6734W        W10478   8.439   1.894   4.061  0.0226 -0.2088  0.0896
 6735W        W10479   5.653   1.816   9.957 -0.3078  0.0340 -0.4364
 6736W        W10480   3.353   7.532   2.092 -0.1261 -0.0085 -0.0676
 6737W        W10481   7.121   7.664   9.303 -0.1270 -0.2241  0.1125
 6738W        W10482   2.088   4.441  10.778  0.3248  0.3621 -0.1276
 6739W        W10483   6.017   6.815  12.613 -0.2723 -0.1972  0.1598
 6740W        W10484   5.269   7.094   0.463  0.3920  0.0217 -0.4624
 6741W        W10485   5.005   0.216  10.453 -0.3033 -0.0422  0.1376
 6742W        W10486   5.352   5.265   3.070 -0.0498  0.1511  0.2473
 6743W        W10487   2.003   8.557   9.811  0.0055 -0.0206  0.0479
 6744W        W10488   7.334   4.166   0.684  0.2281 -0.2542 -0.1441
 6745W        W10489   8.667   5.551   9.179  0.0102  0.0698  0.0891
 6746W        W10490   3.567   6.912   8.570 -0.3197  0.0987  0.0277
 6747W        W10491   0.392   3.389   1.913  0.0524  0.1041 -0.3009
 6748W        W10492   0.683   3.879   9.868  0.1819 -0.4886 -0.2200
 6749W        W10493   9.373   0.175  10.066  0.1757  0.2340  0.3644
 6750W        W10494   2.888   7.885   8.946 -0.0632 -0.4103 -0.1663
 6751W        W10495   4.778   3.232   3.730 -0.1189  0.0192  0.1104
 6752W        W10496   6.339   1.188  11.727  0.2777 -0.2492 -0.1564
 6753W        W10497   0.355   0.642  12.281 -0.1455 -0.1733 -0.0668
 6754W        W10498   2.994   2.302   1.867 -0.0979 -0.0197 -0.0177
 6755W        W10499   4.042   3.353   7.772  0.3641  0.3634  0.2490
 6756W        W10500   4.813   8.212   3.536 -0.1502  0.0409 -0.2803
 6757W        W10501   7.333   5.606  11.781  0.0878 -0.4381 -0.1293
 6758W        W10502   2.309   4.097  10.038 -0.0083  0.1090  0.1195
 6759W        W10503   0.355   9.684   9.902 -0.1945  0.0259 -0.1748
 6760W        W10504   7.523   5.671   3.836 -0.2863 -0.0846 -0.0045
 6761W        W10505   0.570   6.175  10.897 -0.0469  0.1268 -0.0471
 6762W        W10506   0.873   5.458  11.887  0.1616  0.2818  0.0377
 6763W        W10507   0.731   8.739   0.543  0.0399  0.1062  0.0790
 6764W        W10508   9.408   1.488   9.404  0.0555  0.1083  0.0439
 6765W        W10509   9.260   9.745   9.660 -0.0647 -0.1945 -0.1119
 6766W        W10510   9.762   1.197  11.839  0.1657 -0.1089 -0.2425
 6767W        W10511   4.100   5.022   1.206  0.1747 -0.0279 -0.1278
 6768W        W10512   0.675   7.413   2.359  0.0145  0.2904 -0.0036
 6769W        W10513   8.439   3.604   3.556  0.0044  0.0376  0.2274
 6770W        W10514   6.725   2.411   9.187 -0.1550 -0.0687 -0.1066
 6771W        W10515   8.994   4.114  11.201  0.1765 -0.0799  0.0518
 6772W        W10516   9.349   8.790   1.183  0.3071 -0.2153  0.1993
 6773W        W10517   5.869   6.452   4.239  0.0982  0.3328 -0.0392
 6774W        W10518   6.868   3.020  12.489  0.0934  0.1159  0.1424
 6775W        W10519   0.760   9.898  10.089 -0.0593  0.2411  0.0463
 6776W        W10520   3.710   2.903   0.422  0.0191  0.1173 -0.0346
 6777W        W10521   7.334   7.790  11.802 -0.1417  0.0598  0.3485
 6778W        W10522   0.373   8.765  11.758 -0.1415 -0.0449  0.1673
 6779W        W10523   5.207   4.265  12.707  0.0948  0.1024  0.1887
 6780W        W10524   2.142   5.742   1.480  0.0116 -0.0671 -0.0282
 6781W        W10525   7.662   6.600   2.700  0.1865  0.1824 -0.0679
 6782W        W10526   6.478   5.070   3.408  0.1993  0.2496 -0.4842
 6783W        W10527   7.504   6.415   1.670  0.1165  0.2022 -0.1363
 6784W        W10528   8.188   4.026   1.390  0.1237  0.0532  0.1711
 6785W        W10529   5.929   6.854  11.699  0.1902  0.2168  0.0202
 6786W        W10530   2.455   1.567  10.249  0.1471  0.2358 -0.3376
 6787W        W10531   8.647   7.702  11.908 -0.1362  0.1329 -0.0976
 6788W        W10532   2.119   3.622   1.104 -0.0095  0.0088 -0.4427
 6789W        W10533   7.276   7.764   0.317  0.3160 -0.2457 -0.2893
 6790W        W10534   6.110   9.519  12.558  0.4406  0.1077  0.0618
 6791W        W10535   3.072   5.536   3.252 -0.0226  0.1357  0.1095
 6792W        W10536   9.553   1.393   4.009 -0.2650  0.3385 -0.4654
 6793W        W10537   0.859   6.663  12.150  0.1765  0.2563  0.3065
 6794W        W10538   8.747   8.432   0.112  0.0559  0.1611  0.2690
 6795W        W10539   4.803   8.464  10.953  0.2457  0.1000 -0.0880
 6796W        W10540   9.277   8.887   0.669  0.0341  0.1210  0.1828
 6797W        W10541   5.936   6.553   8.889 -0.1366 -0.1609 -0.1521
 6798W        W10542   7.950   3.887  11.037  0.0600  0.1013 -0.0203
 6799W        W10543   9.473   0.677   4.950  0.0021 -0.1343 -0.0927
 6800W        W10544   0.614   0.787   0.836  0.2879 -0.0650  0.0837
 6801W        W10545   9.623   4.510  12.639  0.1265  0.0674  0.1686
 6802W        W10546   0.618   7.545   0.767  0.0175 -0.1044  0.1250
 6803W        W10547   3.312   2.096   4.540  0.0797 -0.1315 -0.0376
 6804W        W10548   3.475   5.675  10.171  0.2973 -0.1161  0.0868
 6805W        W10549   9.517   1.621  10.767 -0.1374 -0.0137  0.0936
 6806W        W10550   0.833   3.229  11.172 -0.1348 -0.1726  0.1968
 6807W        W10551   5.455   5.732   2.712  0.1966  0.2858  0.1041
 6808W        W10552   8.072   8.400   3.185  0.0562 -0.2567 -0.1983
 6809W        W10553   2.570   6.970   2.249 -0.1402 -0.3092 -0.0713
 6810W        W10554   1.546   0.941  12.473 -0.0538 -0.2091  0.0206
 6811W        W10555   3.906   2.245  10.772 -0.0515 -0.1016 -0.0532
 6812W        W10556   0.282   8.414  12.210  0.0663 -0.1186 -0.2634
 6813W        W10557   7.553   1.000  10.022 -0.0596 -0.0071 -0.0431
 6814W        W10558   0.008   1.079   4.312  0.1079  0.0881 -0.0775
 6815W        W10559   1.965   3.775  10.272  0.0937 -0.0532  0.0913
 6816W        W10560   9.511   0.226  12.469  0.2084 -0.0487 -0.1608
 6817W        W10561   3.432   8.934   2.086  0.2882 -0.0949  0.0686
 6818W        W10562   4.596   4.489  11.999  0.1554 -0.3092 -0.1214
 6819W        W10563   1.591   3.147   3.228 -0.4656 -0.1601  0.0075
 6820W        W10564   6.623   1.594   0.167  0.2096 -0.0843  0.0373
 6821W        W10565   9.406   2.862  12.633 -0.0825 -0.0654 -0.2809
 6822W        W10566   8.398   0.033   3.898 -0.2532  0.0721  0.2155
 6823W        W10567   7.744   2.988   0.505  0.0146  0.0729 -0.0461
 6824W        W10568   8.254   2.335  10.618  0.0483  0.1087  0.2350
 6825W        W10569   5.766   5.071  12.671 -0.1342  0.2732  0.0765
 6826W        W10570   9.519   7.412  10.816 -0.0782 -0.1552 -0.0466
 6827W        W10571   7.290   2.534   9.810 -0.0140  0.0178 -0.0895
 6828W        W10572   2.030   7.210  12.750 -0.1365 -0.2926  0.0136
 6829W        W10573   3.302   1.984   0.604  0.1925  0.2180  0.2713
 6830W        W10574   1.400   6.704   2.803 -0.1153  0.0492 -0.2311
 6831W        W10575   9.577   8.190   0.605 -0.3926  0.2710 -0.1277
 6832W        W10576   5.773   1.808  12.810 -0.1091  0.1049 -0.2130
 6833W        W10577   3.949   3.624  12.358  0.0862 -0.0085  0.1680
 6834W        W10578   3.974   8.573   9.599  0.1151 -0.0058 -0.2732
 6835W        W10579   8.370   6.582   0.222  0.0061 -0.0822 -0.4450
 6836W        W10580   2.750   3.016  12.383 -0.2772 -0.0190 -0.0887
 6837W        W10581   9.786   4.812   0.779 -0.1125 -0.2457  0.2071
 6838W        W10582   6.928   6.608   0.098  0.0268 -0.0186 -0.0050
 6839W        W10583   6.095   6.892   2.290  0.1504 -0.0682 -0.2366
 6840W        W10584   1.274   3.518   1.686  0.0583 -0.0554 -0.0938
 6841W        W10585   7.694   2.251   1.573  0.0101  0.0227  0.0987
 6842W        W10586   4.780   6.896   0.658 -0.2087  0.0462  0.1477
 6843W        W10587   8.745   1.053   3.382  0.0698 -0.3175  0.0872
 6844W        W10588   8.727   9.575   0.890  0.0274 -0.3473 -0.0735
 6845W        W10589   5.533   1.636   3.954 -0.0865  0.0919  0.3012
 6846W        W10590   9.686   0.046   4.123 -0.1493 -0.0393  0.0661
 6847W        W10591   9.884   6.866   2.351  0.0778  0.0389  0.0559
 6848W        W10592   6.835   8.391   4.792 -0.1068  0.2899 -0.1741
 6849W        W10593   7.481   7.818   8.312  0.0344  0.1289 -0.4249
 6850W        W10594   8.734   5.179  10.689  0.1067  0.1557 -0.1652
 6851W        W10595   1.020   0.557   1.146 -0.0288  0.0462 -0.4193
 6852W        W10596   9.245   7.145  10.043  0.0473  0.0854 -0.0118
 6853W        W10597   7.783   0.465   8.783 -0.2137  0.1318 -0.1621
 6854W        W10598   6.905   8.309   3.239  0.0202 -0.0203 -0.0088
 6855W        W10599   7.633   9.427   0.775 -0.2053 -0.0105  0.3894
 6856W        W10600   3.825   0.288   1.178 -0.0886  0.3078  0.2948
 6857W        W10601   2.671   9.345   2.046  0.0759 -0.0918  0.0197
 6858W        W10602   0.772   2.059   9.801  0.0873 -0.0530 -0.0547
 6859W        W10603   4.499   5.580  10.066 -0.1147  0.0443 -0.1390
 6860W        W10604   1.939   5.655  12.416 -0.0855 -0.3763 -0.0865
 6861W        W10605   0.468   3.445  10.162 -0.0816  0.0122  0.3234
 6862W        W10606   5.541   0.842   4.849 -0.1344  0.1260  0.0620
 6863W        W10607   6.563   5.257   8.817 -0.2187 -0.1186 -0.0593
 6864W        W10608   9.443   1.611   3.543  0.2497 -0.2491  0.1828
 6865W        W10609   2.834   4.233  12.620 -0.2432 -0.2176  0.3394
 6866W        W10610   2.745   9.551  10.646 -0.1559 -0.2098 -0.1352
 6867W        W10611   5.050   5.567   0.576  0.1134 -0.0658  0.0966
 6868W        W10612   7.313   3.431   9.786  0.0163  0.1180  0.1369
 6869W        W10613   2.970   8.022  11.812 -0.1728  0.1608 -0.1445
 6870W        W10614   6.261   0.549   9.823 -0.2149 -0.0716  0.0536
 6871W        W10615   3.022   0.807  10.155  0.2804 -0.0245  0.0187
 6872W        W10616   4.324   4.610  11.026 -0.0933 -0.0353 -0.0751
 6873W        W10617   7.416   1.449  12.662 -0.0062  0.3026 -0.2042
 6874W        W10618   1.103   8.735   2.662  0.0346 -0.1951 -0.0155
 6875W        W10619   3.847   4.131  10.670  0.3728  0.1577  0.0816
 6876W        W10620   0.611   3.463  12.349  0.0221 -0.1165 -0.1717
 6877W        W10621   0.104   3.535   2.406 -0.1646  0.1122 -0.0737
 6878W        W10622   0.102   3.210   0.172 -0.2348 -0.4732 -0.4148
 6879W        W10623   8.098   3.248   3.663  0.2251 -0.0255  0.1986
 6880W        W10624   4.765   4.372  11.566  0.0775 -0.0279 -0.0854
 6881W        W10625   4.333   9.415   9.755  0.0677  0.2372  0.1587
 6882W        W10626   3.842   4.940   0.778  0.1816 -0.0105  0.3194
 6883W        W10627   4.293   8.541   0.449  0.3200 -0.1302 -0.0873
 6884W        W10628   9.514   8.792   4.026 -0.1068  0.2021  0.1190
 6885W        W10629   2.586   0.846  12.832 -0.0220  0.0666  0.0997
 6886W        W10630   5.917   3.050   9.334  0.0277 -0.1912 -0.2354
 6887W        W10631   2.514   1.614   2.669  0.1063 -0.0681  0.0661
 6888W        W10632   8.493   7.467   0.325 -0.1649  0.0097  0.2675
 6889W        W10633   4.453   0.785  10.622 -0.0086 -0.4553 -0.1454
 6890W        W10634   3.099   9.323   1.688  0.2166 -0.1683 -0.0443
 6891W        W10635   4.476   7.673   9.425  0.0494 -0.0718  0.0019
 6892W        W10636   6.288   2.658   9.050 -0.2290 -0.0657  0.0639
 6893W        W10637   4.595   3.031   9.971  0.3331 -0.0244 -0.0590
 6894W        W10638   9.172   9.736   4.242  0.3438 -0.1034 -0.0382
 6895W        W10639   9.197   8.501   2.184 -0.0047  0.0665 -0.0602
 6896W        W10640   1.806   4.885  10.999  0.2484 -0.2019 -0.0584
 6897W        W10641   0.880   6.039   3.141  0.1332 -0.2306  0.0402
 6898W        W10642   8.420   8.907  11.500 -0.0770  0.1564 -0.1474
 6899W        W10643   9.402   9.027   0.088 -0.1333  0.1494 -0.2411
 6900W        W10644   4.354   6.622   0.690  0.1289 -0.0707  0.2963
 6901W        W10645   6.733   5.255   2.214  0.0198 -0.2420  0.1967
 6902W        W10646   6.471   0.788   0.204  0.0650 -0.0360  0.0739
 6903W        W10647   9.137   8.568   3.704 -0.0514  0.0741 -0.1504
 6904W        W10648   4.150   9.067   9.431  0.0201 -0.0343 -0.1313
 6905W        W10649   4.272   8.010   1.372  0.0328  0.4996 -0.0104
 6906W        W10650   9.497   1.722   1.160  0.1281  0.0793  0.0730
 6907W        W10651   4.259   1.061  12.473 -0.3496 -0.0267 -0.1519
 6908W        W10652   6.826   0.426  12.226  0.3443  0.0358  0.3239
 6909W        W10653   1.233   2.194  11.444  0.1269  0.1362 -0.1681
 6910W        W10654   5.983   9.657   1.228  0.0774 -0.1204 -0.1369
 6911W        W10655   3.378   3.597   3.413  0.0465  0.0785  0.1918
 6912W        W10656   3.644   6.418  10.678 -0.1075  0.2028 -0.1419
 6913W        W10657   9.700   7.299  11.326  0.1543 -0.0837  0.1789
 6914W        W10658   2.590   0.652   2.498  0.1369 -0.1060 -0.0976
 6915W        W10659   4.133   6.401  10.907 -0.0470 -0.2845  0.3464
 6916W        W10660   9.671   6.980  11.908 -0.5021  0.2317 -0.1120
 6917W        W10661   9.772   1.653  12.219 -0.1504  0.2375  0.2696
 6918W        W10662   1.459   0.615   0.734 -0.0862 -0.0752 -0.0611
 6919W        W10663   8.129   1.213  10.484 -0.4596 -0.0231  0.2548
 6920W        W10664   6.194   2.879   2.016 -0.0596  0.0317 -0.2199
 6921W        W10665   4.888   0.263   3.732  0.0966 -0.2367 -0.1505
 6922W        W10666   6.469   5.104   1.608  0.0986  0.3941  0.0217
 6923W        W10667   4.126   3.189   2.764  0.0665 -0.1413 -0.1447
 6924W        W10668   8.483   3.569  12.029  0.3584 -0.1849  0.1203
 6925W        W10669   4.568   0.159  10.723 -0.4429 -0.1946 -0.3120
 6926W        W10670   9.857   2.507   1.597  0.0669  0.1498 -0.0779
 6927W        W10671   4.518   2.513  11.516 -0.0792 -0.0313 -0.0010
 6928W        W10672   0.297   5.405   1.291  0.0334  0.1731  0.3922
 6929W        W10673   4.812   6.370   2.316 -0.1776  0.0115  0.0226
 6930W        W10674   3.682   3.752   1.241 -0.0724  0.0387 -0.0314
 6931W        W10675   4.802   2.202  10.290 -0.0236 -0.3535  0.5236
 6932W        W10676   3.883   5.649   1.044  0.4710  0.1389 -0.2136
 6933W        W10677   4.530   0.466  12.581  0.1113  0.3587 -0.1822
 6934W        W10678   5.457   4.692  10.500 -0.1550 -0.0922 -0.0924
 6935W        W10679   2.629   8.591   4.113  0.2126  0.0493  0.1338
 6936W        W10680   0.293   4.872   3.143 -0.0148  0.1902 -0.2004
 6937W        W10681   0.163   4.235  11.573  0.1801 -0.2626  0.0859
 6938W        W10682   3.457   1.477   9.009  0.0684 -0.2309 -0.0977
 6939W        W10683   3.917   8.252  12.777 -0.1025 -0.0611  0.0708
 6940W        W10684   9.528   3.154   7.498 -0.1657 -0.2430 -0.1217
 6941W        W10685   5.102   0.736   9.110 -0.4628 -0.3221  0.0620
 6942W        W10686   3.311   4.636  10.026  0.0752  0.2108 -0.0335
 6943W        W10687   2.911   3.896   0.179 -0.2710 -0.4490  0.1041
 6944W        W10688   5.250   1.238  11.722  0.1222  0.2826 -0.1375
 6945W        W10689   7.281   8.477   1.014 -0.1969  0.0889 -0.2459
 6946W        W10690   4.368   8.467  12.720 -0.0998  0.0328  0.4552
 6947W        W10691   6.481   7.242  12.473 -0.1749  0.3238  0.2349
 6948W        W10692   8.404   1.559   2.149  0.1888  0.1542 -0.0246
 6949W        W10693   7.161   0.801   3.874 -0.2508 -0.2582  0.1330
 6950W        W10694   5.368   2.676  10.460 -0.0767  0.0190 -0.1224
 6951W        W10695   4.206   6.838  10.704  0.0952  0.1405 -0.0876
 6952W        W10696   4.360   9.156   4.446  0.0398 -0.0149  0.0828
 6953W        W10697   9.135   6.511  12.571 -0.1296  0.0973  0.0979
 6954W        W10698   0.536   8.393   3.160  0.0512  0.0960 -0.0907
 6955W        W10699   1.762   5.191  12.587 -0.1160  0.0387 -0.1630
 6956W        W10700   2.881   3.947   2.769 -0.0131 -0.2553 -0.0094
 6957W        W10701   9.000   6.970  12.651 -0.0987  0.0875  0.2838
 6958W        W10702   9.374   0.590   2.879  0.1573  0.0446  0.3378
 6959W        W10703   0.481   7.265  10.502 -0.2165 -0.3476  0.1142
 6960W        W10704   8.505   2.533   1.015  0.2231 -0.0382  0.0863
 6961W        W10705   6.195   5.395   3.140  0.0845 -0.0292 -0.2756
 6962W        W10706   7.246   3.764   1.593 -0.2305 -0.0485 -0.2150
 6963W        W10707   9.682   6.546  12.104 -0.1163  0.0855  0.2442
 6964W        W10708   3.859   9.615   3.259 -0.2811  0.0323  0.1953
 6965W        W10709   3.540   8.680   0.143 -0.0602 -0.0327  0.2916
 6966W        W10710   1.174   8.371   0.223 -0.0896  0.2815  0.1754
 6967W        W10711   2.129   1.376  11.350  0.0778  0.0977  0.0344
 6968W        W10712   5.443   7.498  12.260 -0.1816  0.1800 -0.3862
 6969W        W10713   1.731   5.965  10.401 -0.0440 -0.1437 -0.0328
 6970W        W10714   5.513   8.282   2.278  0.0711 -0.3760  0.0393
 6971W        W10715   3.426   6.968   1.199  0.2479 -0.0356 -0.0323
 6972W        W10716   2.794   1.715   9.408 -0.0354 -0.4810  0.0611
 6973W        W10717   9.507   5.790  11.209  0.5388 -0.1828 -0.1157
 6974W        W10718   7.025   1.222   9.601  0.1821 -0.2023  0.1910
 6975W        W10719   3.578   4.249   9.742  0.1515 -0.1205  0.0674
 6976W        W10720   0.631   8.388   0.209  0.1000 -0.1421 -0.1215
 6977W        W10721   2.280   6.231   2.790 -0.0195 -0.0662  0.0332
 6978W        W10722   5.115   6.431   4.041  0.0055  0.1361  0.1601
 6979W        W10723   9.115   9.410  11.314  0.3027  0.0918  0.2755
 6980W        W10724   0.855   9.717  11.996  0.0056  0.1471  0.1058
 6981W        W10725   2.787   5.412   8.926  0.1406 -0.3622  0.0561
 6982W        W10726   0.509   6.773  12.700 -0.0715  0.1734 -0.1927
 6983W        W10727   5.693   5.592  12.742  0.1063 -0.2148 -0.2942
 6984W        W10728   8.654   5.934   4.108  0.1336 -0.0147 -0.1703
 6985W        W10729   8.270   7.073   0.085 -0.0210 -0.1725 -0.3192
 6986W        W10730   7.205   5.826   2.522 -0.1585 -0.0031 -0.0884
 6987W        W10731   4.279   5.781   0.737 -0.3740  0.2362  0.1022
 6988W        W10732   4.948   1.921   3.892  0.1940 -0.0927  0.0235
 6989W        W10733   3.319   0.861   0.727 -0.1711  0.1418 -0.2125
 6990W        W10734   4.972   4.993   1.420  0.0507  0.3548  0.0584
 6991W        W10735   3.914   8.537   2.702 -0.0609 -0.0878  0.0811
 6992W        W10736   1.914   5.380  11.027  0.3176  0.4056 -0.0278
 6993W        W10737   4.182   5.756   8.979 -0.0763 -0.0225  0.3116
 6994W        W10738   0.356   6.844   1.584 -0.0330 -0.0369 -0.3836
 6995W        W10739   1.771   0.664   2.260 -0.0455  0.2293  0.3072
 6996W        W10740   4.906   8.364  11.423 -0.2398  0.2244 -0.1864
 6997W        W10741   5.529   1.721   0.311  0.2438  0.0735  0.0064
 6998W        W10742   1.787   2.384   4.282  0.0118  0.1975  0.0388
 6999W        W10743   1.593   7.657  10.720  0.0670  0.0531  0.2030
 7000W        W10744   3.463   2.917   1.306 -0.1600  0.3600 -0.4241
 7001W        W10745   6.889   6.095   4.270 -0.2000  0.0280  0.0557
 7002W        W10746   9.340   6.546  11.727 -0.0323 -0.1898  0.2046
 7003W        W10747   3.359   6.081   2.061  0.1592  0.1930 -0.1354
 7004W        W10748   5.899   0.809  10.988  0.0874 -0.1023 -0.3921
 7005W        W10749   7.471   2.910   3.243  0.0668  0.3881  0.1492
 7006W        W10750   5.206   5.984   2.346 -0.1135  0.1545 -0.0174
 7007W        W10751   2.712   6.629  10.750  0.1591  0.2494  0.2803
 7008W        W10752   8.133   9.310   3.146 -0.1369  0.0328 -0.1288
 7009W        W10753   9.365   2.150   1.596  0.2654 -0.0632  0.2392
 7010W        W10754   2.841   5.753   2.161  0.2277 -0.2046 -0.0564
 7011W        W10755   2.657   7.316   1.048 -0.2326 -0.0818  0.3363
 7012W        W10756   4.619   1.334   3.308  0.2238  0.0053 -0.1338
 7013W        W10757   7.215   5.145  12.591  0.0183  0.0780 -0.0754
 7014W        W10758   5.901   5.215   9.524 -0.0493 -0.0039 -0.2596
 7015W        W10759   2.447   9.444  12.083  0.3720 -0.3619 -0.1453
 7016W        W10760   8.536   4.272   1.023 -0.2624  0.1442 -0.0610
 7017W        W10761   3.944   3.241   8.314 -0.1468 -0.1890  0.2068
 7018W        W10762   0.399   4.036   1.344 -0.0011 -0.3606 -0.2752
 7019W        W10763   6.776   7.846   3.656  0.3764 -0.0900 -0.0249
 7020W        W10764   6.828   0.346   1.007  0.0878  0.0612 -0.1135
 7021W        W10765   6.429   2.582   2.609 -0.1190 -0.1203  0.1490
 7022W        W10766   8.855   6.813  11.692 -0.1798 -0.1382 -0.3208
 7023W        W10767   1.297   2.200  12.822 -0.1098 -0.0656  0.5646
 7024W        W10768   1.434   9.783   2.938  0.1224 -0.0103 -0.0452
 7025W        W10769   9.666   7.635   9.296 -0.1506  0.0795  0.1346
 7026W        W10770   5.765   9.494   9.384  0.3860 -0.0649  0.0714
 7027W        W10771   0.706   1.566   9.954 -0.2870  0.1697 -0.3507
 7028W        W10772   5.689   1.246   0.860 -0.0597 -0.3155 -0.0971
 7029W        W10773   8.334   5.378   0.665 -0.1017  0.2118  0.2384
 7030W        W10774   4.993   4.337   2.162 -0.1104 -0.2739 -0.2461
 7031W        W10775   0.524   0.382  10.728 -0.0009 -0.2674 -0.2563
 7032W        W10776   3.871   1.414  10.304 -0.1146  0.2410  0.2956
 7033W        W10777   2.831   5.236  12.164 -0.0117 -0.1728  0.0143
 7034W        W10778   3.817   1.755  12.546  0.1843 -0.0115  0.0983
 7035W        W10779   1.355   6.423  11.326  0.0167 -0.0939 -0.0782
 7036W        W10780   8.944   0.300  11.141  0.0587  0.2218 -0.2380
 7037W        W10781   1.589   7.302  11.772  0.7447 -0.1803  0.3094
 7038W        W10782   3.411   1.485   9.918  0.0503  0.0257  0.1755
 7039W        W10783   3.489   0.870   2.151  0.0596 -0.2660 -0.0701
 7040W        W10784   2.537   7.638   2.874 -0.0959 -0.0446 -0.1770
 7041W        W10785   5.357   7.682  11.527 -0.2718  0.1844 -0.3557
 7042W        W10786   8.528   2.199   5.052 -0.1743  0.1395  0.1866
 7043W        W10787   6.040   3.756   0.010 -0.0423 -0.1258  0.2651
 7044W        W10788   1.762   2.247   1.300  0.3431  0.0619 -0.3925
 7045W        W10789   5.078   6.064   2.797 -0.0077 -0.0218 -0.1059
 7046W        W10790   7.814   7.499   3.278  0.0872 -0.1014 -0.0303
 7047W        W10791   5.681   5.957  12.347 -0.3505 -0.0022  0.1089
 7048W        W10792   6.920   0.337   9.827 -0.0433  0.4692 -0.0302
 7049W        W10793   3.235   6.077   0.715 -0.0967 -0.2154 -0.0463
 7050W        W10794   1.372   8.328   2.993 -0.2213  0.0433  0.4182
 7051W        W10795   7.939   3.126  10.052  0.4122  0.0748 -0.0486
 7052W        W10796   5.312   8.566  12.898  0.1856  0.0834  0.0518
 7053W        W10797   9.325   8.860  11.007 -0.1004  0.2648 -0.1018
 7054W        W10798   0.389   6.532  12.284 -0.5012 -0.0699  0.0007
 7055W        W10799   4.338   9.441   1.886 -0.0273  0.1731 -0.1420
 7056W        W10800   5.925   5.625   4.527  0.0319  0.0764  0.1083
 7057W        W10801   1.486   8.479  12.302 -0.1061 -0.0999  0.0848
 7058W        W10802   1.005   1.432  12.245 -0.1226 -0.1340  0.0169
 7059W        W10803   1.525   1.408  12.315 -0.0369 -0.1676  0.0871
 7060W        W10804   7.832   4.280   1.087  0.1850 -0.0823 -0.4566
 7061W        W10805   1.442   7.738   2.344  0.0426 -0.3479  0.2455
 7062W        W10806   2.217   9.122   9.092 -0.0829  0.1661 -0.0159
 7063W        W10807   5.048   2.774   1.163  0.1532  0.3169  0.1301
 7064W        W10808   8.080   3.858   9.777 -0.0602  0.0258 -0.0047
 7065W        W10809   7.511   7.743   2.691 -0.1638  0.0675  0.1143
 7066W        W10810   5.956   8.284   0.926  0.2235  0.2954 -0.2664
 7067W        W10811   8.392   9.709   1.216  0.0397 -0.1563  0.1337
 7068W        W10812   5.829   0.372   8.324 -0.0661 -0.0288 -0.0855
 7069W        W10813   4.232   7.159   2.440 -0.1315  0.0899 -0.0650
 7070W        W10814   7.942   9.109  10.459 -0.0735 -0.2412 -0.0924
 7071W        W10815   8.362   8.036  11.466 -0.2990  0.1677 -0.2902
 7072W        W10816   2.802   2.560  10.489 -0.2696 -0.0303  0.0990
 7073W        W10817   0.692   2.659   0.549 -0.2512  0.3071 -0.0562
 7074W        W10818   9.437   1.459  11.274  0.0614 -0.2212 -0.0088
 7075W        W10819   1.587   0.344   9.650  0.3670 -0.3025  0.4528
 7076W        W10820   7.933   1.045   1.671  0.2091  0.0409  0.0471
 7077W        W10821   5.964   1.767  12.181 -0.0069 -0.0651  0.1117
 7078W        W10822   4.876   6.914   2.292  0.0712  0.1391 -0.2701
 7079W        W10823   6.189   1.340   0.952  0.3475 -0.0678  0.0104
 7080W        W10824   8.878   2.332   1.404 -0.1442 -0.1542 -0.1341
 7081W        W10825   9.511   6.671   1.293 -0.3224 -0.1547 -0.1567
 7082W        W10826   2.801   7.487  11.725  0.0084 -0.2722 -0.0967
 7083W        W10827   7.072   9.194   0.103  0.1279 -0.2141 -0.2641
 7084W        W10828   7.176   2.369   0.028 -0.2448 -0.1690  0.1222
 7085W        W10829   4.673   0.882  10.006 -0.1865 -0.0258  0.1574
 7086W        W10830   0.288   0.877   1.293  0.2786  0.3327 -0.1350
 7087W        W10831   1.297   2.822   9.293 -0.0867  0.0567 -0.1080
 7088W        W10832   0.034   8.882   2.811 -0.1688 -0.0286 -0.0729
 7089W        W10833   5.179   5.561   9.447 -0.0182  0.1180 -0.1949
 7090W        W10834   9.452   6.414  11.236 -0.2819 -0.4230 -0.1508
 7091W        W10835   0.825   1.584   4.138 -0.0591 -0.1998  0.0044
 7092W        W10836   6.152   0.959   2.701 -0.1559 -0.0228 -0.1894
 7093W        W10837   0.695   5.952  10.405 -0.1438  0.2232 -0.2161
 7094W        W10838   8.729   5.047   9.311  0.0815  0.1073  0.0161
 7095W        W10839   3.384   6.150  10.306 -0.2607  0.3127 -0.0734
 7096W        W10840   4.268   9.861   1.638  0.0425 -0.1305 -0.0134
 7097W        W10841   7.026   5.078   4.122  0.0902  0.1293  0.0680
 7098W        W10842   5.583   6.664   2.752 -0.2781  0.2098 -0.0249
 7099W        W10843   8.567   3.751   1.037  0.3538  0.1340 -0.0940
 7100W        W10844   9.533   4.589   0.348 -0.0409  0.1588  0.1366
 7101W        W10845   3.056   3.212   1.102  0.0395 -0.2573 -0.2081
 7102W        W10846   0.671   6.328   0.066 -0.0760  0.0921 -0.0657
 7103W        W10847   9.849   9.374   1.325  0.0028 -0.0887  0.1423
 7104W        W10848   1.377   3.020   0.598 -0.2751  0.0498 -0.1089
 7105W        W10849   4.833   9.716   2.357  0.2059 -0.1613 -0.0014
 7106W        W10850   0.085   2.255  12.904 -0.1021 -0.2629 -0.0735
 7107W        W10851   3.344   6.871  11.259  0.0437  0.0860 -0.0150
 7108W        W10852   7.027   0.281  10.552 -0.1837 -0.0027 -0.1930
 7109W        W10853   6.555   3.870  11.219  0.3909 -0.0152  0.1313
 7110W        W10854   6.825   8.478  10.390 -0.1256 -0.0072 -0.0847
 7111W        W10855   5.833   8.274  11.142  0.1942 -0.1956 -0.0692
 7112W        W10856   5.180   6.116   0.553 -0.0972 -0.0012  0.1375
 7113W        W10857   3.608   6.614   3.023  0.0708 -0.0851  0.1108
 7114W        W10858   7.402   0.732   4.328 -0.1481 -0.0963 -0.0878
 7115W        W10859   9.293   2.063   5.007 -0.2010 -0.0620  0.4542
 7116W        W10860   0.044   0.555   0.909 -0.1444  0.0465 -0.0034
 7117W        W10861   4.081   8.504   1.368  0.0695 -0.0288  0.0531
 7118W        W10862   3.295   3.320   4.498 -0.2226 -0.0159  0.3047
 7119W        W10863   0.013   7.619   0.066  0.0808  0.0672 -0.2677
 7120W        W10864   6.167   8.185   4.663  0.0349  0.1246  0.2245
 7121W        W10865   6.971   0.842   0.897  0.0883 -0.0838  0.1455
 7122W        W10866   8.695   9.631   9.601  0.0730 -0.0238  0.3745
 7123W        W10867   7.100   3.495  12.277 -0.0031 -0.0652  0.2305
 7124W        W10868   3.834   0.762   2.873  0.2701 -0.2878 -0.1492
 7125W        W10869   2.666   7.535   2.346  0.2919  0.2031 -0.0392
 7126W        W10870   9.139   2.820   0.200  0.0551 -0.4580 -0.3860
 7127W        W10871   9.436   1.211   2.635  0.0673  0.1217 -0.1384
 7128W        W10872   9.149   7.139   2.092 -0.1345 -0.2661 -0.0409
 7129W        W10873   8.634   1.150  10.779  0.1075  0.1925  0.0986
 7130W        W10874   8.799   0.391   9.160  0.0051 -0.0029 -0.1505
 7131W        W10875   1.601   4.943  10.111 -0.0104 -0.0969  0.0179
 7132W        W10876   3.851   5.419   0.577 -0.3456 -0.0913 -0.3100
 7133W        W10877   1.524   8.227   2.189  0.1588  0.2819  0.0258
 7134W        W10878   1.968   4.053   9.371 -0.4258 -0.4847 -0.2487
 7135W        W10879   3.993   3.398   8.772 -0.0225  0.2477 -0.1613
 7136W        W10880   2.424   7.660   3.350 -0.0619 -0.0164 -0.0197
 7137W        W10881   1.990   4.645   9.806 -0.0631 -0.1329  0.0808
 7138W        W10882   3.379   0.951   0.123 -0.0117  0.3906 -0.1596
 7139W        W10883   8.982   2.700   1.055 -0.0986 -0.1100 -0.1515
 7140W        W10884   8.775   4.457   8.714  0.0312  0.2272 -0.3216
 7141W        W10885   7.746   4.195  11.954 -0.0236  0.5830  0.0123
 7142W        W10886   8.655   0.046  12.889  0.0168 -0.0126 -0.0997
 7143W        W10887   6.458   9.147  10.384  0.0090  0.1926  0.0405
 7144W        W10888   0.958   4.171  11.945 -0.0444  0.1030 -0.0887
 7145W        W10889   4.503   6.054  12.125  0.0626 -0.1204  0.0431
 7146W        W10890   6.847   8.038   9.620 -0.2386  0.1233 -0.2306
 7147W        W10891   0.322   2.563  11.270  0.3102  0.1991 -0.2041
 7148W        W10892   5.483   1.063  12.346 -0.0514  0.1160 -0.2266
 7149W        W10893   9.609   4.686   1.217  0.0456 -0.2419 -0.1793
 7150W        W10894   5.447   1.717  11.497 -0.1982  0.2121 -0.1355
 7151W        W10895   5.345   2.769  11.454 -0.0820  0.0157 -0.0780
 7152W        W10896   5.376   4.752  11.443 -0.5411 -0.1006 -0.0179
 7153W        W10897   5.899   1.594  11.676  0.0087 -0.2151  0.0299
 7154W        W10898   6.234   2.439   0.431 -0.3060  0.0886 -0.0562
 7155W        W10899   2.022   2.194  12.021 -0.0512  0.1485  0.1750
 7156W        W10900   2.578   0.340   4.253  0.2649  0.1428 -0.2600
 7157W        W10901   7.003   1.601  12.432  0.1378  0.1605  0.0780
 7158W        W10902   9.434   4.067   8.114 -0.4176 -0.3450 -0.1175
 7159W        W10903   5.613   6.550  10.657 -0.0879  0.4121  0.2284
 7160W        W10904   6.507   6.343   9.753 -0.6541 -0.5053  0.2350
 7161W        W10905   9.844   6.323   0.731 -0.0958 -0.0316 -0.4174
 7162W        W10906   9.486   0.065   9.178 -0.0092 -0.0963  0.0095
 7163W        W10907   3.864   0.336   3.117  0.1216  0.0459 -0.3538
 7164W        W10908   6.582   8.083  11.219  0.1882 -0.3922  0.1435
 7165W        W10909   2.933   6.202  12.611  0.1631 -0.0227  0.0983
 7166W        W10910   5.103   3.574   9.721 -0.0419  0.0337 -0.0733
 7167W        W10911   2.117   8.926  10.918 -0.1510 -0.1765  0.0706
 7168W        W10912   3.846   5.392  10.422 -0.1369  0.0625  0.0366
 7169W        W10913   1.008   4.166   1.508 -0.0570 -0.0191  0.0257
 7170W        W10914   2.425   5.978   1.060  0.0526  0.2238  0.1879
 7171W        W10915   3.324   7.061  10.432  0.0192 -0.0288 -0.3564
 7172W        W10916   7.792   2.802  10.476  0.0819  0.0353 -0.0403
 7173W        W10917   4.190   5.829   2.816 -0.1874  0.0768 -0.2409
 7174W        W10918   9.778   2.106  12.044  0.1476 -0.0357  0.0047
 7175W        W10919   7.248   5.370   0.151 -0.0185 -0.0223 -0.2389
 7176W        W10920   6.169   7.809   4.296  0.2484 -0.1437 -0.0766
 7177W        W10921   1.547   3.013   1.057  0.1789  0.2814  0.0365
 7178W        W10922   2.533   8.097  10.586 -0.0656  0.1911 -0.1764
 7179W        W10923   9.559   6.239   5.848 -0.0397 -0.2453  0.3676
 7180W        W10924   5.595   7.432   3.315  0.0677 -0.3247  0.0590
 7181W        W10925   5.121   6.483   1.272  0.3513  0.3302 -0.4816
 7182W        W10926   3.804   0.124   1.667 -0.0112 -0.1585  0.1224
 7183W        W10927   2.222   8.229   3.405  0.0979  0.1826  0.0313
 7184W        W10928   1.397   4.761  11.365  0.0836  0.2740  0.1805
 7185W        W10929   1.812   0.980   1.862  0.0907  0.1508 -0.3680
 7186W        W10930   6.753   7.295   4.230 -0.1474 -0.1556 -0.1253
 7187W        W10931   9.589   3.745   3.169 -0.1488  0.1259  0.1560
 7188W        W10932   3.193   8.619   9.617  0.2599 -0.0205 -0.0443
 7189W        W10933   6.065   9.501   4.164 -0.6120 -0.2350 -0.1011
 7190W        W10934   6.319   7.236   2.700  0.1602  0.2236 -0.1186
 7191W        W10935   7.181   4.636   9.307  0.1355  0.0815  0.1754
 7192W        W10936   9.591   4.344  10.799 -0.0077 -0.0029  0.3098
 7193W        W10937   9.879   9.662   1.741  0.1488  0.1332 -0.1472
 7194W        W10938   1.476   4.396   2.739  0.0383 -0.0848 -0.0771
 7195W        W10939   5.535   8.458   3.123  0.2262  0.1018 -0.0522
 7196W        W10940   9.036   8.955  10.648  0.2133  0.0218 -0.2173
 7197W        W10941   7.957   8.742  10.817 -0.2869 -0.1059 -0.2538
 7198W        W10942   5.237   9.885  12.020 -0.0959  0.1659  0.2388
 7199W        W10943   1.411   3.029  12.322 -0.3535 -0.0410 -0.0480
 7200W        W10944   4.537   8.536   3.129 -0.3722  0.3711  0.3187
 7201W        W10945   9.278   6.757   1.820  0.1720 -0.0625 -0.1133
 7202W        W10946   2.542   4.743   3.257  0.1605 -0.3636  0.3133
 7203W        W10947   3.906   1.639   1.398  0.0219  0.0664  0.3718
 7204W        W10948   6.019   7.680   3.348 -0.1767  0.1416  0.1284
 7205W        W10949   8.366   4.515   3.578  0.2238  0.3018  0.0992
 7206W        W10950   2.487   1.446   9.171 -0.4220  0.3011  0.0323
 7207W        W10951   0.487   3.226  10.787  0.2211  0.4030  0.3058
 7208W        W10952   1.876   9.308   2.885 -0.3302  0.2358 -0.0483
 7209W        W10953   1.333   4.408   0.956  0.2272  0.1224 -0.0470
 7210W        W10954   1.334   7.068   0.463  0.1440 -0.0262  0.1770
 7211W        W10955   6.287   0.512  10.711  0.1158  0.0049 -0.3037
 7212W        W10956   4.484   8.842  12.386  0.2996 -0.1252 -0.2085
 7213W        W10957   7.525   2.472   0.474 -0.3521 -0.1028  0.0506
 7214W        W10958   2.545   7.072   9.860 -0.2973  0.1663 -0.2294
 7215W        W10959   2.758   2.487   1.514  0.0360  0.0087 -0.0924
 7216W        W10960   3.974   6.159  11.685  0.1018 -0.0096  0.1320
 7217W        W10961   4.824   4.669   9.790  0.0101  0.1487  0.1700
 7218W        W10962   0.984   9.613   0.638 -0.0432 -0.0898  0.2378
 7219W        W10963   9.821   5.660  12.321 -0.2049  0.0836 -0.2048
 7220W        W10964   6.474   0.992   3.592  0.1217  0.0957 -0.1557
 7221W        W10965   4.252   3.564   3.253  0.0480 -0.4139  0.2934
 7222W        W10966   8.386   9.190  12.512 -0.0075  0.0106 -0.0864
 7223W        W10967   4.707   8.009   3.020 -0.0824  0.1207 -0.0641
 7224W        W10968   5.040   2.660  12.287 -0.1565 -0.4828 -0.2358
 7225W        W10969   3.383   1.821   9.513  0.1290 -0.0861 -0.3375
 7226W        W10970   3.438   3.477  12.456 -0.1855  0.0495  0.0571
 7227W        W10971   4.961   3.879  12.233 -0.3236  0.2835  0.2262
 7228W        W10972   6.438   5.895  12.853 -0.2086  0.3760  0.0709
 7229W        W10973   4.387   6.169   0.976 -0.1396  0.1073  0.1569
 7230ION    NA+10974   5.511   7.918  12.525 -0.1316 -0.2298 -0.0059
 7231ION    NA+10975   1.835   7.543   2.917  0.1204 -0.2271  0.0721
 7232ION    NA+10976   0.666   3.763   3.975  0.2026 -0.0782  0.4167
 7233ION    NA+10977   9.824   8.780   8.651 -0.0826 -0.0201  0.3270
 7234ION    NA+10978   1.173   4.214  11.472  0.1659 -0.1602  0.1032
 7235ION    NA+10979   5.408   7.312  10.407  0.0267  0.1236  0.1247
 7236ION    NA+10980   7.496   5.595   8.729 -0.0372 -0.3054  0.3450
 7237ION    NA+10981   2.994   1.661  11.422 -0.0552 -0.1128  0.1001
 7238ION    NA+10982   7.076   3.630   0.517 -0.0235  0.0254  0.0367
 7239ION    NA+10983   4.422   4.884   4.812  0.2620  0.0012  0.1236
 7240ION    NA+10984   6.662   0.214   3.686  0.0035 -0.3596 -0.2720
 7241ION    NA+10985   2.546   1.178   2.512  0.3474  0.2142  0.0454
 7242ION    NA+10986   5.055   1.333   2.391  0.2243  0.1395 -0.0094
 7243ION    NA+10987   3.610   9.388   8.523  0.1074  0.2135  0.1546
 7244ION    NA+10988   8.320   9.111  11.079  0.0461 -0.1548  0.1192
 7245ION    NA+10989   0.085   3.383   2.991  0.3155  0.0350  0.1694
 7246ION    NA+10990   8.729   3.329   8.153  0.0902  0.1063  0.0338
 7247ION    NA+10991   2.684   7.731   9.372  0.4587 -0.2239 -0.1238
 7248ION    NA+10992   7.982   1.994  12.418  0.0840 -0.1721  0.3660
 7249ION    NA+10993   9.005   2.237   0.265 -0.0727  0.0575 -0.0318
 7250ION    NA+10994   7.941   1.672  11.206 -0.0385 -0.1694 -0.1941
 7251ION    NA+10995   1.485   5.233  10.609  0.5536 -0.3546  0.3574
 7252ION    NA+10996   1.550   9.462  11.303 -0.2746  0.2739 -0.0029
 7253ION    NA+10997   4.409   3.532   3.847  0.0108 -0.2080  0.1189
 7254ION    NA+10998   5.746   2.113   4.265 -0.0864  0.2964  0.0809
 7255ION    NA+10999   6.056   8.122  12.693  0.1402 -0.0018  0.0543
 7256ION    NA+11000   2.598   9.228   3.483  0.2014  0.0374  0.2320
 7257ION    NA+11001   9.156   7.462   8.983  0.2808 -0.1557 -0.1179
 7258ION    NA+11002   7.641   8.722   1.271 -0.4115  0.3272 -0.0655
 7259ION    NA+11003   3.193   4.255   4.100  0.3623  0.1571  0.0832
 7260ION    NA+11004   5.874   8.830   8.863  0.0128 -0.1188  0.0867
 7261ION    NA+11005   1.914   0.939   4.688  0.1994 -0.1167  0.1005
 7262ION    NA+11006   1.511   7.420   1.166 -0.1008  0.0751  0.1661
 7263ION    NA+11007   2.177   5.991  10.162 -0.1463 -0.0301  0.0437
 7264ION    NA+11008   2.805   1.640  12.754  0.0111 -0.1028  0.0063
 7265ION    NA+11009   2.393   4.143   4.397  0.1403 -0.1768 -0.1197
 7266ION    NA+11010   1.036   5.006   1.739 -0.4360  0.3774  0.1433
 7267ION    NA+11011   2.246   0.585   2.098 -0.1887 -0.0264  0.6347
 7268ION    NA+11012   2.725   6.994   9.386  0.0449 -0.1051 -0.2084
 7269ION    NA+11013   5.711   2.116   8.628  0.0098 -0.0136 -0.2074
 7270ION    NA+11014   6.496   1.570   0.645 -0.1394  0.1712 -0.0439
 7271ION    NA+11015   8.995   9.160   1.015  0.0870 -0.0960  0.0475
 7272ION    NA+11016   9.881   1.437  12.628  0.0504  0.1052 -0.2038
 7273ION    NA+11017   2.371   4.413   9.543 -0.0645  0.0409 -0.1757
 7274ION    NA+11018   4.475   3.414   4.706  0.2678 -0.0891 -0.0574
 7275ION    NA+11019   3.576   0.658  10.524  0.1607 -0.1235  0.3460
 7276ION    NA+11020   5.388   8.255   4.981 -0.3397 -0.1618 -0.0932
 7277ION    NA+11021   7.658   9.812   1.700  0.0358 -0.1950 -0.1391
 7278ION    NA+11022   2.975   1.522   0.631 -0.0060 -0.1402  0.2746
 7279ION    NA+11023   6.376   0.977  10.647  0.1404  0.2460 -0.1948
 7280ION    NA+11024   7.496   0.965   0.040  0.0070  0.1146  0.0856
 7281ION    NA+11025   4.304   0.078   9.880 -0.0695 -0.2145  0.3541
 7282ION    NA+11026   6.561   8.528   1.938  0.0886 -0.0934 -0.1464
 7283ION    NA+11027   5.432   4.532  11.003  0.1419  0.0278 -0.1356
 7284ION    NA+11028   3.654   2.035   4.900 -0.2095 -0.0515 -0.0487
 7285ION    NA+11029   5.536   2.656   9.545 -0.1568  0.1034  0.1531
 7286ION    NA+11030   1.510   8.666  12.808 -0.0701 -0.2916  0.2193
 7287ION    NA+11031   1.482   4.121   8.741 -0.2497  0.1265 -0.0820
 7288ION    NA+11032   6.157   4.837   1.996  0.1976 -0.0100  0.0238
 7289ION    NA+11033   7.691   1.653   4.938 -0.1349 -0.0573  0.0604
 7290ION    NA+11034   1.926   8.244   9.416  0.0949 -0.0305  0.0140
 7291ION    NA+11035   1.241   5.009   0.041 -0.1944 -0.0953 -0.0518
 7292ION    NA+11036   9.397   9.744  11.028 -0.5227 -0.2936  0.0721
 7293ION    NA+11037   3.062   2.961  11.099 -0.3709  0.1145  0.1784
 7294ION    NA+11038   0.643   0.173   9.618  0.0229 -0.1494 -0.2873
 7295ION    NA+11039   9.577   3.223   2.204  0.0114  0.2189  0.0870
 7296ION    NA+11040   1.647   1.476  11.179  0.4701 -0.1194 -0.0267
 7297ION    NA+11041   2.949   3.025   1.551 -0.1054  0.0304  0.0556
 7298ION    NA+11042   4.023   3.281   2.160 -0.2853 -0.1036  0.0275
 7299ION    NA+11043   9.821   1.149   8.659 -0.1316  0.0585  0.0455
 7300ION    NA+11044   8.201   1.137  12.124 -0.3604 -0.1564  0.0149
 7301ION    NA+11045   3.522   5.767  11.054  0.1575  0.0680 -0.4361
 7302ION    NA+11046   3.915   1.192   2.469  0.1264 -0.0685 -0.2408
 7303ION    NA+11047   1.332   3.951  12.186 -0.1576  0.1092  0.1961
 7304ION    NA+11048   5.750   5.908   5.044 -0.4816 -0.0370  0.1759
 7305ION    NA+11049   1.363   1.656   3.930  0.0079  0.2014 -0.0980
 7306ION    CL-11050   4.907   2.947   9.017  0.3692 -0.1069 -0.1499
 7307ION    CL-11051   0.687   3.347   3.151 -0.2513 -0.0240  0.3395
 7308ION    CL-11052   7.453   5.796   0.087 -0.1447  0.1741 -0.0784
 7309ION    CL-11053   4.778   8.932   3.681  0.0299 -0.1077  0.2173
 7310ION    CL-11054   1.072   0.353   9.907  0.0258  0.0182 -0.2457
 7311ION    CL-11055   1.291   9.179  12.799 -0.1083  0.3208 -0.3388
 7312ION    CL-11056   1.114   2.645  12.377  0.0238  0.0166 -0.0417
 7313ION    CL-11057   5.350   3.916   3.737 -0.0286  0.1070  0.3534
 7314ION    CL-11058   4.434   3.237   1.819 -0.3013  0.1692 -0.1149
 7315ION    CL-11059   3.593   8.892   2.614  0.0523  0.1449 -0.3223
 7316ION    CL-11060   7.145   2.093   4.322 -0.0707 -0.0124  0.1538
 7317ION    CL-11061   0.939   9.426   9.948  0.1474  0.2004  0.1863
 7318ION    CL-11062   9.591   8.620   9.052  0.0671  0.1917 -0.2085
 7319ION    CL-11063   4.406   0.005   9.280  0.1428 -0.0381  0.0122
 7320ION    CL-11064   5.202   4.267  11.393  0.0455 -0.1893  0.2338
 7321ION    CL-11065   8.222   1.295  11.208  0.1154  0.3835 -0.0633
 7322ION    CL-11066   5.636   7.247   9.954 -0.2899  0.1325  0.1616
 7323ION    CL-11067   6.534   5.917   3.923 -0.1413 -0.1134  0.4151
 7324ION    CL-11068   4.945   0.234  12.344  0.1598 -0.0755  0.1835
 7325ION    CL-11069   0.234   8.400  12.860  0.0318 -0.1139  0.1191
 7326ION    CL-11070   1.026   2.388   9.404 -0.1427  0.0715  0.0087
 7327ION    CL-11071   3.019   1.210   4.104  0.1330  0.1761 -0.0594
 7328ION    CL-11072   2.622   0.835   1.870 -0.0086 -0.4870 -0.1968
 7329ION    CL-11073   5.261   1.301   2.907 -0.0323  0.2526  0.3556
 7330ION    CL-11074   6.917   3.746  11.703  0.0165 -0.1258  0.0411
 7331ION    CL-11075   2.922   2.003   0.269 -0.0792 -0.0373  0.1959
 7332ION    CL-11076   1.156   9.818  11.303 -0.1478  0.4546 -0.0562
 7333ION    CL-11077   9.264   2.289   1.063 -0.2843  0.0335  0.0595
 7334ION    CL-11078   5.591   2.594   3.048  0.1938  0.0100 -0.0113
 7335ION    CL-11079   2.906   1.690  12.227 -0.4786  0.0884  0.1470
 7336ION    CL-11080   5.658   8.249  12.919 -0.0244  0.0263  0.4480
 7337ION    CL-11081   9.462   7.780  10.168  0.1279  0.0354  0.1644
 7338ION    CL-11082   8.574   9.405  11.352 -0.0699 -0.4095 -0.0968
 7339ION    CL-11083   2.008   9.506  11.594 -0.1017  0.2539  0.0684
 7340ION    CL-11084   9.491   8.171   3.131  0.1041 -0.4850  0.0051
 7341ION    CL-11085   1.547   1.201   4.068 -0.0041  0.3213 -0.0340
 7342ION    CL-11086   3.956   0.875   4.469 -0.3267 -0.0940  0.1587
 7343ION    CL-11087   0.794   3.687  11.905  0.0775  0.3747  0.3033
 7344ION    CL-11088   6.920   9.293   8.852  0.3836 -0.1117  0.1433
 7345ION    CL-11089   7.641   0.927   9.069 -0.2045  0.2214  0.3724
 7346ION    CL-11090   2.615   8.194   3.069 -0.2301 -0.1588 -0.1681
 7347ION    CL-11091   6.812   1.229   3.876 -0.3101  0.2229  0.1232
 7348ION    CL-11092   0.054   6.709  12.851  0.0984 -0.0855 -0.4169
 7349ION    CL-11093   2.469   9.093   2.994  0.0871  0.3647 -0.3255
 7350ION    CL-11094   3.587   9.567   1.466  0.2835 -0.0344  0.1586
 7351ION    CL-11095   7.770   1.520  12.314 -0.1788 -0.2316  0.4600
 7352ION    CL-11096   6.524   8.094  12.086  0.2001 -0.1343 -0.1958
 7353ION    CL-11097   4.080   9.135  12.581 -0.2235 -0.1077  0.0048
 7354ION    CL-11098   1.531   8.538   9.642  0.1115 -0.0645 -0.2259
 7355ION    CL-11099   3.964   0.389  10.108  0.1433  0.2009  0.2696
 7356ION    CL-11100   8.326   1.688  12.081  0.0390 -0.0175 -0.3234
 7357ION    CL-11101   9.795   3.404   1.771 -0.3266 -0.0687 -0.0369
 7358ION    CL-11102   7.468   1.771  11.583  0.0415 -0.0285 -0.0135
 7359ION    CL-11103   3.298   9.692  10.538 -0.2291  0.0156  0.0893
 7360ION    CL-11104   2.361   9.708   3.647  0.1417  0.0753 -0.1694
 7361ION    CL-11105   6.213   5.424   2.150  0.1292 -0.1167  0.0490
 7362ION    CL-11106   1.714   1.026  10.934 -0.1384 -0.0868  0.1575
 7363ION    CL-11107   2.430   8.033   9.708  0.0204  0.0646 -0.0387
 7364ION    CL-11108   1.473   1.970  11.002 -0.1157  0.2679 -0.1517
 7365ION    CL-11109   7.484   9.212   1.326  0.0602  0.2654 -0.1613
 7366ION    CL-11110   2.093   0.579   2.625  0.0109  0.0312  0.0272
 7367ION    CL-11111   4.957   4.087   9.755 -0.1403  0.0558  0.1402
 7368ION    CL-11112   0.432   4.310   3.346  0.2989  0.2277  0.2276
 7369ION    CL-11113   9.465   1.890   0.151  0.2788  0.2988 -0.0105
 7370ION    CL-11114   0.204   1.197   0.087 -0.1892  0.0471 -0.0854
 7371ION    CL-11115   1.454   9.219   2.605  0.1858 -0.2975 -0.1812
 7372ION    CL-11116   8.980   7.968   1.100 -0.2494  0.0402 -0.0064
 7373ION    CL-11117   4.139   2.042   3.431 -0.0058 -0.0188  0.1859
 7374ION    CL-11118   4.317   1.247   2.763  0.1660  0.2421  0.0052
 7375ION    CL-11119   5.065   6.061   4.366 -0.3950 -0.2350 -0.0781
 7376ION    CL-11120   8.075   0.115   1.499 -0.2062 -0.2707  0.1088
 7377ION    CL-11121   4.012   7.375   9.944 -0.0629 -0.0793 -0.0564
 7378ION    CL-11122   4.162   0.455  11.558 -0.1305  0.3476  0.2692
 7379ION    CL-11123   4.091   3.174   3.970 -0.0870 -0.0918  0.3155
 7380ION    CL-11124   2.891   7.817  11.360 -0.1093 -0.3968 -0.0660
 7381ION    CL-11125   9.424   6.671  10.155  0.0947 -0.0971  0.1899
   9.90409   9.90409  12.94723
