Protein in INSANE! Membrane UpperLeaflet>POPC=1.0 LowerLeaflet>POPC=1.0
11125
    1AU     AUC    1   5.854   0.493   6.543 -0.1980  0.0264  0.0410
    1AU     AUC    2   5.571   0.576   6.415 -0.0240 -0.0833  0.0407
    1AU     AUC    3   5.828   0.383   6.273  0.0052  0.0234 -0.0016
    1AU     AUC    4   5.878   0.575   6.856  0.0290  0.0695  0.0322
    1AU     AUC    5   6.128   0.456   6.714 -0.0467  0.0892 -0.0041
    1AU     AUC    6   6.042   0.734   6.617  0.0098 -0.0023 -0.0086
    1AU     AUC    7   5.858   0.729   6.309  0.0207 -0.0034 -0.0270
    1AU     AUC    8   5.812   0.286   6.773  0.0560  0.0238  0.0023
    1AU     AUC    9   5.625   0.256   6.508 -0.0883 -0.0072 -0.0407
    1AU     AUC   10   5.919   0.219   6.519 -0.0025  0.0199  0.0222
    1AU     AUC   11   6.117   0.525   6.394 -0.0043  0.0234  0.0235
    1AU     AUC   12   5.560   0.521   6.715  0.0337  0.0158  0.0672
    1AU     AUC   13   5.729   0.798   6.607 -0.0602  0.0785 -0.0793
    1AU     AUC   14   5.298   0.652   6.233 -0.0189 -0.1014  0.0242
    1AU     AUC   15   5.531   0.436   6.070  0.1336  0.1354 -0.0070
    1AU     AUC   16   5.808   0.230   5.943  0.1037  0.0507 -0.0438
    1AU     AUC   17   5.873   0.711   7.183 -0.1106 -0.0011  0.0617
    1AU     AUC   18   6.201   0.559   7.057  0.0541 -0.0517  0.0147
    1AU     AUC   19   6.438   0.372   6.901 -0.0248 -0.0870  0.0557
    1AU     AUC   20   6.278   1.011   6.668  0.0593 -0.0107  0.0471
    1AU     AUC   21   6.071   1.034   6.352 -0.0446 -0.0276 -0.0132
    1AU     AUC   22   5.895   0.951   6.087 -0.1543  0.0411 -0.0393
    1AU     AUC   23   5.802   0.067   7.065  0.0240  0.0574  0.0514
    1AU     AUC   24   5.559   0.005   6.800 -0.1232  0.0165 -0.0494
    1AU     AUC   25   5.420   0.001   6.458  0.0256  0.0108  0.0462
    1AU     AUC   26   6.090  -0.096   6.443  0.0052  0.0021  0.0125
    1AU     AUC   27   6.270   0.191   6.316  0.0697  0.0899 -0.0836
    1AU     AUC   28   6.374   0.500   6.182  0.1152 -0.0074  0.0954
    1AU     AUC   29   5.251   0.513   6.895  0.0250 -0.0163  0.0236
    1AU     AUC   30   5.402   0.840   6.800  0.0906  0.0040 -0.0330
    1AU     AUC   31   5.547   1.098   6.683 -0.0195 -0.0744 -0.0698
    1AU     AUC   32   5.954   0.037   6.213  0.0505 -0.0241  0.0259
    1AU     AUC   33   6.118   0.355   6.050  0.0184  0.0384  0.0105
    1AU     AUC   34   5.216   0.633   6.534 -0.0716 -0.0837  0.0252
    1AU     AUC   35   5.428   0.919   6.416 -0.0650 -0.0864  0.0051
    1AU     AUC   36   6.310   0.154   6.636  0.0607  0.1273  0.0794
    1AU     AUC   37   6.443   0.460   6.527 -0.0213  0.0388 -0.0384
    1AU     AUC   38   5.580   0.635   7.063  0.0139 -0.0009 -0.1093
    1AU     AUC   39   5.712   0.913   6.984 -0.0563  0.0787 -0.0557
    1AU     AUC   40   5.599   0.798   6.092  0.0813  0.0878 -0.0350
    1AU     AUC   41   5.850   0.581   5.997 -0.0396 -0.0051 -0.0636
    1AU     AUC   42   6.131   0.880   6.943 -0.0743 -0.0242  0.0507
    1AU     AUC   43   6.378   0.713   6.777 -0.0489  0.0379 -0.1154
    1AU     AUC   44   5.329   0.355   6.334  0.0136  0.1095  0.0873
    1AU     AUC   45   5.593   0.076   6.205  0.1117  0.0321 -0.0465
    1AU     AUC   46   5.854   0.366   7.151 -0.0049 -0.0491  0.0112
    1AU     AUC   47   6.128   0.219   6.971 -0.0075  0.0820 -0.0165
    1AU     AUC   48   6.316   0.794   6.410 -0.1509 -0.0005  0.1001
    1AU     AUC   49   6.170   0.750   6.114 -0.0418  0.0079 -0.1150
    1AU     AUC   50   5.935  -0.032   6.753  0.0100  0.0541  0.0017
    1AU     AUC   51   5.729  -0.106   6.504  0.0336 -0.0487  0.0243
    1AU     AUC   52   5.909   1.030   6.690  0.0183 -0.0563 -0.0884
    1AU     AUC   53   5.715   1.074   6.337 -0.0545 -0.0565  0.0021
    1AU     AUC   54   5.506   0.282   6.979  0.0403 -0.0876  0.0651
    1AU     AUC   55   5.307   0.269   6.660 -0.1047  0.0542  0.0493
    1AU    AUSL   56   6.052  -0.025   5.823 -0.0483 -0.0149  0.0137
    1AU    AUSL   57   5.970  -0.324   6.220 -0.0407 -0.0311 -0.0592
    1AU     AUL   58   5.977  -0.372   5.818 -0.0839  0.0361 -0.0357
    1AU       S   59   5.722  -0.650   6.055  0.2348 -0.0885 -0.0515
    1AU     LIG   60   5.773  -1.051   5.930 -0.1156  0.0551  0.2156
    1AU     LIG   61   6.022  -1.295   6.017 -0.0252 -0.4368 -0.1259
    1AU     LIG   62   6.123  -1.555   6.528  0.0006  0.3525 -0.0884
    1AU     LIG   63   6.002  -1.939   6.707  0.1340 -0.1656 -0.1443
    1AU       S   64   6.414  -0.376   5.681  0.3116  0.1337  0.1345
    1AU     LIG   65   6.694  -0.688   5.839  0.1562 -0.0877 -0.0446
    1AU     LIG   66   7.057  -0.931   6.018 -0.0353 -0.1134  0.2083
    1AU     LIG   67   7.458  -1.137   6.235  0.1693  0.2507  0.1619
    1AU     LIG   68   7.745  -1.333   6.499  0.1036  0.2249 -0.1436
    1AU    AUSL   69   6.359  -0.146   6.150 -0.0524 -0.0265  0.0103
    1AU    AUSL   70   6.683   0.171   6.217 -0.0421 -0.0006  0.0701
    1AU     AUL   71   6.675  -0.049   5.948 -0.0485  0.0532  0.0199
    1AU       S   72   6.390  -0.447   6.100  0.1114 -0.2269 -0.1425
    1AU     LIG   73   6.345  -0.849   6.103 -0.1430 -0.1411 -0.2849
    1AU     LIG   74   6.619  -1.221   6.200 -0.2400 -0.2077  0.3804
    1AU     LIG   75   6.975  -1.435   6.164  0.2839 -0.1869 -0.2329
    1AU     LIG   76   7.187  -1.430   5.835  0.0660  0.1395 -0.0407
    1AU       S   77   6.908  -0.170   6.317  0.3477 -0.0250 -0.1450
    1AU     LIG   78   7.241  -0.443   6.258  0.1403 -0.0614  0.2096
    1AU     LIG   79   7.663  -0.306   6.475 -0.1119 -0.0470 -0.0193
    1AU     LIG   80   8.139  -0.224   6.450  0.7240 -0.0321 -0.0676
    1AU     LIG   81   8.309   0.244   6.506 -0.1544 -0.1553  0.0331
    1AU    AUSL   82   6.303   0.281   6.060  0.0269 -0.1185 -0.0379
    1AU    AUSL   83   6.080   0.376   5.662 -0.0247  0.0212  0.0242
    1AU     AUL   84   6.310   0.104   5.697 -0.0535 -0.1035  0.0234
    1AU       S   85   6.846   0.393   5.856 -0.0961  0.0119 -0.2732
    1AU     LIG   86   7.338   0.597   5.969  0.0541 -0.2508  0.2298
    1AU     LIG   87   7.534   0.515   6.370 -0.1476  0.0388  0.1063
    1AU     LIG   88   7.818   0.214   6.625 -0.0003  0.2020  0.0130
    1AU     LIG   89   8.056  -0.111   6.915  0.4252  0.0812  0.3883
    1AU       S   90   6.259   0.430   5.329  0.3451 -0.1435 -0.1832
    1AU     LIG   91   6.136   0.217   4.929  0.1504 -0.2199  0.4610
    1AU     LIG   92   6.191  -0.311   4.874 -0.1607  0.2098 -0.1381
    1AU     LIG   93   6.500  -0.510   5.181 -0.0436  0.1808 -0.1901
    1AU     LIG   94   6.860  -0.733   5.328 -0.0007  0.0218  0.3571
    1AU    AUSL   95   5.056   1.004   6.358  0.0440  0.0355  0.0528
    1AU    AUSL   96   5.395   1.313   6.312  0.0165 -0.0538 -0.0759
    1AU     AUL   97   5.021   1.197   6.171  0.0415 -0.0337 -0.0398
    1AU       S   98   4.900   1.410   6.532  0.2836  0.3532  0.1168
    1AU     LIG   99   4.667   1.690   6.377  0.1454 -0.0391  0.1156
    1AU     LIG  100   4.333   1.927   6.162 -0.0349  0.2170 -0.3440
    1AU     LIG  101   3.934   2.170   6.289 -0.1457 -0.0400 -0.2857
    1AU     LIG  102   3.457   2.277   6.256 -0.1720 -0.1942 -0.0228
    1AU       S  103   5.305   1.511   5.998  0.2891  0.2194  0.1020
    1AU     LIG  104   5.080   1.927   6.012 -0.0615  0.1934  0.1658
    1AU     LIG  105   4.833   2.149   6.283 -0.7900  0.4123  0.0599
    1AU     LIG  106   4.562   2.468   6.141  0.1716  0.2027  0.0239
    1AU     LIG  107   4.305   2.770   6.221  0.0733 -0.1861  0.0179
    1AU    AUSL  108   4.930   0.804   6.731  0.0804  0.0526  0.0355
    1AU    AUSL  109   4.962   0.592   6.331  0.0466  0.0475 -0.0064
    1AU     AUL  110   4.729   0.874   6.399 -0.0574  0.0870 -0.0181
    1AU       S  111   4.617   0.448   6.336  0.4838  0.2107 -0.3683
    1AU     LIG  112   4.325   0.336   6.008  0.0793  0.2280  0.3234
    1AU     LIG  113   4.086  -0.002   5.983 -0.3406 -0.0380  0.2001
    1AU     LIG  114   4.054  -0.275   6.278 -0.0155  0.1536  0.0693
    1AU     LIG  115   3.684  -0.569   6.409  0.1185  0.2397 -0.3116
    1AU       S  116   4.769   1.233   6.679  0.2102 -0.2441 -0.4144
    1AU     LIG  117   4.346   1.369   6.759  0.1652  0.0423  0.0164
    1AU     LIG  118   4.155   1.679   6.604 -0.6035 -0.0388  0.2654
    1AU     LIG  119   3.898   1.930   6.768 -0.2701 -0.2439 -0.2219
    1AU     LIG  120   3.486   1.931   6.777 -0.0866 -0.0942 -0.0695
    1AU    AUSL  121   5.322   1.074   6.689  0.0343 -0.0026 -0.0565
    1AU    AUSL  122   5.253   0.774   7.020  0.0005  0.0467  0.0347
    1AU     AUL  123   4.982   0.967   6.969 -0.0364 -0.0207 -0.0904
    1AU       S  124   5.089   1.095   7.407  0.4316  0.0380  0.0822
    1AU     LIG  125   4.714   1.000   7.598  0.1083  0.2420  0.1796
    1AU     LIG  126   4.540   0.658   7.535  0.1327  0.2254 -0.5569
    1AU     LIG  127   4.275   0.434   7.330 -0.1428  0.4208 -0.2376
    1AU     LIG  128   4.237   0.149   6.954 -0.0546  0.1677  0.3905
    1AU       S  129   5.120   1.364   6.747 -0.0471 -0.3291 -0.0210
    1AU     LIG  130   4.863   1.792   6.847  0.0086 -0.1810 -0.1780
    1AU     LIG  131   4.478   2.088   6.685 -0.1333 -0.0639  0.0666
    1AU     LIG  132   4.098   2.430   6.711  0.1548  0.4131  0.2332
    1AU     LIG  133   3.808   2.646   6.305  0.2912 -0.3226 -0.0201
    1AU    AUSL  134   6.735   0.205   6.652 -0.0050  0.0136 -0.0310
    1AU    AUSL  135   6.656   0.574   6.372 -0.0130 -0.0112 -0.0148
    1AU     AUL  136   6.912   0.350   6.374  0.0417 -0.1236 -0.0696
    1AU       S  137   7.045  -0.122   6.510  0.3026  0.0754 -0.1336
    1AU     LIG  138   7.072  -0.506   6.725 -0.1777  0.3810  0.1169
    1AU     LIG  139   7.091  -0.807   6.955  0.1125  0.3519  0.1573
    1AU     LIG  140   7.355  -0.921   7.380  0.1709  0.2601  0.1766
    1AU     LIG  141   7.765  -0.785   7.304 -0.1850  0.4365  0.0364
    1AU       S  142   7.012   0.791   6.516 -0.0584  0.2533 -0.2199
    1AU     LIG  143   7.363   0.852   6.669  0.1056 -0.1646 -0.0597
    1AU     LIG  144   7.683   0.714   6.846  0.2051 -0.0912  0.0106
    1AU     LIG  145   8.138   0.526   6.870 -0.1172  0.1480 -0.5584
    1AU     LIG  146   8.498   0.616   7.226  0.5375 -0.1646 -0.0036
    1AU    AUSL  147   6.341   0.049   6.536 -0.0313 -0.0283 -0.0111
    1AU    AUSL  148   6.511  -0.035   6.978  0.0029  0.0165  0.0243
    1AU     AUL  149   6.674  -0.049   6.784  0.0509 -0.0180  0.0584
    1AU       S  150   6.660  -0.324   7.119  0.0836  0.4471 -0.0793
    1AU     LIG  151   7.124  -0.375   7.198 -0.0359 -0.0334 -0.2776
    1AU     LIG  152   7.303  -0.414   7.598  0.0506  0.1791 -0.0627
    1AU     LIG  153   7.283  -0.618   7.968 -0.0405 -0.2536  0.1395
    1AU     LIG  154   7.382  -0.652   8.304 -0.3647 -0.0035  0.0986
    1AU       S  155   6.765  -0.270   6.400  0.3013 -0.2653  0.2776
    1AU     LIG  156   6.792  -0.696   6.373 -0.0354  0.0956  0.0093
    1AU     LIG  157   7.018  -1.086   6.535 -0.0851 -0.8345 -0.3632
    1AU     LIG  158   7.246  -1.554   6.546  0.0014 -0.2863 -0.2006
    1AU     LIG  159   7.669  -1.775   6.719  0.0862  0.1521 -0.1972
    1AU    AUSL  160   5.543   0.845   7.354 -0.0042 -0.0710 -0.0445
    1AU    AUSL  161   5.365   0.410   7.204 -0.0676  0.1025 -0.0256
    1AU     AUL  162   5.180   0.660   7.344  0.0748  0.1683 -0.0008
    1AU       S  163   5.254   1.052   7.623 -0.0565  0.4461 -0.2171
    1AU     LIG  164   4.904   1.396   7.777 -0.4591 -0.2038  0.1392
    1AU     LIG  165   4.614   1.834   7.696 -0.2304 -0.3916  0.2736
    1AU     LIG  166   4.741   2.119   7.291  0.1448 -0.0489  0.1981
    1AU     LIG  167   4.475   2.412   7.123 -0.1356 -0.0595  0.1552
    1AU       S  168   5.344   0.367   7.665  0.2630  0.1868  0.1447
    1AU     LIG  169   5.043   0.671   7.939  0.1557 -0.2831  0.1279
    1AU     LIG  170   4.968   1.022   8.090  0.2129 -0.1080  0.1998
    1AU     LIG  171   4.866   1.220   8.470  0.0650  0.3291 -0.0760
    1AU     LIG  172   4.844   1.012   8.888  0.0887  0.0888  0.0297
    1AU    AUSL  173   5.396   1.199   7.085 -0.0051 -0.0211 -0.0106
    1AU    AUSL  174   5.911   1.105   7.308  0.0297  0.0291 -0.0700
    1AU     AUL  175   5.599   1.197   7.374  0.0203  0.0071 -0.0491
    1AU       S  176   6.001   1.346   7.589  0.3097 -0.0549  0.0180
    1AU     LIG  177   6.014   1.644   7.988  0.2157 -0.0207  0.3868
    1AU     LIG  178   6.223   1.760   8.355  0.2084  0.2462  0.1058
    1AU     LIG  179   6.293   2.090   8.499 -0.0540 -0.0518  0.0545
    1AU     LIG  180   6.425   2.034   9.021 -0.2014  0.0267 -0.2367
    1AU       S  181   5.147   1.297   7.271 -0.0808 -0.0784  0.0307
    1AU     LIG  182   5.158   1.788   7.337 -0.0600  0.0530  0.0591
    1AU     LIG  183   5.254   2.145   7.169  0.2194 -0.3305 -0.2071
    1AU     LIG  184   5.515   2.507   6.956  0.1647 -0.1957 -0.1509
    1AU     LIG  185   5.768   2.446   6.521  0.2997  0.1168  0.1225
    1AU    AUSL  186   5.635   0.852   5.728  0.0285  0.0459  0.0217
    1AU    AUSL  187   5.382   0.873   6.114  0.0893  0.0719  0.0191
    1AU     AUL  188   5.284   1.073   5.774  0.0218 -0.1279  0.0243
    1AU       S  189   5.430   1.475   5.869  0.2159 -0.5502 -0.3115
    1AU     LIG  190   5.265   1.633   5.467 -0.2874  0.3566 -0.0293
    1AU     LIG  191   4.886   1.560   5.285 -0.0558 -0.1125  0.2824
    1AU     LIG  192   4.565   1.583   4.968  0.0940 -0.1300 -0.2070
    1AU     LIG  193   4.386   1.249   4.737  0.0282 -0.2733  0.1393
    1AU       S  194   5.541   0.888   5.394  0.2832  0.1491 -0.0249
    1AU     LIG  195   5.678   1.216   5.077 -0.3000 -0.0790  0.2061
    1AU     LIG  196   6.022   1.471   4.948 -0.0686  0.1230 -0.1523
    1AU     LIG  197   6.096   1.807   4.787  0.4634  0.0886  0.1194
    1AU     LIG  198   6.437   2.026   4.642 -0.1725 -0.1895 -0.2598
    1AU    AUSL  199   5.293   0.603   5.782  0.0769 -0.0247 -0.0366
    1AU    AUSL  200   5.408   0.138   5.766  0.0488  0.0063  0.0280
    1AU     AUL  201   5.109   0.281   5.627 -0.0258 -0.1140 -0.0456
    1AU       S  202   5.281   0.685   5.461  0.0096 -0.0652  0.1427
    1AU     LIG  203   4.854   0.820   5.316  0.1421 -0.4146 -0.1106
    1AU     LIG  204   4.489   1.129   5.283  0.1179 -0.3001  0.0444
    1AU     LIG  205   4.061   1.106   5.557 -0.4734 -0.2987 -0.0369
    1AU     LIG  206   3.919   1.108   5.887 -0.0304 -0.1993  0.1648
    1AU       S  207   5.098  -0.184   5.671 -0.0124 -0.0395  0.1755
    1AU     LIG  208   5.088  -0.645   5.652  0.3421 -0.1794 -0.3075
    1AU     LIG  209   5.064  -0.960   5.623 -0.0790  0.2748  0.2046
    1AU     LIG  210   5.087  -1.403   5.485  0.1026  0.3628  0.0201
    1AU     LIG  211   5.460  -1.514   5.183 -0.1735  0.1068 -0.1683
    1AU    AUSL  212   5.700   0.425   5.827 -0.0046  0.0623 -0.0896
    1AU    AUSL  213   6.037   0.765   5.870 -0.0094 -0.0450  0.0185
    1AU     AUL  214   5.913   0.661   5.562 -0.0708 -0.0037  0.0647
    1AU       S  215   6.306   0.711   5.306 -0.0885  0.2269  0.2035
    1AU     LIG  216   6.339   1.029   5.050  0.2522 -0.0013  0.1800
    1AU     LIG  217   6.358   1.503   5.285 -0.2815  0.1210  0.1680
    1AU     LIG  218   6.351   1.760   5.566 -0.0978 -0.2194 -0.0444
    1AU     LIG  219   5.999   2.029   5.786 -0.4115  0.0159  0.1542
    1AU       S  220   5.525   0.478   5.410 -0.3911 -0.0620  0.0920
    1AU     LIG  221   5.382   0.726   4.949 -0.2274  0.2514 -0.1082
    1AU     LIG  222   5.116   0.528   4.818 -0.0975 -0.1734 -0.0601
    1AU     LIG  223   4.660   0.600   4.946 -0.1854 -0.0661 -0.3433
    1AU     LIG  224   4.272   0.810   4.965 -0.2274  0.0399  0.1177
    1AU    AUSL  225   6.492   1.005   6.964  0.0373 -0.0554 -0.0070
    1AU    AUSL  226   6.654   0.587   6.824 -0.0352 -0.0028  0.0742
    1AU     AUL  227   6.815   0.934   6.984  0.0052 -0.0116  0.0538
    1AU       S  228   6.990   0.560   6.810  0.0281  0.1961  0.3660
    1AU     LIG  229   7.337   0.248   6.814 -0.2787  0.1879  0.4832
    1AU     LIG  230   7.405  -0.175   6.896 -0.0030  0.1809 -0.1372
    1AU     LIG  231   7.570  -0.532   6.919 -0.0960  0.3391  0.2173
    1AU     LIG  232   7.530  -0.902   6.703 -0.2706  0.1687  0.2097
    1AU       S  233   6.618   1.328   6.849  0.1242 -0.6337  0.0245
    1AU     LIG  234   7.054   1.539   6.839  0.1706 -0.0719 -0.1043
    1AU     LIG  235   7.486   1.758   6.809  0.0408  0.0217  0.0454
    1AU     LIG  236   7.897   1.923   6.794 -0.3337 -0.1828 -0.2368
    1AU     LIG  237   8.147   2.059   6.557 -0.1060  0.1498  0.3724
    1AU    AUSL  238   6.149   0.776   7.172  0.0671 -0.0660  0.0250
    1AU    AUSL  239   6.166   1.279   7.001 -0.0943 -0.0500 -0.0824
    1AU     AUL  240   6.300   1.131   7.280  0.0516  0.0197 -0.0111
    1AU       S  241   6.009   0.880   7.703 -0.0723 -0.0017 -0.3344
    1AU     LIG  242   6.193   1.048   7.981 -0.2890  0.2750  0.0764
    1AU     LIG  243   6.452   1.348   7.883  0.0999 -0.0491 -0.3179
    1AU     LIG  244   6.534   1.616   7.594 -0.1028 -0.0727 -0.1034
    1AU     LIG  245   6.818   1.695   7.388 -0.0558  0.5511  0.1567
    1AU       S  246   6.219   1.593   7.189  0.0732  0.3571 -0.0837
    1AU     LIG  247   6.545   1.834   6.976 -0.0404  0.1859  0.1630
    1AU     LIG  248   6.563   1.987   6.606 -0.2024  0.0791  0.0655
    1AU     LIG  249   6.612   2.342   6.435  0.1580  0.1906  0.0132
    1AU     LIG  250   6.719   2.691   6.336 -0.0309 -0.2220 -0.3573
    1AU    AUSL  251   6.561   0.639   7.231 -0.0140 -0.0089 -0.0344
    1AU    AUSL  252   6.174   0.504   7.500 -0.0523 -0.0596 -0.0544
    1AU     AUL  253   6.439   0.768   7.512 -0.0342  0.0077  0.0042
    1AU       S  254   6.476   0.288   7.606  0.1440  0.4429 -0.1025
    1AU     LIG  255   6.820   0.385   7.827  0.1908  0.2067 -0.1302
    1AU     LIG  256   6.964   0.756   7.844 -0.2390 -0.3254 -0.1694
    1AU     LIG  257   7.224   1.089   7.681 -0.2698 -0.0496  0.1325
    1AU     LIG  258   7.224   1.400   7.331 -0.0124 -0.0559 -0.1238
    1AU       S  259   6.817   0.568   7.320 -0.2658  0.4167  0.1139
    1AU     LIG  260   7.235   0.562   7.319 -0.3769 -0.1669 -0.1913
    1AU     LIG  261   7.449   0.979   7.205  0.0317 -0.2838 -0.0627
    1AU     LIG  262   7.669   1.223   6.831  0.0720  0.4019  0.1406
    1AU     LIG  263   7.880   1.466   6.624  0.2678  0.0306 -0.0486
    1AU    AUSL  264   5.254  -0.052   6.151  0.1018 -0.0732 -0.0374
    1AU    AUSL  265   5.698  -0.021   6.044  0.0583 -0.0894 -0.0362
    1AU     AUL  266   5.525  -0.136   5.799  0.0350  0.0077  0.0061
    1AU       S  267   5.117  -0.196   6.044 -0.0321  0.5195  0.1704
    1AU     LIG  268   4.956  -0.558   6.118  0.0135  0.2241 -0.1528
    1AU     LIG  269   4.687  -0.886   5.917  0.0326 -0.1579  0.2288
    1AU     LIG  270   4.525  -1.303   5.942  0.5376 -0.0902 -0.2247
    1AU     LIG  271   4.905  -1.646   5.868  0.0944 -0.1847  0.2916
    1AU       S  272   5.574  -0.550   5.987  0.2545 -0.0471  0.0683
    1AU     LIG  273   5.544  -0.799   5.503  0.0152 -0.2908 -0.1462
    1AU     LIG  274   5.281  -1.064   5.200 -0.0759 -0.2047 -0.2943
    1AU     LIG  275   5.370  -0.919   4.868  0.0251  0.1436 -0.0013
    1AU     LIG  276   5.309  -0.509   4.656 -0.2065 -0.1382  0.3071
    1AU    AUSL  277   5.293   0.377   6.134  0.0355 -0.1256 -0.0033
    1AU    AUSL  278   4.962   0.163   6.407 -0.0618 -0.0668 -0.0291
    1AU     AUL  279   4.982   0.265   6.055 -0.0520 -0.0064 -0.0814
    1AU       S  280   4.903  -0.119   5.843 -0.1517 -0.1999 -0.2044
    1AU     LIG  281   4.567  -0.285   6.211 -0.1298  0.1005 -0.1313
    1AU     LIG  282   4.408  -0.207   6.618  0.1173  0.0367 -0.0553
    1AU     LIG  283   3.984  -0.208   6.745  0.3594  0.1259 -0.1583
    1AU     LIG  284   3.525  -0.323   7.077  0.0274  0.2351  0.2287
    1AU       S  285   4.605   0.183   6.404 -0.2185 -0.3390  0.0269
    1AU     LIG  286   4.149   0.227   6.481 -0.1891 -0.3276 -0.0461
    1AU     LIG  287   3.644   0.351   6.602  0.0485 -0.3028  0.2739
    1AU     LIG  288   3.344   0.635   6.769  0.3939  0.1130  0.0444
    1AU     LIG  289   3.106   0.509   7.198 -0.1407 -0.0138  0.0871
    1AU    AUSL  290   6.040   0.098   7.383 -0.0161  0.0327  0.0019
    1AU    AUSL  291   5.779   0.492   7.310 -0.0484  0.0154 -0.0134
    1AU     AUL  292   5.965   0.299   7.655  0.0741  0.0758  0.0812
    1AU       S  293   5.550   0.474   7.684  0.2690 -0.4105  0.0023
    1AU     LIG  294   5.485   0.811   7.938 -0.3564 -0.2973  0.1496
    1AU     LIG  295   5.410   1.084   8.327 -0.0791 -0.0751  0.0121
    1AU     LIG  296   5.271   1.194   8.751  0.1936  0.2543  0.3437
    1AU     LIG  297   5.091   1.325   9.198 -0.0621  0.1026 -0.1191
    1AU       S  298   6.383   0.118   7.605  0.4650 -0.0823 -0.1324
    1AU     LIG  299   6.515  -0.154   7.829 -0.1295  0.0385  0.0352
    1AU     LIG  300   6.827  -0.490   7.735  0.1402  0.2546 -0.1262
    1AU     LIG  301   6.813  -0.822   7.381 -0.2218 -0.3491  0.1777
    1AU     LIG  302   6.816  -1.209   7.248 -0.0498 -0.1153  0.1668
    1AU    AUSL  303   6.323   0.318   7.116  0.0669 -0.0999  0.0803
    1AU    AUSL  304   6.092  -0.041   6.966 -0.0167  0.0624  0.1119
    1AU     AUL  305   6.240  -0.123   7.268  0.0485 -0.0633 -0.0576
    1AU       S  306   6.450  -0.528   7.131  0.2979 -0.0871 -0.2872
    1AU     LIG  307   6.285  -0.971   7.131  0.0482 -0.1068 -0.0769
    1AU     LIG  308   5.993  -1.225   7.416  0.2404  0.0874 -0.3243
    1AU     LIG  309   5.554  -1.298   7.334  0.3957  0.0322 -0.0435
    1AU     LIG  310   5.162  -1.199   7.591  0.2532  0.6207  0.1956
    1AU       S  311   6.544   0.177   7.400 -0.0869 -0.1585 -0.0817
    1AU     LIG  312   6.949  -0.033   7.520 -0.0370 -0.1740  0.5086
    1AU     LIG  313   7.347   0.032   7.324 -0.2735 -0.5147 -0.0856
    1AU     LIG  314   7.713   0.323   7.140  0.2992 -0.0761  0.0536
    1AU     LIG  315   7.975   0.620   7.334 -0.0808 -0.5236  0.2171
    1AU    AUSL  316   6.420   0.861   6.138 -0.0111 -0.0413  0.0058
    1AU    AUSL  317   6.567   0.948   6.560 -0.0391  0.0477  0.0316
    1AU     AUL  318   6.728   0.801   6.157 -0.0539  0.0090 -0.0145
    1AU       S  319   6.896   1.055   6.538  0.1224 -0.1913 -0.1279
    1AU     LIG  320   7.283   1.266   6.477  0.0640  0.0801 -0.0222
    1AU     LIG  321   7.458   1.585   6.270 -0.2258  0.0004  0.0039
    1AU     LIG  322   7.569   1.979   6.298  0.2161 -0.2046  0.0686
    1AU     LIG  323   7.664   2.304   6.565  0.3238 -0.0133 -0.0709
    1AU       S  324   6.667   1.222   5.948 -0.1074  0.3358  0.0876
    1AU     LIG  325   7.123   1.295   6.016  0.1569 -0.4953 -0.1310
    1AU     LIG  326   7.531   0.971   6.159  0.0670 -0.1623 -0.0630
    1AU     LIG  327   7.838   1.005   6.278 -0.2779  0.0246 -0.1482
    1AU     LIG  328   8.238   1.112   6.120  0.0694 -0.6350  0.0366
    1AU    AUSL  329   6.391   1.268   6.340  0.0247  0.0899  0.0102
    1AU    AUSL  330   5.978   1.417   6.256  0.0453  0.0228  0.1171
    1AU     AUL  331   6.289   1.589   6.156 -0.0593  0.0373 -0.1103
    1AU       S  332   6.659   1.298   6.195 -0.1481 -0.4268 -0.4830
    1AU     LIG  333   6.968   1.657   6.333 -0.0086 -0.2049  0.1781
    1AU     LIG  334   7.096   2.100   6.551  0.3187 -0.1065  0.3002
    1AU     LIG  335   7.050   1.997   6.993 -0.1471  0.2543  0.2847
    1AU     LIG  336   7.117   2.154   7.357 -0.4084  0.3813  0.2080
    1AU       S  337   6.061   1.761   6.519 -0.2209  0.2107 -0.4869
    1AU     LIG  338   6.050   2.162   6.303  0.0108  0.2292  0.2289
    1AU     LIG  339   6.214   2.578   6.377 -0.2120 -0.0571  0.4574
    1AU     LIG  340   6.433   2.845   6.682  0.0721  0.0500  0.0248
    1AU     LIG  341   6.750   2.930   6.984  0.3629 -0.3452  0.0178
    1AU    AUSL  342   6.172   1.169   5.950  0.1107 -0.0555  0.0301
    1AU    AUSL  343   6.439   0.581   5.810 -0.0287  0.0506 -0.0022
    1AU     AUL  344   6.364   0.896   5.735 -0.0366 -0.0029 -0.0531
    1AU       S  345   6.542   0.490   5.445  0.0254 -0.2243 -0.3730
    1AU     LIG  346   6.933   0.357   5.374  0.1399 -0.0726 -0.0675
    1AU     LIG  347   7.172   0.582   5.416  0.1579  0.1159 -0.1744
    1AU     LIG  348   7.462   0.991   5.560  0.2108  0.0022  0.1208
    1AU     LIG  349   7.302   1.377   5.446 -0.0198 -0.1186  0.1236
    1AU       S  350   6.399   1.320   5.808 -0.4067 -0.3113 -0.1581
    1AU     LIG  351   6.774   1.292   5.443  0.1159 -0.0293  0.1927
    1AU     LIG  352   6.908   1.416   5.026 -0.1365 -0.2671 -0.0325
    1AU     LIG  353   7.056   1.287   4.670  0.1355 -0.5917  0.2023
    1AU     LIG  354   7.162   1.586   4.298 -0.2571 -0.2694 -0.2056
    1AU    AUSL  355   5.886  -0.267   6.661  0.0018 -0.0428  0.0323
    1AU    AUSL  356   5.547  -0.281   6.365 -0.0076 -0.0011 -0.0683
    1AU     AUL  357   5.899  -0.545   6.487 -0.0406  0.0291 -0.0341
    1AU       S  358   5.755  -0.793   6.863 -0.3659 -0.0232 -0.1382
    1AU     LIG  359   5.889  -1.232   6.941  0.0994 -0.1219  0.1299
    1AU     LIG  360   5.741  -1.589   6.939  0.1442  0.1119  0.0677
    1AU     LIG  361   5.597  -1.737   6.552  0.1543  0.1486  0.1362
    1AU     LIG  362   5.832  -1.755   6.147  0.3118 -0.3150 -0.1515
    1AU       S  363   5.442  -0.567   6.232 -0.1453  0.1200  0.1487
    1AU     LIG  364   5.293  -0.995   6.048 -0.1277 -0.2846  0.0558
    1AU     LIG  365   4.965  -1.211   6.119  0.1023 -0.1772  0.0177
    1AU     LIG  366   4.643  -1.546   6.354  0.1021  0.0385 -0.0477
    1AU     LIG  367   4.734  -1.970   6.304 -0.0586  0.1984  0.1875
    1AU    AUSL  368   5.790  -0.300   7.099  0.1344  0.0134 -0.0569
    1AU    AUSL  369   6.321  -0.347   6.656 -0.0238 -0.0189 -0.0651
    1AU     AUL  370   6.056  -0.439   6.912 -0.0253 -0.0172 -0.0192
    1AU       S  371   5.659  -0.704   7.067  0.0582  0.3784  0.1839
    1AU     LIG  372   5.371  -1.014   7.033 -0.3096  0.0177 -0.1103
    1AU     LIG  373   5.007  -1.263   7.062 -0.4640 -0.2373  0.2393
    1AU     LIG  374   4.764  -1.445   6.903  0.2058  0.0436  0.0264
    1AU     LIG  375   4.535  -1.789   6.796  0.2000  0.0779 -0.1078
    1AU       S  376   6.589  -0.522   6.868  0.4394  0.0924 -0.0630
    1AU     LIG  377   6.611  -1.034   6.776 -0.3452 -0.4117 -0.0413
    1AU     LIG  378   6.220  -1.043   6.545  0.1416  0.4677 -0.1811
    1AU     LIG  379   5.724  -1.128   6.417 -0.0902 -0.1967 -0.3456
    1AU     LIG  380   5.323  -1.233   6.506 -0.3024 -0.1506 -0.1375
    1AU    AUSL  381   5.480  -0.355   6.777 -0.0056  0.0322  0.1090
    1AU    AUSL  382   5.509   0.026   6.987 -0.0835  0.0213  0.0414
    1AU     AUL  383   5.457  -0.308   7.138 -0.0701  0.0295 -0.0431
    1AU       S  384   5.037  -0.358   6.986 -0.3900 -0.3215  0.0321
    1AU     LIG  385   4.908  -0.787   7.094  0.0104  0.0384  0.3422
    1AU     LIG  386   4.501  -1.035   6.935  0.1343  0.0815 -0.0333
    1AU     LIG  387   4.276  -1.326   6.670 -0.1403 -0.4145 -0.1341
    1AU     LIG  388   4.134  -1.320   6.252  0.0523  0.2648 -0.2464
    1AU       S  389   5.490  -0.581   6.768  0.0659  0.1097 -0.0979
    1AU     LIG  390   5.127  -0.790   6.519  0.1001  0.3199  0.0700
    1AU     LIG  391   4.895  -1.045   6.600 -0.2931 -0.3875 -0.2046
    1AU     LIG  392   4.553  -1.008   6.376 -0.1195  0.1393 -0.1102
    1AU     LIG  393   4.296  -0.757   6.177 -0.0266  0.1350 -0.2230
    1AU    AUSL  394   5.702   1.411   6.598 -0.0142 -0.0540  0.1339
    1AU    AUSL  395   5.730   1.142   6.058 -0.0307  0.0428  0.0193
    1AU     AUL  396   5.661   1.543   6.278  0.0450 -0.0603  0.0191
    1AU       S  397   5.890   1.791   6.636 -0.0745 -0.0724 -0.1673
    1AU     LIG  398   5.562   2.054   6.741 -0.2045  0.3118  0.0199
    1AU     LIG  399   5.211   2.239   6.653  0.2361  0.0385 -0.0366
    1AU     LIG  400   4.962   2.403   6.856  0.0474 -0.2543 -0.1699
    1AU     LIG  401   4.635   2.623   6.651 -0.0540  0.0481  0.2973
    1AU       S  402   5.682   1.421   5.816 -0.0006 -0.2147  0.0025
    1AU     LIG  403   5.763   1.612   5.451  0.0926 -0.2378  0.1418
    1AU     LIG  404   5.931   1.965   5.329 -0.3412  0.1789  0.2076
    1AU     LIG  405   6.340   2.006   5.172 -0.4038 -0.4722 -0.2239
    1AU     LIG  406   6.662   1.874   5.061  0.0068 -0.1370  0.4953
    1AU    AUSL  407   6.085   1.194   6.596  0.0065  0.1151 -0.0479
    1AU    AUSL  408   5.768   1.121   6.904  0.0029  0.0215  0.0244
    1AU     AUL  409   5.846   1.434   6.906 -0.1016 -0.0076  0.0213
    1AU       S  410   6.208   1.633   6.647 -0.0299  0.1438 -0.3019
    1AU     LIG  411   6.145   2.102   6.869 -0.0385  0.1952  0.1368
    1AU     LIG  412   6.435   2.385   6.910 -0.0691 -0.0247 -0.1185
    1AU     LIG  413   6.897   2.449   6.824 -0.5122 -0.2232  0.2134
    1AU     LIG  414   7.340   2.413   6.914  0.1574 -0.1327  0.1974
    1AU       S  415   5.932   1.563   7.373 -0.0035 -0.0610  0.4737
    1AU     LIG  416   6.082   1.926   7.551 -0.4132 -0.0025  0.0652
    1AU     LIG  417   6.103   2.360   7.352  0.0615 -0.0272  0.0043
    1AU     LIG  418   6.282   2.757   7.323 -0.2310  0.2256  0.2827
    1AU     LIG  419   6.208   3.127   7.152 -0.1689  0.3206  0.1340
    1AU    AUSL  420   5.078   0.124   7.041  0.0429 -0.1065 -0.0127
    1AU    AUSL  421   5.608   0.082   7.397 -0.0906  0.0295  0.0483
    1AU     AUL  422   5.241   0.079   7.294 -0.0192  0.0800  0.0842
    1AU       S  423   5.503   0.163   7.645  0.1637  0.0642  0.1606
    1AU     LIG  424   5.189   0.115   8.036 -0.0172 -0.0700 -0.1311
    1AU     LIG  425   4.985   0.196   8.375  0.0463  0.0366  0.1971
    1AU     LIG  426   4.805   0.732   8.425 -0.1240  0.2388  0.3725
    1AU     LIG  427   4.430   0.936   8.578  0.2508  0.1202  0.0385
    1AU       S  428   4.944  -0.238   7.078  0.4203  0.2913 -0.0860
    1AU     LIG  429   4.474  -0.387   7.067  0.0351  0.0741 -0.5101
    1AU     LIG  430   4.013  -0.545   7.252 -0.0925  0.0161 -0.1562
    1AU     LIG  431   3.724  -0.649   7.544 -0.0019  0.1362  0.0043
    1AU     LIG  432   3.570  -0.961   7.701  0.2406 -0.3679  0.1972
    1AU    AUSL  433   5.239  -0.029   6.661  0.0989 -0.0556 -0.1017
    1AU    AUSL  434   5.118   0.426   6.725  0.0308 -0.0847  0.0146
    1AU     AUL  435   4.879   0.134   6.773 -0.0264  0.0347  0.0130
    1AU       S  436   5.016  -0.311   6.751  0.1142  0.1574  0.3044
    1AU     LIG  437   4.672  -0.621   6.675 -0.1472  0.2994  0.0718
    1AU     LIG  438   4.190  -0.692   6.703  0.1838  0.2403 -0.2291
    1AU     LIG  439   3.855  -0.989   6.604 -0.2181  0.0605  0.0926
    1AU     LIG  440   3.382  -1.020   6.695  0.3926  0.0280  0.0345
    1AU       S  441   4.581   0.447   6.620 -0.1634 -0.0358 -0.1147
    1AU     LIG  442   4.294   0.715   6.886  0.0009  0.2068  0.3144
    1AU     LIG  443   3.866   0.833   6.925 -0.1800 -0.0441 -0.0010
    1AU     LIG  444   3.525   1.066   6.958  0.1142  0.5525 -0.2041
    1AU     LIG  445   3.067   0.986   7.112  0.2111  0.4663 -0.0027
    2POPC   NC3  446   6.441   7.483   8.563  0.0471 -0.0774 -0.0627
    2POPC   PO4  447   6.093   7.486   8.491 -0.2216  0.0686 -0.1848
    2POPC   GL1  448   6.100   7.712   8.043  0.4809  0.3092  0.3158
    2POPC   GL2  449   6.091   7.629   7.653 -0.0626 -0.1038  0.3850
    2POPC   C1A  450   6.054   8.073   7.902 -0.1274 -0.1996  0.1864
    2POPC   D2A  451   5.750   8.347   7.783  0.1029 -0.1683 -0.2658
    2POPC   C3A  452   5.364   8.648   8.020 -0.2025 -0.0962  0.0899
    2POPC   C4A  453   5.234   9.027   8.006 -0.2113 -0.2433 -0.1868
    2POPC   C1B  454   6.527   7.620   7.450  0.0455 -0.3048  0.0397
    2POPC   C2B  455   6.674   7.937   7.230 -0.1157 -0.1611  0.1693
    2POPC   C3B  456   6.874   8.189   7.467  0.2808  0.2945 -0.1497
    2POPC   C4B  457   7.274   8.450   7.641  0.0062  0.0545  0.0107
    3POPC   NC3  458   0.868   2.866   8.373 -0.2705 -0.1179 -0.0381
    3POPC   PO4  459   1.202   2.593   8.499  0.1684 -0.3377 -0.2060
    3POPC   GL1  460   1.174   2.587   8.077 -0.3944  0.5319  0.2670
    3POPC   GL2  461   1.327   2.832   7.850 -0.3635  0.2641  0.0578
    3POPC   C1A  462   0.957   2.372   7.766 -0.0024  0.2659 -0.0731
    3POPC   D2A  463   0.743   2.290   7.359 -0.0365  0.0825 -0.3769
    3POPC   C3A  464   0.565   2.236   6.953 -0.1399  0.0820 -0.0767
    3POPC   C4A  465   0.153   2.075   6.879  0.1364  0.2646 -0.0906
    3POPC   C1B  466   1.425   2.900   7.452 -0.1452 -0.1873 -0.2631
    3POPC   C2B  467   1.172   2.630   7.165 -0.2419  0.0141  0.3397
    3POPC   C3B  468   0.789   2.962   7.171  0.2315  0.0769 -0.5053
    3POPC   C4B  469   0.520   3.148   6.867 -0.1818  0.0271  0.2810
    4POPC   NC3  470   2.837   4.886   8.398  0.0190  0.1639 -0.2205
    4POPC   PO4  471   2.390   4.874   8.664  0.0553 -0.2584 -0.2565
    4POPC   GL1  472   2.212   4.796   8.250 -0.1667  0.2448  0.2024
    4POPC   GL2  473   2.178   4.467   8.033 -0.2065 -0.0003  0.1916
    4POPC   C1A  474   2.031   4.814   7.746 -0.3285 -0.1770  0.0429
    4POPC   D2A  475   1.970   4.633   7.365 -0.1112  0.3688  0.2545
    4POPC   C3A  476   1.526   4.579   7.221 -0.2839  0.0985 -0.1132
    4POPC   C4A  477   1.111   4.501   7.045 -0.0483 -0.1704  0.0128
    4POPC   C1B  478   2.349   4.372   7.681  0.0044  0.0705 -0.1909
    4POPC   C2B  479   2.379   4.054   7.276 -0.0658 -0.0624  0.0658
    4POPC   C3B  480   2.423   3.879   6.854  0.0782  0.0088  0.3357
    4POPC   C4B  481   2.345   3.499   6.690 -0.0058  0.1321  0.1555
    5POPC   NC3  482   1.611   4.209   8.844  0.1206  0.1641 -0.0891
    5POPC   PO4  483   1.499   4.002   8.392  0.2101 -0.1692  0.3370
    5POPC   GL1  484   1.555   3.918   8.004 -0.3989  0.2655  0.0870
    5POPC   GL2  485   1.923   4.064   7.795 -0.0517 -0.0404  0.2841
    5POPC   C1A  486   1.659   3.690   7.566  0.4511 -0.2057 -0.3236
    5POPC   D2A  487   1.434   3.511   7.247 -0.0470 -0.1468  0.1273
    5POPC   C3A  488   1.293   3.666   6.828  0.1375 -0.1601  0.0717
    5POPC   C4A  489   1.307   3.510   6.344 -0.1981 -0.0217 -0.2196
    5POPC   C1B  490   1.872   4.145   7.358  0.1647 -0.0170  0.1254
    5POPC   C2B  491   2.060   4.270   6.977 -0.2882 -0.1038  0.0442
    5POPC   C3B  492   2.312   4.285   6.521  0.3140  0.1844  0.1649
    5POPC   C4B  493   2.208   4.092   6.132  0.0282 -0.1264 -0.4026
    6POPC   NC3  494   8.581   6.633   8.691  0.1240  0.3341  0.2012
    6POPC   PO4  495   8.811   6.180   8.586  0.1126 -0.0240  0.1432
    6POPC   GL1  496   8.883   6.279   8.137 -0.1070  0.2388 -0.1348
    6POPC   GL2  497   8.704   6.619   8.013 -0.2518 -0.1321  0.1916
    6POPC   C1A  498   8.816   6.229   7.648  0.2475 -0.0331 -0.1720
    6POPC   D2A  499   8.654   6.267   7.269  0.1559 -0.2358 -0.3035
    6POPC   C3A  500   8.528   5.975   7.077  0.0825  0.0140 -0.0936
    6POPC   C4A  501   8.576   5.830   6.701  0.0529  0.1785 -0.1068
    6POPC   C1B  502   8.382   6.506   7.746  0.1978  0.1669  0.2984
    6POPC   C2B  503   8.244   6.170   7.478 -0.0741  0.1853  0.1171
    6POPC   C3B  504   7.948   6.034   7.296 -0.0016 -0.3648  0.0242
    6POPC   C4B  505   8.080   6.141   6.842 -0.2904  0.0712 -0.2778
    7POPC   NC3  506   7.367   6.512   8.539 -0.1006  0.0600  0.5519
    7POPC   PO4  507   7.700   6.336   8.607  0.4328 -0.1124  0.1353
    7POPC   GL1  508   7.821   6.151   8.266 -0.3710  0.0685 -0.4599
    7POPC   GL2  509   7.851   6.457   8.094  0.0071 -0.1178  0.2043
    7POPC   C1A  510   7.937   5.889   7.857  0.0754  0.3410  0.0859
    7POPC   D2A  511   8.019   5.615   7.513  0.0197  0.2097 -0.2453
    7POPC   C3A  512   7.755   5.635   7.103 -0.2862 -0.0229 -0.1624
    7POPC   C4A  513   7.463   5.887   6.860 -0.2254 -0.0278  0.1474
    7POPC   C1B  514   7.699   6.307   7.753 -0.0415 -0.0529  0.0700
    7POPC   C2B  515   7.575   6.409   7.275  0.0122  0.4371 -0.1157
    7POPC   C3B  516   7.628   6.469   6.867  0.0974 -0.2517 -0.0802
    7POPC   C4B  517   7.921   6.484   6.517  0.1216 -0.2088 -0.0529
    8POPC   NC3  518   9.328   6.224   8.471 -0.1073 -0.0740 -0.1804
    8POPC   PO4  519   9.108   5.854   8.186  0.0280 -0.0786  0.0849
    8POPC   GL1  520   8.750   5.603   8.077  0.0004  0.1491 -0.0771
    8POPC   GL2  521   8.453   5.843   8.226  0.2428  0.2492 -0.1016
    8POPC   C1A  522   8.504   5.334   8.011  0.1340 -0.2243 -0.2361
    8POPC   D2A  523   8.279   5.144   7.651 -0.0928  0.1453 -0.1007
    8POPC   C3A  524   8.476   4.782   7.572 -0.0359  0.1907  0.0868
    8POPC   C4A  525   8.502   4.479   7.868 -0.1436  0.1108  0.2282
    8POPC   C1B  526   8.500   5.968   7.891 -0.0169 -0.0950  0.0870
    8POPC   C2B  527   8.615   5.715   7.557 -0.1202  0.2912  0.0282
    8POPC   C3B  528   8.413   5.440   7.186  0.3824 -0.0002 -0.0012
    8POPC   C4B  529   8.506   5.139   6.982 -0.2760 -0.0724  0.1623
    9POPC   NC3  530   8.237   8.840   8.765  0.1293  0.1618 -0.0977
    9POPC   PO4  531   8.452   8.474   8.693 -0.0056 -0.3472  0.0960
    9POPC   GL1  532   8.512   8.684   8.362  0.2757  0.1046 -0.2289
    9POPC   GL2  533   8.643   8.888   8.224 -0.0421  0.3029  0.3954
    9POPC   C1A  534   8.214   8.816   8.037 -0.0914  0.0603 -0.0965
    9POPC   D2A  535   7.940   8.874   7.712 -0.4472 -0.2203  0.1566
    9POPC   C3A  536   7.508   8.821   7.876  0.0614 -0.2297 -0.0765
    9POPC   C4A  537   7.358   8.513   8.172  0.0483  0.3832  0.0260
    9POPC   C1B  538   8.831   9.115   7.915 -0.1578  0.0913  0.1330
    9POPC   C2B  539   8.778   9.229   7.547 -0.0037 -0.0458 -0.0944
    9POPC   C3B  540   8.817   9.406   7.116 -0.2569  0.3616 -0.0102
    9POPC   C4B  541   8.937   9.875   7.040 -0.1357  0.0790 -0.0459
   10POPC   NC3  542   9.787   8.412   8.530  0.1782 -0.0186 -0.3441
   10POPC   PO4  543  10.230   8.320   8.354  0.0275 -0.2950 -0.0362
   10POPC   GL1  544  10.087   8.133   8.018  0.0298 -0.2134 -0.2781
   10POPC   GL2  545  10.182   7.773   7.988 -0.2170 -0.1442 -0.3003
   10POPC   C1A  546   9.762   8.004   7.877  0.4137  0.1049 -0.1312
   10POPC   D2A  547   9.300   7.813   7.853 -0.0303 -0.0736 -0.0455
   10POPC   C3A  548   9.135   7.758   7.450  0.2657 -0.3207  0.0516
   10POPC   C4A  549   9.360   7.932   7.153  0.0659  0.1128 -0.0536
   10POPC   C1B  550  10.275   7.560   7.552  0.1192  0.0476  0.1108
   10POPC   C2B  551  10.375   7.761   7.265 -0.0971 -0.1853  0.1213
   10POPC   C3B  552  10.703   8.088   7.075  0.1022  0.2265  0.2518
   10POPC   C4B  553  10.909   8.420   6.870 -0.1629 -0.1601 -0.3375
   11POPC   NC3  554   6.154   4.213   8.421  0.2659  0.0294 -0.0857
   11POPC   PO4  555   6.293   3.857   8.663 -0.2284  0.0516  0.0698
   11POPC   GL1  556   6.391   3.452   8.304  0.1408 -0.0501  0.2320
   11POPC   GL2  557   6.536   3.335   8.494  0.2595  0.1083  0.1851
   11POPC   C1A  558   6.480   3.281   7.871 -0.1361  0.2644 -0.4003
   11POPC   D2A  559   6.413   2.866   7.755  0.2364  0.1360  0.0583
   11POPC   C3A  560   6.023   2.585   7.833 -0.0259  0.1673  0.0798
   11POPC   C4A  561   5.986   2.171   8.001  0.1061  0.2465  0.0400
   11POPC   C1B  562   6.985   3.402   8.357  0.0256 -0.0588 -0.2358
   11POPC   C2B  563   7.311   3.469   8.047  0.0441 -0.0884 -0.0325
   11POPC   C3B  564   7.176   3.518   7.621  0.1475  0.2717  0.3073
   11POPC   C4B  565   7.103   3.331   7.234  0.1535 -0.0766  0.1281
   12POPC   NC3  566   5.140   2.018   9.551 -0.0532 -0.2927  0.0958
   12POPC   PO4  567   5.390   2.162   9.727 -0.3008 -0.2346  0.1887
   12POPC   GL1  568   5.563   2.100   9.275 -0.2425 -0.0028  0.0418
   12POPC   GL2  569   5.489   1.767   9.278 -0.3468  0.0038 -0.0031
   12POPC   C1A  570   5.560   2.396   8.975 -0.0796 -0.0304  0.0713
   12POPC   D2A  571   5.687   2.389   8.467  0.1886  0.1886  0.1271
   12POPC   C3A  572   5.643   1.901   8.198 -0.0210  0.1736 -0.1309
   12POPC   C4A  573   5.654   1.819   7.713 -0.0335 -0.2787  0.1023
   12POPC   C1B  574   5.404   1.727   8.899 -0.1697  0.0665  0.0594
   12POPC   C2B  575   5.329   2.008   8.693  0.0785  0.2061  0.0854
   12POPC   C3B  576   5.242   2.155   8.280  0.0459 -0.2877 -0.2585
   12POPC   C4B  577   5.141   1.855   7.930 -0.2008 -0.0926  0.0939
   13POPC   NC3  578   9.576   4.694   8.389  0.2531  0.0153  0.1614
   13POPC   PO4  579   9.488   4.259   8.546 -0.3336  0.0540  0.2006
   13POPC   GL1  580   9.217   4.149   8.225 -0.0377 -0.1023 -0.2951
   13POPC   GL2  581   9.385   4.114   7.939  0.0105  0.2225  0.2237
   13POPC   C1A  582   8.911   4.165   7.857  0.1412  0.0958  0.1997
   13POPC   D2A  583   8.698   4.260   7.413  0.0381  0.1232  0.1289
   13POPC   C3A  584   8.393   4.148   7.089 -0.0194 -0.0004 -0.0153
   13POPC   C4A  585   8.110   3.871   6.823  0.2703  0.0457 -0.2173
   13POPC   C1B  586   9.478   3.957   7.503 -0.1837 -0.0070  0.1372
   13POPC   C2B  587   9.528   4.017   7.082  0.2212 -0.0761  0.3117
   13POPC   C3B  588   9.609   4.405   6.899  0.2566 -0.0122  0.0648
   13POPC   C4B  589   9.689   4.682   6.611  0.1457  0.2084 -0.1551
   14POPC   NC3  590   5.202   6.593   8.157  0.0810  0.1191  0.0142
   14POPC   PO4  591   5.278   6.753   7.761  0.2092 -0.0258  0.2416
   14POPC   GL1  592   5.578   6.617   7.578  0.0354 -0.2096 -0.1260
   14POPC   GL2  593   5.397   6.398   7.436 -0.2167  0.0334 -0.1363
   14POPC   C1A  594   5.863   6.715   7.335  0.3038  0.0815  0.0363
   14POPC   D2A  595   6.296   6.715   7.321 -0.0702  0.1663 -0.4150
   14POPC   C3A  596   6.338   6.588   7.025  0.1658 -0.1180 -0.2741
   14POPC   C4A  597   6.520   6.482   6.614  0.1864 -0.3758  0.2927
   14POPC   C1B  598   5.363   6.511   7.066 -0.0179 -0.1736 -0.2268
   14POPC   C2B  599   5.189   6.905   6.834 -0.0319 -0.0965  0.0664
   14POPC   C3B  600   5.018   7.319   6.692  0.0915 -0.1922  0.0355
   14POPC   C4B  601   5.149   7.745   6.629  0.0551  0.0123  0.1499
   15POPC   NC3  602   4.319   4.010   8.126  0.1378  0.1333 -0.0971
   15POPC   PO4  603   4.235   3.616   8.311  0.1228 -0.2482  0.1537
   15POPC   GL1  604   4.350   3.438   7.981 -0.1644 -0.1155 -0.3198
   15POPC   GL2  605   4.414   3.631   7.735 -0.1995  0.0388 -0.0793
   15POPC   C1A  606   4.072   3.226   7.681 -0.1900  0.2360 -0.0704
   15POPC   D2A  607   4.145   3.181   7.303  0.1667 -0.1161 -0.2005
   15POPC   C3A  608   4.507   3.270   7.129  0.0922  0.2181 -0.0193
   15POPC   C4A  609   4.576   3.643   6.837  0.0961 -0.0375  0.0250
   15POPC   C1B  610   4.765   3.564   7.596  0.3311  0.0653 -0.1676
   15POPC   C2B  611   4.932   3.519   7.169  0.2482 -0.2113  0.2263
   15POPC   C3B  612   5.188   3.292   6.877 -0.0416  0.1056 -0.0669
   15POPC   C4B  613   5.278   2.878   6.678 -0.0619  0.1008 -0.2165
   16POPC   NC3  614   0.920   1.310   8.276  0.1108 -0.1095  0.1324
   16POPC   PO4  615   0.502   1.489   8.180 -0.1607  0.1338 -0.1314
   16POPC   GL1  616   0.769   1.582   7.883 -0.1937  0.0110  0.1626
   16POPC   GL2  617   0.751   1.941   7.839 -0.0746  0.0820  0.0249
   16POPC   C1A  618   0.829   1.356   7.477 -0.2273  0.0874 -0.5016
   16POPC   D2A  619   0.864   1.190   7.093  0.1185 -0.0894  0.3269
   16POPC   C3A  620   1.079   1.562   6.758  0.2915 -0.0440  0.1265
   16POPC   C4A  621   1.502   1.620   6.831 -0.1890  0.0140 -0.1066
   16POPC   C1B  622   1.019   1.908   7.518  0.0096  0.2442 -0.0804
   16POPC   C2B  623   1.121   2.056   7.070 -0.1467  0.2022  0.0919
   16POPC   C3B  624   1.052   2.303   6.795  0.0437 -0.3183  0.2721
   16POPC   C4B  625   1.258   2.561   6.550 -0.3623  0.3966 -0.0229
   17POPC   NC3  626   1.516   1.851   8.620  0.1181 -0.0455  0.2210
   17POPC   PO4  627   1.367   2.143   8.346  0.0099  0.1742  0.0345
   17POPC   GL1  628   1.385   2.125   7.920  0.1886 -0.0214  0.0824
   17POPC   GL2  629   1.425   1.815   7.713  0.2618 -0.2174  0.0878
   17POPC   C1A  630   1.453   2.418   7.528  0.0468  0.2222  0.1556
   17POPC   D2A  631   1.667   2.542   7.092 -0.0698  0.0598  0.0745
   17POPC   C3A  632   1.984   2.708   7.270 -0.2713 -0.3896 -0.1252
   17POPC   C4A  633   2.227   2.962   7.584 -0.0253  0.1883  0.2069
   17POPC   C1B  634   1.794   1.742   7.608  0.1526 -0.0143  0.0882
   17POPC   C2B  635   2.186   1.740   7.448 -0.1817  0.1425 -0.0708
   17POPC   C3B  636   2.578   1.667   7.153 -0.0188 -0.2233  0.1844
   17POPC   C4B  637   2.798   1.398   6.902 -0.0688 -0.0667  0.0612
   18POPC   NC3  638   2.981   9.546   8.927  0.0715 -0.1324 -0.0749
   18POPC   PO4  639   2.905   9.837   8.521 -0.0584 -0.1590  0.1285
   18POPC   GL1  640   3.091   9.752   8.119 -0.2531  0.0426  0.0062
   18POPC   GL2  641   2.857   9.784   7.949 -0.2329 -0.2375 -0.0376
   18POPC   C1A  642   3.545   9.819   8.036 -0.0001  0.3696  0.3728
   18POPC   D2A  643   3.858  10.126   8.005  0.3137  0.1857  0.2680
   18POPC   C3A  644   3.786  10.362   7.612 -0.0575 -0.0218 -0.1319
   18POPC   C4A  645   3.646  10.459   7.264  0.4556 -0.1264  0.1292
   18POPC   C1B  646   2.924   9.926   7.431  0.0287 -0.0283  0.0870
   18POPC   C2B  647   2.926   9.674   7.095 -0.4556  0.1595  0.1395
   18POPC   C3B  648   2.766   9.414   6.869  0.3747  0.1112 -0.0512
   18POPC   C4B  649   2.882   9.132   6.590  0.0141 -0.0910 -0.0241
   19POPC   NC3  650   1.985   1.271   8.470  0.0040 -0.0177  0.0052
   19POPC   PO4  651   2.039   1.691   8.563 -0.1626  0.2490 -0.3133
   19POPC   GL1  652   2.217   1.724   8.167 -0.0350  0.0533  0.0299
   19POPC   GL2  653   2.167   1.559   7.929  0.0632  0.0991  0.1083
   19POPC   C1A  654   2.166   2.071   7.901 -0.0428 -0.2063  0.0767
   19POPC   D2A  655   1.902   2.221   7.614  0.1258  0.1018 -0.1019
   19POPC   C3A  656   2.105   2.209   7.220  0.0600  0.0538 -0.0137
   19POPC   C4A  657   2.047   2.271   6.777  0.0370 -0.0491 -0.2921
   19POPC   C1B  658   2.378   1.140   7.937 -0.2998 -0.0384  0.0014
   19POPC   C2B  659   2.714   0.936   7.801 -0.1077  0.1866  0.1131
   19POPC   C3B  660   3.026   0.702   7.658 -0.2646  0.0072  0.0306
   19POPC   C4B  661   3.223   0.250   7.834 -0.1303 -0.2521  0.3051
   20POPC   NC3  662   4.451   8.216   9.219 -0.0394 -0.0288 -0.1142
   20POPC   PO4  663   4.839   8.510   9.153  0.3200  0.3021  0.0360
   20POPC   GL1  664   4.865   8.893   8.853  0.3616 -0.0657 -0.2264
   20POPC   GL2  665   4.620   9.095   8.911 -0.0925 -0.2717 -0.0285
   20POPC   C1A  666   4.733   8.768   8.442  0.0595  0.1362 -0.0018
   20POPC   D2A  667   4.872   8.679   8.067 -0.2868 -0.1568 -0.1238
   20POPC   C3A  668   4.844   9.061   7.756  0.0115  0.0539  0.0582
   20POPC   C4A  669   4.867   9.452   7.485  0.1431  0.1431 -0.3097
   20POPC   C1B  670   4.935   9.414   8.730 -0.0528  0.3070 -0.3845
   20POPC   C2B  671   4.715   9.754   8.500  0.0790 -0.1311 -0.4824
   20POPC   C3B  672   4.649   9.809   8.044  0.0300  0.3274  0.0976
   20POPC   C4B  673   4.778  10.035   7.701  0.2867  0.3157 -0.5659
   21POPC   NC3  674   8.792   8.837   8.837  0.2822  0.0769 -0.2039
   21POPC   PO4  675   8.956   8.390   8.754  0.3790 -0.1153  0.1558
   21POPC   GL1  676   8.934   8.372   8.318 -0.1650  0.0042 -0.2071
   21POPC   GL2  677   9.015   8.162   8.180 -0.0917  0.0014 -0.2930
   21POPC   C1A  678   8.953   8.627   7.935 -0.2567 -0.2334 -0.2235
   21POPC   D2A  679   9.070   8.755   7.538 -0.3519 -0.0526  0.0546
   21POPC   C3A  680   9.499   8.801   7.339 -0.0537  0.1922  0.0361
   21POPC   C4A  681   9.943   8.771   7.202 -0.1141  0.1374 -0.0980
   21POPC   C1B  682   8.901   8.151   7.782 -0.2631  0.0812 -0.1392
   21POPC   C2B  683   8.806   8.300   7.411 -0.0660 -0.0204  0.0894
   21POPC   C3B  684   8.699   8.436   6.886 -0.5171  0.0028 -0.1625
   21POPC   C4B  685   8.908   8.451   6.528  0.3341 -0.0890  0.2242
   22POPC   NC3  686   2.586   1.806   8.667 -0.1275  0.0937  0.2231
   22POPC   PO4  687   3.047   1.821   8.763  0.0448 -0.0189  0.0822
   22POPC   GL1  688   3.193   1.870   8.318 -0.1754 -0.1701 -0.1135
   22POPC   GL2  689   3.553   1.988   8.301 -0.0332  0.0920 -0.0038
   22POPC   C1A  690   3.268   1.704   8.012  0.1398 -0.1474 -0.0474
   22POPC   D2A  691   3.435   1.561   7.641 -0.2086  0.0476  0.2289
   22POPC   C3A  692   3.045   1.260   7.489 -0.1811 -0.1784  0.2670
   22POPC   C4A  693   2.684   1.192   7.324  0.1176 -0.0133 -0.1869
   22POPC   C1B  694   3.772   1.863   8.059 -0.1560 -0.0347 -0.1989
   22POPC   C2B  695   3.834   1.992   7.679  0.1445  0.2825 -0.0777
   22POPC   C3B  696   3.637   1.853   7.262  0.1870  0.1840  0.0155
   22POPC   C4B  697   3.393   1.558   7.111  0.1894 -0.2144  0.0990
   23POPC   NC3  698   0.466   7.005   8.453  0.3660 -0.0569 -0.2040
   23POPC   PO4  699   0.062   6.826   8.344  0.3143 -0.0820 -0.0394
   23POPC   GL1  700  -0.101   6.589   8.116 -0.1866 -0.0872  0.0531
   23POPC   GL2  701  -0.435   6.605   8.119 -0.2422 -0.3137  0.0347
   23POPC   C1A  702  -0.365   6.389   7.639  0.1143 -0.0891 -0.1792
   23POPC   D2A  703  -0.726   6.397   7.290  0.3255 -0.0499  0.0322
   23POPC   C3A  704  -1.004   6.568   6.869 -0.1941 -0.0351 -0.6433
   23POPC   C4A  705  -0.898   6.518   6.488 -0.2097  0.1781 -0.1024
   23POPC   C1B  706  -0.762   6.716   7.825 -0.1258  0.2857 -0.1884
   23POPC   C2B  707  -1.145   6.766   7.503 -0.4003 -0.0604  0.2088
   23POPC   C3B  708  -1.607   6.590   7.252 -0.0754 -0.2065 -0.0169
   23POPC   C4B  709  -1.660   6.619   6.852 -0.0836  0.4093 -0.1283
   24POPC   NC3  710   8.582   5.634   8.673 -0.1904  0.2059 -0.1120
   24POPC   PO4  711   8.768   5.340   8.886 -0.2173 -0.1312 -0.2238
   24POPC   GL1  712   8.686   5.197   8.503 -0.2344  0.1915  0.3390
   24POPC   GL2  713   8.337   5.196   8.472 -0.0651  0.1156  0.2469
   24POPC   C1A  714   8.709   4.840   8.208  0.0427 -0.0937  0.0499
   24POPC   D2A  715   9.117   4.685   8.037 -0.0014  0.6130 -0.1741
   24POPC   C3A  716   9.007   4.617   7.631  0.0637  0.2347 -0.0751
   24POPC   C4A  717   9.259   4.536   7.238 -0.0080  0.1053  0.0551
   24POPC   C1B  718   8.007   5.320   8.065 -0.2311 -0.2186 -0.1788
   24POPC   C2B  719   7.711   5.283   7.805 -0.1488  0.0797 -0.2410
   24POPC   C3B  720   7.670   5.207   7.431  0.4105  0.1091 -0.0048
   24POPC   C4B  721   7.882   5.195   6.980 -0.0725 -0.2246  0.2289
   25POPC   NC3  722   6.584   5.422   8.553 -0.0655 -0.1539  0.0315
   25POPC   PO4  723   6.745   5.825   8.467  0.0680 -0.2327  0.3731
   25POPC   GL1  724   6.790   5.675   8.130  0.0115 -0.1698 -0.0288
   25POPC   GL2  725   7.027   5.820   7.985  0.0021 -0.1143  0.0950
   25POPC   C1A  726   6.588   5.516   7.783 -0.1625  0.1960  0.0045
   25POPC   D2A  727   6.523   5.189   7.494  0.0549  0.1941  0.1163
   25POPC   C3A  728   6.729   5.271   7.085  0.0416  0.1981 -0.3277
   25POPC   C4A  729   6.847   4.912   6.871 -0.0628 -0.2842  0.1032
   25POPC   C1B  730   6.811   5.881   7.550  0.0576 -0.1557 -0.0092
   25POPC   C2B  731   6.548   5.732   7.349 -0.2559  0.3853  0.2052
   25POPC   C3B  732   6.136   5.769   7.224  0.0877 -0.0396  0.2300
   25POPC   C4B  733   5.801   5.754   6.898  0.3329 -0.0594  0.0775
   26POPC   NC3  734   2.657   3.533   8.165  0.0736 -0.2204  0.0197
   26POPC   PO4  735   2.999   3.672   8.365  0.0861 -0.0348 -0.1161
   26POPC   GL1  736   3.228   3.682   8.016 -0.1569 -0.4477  0.0376
   26POPC   GL2  737   3.455   3.616   7.985  0.0372 -0.0350 -0.2020
   26POPC   C1A  738   3.125   3.719   7.608  0.1978  0.1284 -0.3266
   26POPC   D2A  739   3.417   3.571   7.260  0.0945 -0.1356 -0.0914
   26POPC   C3A  740   3.307   3.315   6.788  0.1400 -0.0058 -0.2130
   26POPC   C4A  741   3.277   3.250   6.383  0.1283  0.0934 -0.0609
   26POPC   C1B  742   3.603   3.269   7.797  0.2960 -0.0994  0.1583
   26POPC   C2B  743   3.696   3.053   7.398 -0.1402  0.0624 -0.0652
   26POPC   C3B  744   3.687   2.698   7.360 -0.0735 -0.1099  0.3560
   26POPC   C4B  745   3.961   2.319   7.248 -0.0039 -0.1688 -0.1059
   27POPC   NC3  746   6.553   0.393  10.345 -0.0011 -0.0638 -0.1188
   27POPC   PO4  747   6.843   0.139  10.240 -0.1373 -0.1157  0.0990
   27POPC   GL1  748   6.641   0.208   9.871 -0.0353 -0.0417 -0.0478
   27POPC   GL2  749   6.678   0.542   9.867  0.1855 -0.3302 -0.0538
   27POPC   C1A  750   6.220   0.198   9.641  0.0179 -0.2814  0.1281
   27POPC   D2A  751   5.946   0.565   9.482 -0.4687  0.1603  0.0039
   27POPC   C3A  752   5.867   0.537   9.008  0.1222  0.4009 -0.1215
   27POPC   C4A  753   6.050   0.345   8.605  0.0831  0.1433 -0.1492
   27POPC   C1B  754   6.443   0.589   9.506 -0.1003  0.2354 -0.0166
   27POPC   C2B  755   6.221   0.804   9.111 -0.0548  0.1372 -0.1782
   27POPC   C3B  756   6.451   0.577   8.712  0.0179  0.1268 -0.4943
   27POPC   C4B  757   6.638   0.137   8.529  0.4075 -0.0032  0.0486
   28POPC   NC3  758   6.446   2.068   9.889 -0.2019 -0.1250  0.0065
   28POPC   PO4  759   6.912   1.971   9.820  0.1261  0.1064 -0.1356
   28POPC   GL1  760   7.014   1.670   9.444  0.0978 -0.1445  0.1714
   28POPC   GL2  761   6.957   1.805   9.188  0.0232  0.1394  0.0649
   28POPC   C1A  762   7.023   1.313   9.158 -0.0611 -0.0378  0.2054
   28POPC   D2A  763   6.838   0.862   9.387  0.6216 -0.1017 -0.1075
   28POPC   C3A  764   6.894   0.291   9.497  0.0537 -0.1287 -0.1145
   28POPC   C4A  765   6.634  -0.039   9.441  0.1482  0.0542  0.0634
   28POPC   C1B  766   7.177   1.649   8.734 -0.3219 -0.1664 -0.0156
   28POPC   C2B  767   7.018   1.341   8.607  0.0072  0.0180  0.2420
   28POPC   C3B  768   6.833   1.027   8.268 -0.0564 -0.2035  0.0507
   28POPC   C4B  769   6.572   0.697   8.200 -0.3508 -0.0219 -0.2865
   29POPC   NC3  770   2.941   2.938   8.733 -0.0723 -0.0228 -0.1029
   29POPC   PO4  771   3.315   2.776   8.678  0.0717  0.1987  0.0782
   29POPC   GL1  772   3.444   2.653   8.317 -0.3079  0.3094  0.2299
   29POPC   GL2  773   3.701   2.533   8.239 -0.0739  0.0055 -0.0678
   29POPC   C1A  774   3.200   2.314   8.057  0.1903 -0.0588 -0.5355
   29POPC   D2A  775   3.040   2.055   7.756 -0.2322 -0.0441  0.3889
   29POPC   C3A  776   3.053   1.862   7.330 -0.2901  0.1005 -0.0759
   29POPC   C4A  777   2.983   1.853   6.892 -0.1682 -0.1329  0.3280
   29POPC   C1B  778   3.645   2.387   7.887  0.1298  0.2360 -0.1933
   29POPC   C2B  779   3.435   2.295   7.497 -0.4526 -0.4624 -0.0175
   29POPC   C3B  780   3.465   2.367   7.122 -0.1093  0.2125  0.0470
   29POPC   C4B  781   3.588   2.420   6.724  0.0112 -0.0773 -0.0498
   30POPC   NC3  782   4.366   9.241   9.366 -0.2400 -0.1947 -0.1848
   30POPC   PO4  783   4.271   9.443   8.969 -0.0836  0.1045  0.1994
   30POPC   GL1  784   4.339   9.431   8.594 -0.0803  0.1095 -0.2062
   30POPC   GL2  785   4.382   9.128   8.449 -0.1724  0.0921  0.1547
   30POPC   C1A  786   4.288   9.503   8.168 -0.2292 -0.1070 -0.3039
   30POPC   D2A  787   4.389   9.459   7.761  0.2800 -0.0509 -0.3004
   30POPC   C3A  788   4.452   9.152   7.445  0.1524  0.2960  0.1643
   30POPC   C4A  789   4.610   8.726   7.413 -0.0500 -0.2532  0.0199
   30POPC   C1B  790   4.430   9.039   8.033 -0.0414  0.1281  0.2630
   30POPC   C2B  791   4.055   8.977   7.847  0.0415  0.0124  0.0032
   30POPC   C3B  792   3.846   8.586   7.531 -0.3788  0.0121  0.1070
   30POPC   C4B  793   3.516   8.267   7.487 -0.2923 -0.2552  0.1437
   31POPC   NC3  794   1.023   5.498   8.787  0.1110 -0.1348  0.2908
   31POPC   PO4  795   0.541   5.611   8.780 -0.1706  0.0281  0.1171
   31POPC   GL1  796   0.643   5.623   8.405  0.0572 -0.2755 -0.0592
   31POPC   GL2  797   0.815   5.907   8.310  0.0862 -0.2580 -0.2678
   31POPC   C1A  798   0.575   5.679   7.882  0.1591 -0.2208  0.0578
   31POPC   D2A  799   0.609   5.630   7.383  0.0323 -0.0458 -0.1200
   31POPC   C3A  800   0.142   5.622   7.257  0.1569 -0.1822  0.1709
   31POPC   C4A  801  -0.209   5.296   7.295  0.1546 -0.1627  0.1635
   31POPC   C1B  802   1.091   5.833   7.993 -0.1643  0.0024  0.1983
   31POPC   C2B  803   1.397   5.855   7.598  0.1073  0.3420  0.0195
   31POPC   C3B  804   1.365   5.960   7.135 -0.1012  0.3264  0.0580
   31POPC   C4B  805   1.324   6.223   6.738  0.1516  0.1301  0.0560
   32POPC   NC3  806   7.757   0.238   9.934 -0.3364 -0.0188 -0.6141
   32POPC   PO4  807   8.035   0.017   9.687  0.0670  0.1986  0.0937
   32POPC   GL1  808   7.822   0.300   9.435 -0.2983  0.0129  0.2151
   32POPC   GL2  809   7.466   0.340   9.461  0.1069  0.4993  0.1435
   32POPC   C1A  810   7.592   0.384   9.014 -0.2807  0.2466 -0.0396
   32POPC   D2A  811   7.428   0.729   8.751 -0.0393  0.0847 -0.2142
   32POPC   C3A  812   7.018   0.877   8.865  0.0474  0.0436  0.0845
   32POPC   C4A  813   6.641   1.005   8.822 -0.2991 -0.0312  0.0666
   32POPC   C1B  814   7.148   0.471   9.142  0.0292  0.0303 -0.1337
   32POPC   C2B  815   6.729   0.320   9.025 -0.2292 -0.1088 -0.2956
   32POPC   C3B  816   6.292   0.229   9.110 -0.0887  0.0432 -0.5611
   32POPC   C4B  817   5.809   0.104   9.258  0.1054 -0.3332  0.0100
   33POPC   NC3  818   5.593   0.803   9.894  0.0914  0.2944 -0.2896
   33POPC   PO4  819   5.249   0.531   9.761  0.1320 -0.4254 -0.2835
   33POPC   GL1  820   5.453   0.666   9.345 -0.0810 -0.1562 -0.1113
   33POPC   GL2  821   5.008   0.649   9.205  0.3902 -0.0086 -0.1909
   33POPC   C1A  822   5.712   1.057   9.230  0.0544  0.5144 -0.0183
   33POPC   D2A  823   5.865   1.077   8.834  0.5360  0.0653 -0.0761
   33POPC   C3A  824   5.738   0.760   8.558  0.1903  0.0001  0.1125
   33POPC   C4A  825   5.557   0.293   8.641 -0.1520 -0.0752  0.2141
   33POPC   C1B  826   5.244   0.612   8.849 -0.1061  0.3982 -0.0850
   33POPC   C2B  827   5.300   0.623   8.335 -0.1021 -0.3596 -0.1808
   33POPC   C3B  828   5.537   0.391   8.169 -0.2037  0.1778 -0.1571
   33POPC   C4B  829   5.764   0.049   8.249 -0.0418 -0.3562 -0.0291
   34POPC   NC3  830   1.894   6.301   9.124 -0.1968  0.1408 -0.3100
   34POPC   PO4  831   2.171   5.871   9.225 -0.2613 -0.1920 -0.1827
   34POPC   GL1  832   1.936   5.773   8.814  0.1565  0.1159  0.0219
   34POPC   GL2  833   1.746   6.053   8.687 -0.0765 -0.0367  0.0734
   34POPC   C1A  834   1.977   5.615   8.313  0.0813 -0.2405 -0.3655
   34POPC   D2A  835   2.050   5.360   8.021  0.0374  0.1849 -0.1698
   34POPC   C3A  836   2.147   5.309   7.535  0.0628 -0.0769 -0.2938
   34POPC   C4A  837   2.343   5.312   7.144  0.0037  0.2322 -0.1971
   34POPC   C1B  838   2.045   6.157   8.365 -0.0969 -0.2750 -0.0219
   34POPC   C2B  839   2.148   6.194   7.862  0.1062 -0.1204  0.0671
   34POPC   C3B  840   2.228   6.374   7.434  0.0735 -0.1102  0.0023
   34POPC   C4B  841   2.155   6.713   7.133  0.0678  0.2972 -0.0055
   35POPC   NC3  842   3.318   9.241   8.814 -0.0042 -0.0576 -0.4414
   35POPC   PO4  843   3.096   8.907   8.628  0.1208  0.1701 -0.1792
   35POPC   GL1  844   3.165   8.964   8.200 -0.2090 -0.1883 -0.1351
   35POPC   GL2  845   3.151   9.316   8.340  0.1314 -0.0972 -0.2675
   35POPC   C1A  846   3.088   8.957   7.724  0.1313 -0.1697  0.3331
   35POPC   D2A  847   3.257   9.224   7.349 -0.0574 -0.2363  0.0741
   35POPC   C3A  848   3.196   9.241   6.942 -0.2755 -0.0592  0.1496
   35POPC   C4A  849   3.269   9.505   6.622  0.2237 -0.1704 -0.1760
   35POPC   C1B  850   3.249   9.398   7.868 -0.2941  0.0561  0.2589
   35POPC   C2B  851   3.435   9.684   7.580  0.1606 -0.0037  0.5789
   35POPC   C3B  852   3.399   9.971   7.346  0.0314 -0.0872 -0.2200
   35POPC   C4B  853   3.291  10.018   6.889 -0.1071 -0.1785 -0.2535
   36POPC   NC3  854   3.684   8.333   8.523  0.1500 -0.3227  0.0067
   36POPC   PO4  855   3.478   8.248   8.238  0.3775 -0.0755 -0.3625
   36POPC   GL1  856   3.224   8.482   7.907 -0.0683  0.1420 -0.1421
   36POPC   GL2  857   2.819   8.555   7.920  0.3485 -0.0753  0.0282
   36POPC   C1A  858   3.089   8.511   7.418 -0.0157 -0.0217 -0.0158
   36POPC   D2A  859   3.377   8.723   7.245  0.2162  0.0680  0.1260
   36POPC   C3A  860   3.736   8.569   6.978  0.2140  0.0897 -0.2088
   36POPC   C4A  861   3.881   8.198   6.766 -0.0139  0.0942 -0.3131
   36POPC   C1B  862   2.657   8.761   7.566 -0.0047 -0.0147 -0.0024
   36POPC   C2B  863   2.497   8.648   7.106 -0.2885  0.0942  0.1768
   36POPC   C3B  864   2.311   8.363   6.760  0.2624 -0.0622 -0.0309
   36POPC   C4B  865   1.968   8.425   6.529 -0.2058  0.1097 -0.1800
   37POPC   NC3  866   9.044   7.542   8.371 -0.2831  0.2649  0.1605
   37POPC   PO4  867   8.796   7.080   8.375  0.1423  0.0096  0.1894
   37POPC   GL1  868   8.766   7.124   7.959 -0.1368 -0.1836 -0.0946
   37POPC   GL2  869   8.448   7.013   7.808  0.0105  0.1298  0.3053
   37POPC   C1A  870   8.768   7.368   7.523  0.0500 -0.0664 -0.3399
   37POPC   D2A  871   8.578   7.631   7.290 -0.1186  0.0241 -0.1589
   37POPC   C3A  872   8.803   7.956   7.078 -0.2307  0.3764 -0.0150
   37POPC   C4A  873   9.039   8.086   6.770 -0.1593  0.1529  0.0755
   37POPC   C1B  874   8.360   7.053   7.342  0.1093 -0.1701  0.2168
   37POPC   C2B  875   8.127   7.111   6.955 -0.0222 -0.0046 -0.3330
   37POPC   C3B  876   7.905   6.962   6.668  0.2176 -0.0043  0.0628
   37POPC   C4B  877   8.044   6.888   6.215 -0.2158 -0.2331 -0.2052
   38POPC   NC3  878   6.872   6.331   8.370  0.0684 -0.0697 -0.1766
   38POPC   PO4  879   6.509   6.201   8.118 -0.0904 -0.1279  0.0074
   38POPC   GL1  880   6.532   6.492   7.785 -0.1272  0.2316  0.0539
   38POPC   GL2  881   6.844   6.508   7.908  0.2194  0.5384 -0.1348
   38POPC   C1A  882   6.801   6.582   7.369  0.1149 -0.1842  0.3022
   38POPC   D2A  883   6.840   6.908   7.050 -0.3140 -0.1629  0.0287
   38POPC   C3A  884   7.017   7.168   6.630  0.2952 -0.2908 -0.0083
   38POPC   C4A  885   7.357   7.324   6.299 -0.2721 -0.0497 -0.1201
   38POPC   C1B  886   7.042   6.264   7.653 -0.1935 -0.6240  0.4680
   38POPC   C2B  887   7.112   6.146   7.222  0.0616 -0.1989  0.1418
   38POPC   C3B  888   6.916   6.100   6.848 -0.1226  0.0903  0.2571
   38POPC   C4B  889   6.700   6.050   6.412 -0.1472  0.0369  0.1138
   39POPC   NC3  890   4.299   7.747   8.283  0.2516  0.1924  0.0592
   39POPC   PO4  891   4.497   7.318   8.329 -0.0598 -0.0042 -0.3573
   39POPC   GL1  892   4.452   7.265   7.933 -0.3366 -0.1602 -0.2032
   39POPC   GL2  893   4.362   7.032   7.674  0.2717  0.2905 -0.2327
   39POPC   C1A  894   4.109   7.482   7.689  0.0719  0.0417 -0.1894
   39POPC   D2A  895   3.717   7.502   7.520  0.0423  0.1697  0.0538
   39POPC   C3A  896   3.695   7.832   7.228  0.0261  0.0003 -0.3045
   39POPC   C4A  897   3.332   7.780   6.889 -0.2372  0.0083 -0.0698
   39POPC   C1B  898   4.304   6.701   7.290  0.1797  0.1544 -0.2929
   39POPC   C2B  899   4.246   6.728   6.814  0.0583 -0.2425 -0.3485
   39POPC   C3B  900   4.463   6.329   6.685  0.3144 -0.1746  0.3150
   39POPC   C4B  901   4.735   5.928   6.534 -0.2381 -0.4312  0.2961
   40POPC   NC3  902   2.529   6.257   9.301 -0.0657 -0.0005  0.1643
   40POPC   PO4  903   2.903   6.138   9.140  0.3221 -0.0593 -0.0549
   40POPC   GL1  904   2.821   6.238   8.685 -0.3179  0.3417 -0.1614
   40POPC   GL2  905   2.985   6.469   8.490  0.1935  0.3341  0.0048
   40POPC   C1A  906   2.664   6.168   8.240 -0.3687  0.1293  0.1545
   40POPC   D2A  907   2.407   5.794   8.120  0.2283 -0.0094  0.1591
   40POPC   C3A  908   2.519   5.417   7.814 -0.2443  0.1197 -0.1202
   40POPC   C4A  909   2.527   5.033   7.884 -0.1249  0.4466  0.2783
   40POPC   C1B  910   2.998   6.483   7.991  0.3455 -0.0149  0.2470
   40POPC   C2B  911   3.254   6.161   7.810 -0.1812 -0.2442  0.0827
   40POPC   C3B  912   3.188   5.873   7.438  0.0888  0.1929 -0.3854
   40POPC   C4B  913   3.001   5.920   7.092  0.2206  0.2129  0.0932
   41POPC   NC3  914   0.478   8.621   8.845 -0.0119  0.1948  0.4787
   41POPC   PO4  915   0.102   8.813   8.674  0.1367  0.1236  0.0403
   41POPC   GL1  916   0.067   8.649   8.104 -0.0804  0.0006 -0.2126
   41POPC   GL2  917   0.371   8.625   7.946  0.0981 -0.0686 -0.0375
   41POPC   C1A  918  -0.136   8.482   7.723  0.5822 -0.3685 -0.3054
   41POPC   D2A  919  -0.534   8.302   7.507  0.0274  0.1724  0.0642
   41POPC   C3A  920  -0.687   8.425   7.117  0.1951  0.0504  0.0451
   41POPC   C4A  921  -0.823   8.834   6.931  0.1310 -0.1288 -0.0929
   41POPC   C1B  922   0.486   8.709   7.492  0.1139  0.2252 -0.2167
   41POPC   C2B  923   0.421   8.477   7.165 -0.2713 -0.0334  0.0017
   41POPC   C3B  924   0.277   8.127   6.963  0.2117  0.0464  0.0414
   41POPC   C4B  925   0.150   8.081   6.601  0.2914  0.0040  0.0410
   42POPC   NC3  926   5.855   7.031   8.382  0.0172  0.1916  0.0630
   42POPC   PO4  927   5.658   6.714   8.087 -0.0717  0.2801 -0.1039
   42POPC   GL1  928   5.729   7.090   7.784 -0.2224  0.1548  0.0994
   42POPC   GL2  929   5.471   7.171   7.509 -0.1322  0.0806 -0.0580
   42POPC   C1A  930   5.932   7.201   7.327  0.1553  0.0334  0.0697
   42POPC   D2A  931   6.070   7.453   6.971 -0.0906  0.1733  0.3052
   42POPC   C3A  932   6.417   7.710   6.862 -0.0050 -0.1401  0.0092
   42POPC   C4A  933   6.800   7.584   6.886  0.0594  0.0705  0.2407
   42POPC   C1B  934   5.513   7.246   7.097  0.3741  0.2468 -0.0266
   42POPC   C2B  935   5.624   7.382   6.682 -0.1236 -0.0587 -0.3475
   42POPC   C3B  936   5.757   7.701   6.394  0.3389  0.3268 -0.1958
   42POPC   C4B  937   5.294   7.896   6.159  0.0464  0.5633  0.1202
   43POPC   NC3  938   1.759   3.527   8.261  0.1545  0.1010  0.4180
   43POPC   PO4  939   2.104   3.825   8.153 -0.3877  0.1591  0.1849
   43POPC   GL1  940   2.288   3.723   7.648 -0.0663  0.1304 -0.1441
   43POPC   GL2  941   2.629   3.750   7.634 -0.1161  0.0699 -0.2058
   43POPC   C1A  942   2.094   3.656   7.172  0.2910 -0.0788  0.1084
   43POPC   D2A  943   1.771   3.792   6.995  0.1097 -0.0615  0.1171
   43POPC   C3A  944   1.766   3.480   6.741 -0.0722  0.1362 -0.5090
   43POPC   C4A  945   1.535   3.055   6.501 -0.3178  0.2413 -0.0588
   43POPC   C1B  946   2.783   3.684   7.264  0.0917 -0.2065  0.1105
   43POPC   C2B  947   2.930   3.663   6.869  0.2251  0.0374 -0.1123
   43POPC   C3B  948   2.849   3.473   6.454  0.0211 -0.2473  0.0910
   43POPC   C4B  949   2.872   3.151   6.055  0.0584 -0.4468  0.0868
   44POPC   NC3  950   6.506   3.493   8.952  0.0376 -0.2109  0.3281
   44POPC   PO4  951   6.832   3.235   9.211 -0.1392  0.3503  0.0205
   44POPC   GL1  952   6.944   2.874   8.839 -0.1559  0.0014  0.0203
   44POPC   GL2  953   7.209   2.986   8.668 -0.2284 -0.0671 -0.1375
   44POPC   C1A  954   6.967   2.516   8.499 -0.0419  0.2997 -0.1824
   44POPC   D2A  955   6.798   2.408   8.170  0.0153  0.1023  0.0407
   44POPC   C3A  956   6.899   2.720   7.853  0.0339  0.0216 -0.0771
   44POPC   C4A  957   6.850   3.036   7.528 -0.2422 -0.1258 -0.0055
   44POPC   C1B  958   7.208   2.897   8.295 -0.3338  0.0878 -0.0778
   44POPC   C2B  959   7.273   3.054   7.864  0.2495  0.1525  0.0850
   44POPC   C3B  960   7.375   3.100   7.530 -0.0012 -0.2808 -0.1356
   44POPC   C4B  961   7.257   2.906   7.103 -0.0297 -0.2423 -0.0635
   45POPC   NC3  962   5.561   3.905   8.915  0.0866 -0.0156 -0.0532
   45POPC   PO4  963   5.794   3.748   8.570 -0.0069  0.0212 -0.1835
   45POPC   GL1  964   6.033   3.814   8.128 -0.3282  0.1069 -0.0109
   45POPC   GL2  965   6.039   3.516   7.979  0.2433 -0.0070  0.2557
   45POPC   C1A  966   5.805   3.948   7.730  0.2240  0.2372  0.0828
   45POPC   D2A  967   5.684   4.167   7.318 -0.2731 -0.1045  0.1279
   45POPC   C3A  968   5.270   3.997   7.119  0.1639  0.0955  0.0661
   45POPC   C4A  969   4.969   3.900   6.736 -0.1487 -0.0539  0.2189
   45POPC   C1B  970   5.664   3.427   7.740  0.0949  0.1624 -0.1342
   45POPC   C2B  971   5.344   3.272   7.438 -0.2604  0.0192  0.1092
   45POPC   C3B  972   5.038   3.132   7.407  0.2946 -0.2298  0.3294
   45POPC   C4B  973   4.563   3.095   7.579 -0.0511 -0.2399 -0.1406
   46POPC   NC3  974   9.421   9.232   9.402 -0.0096  0.0113  0.0662
   46POPC   PO4  975   9.298   9.476   9.120  0.1148 -0.1950 -0.0027
   46POPC   GL1  976   9.100   9.426   8.713 -0.2715  0.1949  0.0431
   46POPC   GL2  977   8.989   9.671   8.641  0.3172 -0.0258 -0.1587
   46POPC   C1A  978   9.060   9.194   8.364 -0.1052  0.3481  0.2414
   46POPC   D2A  979   9.343   8.866   8.113 -0.1978  0.0030 -0.2106
   46POPC   C3A  980   9.631   9.077   8.117  0.0060 -0.0366 -0.2610
   46POPC   C4A  981  10.078   9.131   8.076  0.2876 -0.1183  0.0136
   46POPC   C1B  982   8.884   9.662   8.258  0.1534 -0.0004 -0.0034
   46POPC   C2B  983   8.792   9.676   7.799 -0.1969 -0.1848 -0.0459
   46POPC   C3B  984   8.592   9.961   7.534 -0.3148  0.2215  0.0305
   46POPC   C4B  985   8.243  10.113   7.376  0.1395  0.0531  0.0937
   47POPC   NC3  986   3.723   4.532   9.077  0.2204  0.1421 -0.3425
   47POPC   PO4  987   3.744   4.367   8.707  0.0949 -0.2958  0.2598
   47POPC   GL1  988   3.757   4.573   8.300 -0.0496  0.1140 -0.0534
   47POPC   GL2  989   3.981   4.435   8.089 -0.0863 -0.1532  0.0397
   47POPC   C1A  990   3.650   4.839   8.010 -0.3679 -0.0174  0.2857
   47POPC   D2A  991   3.509   5.100   7.703 -0.1767 -0.0656 -0.0750
   47POPC   C3A  992   3.373   5.023   7.227 -0.1696 -0.1871 -0.1582
   47POPC   C4A  993   3.683   4.969   6.912  0.1581  0.0537 -0.2539
   47POPC   C1B  994   3.813   4.338   7.770  0.1505  0.2030  0.1563
   47POPC   C2B  995   3.496   4.058   7.439  0.3389 -0.0382 -0.3194
   47POPC   C3B  996   3.532   3.944   6.988 -0.2013 -0.4824  0.0352
   47POPC   C4B  997   3.816   3.757   6.759 -0.0995 -0.2146  0.1646
   48POPC   NC3  998   2.342   4.420   8.627 -0.0187 -0.1479 -0.2731
   48POPC   PO4  999   2.621   4.453   8.293  0.1390 -0.0478 -0.0632
   48POPC   GL1 1000   2.835   4.551   7.914 -0.1565  0.3680  0.3332
   48POPC   GL2 1001   3.167   4.684   8.068  0.0761  0.3240  0.0179
   48POPC   C1A 1002   2.981   4.851   7.545  0.2517  0.1418 -0.0325
   48POPC   D2A 1003   2.919   4.710   7.108  0.2245 -0.0466  0.0764
   48POPC   C3A 1004   3.250   4.779   6.779  0.3207 -0.2111  0.0206
   48POPC   C4A 1005   3.394   4.580   6.425 -0.1855  0.1921  0.3629
   48POPC   C1B 1006   3.402   4.607   7.600 -0.1057  0.3154  0.0783
   48POPC   C2B 1007   3.372   4.459   7.187  0.2651 -0.3570 -0.2621
   48POPC   C3B 1008   3.657   4.463   6.884  0.0290  0.0890  0.4361
   48POPC   C4B 1009   3.841   4.277   6.608 -0.0160 -0.1319 -0.2525
   49POPC   NC3 1010   1.690   2.553   8.298 -0.0637  0.1943 -0.0675
   49POPC   PO4 1011   1.791   2.968   8.197  0.0519  0.2447  0.0122
   49POPC   GL1 1012   1.650   3.224   7.827 -0.1564 -0.0919  0.3941
   49POPC   GL2 1013   1.378   3.424   7.891 -0.0954 -0.5219  0.0159
   49POPC   C1A 1014   1.832   3.214   7.440  0.1551 -0.1628 -0.0733
   49POPC   D2A 1015   1.640   3.102   6.987  0.0476 -0.0896  0.1132
   49POPC   C3A 1016   1.242   3.156   6.923  0.0860 -0.1251 -0.0891
   49POPC   C4A 1017   0.976   3.154   6.529 -0.1539  0.0567 -0.1401
   49POPC   C1B 1018   1.078   3.687   7.676  0.1142 -0.2770  0.0155
   49POPC   C2B 1019   0.834   3.870   7.357 -0.0120 -0.2004 -0.0993
   49POPC   C3B 1020   0.952   4.005   6.954  0.3057  0.1017  0.1916
   49POPC   C4B 1021   1.128   4.264   6.600 -0.1902 -0.3756  0.5369
   50POPC   NC3 1022   0.416   2.419   8.497 -0.0333 -0.0979  0.1888
   50POPC   PO4 1023   0.447   1.969   8.667 -0.0173 -0.0454  0.0145
   50POPC   GL1 1024   0.342   1.993   8.201  0.1945  0.5070  0.1425
   50POPC   GL2 1025   0.168   1.721   7.956  0.1309  0.2811 -0.0563
   50POPC   C1A 1026   0.328   2.301   7.852 -0.1262 -0.2571 -0.1909
   50POPC   D2A 1027   0.044   2.629   7.798 -0.0998  0.1043 -0.1831
   50POPC   C3A 1028  -0.419   2.477   7.803 -0.3885  0.2217 -0.0930
   50POPC   C4A 1029  -0.770   2.255   7.529 -0.3303  0.2253 -0.0803
   50POPC   C1B 1030   0.380   1.567   7.538 -0.2862  0.0840 -0.1036
   50POPC   C2B 1031   0.450   1.149   7.267  0.0926 -0.2108  0.0718
   50POPC   C3B 1032   0.470   1.087   6.801 -0.4153 -0.0763  0.2446
   50POPC   C4B 1033   0.771   1.283   6.467  0.0111 -0.1196 -0.3192
   51POPC   NC3 1034   8.321   8.447   9.248 -0.1140 -0.0716  0.2050
   51POPC   PO4 1035   8.458   8.931   9.222 -0.0327 -0.0778  0.0694
   51POPC   GL1 1036   8.396   9.231   8.981  0.1426  0.0794 -0.3358
   51POPC   GL2 1037   8.558   9.329   8.684  0.0262 -0.0497 -0.4913
   51POPC   C1A 1038   8.161   9.618   8.809 -0.0426 -0.0904 -0.0657
   51POPC   D2A 1039   8.022   9.886   8.466  0.1924 -0.0280 -0.2281
   51POPC   C3A 1040   8.061   9.746   8.015 -0.0826 -0.1287 -0.1171
   51POPC   C4A 1041   8.234   9.672   7.622  0.3172  0.0121  0.1466
   51POPC   C1B 1042   8.300   9.326   8.226 -0.0443 -0.1800 -0.2548
   51POPC   C2B 1043   8.337   9.250   7.859 -0.2329 -0.0392  0.0462
   51POPC   C3B 1044   8.291   9.121   7.405  0.1347 -0.0096 -0.0657
   51POPC   C4B 1045   8.319   9.434   7.243  0.1173 -0.1503  0.0745
   52POPC   NC3 1046   9.833   2.308   8.526 -0.0480  0.0075 -0.0853
   52POPC   PO4 1047   9.521   2.620   8.469  0.0772  0.5416  0.2007
   52POPC   GL1 1048   9.424   2.195   8.244 -0.1554  0.4877  0.0313
   52POPC   GL2 1049   9.680   1.893   8.291 -0.1150 -0.2548 -0.1041
   52POPC   C1A 1050   9.190   1.970   7.937 -0.0249 -0.0177 -0.1498
   52POPC   D2A 1051   9.037   1.703   7.629 -0.1207  0.1298 -0.2258
   52POPC   C3A 1052   8.912   1.809   7.158 -0.1479 -0.0272 -0.0672
   52POPC   C4A 1053   8.979   2.124   6.879 -0.2353  0.0098 -0.0760
   52POPC   C1B 1054   9.728   2.076   7.875 -0.2698  0.0067  0.2379
   52POPC   C2B 1055   9.653   2.090   7.490 -0.0512 -0.1540  0.0616
   52POPC   C3B 1056   9.576   2.338   7.219  0.1114 -0.0922 -0.3150
   52POPC   C4B 1057   9.757   2.773   7.046 -0.1092  0.0080  0.1346
   53POPC   NC3 1058   8.025   1.719   9.116  0.0372  0.0522  0.1355
   53POPC   PO4 1059   8.485   1.711   9.131  0.2814 -0.0577  0.0069
   53POPC   GL1 1060   8.477   1.467   8.804  0.0271  0.1925 -0.0716
   53POPC   GL2 1061   8.618   1.445   8.616 -0.1048 -0.0328 -0.4074
   53POPC   C1A 1062   8.123   1.378   8.532 -0.0174 -0.0684 -0.0265
   53POPC   D2A 1063   7.941   1.276   8.182  0.1419  0.0374  0.0544
   53POPC   C3A 1064   8.089   1.353   7.715  0.1810 -0.1908  0.2317
   53POPC   C4A 1065   8.345   1.085   7.512 -0.0596  0.3135 -0.0822
   53POPC   C1B 1066   8.510   1.513   8.159  0.0582  0.1922 -0.1131
   53POPC   C2B 1067   8.572   1.523   7.719 -0.0116  0.1139  0.0366
   53POPC   C3B 1068   8.553   1.484   7.328 -0.1540 -0.0283  0.1598
   53POPC   C4B 1069   8.307   1.332   6.994 -0.0730 -0.1262 -0.2425
   54POPC   NC3 1070   1.928   8.051   8.775 -0.0183  0.3220 -0.3159
   54POPC   PO4 1071   1.770   8.468   8.620 -0.3386  0.0019 -0.1278
   54POPC   GL1 1072   1.563   8.382   8.212 -0.0108 -0.1049 -0.1299
   54POPC   GL2 1073   1.793   8.437   7.950  0.2177 -0.0419  0.4702
   54POPC   C1A 1074   1.248   8.311   7.787 -0.4535 -0.1509 -0.3727
   54POPC   D2A 1075   1.042   8.108   7.485 -0.0116 -0.1285 -0.2447
   54POPC   C3A 1076   0.628   8.259   7.575  0.2633 -0.1783  0.2345
   54POPC   C4A 1077   0.269   8.079   7.563  0.1036 -0.3172  0.0708
   54POPC   C1B 1078   1.890   8.856   7.859  0.3933 -0.2139  0.0599
   54POPC   C2B 1079   1.729   9.303   7.722  0.1003 -0.1057 -0.0581
   54POPC   C3B 1080   1.383   9.533   7.619  0.0884  0.1637  0.0653
   54POPC   C4B 1081   1.120   9.809   7.276 -0.0538 -0.1112  0.1390
   55POPC   NC3 1082   4.259   5.789   8.557 -0.1197  0.3085 -0.0914
   55POPC   PO4 1083   4.460   5.443   8.413 -0.4026 -0.0236  0.0049
   55POPC   GL1 1084   4.421   5.684   8.029 -0.0228  0.1945 -0.2003
   55POPC   GL2 1085   4.581   5.898   8.006  0.2194 -0.2486 -0.2982
   55POPC   C1A 1086   4.003   5.782   7.822 -0.1928 -0.2056 -0.1809
   55POPC   D2A 1087   3.750   6.084   7.619  0.1034  0.1191 -0.1616
   55POPC   C3A 1088   3.702   5.989   7.228 -0.1240  0.0976  0.0035
   55POPC   C4A 1089   3.389   6.238   7.117  0.1727  0.2213  0.0248
   55POPC   C1B 1090   4.451   5.763   7.572  0.1767 -0.1212 -0.0473
   55POPC   C2B 1091   4.163   5.716   7.269  0.0999 -0.0126  0.2890
   55POPC   C3B 1092   3.961   5.475   7.008  0.1441 -0.0147 -0.1279
   55POPC   C4B 1093   3.716   5.343   6.528 -0.3612  0.1067 -0.0024
   56POPC   NC3 1094   1.668   0.064   8.436 -0.0230  0.1037  0.1883
   56POPC   PO4 1095   1.976  -0.327   8.593  0.3267 -0.0694  0.1187
   56POPC   GL1 1096   2.122  -0.230   8.232 -0.2067  0.0737  0.4782
   56POPC   GL2 1097   2.422  -0.083   8.176  0.3491 -0.0828 -0.0823
   56POPC   C1A 1098   2.258  -0.513   7.978  0.2703  0.1071 -0.2237
   56POPC   D2A 1099   2.259  -0.742   7.606 -0.2928  0.2317  0.0999
   56POPC   C3A 1100   2.002  -0.942   7.272 -0.2679 -0.2105  0.0436
   56POPC   C4A 1101   1.976  -1.184   7.026  0.6221 -0.2388  0.1243
   56POPC   C1B 1102   2.362  -0.039   7.761  0.0941 -0.0402  0.3198
   56POPC   C2B 1103   2.376   0.032   7.315 -0.1456 -0.4899  0.1953
   56POPC   C3B 1104   2.794   0.232   6.977  0.2567 -0.1505 -0.0691
   56POPC   C4B 1105   2.817   0.446   6.673  0.0239  0.1973  0.0526
   57POPC   NC3 1106   2.591   7.433   8.691 -0.0681 -0.0239 -0.0319
   57POPC   PO4 1107   2.210   7.624   8.775 -0.0979  0.0794 -0.1771
   57POPC   GL1 1108   2.265   7.570   8.282  0.0631  0.0859  0.1677
   57POPC   GL2 1109   2.385   7.254   8.257 -0.2987 -0.0544  0.2272
   57POPC   C1A 1110   2.077   7.540   7.895 -0.0725  0.2350 -0.0858
   57POPC   D2A 1111   1.936   7.328   7.464  0.3316  0.1756 -0.0001
   57POPC   C3A 1112   1.672   7.386   7.172 -0.1142 -0.1413 -0.2182
   57POPC   C4A 1113   1.451   7.667   7.244 -0.0916  0.0936 -0.1981
   57POPC   C1B 1114   2.316   7.048   7.848 -0.4796 -0.0926  0.0649
   57POPC   C2B 1115   2.119   6.758   7.765 -0.0047  0.2717 -0.1920
   57POPC   C3B 1116   1.821   6.736   7.555 -0.0660 -0.1634 -0.2814
   57POPC   C4B 1117   1.718   6.908   7.146 -0.1546 -0.1774  0.0105
   58POPC   NC3 1118   4.165   2.231   9.573 -0.1074 -0.1020  0.1098
   58POPC   PO4 1119   4.647   2.366   9.372  0.3337  0.5808 -0.1490
   58POPC   GL1 1120   4.759   2.243   8.934 -0.0568 -0.2383  0.1595
   58POPC   GL2 1121   5.101   2.129   9.059 -0.0697  0.1783 -0.1890
   58POPC   C1A 1122   4.719   2.093   8.461  0.1254 -0.1436  0.0201
   58POPC   D2A 1123   4.677   1.759   8.176 -0.2214 -0.0333 -0.2107
   58POPC   C3A 1124   4.555   1.338   8.091 -0.1515  0.0677 -0.1877
   58POPC   C4A 1125   4.458   0.951   8.009 -0.0156  0.1742  0.0482
   58POPC   C1B 1126   5.086   2.484   8.700 -0.1170 -0.0679 -0.0574
   58POPC   C2B 1127   4.935   2.635   8.259  0.1199 -0.3452 -0.1081
   58POPC   C3B 1128   5.000   2.724   7.821 -0.2003 -0.0541  0.1156
   58POPC   C4B 1129   4.714   2.579   7.576 -0.1911 -0.1795  0.4306
   59POPC   NC3 1130   3.237   6.890   8.487 -0.0649 -0.1522  0.2124
   59POPC   PO4 1131   3.022   7.179   8.328  0.1230 -0.2218  0.2653
   59POPC   GL1 1132   2.772   6.917   7.988  0.1269  0.3437  0.0594
   59POPC   GL2 1133   2.807   7.080   7.665  0.1791 -0.0629  0.4347
   59POPC   C1A 1134   2.667   6.615   7.546 -0.1535  0.1404  0.0774
   59POPC   D2A 1135   2.815   6.365   7.127 -0.0785  0.2711  0.3046
   59POPC   C3A 1136   2.488   6.085   7.058 -0.0167 -0.2521 -0.0074
   59POPC   C4A 1137   2.574   5.673   6.875 -0.1380 -0.2005  0.1750
   59POPC   C1B 1138   2.368   7.091   7.363 -0.0016 -0.1418 -0.1235
   59POPC   C2B 1139   2.206   7.287   7.011  0.0259  0.0916 -0.2710
   59POPC   C3B 1140   2.469   7.340   6.674 -0.0257  0.0436 -0.1162
   59POPC   C4B 1141   2.526   7.321   6.249 -0.1917 -0.1031 -0.0896
   60POPC   NC3 1142   3.027   8.489   8.384  0.4497 -0.0659  0.0574
   60POPC   PO4 1143   3.008   8.082   8.010 -0.0191  0.1482 -0.1935
   60POPC   GL1 1144   2.760   7.815   7.668  0.0308 -0.2115 -0.0635
   60POPC   GL2 1145   2.545   7.491   7.680 -0.2724 -0.1535 -0.1342
   60POPC   C1A 1146   2.910   7.547   7.320  0.0449  0.3227  0.1261
   60POPC   D2A 1147   2.804   7.683   6.901  0.0895 -0.0916 -0.0553
   60POPC   C3A 1148   2.943   7.485   6.572 -0.0898 -0.2670  0.1950
   60POPC   C4A 1149   3.262   7.559   6.378 -0.1064 -0.0497 -0.3038
   60POPC   C1B 1150   2.367   7.634   7.420 -0.3068 -0.0258  0.2410
   60POPC   C2B 1151   2.341   7.871   6.983 -0.0552  0.0177  0.1713
   60POPC   C3B 1152   2.610   7.968   6.606 -0.0402  0.0818 -0.1517
   60POPC   C4B 1153   2.971   8.027   6.523  0.3592  0.0718  0.0384
   61POPC   NC3 1154   3.086   1.578   9.245 -0.1980 -0.0642 -0.0511
   61POPC   PO4 1155   3.482   1.914   9.097 -0.0949 -0.0303 -0.0694
   61POPC   GL1 1156   3.800   1.622   8.965  0.3165  0.3304 -0.2330
   61POPC   GL2 1157   3.818   1.788   8.732  0.0528  0.2911  0.0466
   61POPC   C1A 1158   3.890   1.246   8.788 -0.0622 -0.4593  0.0599
   61POPC   D2A 1159   3.961   0.826   8.709  0.0427 -0.3295 -0.0514
   61POPC   C3A 1160   4.032   0.610   8.283  0.1553  0.0095  0.0278
   61POPC   C4A 1161   3.875   0.876   7.905 -0.0389 -0.5873  0.0102
   61POPC   C1B 1162   3.669   1.532   8.427  0.2147  0.0139  0.0277
   61POPC   C2B 1163   3.751   1.357   7.971 -0.2649 -0.0588  0.3849
   61POPC   C3B 1164   3.838   1.409   7.454  0.2316 -0.1160 -0.2589
   61POPC   C4B 1165   3.906   1.438   7.030 -0.0510  0.1897 -0.3780
   62POPC   NC3 1166   7.589   2.621   9.258 -0.0243 -0.4802 -0.3294
   62POPC   PO4 1167   7.723   2.088   9.267  0.2044 -0.2742  0.0760
   62POPC   GL1 1168   7.360   2.128   8.955 -0.3713 -0.5543  0.1378
   62POPC   GL2 1169   7.352   2.497   8.830  0.1816 -0.1518 -0.2832
   62POPC   C1A 1170   7.297   2.044   8.400  0.1440  0.1615 -0.1439
   62POPC   D2A 1171   7.206   2.104   8.002 -0.0901  0.2725 -0.1265
   62POPC   C3A 1172   6.879   1.959   7.807 -0.0096 -0.0457  0.0333
   62POPC   C4A 1173   6.458   1.934   7.977 -0.1336  0.0938  0.2509
   62POPC   C1B 1174   7.509   2.480   8.412  0.1198  0.2167 -0.2202
   62POPC   C2B 1175   7.355   2.546   7.921 -0.0444  0.1770  0.1129
   62POPC   C3B 1176   7.271   2.579   7.499  0.2319 -0.3778  0.1903
   62POPC   C4B 1177   6.779   2.527   7.398 -0.0110 -0.2814 -0.1320
   63POPC   NC3 1178   4.073   8.952   8.829  0.3816  0.0774  0.0510
   63POPC   PO4 1179   3.793   9.189   9.053 -0.1886 -0.0679 -0.3972
   63POPC   GL1 1180   3.765   9.380   8.586  0.1447 -0.4003  0.1817
   63POPC   GL2 1181   3.866   9.265   8.316 -0.3378  0.0063  0.0648
   63POPC   C1A 1182   3.954   9.798   8.477 -0.2560  0.0759  0.0039
   63POPC   D2A 1183   3.888  10.205   8.700 -0.1050 -0.1127 -0.0712
   63POPC   C3A 1184   3.593  10.420   8.556  0.2244 -0.0062  0.4191
   63POPC   C4A 1185   3.331  10.531   8.098 -0.7486  0.0923  0.0415
   63POPC   C1B 1186   3.786   9.366   8.019  0.0722  0.0431  0.3765
   63POPC   C2B 1187   3.926   9.639   7.715  0.2824  0.1715  0.1321
   63POPC   C3B 1188   3.927   9.943   7.382  0.1024 -0.1673 -0.2646
   63POPC   C4B 1189   3.750  10.027   7.048  0.3653 -0.0385 -0.1702
   64POPC   NC3 1190   2.748   5.763   8.747 -0.5784  0.0963 -0.0341
   64POPC   PO4 1191   2.897   5.425   8.427 -0.0797 -0.2314  0.0967
   64POPC   GL1 1192   3.209   5.470   8.109 -0.2908  0.0051 -0.0150
   64POPC   GL2 1193   3.059   5.182   7.962 -0.1268  0.2761 -0.2096
   64POPC   C1A 1194   3.499   5.579   7.754  0.1714 -0.1740  0.3564
   64POPC   D2A 1195   3.669   5.507   7.398 -0.0652  0.0770  0.1817
   64POPC   C3A 1196   3.470   5.575   7.143  0.0161  0.3558  0.0523
   64POPC   C4A 1197   3.669   5.815   6.768 -0.0606  0.0305 -0.0575
   64POPC   C1B 1198   3.050   5.394   7.554  0.2340  0.3194  0.1326
   64POPC   C2B 1199   2.921   5.322   7.195 -0.3769  0.1920  0.0068
   64POPC   C3B 1200   2.673   5.184   6.825 -0.1571  0.1213  0.0578
   64POPC   C4B 1201   2.853   5.189   6.436 -0.1165 -0.1235  0.3233
   65POPC   NC3 1202   9.200   0.159   9.166  0.2273 -0.0783 -0.1352
   65POPC   PO4 1203   9.099   0.291   8.707 -0.1036  0.0140  0.2668
   65POPC   GL1 1204   9.030   0.464   8.292  0.0488 -0.0901 -0.2761
   65POPC   GL2 1205   9.217   0.548   8.275 -0.0755  0.3535 -0.1791
   65POPC   C1A 1206   8.955   0.241   7.973 -0.0493 -0.1917 -0.1400
   65POPC   D2A 1207   9.050   0.312   7.579  0.1751  0.0117  0.2492
   65POPC   C3A 1208   8.902   0.452   7.158  0.0638 -0.0527  0.1041
   65POPC   C4A 1209   9.172   0.523   6.782  0.1122  0.0998 -0.0157
   65POPC   C1B 1210   9.328   0.594   7.909  0.0686 -0.0167  0.2418
   65POPC   C2B 1211   9.299   0.769   7.480  0.2344  0.1696 -0.0793
   65POPC   C3B 1212   9.274   0.905   7.037 -0.3625  0.0353 -0.4757
   65POPC   C4B 1213   9.053   1.016   6.632 -0.0639  0.0935 -0.0219
   66POPC   NC3 1214   7.699   7.201   8.575 -0.2625  0.1062 -0.2573
   66POPC   PO4 1215   7.853   6.818   8.424  0.1088  0.0078  0.0856
   66POPC   GL1 1216   7.860   7.034   8.030 -0.0576  0.3842  0.0709
   66POPC   GL2 1217   8.062   7.332   8.156 -0.1528  0.2164 -0.1281
   66POPC   C1A 1218   7.940   6.872   7.668 -0.3376  0.1248 -0.1934
   66POPC   D2A 1219   7.782   6.928   7.297  0.2410  0.1152 -0.1760
   66POPC   C3A 1220   7.747   7.344   7.322  0.1012 -0.0911 -0.1941
   66POPC   C4A 1221   7.684   7.762   7.110 -0.2107  0.1082  0.1160
   66POPC   C1B 1222   8.289   7.488   7.858 -0.2728 -0.0550 -0.0676
   66POPC   C2B 1223   8.175   7.467   7.480  0.1266 -0.3022  0.2046
   66POPC   C3B 1224   8.112   7.586   7.007  0.2141  0.0917  0.0813
   66POPC   C4B 1225   8.342   7.920   6.707  0.1537 -0.1607  0.4809
   67POPC   NC3 1226   3.387   7.795   8.231  0.1423 -0.1312 -0.1152
   67POPC   PO4 1227   3.530   7.443   8.232  0.0392  0.3118 -0.3659
   67POPC   GL1 1228   3.245   7.513   7.845 -0.0583 -0.0112 -0.0575
   67POPC   GL2 1229   3.313   7.806   7.676 -0.0767 -0.1442 -0.0514
   67POPC   C1A 1230   3.247   7.310   7.545 -0.0118  0.1088  0.0120
   67POPC   D2A 1231   3.277   7.239   7.035 -0.2305  0.0195 -0.2336
   67POPC   C3A 1232   3.064   6.997   6.765 -0.2531 -0.2429 -0.0386
   67POPC   C4A 1233   2.962   6.577   6.562  0.1049  0.1454 -0.4339
   67POPC   C1B 1234   3.061   8.066   7.334 -0.0713 -0.1181 -0.0116
   67POPC   C2B 1235   3.303   8.291   7.010  0.2946  0.1744 -0.2917
   67POPC   C3B 1236   3.421   8.382   6.589 -0.2570  0.2811  0.0244
   67POPC   C4B 1237   3.720   8.383   6.283 -0.1368 -0.0418 -0.2246
   68POPC   NC3 1238   1.897   5.447   9.246  0.2006  0.2676  0.1754
   68POPC   PO4 1239   1.501   5.379   8.987 -0.2016 -0.4950  0.0188
   68POPC   GL1 1240   1.523   5.530   8.560 -0.0986 -0.2465 -0.2006
   68POPC   GL2 1241   1.241   5.798   8.509 -0.3207  0.0381 -0.0425
   68POPC   C1A 1242   1.512   5.358   8.094  0.0204  0.2718 -0.0440
   68POPC   D2A 1243   1.632   5.186   7.697  0.0008  0.4609  0.2026
   68POPC   C3A 1244   1.581   4.760   7.737 -0.0644 -0.4305  0.1578
   68POPC   C4A 1245   1.679   4.485   7.964  0.0228  0.1100  0.0761
   68POPC   C1B 1246   1.584   5.914   8.167 -0.0164 -0.0232 -0.1501
   68POPC   C2B 1247   1.796   5.725   7.845 -0.0625  0.1048  0.0778
   68POPC   C3B 1248   2.240   5.763   7.655 -0.3524 -0.1302  0.1317
   68POPC   C4B 1249   2.678   5.764   7.424  0.0688  0.0488  0.0094
   69POPC   NC3 1250   4.467   7.975   8.765  0.0613  0.2042  0.0723
   69POPC   PO4 1251   4.191   8.155   8.524  0.1624 -0.0464 -0.0765
   69POPC   GL1 1252   4.069   8.161   8.122 -0.2928 -0.2305 -0.1958
   69POPC   GL2 1253   3.874   8.423   8.004  0.0748 -0.0111 -0.0254
   69POPC   C1A 1254   4.102   8.005   7.653  0.0221  0.0085  0.1065
   69POPC   D2A 1255   4.217   7.743   7.250  0.1468  0.0841 -0.2172
   69POPC   C3A 1256   4.139   7.758   6.871 -0.4750 -0.0522  0.1006
   69POPC   C4A 1257   4.226   7.978   6.427 -0.2250 -0.1694 -0.2317
   69POPC   C1B 1258   4.355   8.525   7.920 -0.0042  0.1583  0.4028
   69POPC   C2B 1259   4.809   8.385   7.687  0.1977 -0.1360 -0.3343
   69POPC   C3B 1260   5.037   8.192   7.374  0.2141  0.0921  0.2459
   69POPC   C4B 1261   5.301   8.204   7.061 -0.1923  0.1860 -0.0493
   70POPC   NC3 1262   8.359   7.026   8.795 -0.1873 -0.0454  0.1556
   70POPC   PO4 1263   8.152   7.447   8.628  0.1853  0.0263 -0.3932
   70POPC   GL1 1264   7.888   7.724   8.341  0.0216  0.0969  0.3176
   70POPC   GL2 1265   7.762   7.992   8.369 -0.2172 -0.1911 -0.0410
   70POPC   C1A 1266   8.091   7.944   7.982 -0.1659  0.1814 -0.2398
   70POPC   D2A 1267   8.383   8.017   7.715 -0.2693 -0.1429  0.3459
   70POPC   C3A 1268   8.317   8.110   7.229  0.0374 -0.1037 -0.1798
   70POPC   C4A 1269   8.103   8.313   6.943  0.0917  0.0450  0.1077
   70POPC   C1B 1270   7.461   7.961   7.986  0.2519 -0.3070 -0.4496
   70POPC   C2B 1271   7.071   8.065   7.910  0.0217  0.1348 -0.2861
   70POPC   C3B 1272   6.844   8.501   7.914 -0.3189 -0.1409 -0.1771
   70POPC   C4B 1273   6.957   8.920   7.803  0.0421 -0.1330  0.0180
   71POPC   NC3 1274   4.449   3.771   8.742  0.0127 -0.3424  0.3257
   71POPC   PO4 1275   4.697   3.844   8.432  0.0543  0.2995 -0.2696
   71POPC   GL1 1276   4.933   3.531   8.283 -0.0448 -0.0332 -0.0622
   71POPC   GL2 1277   5.033   3.640   7.977 -0.0540  0.1308  0.1373
   71POPC   C1A 1278   5.223   3.192   7.971  0.4993  0.2206  0.1612
   71POPC   D2A 1279   5.428   2.808   7.649 -0.1850 -0.2973  0.0816
   71POPC   C3A 1280   5.193   2.701   7.304  0.6614  0.0453  0.2633
   71POPC   C4A 1281   4.808   2.863   7.066  0.0057  0.2204  0.0860
   71POPC   C1B 1282   5.259   3.721   7.570  0.1971  0.0514 -0.1514
   71POPC   C2B 1283   5.591   3.692   7.341  0.2015  0.4173 -0.0019
   71POPC   C3B 1284   5.742   3.420   7.071  0.0963 -0.1228  0.0889
   71POPC   C4B 1285   5.599   3.053   7.031  0.0533 -0.0025  0.2601
   72POPC   NC3 1286   1.433   7.481   9.512  0.0129  0.0700 -0.0138
   72POPC   PO4 1287   1.635   7.247   9.198  0.0769 -0.0272 -0.3559
   72POPC   GL1 1288   1.752   7.195   8.739  0.1439 -0.0668 -0.5614
   72POPC   GL2 1289   1.494   7.021   8.641 -0.1344 -0.0237  0.1174
   72POPC   C1A 1290   1.883   7.042   8.349 -0.0740 -0.0065  0.1631
   72POPC   D2A 1291   1.750   7.092   7.866 -0.3454 -0.0875 -0.0458
   72POPC   C3A 1292   1.426   7.296   7.640 -0.0166  0.2316 -0.1279
   72POPC   C4A 1293   1.272   7.726   7.700 -0.1502 -0.0675  0.0789
   72POPC   C1B 1294   1.427   6.878   8.245 -0.1194 -0.1007  0.4300
   72POPC   C2B 1295   1.369   6.751   7.792 -0.0365  0.1883  0.1295
   72POPC   C3B 1296   1.228   6.933   7.491 -0.3631  0.2435 -0.1367
   72POPC   C4B 1297   1.219   7.219   7.152  0.0823 -0.0895  0.3735
   73POPC   NC3 1298   5.987   3.542   9.723 -0.3009 -0.0684 -0.0415
   73POPC   PO4 1299   5.771   3.205   9.347  0.1338  0.0780  0.1278
   73POPC   GL1 1300   5.871   2.919   9.056  0.2898 -0.0328 -0.0608
   73POPC   GL2 1301   6.120   2.719   9.226  0.1585 -0.0397 -0.2646
   73POPC   C1A 1302   5.790   2.811   8.741 -0.0462  0.2495 -0.2907
   73POPC   D2A 1303   5.930   2.864   8.402 -0.1012 -0.1913 -0.2261
   73POPC   C3A 1304   6.246   2.995   8.277 -0.0013 -0.1331  0.2765
   73POPC   C4A 1305   6.710   2.918   8.287 -0.0666  0.1059  0.0816
   73POPC   C1B 1306   6.093   2.386   8.946  0.4785 -0.1523  0.0041
   73POPC   C2B 1307   5.931   2.037   8.814  0.0196 -0.1762 -0.0503
   73POPC   C3B 1308   5.785   1.636   8.589  0.1764  0.1963 -0.0452
   73POPC   C4B 1309   5.854   1.256   8.261 -0.0622  0.1921  0.0202
   74POPC   NC3 1310   8.298   9.246   9.623 -0.1108  0.0603  0.0527
   74POPC   PO4 1311   7.908   9.122   9.374 -0.3406  0.2796 -0.0365
   74POPC   GL1 1312   7.905   9.179   8.892  0.2302 -0.1439 -0.1260
   74POPC   GL2 1313   7.559   9.083   8.782  0.1891 -0.0932  0.0777
   74POPC   C1A 1314   7.896   9.385   8.481  0.1700 -0.1073  0.2372
   74POPC   D2A 1315   7.803   9.181   8.049 -0.0065  0.1048 -0.1071
   74POPC   C3A 1316   7.791   9.459   7.710 -0.1186 -0.1834  0.1285
   74POPC   C4A 1317   7.766   9.665   7.327 -0.1196  0.1539 -0.1426
   74POPC   C1B 1318   7.249   9.427   8.783  0.1154 -0.2259  0.4056
   74POPC   C2B 1319   6.871   9.549   8.757  0.3269 -0.2382  0.1301
   74POPC   C3B 1320   6.505   9.650   8.995 -0.1728  0.0064  0.0500
   74POPC   C4B 1321   6.189   9.640   9.277 -0.1020  0.0408 -0.0540
   75POPC   NC3 1322   5.921   5.946   8.376 -0.2249  0.0387 -0.2534
   75POPC   PO4 1323   5.979   6.280   8.151 -0.1297  0.0535 -0.0836
   75POPC   GL1 1324   6.047   6.329   7.778 -0.1885  0.1649  0.2029
   75POPC   GL2 1325   5.853   6.208   7.506  0.0221  0.0930  0.4236
   75POPC   C1A 1326   6.370   6.196   7.430 -0.1036 -0.3172  0.0918
   75POPC   D2A 1327   6.540   6.167   7.160  0.0946 -0.1519 -0.1207
   75POPC   C3A 1328   6.239   6.108   6.800  0.4089 -0.1324 -0.2032
   75POPC   C4A 1329   5.844   5.994   6.388 -0.0670 -0.0885  0.0263
   75POPC   C1B 1330   5.811   6.188   7.125  0.1723  0.0927 -0.1526
   75POPC   C2B 1331   5.821   6.521   6.849 -0.0249  0.2388 -0.1079
   75POPC   C3B 1332   5.660   6.920   6.639  0.2060 -0.1276  0.2557
   75POPC   C4B 1333   5.386   7.088   6.358  0.1583 -0.2447 -0.3033
   76POPC   NC3 1334   5.835   5.467   8.122  0.2731  0.3586  0.0984
   76POPC   PO4 1335   5.934   5.107   8.321  0.0823 -0.0484 -0.1259
   76POPC   GL1 1336   6.045   4.950   7.894 -0.0423  0.1496  0.0959
   76POPC   GL2 1337   5.980   5.222   7.757  0.1883  0.0479 -0.0367
   76POPC   C1A 1338   6.187   4.835   7.571 -0.1968  0.0496 -0.2295
   76POPC   D2A 1339   6.254   4.814   7.155  0.0967  0.0671 -0.4742
   76POPC   C3A 1340   6.503   4.535   7.076 -0.0759 -0.1418  0.2109
   76POPC   C4A 1341   6.763   4.299   6.800 -0.0915  0.2703  0.4873
   76POPC   C1B 1342   6.014   5.278   7.292  0.2045  0.0555  0.2142
   76POPC   C2B 1343   6.206   5.285   6.871 -0.2248 -0.0211  0.1088
   76POPC   C3B 1344   6.486   5.190   6.611 -0.0198  0.2835 -0.4668
   76POPC   C4B 1345   6.642   5.351   6.258  0.1097 -0.2151 -0.0832
   77POPC   NC3 1346   6.323   4.700   8.274  0.4020 -0.0801 -0.0917
   77POPC   PO4 1347   5.848   4.560   8.212  0.0811 -0.0007  0.1228
   77POPC   GL1 1348   5.830   4.521   7.808  0.0862 -0.1812 -0.2070
   77POPC   GL2 1349   5.547   4.583   7.715  0.2526 -0.0260 -0.2950
   77POPC   C1A 1350   5.844   4.649   7.306 -0.1880  0.0112  0.2858
   77POPC   D2A 1351   5.658   4.482   6.906  0.2707  0.1523  0.2399
   77POPC   C3A 1352   5.328   4.282   6.637 -0.1081 -0.0911  0.0339
   77POPC   C4A 1353   5.264   4.136   6.215  0.0866  0.0192  0.0213
   77POPC   C1B 1354   5.266   4.466   7.303  0.0675  0.1730 -0.1709
   77POPC   C2B 1355   5.122   4.601   6.945 -0.1075  0.1549  0.0116
   77POPC   C3B 1356   5.297   4.969   6.823 -0.1060 -0.1434 -0.0536
   77POPC   C4B 1357   5.221   5.224   6.535 -0.3733 -0.3174 -0.1930
   78POPC   NC3 1358   8.452   2.799   8.673 -0.0881 -0.0683 -0.0090
   78POPC   PO4 1359   8.710   3.116   8.683 -0.0300  0.2697  0.2248
   78POPC   GL1 1360   8.808   3.076   8.284 -0.0553  0.1567  0.0043
   78POPC   GL2 1361   8.646   2.804   8.189  0.3277 -0.2876  0.1154
   78POPC   C1A 1362   9.008   3.298   8.034  0.0114 -0.0224 -0.2170
   78POPC   D2A 1363   9.366   3.484   7.816 -0.1500 -0.2174 -0.0226
   78POPC   C3A 1364   9.555   3.425   7.447  0.1282  0.1178  0.5590
   78POPC   C4A 1365   9.751   3.242   7.117 -0.0850  0.0891 -0.0451
   78POPC   C1B 1366   8.300   2.789   7.990 -0.0454 -0.1457  0.1008
   78POPC   C2B 1367   8.306   2.757   7.545  0.1357  0.0774  0.0096
   78POPC   C3B 1368   8.214   2.791   7.104  0.3438 -0.0387 -0.1433
   78POPC   C4B 1369   8.309   2.434   6.823  0.1171  0.2594 -0.1858
   79POPC   NC3 1370   0.500   0.794   8.708 -0.0012 -0.0091 -0.1562
   79POPC   PO4 1371   0.507   0.993   8.280 -0.2139 -0.2414  0.0713
   79POPC   GL1 1372   0.727   0.821   8.009  0.0237 -0.1167  0.0826
   79POPC   GL2 1373   0.928   0.977   7.865  0.2413 -0.0894 -0.1742
   79POPC   C1A 1374   0.609   0.699   7.535  0.1060  0.1513  0.0523
   79POPC   D2A 1375   0.488   0.671   7.089  0.0524 -0.1437  0.2821
   79POPC   C3A 1376   0.733   0.310   6.888 -0.2877  0.2452 -0.3717
   79POPC   C4A 1377   0.766   0.249   6.459  0.0918 -0.3195  0.0852
   79POPC   C1B 1378   1.050   0.917   7.555  0.1384 -0.0761 -0.0871
   79POPC   C2B 1379   1.346   1.038   7.294  0.2586  0.0991  0.1238
   79POPC   C3B 1380   1.311   1.129   6.803  0.0973  0.2891  0.3941
   79POPC   C4B 1381   1.296   1.035   6.301  0.1017 -0.0387  0.4978
   80POPC   NC3 1382   0.603   9.541   8.836 -0.1107 -0.0351 -0.3716
   80POPC   PO4 1383   0.586   9.804   8.492 -0.0773 -0.3275 -0.2291
   80POPC   GL1 1384   0.468   9.528   8.299 -0.0152  0.2150 -0.3152
   80POPC   GL2 1385   0.704   9.270   8.194 -0.3353 -0.1309  0.3802
   80POPC   C1A 1386   0.007   9.594   8.234 -0.2249  0.0521  0.0707
   80POPC   D2A 1387  -0.390   9.526   8.351  0.0055  0.2505 -0.1304
   80POPC   C3A 1388  -0.662   9.395   7.938 -0.3516 -0.0442 -0.3170
   80POPC   C4A 1389  -0.551   9.184   7.588  0.1973 -0.3312  0.0323
   80POPC   C1B 1390   0.633   9.169   7.803  0.1529  0.1848 -0.1134
   80POPC   C2B 1391   0.377   9.192   7.418 -0.0920  0.0280 -0.2466
   80POPC   C3B 1392  -0.050   9.376   7.229 -0.1640 -0.1577  0.1702
   80POPC   C4B 1393  -0.491   9.249   7.118 -0.1483 -0.1096 -0.0606
   81POPC   NC3 1394   0.082   1.224   8.061  0.2162 -0.2305 -0.0246
   81POPC   PO4 1395  -0.210   1.373   8.349  0.1223  0.0717 -0.1124
   81POPC   GL1 1396  -0.542   1.533   8.160  0.0116 -0.1499 -0.1641
   81POPC   GL2 1397  -0.427   1.501   7.839  0.1609  0.0870 -0.1809
   81POPC   C1A 1398  -0.943   1.474   8.040 -0.2761 -0.1155  0.1368
   81POPC   D2A 1399  -0.823   1.236   7.686  0.4633 -0.1913 -0.0048
   81POPC   C3A 1400  -1.085   0.959   7.455  0.1187 -0.0496 -0.0315
   81POPC   C4A 1401  -1.212   1.012   7.055  0.0292  0.2473  0.1478
   81POPC   C1B 1402  -0.234   1.402   7.447 -0.1028  0.1609  0.0046
   81POPC   C2B 1403  -0.230   1.212   6.989  0.0079 -0.2690 -0.0874
   81POPC   C3B 1404  -0.053   0.914   6.671 -0.2756  0.0595 -0.0460
   81POPC   C4B 1405   0.283   0.660   6.468 -0.3575  0.2463  0.3001
   82POPC   NC3 1406   1.280   6.567   8.811 -0.0070 -0.1653  0.1819
   82POPC   PO4 1407   1.295   6.251   8.859  0.1735 -0.1338  0.0523
   82POPC   GL1 1408   1.168   6.286   8.366 -0.3758  0.0631  0.3883
   82POPC   GL2 1409   1.045   6.642   8.284  0.0347 -0.1699 -0.1053
   82POPC   C1A 1410   1.224   6.273   7.932  0.0774 -0.1564  0.3312
   82POPC   D2A 1411   1.066   6.434   7.578  0.1215 -0.0656  0.0232
   82POPC   C3A 1412   1.321   6.411   7.336  0.2053 -0.0264 -0.0623
   82POPC   C4A 1413   1.713   6.378   7.104 -0.1016  0.2484 -0.3685
   82POPC   C1B 1414   0.769   6.689   7.897  0.1244  0.0492 -0.2609
   82POPC   C2B 1415   0.703   6.799   7.544 -0.3495 -0.2074  0.1476
   82POPC   C3B 1416   0.877   6.793   7.153  0.1805  0.3165  0.4299
   82POPC   C4B 1417   1.274   6.736   6.918 -0.0134  0.0639  0.2628
   83POPC   NC3 1418   8.724   2.272   9.282  0.1985  0.3915  0.1092
   83POPC   PO4 1419   8.889   2.057   8.975 -0.0716 -0.0257 -0.0864
   83POPC   GL1 1420   8.696   1.947   8.670  0.1490 -0.1025  0.1018
   83POPC   GL2 1421   8.866   1.849   8.323 -0.1005  0.0949  0.0851
   83POPC   C1A 1422   8.220   1.851   8.439  0.1947 -0.0009 -0.2425
   83POPC   D2A 1423   8.092   1.818   8.009  0.5375  0.0480 -0.2785
   83POPC   C3A 1424   7.759   1.746   7.712  0.4262  0.0295  0.2669
   83POPC   C4A 1425   7.364   1.808   7.612  0.0177  0.0046 -0.0272
   83POPC   C1B 1426   8.681   1.955   7.842  0.0333 -0.0754 -0.1673
   83POPC   C2B 1427   8.343   1.959   7.594  0.2473 -0.2752  0.0103
   83POPC   C3B 1428   8.078   1.788   7.367 -0.1319 -0.2414 -0.0299
   83POPC   C4B 1429   7.821   1.574   7.119 -0.3363  0.2217  0.1419
   84POPC   NC3 1430   5.026   6.100   8.189 -0.0502  0.1112 -0.3430
   84POPC   PO4 1431   4.711   6.393   8.176 -0.4703 -0.0544 -0.0897
   84POPC   GL1 1432   4.703   6.484   7.813 -0.1559  0.0394  0.4501
   84POPC   GL2 1433   4.994   6.344   7.734  0.1665 -0.1361 -0.1323
   84POPC   C1A 1434   4.811   6.665   7.342 -0.2267 -0.2100 -0.2942
   84POPC   D2A 1435   4.786   6.602   6.960  0.2594  0.2990  0.0680
   84POPC   C3A 1436   4.711   6.848   6.550 -0.1707  0.0110 -0.4979
   84POPC   C4A 1437   4.482   7.010   6.226  0.1129  0.0002 -0.2231
   84POPC   C1B 1438   4.844   6.134   7.429  0.1228  0.4451 -0.2389
   84POPC   C2B 1439   5.090   6.080   7.067  0.1294  0.1157  0.2111
   84POPC   C3B 1440   5.447   6.097   6.806 -0.0763 -0.0459  0.1500
   84POPC   C4B 1441   5.525   6.395   6.482 -0.5665 -0.0277  0.0023
   85POPC   NC3 1442   7.101   8.061   8.901 -0.0652  0.0121 -0.2241
   85POPC   PO4 1443   6.720   7.942   8.598 -0.1265 -0.1922  0.2679
   85POPC   GL1 1444   6.713   7.758   8.104 -0.0526 -0.2489 -0.3982
   85POPC   GL2 1445   6.610   7.541   7.918 -0.3999 -0.1376  0.0474
   85POPC   C1A 1446   6.583   7.986   7.779 -0.0713  0.1219  0.3447
   85POPC   D2A 1447   6.370   8.285   7.492 -0.1001 -0.2248 -0.2770
   85POPC   C3A 1448   6.465   8.409   7.090 -0.0952  0.3251 -0.0422
   85POPC   C4A 1449   6.763   8.398   6.711  0.0484 -0.0648 -0.0402
   85POPC   C1B 1450   7.039   7.627   7.667 -0.0923  0.0815  0.0320
   85POPC   C2B 1451   7.315   7.879   7.383  0.4286  0.1756  0.0211
   85POPC   C3B 1452   7.209   8.112   7.119 -0.0258 -0.3091  0.1095
   85POPC   C4B 1453   7.240   8.520   7.044  0.0299  0.4026 -0.1928
   86POPC   NC3 1454   9.572   6.761   8.633 -0.3691  0.3123 -0.1839
   86POPC   PO4 1455   9.308   7.179   8.570  0.2600  0.1259 -0.2881
   86POPC   GL1 1456   9.270   7.114   8.193 -0.0160 -0.0648  0.1896
   86POPC   GL2 1457   9.597   7.102   8.030  0.0196  0.0825 -0.0199
   86POPC   C1A 1458   9.294   7.311   7.682 -0.0516 -0.1280 -0.1658
   86POPC   D2A 1459   9.137   7.043   7.409  0.2502  0.0536 -0.0793
   86POPC   C3A 1460   9.090   6.926   7.127  0.3811  0.0289  0.0493
   86POPC   C4A 1461   9.089   7.007   6.685 -0.0252  0.0276 -0.1206
   86POPC   C1B 1462   9.607   6.922   7.687  0.2698  0.0816  0.0465
   86POPC   C2B 1463   9.635   6.866   7.304  0.1911  0.0530 -0.2404
   86POPC   C3B 1464   9.824   6.900   6.983  0.0154 -0.2473 -0.2879
   86POPC   C4B 1465  10.161   7.230   6.849  0.0472 -0.0929 -0.1385
   87POPC   NC3 1466   0.569   8.187   9.185  0.1337 -0.0856  0.0945
   87POPC   PO4 1467   0.778   8.242   8.771 -0.0052 -0.0834  0.3130
   87POPC   GL1 1468   0.874   8.341   8.265 -0.0551  0.1359 -0.1759
   87POPC   GL2 1469   0.689   8.167   8.086  0.3059 -0.0194  0.5062
   87POPC   C1A 1470   0.886   8.653   7.941  0.0510 -0.1938 -0.2802
   87POPC   D2A 1471   0.961   8.867   7.569  0.1479  0.1577 -0.1677
   87POPC   C3A 1472   1.149   8.610   7.310 -0.1725 -0.0844  0.2137
   87POPC   C4A 1473   1.451   8.641   6.974 -0.2063 -0.1106 -0.1320
   87POPC   C1B 1474   0.759   7.765   7.799  0.2104 -0.0462  0.1559
   87POPC   C2B 1475   0.920   7.632   7.320  0.4559 -0.1086 -0.1804
   87POPC   C3B 1476   0.959   7.638   6.883 -0.0991 -0.1006 -0.0884
   87POPC   C4B 1477   0.936   7.947   6.627 -0.1223 -0.3284  0.1610
   88POPC   NC3 1478   0.207   3.682   8.250  0.4879 -0.3321  0.0600
   88POPC   PO4 1479  -0.119   3.882   8.196  0.2997 -0.4864  0.0509
   88POPC   GL1 1480  -0.078   3.732   7.843 -0.0414  0.3679  0.0664
   88POPC   GL2 1481   0.046   3.475   7.768 -0.2072  0.5036  0.1604
   88POPC   C1A 1482   0.011   3.788   7.378 -0.1988  0.0568  0.1058
   88POPC   D2A 1483  -0.044   3.668   6.908  0.0441 -0.2095  0.0120
   88POPC   C3A 1484  -0.246   3.885   6.615 -0.1255 -0.1942 -0.0800
   88POPC   C4A 1485  -0.177   4.199   6.307  0.2202 -0.0034  0.1004
   88POPC   C1B 1486   0.065   3.145   7.580 -0.0428 -0.1702 -0.1213
   88POPC   C2B 1487   0.274   2.975   7.246  0.1232 -0.0040 -0.0307
   88POPC   C3B 1488   0.218   2.481   7.252  0.0370  0.1307  0.0586
   88POPC   C4B 1489   0.284   2.043   7.384 -0.3947 -0.1353  0.2719
   89POPC   NC3 1490   1.285   8.573   8.590  0.3155  0.2673  0.3309
   89POPC   PO4 1491   1.412   8.085   8.593  0.0940 -0.2271  0.1708
   89POPC   GL1 1492   1.491   7.883   8.188 -0.1090  0.0978  0.3846
   89POPC   GL2 1493   1.706   7.906   7.989  0.0494  0.1377  0.0076
   89POPC   C1A 1494   1.445   7.391   8.111 -0.1952 -0.0915 -0.0984
   89POPC   D2A 1495   1.098   7.125   7.979  0.1122 -0.0466  0.2150
   89POPC   C3A 1496   0.864   7.289   7.660 -0.1020 -0.1845 -0.0719
   89POPC   C4A 1497   0.609   7.272   7.254 -0.2003  0.1142  0.3836
   89POPC   C1B 1498   1.671   8.073   7.586  0.0445  0.1343  0.2223
   89POPC   C2B 1499   1.590   8.376   7.385  0.1274  0.0967 -0.0320
   89POPC   C3B 1500   1.325   8.166   7.102 -0.1217  0.1466 -0.1481
   89POPC   C4B 1501   1.421   7.823   6.689 -0.3785  0.1459  0.1997
   90POPC   NC3 1502   7.941   4.331   8.780  0.2827 -0.2780 -0.2325
   90POPC   PO4 1503   7.803   3.916   9.088 -0.0759 -0.1414 -0.0289
   90POPC   GL1 1504   7.706   3.799   8.701  0.0465 -0.0105  0.2291
   90POPC   GL2 1505   7.552   3.448   8.606 -0.0623 -0.0573 -0.1112
   90POPC   C1A 1506   7.851   3.609   8.246 -0.3048 -0.0981  0.2307
   90POPC   D2A 1507   8.024   3.673   7.858  0.0510  0.3272  0.2178
   90POPC   C3A 1508   7.756   3.488   7.541 -0.0240 -0.4191  0.4885
   90POPC   C4A 1509   7.674   3.553   7.149  0.1100 -0.2143 -0.1536
   90POPC   C1B 1510   7.630   3.145   8.255  0.3222  0.1636  0.1227
   90POPC   C2B 1511   7.842   3.170   7.945  0.0994  0.3677 -0.0300
   90POPC   C3B 1512   8.172   3.224   7.589 -0.2090  0.0379  0.3176
   90POPC   C4B 1513   8.466   3.225   7.246 -0.3125  0.1440 -0.2035
   91POPC   NC3 1514   2.084   7.051   9.285  0.1515 -0.2430 -0.2342
   91POPC   PO4 1515   2.268   6.644   9.129 -0.0288 -0.0733  0.2897
   91POPC   GL1 1516   2.051   6.560   8.721  0.0231 -0.0332  0.0164
   91POPC   GL2 1517   1.712   6.528   8.586  0.0279 -0.1813 -0.3290
   91POPC   C1A 1518   2.243   6.669   8.311 -0.0730  0.0668 -0.0066
   91POPC   D2A 1519   2.479   6.531   8.002  0.0708  0.3204  0.1192
   91POPC   C3A 1520   2.662   6.133   7.780  0.0897  0.0020 -0.2019
   91POPC   C4A 1521   2.847   5.755   7.866 -0.0475  0.0667 -0.0276
   91POPC   C1B 1522   1.757   6.530   8.052 -0.1172  0.1163 -0.2098
   91POPC   C2B 1523   1.673   6.259   7.688 -0.0648  0.2523 -0.1431
   91POPC   C3B 1524   1.836   5.981   7.357 -0.0483  0.0708 -0.1045
   91POPC   C4B 1525   1.709   5.621   7.254  0.0100 -0.0764  0.0860
   92POPC   NC3 1526   8.255   7.970   8.627  0.1295  0.2188 -0.0423
   92POPC   PO4 1527   7.962   8.281   8.714  0.0057  0.1736  0.3790
   92POPC   GL1 1528   8.106   8.381   8.300  0.2112  0.5874  0.3495
   92POPC   GL2 1529   8.486   8.170   8.237  0.3031 -0.2081 -0.0602
   92POPC   C1A 1530   7.908   8.448   7.991 -0.0112 -0.1700  0.0268
   92POPC   D2A 1531   8.064   8.401   7.633  0.0696 -0.0864  0.0007
   92POPC   C3A 1532   8.211   8.661   7.274 -0.0814 -0.0464  0.0080
   92POPC   C4A 1533   7.932   8.768   6.917 -0.1241  0.0338  0.0270
   92POPC   C1B 1534   8.480   8.417   7.912  0.0096  0.0324  0.1524
   92POPC   C2B 1535   8.561   8.719   7.590  0.1121  0.2907 -0.1095
   92POPC   C3B 1536   8.622   8.834   7.167 -0.0462 -0.1260 -0.0111
   92POPC   C4B 1537   8.692   9.079   6.778  0.1491 -0.1012 -0.2113
   93POPC   NC3 1538   0.464   5.075   8.901 -0.3309  0.1269  0.0004
   93POPC   PO4 1539   0.913   4.988   8.871 -0.0056 -0.3791 -0.0309
   93POPC   GL1 1540   1.107   5.080   8.461  0.0387 -0.4926  0.1841
   93POPC   GL2 1541   1.091   5.355   8.342  0.0086 -0.1299  0.0639
   93POPC   C1A 1542   1.189   4.851   8.062  0.1457 -0.0203 -0.0735
   93POPC   D2A 1543   1.166   4.414   7.846  0.2124 -0.1539  0.3345
   93POPC   C3A 1544   1.417   4.232   7.592 -0.0037 -0.0233 -0.1894
   93POPC   C4A 1545   1.377   4.008   7.289 -0.1893 -0.0079  0.0944
   93POPC   C1B 1546   0.948   5.263   8.009 -0.1726 -0.0781 -0.2732
   93POPC   C2B 1547   1.116   5.435   7.678  0.1827 -0.0243  0.0610
   93POPC   C3B 1548   1.170   5.547   7.253  0.1750  0.0059 -0.2299
   93POPC   C4B 1549   0.869   5.630   7.006 -0.1159  0.0031 -0.2290
   94POPC   NC3 1550   4.278   0.411   9.806  0.1628  0.1070  0.0765
   94POPC   PO4 1551   4.283   0.555   9.450 -0.1440 -0.1816  0.1905
   94POPC   GL1 1552   4.449   0.432   9.039 -0.5427 -0.0073  0.0759
   94POPC   GL2 1553   4.333   0.126   8.834  0.0792 -0.0611 -0.1660
   94POPC   C1A 1554   4.846   0.284   8.876  0.1846  0.0758 -0.1596
   94POPC   D2A 1555   5.225  -0.055   8.765 -0.0951 -0.1743 -0.1888
   94POPC   C3A 1556   5.283  -0.244   8.422 -0.0153  0.1817 -0.1353
   94POPC   C4A 1557   5.599  -0.389   8.009  0.1232  0.0160  0.0387
   94POPC   C1B 1558   4.513   0.339   8.488  0.2645 -0.2580  0.0996
   94POPC   C2B 1559   4.445   0.351   8.040  0.5775 -0.1112  0.0220
   94POPC   C3B 1560   4.243   0.071   7.712 -0.1169 -0.2119 -0.0908
   94POPC   C4B 1561   4.529  -0.013   7.323 -0.0887  0.2147  0.3388
   95POPC   NC3 1562   9.813   7.270   8.502 -0.1582 -0.2012 -0.1317
   95POPC   PO4 1563  10.146   7.465   8.520 -0.1974  0.0830 -0.3570
   95POPC   GL1 1564  10.066   7.231   8.050 -0.1640 -0.5492 -0.5588
   95POPC   GL2 1565  10.319   6.994   7.899  0.4623  0.1686  0.0082
   95POPC   C1A 1566   9.852   7.523   7.763 -0.0262  0.1558 -0.1229
   95POPC   D2A 1567   9.778   7.858   7.385 -0.3130 -0.2821 -0.0650
   95POPC   C3A 1568   9.890   7.662   6.985 -0.1207 -0.0795  0.0363
   95POPC   C4A 1569   9.903   7.596   6.535 -0.0306 -0.1352  0.1216
   95POPC   C1B 1570  10.105   6.958   7.483  0.2981  0.1423 -0.0404
   95POPC   C2B 1571   9.902   7.276   7.307 -0.0136  0.1488 -0.1658
   95POPC   C3B 1572   9.505   7.448   7.214 -0.1149 -0.1601 -0.2837
   95POPC   C4B 1573   9.058   7.431   7.019  0.0218 -0.1375  0.0122
   96POPC   NC3 1574   2.564   2.649   9.055 -0.6670 -0.0106  0.0494
   96POPC   PO4 1575   2.595   2.562   8.653 -0.1140  0.2991 -0.1830
   96POPC   GL1 1576   2.774   2.654   8.223 -0.2183  0.1337  0.1355
   96POPC   GL2 1577   2.677   2.394   7.981  0.0667 -0.1477  0.2415
   96POPC   C1A 1578   2.739   2.902   7.913  0.0789 -0.1090  0.2202
   96POPC   D2A 1579   2.634   3.263   7.638 -0.3359  0.1731  0.3752
   96POPC   C3A 1580   2.434   3.367   7.393 -0.1556  0.2368 -0.3108
   96POPC   C4A 1581   2.236   3.125   7.093 -0.0644 -0.3361 -0.2621
   96POPC   C1B 1582   2.918   2.499   7.678 -0.0880  0.1206 -0.0040
   96POPC   C2B 1583   2.933   2.366   7.296  0.0058  0.1922 -0.1623
   96POPC   C3B 1584   2.586   2.203   6.972  0.4308 -0.1461  0.2011
   96POPC   C4B 1585   2.467   1.914   6.537  0.2924  0.0349  0.0846
   97POPC   NC3 1586   6.957   7.472   8.439  0.0953 -0.1055  0.0187
   97POPC   PO4 1587   7.173   7.123   8.542  0.1417  0.2667 -0.2812
   97POPC   GL1 1588   7.333   7.307   8.127 -0.1937  0.1959  0.2010
   97POPC   GL2 1589   7.431   7.488   8.125  0.1528  0.2053 -0.1202
   97POPC   C1A 1590   7.441   7.227   7.667 -0.1101 -0.1280  0.0810
   97POPC   D2A 1591   7.331   6.954   7.490  0.0885 -0.1563 -0.2219
   97POPC   C3A 1592   7.356   6.930   7.039 -0.0842 -0.2307 -0.4541
   97POPC   C4A 1593   7.566   7.222   6.846 -0.0105  0.2833 -0.2165
   97POPC   C1B 1594   7.731   7.564   7.822  0.2834 -0.0496  0.1869
   97POPC   C2B 1595   7.853   7.962   7.539  0.1116  0.2343 -0.0203
   97POPC   C3B 1596   7.742   8.304   7.230 -0.0163  0.0707 -0.1769
   97POPC   C4B 1597   7.672   8.601   7.386  0.0867 -0.3383  0.6084
   98POPC   NC3 1598   7.353   5.051   8.684  0.0927  0.1611  0.0073
   98POPC   PO4 1599   6.938   4.833   8.519  0.0527 -0.1398  0.0577
   98POPC   GL1 1600   6.853   4.725   8.137  0.0618 -0.1637  0.1120
   98POPC   GL2 1601   7.051   4.919   7.962  0.0646 -0.2776 -0.1893
   98POPC   C1A 1602   6.627   4.705   7.714  0.0814  0.2111  0.3391
   98POPC   D2A 1603   6.842   4.722   7.380 -0.1294  0.4433 -0.4359
   98POPC   C3A 1604   7.145   4.454   7.164 -0.2082 -0.2534 -0.0868
   98POPC   C4A 1605   7.220   4.430   6.704  0.3847 -0.0782 -0.0947
   98POPC   C1B 1606   7.373   4.816   7.694 -0.0002 -0.1587  0.1220
   98POPC   C2B 1607   7.587   4.400   7.445 -0.0909 -0.0766 -0.0362
   98POPC   C3B 1608   7.850   3.969   7.411 -0.0155  0.0635 -0.1256
   98POPC   C4B 1609   8.146   3.646   7.273  0.0822 -0.3224 -0.3189
   99POPC   NC3 1610   6.007   8.701  10.190  0.0117  0.1456  0.1215
   99POPC   PO4 1611   5.983   9.061   9.882 -0.2122  0.0618  0.1142
   99POPC   GL1 1612   6.065   9.107   9.390  0.0336  0.2075 -0.2797
   99POPC   GL2 1613   5.817   8.990   9.114 -0.1243 -0.0854  0.0369
   99POPC   C1A 1614   5.735   9.461   9.200 -0.0129  0.0717  0.0089
   99POPC   D2A 1615   5.736   9.680   8.749  0.1695 -0.2920  0.1868
   99POPC   C3A 1616   5.910   9.458   8.410  0.0350  0.2253 -0.0033
   99POPC   C4A 1617   6.111   9.538   8.036 -0.3423 -0.2160  0.2492
   99POPC   C1B 1618   5.635   9.171   8.752 -0.1040  0.2846  0.1973
   99POPC   C2B 1619   5.667   9.001   8.288  0.2071 -0.1051 -0.0945
   99POPC   C3B 1620   5.787   9.021   7.877  0.2571 -0.0038 -0.0158
   99POPC   C4B 1621   5.499   9.062   7.547  0.2207 -0.0455 -0.1353
  100POPC   NC3 1622   6.639   2.772   9.420  0.2938 -0.1154  0.3577
  100POPC   PO4 1623   7.084   2.647   9.288  0.1338 -0.2278  0.3777
  100POPC   GL1 1624   6.858   2.404   9.019 -0.2520  0.3254 -0.1560
  100POPC   GL2 1625   6.538   2.503   9.063 -0.1952 -0.1202  0.2823
  100POPC   C1A 1626   6.826   2.077   8.735  0.0749 -0.1469 -0.0089
  100POPC   D2A 1627   6.813   1.901   8.334  0.0012  0.1393 -0.0488
  100POPC   C3A 1628   7.070   1.645   8.146  0.1866 -0.1670 -0.3107
  100POPC   C4A 1629   6.913   1.378   7.918  0.0313 -0.2103  0.2043
  100POPC   C1B 1630   6.464   2.588   8.646  0.1674  0.0579  0.0427
  100POPC   C2B 1631   6.345   2.491   8.192  0.4008 -0.0475  0.0236
  100POPC   C3B 1632   6.482   2.379   7.755  0.0938 -0.3283 -0.0590
  100POPC   C4B 1633   6.499   2.111   7.396 -0.2314 -0.0434  0.0483
  101POPC   NC3 1634   2.206   9.152   8.527  0.0204 -0.3295 -0.0866
  101POPC   PO4 1635   2.536   8.883   8.547 -0.0003 -0.2291 -0.1785
  101POPC   GL1 1636   2.651   8.905   8.168 -0.1514 -0.0473  0.1585
  101POPC   GL2 1637   2.394   8.835   7.937  0.0210 -0.0352  0.1778
  101POPC   C1A 1638   2.765   9.273   7.873  0.0159 -0.3823  0.3795
  101POPC   D2A 1639   2.676   9.462   7.582 -0.2641 -0.1030 -0.3438
  101POPC   C3A 1640   2.670   9.196   7.273 -0.4470  0.3212  0.2357
  101POPC   C4A 1641   2.942   8.862   7.099  0.1211  0.1486 -0.1542
  101POPC   C1B 1642   2.183   8.584   7.519  0.4579 -0.0483  0.1575
  101POPC   C2B 1643   2.085   8.235   7.239 -0.2814 -0.0655  0.0877
  101POPC   C3B 1644   1.744   8.225   6.890 -0.1171  0.1415 -0.1792
  101POPC   C4B 1645   1.485   8.352   6.480 -0.3421 -0.0482  0.1820
  102POPC   NC3 1646   2.174   0.113   8.662 -0.2912  0.0587 -0.0005
  102POPC   PO4 1647   2.035   0.407   8.476  0.1288 -0.0193  0.0976
  102POPC   GL1 1648   1.982   0.293   8.039 -0.0569  0.2608  0.0706
  102POPC   GL2 1649   1.659   0.265   8.006  0.5146 -0.0532 -0.0945
  102POPC   C1A 1650   1.900   0.327   7.561  0.1122 -0.0506 -0.0036
  102POPC   D2A 1651   1.706  -0.047   7.205  0.0038  0.2368  0.1689
  102POPC   C3A 1652   1.882  -0.148   6.775  0.1574  0.1755 -0.3501
  102POPC   C4A 1653   2.057  -0.503   6.504 -0.1813 -0.1185 -0.0169
  102POPC   C1B 1654   1.370   0.157   7.732 -0.2625 -0.0909 -0.0450
  102POPC   C2B 1655   1.062   0.407   7.457 -0.3916  0.1021  0.0448
  102POPC   C3B 1656   0.691   0.227   7.387  0.2987 -0.1462  0.0930
  102POPC   C4B 1657   0.309   0.295   7.532  0.1290  0.1403 -0.2089
  103POPC   NC3 1658   9.262   5.001   8.734 -0.0738 -0.0261 -0.1255
  103POPC   PO4 1659   9.205   5.347   8.403  0.3309 -0.0085  0.2806
  103POPC   GL1 1660   9.259   5.460   7.970 -0.2524 -0.0864 -0.0663
  103POPC   GL2 1661   9.383   5.101   7.976 -0.0739  0.0114 -0.0326
  103POPC   C1A 1662   9.240   5.462   7.518  0.1566  0.0450  0.1125
  103POPC   D2A 1663   9.042   5.372   7.062  0.2894 -0.0033  0.1108
  103POPC   C3A 1664   9.382   5.606   6.789  0.0994 -0.0882 -0.1231
  103POPC   C4A 1665   9.854   5.744   6.721  0.0129 -0.5452 -0.1301
  103POPC   C1B 1666   8.967   5.078   7.830 -0.2808 -0.3852 -0.2832
  103POPC   C2B 1667   8.803   5.203   7.536 -0.2054  0.1720  0.2701
  103POPC   C3B 1668   8.942   4.920   7.198  0.0215 -0.1478 -0.2356
  103POPC   C4B 1669   9.072   4.767   6.731  0.0249  0.2656 -0.0798
  104POPC   NC3 1670   7.362   8.749   9.182 -0.2924  0.2013 -0.1095
  104POPC   PO4 1671   6.865   8.469   9.088 -0.0159 -0.2429  0.1024
  104POPC   GL1 1672   6.632   8.738   8.834  0.0179 -0.1239 -0.1421
  104POPC   GL2 1673   6.354   8.865   8.984  0.0172 -0.0801  0.0085
  104POPC   C1A 1674   6.673   9.124   8.646  0.1144 -0.2295  0.3340
  104POPC   D2A 1675   6.542   9.427   8.338 -0.2358 -0.1010  0.1717
  104POPC   C3A 1676   6.881   9.655   8.150 -0.1553  0.0322 -0.1715
  104POPC   C4A 1677   7.061  10.009   8.213  0.2159 -0.2160 -0.0623
  104POPC   C1B 1678   6.220   9.285   8.849  0.3654  0.0763 -0.3775
  104POPC   C2B 1679   6.204   9.733   8.638  0.0432 -0.0872 -0.1732
  104POPC   C3B 1680   6.248  10.058   8.241 -0.2977 -0.0215 -0.0519
  104POPC   C4B 1681   6.054  10.471   8.181 -0.0157 -0.0463 -0.0086
  105POPC   NC3 1682   9.072   2.759   8.617  0.3390  0.0393  0.1628
  105POPC   PO4 1683   8.758   2.532   8.831  0.1207 -0.0427 -0.0499
  105POPC   GL1 1684   8.709   2.382   8.491 -0.1237  0.0979  0.0810
  105POPC   GL2 1685   8.907   2.366   8.343 -0.1903  0.1901 -0.1161
  105POPC   C1A 1686   8.419   2.271   8.164 -0.3096  0.1176 -0.1435
  105POPC   D2A 1687   8.148   2.365   7.806 -0.0591  0.2099 -0.1670
  105POPC   C3A 1688   8.080   2.316   7.329 -0.0905  0.1331 -0.0864
  105POPC   C4A 1689   7.738   2.521   7.192 -0.0008 -0.1019  0.2578
  105POPC   C1B 1690   8.878   2.426   7.962  0.2984 -0.0175  0.2120
  105POPC   C2B 1691   8.571   2.370   7.531 -0.5539 -0.2618 -0.0501
  105POPC   C3B 1692   8.597   2.239   7.165 -0.0361  0.2793 -0.0807
  105POPC   C4B 1693   8.392   1.850   6.982 -0.1618 -0.4153 -0.0646
  106POPC   NC3 1694   8.296   4.590   8.963 -0.2051 -0.1876  0.4211
  106POPC   PO4 1695   8.613   4.815   8.841 -0.0327  0.0470  0.2850
  106POPC   GL1 1696   8.432   4.550   8.482  0.0722  0.1502  0.2810
  106POPC   GL2 1697   8.580   4.243   8.359  0.0239  0.0819 -0.0243
  106POPC   C1A 1698   8.232   4.768   8.146  0.1966  0.0346 -0.0860
  106POPC   D2A 1699   7.954   4.820   7.896 -0.1771 -0.0631 -0.4396
  106POPC   C3A 1700   7.929   4.844   7.462 -0.0945  0.0397  0.3494
  106POPC   C4A 1701   8.172   4.825   7.081  0.0914 -0.0020  0.0240
  106POPC   C1B 1702   8.494   3.982   8.009  0.4289  0.1630 -0.0525
  106POPC   C2B 1703   8.447   3.849   7.569 -0.2014 -0.0912 -0.0470
  106POPC   C3B 1704   8.639   3.718   7.193  0.0513  0.1217 -0.2679
  106POPC   C4B 1705   8.733   3.889   6.790 -0.0727 -0.0790  0.0574
  107POPC   NC3 1706   0.155   1.117   8.560 -0.1214 -0.2527 -0.3097
  107POPC   PO4 1707   0.043   0.799   8.979  0.1311  0.2813  0.0860
  107POPC   GL1 1708   0.006   0.607   8.612  0.1129 -0.0289  0.0830
  107POPC   GL2 1709   0.114   0.695   8.293  0.1009 -0.2034 -0.1647
  107POPC   C1A 1710  -0.204   0.360   8.371  0.1440 -0.0204 -0.0712
  107POPC   D2A 1711  -0.512   0.114   8.258  0.0828  0.1143  0.2136
  107POPC   C3A 1712  -0.541  -0.043   7.861 -0.4747 -0.0977  0.2388
  107POPC   C4A 1713  -0.607  -0.177   7.406  0.2671  0.3666 -0.1750
  107POPC   C1B 1714   0.145   0.639   7.847 -0.1258 -0.0220 -0.0292
  107POPC   C2B 1715  -0.148   0.445   7.535  0.0212 -0.3459 -0.2319
  107POPC   C3B 1716  -0.447   0.294   7.268 -0.2824 -0.1957 -0.0772
  107POPC   C4B 1717  -0.467  -0.114   6.989 -0.0980  0.1617  0.2068
  108POPC   NC3 1718   5.707   8.059   8.871 -0.1823  0.0091 -0.0632
  108POPC   PO4 1719   5.635   7.830   8.481 -0.0926  0.0727 -0.5672
  108POPC   GL1 1720   5.421   8.226   8.409 -0.0093 -0.2486  0.1788
  108POPC   GL2 1721   5.114   8.209   8.178 -0.1382  0.0878  0.2315
  108POPC   C1A 1722   5.228   8.590   8.494  0.2847 -0.1664  0.2246
  108POPC   D2A 1723   5.235   8.957   8.488 -0.0023 -0.0541 -0.0748
  108POPC   C3A 1724   4.876   9.255   8.310  0.0752  0.0552 -0.0323
  108POPC   C4A 1725   5.031   9.511   8.028 -0.0536 -0.1278  0.0308
  108POPC   C1B 1726   5.288   8.166   7.789 -0.1462 -0.0918 -0.1728
  108POPC   C2B 1727   5.525   8.091   7.478 -0.0542  0.1185 -0.0441
  108POPC   C3B 1728   5.890   8.102   7.389  0.2514  0.0388  0.3149
  108POPC   C4B 1729   6.164   7.907   7.230  0.1831  0.3775 -0.1424
  109POPC   NC3 1730   9.822   0.261   9.020 -0.1104 -0.1303  0.1493
  109POPC   PO4 1731  10.286   0.318   8.728 -0.3042 -0.2542 -0.2304
  109POPC   GL1 1732  10.168   0.193   8.248  0.2290 -0.0708  0.2939
  109POPC   GL2 1733  10.411   0.127   8.060 -0.0579  0.0193  0.1037
  109POPC   C1A 1734   9.833   0.160   7.912 -0.0933 -0.1166 -0.2493
  109POPC   D2A 1735   9.740  -0.047   7.546 -0.0290  0.2108 -0.0134
  109POPC   C3A 1736   9.829  -0.494   7.734 -0.1792  0.2873 -0.0354
  109POPC   C4A 1737   9.915  -0.924   7.679  0.1230  0.3461  0.2677
  109POPC   C1B 1738  10.246  -0.173   7.808  0.3804  0.2526  0.0830
  109POPC   C2B 1739  10.213  -0.215   7.432 -0.1865 -0.0753 -0.0778
  109POPC   C3B 1740  10.507  -0.186   7.136  0.0224 -0.0548  0.1180
  109POPC   C4B 1741  10.822  -0.171   6.791  0.0120 -0.0454 -0.0621
  110POPC   NC3 1742   4.223   2.932   8.865  0.1961  0.4097  0.1362
  110POPC   PO4 1743   4.041   3.398   8.688 -0.3047  0.2223 -0.1326
  110POPC   GL1 1744   4.082   3.053   8.396 -0.1299  0.0613  0.0844
  110POPC   GL2 1745   3.892   3.095   8.196  0.1237 -0.1916 -0.4095
  110POPC   C1A 1746   4.472   2.973   8.179 -0.2544 -0.0185  0.0377
  110POPC   D2A 1747   4.381   2.588   8.036 -0.0108 -0.0457  0.2828
  110POPC   C3A 1748   4.714   2.274   7.980 -0.2554 -0.0047  0.0162
  110POPC   C4A 1749   5.067   2.243   7.663  0.0754 -0.1441  0.1001
  110POPC   C1B 1750   3.964   2.759   7.821 -0.0782 -0.3958 -0.2414
  110POPC   C2B 1751   4.234   2.710   7.451  0.1044 -0.1107 -0.0450
  110POPC   C3B 1752   4.281   2.826   6.994  0.3111 -0.3530  0.1176
  110POPC   C4B 1753   4.090   2.975   6.627  0.0446  0.0380 -0.1127
  111POPC   NC3 1754   6.141   6.843   7.965  0.1213  0.0632  0.0020
  111POPC   PO4 1755   6.210   7.232   8.082 -0.4188 -0.3325 -0.1610
  111POPC   GL1 1756   6.316   7.226   7.701 -0.1224  0.1495 -0.1596
  111POPC   GL2 1757   6.622   7.067   7.741  0.2036  0.1489 -0.0195
  111POPC   C1A 1758   6.423   7.194   7.215  0.0529  0.1536  0.0873
  111POPC   D2A 1759   6.471   7.057   6.729  0.1059  0.0213  0.1215
  111POPC   C3A 1760   6.579   7.407   6.421  0.0145 -0.2076  0.1981
  111POPC   C4A 1761   6.523   7.910   6.424 -0.0988  0.1872 -0.2667
  111POPC   C1B 1762   6.888   7.282   7.365 -0.0243  0.0308 -0.0333
  111POPC   C2B 1763   7.214   7.436   7.230 -0.0726  0.0762  0.1878
  111POPC   C3B 1764   7.303   7.674   6.742 -0.0330 -0.1346  0.0852
  111POPC   C4B 1765   7.017   7.905   6.492  0.1575 -0.2091  0.1005
  112POPC   NC3 1766   9.469   5.718   8.450  0.0489 -0.0787  0.1037
  112POPC   PO4 1767   9.828   5.732   8.530 -0.2923  0.1998 -0.1139
  112POPC   GL1 1768  10.011   5.665   8.175  0.2040 -0.3241 -0.0413
  112POPC   GL2 1769  10.084   5.968   8.066 -0.0920 -0.1067 -0.0013
  112POPC   C1A 1770   9.722   5.536   7.766 -0.0115 -0.0919  0.0455
  112POPC   D2A 1771   9.351   5.896   7.695 -0.1715 -0.0489 -0.0755
  112POPC   C3A 1772   9.069   5.861   7.302 -0.0072 -0.2177 -0.2875
  112POPC   C4A 1773   9.063   6.049   6.855  0.0300 -0.0193 -0.1946
  112POPC   C1B 1774   9.972   5.992   7.618 -0.3634  0.3232 -0.2991
  112POPC   C2B 1775   9.628   5.932   7.297 -0.2051  0.0203 -0.1360
  112POPC   C3B 1776   9.500   6.249   6.923 -0.0870  0.5725 -0.2998
  112POPC   C4B 1777   9.372   6.581   6.787  0.0845  0.0975  0.0108
  113POPC   NC3 1778   6.991   4.400   8.743  0.1308 -0.1487 -0.0756
  113POPC   PO4 1779   6.679   4.360   8.397  0.0760 -0.0417 -0.0486
  113POPC   GL1 1780   6.490   4.125   8.079  0.3297  0.2716 -0.2380
  113POPC   GL2 1781   6.279   4.332   7.951 -0.0659  0.1555  0.0654
  113POPC   C1A 1782   6.300   3.843   7.719 -0.3207 -0.1096  0.1457
  113POPC   D2A 1783   6.115   3.556   7.467 -0.0421 -0.2760 -0.0388
  113POPC   C3A 1784   6.203   3.619   7.043 -0.2856 -0.1069 -0.2815
  113POPC   C4A 1785   6.102   3.227   6.711  0.0200 -0.1668  0.0873
  113POPC   C1B 1786   6.261   4.290   7.507  0.0757 -0.2543  0.1072
  113POPC   C2B 1787   6.120   4.233   7.003  0.0290 -0.2801  0.1260
  113POPC   C3B 1788   5.789   4.001   6.769  0.0916 -0.1272  0.0563
  113POPC   C4B 1789   5.651   3.587   6.614  0.1133 -0.2433 -0.1279
  114POPC   NC3 1790   0.854   5.975   8.818 -0.1944 -0.0760 -0.3664
  114POPC   PO4 1791   0.799   6.412   8.733 -0.3556  0.2082 -0.0923
  114POPC   GL1 1792   0.678   6.370   8.316 -0.1522  0.0760 -0.2871
  114POPC   GL2 1793   0.400   6.473   8.181 -0.3136 -0.1858 -0.0631
  114POPC   C1A 1794   0.707   6.196   7.866  0.0525  0.2161 -0.0916
  114POPC   D2A 1795   0.655   6.151   7.455  0.3004 -0.1819 -0.1731
  114POPC   C3A 1796   0.476   6.468   7.216 -0.0635  0.5779 -0.0797
  114POPC   C4A 1797   0.435   6.793   6.943 -0.3701 -0.0389 -0.0384
  114POPC   C1B 1798   0.226   6.495   7.737 -0.0276 -0.2793  0.0719
  114POPC   C2B 1799  -0.005   6.372   7.348  0.1844  0.0325 -0.4368
  114POPC   C3B 1800   0.064   6.428   6.959 -0.3309  0.0381  0.0018
  114POPC   C4B 1801   0.007   6.236   6.600  0.0298 -0.0523  0.0925
  115POPC   NC3 1802   4.221   4.335   8.521  0.1167 -0.0744  0.3725
  115POPC   PO4 1803   4.136   4.862   8.374 -0.0167  0.1846  0.0028
  115POPC   GL1 1804   4.154   4.977   7.924 -0.0967 -0.0291  0.1886
  115POPC   GL2 1805   4.085   5.293   7.860 -0.0906  0.2398 -0.0977
  115POPC   C1A 1806   4.046   4.808   7.685 -0.0517 -0.1294  0.6674
  115POPC   D2A 1807   3.808   4.680   7.354 -0.2088 -0.1863 -0.0603
  115POPC   C3A 1808   3.950   4.176   7.289  0.0887  0.2417  0.1081
  115POPC   C4A 1809   4.325   3.878   7.334 -0.0005  0.0412  0.1256
  115POPC   C1B 1810   4.110   5.272   7.481 -0.1504 -0.0164  0.2330
  115POPC   C2B 1811   4.092   5.012   7.138  0.0098  0.2358  0.2716
  115POPC   C3B 1812   4.153   4.564   6.896  0.4088  0.2773  0.1897
  115POPC   C4B 1813   4.218   4.049   6.903 -0.1098 -0.0887  0.2247
  116POPC   NC3 1814   2.869   7.578   8.136 -0.0697 -0.2031  0.2381
  116POPC   PO4 1815   2.681   7.910   8.336 -0.0427  0.0842 -0.1964
  116POPC   GL1 1816   2.451   8.009   7.992  0.0845 -0.0929 -0.2162
  116POPC   GL2 1817   2.368   8.325   7.901  0.6318 -0.0374 -0.0176
  116POPC   C1A 1818   2.152   7.981   7.654  0.1707  0.1528  0.2246
  116POPC   D2A 1819   1.960   7.783   7.246 -0.0164 -0.1228  0.1191
  116POPC   C3A 1820   1.889   7.678   6.852 -0.0281 -0.0002 -0.4245
  116POPC   C4A 1821   2.022   7.494   6.606 -0.0242  0.0141  0.0149
  116POPC   C1B 1822   2.596   8.250   7.430  0.1924  0.0523 -0.2439
  116POPC   C2B 1823   2.753   8.234   7.011 -0.1405 -0.4282  0.5188
  116POPC   C3B 1824   2.959   8.477   6.694  0.1999 -0.3332 -0.0594
  116POPC   C4B 1825   3.066   8.685   6.402  0.2191  0.0638 -0.1469
  117POPC   NC3 1826   3.680   3.099   8.633  0.0924  0.1510 -0.0949
  117POPC   PO4 1827   3.894   2.606   8.672 -0.1585 -0.3148  0.0964
  117POPC   GL1 1828   4.024   2.206   8.575 -0.0642  0.0523 -0.1608
  117POPC   GL2 1829   4.231   2.079   8.711 -0.2410  0.3003 -0.2948
  117POPC   C1A 1830   4.129   2.200   8.030  0.4252  0.0958 -0.1593
  117POPC   D2A 1831   4.230   2.251   7.688  0.1130 -0.0603  0.0163
  117POPC   C3A 1832   4.224   1.857   7.386  0.3015 -0.1868 -0.2856
  117POPC   C4A 1833   4.332   1.805   6.996 -0.2544  0.1104 -0.0919
  117POPC   C1B 1834   4.235   1.830   8.384 -0.1370  0.3832  0.3345
  117POPC   C2B 1835   4.166   1.596   7.920  0.0469  0.1567 -0.3534
  117POPC   C3B 1836   4.313   1.406   7.631 -0.1611 -0.0778  0.0078
  117POPC   C4B 1837   4.662   1.546   7.325 -0.0523 -0.2361 -0.0370
  118POPC   NC3 1838   1.513   1.008   8.681  0.1911 -0.0258  0.1954
  118POPC   PO4 1839   1.467   1.330   8.437  0.1943 -0.1434  0.0357
  118POPC   GL1 1840   1.472   1.207   8.098 -0.2065  0.2239  0.3012
  118POPC   GL2 1841   1.794   1.203   8.028  0.1863 -0.0204  0.0520
  118POPC   C1A 1842   1.376   1.285   7.707 -0.0128  0.1438 -0.2608
  118POPC   D2A 1843   1.337   1.530   7.307 -0.0704 -0.0263 -0.0733
  118POPC   C3A 1844   1.738   1.240   7.048  0.2700  0.1799  0.0216
  118POPC   C4A 1845   1.857   1.230   6.664 -0.2346  0.0181 -0.4221
  118POPC   C1B 1846   1.916   1.183   7.608  0.2917 -0.1259 -0.1711
  118POPC   C2B 1847   2.175   1.280   7.251  0.0926 -0.1692  0.4986
  118POPC   C3B 1848   2.300   1.404   6.785  0.0577  0.1437  0.1867
  118POPC   C4B 1849   2.227   1.438   6.290  0.0390 -0.3581  0.0214
  119POPC   NC3 1850   3.206   6.550   8.887 -0.0547  0.0563 -0.2270
  119POPC   PO4 1851   3.503   6.403   8.463 -0.0097 -0.1185  0.2532
  119POPC   GL1 1852   3.480   6.645   8.000  0.3139 -0.0844 -0.2153
  119POPC   GL2 1853   3.313   7.045   7.946  0.0581  0.0881 -0.2750
  119POPC   C1A 1854   3.567   6.539   7.673 -0.0051 -0.0049  0.0088
  119POPC   D2A 1855   3.794   6.448   7.293 -0.2318 -0.3087 -0.0420
  119POPC   C3A 1856   3.986   6.272   6.936 -0.0426  0.0041 -0.1169
  119POPC   C4A 1857   3.906   6.239   6.520  0.0184 -0.2030  0.1926
  119POPC   C1B 1858   3.145   6.765   7.571 -0.3182  0.0402  0.1941
  119POPC   C2B 1859   2.921   6.921   7.199 -0.0881 -0.0542  0.0912
  119POPC   C3B 1860   2.577   6.700   6.878 -0.0229 -0.0201  0.0602
  119POPC   C4B 1861   2.443   6.812   6.513 -0.0550  0.1980 -0.1086
  120POPC   NC3 1862   0.167   5.327   8.532 -0.4271  0.2289  0.1722
  120POPC   PO4 1863  -0.216   5.191   8.419  0.0886  0.1819 -0.1416
  120POPC   GL1 1864   0.027   5.067   8.038 -0.1363 -0.4410  0.1089
  120POPC   GL2 1865   0.337   5.067   7.987 -0.0808  0.0377 -0.0371
  120POPC   C1A 1866  -0.084   4.920   7.726  0.2115  0.1523  0.0549
  120POPC   D2A 1867  -0.531   4.945   7.462 -0.1204 -0.2421 -0.2325
  120POPC   C3A 1868  -0.436   5.015   6.981 -0.2193  0.2644  0.1265
  120POPC   C4A 1869  -0.070   5.155   6.759  0.1719  0.1916  0.1433
  120POPC   C1B 1870   0.289   5.157   7.489  0.4588 -0.6176 -0.2571
  120POPC   C2B 1871   0.444   5.232   7.042  0.3728 -0.0397 -0.3237
  120POPC   C3B 1872   0.409   5.611   6.806  0.0776 -0.2266 -0.0070
  120POPC   C4B 1873   0.440   6.034   6.970 -0.1993 -0.2815 -0.3121
  121POPC   NC3 1874   0.836   4.258   8.422 -0.2611 -0.0161  0.1519
  121POPC   PO4 1875   0.661   4.707   8.534 -0.1442  0.0782  0.0940
  121POPC   GL1 1876   0.622   4.613   8.133  0.1710  0.0279  0.3458
  121POPC   GL2 1877   0.363   4.574   7.944 -0.1807  0.2551 -0.2436
  121POPC   C1A 1878   0.726   4.896   7.730  0.0863  0.0201 -0.0106
  121POPC   D2A 1879   0.770   5.169   7.474 -0.0806  0.1036 -0.1900
  121POPC   C3A 1880   0.622   4.784   7.147  0.2659  0.1171  0.0120
  121POPC   C4A 1881   0.614   4.380   7.012  0.2161 -0.0994  0.1754
  121POPC   C1B 1882   0.227   4.611   7.560  0.0742  0.0816  0.0020
  121POPC   C2B 1883   0.036   4.836   7.173 -0.0879  0.1273 -0.3869
  121POPC   C3B 1884   0.230   4.800   6.825  0.0060  0.1667  0.0791
  121POPC   C4B 1885   0.206   4.819   6.396  0.3967 -0.4128  0.0968
  122POPC   NC3 1886   5.149   7.822   8.613  0.2791  0.0528 -0.0303
  122POPC   PO4 1887   4.724   7.873   8.261 -0.1238 -0.1638 -0.0198
  122POPC   GL1 1888   4.520   7.827   7.782 -0.0233  0.3060 -0.0168
  122POPC   GL2 1889   4.800   7.808   7.548  0.2414  0.1269 -0.0085
  122POPC   C1A 1890   4.526   8.175   7.342  0.0545  0.1538 -0.1898
  122POPC   D2A 1891   4.143   8.359   7.171  0.1256  0.0639 -0.0484
  122POPC   C3A 1892   4.091   8.823   7.149 -0.4702  0.0093  0.2082
  122POPC   C4A 1893   3.714   9.039   7.070 -0.1637  0.2135 -0.0715
  122POPC   C1B 1894   4.574   7.357   7.445 -0.0417 -0.1448  0.0764
  122POPC   C2B 1895   4.112   7.245   7.227 -0.0620 -0.1881  0.0950
  122POPC   C3B 1896   3.868   7.336   6.917  0.0811 -0.0661 -0.5024
  122POPC   C4B 1897   3.688   7.403   6.590 -0.1877  0.4068 -0.1716
  123POPC   NC3 1898   0.069   4.326   8.484 -0.1628  0.1592  0.0189
  123POPC   PO4 1899   0.347   4.188   8.289 -0.0226 -0.0738  0.0910
  123POPC   GL1 1900   0.503   4.033   7.919  0.0629 -0.2032 -0.0906
  123POPC   GL2 1901   0.863   4.038   7.896  0.0570 -0.2677  0.2475
  123POPC   C1A 1902   0.384   4.079   7.494  0.2365 -0.0163  0.2058
  123POPC   D2A 1903   0.169   4.246   7.188  0.1873  0.0493  0.1108
  123POPC   C3A 1904  -0.146   4.353   7.436  0.0968  0.1344 -0.1982
  123POPC   C4A 1905  -0.380   4.535   7.711  0.4028 -0.0541  0.1518
  123POPC   C1B 1906   0.716   4.447   7.566 -0.1126 -0.2947 -0.1516
  123POPC   C2B 1907   1.115   4.775   7.447  0.1033 -0.0308  0.0344
  123POPC   C3B 1908   1.393   5.111   7.249  0.1598  0.0916  0.0314
  123POPC   C4B 1909   1.843   5.090   7.119 -0.0529  0.0438  0.0911
  124POPC   NC3 1910   3.897   1.340   9.676  0.1831 -0.1835  0.0674
  124POPC   PO4 1911   4.019   1.755   9.738  0.1235  0.2606  0.2017
  124POPC   GL1 1912   4.084   1.765   9.300 -0.1159 -0.0541 -0.0149
  124POPC   GL2 1913   4.342   1.948   9.204 -0.3039 -0.1338  0.0945
  124POPC   C1A 1914   4.240   1.571   8.959 -0.2934  0.2797 -0.1049
  124POPC   D2A 1915   4.414   1.441   8.727  0.0032 -0.1979  0.1122
  124POPC   C3A 1916   4.096   1.260   8.335  0.0735  0.2561  0.1974
  124POPC   C4A 1917   3.688   0.986   8.323  0.0873 -0.0722  0.3504
  124POPC   C1B 1918   4.695   1.728   9.036  0.2562  0.0160  0.1675
  124POPC   C2B 1919   4.970   1.699   8.654 -0.0045  0.3674 -0.1096
  124POPC   C3B 1920   5.209   1.534   8.380 -0.2321 -0.1834  0.3766
  124POPC   C4B 1921   5.483   1.454   8.000  0.0001 -0.0086  0.0406
  125POPC   NC3 1922   6.850   9.540  10.317 -0.0941 -0.2749  0.0645
  125POPC   PO4 1923   7.269   9.578  10.033 -0.0237 -0.1337  0.1760
  125POPC   GL1 1924   7.301   9.800   9.625 -0.2185 -0.2303  0.3614
  125POPC   GL2 1925   7.634   9.765   9.248  0.2308  0.1108 -0.1454
  125POPC   C1A 1926   7.209   9.843   9.150  0.0588  0.3410 -0.1617
  125POPC   D2A 1927   7.274  10.055   8.773  0.1505  0.0612  0.0248
  125POPC   C3A 1928   7.614  10.222   8.463 -0.4375 -0.1632  0.0250
  125POPC   C4A 1929   7.713  10.263   8.103  0.0038  0.2639 -0.4282
  125POPC   C1B 1930   7.640   9.759   8.782  0.0474  0.0494  0.0924
  125POPC   C2B 1931   7.465   9.752   8.370 -0.0115 -0.1700 -0.5838
  125POPC   C3B 1932   7.492   9.798   7.965 -0.2897  0.3438 -0.0549
  125POPC   C4B 1933   7.319  10.227   7.747  0.5046 -0.0991 -0.0462
  126POPC   NC3 1934   5.509   4.856   8.480  0.0318 -0.1137  0.1895
  126POPC   PO4 1935   5.303   4.526   8.130 -0.0964  0.1985 -0.0505
  126POPC   GL1 1936   5.002   4.620   7.879  0.0845 -0.1889 -0.0633
  126POPC   GL2 1937   5.003   4.896   7.708 -0.0331  0.2196  0.0711
  126POPC   C1A 1938   4.785   4.434   7.520 -0.1395  0.1745  0.1056
  126POPC   D2A 1939   4.773   4.164   7.222 -0.2801 -0.1241 -0.0499
  126POPC   C3A 1940   4.674   4.346   6.880  0.0839  0.0262 -0.1929
  126POPC   C4A 1941   4.396   4.415   6.503 -0.1007 -0.1422  0.5252
  126POPC   C1B 1942   5.100   4.939   7.315 -0.0914 -0.0586  0.0781
  126POPC   C2B 1943   4.904   5.192   6.926 -0.1015 -0.2258 -0.0661
  126POPC   C3B 1944   4.748   5.420   6.520 -0.1566  0.1832  0.0355
  126POPC   C4B 1945   4.583   5.576   6.131 -0.4672  0.1450 -0.0070
  127POPC   NC3 1946   8.945   0.758   8.771  0.0206 -0.2102  0.0069
  127POPC   PO4 1947   8.756   0.952   9.145  0.2211  0.2243  0.0815
  127POPC   GL1 1948   8.432   1.013   8.823 -0.2347  0.1239 -0.0583
  127POPC   GL2 1949   8.145   1.156   8.980  0.1493  0.3230  0.2513
  127POPC   C1A 1950   8.482   0.993   8.424 -0.0587  0.0945 -0.1789
  127POPC   D2A 1951   8.478   1.002   7.972 -0.0249 -0.0591  0.1035
  127POPC   C3A 1952   8.011   0.875   7.832  0.0947 -0.0471  0.0074
  127POPC   C4A 1953   7.630   0.746   7.665 -0.0432  0.1738 -0.4503
  127POPC   C1B 1954   7.999   0.901   8.623 -0.0848  0.3203 -0.0528
  127POPC   C2B 1955   8.102   0.693   8.264 -0.0974 -0.2824  0.2545
  127POPC   C3B 1956   8.520   0.498   8.217  0.1580  0.0521  0.2960
  127POPC   C4B 1957   8.500   0.063   8.069  0.0598  0.0028 -0.2159
  128POPC   NC3 1958   8.133   3.670   8.824 -0.0389 -0.2530  0.0264
  128POPC   PO4 1959   8.274   3.955   8.622  0.0794 -0.2455 -0.0503
  128POPC   GL1 1960   8.035   4.193   8.317 -0.1868  0.1234  0.3721
  128POPC   GL2 1961   7.847   4.473   8.264  0.1761 -0.3455  0.1138
  128POPC   C1A 1962   8.084   4.189   7.845  0.1352  0.5590 -0.0477
  128POPC   D2A 1963   8.123   4.381   7.442  0.1079  0.0815 -0.0505
  128POPC   C3A 1964   7.968   4.292   7.033  0.0874 -0.3011 -0.2026
  128POPC   C4A 1965   7.510   4.110   7.044 -0.0141 -0.0342  0.2218
  128POPC   C1B 1966   7.579   4.387   7.913  0.1740 -0.1459 -0.0718
  128POPC   C2B 1967   7.122   4.366   7.718  0.0776 -0.2174  0.0516
  128POPC   C3B 1968   6.717   4.245   7.471 -0.1035 -0.4365  0.0362
  128POPC   C4B 1969   6.520   3.967   7.162  0.3975  0.3657  0.0308
  129POPC   NC3 1970   1.152   9.677   9.070 -0.0575  0.1508 -0.1782
  129POPC   PO4 1971   1.523   9.542   8.773  0.0104 -0.2371 -0.2091
  129POPC   GL1 1972   1.449   9.499   8.268 -0.4246 -0.1233 -0.0734
  129POPC   GL2 1973   1.585   9.681   8.034 -0.2700  0.0997 -0.0416
  129POPC   C1A 1974   1.180   9.230   7.968 -0.0596  0.1118  0.0605
  129POPC   D2A 1975   1.392   8.896   7.903 -0.2838 -0.2421 -0.0553
  129POPC   C3A 1976   1.602   8.888   7.478  0.2211  0.0209  0.1699
  129POPC   C4A 1977   1.673   9.306   7.236 -0.1322  0.2839  0.3328
  129POPC   C1B 1978   1.836   9.789   7.729  0.0709  0.3064  0.4008
  129POPC   C2B 1979   2.059   9.575   7.454  0.2913  0.0802  0.0333
  129POPC   C3B 1980   2.233   9.476   7.099  0.0375  0.2575 -0.2579
  129POPC   C4B 1981   2.265   9.145   6.883 -0.1880  0.1752  0.3064
  130POPC   NC3 1982   7.878   1.768   9.611  0.0216  0.1542 -0.2745
  130POPC   PO4 1983   7.780   1.313   9.337  0.1304  0.0492 -0.3023
  130POPC   GL1 1984   7.686   1.324   8.948  0.4944  0.0211 -0.0584
  130POPC   GL2 1985   7.680   1.648   8.764 -0.0958  0.0750 -0.0423
  130POPC   C1A 1986   7.542   1.219   8.504 -0.0135  0.1090  0.2718
  130POPC   D2A 1987   7.591   0.867   8.187 -0.5436 -0.0642  0.1486
  130POPC   C3A 1988   7.233   0.591   8.259  0.0201 -0.2222  0.3340
  130POPC   C4A 1989   6.982   0.529   8.579  0.1165 -0.3744 -0.0228
  130POPC   C1B 1990   7.621   1.692   8.360  0.1341 -0.1867  0.1736
  130POPC   C2B 1991   7.498   1.416   8.015  0.0697 -0.0184  0.0919
  130POPC   C3B 1992   7.653   1.241   7.581 -0.2038  0.0986 -0.0732
  130POPC   C4B 1993   7.933   1.136   7.260  0.1077  0.1550  0.3585
  131POPC   NC3 1994   6.469   8.230   8.974  0.0943 -0.4347  0.0378
  131POPC   PO4 1995   6.060   8.262   9.207 -0.1122  0.0251 -0.2055
  131POPC   GL1 1996   6.013   8.494   8.805  0.2505 -0.1421  0.0043
  131POPC   GL2 1997   5.695   8.577   8.781 -0.0209  0.1502  0.1105
  131POPC   C1A 1998   6.075   8.891   8.599 -0.1938 -0.1642 -0.0489
  131POPC   D2A 1999   6.223   9.046   8.143  0.2069 -0.1401 -0.0185
  131POPC   C3A 2000   6.572   8.938   8.125  0.1423 -0.1802  0.0076
  131POPC   C4A 2001   6.906   8.872   8.291  0.5021 -0.2990  0.1546
  131POPC   C1B 2002   5.824   8.539   8.349 -0.1021  0.1278  0.1287
  131POPC   C2B 2003   6.127   8.570   7.977 -0.1910 -0.1520 -0.6716
  131POPC   C3B 2004   6.464   8.789   7.663 -0.3665  0.0787 -0.1410
  131POPC   C4B 2005   6.373   9.242   7.650  0.2251 -0.2082  0.0043
  132POPC   NC3 2006   0.765   0.431   8.384  0.0111  0.4127 -0.1932
  132POPC   PO4 2007   1.158   0.556   8.678 -0.1407 -0.1528  0.0982
  132POPC   GL1 2008   1.326   0.479   8.337 -0.3239  0.2154  0.2565
  132POPC   GL2 2009   1.145   0.221   8.162 -0.1262  0.1690 -0.0490
  132POPC   C1A 2010   1.292   0.636   7.915  0.1264  0.0395 -0.1174
  132POPC   D2A 2011   1.543   0.709   7.615 -0.0769  0.2318 -0.2098
  132POPC   C3A 2012   1.860   0.784   7.266  0.3288 -0.2030 -0.3293
  132POPC   C4A 2013   1.696   0.755   6.861 -0.3457 -0.1373 -0.1892
  132POPC   C1B 2014   0.956  -0.198   8.035  0.0519  0.2676 -0.0647
  132POPC   C2B 2015   0.790  -0.253   7.627 -0.0635 -0.3050  0.1890
  132POPC   C3B 2016   0.878  -0.606   7.352  0.1971 -0.0317 -0.0306
  132POPC   C4B 2017   1.229  -0.843   7.150  0.1789  0.0902  0.2165
  133POPC   NC3 2018   2.998   0.973   9.104 -0.1360  0.2737  0.3318
  133POPC   PO4 2019   2.987   0.884   8.695 -0.3666 -0.2008 -0.2315
  133POPC   GL1 2020   3.165   1.052   8.352  0.1183  0.1243  0.2449
  133POPC   GL2 2021   3.123   1.361   8.363 -0.0139  0.0153  0.2402
  133POPC   C1A 2022   3.333   1.175   7.935  0.0940 -0.0301 -0.2623
  133POPC   D2A 2023   3.510   1.002   7.521  0.1597  0.2457 -0.0407
  133POPC   C3A 2024   4.049   0.935   7.380 -0.0381  0.1794  0.1703
  133POPC   C4A 2025   4.398   1.128   7.182 -0.2146  0.1734  0.2909
  133POPC   C1B 2026   2.863   1.328   8.038 -0.1888  0.3318  0.3121
  133POPC   C2B 2027   2.719   1.645   7.661 -0.0948  0.0485  0.1654
  133POPC   C3B 2028   2.563   2.049   7.527 -0.1231  0.0106  0.0451
  133POPC   C4B 2029   2.401   2.458   7.618  0.4532 -0.0502 -0.1089
  134POPC   NC3 2030   5.193   1.185  10.004 -0.1761  0.0031  0.0744
  134POPC   PO4 2031   5.664   1.263  10.056  0.0271  0.1313 -0.2432
  134POPC   GL1 2032   5.988   1.125   9.784 -0.3687 -0.1710 -0.1856
  134POPC   GL2 2033   6.202   1.135   9.820 -0.0751 -0.2864 -0.2122
  134POPC   C1A 2034   6.030   1.393   9.409 -0.4844 -0.1697 -0.3605
  134POPC   D2A 2035   6.033   1.610   9.003  0.2293  0.2055 -0.4372
  134POPC   C3A 2036   6.207   1.363   8.667 -0.0254  0.0733 -0.0529
  134POPC   C4A 2037   6.231   0.959   8.510  0.0614  0.1655  0.2252
  134POPC   C1B 2038   6.560   1.253   9.543 -0.2335 -0.2860  0.0821
  134POPC   C2B 2039   6.538   1.404   9.205  0.0779  0.1277 -0.0806
  134POPC   C3B 2040   6.619   1.607   8.772 -0.4461 -0.1147  0.2664
  134POPC   C4B 2041   6.612   1.487   8.350  0.2093  0.1822 -0.0526
  135POPC   NC3 2042   3.087   3.750   8.886  0.4036 -0.0483 -0.1082
  135POPC   PO4 2043   3.405   3.884   8.704 -0.3047  0.0728 -0.1577
  135POPC   GL1 2044   3.557   4.026   8.285  0.1263 -0.1658  0.2618
  135POPC   GL2 2045   3.855   3.914   8.131 -0.1328 -0.2466 -0.0216
  135POPC   C1A 2046   3.298   4.233   7.946  0.0325 -0.1881  0.1618
  135POPC   D2A 2047   3.026   4.195   7.602 -0.1290 -0.0680 -0.0619
  135POPC   C3A 2048   2.746   4.383   7.388  0.1246  0.1689  0.2439
  135POPC   C4A 2049   2.485   4.845   7.410 -0.2940 -0.3303  0.1153
  135POPC   C1B 2050   3.894   3.757   7.747  0.1437  0.1315  0.1172
  135POPC   C2B 2051   3.904   3.628   7.234 -0.0640 -0.2713 -0.2118
  135POPC   C3B 2052   3.813   3.235   6.918 -0.1645 -0.0710 -0.4874
  135POPC   C4B 2053   3.621   2.877   6.851  0.0403  0.4339  0.0126
  136POPC   NC3 2054   5.526   4.992   7.950  0.1765 -0.0728  0.2491
  136POPC   PO4 2055   5.415   5.383   7.890  0.4086 -0.2510 -0.1332
  136POPC   GL1 2056   5.490   5.347   7.473  0.3363  0.2253 -0.3679
  136POPC   GL2 2057   5.546   5.039   7.422 -0.2806 -0.2648 -0.1649
  136POPC   C1A 2058   5.427   5.475   6.954  0.2965  0.0403 -0.1386
  136POPC   D2A 2059   5.342   5.640   6.612 -0.0634 -0.2438  0.1399
  136POPC   C3A 2060   5.244   6.000   6.317  0.4888 -0.2108  0.1377
  136POPC   C4A 2061   5.399   6.163   5.988 -0.0341  0.1248  0.0562
  136POPC   C1B 2062   5.817   4.979   6.946  0.0061  0.0232 -0.0923
  136POPC   C2B 2063   6.083   4.809   6.600 -0.0015 -0.1417 -0.0632
  136POPC   C3B 2064   6.402   4.633   6.577 -0.2574 -0.0827 -0.2085
  136POPC   C4B 2065   6.772   4.813   6.408 -0.0559  0.1525  0.0660
  137POPC   NC3 2066   2.608   0.533   8.641  0.0527  0.1222 -0.1087
  137POPC   PO4 2067   2.265   0.866   8.579  0.0522  0.1295 -0.0747
  137POPC   GL1 2068   2.174   0.797   8.232  0.0287  0.1294  0.3077
  137POPC   GL2 2069   2.418   0.535   8.160 -0.0702  0.1788 -0.2156
  137POPC   C1A 2070   2.069   0.776   7.804  0.1396  0.0569  0.4253
  137POPC   D2A 2071   2.290   0.821   7.457 -0.0682 -0.0415 -0.1995
  137POPC   C3A 2072   2.211   0.493   7.251 -0.2088  0.0740 -0.1462
  137POPC   C4A 2073   1.976   0.355   7.059 -0.2360 -0.1030 -0.0868
  137POPC   C1B 2074   2.508   0.476   7.743 -0.2415 -0.2559 -0.0608
  137POPC   C2B 2075   2.672   0.488   7.413 -0.0781  0.1772 -0.2407
  137POPC   C3B 2076   2.644   0.701   7.037 -0.2240 -0.1982  0.5062
  137POPC   C4B 2077   2.619   0.999   6.692  0.0565  0.3238 -0.0772
  138POPC   NC3 2078   0.583   2.943   8.789  0.2189  0.0139 -0.0016
  138POPC   PO4 2079   0.459   3.251   8.463  0.0437  0.3161 -0.0588
  138POPC   GL1 2080   0.628   3.419   8.110  0.1140  0.0080  0.0064
  138POPC   GL2 2081   0.829   3.241   8.003 -0.0030  0.2036 -0.1167
  138POPC   C1A 2082   0.505   3.541   7.660  0.1534  0.0245  0.2254
  138POPC   D2A 2083   0.400   3.458   7.209 -0.0464  0.2698  0.3448
  138POPC   C3A 2084   0.402   3.857   6.971  0.1470  0.1810  0.1583
  138POPC   C4A 2085   0.203   4.129   6.684 -0.2191 -0.0742  0.2161
  138POPC   C1B 2086   0.979   3.218   7.626  0.0871 -0.4018  0.0376
  138POPC   C2B 2087   0.937   3.453   7.200  0.1640  0.1267 -0.0807
  138POPC   C3B 2088   0.798   3.529   6.841 -0.1864  0.0672 -0.2293
  138POPC   C4B 2089   0.383   3.553   6.582  0.3000 -0.1530 -0.1455
  139POPC   NC3 2090   7.371   3.924   9.378  0.1798  0.0453  0.0075
  139POPC   PO4 2091   7.375   4.050   8.955  0.0370  0.1654 -0.0901
  139POPC   GL1 2092   7.168   4.027   8.549 -0.2583  0.3612 -0.0480
  139POPC   GL2 2093   7.084   4.282   8.223 -0.0735  0.4990  0.0230
  139POPC   C1A 2094   7.554   4.025   8.265 -0.2560 -0.1137  0.2994
  139POPC   D2A 2095   7.596   3.873   7.820 -0.1489 -0.1037 -0.0228
  139POPC   C3A 2096   7.330   3.962   7.483  0.0808  0.0254 -0.1298
  139POPC   C4A 2097   7.046   3.902   7.349 -0.3415 -0.1510  0.0114
  139POPC   C1B 2098   7.074   3.947   8.007  0.1718  0.2200  0.2831
  139POPC   C2B 2099   6.764   3.773   7.754 -0.1545  0.1293  0.0817
  139POPC   C3B 2100   6.606   3.492   7.397 -0.0949  0.1483 -0.1527
  139POPC   C4B 2101   6.653   3.428   6.942  0.2193 -0.1903 -0.1281
  140POPC   NC3 2102   4.940   7.431   8.184  0.0952  0.0818  0.4433
  140POPC   PO4 2103   5.259   7.600   8.150 -0.0336 -0.2307  0.1774
  140POPC   GL1 2104   5.242   7.591   7.653  0.0795 -0.2975 -0.0640
  140POPC   GL2 2105   5.042   7.358   7.639  0.3152  0.0534 -0.0528
  140POPC   C1A 2106   5.669   7.657   7.368 -0.0527  0.1079  0.1711
  140POPC   D2A 2107   5.627   7.767   6.968 -0.0152  0.0992  0.0607
  140POPC   C3A 2108   5.181   7.740   7.081 -0.1088  0.0716  0.2049
  140POPC   C4A 2109   4.667   7.593   7.012  0.0130 -0.1871  0.0383
  140POPC   C1B 2110   4.999   7.222   7.204 -0.1271  0.1077  0.0573
  140POPC   C2B 2111   4.628   7.092   6.996 -0.3160 -0.1469  0.0819
  140POPC   C3B 2112   4.349   7.266   6.699  0.1159 -0.0799 -0.0719
  140POPC   C4B 2113   4.129   7.448   6.421 -0.1333  0.1633 -0.2227
  141POPC   NC3 2114   9.399   3.733   8.454  0.3415  0.0414 -0.1693
  141POPC   PO4 2115   9.328   3.209   8.564  0.2205 -0.0464 -0.1936
  141POPC   GL1 2116   9.465   3.095   8.191 -0.0647  0.4004 -0.1001
  141POPC   GL2 2117   9.245   2.796   8.175  0.1551  0.0578  0.1883
  141POPC   C1A 2118   9.527   2.944   7.657  0.0310 -0.0413 -0.0876
  141POPC   D2A 2119   9.383   2.881   7.314 -0.0175 -0.2396  0.1909
  141POPC   C3A 2120   9.198   3.102   6.947 -0.1955  0.0414 -0.2323
  141POPC   C4A 2121   8.816   3.376   6.783 -0.0465 -0.2945  0.1346
  141POPC   C1B 2122   9.063   2.868   7.792  0.2117  0.0217  0.0369
  141POPC   C2B 2123   8.881   2.794   7.411 -0.2331 -0.1323  0.0626
  141POPC   C3B 2124   8.661   2.703   7.007 -0.1591  0.0390  0.0423
  141POPC   C4B 2125   8.721   2.461   6.582 -0.1876 -0.0237  0.4015
  142POPC   NC3 2126   3.614   3.559   8.460  0.2631 -0.2145  0.0867
  142POPC   PO4 2127   3.241   3.299   8.601 -0.1309 -0.3341 -0.2629
  142POPC   GL1 2128   3.355   3.168   8.191  0.0397  0.1029 -0.0872
  142POPC   GL2 2129   3.125   3.206   8.078 -0.0476 -0.2288 -0.0033
  142POPC   C1A 2130   3.285   2.776   7.900  0.1061  0.2559 -0.0091
  142POPC   D2A 2131   3.205   2.821   7.437  0.1173  0.1245  0.0996
  142POPC   C3A 2132   2.791   2.830   7.350  0.2479  0.1538  0.0532
  142POPC   C4A 2133   2.446   2.635   7.181  0.2500  0.0029  0.3539
  142POPC   C1B 2134   3.131   3.216   7.679 -0.0377 -0.1982 -0.0305
  142POPC   C2B 2135   3.014   3.246   7.160 -0.3038  0.2411  0.0854
  142POPC   C3B 2136   2.656   3.177   6.844 -0.0032 -0.1631  0.1524
  142POPC   C4B 2137   2.838   2.875   6.517 -0.0622 -0.1703  0.1171
  143POPC   NC3 2138   9.178   1.745   8.732 -0.1598 -0.1305 -0.1900
  143POPC   PO4 2139   9.154   1.293   8.636 -0.3596  0.0393  0.0281
  143POPC   GL1 2140   9.096   1.045   8.193 -0.4422  0.0815  0.1856
  143POPC   GL2 2141   9.507   0.990   8.090  0.2493 -0.0522  0.1951
  143POPC   C1A 2142   8.913   0.765   7.878  0.0733  0.0636 -0.0616
  143POPC   D2A 2143   8.546   0.503   7.731  0.1636  0.1396  0.2597
  143POPC   C3A 2144   8.178   0.383   7.831  0.1441  0.1587 -0.0628
  143POPC   C4A 2145   7.796   0.219   7.616  0.4109 -0.1586 -0.0363
  143POPC   C1B 2146   9.685   0.948   7.659 -0.3097  0.3990 -0.1015
  143POPC   C2B 2147   9.825   0.792   7.211  0.1627 -0.0930  0.1457
  143POPC   C3B 2148   9.871   0.492   6.964 -0.2256 -0.1007 -0.2010
  143POPC   C4B 2149  10.105   0.176   7.049 -0.1102 -0.0243  0.0612
  144POPC   NC3 2150   4.937   3.587   8.953  0.0701  0.3395  0.0060
  144POPC   PO4 2151   5.079   3.223   8.706  0.0365  0.2047 -0.0795
  144POPC   GL1 2152   5.446   3.038   8.542 -0.0390 -0.4342 -0.0090
  144POPC   GL2 2153   5.665   3.251   8.357  0.0481  0.1968 -0.0031
  144POPC   C1A 2154   5.461   2.740   8.194 -0.0875 -0.0608  0.0404
  144POPC   D2A 2155   5.526   2.366   7.953  0.1638 -0.0320 -0.2196
  144POPC   C3A 2156   5.555   2.353   7.519 -0.0861  0.1479 -0.0026
  144POPC   C4A 2157   5.705   2.007   7.215  0.0496  0.4572  0.2642
  144POPC   C1B 2158   5.817   3.044   7.997  0.3514 -0.2496  0.0560
  144POPC   C2B 2159   5.925   3.026   7.593  0.2295 -0.5287  0.0896
  144POPC   C3B 2160   5.786   2.729   7.307  0.1828 -0.0159  0.3247
  144POPC   C4B 2161   6.025   2.731   6.899 -0.0759 -0.1910  0.1098
  145POPC   NC3 2162   4.480   6.689   8.699  0.1590  0.0185  0.2564
  145POPC   PO4 2163   4.418   6.823   8.215 -0.1078  0.1076 -0.2811
  145POPC   GL1 2164   4.196   6.554   7.852 -0.3425  0.2998 -0.1345
  145POPC   GL2 2165   3.968   6.819   8.027 -0.2429 -0.0349 -0.0340
  145POPC   C1A 2166   4.342   6.260   7.480 -0.1485 -0.1990  0.0376
  145POPC   D2A 2167   4.443   6.096   7.127  0.2114  0.0432 -0.2725
  145POPC   C3A 2168   4.679   5.711   7.012 -0.3533 -0.1299 -0.0508
  145POPC   C4A 2169   4.440   5.330   6.931  0.0944  0.0794  0.0095
  145POPC   C1B 2170   3.850   6.995   7.716 -0.0002 -0.1370 -0.0563
  145POPC   C2B 2171   3.687   6.926   7.302 -0.0433 -0.3637  0.1810
  145POPC   C3B 2172   3.402   6.766   7.106 -0.0961 -0.0860  0.0483
  145POPC   C4B 2173   3.486   6.671   6.666 -0.0286 -0.3134  0.1588
  146POPC   NC3 2174   5.119   4.056   8.179  0.1418 -0.0246  0.0573
  146POPC   PO4 2175   4.717   4.379   8.221 -0.1306  0.1375 -0.0157
  146POPC   GL1 2176   4.491   4.542   7.874  0.5047 -0.0054 -0.1658
  146POPC   GL2 2177   4.288   4.320   7.669 -0.3288  0.2744  0.1938
  146POPC   C1A 2178   4.561   4.881   7.530  0.2483  0.2116  0.0518
  146POPC   D2A 2179   4.690   5.303   7.369 -0.3247 -0.1516 -0.0585
  146POPC   C3A 2180   5.078   5.561   7.307 -0.0318  0.0289  0.0693
  146POPC   C4A 2181   5.463   5.859   7.475  0.0659  0.0809  0.2041
  146POPC   C1B 2182   4.344   4.471   7.289 -0.0349 -0.1198 -0.2239
  146POPC   C2B 2183   4.703   4.770   7.070  0.1316 -0.1695  0.3438
  146POPC   C3B 2184   4.873   4.854   6.574  0.0679 -0.3206  0.2230
  146POPC   C4B 2185   4.839   5.086   6.136 -0.0004 -0.1077 -0.1430
  147POPC   NC3 2186   7.190   5.921   8.608 -0.1696 -0.2300  0.0041
  147POPC   PO4 2187   7.371   5.532   8.667 -0.1210  0.1120  0.2611
  147POPC   GL1 2188   7.551   5.461   8.259  0.2684 -0.3839 -0.0331
  147POPC   GL2 2189   7.527   5.763   8.121  0.2322  0.3256  0.0057
  147POPC   C1A 2190   7.263   5.409   7.886  0.2999  0.0781 -0.0294
  147POPC   D2A 2191   7.015   5.202   7.509 -0.0665  0.0530 -0.1580
  147POPC   C3A 2192   7.231   5.060   7.240  0.1040  0.1567 -0.2734
  147POPC   C4A 2193   7.366   5.269   7.011 -0.2337  0.1349  0.0463
  147POPC   C1B 2194   7.417   5.796   7.668  0.1251 -0.1299  0.1279
  147POPC   C2B 2195   7.289   5.568   7.346 -0.1327  0.0721  0.0078
  147POPC   C3B 2196   7.056   5.636   7.063  0.1439  0.0363 -0.3568
  147POPC   C4B 2197   6.669   5.672   6.781 -0.2860  0.1724  0.0313
  148POPC   NC3 2198   9.028   3.532   8.848  0.2996  0.4990  0.0183
  148POPC   PO4 2199   8.614   3.735   8.903 -0.0027 -0.1109 -0.0342
  148POPC   GL1 2200   8.704   3.608   8.490 -0.0545  0.0839  0.1937
  148POPC   GL2 2201   8.429   3.557   8.415 -0.0083  0.2029 -0.0442
  148POPC   C1A 2202   8.874   3.751   8.154  0.0466  0.1447  0.2251
  148POPC   D2A 2203   9.008   3.785   7.587 -0.1589  0.1654 -0.1890
  148POPC   C3A 2204   9.047   4.052   7.181  0.0048 -0.0038  0.3178
  148POPC   C4A 2205   8.846   4.382   6.948  0.2524  0.0241 -0.2483
  148POPC   C1B 2206   8.426   3.383   7.981 -0.2041 -0.0032  0.1947
  148POPC   C2B 2207   8.727   3.220   7.706 -0.0205  0.2501 -0.3273
  148POPC   C3B 2208   9.078   3.261   7.463 -0.1150  0.0559  0.4083
  148POPC   C4B 2209   9.215   3.576   7.119 -0.0672  0.2606  0.1808
  149POPC   NC3 2210   7.778   3.299   9.048  0.0037  0.2444  0.0815
  149POPC   PO4 2211   7.712   2.884   8.845 -0.1166 -0.1009  0.2084
  149POPC   GL1 2212   7.943   2.785   8.383 -0.3379  0.0556 -0.1534
  149POPC   GL2 2213   8.108   2.525   8.422 -0.4001 -0.1594  0.0745
  149POPC   C1A 2214   7.833   2.692   8.023  0.0592  0.0085  0.0172
  149POPC   D2A 2215   7.776   2.697   7.633 -0.0228 -0.0974  0.0487
  149POPC   C3A 2216   7.804   2.996   7.291 -0.0739  0.0731 -0.0754
  149POPC   C4A 2217   7.952   3.282   6.897 -0.1529 -0.1807  0.3017
  149POPC   C1B 2218   7.964   2.241   8.418 -0.1386 -0.0142  0.1182
  149POPC   C2B 2219   7.701   2.117   8.072 -0.0629 -0.2463 -0.2135
  149POPC   C3B 2220   7.620   2.226   7.607  0.2713  0.0765 -0.0892
  149POPC   C4B 2221   7.601   2.025   7.255  0.2953  0.3353  0.0605
  150POPC   NC3 2222   2.738   1.467   4.261  0.0316 -0.0532 -0.2870
  150POPC   PO4 2223   3.092   1.761   4.151 -0.0645  0.3251 -0.0731
  150POPC   GL1 2224   3.141   1.703   4.593  0.0434 -0.0275 -0.1476
  150POPC   GL2 2225   2.945   1.557   4.793 -0.0513 -0.1544 -0.1075
  150POPC   C1A 2226   3.336   1.758   5.012  0.0547 -0.1977  0.2236
  150POPC   D2A 2227   3.387   1.560   5.351 -0.0509  0.2354  0.0285
  150POPC   C3A 2228   3.854   1.523   5.536 -0.1155  0.0546  0.2644
  150POPC   C4A 2229   4.070   1.634   5.876  0.1024  0.2376 -0.0045
  150POPC   C1B 2230   2.913   1.509   5.215  0.0556  0.0630  0.1952
  150POPC   C2B 2231   3.013   1.535   5.667 -0.1805  0.1424 -0.1415
  150POPC   C3B 2232   3.178   1.587   6.072 -0.1213  0.1834  0.0279
  150POPC   C4B 2233   3.273   1.548   6.566  0.0945  0.1038 -0.0057
  151POPC   NC3 2234   4.333   0.250   3.265 -0.1724 -0.1622  0.1049
  151POPC   PO4 2235   4.532   0.260   3.669  0.0406  0.0516  0.1650
  151POPC   GL1 2236   4.994   0.306   3.812 -0.1598  0.2144  0.0804
  151POPC   GL2 2237   5.041   0.538   3.547  0.0233 -0.3124 -0.1154
  151POPC   C1A 2238   5.187   0.295   4.237 -0.1428  0.0702 -0.1484
  151POPC   D2A 2239   5.586   0.384   4.504  0.0841  0.1662  0.0667
  151POPC   C3A 2240   5.814   0.807   4.582  0.3137  0.0248  0.0643
  151POPC   C4A 2241   6.073   1.078   4.603  0.0173  0.0326 -0.0501
  151POPC   C1B 2242   5.147   0.755   3.903 -0.0336 -0.0882 -0.1702
  151POPC   C2B 2243   5.139   1.098   4.117 -0.1267  0.1723  0.1086
  151POPC   C3B 2244   5.510   1.311   4.253  0.1260  0.1171  0.1602
  151POPC   C4B 2245   5.686   1.501   4.569  0.2497  0.2352  0.2009
  152POPC   NC3 2246   1.873   6.694   4.841  0.1758 -0.1094  0.0257
  152POPC   PO4 2247   1.554   6.811   4.583  0.0662  0.0257 -0.0308
  152POPC   GL1 2248   1.415   6.672   5.092 -0.3281 -0.0747 -0.1463
  152POPC   GL2 2249   1.315   6.503   5.223  0.1292  0.0486 -0.0420
  152POPC   C1A 2250   1.723   6.838   5.494  0.0373 -0.0896  0.0836
  152POPC   D2A 2251   1.923   7.099   5.707 -0.1969  0.0382 -0.0362
  152POPC   C3A 2252   2.105   7.060   6.186  0.0703  0.1278 -0.2471
  152POPC   C4A 2253   1.958   6.930   6.668 -0.6738 -0.0014 -0.0594
  152POPC   C1B 2254   1.349   6.372   5.633 -0.0524  0.0874  0.2413
  152POPC   C2B 2255   1.531   6.247   6.065 -0.2306 -0.0892  0.3868
  152POPC   C3B 2256   1.769   6.135   6.466 -0.4429 -0.1818  0.1472
  152POPC   C4B 2257   1.750   5.952   6.834  0.0320  0.3014  0.2043
  153POPC   NC3 2258   1.866   9.803   4.717 -0.0788  0.1643  0.1049
  153POPC   PO4 2259   2.201  10.052   4.805  0.0657 -0.0080  0.0389
  153POPC   GL1 2260   2.082  10.072   5.163 -0.1279 -0.0611 -0.1551
  153POPC   GL2 2261   1.960   9.783   5.161  0.1666  0.1540 -0.0137
  153POPC   C1A 2262   2.132   9.752   5.582  0.3000  0.1607  0.2176
  153POPC   D2A 2263   1.993   9.658   5.962 -0.3019 -0.1895  0.1125
  153POPC   C3A 2264   2.222   9.830   6.372  0.1322  0.0788  0.3009
  153POPC   C4A 2265   2.380   9.872   6.787 -0.2605  0.0638  0.2418
  153POPC   C1B 2266   1.657   9.728   5.422  0.1478  0.0825 -0.0076
  153POPC   C2B 2267   1.183   9.698   5.508 -0.2418  0.1142 -0.0942
  153POPC   C3B 2268   0.769   9.983   5.630  0.1764  0.1196  0.4620
  153POPC   C4B 2269   0.430  10.191   5.875 -0.0903 -0.2644  0.0026
  154POPC   NC3 2270   2.382   4.464   5.017  0.0457 -0.0986 -0.0761
  154POPC   PO4 2271   2.828   4.606   5.149  0.0393 -0.1953  0.0776
  154POPC   GL1 2272   2.591   4.418   5.495  0.0807  0.2501  0.0270
  154POPC   GL2 2273   2.573   4.710   5.628 -0.2647 -0.2138 -0.2262
  154POPC   C1A 2274   2.282   4.226   5.655  0.4193 -0.3164  0.1335
  154POPC   D2A 2275   1.946   3.942   5.651  0.1031  0.2795 -0.3779
  154POPC   C3A 2276   1.795   3.774   6.118 -0.0881  0.0600 -0.0579
  154POPC   C4A 2277   1.958   3.898   6.552 -0.2329 -0.0085  0.0686
  154POPC   C1B 2278   2.318   4.666   6.060  0.3860  0.2189  0.0428
  154POPC   C2B 2279   1.911   4.464   6.124  0.3999 -0.0345  0.1778
  154POPC   C3B 2280   1.579   4.323   6.348 -0.1152 -0.2760 -0.0424
  154POPC   C4B 2281   1.413   3.982   6.344 -0.0050 -0.1390 -0.0562
  155POPC   NC3 2282   0.681   0.075   4.554  0.0821 -0.2438  0.0443
  155POPC   PO4 2283   0.435   0.130   4.953 -0.0295 -0.1532 -0.0856
  155POPC   GL1 2284   0.222  -0.009   5.327 -0.1491 -0.3335 -0.5456
  155POPC   GL2 2285   0.386  -0.283   5.330  0.1774  0.1891 -0.0857
  155POPC   C1A 2286   0.036  -0.001   5.814 -0.0376  0.0453 -0.1804
  155POPC   D2A 2287  -0.020   0.231   6.226 -0.1336  0.1843 -0.0569
  155POPC   C3A 2288   0.247   0.140   6.584 -0.2130  0.0525 -0.0492
  155POPC   C4A 2289   0.435  -0.255   6.644 -0.1977 -0.1142  0.2279
  155POPC   C1B 2290   0.435  -0.227   5.815 -0.1205  0.0844  0.0499
  155POPC   C2B 2291   0.704  -0.193   6.146 -0.1243 -0.2232 -0.2166
  155POPC   C3B 2292   0.820  -0.512   6.436  0.0911  0.1789  0.0238
  155POPC   C4B 2293   0.769  -0.707   6.853 -0.6199  0.0890 -0.1740
  156POPC   NC3 2294   7.947   9.420   4.222  0.1741 -0.0164  0.2197
  156POPC   PO4 2295   8.376   9.474   4.558  0.0616  0.0744 -0.1173
  156POPC   GL1 2296   8.342   9.905   4.878 -0.1104 -0.3033 -0.0832
  156POPC   GL2 2297   8.422  10.283   4.844 -0.0458 -0.0742 -0.0443
  156POPC   C1A 2298   8.039  10.088   5.155  0.2111  0.0329 -0.2208
  156POPC   D2A 2299   8.104  10.186   5.586 -0.0700 -0.1800 -0.2348
  156POPC   C3A 2300   7.748  10.107   5.955 -0.0131  0.2419 -0.0304
  156POPC   C4A 2301   7.419   9.913   6.178 -0.2860 -0.1137  0.0657
  156POPC   C1B 2302   8.394  10.408   5.244  0.0821  0.2732 -0.0071
  156POPC   C2B 2303   8.458  10.566   5.615  0.1032  0.2373 -0.0900
  156POPC   C3B 2304   8.281  10.502   6.057  0.2421 -0.1156  0.0406
  156POPC   C4B 2305   8.005  10.513   6.374  0.1474  0.2291 -0.1727
  157POPC   NC3 2306   8.861   9.624   4.714  0.0319  0.0555 -0.1413
  157POPC   PO4 2307   8.949  10.030   4.777 -0.3732 -0.2153 -0.0146
  157POPC   GL1 2308   8.724  10.001   5.177  0.0669  0.0638 -0.0598
  157POPC   GL2 2309   8.867   9.690   5.279  0.2798  0.4164 -0.0139
  157POPC   C1A 2310   8.615  10.031   5.642  0.3270  0.0714  0.2140
  157POPC   D2A 2311   8.300   9.961   6.027  0.1495  0.0064 -0.1026
  157POPC   C3A 2312   8.030   9.699   5.900 -0.4042 -0.2168 -0.1003
  157POPC   C4A 2313   7.679   9.457   6.000  0.4081 -0.2367  0.1030
  157POPC   C1B 2314   8.671   9.494   5.621  0.1319 -0.1523  0.1620
  157POPC   C2B 2315   8.419   9.451   6.006  0.3311  0.1544  0.2680
  157POPC   C3B 2316   8.388   9.237   6.421 -0.0876  0.0977 -0.0241
  157POPC   C4B 2317   8.138   9.294   6.814 -0.1370  0.4757 -0.0222
  158POPC   NC3 2318   7.559   7.869   4.428 -0.2782  0.1629  0.0075
  158POPC   PO4 2319   7.936   8.121   4.276 -0.0935 -0.1028 -0.1162
  158POPC   GL1 2320   8.032   8.065   4.724  0.0907 -0.0136 -0.0531
  158POPC   GL2 2321   7.803   8.089   4.857  0.2420 -0.1343  0.1094
  158POPC   C1A 2322   8.147   7.709   4.977  0.1234  0.1852 -0.1487
  158POPC   D2A 2323   8.536   7.805   5.350  0.2707  0.1392  0.2627
  158POPC   C3A 2324   8.468   8.184   5.599  0.3016  0.0282 -0.1302
  158POPC   C4A 2325   8.253   8.417   5.874 -0.1923  0.1299  0.3157
  158POPC   C1B 2326   7.719   7.841   5.256  0.0650 -0.1024 -0.0117
  158POPC   C2B 2327   7.551   7.685   5.671 -0.2980 -0.0331 -0.1487
  158POPC   C3B 2328   7.629   7.796   6.182  0.1739 -0.2454 -0.0686
  158POPC   C4B 2329   7.803   7.536   6.508  0.2062  0.1358  0.0452
  159POPC   NC3 2330   3.883   6.992   3.820  0.1965 -0.1060  0.0355
  159POPC   PO4 2331   4.326   7.103   3.896 -0.4166 -0.0535 -0.2643
  159POPC   GL1 2332   4.396   7.336   4.312  0.2088 -0.2509 -0.4398
  159POPC   GL2 2333   4.139   7.341   4.442 -0.0797  0.1782 -0.3857
  159POPC   C1A 2334   4.587   7.579   4.573 -0.0501  0.0798 -0.1587
  159POPC   D2A 2335   4.568   7.947   4.769  0.1149 -0.1226 -0.0913
  159POPC   C3A 2336   4.668   8.028   5.129  0.0582  0.1604  0.2185
  159POPC   C4A 2337   4.635   8.232   5.423 -0.0358  0.1282  0.2474
  159POPC   C1B 2338   4.157   7.388   4.768 -0.1456 -0.1392  0.2961
  159POPC   C2B 2339   4.133   7.611   5.235  0.0482  0.0390  0.0138
  159POPC   C3B 2340   4.273   7.891   5.586 -0.2160 -0.2803  0.0165
  159POPC   C4B 2341   4.418   8.100   5.942  0.1775  0.0640  0.4605
  160POPC   NC3 2342   1.406   8.651   3.956 -0.0893 -0.1054  0.3790
  160POPC   PO4 2343   1.712   8.559   4.355  0.2320  0.0169  0.0568
  160POPC   GL1 2344   1.801   8.528   4.699  0.0460 -0.1144 -0.1136
  160POPC   GL2 2345   1.987   8.685   5.039  0.2830 -0.0427  0.1079
  160POPC   C1A 2346   1.977   8.188   5.042  0.2001 -0.2826  0.1257
  160POPC   D2A 2347   2.284   7.844   5.269  0.2541 -0.1600 -0.3301
  160POPC   C3A 2348   2.543   8.007   5.617 -0.2200 -0.0512  0.0079
  160POPC   C4A 2349   2.713   8.389   5.532  0.1956 -0.1108 -0.1776
  160POPC   C1B 2350   1.815   8.543   5.565  0.1108 -0.3507 -0.0228
  160POPC   C2B 2351   1.743   8.641   6.013 -0.3234  0.1926 -0.2168
  160POPC   C3B 2352   1.591   8.815   6.412 -0.0725 -0.0043 -0.0887
  160POPC   C4B 2353   1.540   9.112   6.757  0.0421 -0.1883  0.0451
  161POPC   NC3 2354   1.049   3.269   4.930  0.1414 -0.1355  0.2175
  161POPC   PO4 2355   1.359   3.246   5.228 -0.3011  0.1495  0.1298
  161POPC   GL1 2356   1.429   2.985   5.563 -0.2108  0.1424 -0.1616
  161POPC   GL2 2357   1.178   2.943   5.747 -0.0716 -0.0473 -0.0715
  161POPC   C1A 2358   1.526   2.569   5.766  0.1268  0.1674  0.2138
  161POPC   D2A 2359   1.447   2.284   6.122 -0.0324  0.2916 -0.3634
  161POPC   C3A 2360   1.310   1.972   6.419 -0.2179 -0.3203  0.1632
  161POPC   C4A 2361   1.328   1.508   6.299  0.1547  0.1155  0.1782
  161POPC   C1B 2362   1.086   3.321   5.895  0.1634 -0.3750 -0.0925
  161POPC   C2B 2363   1.324   3.743   5.891 -0.0521 -0.0159 -0.0980
  161POPC   C3B 2364   1.535   4.200   5.820 -0.0177 -0.2864  0.0380
  161POPC   C4B 2365   1.821   4.563   5.637 -0.1272  0.0244 -0.2165
  162POPC   NC3 2366   4.482   5.506   4.327 -0.0989  0.0145 -0.0442
  162POPC   PO4 2367   4.217   5.222   4.568 -0.0284 -0.2023 -0.2596
  162POPC   GL1 2368   4.156   5.091   4.954  0.2564  0.2614  0.0722
  162POPC   GL2 2369   3.890   5.286   5.002 -0.0510  0.2921 -0.0628
  162POPC   C1A 2370   4.433   4.956   5.275  0.2733  0.2944 -0.0776
  162POPC   D2A 2371   4.692   4.754   5.297 -0.1773  0.0604 -0.0738
  162POPC   C3A 2372   4.896   4.871   5.683 -0.1074  0.4399 -0.2711
  162POPC   C4A 2373   5.258   5.092   5.866 -0.0421 -0.0072  0.0895
  162POPC   C1B 2374   3.786   5.295   5.346 -0.0430  0.0123  0.1499
  162POPC   C2B 2375   3.994   5.264   5.682  0.1907  0.0987 -0.1201
  162POPC   C3B 2376   4.121   5.308   6.085 -0.2625  0.0859  0.1902
  162POPC   C4B 2377   4.226   5.499   6.442 -0.1315 -0.2460  0.1490
  163POPC   NC3 2378   6.418   7.346   4.262  0.0981 -0.2975 -0.1392
  163POPC   PO4 2379   6.048   7.548   4.141 -0.0211 -0.0884 -0.3113
  163POPC   GL1 2380   6.157   7.779   4.461  0.0723 -0.0723 -0.1748
  163POPC   GL2 2381   6.455   7.855   4.367 -0.0446 -0.0699  0.0290
  163POPC   C1A 2382   5.998   7.909   4.896 -0.5339 -0.2296  0.0120
  163POPC   D2A 2383   5.990   8.351   5.063  0.0897  0.0989 -0.1867
  163POPC   C3A 2384   6.123   8.439   5.334 -0.0517  0.3486 -0.2000
  163POPC   C4A 2385   6.226   8.764   5.506  0.0263  0.3028 -0.3329
  163POPC   C1B 2386   6.403   8.141   4.746  0.2293  0.1294 -0.0186
  163POPC   C2B 2387   6.584   8.440   5.028  0.0283 -0.0872  0.4598
  163POPC   C3B 2388   6.735   8.730   5.220  0.2344  0.2311  0.1976
  163POPC   C4B 2389   6.729   8.664   5.672 -0.0224  0.0883 -0.1005
  164POPC   NC3 2390   5.503   8.858   3.123 -0.1625  0.2953 -0.3256
  164POPC   PO4 2391   5.377   8.470   3.251  0.1181  0.0824  0.0066
  164POPC   GL1 2392   5.238   8.424   3.684  0.0169  0.1978  0.0604
  164POPC   GL2 2393   5.375   8.225   4.062 -0.0490 -0.1435  0.0268
  164POPC   C1A 2394   5.086   8.653   3.974 -0.0138 -0.2709 -0.0624
  164POPC   D2A 2395   4.787   8.649   4.322 -0.1979  0.1119  0.0869
  164POPC   C3A 2396   4.776   8.980   4.593 -0.0273 -0.0489  0.1370
  164POPC   C4A 2397   4.844   9.443   4.770 -0.1939 -0.0832  0.0394
  164POPC   C1B 2398   5.599   8.505   4.039 -0.0436 -0.0737 -0.0281
  164POPC   C2B 2399   5.771   8.852   4.326  0.2789  0.2747 -0.0329
  164POPC   C3B 2400   5.875   8.823   4.760  0.3353  0.0054  0.2233
  164POPC   C4B 2401   5.786   8.790   5.144  0.3420  0.0874 -0.0648
  165POPC   NC3 2402   7.152   3.267   4.220 -0.0397  0.0085 -0.0430
  165POPC   PO4 2403   7.523   3.370   4.518 -0.0561 -0.2049 -0.2017
  165POPC   GL1 2404   7.409   3.313   4.929 -0.0691  0.1091 -0.1634
  165POPC   GL2 2405   7.540   3.520   5.069 -0.0610 -0.0655  0.1278
  165POPC   C1A 2406   7.383   3.130   5.343 -0.0897  0.0221 -0.0292
  165POPC   D2A 2407   7.501   3.115   5.763 -0.2494 -0.0059  0.0240
  165POPC   C3A 2408   7.588   2.883   6.021 -0.0562  0.1928 -0.2341
  165POPC   C4A 2409   7.477   2.427   6.071  0.0549 -0.0159 -0.2981
  165POPC   C1B 2410   7.481   3.586   5.588 -0.0775  0.2731  0.0452
  165POPC   C2B 2411   7.200   3.554   5.926  0.4303 -0.0579 -0.3575
  165POPC   C3B 2412   7.071   3.480   6.413  0.1351 -0.0630 -0.0196
  165POPC   C4B 2413   6.812   3.144   6.533 -0.3006  0.1315  0.0031
  166POPC   NC3 2414   3.724   6.057   4.655 -0.0080  0.0845  0.2810
  166POPC   PO4 2415   4.011   6.305   4.614  0.1616  0.0557 -0.1429
  166POPC   GL1 2416   4.097   6.134   5.008 -0.2451  0.0469 -0.0766
  166POPC   GL2 2417   4.320   5.988   5.075 -0.0652  0.1317 -0.1465
  166POPC   C1A 2418   3.873   5.828   5.301  0.2665 -0.2130  0.0621
  166POPC   D2A 2419   3.775   5.808   5.673 -0.0433  0.0197  0.0965
  166POPC   C3A 2420   3.693   5.586   5.873 -0.0612 -0.1071 -0.0050
  166POPC   C4A 2421   3.401   5.343   5.933 -0.0055  0.4012 -0.4143
  166POPC   C1B 2422   4.140   6.196   5.510 -0.1133  0.0903  0.2572
  166POPC   C2B 2423   4.084   6.093   5.972  0.1166  0.3185  0.3224
  166POPC   C3B 2424   4.296   6.040   6.316  0.1288 -0.0435 -0.2461
  166POPC   C4B 2425   4.161   5.821   6.765  0.0278 -0.2222  0.1202
  167POPC   NC3 2426   0.118   3.217   4.692  0.1950 -0.1266  0.1852
  167POPC   PO4 2427   0.509   3.157   4.800 -0.0898  0.0846  0.1725
  167POPC   GL1 2428   0.685   3.105   5.254 -0.1057 -0.0326  0.0383
  167POPC   GL2 2429   0.856   3.285   5.483  0.0097  0.2320 -0.0631
  167POPC   C1A 2430   0.245   3.018   5.608  0.2351  0.0439  0.0098
  167POPC   D2A 2431   0.077   3.097   5.988  0.3964  0.0054  0.0294
  167POPC   C3A 2432  -0.311   3.036   6.137 -0.3213  0.1040  0.0689
  167POPC   C4A 2433  -0.408   2.823   6.567 -0.2041 -0.1481 -0.2551
  167POPC   C1B 2434   0.660   3.102   5.859 -0.1252  0.2170  0.1542
  167POPC   C2B 2435   0.511   3.187   6.250 -0.1275 -0.1668  0.0002
  167POPC   C3B 2436   0.116   2.888   6.420  0.0271 -0.1043 -0.2160
  167POPC   C4B 2437  -0.037   2.496   6.637  0.1108 -0.2006 -0.1217
  168POPC   NC3 2438   8.140   4.495   4.675 -0.0111 -0.0015 -0.0400
  168POPC   PO4 2439   8.161   4.102   4.693  0.1233 -0.0193 -0.1591
  168POPC   GL1 2440   8.106   3.855   5.041 -0.0077 -0.3039  0.1678
  168POPC   GL2 2441   8.325   3.707   5.115 -0.0555 -0.1675  0.0084
  168POPC   C1A 2442   7.870   3.839   5.338  0.0606 -0.1961  0.2148
  168POPC   D2A 2443   7.867   3.834   5.806  0.0500  0.2310  0.1715
  168POPC   C3A 2444   7.661   4.083   6.016 -0.0155 -0.0382  0.2048
  168POPC   C4A 2445   7.941   4.172   6.323  0.0735  0.2634  0.0541
  168POPC   C1B 2446   8.308   3.618   5.508 -0.1846 -0.1272  0.2034
  168POPC   C2B 2447   8.279   3.525   5.789  0.0276  0.1663 -0.1662
  168POPC   C3B 2448   8.283   3.564   6.126 -0.1391  0.1971 -0.0331
  168POPC   C4B 2449   8.187   3.452   6.491  0.1408 -0.3336  0.0449
  169POPC   NC3 2450   2.132   7.839   3.953  0.2170  0.0402  0.3492
  169POPC   PO4 2451   2.126   7.761   4.410  0.2028  0.3210  0.4485
  169POPC   GL1 2452   1.991   7.650   4.841  0.2268 -0.0542  0.2214
  169POPC   GL2 2453   2.205   7.425   4.949  0.2031  0.0462 -0.1040
  169POPC   C1A 2454   1.668   7.628   5.238  0.0322 -0.0388  0.1210
  169POPC   D2A 2455   1.458   7.344   5.481 -0.1080 -0.0783  0.3095
  169POPC   C3A 2456   1.557   7.354   5.864 -0.1206 -0.0429  0.1853
  169POPC   C4A 2457   1.801   7.565   6.106 -0.0552 -0.4464  0.4367
  169POPC   C1B 2458   2.096   7.430   5.381 -0.3087 -0.0027  0.2002
  169POPC   C2B 2459   2.313   7.573   5.817  0.0830  0.0173  0.3549
  169POPC   C3B 2460   2.294   7.855   6.111  0.1151 -0.0298  0.0565
  169POPC   C4B 2461   2.257   8.317   6.117  0.0854 -0.2652  0.3971
  170POPC   NC3 2462   8.321   2.049   4.226  0.1004  0.2602  0.0766
  170POPC   PO4 2463   8.337   2.514   4.390  0.1678  0.1351 -0.0540
  170POPC   GL1 2464   8.151   2.395   4.730 -0.2157  0.0224 -0.2518
  170POPC   GL2 2465   7.917   2.225   4.624 -0.0846  0.3312 -0.0728
  170POPC   C1A 2466   7.989   2.638   5.060  0.0022  0.0753 -0.0737
  170POPC   D2A 2467   7.804   2.790   5.504  0.0162  0.1058  0.0202
  170POPC   C3A 2468   7.936   2.524   5.909  0.1477 -0.0176  0.0916
  170POPC   C4A 2469   8.036   2.143   6.087  0.0790 -0.0224 -0.0058
  170POPC   C1B 2470   7.476   2.118   4.747 -0.4124  0.2569  0.0087
  170POPC   C2B 2471   7.130   2.283   4.988 -0.2501  0.0577  0.1096
  170POPC   C3B 2472   7.146   2.262   5.365 -0.0794  0.0480  0.2197
  170POPC   C4B 2473   7.164   2.122   5.750 -0.4131  0.1137  0.2430
  171POPC   NC3 2474   4.456   6.408   4.448  0.0414 -0.1207  0.1348
  171POPC   PO4 2475   4.424   6.028   4.445 -0.0493 -0.1018 -0.3596
  171POPC   GL1 2476   4.680   5.791   4.855  0.1504 -0.2396 -0.0814
  171POPC   GL2 2477   4.619   5.482   4.883 -0.0577  0.0178 -0.1157
  171POPC   C1A 2478   5.127   5.968   5.113 -0.3625  0.1017 -0.4812
  171POPC   D2A 2479   5.178   6.132   5.537 -0.1202  0.0538 -0.2267
  171POPC   C3A 2480   5.514   6.483   5.587  0.2892  0.1878  0.1377
  171POPC   C4A 2481   5.902   6.603   5.495  0.1649 -0.4247 -0.0535
  171POPC   C1B 2482   4.392   5.503   5.305  0.0444 -0.1843 -0.1932
  171POPC   C2B 2483   4.301   5.700   5.722 -0.0429  0.0190  0.0192
  171POPC   C3B 2484   4.535   6.020   5.871 -0.0001  0.0388  0.1220
  171POPC   C4B 2485   4.825   6.037   6.003 -0.3183  0.2338 -0.2543
  172POPC   NC3 2486   3.535   7.712   3.982  0.0818 -0.0392 -0.1606
  172POPC   PO4 2487   3.113   7.799   4.086 -0.0291 -0.1282 -0.1794
  172POPC   GL1 2488   3.328   7.645   4.425  0.0280 -0.1267  0.0654
  172POPC   GL2 2489   3.654   7.597   4.466 -0.1880 -0.3489  0.0152
  172POPC   C1A 2490   3.245   7.545   4.844  0.1175 -0.0290  0.2122
  172POPC   D2A 2491   2.759   7.451   5.072 -0.1695 -0.2669 -0.0287
  172POPC   C3A 2492   2.714   7.262   5.395  0.0783 -0.2812 -0.1512
  172POPC   C4A 2493   2.517   7.024   5.838 -0.1367  0.2366 -0.2879
  172POPC   C1B 2494   3.658   7.447   4.908  0.0366  0.0453  0.0765
  172POPC   C2B 2495   3.619   7.663   5.209 -0.0364  0.1468 -0.0784
  172POPC   C3B 2496   3.744   8.000   5.564  0.0991 -0.1110  0.0715
  172POPC   C4B 2497   3.814   8.113   5.903 -0.0004 -0.1582  0.2057
  173POPC   NC3 2498   6.249   1.704   3.444  0.4559 -0.3613  0.0565
  173POPC   PO4 2499   6.695   1.502   3.465 -0.2594  0.0014 -0.0516
  173POPC   GL1 2500   6.569   1.304   3.838 -0.1494 -0.0610  0.2869
  173POPC   GL2 2501   6.602   1.000   3.825 -0.1642  0.1580  0.0054
  173POPC   C1A 2502   6.669   1.250   4.246 -0.2033  0.0122 -0.1528
  173POPC   D2A 2503   6.691   0.963   4.619 -0.0524 -0.2448  0.1965
  173POPC   C3A 2504   6.691   0.476   4.474 -0.1223 -0.1951  0.0690
  173POPC   C4A 2505   7.022   0.327   4.340 -0.3059  0.1399 -0.3556
  173POPC   C1B 2506   6.888   0.781   4.085  0.2219 -0.0579 -0.1128
  173POPC   C2B 2507   7.176   0.976   4.328  0.1908  0.1753  0.0632
  173POPC   C3B 2508   7.514   0.749   4.508  0.2882  0.1007  0.0450
  173POPC   C4B 2509   7.614   0.352   4.422 -0.3466 -0.0132  0.0857
  174POPC   NC3 2510   7.915   2.725   4.424  0.0923 -0.1468 -0.1110
  174POPC   PO4 2511   7.593   3.037   4.108 -0.1425  0.0032  0.1588
  174POPC   GL1 2512   7.397   2.857   4.463 -0.1202 -0.1218  0.0774
  174POPC   GL2 2513   7.493   2.642   4.800  0.1142 -0.0753  0.2324
  174POPC   C1A 2514   7.052   2.933   4.731 -0.2703  0.1126  0.1770
  174POPC   D2A 2515   6.878   2.954   5.141  0.1958 -0.2376 -0.4946
  174POPC   C3A 2516   6.957   3.103   5.592 -0.2877  0.0654 -0.0198
  174POPC   C4A 2517   7.047   2.963   6.005 -0.0898 -0.2237  0.2930
  174POPC   C1B 2518   7.376   2.672   5.239 -0.0143 -0.1548 -0.1608
  174POPC   C2B 2519   7.140   2.644   5.639 -0.1907 -0.0195 -0.0264
  174POPC   C3B 2520   6.868   2.508   5.902 -0.4943  0.1641  0.1889
  174POPC   C4B 2521   6.357   2.419   5.907  0.1318 -0.1718 -0.4038
  175POPC   NC3 2522   9.566   3.867   4.679  0.0658  0.0167  0.0729
  175POPC   PO4 2523   9.474   4.283   4.583  0.1406 -0.1196 -0.1326
  175POPC   GL1 2524   9.374   4.168   5.081  0.1204 -0.0115  0.0005
  175POPC   GL2 2525   9.577   3.804   5.163 -0.0341 -0.0965  0.0131
  175POPC   C1A 2526   9.318   4.479   5.489 -0.2478  0.1284  0.1930
  175POPC   D2A 2527   9.124   4.804   5.480  0.0539 -0.1519 -0.1059
  175POPC   C3A 2528   8.980   4.923   5.867 -0.4775  0.0407  0.2660
  175POPC   C4A 2529   8.969   5.149   6.148 -0.1411 -0.2683 -0.1405
  175POPC   C1B 2530   9.312   3.907   5.486 -0.4173 -0.2229 -0.1891
  175POPC   C2B 2531   9.375   4.119   5.884  0.2357  0.0012 -0.1139
  175POPC   C3B 2532   9.381   3.816   6.223  0.5359 -0.1700 -0.0400
  175POPC   C4B 2533   9.182   3.712   6.695  0.1558 -0.0262  0.2760
  176POPC   NC3 2534   6.547   5.619   4.246 -0.0551 -0.1890  0.1641
  176POPC   PO4 2535   6.223   5.543   4.528 -0.0765  0.4039 -0.1867
  176POPC   GL1 2536   6.346   5.643   4.880  0.0265  0.3106 -0.6509
  176POPC   GL2 2537   6.201   5.390   5.082  0.0897  0.2604 -0.0444
  176POPC   C1A 2538   6.547   5.936   5.100 -0.2760 -0.0347  0.0129
  176POPC   D2A 2539   6.713   6.131   5.411 -0.0240  0.0425  0.0371
  176POPC   C3A 2540   6.903   5.982   5.893  0.1202 -0.1545  0.0888
  176POPC   C4A 2541   7.092   5.808   6.343  0.1389  0.2516  0.3036
  176POPC   C1B 2542   6.122   5.031   5.394 -0.2450 -0.2181 -0.1315
  176POPC   C2B 2543   6.110   4.756   5.723  0.3423 -0.0394 -0.0921
  176POPC   C3B 2544   6.143   4.727   6.113  0.2499  0.2093 -0.2592
  176POPC   C4B 2545   5.985   4.347   6.433 -0.0763  0.1282 -0.3552
  177POPC   NC3 2546   9.007   5.524   4.167  0.1828  0.0165  0.2862
  177POPC   PO4 2547   9.012   5.326   4.571  0.1749 -0.1395  0.0599
  177POPC   GL1 2548   9.139   5.569   4.994  0.0970  0.2578  0.1303
  177POPC   GL2 2549   9.066   5.377   5.310  0.1403  0.2064 -0.0933
  177POPC   C1A 2550   9.000   5.875   5.243 -0.0247 -0.0031 -0.0045
  177POPC   D2A 2551   9.000   6.044   5.618  0.0737 -0.0020  0.2752
  177POPC   C3A 2552   8.863   5.639   5.920 -0.2016 -0.1269 -0.0452
  177POPC   C4A 2553   8.620   5.512   6.218  0.2507  0.2195 -0.1388
  177POPC   C1B 2554   9.198   5.308   5.635 -0.1218 -0.0585  0.6046
  177POPC   C2B 2555   9.384   5.296   6.019 -0.1265 -0.2864  0.1940
  177POPC   C3B 2556   9.628   5.528   6.318 -0.1149  0.1126  0.3561
  177POPC   C4B 2557  10.056   5.412   6.411  0.0602  0.0692  0.3100
  178POPC   NC3 2558   9.222   9.325   4.506 -0.2017  0.2785  0.0664
  178POPC   PO4 2559   9.411   9.762   4.614  0.1565  0.1064  0.0414
  178POPC   GL1 2560   9.366   9.933   5.116 -0.1581  0.0184  0.0296
  178POPC   GL2 2561   9.624   9.850   5.316 -0.6146  0.1083  0.0125
  178POPC   C1A 2562   9.260  10.070   5.577  0.0374  0.1082  0.1815
  178POPC   D2A 2563   8.972   9.831   5.883  0.0352  0.1324  0.3169
  178POPC   C3A 2564   8.767   9.970   6.160  0.2838  0.2911 -0.0864
  178POPC   C4A 2565   8.851  10.014   6.626 -0.0302  0.3697 -0.0217
  178POPC   C1B 2566   9.498   9.583   5.693  0.1865  0.2251  0.3844
  178POPC   C2B 2567   9.492   9.486   6.098  0.3419 -0.2872  0.0374
  178POPC   C3B 2568   9.489   9.119   6.346  0.0063 -0.1175 -0.3026
  178POPC   C4B 2569   9.132   9.038   6.462  0.0710  0.0608  0.0491
  179POPC   NC3 2570   2.825   7.071   4.738  0.0853  0.1000  0.1436
  179POPC   PO4 2571   2.881   6.675   4.571  0.3634 -0.0439 -0.0258
  179POPC   GL1 2572   3.107   6.760   5.011 -0.0680  0.0910 -0.0656
  179POPC   GL2 2573   3.152   7.087   5.175 -0.1461 -0.0743  0.1464
  179POPC   C1A 2574   3.343   6.690   5.336 -0.3621  0.0046  0.1211
  179POPC   D2A 2575   3.588   6.858   5.798 -0.1526 -0.0517  0.1407
  179POPC   C3A 2576   3.776   6.554   6.148  0.1143 -0.1159 -0.5377
  179POPC   C4A 2577   4.255   6.573   6.219 -0.1296 -0.1607 -0.1790
  179POPC   C1B 2578   3.419   7.227   5.472 -0.2653  0.1109  0.0038
  179POPC   C2B 2579   3.866   7.250   5.631  0.0873 -0.1602  0.1133
  179POPC   C3B 2580   4.026   7.123   6.036  0.1577 -0.0602  0.0860
  179POPC   C4B 2581   4.023   6.968   6.419  0.4102  0.2361 -0.0238
  180POPC   NC3 2582   8.536   8.823   4.402 -0.0418 -0.0837  0.2669
  180POPC   PO4 2583   8.758   9.163   4.586  0.1741  0.2051  0.0551
  180POPC   GL1 2584   8.631   9.096   4.964  0.1796 -0.0239 -0.2948
  180POPC   GL2 2585   8.454   9.385   5.093  0.0024  0.0347  0.0862
  180POPC   C1A 2586   8.802   8.970   5.444  0.1000 -0.0760  0.1867
  180POPC   D2A 2587   8.836   8.842   5.871  0.0176 -0.0089  0.1884
  180POPC   C3A 2588   8.685   8.963   6.230  0.0079 -0.2815 -0.0776
  180POPC   C4A 2589   8.386   8.581   6.548  0.2934  0.0618  0.1813
  180POPC   C1B 2590   8.215   9.212   5.440 -0.2002 -0.1547 -0.0789
  180POPC   C2B 2591   7.905   9.290   5.605  0.3006 -0.3064  0.1860
  180POPC   C3B 2592   7.635   9.721   5.584  0.2615  0.0938 -0.0500
  180POPC   C4B 2593   7.285  10.053   5.661 -0.1208 -0.0968 -0.0196
  181POPC   NC3 2594   3.820   0.322   4.440 -0.3031 -0.0872  0.0689
  181POPC   PO4 2595   3.917   0.683   4.410 -0.0536 -0.0884 -0.0126
  181POPC   GL1 2596   3.810   0.566   4.865 -0.1129 -0.0812  0.0591
  181POPC   GL2 2597   3.574   0.871   4.956 -0.3223 -0.0766  0.1559
  181POPC   C1A 2598   3.861   0.674   5.317  0.1916  0.1653  0.2183
  181POPC   D2A 2599   4.005   0.560   5.658  0.1957 -0.0161 -0.2954
  181POPC   C3A 2600   3.764   0.346   6.100 -0.2763 -0.2229  0.1717
  181POPC   C4A 2601   3.647  -0.096   6.278 -0.2418 -0.4697  0.3741
  181POPC   C1B 2602   3.601   1.118   5.308 -0.2301  0.1728 -0.3454
  181POPC   C2B 2603   3.458   1.239   5.773  0.0710  0.0345  0.0544
  181POPC   C3B 2604   3.551   1.231   6.186  0.0435  0.0689  0.3867
  181POPC   C4B 2605   3.754   1.343   6.527 -0.0653  0.1664  0.0064
  182POPC   NC3 2606   3.620   1.877   3.349  0.1179 -0.0697  0.2054
  182POPC   PO4 2607   4.099   2.023   3.308  0.0515 -0.0959  0.1516
  182POPC   GL1 2608   4.221   1.940   3.728  0.1385  0.1397  0.2483
  182POPC   GL2 2609   3.984   1.802   4.006 -0.0139 -0.0703 -0.0790
  182POPC   C1A 2610   4.473   2.030   4.048  0.2374 -0.0878  0.2058
  182POPC   D2A 2611   4.804   1.871   4.259 -0.1610 -0.1900 -0.1386
  182POPC   C3A 2612   4.864   1.955   4.702 -0.1160 -0.0276  0.3442
  182POPC   C4A 2613   4.961   2.033   5.208 -0.0101 -0.1720  0.3568
  182POPC   C1B 2614   4.040   2.146   4.312 -0.0905 -0.0864 -0.1391
  182POPC   C2B 2615   4.062   2.342   4.704  0.0402 -0.2777  0.1846
  182POPC   C3B 2616   3.978   2.438   5.136 -0.2315 -0.1790  0.4461
  182POPC   C4B 2617   3.987   2.618   5.479  0.1676  0.0250  0.0313
  183POPC   NC3 2618   9.272   4.890   4.514  0.0849 -0.0449 -0.1360
  183POPC   PO4 2619   9.317   5.051   4.974  0.0909  0.0783 -0.0195
  183POPC   GL1 2620   9.508   5.083   5.321 -0.2491 -0.4139  0.3373
  183POPC   GL2 2621   9.648   5.434   5.277 -0.1151  0.0467 -0.0168
  183POPC   C1A 2622   9.461   4.857   5.819 -0.0014  0.2127 -0.0540
  183POPC   D2A 2623   9.394   4.558   6.092  0.2495 -0.2777 -0.0591
  183POPC   C3A 2624   9.059   4.639   6.241  0.0776  0.1950  0.0307
  183POPC   C4A 2625   8.763   4.488   6.427  0.0327  0.0551 -0.2076
  183POPC   C1B 2626   9.797   5.359   5.641 -0.0954  0.0250 -0.1262
  183POPC   C2B 2627   9.966   5.596   5.946  0.1508 -0.0389 -0.0053
  183POPC   C3B 2628  10.126   5.893   6.265 -0.2618 -0.0515 -0.3029
  183POPC   C4B 2629  10.356   6.331   6.409  0.0359 -0.1385 -0.3064
  184POPC   NC3 2630   9.824   0.084   4.832  0.0391  0.1172 -0.2364
  184POPC   PO4 2631   9.802  -0.375   4.993  0.0597 -0.4509  0.0771
  184POPC   GL1 2632   9.855  -0.563   5.366  0.0722  0.0310 -0.0760
  184POPC   GL2 2633  10.078  -0.794   5.294 -0.0938  0.0791  0.1023
  184POPC   C1A 2634   9.908  -0.513   5.856  0.1557 -0.0568  0.2053
  184POPC   D2A 2635  10.021  -0.322   6.244  0.2358  0.0144 -0.0765
  184POPC   C3A 2636   9.778  -0.405   6.688 -0.0538  0.0783 -0.2503
  184POPC   C4A 2637   9.748  -0.855   6.769 -0.1336  0.1394 -0.3911
  184POPC   C1B 2638  10.261  -0.715   5.663 -0.0229  0.4225  0.1087
  184POPC   C2B 2639  10.394  -0.687   6.052  0.1455 -0.2920  0.1285
  184POPC   C3B 2640  10.387  -1.087   6.254  0.2803 -0.0517  0.3559
  184POPC   C4B 2641  10.433  -1.527   6.445  0.2595  0.0113 -0.2150
  185POPC   NC3 2642   6.297   3.148   4.027 -0.2787 -0.1350  0.0196
  185POPC   PO4 2643   6.536   3.344   4.460  0.2078 -0.0394  0.1100
  185POPC   GL1 2644   6.594   3.213   4.825  0.3077  0.1030  0.0709
  185POPC   GL2 2645   6.441   2.888   5.014  0.0642  0.1394  0.3898
  185POPC   C1A 2646   6.439   3.349   5.267  0.1734 -0.2467  0.3511
  185POPC   D2A 2647   6.440   3.322   5.697  0.3958 -0.2351 -0.0697
  185POPC   C3A 2648   6.400   3.778   5.916  0.0310 -0.0498 -0.0350
  185POPC   C4A 2649   6.452   4.215   6.233 -0.3027 -0.2064  0.3435
  185POPC   C1B 2650   6.522   2.850   5.484  0.2309 -0.1647  0.1370
  185POPC   C2B 2651   6.553   2.886   5.902 -0.0057  0.1085  0.1443
  185POPC   C3B 2652   6.310   3.070   6.237 -0.0613 -0.1803  0.1476
  185POPC   C4B 2653   6.008   3.376   6.165 -0.1891  0.1186  0.0083
  186POPC   NC3 2654   5.605   4.180   4.406  0.1476  0.1765 -0.0355
  186POPC   PO4 2655   5.424   3.776   4.546 -0.2312  0.2240 -0.0095
  186POPC   GL1 2656   5.520   3.720   4.928 -0.0633 -0.1516 -0.2112
  186POPC   GL2 2657   5.583   3.397   4.836  0.3363  0.2148  0.2506
  186POPC   C1A 2658   5.613   3.643   5.282  0.0671 -0.1731 -0.0073
  186POPC   D2A 2659   5.395   3.581   5.679  0.0092 -0.0765 -0.0335
  186POPC   C3A 2660   5.552   3.486   6.120 -0.0758 -0.2580 -0.1699
  186POPC   C4A 2661   5.658   3.142   6.517  0.2479 -0.1280  0.4003
  186POPC   C1B 2662   5.677   3.161   5.261  0.1012 -0.1266  0.1018
  186POPC   C2B 2663   6.047   3.051   5.433 -0.1786 -0.2991  0.2909
  186POPC   C3B 2664   6.086   2.916   5.803  0.0458  0.1875  0.1669
  186POPC   C4B 2665   5.846   2.819   6.150  0.1034 -0.2978 -0.1453
  187POPC   NC3 2666   7.624   9.479   3.300 -0.0431 -0.0315 -0.0516
  187POPC   PO4 2667   7.478   9.248   3.667  0.0779 -0.2581  0.1357
  187POPC   GL1 2668   7.074   9.333   4.016 -0.1033 -0.0965 -0.2658
  187POPC   GL2 2669   6.864   9.611   3.942  0.3512  0.1149 -0.3331
  187POPC   C1A 2670   7.074   9.546   4.375 -0.0893 -0.1578 -0.2261
  187POPC   D2A 2671   7.228   9.766   4.755  0.0898 -0.2298  0.1840
  187POPC   C3A 2672   7.008  10.093   4.914  0.1710 -0.2060 -0.1464
  187POPC   C4A 2673   7.068  10.510   4.799  0.1606 -0.0109  0.0585
  187POPC   C1B 2674   6.702   9.920   4.203  0.0682  0.3384  0.1082
  187POPC   C2B 2675   6.536   9.921   4.665 -0.0773  0.1270  0.0695
  187POPC   C3B 2676   6.575   9.895   5.141  0.0377 -0.1453  0.3618
  187POPC   C4B 2677   6.890   9.738   5.346 -0.2045  0.0272 -0.1411
  188POPC   NC3 2678   2.751   6.089   4.691  0.3215 -0.1165  0.1395
  188POPC   PO4 2679   2.741   5.627   4.643  0.1980  0.0038  0.0338
  188POPC   GL1 2680   2.759   5.630   5.075 -0.0921 -0.5255  0.1630
  188POPC   GL2 2681   2.982   5.824   5.156 -0.0942 -0.2679 -0.0533
  188POPC   C1A 2682   2.851   5.582   5.518  0.1691 -0.1125  0.0077
  188POPC   D2A 2683   2.802   5.512   6.018 -0.4618 -0.2188 -0.0173
  188POPC   C3A 2684   2.492   5.613   6.358  0.2102 -0.0684 -0.0488
  188POPC   C4A 2685   2.199   5.820   6.591 -0.1219  0.0747 -0.2193
  188POPC   C1B 2686   3.029   6.036   5.491 -0.2288 -0.1398 -0.0005
  188POPC   C2B 2687   3.103   6.390   5.800  0.0991 -0.0236  0.1888
  188POPC   C3B 2688   3.265   6.610   6.118  0.0562 -0.1206 -0.0724
  188POPC   C4B 2689   3.409   7.017   6.294  0.1289  0.2615  0.0294
  189POPC   NC3 2690   4.108   3.142   4.496  0.3936  0.1704  0.1726
  189POPC   PO4 2691   3.918   3.615   4.686  0.3482  0.0990 -0.2987
  189POPC   GL1 2692   4.091   3.303   4.988  0.3642 -0.1826  0.1795
  189POPC   GL2 2693   4.202   3.619   5.077 -0.4687 -0.0008 -0.3444
  189POPC   C1A 2694   4.080   3.191   5.487  0.1326 -0.0345  0.0470
  189POPC   D2A 2695   3.969   2.998   5.857  0.1702 -0.0197  0.1619
  189POPC   C3A 2696   4.045   3.245   6.177 -0.1723  0.1577 -0.1616
  189POPC   C4A 2697   4.184   3.558   6.465 -0.0837  0.0228  0.3179
  189POPC   C1B 2698   4.230   3.827   5.524  0.3307  0.0618 -0.0818
  189POPC   C2B 2699   4.299   3.592   5.926  0.1377  0.1461  0.4156
  189POPC   C3B 2700   4.590   3.415   6.232 -0.0139  0.3540 -0.2367
  189POPC   C4B 2701   4.621   3.147   6.628 -0.1123 -0.0226 -0.2292
  190POPC   NC3 2702   8.167   5.399   4.149 -0.0086  0.1280 -0.3764
  190POPC   PO4 2703   8.066   5.477   4.556 -0.0473  0.0581 -0.2433
  190POPC   GL1 2704   7.826   5.601   4.931  0.1686  0.0611  0.0509
  190POPC   GL2 2705   7.795   5.390   4.966  0.2497 -0.0950  0.1355
  190POPC   C1A 2706   7.560   5.921   5.302  0.1888  0.1482  0.1686
  190POPC   D2A 2707   7.870   6.216   5.616  0.2706  0.0460  0.2826
  190POPC   C3A 2708   7.809   6.230   6.073  0.0284  0.0782 -0.0183
  190POPC   C4A 2709   7.650   5.825   6.347  0.5774  0.1421  0.0795
  190POPC   C1B 2710   8.184   5.397   5.312  0.0168  0.1019  0.0560
  190POPC   C2B 2711   8.146   5.420   5.772 -0.1234 -0.2874 -0.0525
  190POPC   C3B 2712   7.973   5.307   6.130 -0.3379  0.2241 -0.0313
  190POPC   C4B 2713   7.982   4.992   6.551 -0.4320 -0.0831 -0.0263
  191POPC   NC3 2714   4.094   9.009   3.881 -0.2729  0.0837 -0.2029
  191POPC   PO4 2715   3.670   8.963   4.081  0.3098  0.0092  0.3517
  191POPC   GL1 2716   3.929   9.116   4.400 -0.0582  0.0420  0.2055
  191POPC   GL2 2717   3.818   9.431   4.448  0.4414  0.1279  0.0206
  191POPC   C1A 2718   4.171   8.999   4.655  0.1740  0.2353  0.2466
  191POPC   D2A 2719   4.470   8.858   4.975 -0.0616  0.1470 -0.0038
  191POPC   C3A 2720   4.831   9.113   5.147  0.2322  0.0909 -0.0837
  191POPC   C4A 2721   5.290   9.389   5.156  0.4409  0.0896  0.4643
  191POPC   C1B 2722   3.775   9.702   4.832 -0.3219  0.1760  0.1400
  191POPC   C2B 2723   4.099   9.725   5.065 -0.1519 -0.0567 -0.1900
  191POPC   C3B 2724   4.400   9.786   5.382 -0.0402  0.2570 -0.0684
  191POPC   C4B 2725   4.785   9.586   5.267 -0.0185 -0.2201  0.1418
  192POPC   NC3 2726   4.991   3.069   4.284 -0.2382  0.2123 -0.0098
  192POPC   PO4 2727   4.599   3.053   4.419  0.1006 -0.1594 -0.1585
  192POPC   GL1 2728   4.568   3.236   4.923  0.1259  0.1634 -0.0018
  192POPC   GL2 2729   4.721   3.547   5.060 -0.1348  0.2216 -0.2052
  192POPC   C1A 2730   4.559   3.275   5.421  0.1116 -0.1890 -0.3386
  192POPC   D2A 2731   4.452   3.094   5.759 -0.2316  0.0183 -0.4424
  192POPC   C3A 2732   4.782   2.874   6.076  0.1427 -0.2100  0.1908
  192POPC   C4A 2733   5.112   2.612   6.304 -0.1116  0.0278 -0.1989
  192POPC   C1B 2734   5.125   3.463   5.240 -0.2067  0.1244  0.1939
  192POPC   C2B 2735   5.086   3.107   5.535 -0.1983 -0.4805  0.0272
  192POPC   C3B 2736   4.831   2.847   5.303 -0.1988  0.0849  0.0201
  192POPC   C4B 2737   4.779   2.601   4.898 -0.2441  0.1160 -0.1673
  193POPC   NC3 2738   0.474   4.601   4.457 -0.3451  0.0658 -0.1034
  193POPC   PO4 2739   0.699   4.180   4.480  0.1097 -0.0104  0.1488
  193POPC   GL1 2740   0.418   4.112   4.912  0.0527 -0.1660 -0.5050
  193POPC   GL2 2741   0.008   4.196   4.999  0.0244  0.0077 -0.2373
  193POPC   C1A 2742   0.304   3.925   5.301  0.4034  0.2689  0.0258
  193POPC   D2A 2743   0.326   3.570   5.623  0.3853 -0.2914  0.1244
  193POPC   C3A 2744   0.575   3.600   5.976  0.1998  0.1941  0.0185
  193POPC   C4A 2745   0.817   3.555   6.342  0.0396 -0.0994  0.0030
  193POPC   C1B 2746  -0.103   4.116   5.451  0.2511 -0.0371 -0.1013
  193POPC   C2B 2747  -0.144   3.775   5.717 -0.2613 -0.0011 -0.2635
  193POPC   C3B 2748   0.026   3.537   6.119  0.2720  0.1981  0.3837
  193POPC   C4B 2749  -0.233   3.415   6.486 -0.0480 -0.0994 -0.1460
  194POPC   NC3 2750   0.537   7.362   4.237 -0.1616  0.0569 -0.0929
  194POPC   PO4 2751   0.746   7.084   4.490 -0.1538 -0.1765 -0.0390
  194POPC   GL1 2752   0.668   7.057   4.994  0.1137  0.1203  0.0894
  194POPC   GL2 2753   0.838   6.833   5.240  0.0648  0.1442  0.2441
  194POPC   C1A 2754   0.504   7.315   5.317 -0.0059  0.0444  0.1531
  194POPC   D2A 2755   0.617   7.566   5.794  0.0012  0.5919 -0.1857
  194POPC   C3A 2756   0.949   7.739   6.042  0.2044 -0.0822 -0.2823
  194POPC   C4A 2757   1.208   8.006   6.184  0.0928 -0.3611  0.0695
  194POPC   C1B 2758   1.071   6.891   5.509 -0.1574  0.0566 -0.0061
  194POPC   C2B 2759   1.422   6.777   5.906  0.0279 -0.1285  0.0869
  194POPC   C3B 2760   1.591   6.997   6.271 -0.2698 -0.0932 -0.2296
  194POPC   C4B 2761   1.574   7.241   6.656  0.0830 -0.0338  0.3610
  195POPC   NC3 2762   5.784   2.908   4.248 -0.0259 -0.2238  0.1168
  195POPC   PO4 2763   5.359   2.746   4.080 -0.0241  0.2637 -0.2237
  195POPC   GL1 2764   5.530   2.509   4.423  0.0030  0.2865 -0.3008
  195POPC   GL2 2765   5.732   2.523   4.586  0.2565  0.2301  0.0248
  195POPC   C1A 2766   5.613   2.032   4.578 -0.2785 -0.0237 -0.0734
  195POPC   D2A 2767   5.342   1.919   4.860 -0.1673 -0.1244  0.2081
  195POPC   C3A 2768   5.265   1.574   4.981  0.1576  0.1210  0.3643
  195POPC   C4A 2769   5.153   1.169   5.124 -0.2279  0.1891  0.0654
  195POPC   C1B 2770   5.737   2.269   5.022 -0.1625 -0.0385  0.1190
  195POPC   C2B 2771   5.493   2.144   5.360  0.2711 -0.1687 -0.1954
  195POPC   C3B 2772   5.465   1.991   5.744  0.0169 -0.1949  0.2462
  195POPC   C4B 2773   5.526   2.113   6.204 -0.1490  0.1846 -0.2028
  196POPC   NC3 2774   3.160   4.347   4.905 -0.0595  0.3291 -0.0091
  196POPC   PO4 2775   3.015   3.911   4.763  0.0260 -0.1411 -0.2585
  196POPC   GL1 2776   3.093   3.785   5.145 -0.2357  0.3321  0.0308
  196POPC   GL2 2777   3.284   3.983   5.324  0.3466  0.1551 -0.0598
  196POPC   C1A 2778   2.894   3.913   5.619 -0.0286 -0.1881  0.0177
  196POPC   D2A 2779   2.700   4.194   5.996  0.1420 -0.2802 -0.1656
  196POPC   C3A 2780   2.819   4.393   6.399  0.0632  0.0469  0.0796
  196POPC   C4A 2781   2.746   4.301   6.748 -0.2578  0.2543 -0.3757
  196POPC   C1B 2782   3.442   3.912   5.706 -0.0753  0.1156 -0.2045
  196POPC   C2B 2783   3.782   3.951   5.958  0.0075 -0.0057  0.0654
  196POPC   C3B 2784   4.089   4.019   6.294 -0.3467  0.1583 -0.0142
  196POPC   C4B 2785   4.531   3.966   6.405 -0.0515  0.0757 -0.2927
  197POPC   NC3 2786   8.361   8.382   4.278 -0.1294  0.1546 -0.0083
  197POPC   PO4 2787   8.842   8.378   4.379 -0.3480 -0.0536  0.0012
  197POPC   GL1 2788   8.532   8.258   4.730  0.1736  0.0781 -0.0608
  197POPC   GL2 2789   8.320   8.579   4.879  0.0529  0.1775 -0.4007
  197POPC   C1A 2790   8.326   8.206   5.138 -0.0007 -0.2550  0.1810
  197POPC   D2A 2791   8.006   8.341   5.421 -0.1414 -0.2790 -0.0773
  197POPC   C3A 2792   7.934   8.733   5.596 -0.1790 -0.0021 -0.1583
  197POPC   C4A 2793   7.615   8.945   5.821 -0.0878 -0.1902  0.0570
  197POPC   C1B 2794   8.109   8.944   5.060 -0.0346 -0.0836  0.3024
  197POPC   C2B 2795   7.765   9.041   5.160 -0.4099 -0.0966 -0.4460
  197POPC   C3B 2796   7.432   8.925   5.210  0.1772  0.1109 -0.0710
  197POPC   C4B 2797   7.205   8.650   5.365 -0.0337 -0.1934  0.0067
  198POPC   NC3 2798   5.403   6.452   4.118  0.1386 -0.2128 -0.0140
  198POPC   PO4 2799   5.320   6.110   4.287 -0.1175  0.0783 -0.1111
  198POPC   GL1 2800   5.394   6.353   4.653  0.2156  0.0962  0.2728
  198POPC   GL2 2801   5.804   6.367   4.578 -0.5857  0.0701  0.1161
  198POPC   C1A 2802   5.578   6.240   5.093  0.1848  0.2671 -0.0235
  198POPC   D2A 2803   5.721   6.036   5.504  0.0440  0.1665  0.1832
  198POPC   C3A 2804   5.893   6.188   5.896 -0.2124 -0.0649  0.1357
  198POPC   C4A 2805   5.824   6.528   6.042  0.3625 -0.3300 -0.2265
  198POPC   C1B 2806   5.673   6.689   5.003  0.1953 -0.2088  0.2179
  198POPC   C2B 2807   5.415   6.878   5.378  0.1261 -0.2055  0.2085
  198POPC   C3B 2808   5.606   6.984   5.764 -0.0025 -0.0631 -0.1185
  198POPC   C4B 2809   5.894   7.169   6.105 -0.2940 -0.0448 -0.1482
  199POPC   NC3 2810   4.603   4.859   4.662  0.0055  0.3918  0.1067
  199POPC   PO4 2811   4.671   4.467   4.489 -0.0713  0.0296 -0.0777
  199POPC   GL1 2812   4.503   4.369   4.944 -0.1727  0.1816 -0.2520
  199POPC   GL2 2813   4.250   4.522   5.040 -0.1193 -0.2695  0.1944
  199POPC   C1A 2814   4.536   4.007   5.134 -0.0192 -0.2835  0.1607
  199POPC   D2A 2815   4.751   3.836   5.504  0.0417  0.1334  0.0457
  199POPC   C3A 2816   4.851   3.825   5.971  0.3472  0.0885 -0.0944
  199POPC   C4A 2817   5.087   3.448   6.237 -0.0651 -0.2000  0.0799
  199POPC   C1B 2818   3.963   4.737   5.262 -0.2498 -0.0378  0.0870
  199POPC   C2B 2819   3.905   4.703   5.707 -0.2183  0.2410 -0.1240
  199POPC   C3B 2820   3.793   4.940   6.068 -0.4293 -0.0293 -0.4419
  199POPC   C4B 2821   3.840   4.791   6.464  0.0176 -0.2176 -0.1593
  200POPC   NC3 2822   5.291   4.185   4.849 -0.1186  0.0070 -0.0339
  200POPC   PO4 2823   4.919   4.584   4.910  0.2039  0.3651 -0.3513
  200POPC   GL1 2824   5.050   4.241   5.278 -0.2476 -0.1715  0.0876
  200POPC   GL2 2825   5.360   4.227   5.338  0.0119  0.0174 -0.1364
  200POPC   C1A 2826   4.901   4.329   5.776  0.2976 -0.2928 -0.0281
  200POPC   D2A 2827   4.628   4.570   6.095 -0.0411 -0.3873 -0.2179
  200POPC   C3A 2828   4.391   4.950   6.283  0.0299  0.0019  0.0307
  200POPC   C4A 2829   4.259   4.993   6.656 -0.1037  0.1519 -0.3313
  200POPC   C1B 2830   5.410   4.090   5.766 -0.1082 -0.0815 -0.0881
  200POPC   C2B 2831   5.739   3.965   6.076  0.3778 -0.0232 -0.3868
  200POPC   C3B 2832   6.113   3.841   6.315 -0.0585 -0.2994 -0.0398
  200POPC   C4B 2833   6.353   3.944   6.714  0.2433  0.3606  0.0209
  201POPC   NC3 2834   9.307   8.055   4.858 -0.0554 -0.1694  0.0575
  201POPC   PO4 2835   9.593   8.105   5.086 -0.0342 -0.0209 -0.1295
  201POPC   GL1 2836   9.224   8.041   5.390 -0.1423 -0.1220 -0.3822
  201POPC   GL2 2837   9.365   7.978   5.638 -0.0672  0.0459  0.1065
  201POPC   C1A 2838   8.867   7.989   5.673 -0.0258  0.2167  0.1653
  201POPC   D2A 2839   8.833   8.269   5.995 -0.2634 -0.0579  0.3563
  201POPC   C3A 2840   8.511   8.158   6.288  0.2408  0.0096  0.3350
  201POPC   C4A 2841   8.056   8.135   6.359  0.2002  0.0710 -0.1863
  201POPC   C1B 2842   9.330   8.068   6.123 -0.0593 -0.0516 -0.0043
  201POPC   C2B 2843   8.912   7.901   6.278 -0.0127 -0.0552 -0.1809
  201POPC   C3B 2844   8.870   7.637   6.561 -0.0973  0.1908  0.1203
  201POPC   C4B 2845   8.561   7.500   6.812 -0.3572  0.1026  0.0740
  202POPC   NC3 2846   8.674   3.681   4.676 -0.0932 -0.1002  0.2179
  202POPC   PO4 2847   9.142   3.562   4.901  0.2739 -0.2756  0.1671
  202POPC   GL1 2848   8.846   3.591   5.137 -0.0873  0.3079  0.0159
  202POPC   GL2 2849   8.652   3.309   5.083 -0.2349  0.1365  0.1765
  202POPC   C1A 2850   8.841   3.776   5.493  0.0894 -0.2415  0.0029
  202POPC   D2A 2851   8.794   3.847   5.973  0.0374 -0.0981  0.1497
  202POPC   C3A 2852   8.936   4.081   6.247  0.1134  0.0730  0.1096
  202POPC   C4A 2853   9.185   4.255   6.598  0.3397  0.0868 -0.2032
  202POPC   C1B 2854   8.623   3.236   5.524  0.1022 -0.2424 -0.1081
  202POPC   C2B 2855   8.634   3.273   6.019  0.1331  0.0750  0.0182
  202POPC   C3B 2856   8.545   3.099   6.403  0.1236 -0.1381  0.1094
  202POPC   C4B 2857   8.398   3.114   6.802  0.1015 -0.0469 -0.0090
  203POPC   NC3 2858   1.046   4.272   4.837 -0.3216 -0.2034  0.0163
  203POPC   PO4 2859   0.811   4.565   4.874 -0.0484  0.0567  0.0842
  203POPC   GL1 2860   0.712   4.412   5.268 -0.0760 -0.3892  0.0377
  203POPC   GL2 2861   0.817   4.080   5.243 -0.0367  0.0740  0.2471
  203POPC   C1A 2862   0.432   4.320   5.654 -0.0104 -0.1527 -0.4820
  203POPC   D2A 2863   0.166   4.063   5.983  0.3701  0.3501 -0.1316
  203POPC   C3A 2864   0.404   3.956   6.281 -0.0574  0.0752  0.0513
  203POPC   C4A 2865   0.681   4.016   6.579  0.0276  0.0525 -0.0603
  203POPC   C1B 2866   0.797   3.804   5.603  0.1403  0.2773 -0.0829
  203POPC   C2B 2867   0.888   3.998   6.096  0.1848 -0.1581 -0.0325
  203POPC   C3B 2868   0.755   4.387   6.245  0.1052 -0.0225 -0.2562
  203POPC   C4B 2869   0.843   4.719   6.612  0.1611 -0.0832 -0.1943
  204POPC   NC3 2870   4.347   4.081   4.537 -0.1924 -0.3150 -0.0035
  204POPC   PO4 2871   4.050   4.133   4.720 -0.0256 -0.1969 -0.1161
  204POPC   GL1 2872   3.891   4.089   5.116  0.3990  0.0397 -0.0473
  204POPC   GL2 2873   3.736   3.793   5.243 -0.1091  0.5620  0.1360
  204POPC   C1A 2874   3.994   4.243   5.392  0.3965  0.0643 -0.1596
  204POPC   D2A 2875   4.368   4.455   5.600  0.1612 -0.0630  0.1484
  204POPC   C3A 2876   4.359   4.830   5.806 -0.1321  0.0319  0.1447
  204POPC   C4A 2877   4.519   5.235   5.747  0.2356 -0.3717  0.1358
  204POPC   C1B 2878   3.728   3.582   5.548  0.1833  0.1111 -0.2747
  204POPC   C2B 2879   3.659   3.430   5.894  0.1665  0.1021  0.1816
  204POPC   C3B 2880   3.681   3.610   6.291  0.0715 -0.0738 -0.4623
  204POPC   C4B 2881   3.324   3.734   6.517  0.0564  0.1887  0.3473
  205POPC   NC3 2882   1.863   0.546   4.743 -0.0295  0.0420  0.1574
  205POPC   PO4 2883   1.401   0.296   4.801  0.4769  0.1160  0.0404
  205POPC   GL1 2884   1.564   0.282   5.172  0.0738 -0.3472  0.2050
  205POPC   GL2 2885   1.323   0.285   5.449 -0.2299 -0.2369 -0.1374
  205POPC   C1A 2886   1.843   0.382   5.498 -0.2496 -0.4206 -0.1042
  205POPC   D2A 2887   2.193   0.407   5.584 -0.0309 -0.2288 -0.0523
  205POPC   C3A 2888   2.466   0.779   5.755  0.3237  0.1878  0.4634
  205POPC   C4A 2889   2.541   1.065   6.026 -0.0234  0.0532 -0.0845
  205POPC   C1B 2890   1.544   0.192   5.856  0.0326  0.1532 -0.0328
  205POPC   C2B 2891   1.922   0.299   6.007 -0.2166  0.0492  0.0722
  205POPC   C3B 2892   2.252   0.379   6.103 -0.1938  0.0179 -0.4664
  205POPC   C4B 2893   2.556   0.663   6.268 -0.3041  0.0379  0.1058
  206POPC   NC3 2894   2.981   8.271   4.259  0.1665  0.1804  0.0364
  206POPC   PO4 2895   3.235   8.466   4.562 -0.1490  0.1554  0.1976
  206POPC   GL1 2896   3.248   8.564   4.991 -0.4155  0.0688 -0.0261
  206POPC   GL2 2897   3.177   8.956   5.000 -0.0373  0.2147  0.2128
  206POPC   C1A 2898   3.136   8.503   5.396 -0.0056 -0.1900  0.0066
  206POPC   D2A 2899   3.173   8.205   5.742  0.0626  0.1873 -0.0303
  206POPC   C3A 2900   3.267   8.025   6.145  0.1346  0.0018 -0.1425
  206POPC   C4A 2901   3.680   7.835   6.306  0.0287  0.1600 -0.3445
  206POPC   C1B 2902   3.316   8.954   5.411  0.0440 -0.1653 -0.0423
  206POPC   C2B 2903   2.914   8.819   5.752 -0.4428 -0.2634  0.1515
  206POPC   C3B 2904   2.800   8.524   6.010 -0.0263 -0.2083 -0.3090
  206POPC   C4B 2905   2.708   8.128   6.156  0.0526  0.1116 -0.1606
  207POPC   NC3 2906   0.425   8.629   4.097  0.0766 -0.0012  0.2940
  207POPC   PO4 2907   0.304   8.653   4.585 -0.1216 -0.4032  0.1168
  207POPC   GL1 2908   0.204   8.681   5.058 -0.0249  0.4426  0.0439
  207POPC   GL2 2909  -0.071   8.555   5.311 -0.1873 -0.0550 -0.1724
  207POPC   C1A 2910   0.539   8.753   5.435  0.0026  0.0743 -0.1956
  207POPC   D2A 2911   0.697   8.782   5.785 -0.2349 -0.0784  0.2952
  207POPC   C3A 2912   1.134   8.684   5.600  0.1393  0.2699  0.0079
  207POPC   C4A 2913   1.293   8.304   5.769 -0.3033 -0.0720 -0.0259
  207POPC   C1B 2914   0.075   8.758   5.750 -0.1378  0.2289 -0.0735
  207POPC   C2B 2915   0.013   8.922   6.095 -0.1243 -0.0601  0.2224
  207POPC   C3B 2916   0.218   9.164   6.482 -0.0439 -0.0942 -0.0513
  207POPC   C4B 2917   0.270   9.214   6.920 -0.1068 -0.1077  0.0646
  208POPC   NC3 2918   7.333   8.520   3.403  0.1489 -0.2074  0.2514
  208POPC   PO4 2919   7.269   8.325   3.804  0.4079  0.4184  0.0351
  208POPC   GL1 2920   7.131   8.359   4.264  0.0105  0.0266 -0.0606
  208POPC   GL2 2921   7.203   8.632   4.384 -0.2289  0.1720 -0.0788
  208POPC   C1A 2922   6.676   8.481   4.386  0.0080  0.1840  0.3392
  208POPC   D2A 2923   6.291   8.604   4.501  0.0826 -0.4287 -0.0178
  208POPC   C3A 2924   5.956   8.308   4.451 -0.1918 -0.0600  0.1209
  208POPC   C4A 2925   5.567   8.062   4.491 -0.0088  0.2496  0.1786
  208POPC   C1B 2926   7.183   9.073   4.502 -0.0533  0.0204 -0.1832
  208POPC   C2B 2927   7.335   9.299   4.859  0.0322 -0.2359 -0.3797
  208POPC   C3B 2928   7.300   9.447   5.206  0.1485  0.1481  0.1964
  208POPC   C4B 2929   7.247   9.316   5.708 -0.1768  0.2113  0.0550
  209POPC   NC3 2930   1.056   6.213   4.852  0.0931 -0.0672 -0.1905
  209POPC   PO4 2931   0.634   6.448   5.016 -0.0365 -0.1158  0.1110
  209POPC   GL1 2932   0.839   6.230   5.329  0.2288 -0.1081 -0.1786
  209POPC   GL2 2933   0.844   6.432   5.550 -0.2191  0.1441  0.2382
  209POPC   C1A 2934   0.892   5.866   5.691 -0.0298 -0.2546  0.2809
  209POPC   D2A 2935   0.612   5.612   5.885  0.1420  0.0732 -0.1745
  209POPC   C3A 2936   0.595   5.511   6.269 -0.2302  0.0503  0.0183
  209POPC   C4A 2937   0.552   5.172   6.569 -0.1010  0.2558 -0.0463
  209POPC   C1B 2938   0.874   6.583   5.926 -0.0337  0.0437  0.0238
  209POPC   C2B 2939   0.788   6.690   6.272 -0.0350  0.1491  0.1444
  209POPC   C3B 2940   0.811   6.513   6.704 -0.0874 -0.1188 -0.3899
  209POPC   C4B 2941   0.929   6.245   7.030 -0.0574 -0.2441  0.1722
  210POPC   NC3 2942   2.149   8.826   4.446 -0.0259 -0.2099 -0.0768
  210POPC   PO4 2943   2.341   8.715   4.706 -0.0917  0.2624 -0.1337
  210POPC   GL1 2944   2.418   8.916   5.061  0.1048 -0.0395 -0.0398
  210POPC   GL2 2945   2.724   8.796   5.236  0.1986 -0.0984  0.1875
  210POPC   C1A 2946   2.248   8.842   5.428 -0.0509  0.1822 -0.0758
  210POPC   D2A 2947   2.390   8.817   5.835 -0.2344  0.0586  0.2160
  210POPC   C3A 2948   2.723   9.094   6.100  0.1768 -0.1869  0.0047
  210POPC   C4A 2949   2.966   9.477   6.245  0.1738  0.2777  0.2357
  210POPC   C1B 2950   2.830   9.186   5.429 -0.1103  0.0308  0.0775
  210POPC   C2B 2951   2.743   9.614   5.512  0.1930 -0.0700 -0.1210
  210POPC   C3B 2952   2.962   9.772   5.799 -0.0107  0.0370 -0.1896
  210POPC   C4B 2953   3.189   9.922   6.125  0.1564  0.0877  0.0698
  211POPC   NC3 2954   1.428   5.040   4.442  0.1925 -0.2632 -0.0548
  211POPC   PO4 2955   1.456   5.283   4.785 -0.0832 -0.0781  0.0709
  211POPC   GL1 2956   1.247   5.314   5.191 -0.0163 -0.0833  0.1243
  211POPC   GL2 2957   1.526   5.126   5.532  0.4468 -0.0824 -0.1400
  211POPC   C1A 2958   1.281   5.572   5.563 -0.0589  0.0870 -0.4128
  211POPC   D2A 2959   1.318   5.762   5.957  0.1523 -0.1799 -0.2049
  211POPC   C3A 2960   0.988   5.722   6.213 -0.4528  0.1484  0.3561
  211POPC   C4A 2961   0.758   5.965   6.555  0.0084 -0.2360  0.3316
  211POPC   C1B 2962   1.746   5.496   5.676  0.2578  0.1762 -0.0042
  211POPC   C2B 2963   1.842   5.769   6.071  0.0205  0.0840  0.4459
  211POPC   C3B 2964   1.540   5.713   6.413 -0.2591  0.0574 -0.1392
  211POPC   C4B 2965   1.206   5.745   6.682  0.0843 -0.1238  0.2909
  212POPC   NC3 2966   7.668   8.700   3.760  0.3180  0.1112 -0.1163
  212POPC   PO4 2967   7.625   8.478   4.164  0.4343 -0.1812  0.2705
  212POPC   GL1 2968   7.714   8.673   4.520  0.0457  0.0488  0.2560
  212POPC   GL2 2969   7.964   8.582   4.550 -0.2914 -0.1468  0.1895
  212POPC   C1A 2970   7.599   8.953   4.690 -0.0078 -0.2896 -0.0860
  212POPC   D2A 2971   7.859   9.409   4.773 -0.0870  0.1263  0.0027
  212POPC   C3A 2972   7.953   9.550   5.136  0.0824  0.2342  0.0567
  212POPC   C4A 2973   8.251   9.727   5.477  0.3994  0.4129 -0.0577
  212POPC   C1B 2974   7.769   8.587   5.003  0.1046  0.5766 -0.1075
  212POPC   C2B 2975   7.509   8.310   5.273  0.3673 -0.3422 -0.2998
  212POPC   C3B 2976   7.595   8.183   5.619 -0.0791  0.0152  0.0127
  212POPC   C4B 2977   7.740   8.412   5.996 -0.0787  0.0844 -0.1864
  213POPC   NC3 2978   7.794   3.767   4.680 -0.0935  0.2733 -0.3498
  213POPC   PO4 2979   7.591   4.136   4.689 -0.1461  0.0507 -0.0698
  213POPC   GL1 2980   7.807   4.233   5.045 -0.2375 -0.0501 -0.3325
  213POPC   GL2 2981   7.809   4.610   5.097 -0.1421  0.0663 -0.1177
  213POPC   C1A 2982   7.876   4.289   5.559 -0.0353 -0.1208  0.0531
  213POPC   D2A 2983   7.975   4.453   5.940 -0.3803 -0.2228  0.3704
  213POPC   C3A 2984   8.251   4.593   6.256  0.1362 -0.1333 -0.2866
  213POPC   C4A 2985   8.305   4.536   6.685  0.1180  0.2718  0.0362
  213POPC   C1B 2986   7.907   4.956   5.302 -0.0065 -0.2506 -0.0385
  213POPC   C2B 2987   8.003   4.942   5.783  0.1955  0.2282  0.0998
  213POPC   C3B 2988   7.759   4.840   6.191 -0.2498 -0.0288  0.2223
  213POPC   C4B 2989   7.750   4.534   6.547 -0.1796  0.1249  0.0326
  214POPC   NC3 2990   3.399   9.352   4.210 -0.2437 -0.0913  0.3190
  214POPC   PO4 2991   2.989   9.236   4.454  0.0655  0.1610 -0.0868
  214POPC   GL1 2992   3.354   9.359   4.701  0.0383 -0.1698  0.0804
  214POPC   GL2 2993   3.195   9.668   4.705  0.0703  0.0574 -0.0300
  214POPC   C1A 2994   3.582   9.259   5.012  0.0054  0.0931 -0.1098
  214POPC   D2A 2995   3.925   8.994   5.134 -0.1459 -0.0552 -0.1849
  214POPC   C3A 2996   3.783   8.963   5.560 -0.2596 -0.0714 -0.3128
  214POPC   C4A 2997   3.733   8.904   6.003  0.1667 -0.0998 -0.0175
  214POPC   C1B 2998   3.141   9.575   5.164 -0.1633  0.0220 -0.1349
  214POPC   C2B 2999   3.280   9.473   5.470  0.0141 -0.2063  0.1121
  214POPC   C3B 3000   3.146   9.232   5.831  0.1311  0.0005 -0.0755
  214POPC   C4B 3001   3.273   9.128   6.205 -0.0785 -0.1190  0.1409
  215POPC   NC3 3002   9.308   7.606   4.102  0.2179 -0.0175  0.0330
  215POPC   PO4 3003   9.411   7.772   4.505 -0.0996 -0.0952 -0.1613
  215POPC   GL1 3004   9.340   7.595   4.974  0.3185  0.1831  0.0709
  215POPC   GL2 3005   9.563   7.636   5.263  0.0708 -0.1047 -0.6414
  215POPC   C1A 3006   8.972   7.646   5.283 -0.0622  0.2711 -0.2038
  215POPC   D2A 3007   8.837   7.511   5.642 -0.0302  0.3019  0.0792
  215POPC   C3A 3008   8.459   7.731   5.879 -0.1818 -0.1929  0.0002
  215POPC   C4A 3009   8.278   7.734   6.222 -0.3400  0.0876 -0.2154
  215POPC   C1B 3010   9.864   7.592   5.632 -0.1419 -0.2283  0.0757
  215POPC   C2B 3011  10.055   7.437   6.073  0.0547  0.0679  0.0453
  215POPC   C3B 3012  10.093   7.105   6.374 -0.0600  0.0598  0.3870
  215POPC   C4B 3013  10.021   6.708   6.534 -0.0691  0.1614 -0.0795
  216POPC   NC3 3014   5.583   4.641   4.055  0.0961  0.2633  0.0571
  216POPC   PO4 3015   5.668   4.770   4.477 -0.1915 -0.0943 -0.0725
  216POPC   GL1 3016   5.563   4.821   4.864  0.0741  0.0234  0.3541
  216POPC   GL2 3017   5.647   5.136   5.107 -0.1349  0.0130  0.0329
  216POPC   C1A 3018   5.629   4.664   5.290 -0.2782 -0.1338  0.0594
  216POPC   D2A 3019   5.769   4.372   5.541 -0.0791  0.0020 -0.0484
  216POPC   C3A 3020   5.661   4.575   5.992  0.2898  0.0349 -0.0017
  216POPC   C4A 3021   5.567   4.951   6.368 -0.2492  0.1568 -0.3202
  216POPC   C1B 3022   5.623   5.111   5.518 -0.0257 -0.0840 -0.1463
  216POPC   C2B 3023   5.770   5.089   5.894 -0.1098 -0.1122  0.0341
  216POPC   C3B 3024   6.060   5.227   6.207 -0.2221 -0.0844  0.0002
  216POPC   C4B 3025   6.202   5.624   6.518 -0.2280 -0.2192 -0.3378
  217POPC   NC3 3026   8.319   0.758   3.832  0.0064  0.6782 -0.1115
  217POPC   PO4 3027   8.469   1.167   4.000 -0.1008 -0.2511  0.2215
  217POPC   GL1 3028   8.234   1.292   4.472 -0.1745 -0.0447 -0.1504
  217POPC   GL2 3029   8.412   1.603   4.505  0.0337 -0.0704  0.1292
  217POPC   C1A 3030   7.905   1.311   4.771  0.4097 -0.1104  0.2609
  217POPC   D2A 3031   7.576   1.131   5.033  0.4175  0.3951 -0.2111
  217POPC   C3A 3032   7.164   0.976   5.088  0.0037 -0.0919  0.2522
  217POPC   C4A 3033   6.788   0.826   5.186 -0.0465 -0.1904  0.4647
  217POPC   C1B 3034   8.538   1.825   4.869  0.1336 -0.2311  0.0337
  217POPC   C2B 3035   8.424   1.856   5.423 -0.0189 -0.0811 -0.0470
  217POPC   C3B 3036   8.465   2.037   5.798 -0.1365 -0.4254 -0.0517
  217POPC   C4B 3037   8.523   2.186   6.277  0.2831 -0.0546  0.0634
  218POPC   NC3 3038   1.270   2.432   4.813  0.1926 -0.0871 -0.0202
  218POPC   PO4 3039   1.096   2.077   4.778 -0.1521  0.1929 -0.1753
  218POPC   GL1 3040   1.188   2.117   5.191  0.1498  0.0370 -0.3012
  218POPC   GL2 3041   1.474   2.078   5.220 -0.1549  0.1456  0.0033
  218POPC   C1A 3042   1.246   2.162   5.608  0.1708  0.2887 -0.0240
  218POPC   D2A 3043   1.110   1.938   5.960  0.0433 -0.2138  0.0318
  218POPC   C3A 3044   0.778   1.557   6.067  0.0212 -0.0041 -0.0347
  218POPC   C4A 3045   0.742   1.275   5.927 -0.3299 -0.4155 -0.2151
  218POPC   C1B 3046   1.467   1.694   5.585 -0.0879 -0.1684 -0.1178
  218POPC   C2B 3047   1.645   1.831   6.106  0.1302  0.0535  0.0727
  218POPC   C3B 3048   1.874   1.834   6.547 -0.1357 -0.0035  0.0864
  218POPC   C4B 3049   1.965   1.834   6.982  0.1513  0.0722 -0.1493
  219POPC   NC3 3050   9.130   8.957   4.899 -0.0440  0.0449 -0.1378
  219POPC   PO4 3051   8.807   8.635   4.833  0.1873 -0.0212 -0.1707
  219POPC   GL1 3052   8.709   8.574   5.224  0.1048  0.1645 -0.3038
  219POPC   GL2 3053   8.880   8.474   5.504  0.0936  0.0326 -0.1348
  219POPC   C1A 3054   8.400   8.685   5.499  0.2673 -0.4134 -0.1650
  219POPC   D2A 3055   8.295   8.934   5.899  0.0072  0.0284 -0.1133
  219POPC   C3A 3056   8.044   8.817   6.110  0.1715  0.1160  0.0081
  219POPC   C4A 3057   7.867   9.089   6.317  0.3105  0.2071  0.2278
  219POPC   C1B 3058   9.218   8.532   5.696  0.0926 -0.3190 -0.2033
  219POPC   C2B 3059   9.550   8.465   5.700 -0.2343  0.1412  0.1129
  219POPC   C3B 3060   9.788   8.130   5.787 -0.3324 -0.0618 -0.0795
  219POPC   C4B 3061   9.845   7.944   6.186 -0.1397 -0.1462  0.2282
  220POPC   NC3 3062   3.241   2.624   3.962  0.1132 -0.2132 -0.0273
  220POPC   PO4 3063   3.466   2.609   4.318 -0.0055  0.0715 -0.3862
  220POPC   GL1 3064   3.496   2.392   4.672  0.0460 -0.0986 -0.0399
  220POPC   GL2 3065   3.547   2.483   4.954  0.3561  0.0353 -0.2327
  220POPC   C1A 3066   3.723   1.993   4.827  0.0330 -0.2530 -0.2958
  220POPC   D2A 3067   3.957   1.901   5.159 -0.0732  0.1535  0.0400
  220POPC   C3A 3068   3.937   2.088   5.473  0.1948 -0.1360  0.1413
  220POPC   C4A 3069   4.176   2.194   5.838  0.0963 -0.0979  0.3066
  220POPC   C1B 3070   3.478   2.154   5.249 -0.0933 -0.0364  0.0695
  220POPC   C2B 3071   3.449   1.925   5.644 -0.0424  0.1963  0.1336
  220POPC   C3B 3072   3.614   1.867   5.930 -0.3094 -0.0587 -0.0594
  220POPC   C4B 3073   3.638   1.759   6.290  0.2360 -0.3783 -0.3410
  221POPC   NC3 3074   8.840   6.599   4.981 -0.1704  0.0409  0.1367
  221POPC   PO4 3075   8.653   6.320   4.827 -0.0728 -0.1613 -0.2102
  221POPC   GL1 3076   8.509   6.375   5.329  0.0111  0.0212 -0.0130
  221POPC   GL2 3077   8.607   6.667   5.419 -0.3177  0.3838 -0.0908
  221POPC   C1A 3078   8.473   6.181   5.720  0.0675  0.2411 -0.1239
  221POPC   D2A 3079   8.291   5.868   6.016  0.3037  0.0624  0.2232
  221POPC   C3A 3080   8.143   5.818   6.431 -0.0299  0.1023 -0.2049
  221POPC   C4A 3081   8.311   5.437   6.570  0.2252  0.0459  0.1068
  221POPC   C1B 3082   8.896   6.577   5.700 -0.0755  0.0879 -0.2823
  221POPC   C2B 3083   8.858   6.396   5.964 -0.3523  0.0627 -0.0776
  221POPC   C3B 3084   9.007   6.144   6.172 -0.0955  0.1561 -0.3199
  221POPC   C4B 3085   9.406   6.049   6.499  0.1738 -0.1576  0.0134
  222POPC   NC3 3086   8.179   6.331   4.523  0.2949 -0.2005 -0.2391
  222POPC   PO4 3087   7.967   6.692   4.352 -0.0665 -0.0215  0.1821
  222POPC   GL1 3088   7.544   6.748   4.698 -0.1895 -0.0754 -0.0150
  222POPC   GL2 3089   7.587   6.424   4.903  0.2943 -0.1142  0.1163
  222POPC   C1A 3090   7.218   6.876   5.097  0.0357  0.1939  0.1201
  222POPC   D2A 3091   7.205   6.944   5.520 -0.1533  0.3370  0.1204
  222POPC   C3A 3092   7.539   7.163   5.798  0.0673  0.0955  0.1095
  222POPC   C4A 3093   7.849   7.378   6.041  0.1503  0.0302 -0.3493
  222POPC   C1B 3094   7.678   6.590   5.233 -0.0976 -0.3109 -0.0175
  222POPC   C2B 3095   7.658   6.659   5.580  0.1581  0.1007 -0.1409
  222POPC   C3B 3096   7.479   6.650   5.945  0.0335  0.0246  0.2211
  222POPC   C4B 3097   7.503   6.731   6.410  0.0843 -0.2193 -0.1619
  223POPC   NC3 3098   0.105   9.086   4.806  0.1531  0.1491  0.1599
  223POPC   PO4 3099  -0.235   8.971   5.081  0.0435  0.1688 -0.3329
  223POPC   GL1 3100  -0.541   8.941   5.417 -0.0041  0.1247 -0.1084
  223POPC   GL2 3101  -0.656   9.212   5.422 -0.0738 -0.3649  0.0810
  223POPC   C1A 3102  -0.461   8.930   5.902 -0.3223  0.0754  0.0044
  223POPC   D2A 3103  -0.576   8.653   6.226 -0.2288  0.1307 -0.3427
  223POPC   C3A 3104  -0.434   8.391   6.625  0.0534 -0.1645 -0.4080
  223POPC   C4A 3105  -0.184   8.269   7.071 -0.1537 -0.0266  0.0471
  223POPC   C1B 3106  -0.819   9.296   5.866 -0.2774 -0.0262 -0.2634
  223POPC   C2B 3107  -1.068   9.460   6.308 -0.0582 -0.0624  0.1494
  223POPC   C3B 3108  -1.337   9.595   6.666 -0.2791 -0.1104  0.0461
  223POPC   C4B 3109  -1.421   9.968   6.960 -0.2467  0.2306  0.0949
  224POPC   NC3 3110   0.485   5.155   3.970 -0.0338  0.1397  0.2741
  224POPC   PO4 3111   0.203   4.911   4.185 -0.0601  0.1963 -0.1025
  224POPC   GL1 3112   0.271   5.086   4.716  0.3303  0.2934 -0.0811
  224POPC   GL2 3113   0.035   5.072   4.991  0.0081  0.1160 -0.1738
  224POPC   C1A 3114   0.439   4.964   5.200 -0.1800  0.0432  0.1137
  224POPC   D2A 3115   0.552   4.842   5.614  0.4238  0.1406 -0.1130
  224POPC   C3A 3116   0.814   4.630   5.780  0.1547  0.1319  0.0344
  224POPC   C4A 3117   1.024   4.311   5.627  0.0323  0.0516  0.2355
  224POPC   C1B 3118   0.038   4.877   5.497  0.3053 -0.2294 -0.2631
  224POPC   C2B 3119   0.010   4.544   5.911 -0.4637  0.0926 -0.4210
  224POPC   C3B 3120   0.350   4.557   6.064  0.1396  0.0822 -0.1837
  224POPC   C4B 3121   0.757   4.901   6.165 -0.0265  0.1691 -0.4832
  225POPC   NC3 3122   5.084   2.858   3.695  0.1510  0.1019  0.2305
  225POPC   PO4 3123   5.036   2.411   3.769 -0.1132 -0.0186  0.0662
  225POPC   GL1 3124   4.844   2.333   4.196 -0.1480 -0.1766 -0.1367
  225POPC   GL2 3125   4.945   2.588   4.387  0.1140 -0.1190 -0.0595
  225POPC   C1A 3126   4.528   2.323   4.543  0.2318  0.2437  0.2112
  225POPC   D2A 3127   4.318   2.768   4.723 -0.0496 -0.0777  0.0151
  225POPC   C3A 3128   4.293   2.874   5.199  0.4478  0.0266 -0.0511
  225POPC   C4A 3129   4.447   2.637   5.664  0.4220  0.2816 -0.0461
  225POPC   C1B 3130   5.178   2.391   4.703  0.2064 -0.0099  0.0269
  225POPC   C2B 3131   5.221   2.486   5.076 -0.1320 -0.1283 -0.0647
  225POPC   C3B 3132   5.148   2.496   5.467 -0.1008 -0.4133 -0.0028
  225POPC   C4B 3133   4.983   2.364   5.776 -0.0044  0.4205  0.2794
  226POPC   NC3 3134   3.261   2.895   4.671  0.0760  0.3009  0.2938
  226POPC   PO4 3135   3.668   2.928   4.769  0.1007 -0.0345  0.0039
  226POPC   GL1 3136   3.556   3.030   5.225 -0.1211  0.0155  0.0544
  226POPC   GL2 3137   3.365   3.344   5.163  0.0465 -0.2603  0.1260
  226POPC   C1A 3138   3.473   2.928   5.690  0.1432  0.1295 -0.0831
  226POPC   D2A 3139   3.459   2.943   6.047  0.0906 -0.0002 -0.1816
  226POPC   C3A 3140   3.350   2.754   6.435  0.0953  0.1550  0.2540
  226POPC   C4A 3141   3.139   2.841   6.923  0.3408 -0.1325  0.1464
  226POPC   C1B 3142   3.174   3.435   5.541  0.3352 -0.2980  0.0188
  226POPC   C2B 3143   3.195   3.497   5.890  0.2020 -0.2591  0.0259
  226POPC   C3B 3144   3.019   3.849   6.141 -0.1969  0.1332  0.2335
  226POPC   C4B 3145   2.606   3.876   6.376  0.4656  0.1276 -0.1795
  227POPC   NC3 3146   9.869   2.531   4.303 -0.0222 -0.0216 -0.2077
  227POPC   PO4 3147   9.617   2.711   4.619 -0.1894  0.1540  0.0439
  227POPC   GL1 3148   9.589   2.660   5.027  0.0377  0.2904 -0.0998
  227POPC   GL2 3149   9.741   2.373   5.148 -0.1420  0.1490  0.1380
  227POPC   C1A 3150   9.639   2.860   5.392  0.1721 -0.4790  0.1064
  227POPC   D2A 3151   9.706   3.281   5.607  0.1034  0.4466  0.0585
  227POPC   C3A 3152   9.243   3.471   5.810 -0.2317 -0.1353 -0.0679
  227POPC   C4A 3153   9.160   3.341   6.286 -0.0112 -0.0509 -0.1545
  227POPC   C1B 3154   9.857   2.401   5.560 -0.1006  0.1143 -0.2511
  227POPC   C2B 3155  10.218   2.278   5.795 -0.2160 -0.1536 -0.0686
  227POPC   C3B 3156  10.561   2.036   6.084  0.2409  0.0521 -0.1063
  227POPC   C4B 3157  10.695   1.957   6.553 -0.2394 -0.0842 -0.0712
  228POPC   NC3 3158   6.804   8.595   3.495  0.0731  0.3553 -0.0469
  228POPC   PO4 3159   6.655   9.040   3.347 -0.1350 -0.2428  0.2073
  228POPC   GL1 3160   6.536   9.073   3.773  0.2592  0.2799  0.2996
  228POPC   GL2 3161   6.668   8.787   3.944  0.0636 -0.0134 -0.0013
  228POPC   C1A 3162   6.155   8.948   4.014  0.1093 -0.0060  0.1237
  228POPC   D2A 3163   6.206   9.143   4.384 -0.0484  0.0633 -0.0045
  228POPC   C3A 3164   6.310   9.128   4.749  0.1428 -0.0469  0.1384
  228POPC   C4A 3165   6.281   8.831   5.025  0.0605 -0.2964  0.1134
  228POPC   C1B 3166   6.700   8.942   4.302 -0.1471 -0.2055 -0.2231
  228POPC   C2B 3167   6.767   8.859   4.700  0.1321 -0.2684  0.1881
  228POPC   C3B 3168   7.128   8.671   4.850 -0.4070  0.0512  0.0924
  228POPC   C4B 3169   7.369   8.333   4.791  0.1176 -0.0888 -0.0867
  229POPC   NC3 3170   6.584   9.407   3.000 -0.1534  0.2400  0.1184
  229POPC   PO4 3171   6.142   9.463   2.894 -0.0786 -0.1250  0.0999
  229POPC   GL1 3172   6.242   9.431   3.363 -0.0120  0.1507  0.0389
  229POPC   GL2 3173   5.975   9.163   3.595 -0.0763  0.0894 -0.2116
  229POPC   C1A 3174   6.099   9.596   3.752  0.0415  0.1733 -0.1908
  229POPC   D2A 3175   6.213   9.666   4.173 -0.1665  0.1431 -0.0524
  229POPC   C3A 3176   6.567   9.501   4.403 -0.2011  0.3062  0.2692
  229POPC   C4A 3177   6.836   9.369   4.783 -0.1619 -0.1392 -0.1861
  229POPC   C1B 3178   5.753   9.285   4.021  0.0815  0.0738  0.2496
  229POPC   C2B 3179   5.764   9.395   4.476 -0.0343  0.0618  0.0804
  229POPC   C3B 3180   5.743   9.298   4.896 -0.3774 -0.0500 -0.2428
  229POPC   C4B 3181   6.080   9.220   5.186 -0.1063 -0.0079 -0.2824
  230POPC   NC3 3182   0.059   7.746   4.982 -0.3612  0.0865 -0.1281
  230POPC   PO4 3183  -0.096   7.342   4.951  0.2071  0.2973  0.0803
  230POPC   GL1 3184  -0.006   7.242   5.258 -0.1081  0.1672  0.3960
  230POPC   GL2 3185  -0.282   7.190   5.462  0.0199  0.0880  0.1482
  230POPC   C1A 3186   0.148   7.118   5.665 -0.0194  0.1702 -0.1932
  230POPC   D2A 3187   0.613   7.047   5.833  0.2174 -0.1392  0.2645
  230POPC   C3A 3188   0.696   7.297   6.234 -0.1758 -0.0603 -0.1533
  230POPC   C4A 3189   1.102   7.478   6.426 -0.1811  0.0835  0.3060
  230POPC   C1B 3190  -0.580   7.469   5.646  0.3466  0.0430  0.1149
  230POPC   C2B 3191  -0.759   7.539   6.068 -0.3151 -0.0220 -0.0071
  230POPC   C3B 3192  -0.512   7.768   6.518 -0.0039 -0.4852  0.1193
  230POPC   C4B 3193  -0.288   7.955   6.689  0.0102 -0.1709  0.0031
  231POPC   NC3 3194   1.845   3.129   5.049  0.0064  0.2945 -0.1112
  231POPC   PO4 3195   2.062   3.260   4.715 -0.1451  0.1708  0.1041
  231POPC   GL1 3196   2.439   3.161   4.934 -0.0196  0.0434 -0.0578
  231POPC   GL2 3197   2.314   3.014   5.161  0.3985  0.2150 -0.0928
  231POPC   C1A 3198   2.833   2.983   5.224  0.0687  0.1267 -0.1401
  231POPC   D2A 3199   3.167   2.675   5.325  0.0286  0.0537  0.2706
  231POPC   C3A 3200   3.274   2.437   5.596 -0.0042 -0.0405  0.0737
  231POPC   C4A 3201   3.676   2.482   5.856  0.0542 -0.0190  0.1310
  231POPC   C1B 3202   2.455   2.727   5.492  0.1630 -0.0134  0.1509
  231POPC   C2B 3203   2.453   2.549   5.952  0.3785 -0.0875  0.0703
  231POPC   C3B 3204   2.319   2.739   6.397  0.1143 -0.1285 -0.0153
  231POPC   C4B 3205   2.091   3.066   6.590 -0.2092  0.1009  0.1580
  232POPC   NC3 3206   2.516   7.911   4.682  0.0009  0.0833 -0.1825
  232POPC   PO4 3207   2.716   8.296   4.659 -0.0937  0.1566  0.1200
  232POPC   GL1 3208   2.789   8.317   5.047  0.0427 -0.2251 -0.0458
  232POPC   GL2 3209   2.394   8.401   5.103 -0.2706  0.0327  0.2691
  232POPC   C1A 3210   2.918   8.019   5.282 -0.1994 -0.0886  0.2164
  232POPC   D2A 3211   3.233   7.756   5.503 -0.2982 -0.1231 -0.0451
  232POPC   C3A 3212   3.573   7.678   5.858  0.0012  0.0724 -0.1402
  232POPC   C4A 3213   3.641   7.386   6.065  0.1772  0.0400 -0.3008
  232POPC   C1B 3214   2.230   8.312   5.446 -0.1382 -0.1371  0.1513
  232POPC   C2B 3215   1.870   8.061   5.622  0.2057  0.1205 -0.0835
  232POPC   C3B 3216   1.703   8.092   6.051  0.0555  0.3254  0.0868
  232POPC   C4B 3217   1.895   7.969   6.438 -0.0996  0.0324  0.3390
  233POPC   NC3 3218   8.534   5.424   4.532  0.1195 -0.2729 -0.0819
  233POPC   PO4 3219   8.313   5.857   4.397  0.0952 -0.0282 -0.6770
  233POPC   GL1 3220   8.271   5.823   4.901 -0.0139  0.1484  0.2276
  233POPC   GL2 3221   8.579   5.769   5.015 -0.4170  0.0207 -0.0909
  233POPC   C1A 3222   8.118   5.884   5.337 -0.7428  0.0634 -0.0083
  233POPC   D2A 3223   7.807   5.737   5.721  0.0905  0.0013  0.0489
  233POPC   C3A 3224   7.684   5.472   5.491 -0.1334  0.3669  0.2056
  233POPC   C4A 3225   7.409   5.101   5.511  0.1636  0.1337 -0.0772
  233POPC   C1B 3226   8.599   5.715   5.443 -0.0338  0.0579 -0.1791
  233POPC   C2B 3227   8.590   5.294   5.676 -0.1919 -0.0654  0.3746
  233POPC   C3B 3228   8.460   5.049   6.038 -0.4349 -0.2523  0.1640
  233POPC   C4B 3229   8.609   5.006   6.453  0.2444 -0.1367  0.2155
  234POPC   NC3 3230   9.524   0.859   4.861 -0.1575 -0.0172 -0.2032
  234POPC   PO4 3231   9.818   1.048   5.129 -0.0466  0.4143 -0.0934
  234POPC   GL1 3232  10.012   0.864   5.443 -0.1009  0.0095 -0.1634
  234POPC   GL2 3233   9.895   0.521   5.518 -0.0404  0.1465  0.0812
  234POPC   C1A 3234  10.200   0.751   5.979  0.2586  0.0538  0.2620
  234POPC   D2A 3235  10.551   0.873   6.178  0.0385 -0.1588  0.2594
  234POPC   C3A 3236  10.730   0.768   6.571  0.1273 -0.1496  0.0213
  234POPC   C4A 3237  10.952   0.702   7.051  0.1222  0.0616 -0.1255
  234POPC   C1B 3238   9.581   0.442   5.851 -0.1151  0.1458 -0.0243
  234POPC   C2B 3239   9.304   0.234   6.115  0.1254  0.1579  0.0502
  234POPC   C3B 3240   9.277  -0.069   6.416  0.0467  0.0293 -0.2054
  234POPC   C4B 3241   9.163  -0.394   6.706  0.2580  0.1490  0.2253
  235POPC   NC3 3242   5.636   5.806   4.553 -0.2741 -0.2220  0.0383
  235POPC   PO4 3243   5.796   5.499   4.807  0.1345  0.0287  0.1817
  235POPC   GL1 3244   5.733   5.725   5.137 -0.2089 -0.0989  0.0204
  235POPC   GL2 3245   6.034   5.936   5.142 -0.0225 -0.1073  0.0510
  235POPC   C1A 3246   5.962   5.557   5.435 -0.1566 -0.1137  0.1600
  235POPC   D2A 3247   6.321   5.429   5.689  0.2752  0.2048 -0.0303
  235POPC   C3A 3248   6.439   5.072   5.811 -0.2402  0.2010 -0.3088
  235POPC   C4A 3249   6.631   4.796   5.952  0.0710  0.1033  0.0223
  235POPC   C1B 3250   6.244   5.960   5.506 -0.0255  0.3260  0.2052
  235POPC   C2B 3251   6.467   6.179   5.845 -0.0205 -0.1541 -0.2843
  235POPC   C3B 3252   6.323   6.295   6.185 -0.0480 -0.1974  0.1486
  235POPC   C4B 3253   6.112   6.415   6.408 -0.0270  0.4767 -0.1633
  236POPC   NC3 3254   2.661   9.637   4.495  0.5032 -0.2086  0.1273
  236POPC   PO4 3255   2.229   9.559   4.430  0.1569  0.1886 -0.2262
  236POPC   GL1 3256   2.319   9.535   4.852 -0.1492 -0.1288  0.0377
  236POPC   GL2 3257   2.587   9.751   4.993 -0.0001 -0.1138  0.2181
  236POPC   C1A 3258   2.310   9.403   5.266 -0.0051  0.0748 -0.1150
  236POPC   D2A 3259   2.329   9.325   5.694 -0.2634  0.1314 -0.1513
  236POPC   C3A 3260   2.494   9.608   5.980 -0.1734 -0.2581 -0.1174
  236POPC   C4A 3261   2.512   9.476   6.443  0.1731  0.0902 -0.1796
  236POPC   C1B 3262   2.918   9.976   4.992  0.0464 -0.2259 -0.0668
  236POPC   C2B 3263   3.120  10.054   5.455 -0.0412 -0.1642  0.0524
  236POPC   C3B 3264   3.011  10.272   5.859 -0.0331  0.1310  0.0642
  236POPC   C4B 3265   3.211  10.414   6.277  0.0048  0.2989 -0.1999
  237POPC   NC3 3266   5.464   2.016   3.514 -0.1933 -0.0173 -0.0790
  237POPC   PO4 3267   5.720   1.709   3.282 -0.2120  0.0175  0.2123
  237POPC   GL1 3268   5.869   1.861   3.768  0.0564 -0.2358 -0.1147
  237POPC   GL2 3269   6.197   1.790   3.929  0.1316 -0.0410  0.1851
  237POPC   C1A 3270   5.692   1.776   4.163 -0.0362 -0.1314  0.0460
  237POPC   D2A 3271   5.248   1.749   4.429  0.0222 -0.0167  0.0510
  237POPC   C3A 3272   4.879   1.425   4.439 -0.1920  0.1629 -0.1609
  237POPC   C4A 3273   4.808   0.986   4.694 -0.1654  0.1015  0.0440
  237POPC   C1B 3274   6.277   2.011   4.171  0.2033  0.1354  0.0169
  237POPC   C2B 3275   6.092   2.274   4.416  0.1088  0.0298 -0.1509
  237POPC   C3B 3276   6.232   2.450   4.785  0.0252  0.2277 -0.2754
  237POPC   C4B 3277   6.172   2.508   5.200 -0.0873  0.0333 -0.0548
  238POPC   NC3 3278   0.759   1.908   5.181 -0.3730  0.0896 -0.2630
  238POPC   PO4 3279   0.761   1.413   5.154  0.0137  0.1660 -0.1656
  238POPC   GL1 3280   0.423   1.379   5.464 -0.1728 -0.2452  0.2900
  238POPC   GL2 3281   0.390   1.839   5.526  0.0374 -0.0728  0.2863
  238POPC   C1A 3282   0.270   1.247   5.899  0.1213 -0.2444  0.1745
  238POPC   D2A 3283   0.258   1.140   6.365 -0.3179 -0.0447  0.1540
  238POPC   C3A 3284   0.099   1.444   6.696 -0.0997  0.0451  0.0093
  238POPC   C4A 3285   0.110   1.621   7.127 -0.0035  0.1977 -0.0155
  238POPC   C1B 3286   0.234   1.811   6.012  0.2128  0.0766 -0.1748
  238POPC   C2B 3287   0.335   1.799   6.470  0.1634 -0.0257  0.2500
  238POPC   C3B 3288   0.530   1.665   6.868 -0.3060  0.2825 -0.3012
  238POPC   C4B 3289   0.713   1.778   7.187 -0.2346  0.3560  0.0117
  239POPC   NC3 3290   7.209   6.991   3.918  0.0282 -0.1462 -0.0612
  239POPC   PO4 3291   6.849   6.785   4.194  0.1494 -0.0436 -0.1809
  239POPC   GL1 3292   6.745   6.964   4.571 -0.0190  0.1446 -0.2520
  239POPC   GL2 3293   6.499   7.117   4.705 -0.2656 -0.4490  0.0456
  239POPC   C1A 3294   6.953   7.259   4.921  0.0384 -0.1470  0.1052
  239POPC   D2A 3295   6.800   7.496   5.299  0.0362  0.0873  0.3595
  239POPC   C3A 3296   7.121   7.445   5.604 -0.0945  0.1060  0.0036
  239POPC   C4A 3297   6.937   7.432   6.094 -0.3474 -0.1701  0.1144
  239POPC   C1B 3298   6.526   6.916   5.117  0.0114 -0.2825 -0.0889
  239POPC   C2B 3299   6.666   7.045   5.498 -0.0110  0.0514  0.2587
  239POPC   C3B 3300   6.872   6.979   5.887  0.1690  0.2052 -0.1862
  239POPC   C4B 3301   7.091   6.899   6.228 -0.0756  0.5171 -0.0748
  240POPC   NC3 3302   8.823   1.523   4.092 -0.2399  0.1313  0.4058
  240POPC   PO4 3303   8.739   1.231   4.449 -0.4139  0.0420 -0.1223
  240POPC   GL1 3304   8.928   1.252   4.814 -0.4198  0.4323 -0.5757
  240POPC   GL2 3305   9.047   1.613   4.792  0.2280 -0.0128 -0.1719
  240POPC   C1A 3306   8.809   1.455   5.291 -0.1049  0.2363  0.0519
  240POPC   D2A 3307   8.785   1.497   5.809 -0.0712 -0.2152 -0.0379
  240POPC   C3A 3308   8.548   1.631   6.156 -0.2379 -0.0362  0.1003
  240POPC   C4A 3309   8.322   1.558   6.517  0.0080 -0.2550 -0.1581
  240POPC   C1B 3310   8.973   1.884   5.105  0.0059 -0.0752 -0.3487
  240POPC   C2B 3311   9.194   1.908   5.443  0.1227  0.2400 -0.0480
  240POPC   C3B 3312   9.137   1.891   5.908 -0.2627  0.0306 -0.0139
  240POPC   C4B 3313   9.164   1.962   6.392 -0.2287 -0.0076  0.0789
  241POPC   NC3 3314   4.589   9.459   3.434 -0.0276  0.0902  0.2322
  241POPC   PO4 3315   4.238   9.317   3.549 -0.0960 -0.0331 -0.1604
  241POPC   GL1 3316   4.499   9.301   3.891 -0.0327 -0.0829  0.0585
  241POPC   GL2 3317   4.310   9.430   4.178  0.3295  0.2107 -0.1927
  241POPC   C1A 3318   4.898   9.143   4.063 -0.1874 -0.1010 -0.0456
  241POPC   D2A 3319   5.271   9.112   4.237  0.1198 -0.0364  0.0340
  241POPC   C3A 3320   5.314   8.688   4.407  0.4930 -0.2229 -0.1216
  241POPC   C4A 3321   5.520   8.494   4.675  0.2021  0.2060  0.1566
  241POPC   C1B 3322   4.354   9.427   4.645 -0.0773 -0.4312 -0.0992
  241POPC   C2B 3323   4.396   9.334   5.070 -0.1994 -0.2310  0.1463
  241POPC   C3B 3324   4.328   9.156   5.368  0.2268 -0.1973  0.0964
  241POPC   C4B 3325   4.258   8.964   5.699  0.0526 -0.0442  0.1282
  242POPC   NC3 3326   1.999   3.810   4.680  0.1597  0.0445 -0.2675
  242POPC   PO4 3327   2.184   3.989   5.047 -0.0054 -0.3563 -0.0944
  242POPC   GL1 3328   2.388   3.793   5.432  0.3378 -0.3316  0.2531
  242POPC   GL2 3329   2.606   3.537   5.288 -0.1955 -0.1935 -0.2416
  242POPC   C1A 3330   2.470   3.769   5.845  0.0956  0.0643 -0.0750
  242POPC   D2A 3331   2.456   3.465   6.110 -0.2946 -0.2197 -0.3854
  242POPC   C3A 3332   2.046   3.379   6.129  0.1020 -0.0801  0.1077
  242POPC   C4A 3333   1.634   3.279   5.970  0.0047 -0.3047 -0.1390
  242POPC   C1B 3334   2.651   3.243   5.637  0.2934 -0.0989 -0.0591
  242POPC   C2B 3335   2.952   2.850   5.734 -0.0896 -0.0060  0.0980
  242POPC   C3B 3336   2.949   2.592   6.165  0.1413  0.0816 -0.0425
  242POPC   C4B 3337   2.658   2.366   6.413 -0.3863 -0.3348  0.1878
  243POPC   NC3 3338   6.350   6.834   4.256  0.0296  0.2488  0.0228
  243POPC   PO4 3339   6.049   7.043   3.981  0.2028 -0.3261  0.0210
  243POPC   GL1 3340   6.006   7.122   4.531 -0.0280  0.1185  0.3799
  243POPC   GL2 3341   6.072   6.880   4.662  0.2654  0.4436  0.2559
  243POPC   C1A 3342   6.179   7.461   4.881  0.1684  0.3238  0.2101
  243POPC   D2A 3343   6.311   7.425   5.301 -0.0206 -0.2249 -0.0556
  243POPC   C3A 3344   6.152   7.764   5.476  0.0112  0.4451  0.2378
  243POPC   C4A 3345   6.166   8.147   5.795  0.2317  0.0283 -0.0713
  243POPC   C1B 3346   5.962   7.082   5.086 -0.1407 -0.0217  0.1081
  243POPC   C2B 3347   6.067   7.081   5.583  0.0146  0.3214 -0.3132
  243POPC   C3B 3348   6.400   7.281   5.849 -0.0877  0.0027 -0.0804
  243POPC   C4B 3349   6.560   7.625   5.792 -0.4282  0.1505 -0.2080
  244POPC   NC3 3350   7.224   4.421   4.853  0.1812 -0.3387  0.0902
  244POPC   PO4 3351   7.050   4.139   4.579 -0.1427 -0.1187 -0.1855
  244POPC   GL1 3352   7.200   3.913   4.945 -0.0743 -0.0609  0.0833
  244POPC   GL2 3353   7.350   4.039   5.147 -0.1386  0.1159 -0.3319
  244POPC   C1A 3354   7.029   3.625   5.267  0.1096  0.2113  0.1456
  244POPC   D2A 3355   6.791   3.604   5.554 -0.1200 -0.1835 -0.3150
  244POPC   C3A 3356   6.704   3.426   6.052 -0.0814  0.1134  0.0629
  244POPC   C4A 3357   6.427   3.513   6.436 -0.1486 -0.0004 -0.1568
  244POPC   C1B 3358   7.386   4.077   5.614  0.1048  0.1316  0.0160
  244POPC   C2B 3359   7.199   4.207   6.127  0.0787  0.0093 -0.0433
  244POPC   C3B 3360   7.257   4.004   6.411 -0.1292  0.2164  0.0714
  244POPC   C4B 3361   7.610   3.706   6.448 -0.0839  0.0829 -0.0932
  245POPC   NC3 3362   7.053   5.366   4.733  0.0515 -0.0423  0.2440
  245POPC   PO4 3363   6.691   5.316   4.629  0.0036  0.1850  0.0148
  245POPC   GL1 3364   6.701   5.279   5.083  0.0424  0.0127 -0.0748
  245POPC   GL2 3365   6.636   5.002   5.292  0.0012 -0.2117 -0.2003
  245POPC   C1A 3366   6.668   5.540   5.363 -0.3372 -0.3092  0.0320
  245POPC   D2A 3367   6.765   5.506   5.809 -0.2992  0.0368  0.2220
  245POPC   C3A 3368   6.414   5.757   6.102  0.0421  0.1279  0.2035
  245POPC   C4A 3369   6.017   5.705   6.034 -0.0933  0.2216 -0.0210
  245POPC   C1B 3370   6.848   5.048   5.563  0.0749 -0.1142 -0.1534
  245POPC   C2B 3371   7.073   5.094   5.890  0.4996 -0.0963  0.0658
  245POPC   C3B 3372   7.085   5.196   6.289  0.2172 -0.1264 -0.1215
  245POPC   C4B 3373   7.025   5.315   6.631 -0.2760 -0.2563 -0.1947
  246POPC   NC3 3374   5.607   7.354   4.229  0.1415  0.3093  0.1042
  246POPC   PO4 3375   5.604   6.854   4.407 -0.0075 -0.1150  0.0728
  246POPC   GL1 3376   5.468   7.128   4.678 -0.1975 -0.2007  0.1133
  246POPC   GL2 3377   5.705   7.494   4.678 -0.0699  0.0771 -0.1158
  246POPC   C1A 3378   5.498   7.382   5.080  0.0186  0.0029 -0.0259
  246POPC   D2A 3379   5.685   7.460   5.488 -0.1332  0.1696 -0.0860
  246POPC   C3A 3380   5.804   7.714   5.853 -0.0787 -0.2795 -0.3010
  246POPC   C4A 3381   6.152   7.700   6.140  0.0884  0.3363 -0.3228
  246POPC   C1B 3382   5.502   7.906   4.965  0.3140  0.0050  0.2480
  246POPC   C2B 3383   5.713   8.021   5.384  0.1196  0.0279  0.0259
  246POPC   C3B 3384   5.672   8.377   5.685 -0.4907  0.2100  0.2930
  246POPC   C4B 3385   5.377   8.431   6.009  0.0194  0.1685  0.0809
  247POPC   NC3 3386   0.303   6.140   5.119 -0.2463  0.0695  0.3598
  247POPC   PO4 3387   0.638   5.878   4.932  0.1350  0.2757 -0.0381
  247POPC   GL1 3388   0.595   5.663   5.363 -0.1198  0.0414  0.2259
  247POPC   GL2 3389   0.742   5.323   5.222 -0.2019  0.1704 -0.2166
  247POPC   C1A 3390   0.372   5.363   5.548  0.0225  0.4436  0.1679
  247POPC   D2A 3391   0.298   5.081   5.954 -0.0985  0.1324 -0.3289
  247POPC   C3A 3392  -0.194   5.009   6.203  0.0095 -0.1644 -0.2242
  247POPC   C4A 3393  -0.570   5.156   6.524 -0.1240  0.1719  0.1358
  247POPC   C1B 3394   0.845   5.255   5.615 -0.0005 -0.2178  0.0513
  247POPC   C2B 3395   1.015   5.272   6.010 -0.1661 -0.0553 -0.1560
  247POPC   C3B 3396   1.109   5.216   6.414 -0.2211  0.0524 -0.0385
  247POPC   C4B 3397   0.947   5.162   6.871 -0.2399  0.0792  0.1501
  248POPC   NC3 3398   2.459   5.971   4.011  0.0347 -0.1284  0.0636
  248POPC   PO4 3399   2.330   5.928   4.483 -0.0877  0.2788  0.3132
  248POPC   GL1 3400   2.349   5.862   4.916  0.0696  0.2601  0.0873
  248POPC   GL2 3401   2.468   6.018   5.092  0.2967 -0.0404 -0.0737
  248POPC   C1A 3402   2.287   5.737   5.452 -0.3556  0.1894  0.2330
  248POPC   D2A 3403   2.251   5.537   5.891  0.0969 -0.0540 -0.1592
  248POPC   C3A 3404   2.006   5.375   6.308  0.2128  0.1046 -0.3914
  248POPC   C4A 3405   2.136   5.285   6.705 -0.0856  0.4474  0.0116
  248POPC   C1B 3406   2.522   6.213   5.502 -0.1098 -0.2185 -0.2963
  248POPC   C2B 3407   2.695   6.054   5.867  0.0365 -0.0089 -0.1956
  248POPC   C3B 3408   2.989   6.180   6.211 -0.1118  0.1114  0.2010
  248POPC   C4B 3409   3.355   6.134   6.592 -0.1621 -0.1751 -0.0597
  249POPC   NC3 3410   8.691   0.778   4.240 -0.6150 -0.0897  0.2610
  249POPC   PO4 3411   8.820   0.557   4.486  0.0990  0.0068  0.0989
  249POPC   GL1 3412   8.890   0.696   4.873  0.3495 -0.1645 -0.1875
  249POPC   GL2 3413   9.150   0.513   5.012  0.3589 -0.1471  0.0346
  249POPC   C1A 3414   8.637   0.946   5.189 -0.2818 -0.0286  0.1971
  249POPC   D2A 3415   8.451   1.181   5.494 -0.0045 -0.0391 -0.2179
  249POPC   C3A 3416   8.258   1.514   5.776  0.2401  0.3074 -0.3967
  249POPC   C4A 3417   7.961   1.664   6.147 -0.0298  0.0789  0.0542
  249POPC   C1B 3418   8.943   0.554   5.348 -0.0659  0.1063 -0.0450
  249POPC   C2B 3419   8.848   0.537   5.834 -0.0282  0.0411  0.2277
  249POPC   C3B 3420   8.743   0.617   6.293  0.0611 -0.2988 -0.0220
  249POPC   C4B 3421   8.629   0.657   6.731  0.0663  0.1444 -0.1550
  250POPC   NC3 3422   5.108   0.343   3.051 -0.1767 -0.2171 -0.0669
  250POPC   PO4 3423   5.271   0.747   3.034  0.3869 -0.0779 -0.0948
  250POPC   GL1 3424   5.396   0.835   3.366 -0.5837  0.4113  0.0928
  250POPC   GL2 3425   5.536   0.586   3.602 -0.0023 -0.1096 -0.1404
  250POPC   C1A 3426   5.554   1.055   3.695 -0.1715  0.0617 -0.2437
  250POPC   D2A 3427   5.650   0.764   4.073  0.0792 -0.2255 -0.1609
  250POPC   C3A 3428   5.300   0.765   4.417 -0.1420  0.6287  0.1345
  250POPC   C4A 3429   5.235   1.203   4.663  0.1991 -0.1734 -0.0621
  250POPC   C1B 3430   5.533   0.198   3.863 -0.0882 -0.0500  0.2402
  250POPC   C2B 3431   5.489  -0.092   4.169  0.1994  0.0569  0.0485
  250POPC   C3B 3432   5.096  -0.287   4.290  0.0378  0.2206  0.1680
  250POPC   C4B 3433   4.794  -0.097   4.385 -0.1673 -0.2019 -0.2555
  251POPC   NC3 3434   1.904   5.337   5.054 -0.1865 -0.2176 -0.3796
  251POPC   PO4 3435   2.119   4.992   5.194  0.1260 -0.0957  0.2161
  251POPC   GL1 3436   2.191   5.113   5.618 -0.2465  0.1398 -0.3164
  251POPC   GL2 3437   2.507   5.218   5.653 -0.0518  0.1748  0.2564
  251POPC   C1A 3438   1.833   4.970   5.909 -0.1023 -0.5036 -0.1076
  251POPC   D2A 3439   1.479   5.124   6.055 -0.1403 -0.1371 -0.4535
  251POPC   C3A 3440   1.584   5.159   6.503 -0.1377  0.2520 -0.3902
  251POPC   C4A 3441   1.491   5.381   6.879  0.2985 -0.1333  0.4159
  251POPC   C1B 3442   2.423   5.129   6.189 -0.0440 -0.3149 -0.1505
  251POPC   C2B 3443   2.055   4.852   6.390  0.1729 -0.2337  0.1467
  251POPC   C3B 3444   1.880   4.635   6.673 -0.0030 -0.0775 -0.2721
  251POPC   C4B 3445   1.579   4.290   6.813 -0.1295  0.0815  0.2783
  252POPC   NC3 3446   8.586   0.106   4.433  0.0708  0.0029 -0.0967
  252POPC   PO4 3447   8.374   0.367   4.156  0.2275 -0.2373 -0.2406
  252POPC   GL1 3448   8.246   0.641   4.451  0.0969  0.4167  0.2342
  252POPC   GL2 3449   8.482   0.896   4.638 -0.0555  0.0794 -0.0035
  252POPC   C1A 3450   7.942   0.498   4.751  0.1549 -0.0323 -0.0923
  252POPC   D2A 3451   7.593   0.631   5.085 -0.1403 -0.0546 -0.1712
  252POPC   C3A 3452   7.714   0.564   5.486  0.2554 -0.0238 -0.0927
  252POPC   C4A 3453   7.824   0.667   5.888  0.0603  0.0065 -0.0119
  252POPC   C1B 3454   8.217   0.852   4.957  0.1710  0.0493  0.3392
  252POPC   C2B 3455   8.040   0.899   5.353 -0.1210 -0.0597  0.1511
  252POPC   C3B 3456   8.015   1.057   5.723  0.1649  0.2309  0.0231
  252POPC   C4B 3457   7.757   1.323   5.765 -0.1153  0.2243 -0.0420
  253POPC   NC3 3458   0.763   8.559   4.848 -0.3678  0.1704  0.0283
  253POPC   PO4 3459   1.019   8.824   4.731 -0.1451  0.1024  0.1776
  253POPC   GL1 3460   0.941   8.961   5.190 -0.0608 -0.0599  0.0574
  253POPC   GL2 3461   0.736   9.233   5.238 -0.0088 -0.0584  0.0016
  253POPC   C1A 3462   1.260   9.166   5.514 -0.1314 -0.2637  0.0112
  253POPC   D2A 3463   1.524   9.447   5.801  0.0940  0.0336  0.0615
  253POPC   C3A 3464   1.570   9.370   6.241 -0.0130 -0.0788 -0.1063
  253POPC   C4A 3465   1.447   9.575   6.653  0.3814  0.2939 -0.0439
  253POPC   C1B 3466   0.821   9.312   5.649  0.1459 -0.1172 -0.1961
  253POPC   C2B 3467   1.096   9.427   5.995 -0.0976  0.0706 -0.0952
  253POPC   C3B 3468   1.226   9.733   6.269  0.0314 -0.1762  0.1754
  253POPC   C4B 3469   1.641   9.900   6.332  0.1195  0.1250 -0.0419
  254POPC   NC3 3470   3.157   6.324   4.308  0.0673 -0.3459 -0.0658
  254POPC   PO4 3471   3.260   6.353   4.713 -0.1669  0.2580  0.0750
  254POPC   GL1 3472   3.657   6.525   4.947 -0.1000 -0.2308 -0.0386
  254POPC   GL2 3473   3.720   6.740   4.795  0.2353  0.0183  0.1819
  254POPC   C1A 3474   3.922   6.587   5.311  0.0547 -0.1611 -0.3028
  254POPC   D2A 3475   4.056   6.729   5.711 -0.0320  0.0689  0.0536
  254POPC   C3A 3476   4.434   6.932   5.763 -0.0023  0.3849 -0.0748
  254POPC   C4A 3477   4.656   6.991   5.377  0.3578 -0.3579 -0.0577
  254POPC   C1B 3478   3.946   7.053   5.051  0.2096  0.1539 -0.1631
  254POPC   C2B 3479   4.198   7.082   5.351  0.1918 -0.0975  0.0636
  254POPC   C3B 3480   4.329   7.421   5.671 -0.2184  0.1041 -0.0159
  254POPC   C4B 3481   4.117   7.703   6.039  0.0208 -0.0226 -0.2461
  255POPC   NC3 3482   5.396   5.223   4.691  0.0767 -0.2452 -0.4246
  255POPC   PO4 3483   4.958   5.218   4.615 -0.1186  0.1985 -0.1957
  255POPC   GL1 3484   4.984   5.093   5.048 -0.2254 -0.0326 -0.2408
  255POPC   GL2 3485   4.899   5.360   5.255 -0.1046  0.1146 -0.1919
  255POPC   C1A 3486   5.231   4.902   5.333 -0.0737  0.1347  0.3518
  255POPC   D2A 3487   5.323   4.644   5.652 -0.0882 -0.0711  0.1835
  255POPC   C3A 3488   5.136   4.632   6.093 -0.0703 -0.0400 -0.2204
  255POPC   C4A 3489   4.885   4.406   6.466 -0.1048 -0.0824  0.1388
  255POPC   C1B 3490   5.311   5.603   5.445  0.1919  0.0234 -0.2119
  255POPC   C2B 3491   5.527   5.642   5.778 -0.1445 -0.0438 -0.1546
  255POPC   C3B 3492   5.549   5.443   6.154  0.1431  0.2987 -0.1432
  255POPC   C4B 3493   5.756   5.358   6.599  0.0229 -0.1264 -0.2660
  256POPC   NC3 3494   3.736   1.074   3.323 -0.0597 -0.0920  0.0361
  256POPC   PO4 3495   3.871   1.395   3.726 -0.0527 -0.1233  0.2284
  256POPC   GL1 3496   4.274   1.295   3.742 -0.1988  0.2003  0.2281
  256POPC   GL2 3497   4.396   1.510   3.983 -0.2192  0.4534  0.0151
  256POPC   C1A 3498   4.548   1.086   4.125  0.1372  0.3077  0.2251
  256POPC   D2A 3499   4.732   0.605   4.171  0.1016 -0.0427 -0.0374
  256POPC   C3A 3500   4.773   0.371   4.527  0.1401 -0.0634  0.0373
  256POPC   C4A 3501   5.113   0.052   4.771 -0.1830 -0.2309 -0.2072
  256POPC   C1B 3502   4.206   1.693   4.437  0.0213  0.0131 -0.0888
  256POPC   C2B 3503   4.244   1.890   4.759  0.3782  0.1186  0.1405
  256POPC   C3B 3504   4.381   2.095   5.081 -0.0234 -0.0599 -0.0497
  256POPC   C4B 3505   4.611   2.212   5.492 -0.1150 -0.0322 -0.0453
  257POPC   NC3 3506   6.153   6.015   4.595  0.2646 -0.1495  0.2840
  257POPC   PO4 3507   6.354   6.483   4.581 -0.0282 -0.0237 -0.3551
  257POPC   GL1 3508   6.531   6.478   4.984 -0.2121  0.0703  0.4009
  257POPC   GL2 3509   6.189   6.433   5.109 -0.0743 -0.1615 -0.0915
  257POPC   C1A 3510   6.871   6.595   5.291  0.0279 -0.1136 -0.0364
  257POPC   D2A 3511   6.885   6.488   5.712  0.3472 -0.2448  0.0462
  257POPC   C3A 3512   6.757   6.491   6.135 -0.0257  0.0965 -0.1900
  257POPC   C4A 3513   6.952   6.660   6.616 -0.1327 -0.1380 -0.2846
  257POPC   C1B 3514   6.439   6.545   5.482  0.1815  0.0076 -0.2863
  257POPC   C2B 3515   6.437   6.732   5.859 -0.1997  0.0767  0.1211
  257POPC   C3B 3516   6.356   6.917   6.257 -0.1373  0.0329  0.2208
  257POPC   C4B 3517   6.088   7.265   6.521 -0.1840 -0.3274 -0.1181
  258POPC   NC3 3518   9.628   1.702   4.493 -0.0980 -0.1354  0.1918
  258POPC   PO4 3519   9.614   1.372   4.813 -0.0175  0.1103  0.0498
  258POPC   GL1 3520   9.303   1.253   5.141 -0.2173 -0.2777  0.3856
  258POPC   GL2 3521   9.196   1.021   5.195  0.0207  0.1804 -0.0629
  258POPC   C1A 3522   9.257   1.416   5.549 -0.1366  0.0558  0.1424
  258POPC   D2A 3523   9.336   1.400   5.921 -0.1440 -0.2483  0.0260
  258POPC   C3A 3524   9.082   1.441   6.236 -0.0585  0.0285 -0.0976
  258POPC   C4A 3525   8.884   1.531   6.698 -0.1458  0.0868  0.0393
  258POPC   C1B 3526   8.919   1.000   5.624 -0.0446  0.0754  0.3581
  258POPC   C2B 3527   8.721   1.058   5.996  0.4752 -0.1371  0.0299
  258POPC   C3B 3528   8.515   1.095   6.545 -0.1496  0.2272 -0.1425
  258POPC   C4B 3529   8.083   0.990   6.726 -0.1075  0.2507  0.3045
  259POPC   NC3 3530   7.006   0.432   3.103 -0.2159 -0.3716 -0.2572
  259POPC   PO4 3531   6.876   0.130   3.273  0.0949  0.0079 -0.3754
  259POPC   GL1 3532   7.028   0.249   3.705 -0.0395 -0.1484 -0.1021
  259POPC   GL2 3533   6.768   0.530   3.620  0.1354  0.1559 -0.2010
  259POPC   C1A 3534   7.307   0.054   4.029  0.0010 -0.1255  0.1677
  259POPC   D2A 3535   7.586  -0.158   4.314  0.1664 -0.3434  0.0051
  259POPC   C3A 3536   7.693  -0.003   4.784  0.1750 -0.2489 -0.0638
  259POPC   C4A 3537   7.428   0.177   5.173  0.1598 -0.2139 -0.2939
  259POPC   C1B 3538   6.521   0.473   3.961 -0.2433  0.1295 -0.3683
  259POPC   C2B 3539   6.328   0.827   4.264  0.0241  0.0568 -0.1377
  259POPC   C3B 3540   6.278   0.653   4.668  0.2418 -0.2649  0.0660
  259POPC   C4B 3541   6.607   0.452   4.963  0.0011 -0.0724 -0.1934
  260POPC   NC3 3542   3.112   2.183   4.376  0.2040 -0.2265 -0.0917
  260POPC   PO4 3543   2.820   2.575   4.346  0.2147 -0.0656 -0.1188
  260POPC   GL1 3544   2.962   2.424   4.821  0.0374 -0.2759 -0.2870
  260POPC   GL2 3545   2.955   2.054   5.010  0.3613 -0.2281  0.2462
  260POPC   C1A 3546   2.729   2.479   5.201 -0.1007  0.0084 -0.1051
  260POPC   D2A 3547   2.782   2.366   5.626 -0.2559  0.1520  0.1385
  260POPC   C3A 3548   2.529   2.053   6.048  0.2051  0.4274 -0.0219
  260POPC   C4A 3549   2.196   1.876   5.969 -0.0901 -0.4867  0.1053
  260POPC   C1B 3550   3.027   1.994   5.420 -0.2454  0.2053 -0.0378
  260POPC   C2B 3551   2.960   1.973   5.886  0.0523  0.1399 -0.1465
  260POPC   C3B 3552   3.057   2.057   6.438  0.2454  0.1632  0.2986
  260POPC   C4B 3553   3.062   2.337   6.745  0.0415 -0.2686  0.1235
  261POPC   NC3 3554   9.688   5.751   4.805  0.0252 -0.0897 -0.3226
  261POPC   PO4 3555   9.746   6.222   4.940 -0.4178 -0.0096  0.0037
  261POPC   GL1 3556   9.884   6.383   5.397 -0.2007 -0.2255 -0.1135
  261POPC   GL2 3557  10.147   6.301   5.581 -0.1203 -0.0984 -0.0726
  261POPC   C1A 3558   9.719   6.728   5.730 -0.0174  0.1916  0.1770
  261POPC   D2A 3559   9.810   6.869   6.059 -0.2659 -0.0653  0.1161
  261POPC   C3A 3560   9.627   7.212   5.989 -0.0972 -0.0207  0.0781
  261POPC   C4A 3561   9.612   7.570   6.079  0.1604  0.2936 -0.1331
  261POPC   C1B 3562  10.460   6.196   5.922  0.0831 -0.0935  0.4367
  261POPC   C2B 3563  10.901   6.240   6.260 -0.0267 -0.2375  0.3217
  261POPC   C3B 3564  11.178   6.523   6.360 -0.1954 -0.1526  0.1006
  261POPC   C4B 3565  11.509   6.654   6.566  0.2946  0.2219 -0.0317
  262POPC   NC3 3566   2.204   2.794   4.604  0.5345  0.2160 -0.0742
  262POPC   PO4 3567   1.966   2.645   4.843 -0.0636 -0.2180  0.0624
  262POPC   GL1 3568   2.215   2.506   5.153  0.0736  0.2490  0.1026
  262POPC   GL2 3569   1.987   2.296   5.173  0.0444 -0.0429  0.0597
  262POPC   C1A 3570   2.345   2.193   5.567  0.1677  0.1343  0.0789
  262POPC   D2A 3571   2.579   1.776   5.557  0.0508 -0.2920 -0.0068
  262POPC   C3A 3572   2.662   1.570   6.012  0.4728  0.1029 -0.1467
  262POPC   C4A 3573   2.768   1.441   6.413  0.0900 -0.0643  0.1350
  262POPC   C1B 3574   1.960   2.680   5.558 -0.0370  0.1296 -0.0531
  262POPC   C2B 3575   1.928   2.805   6.058  0.0157  0.3450  0.2566
  262POPC   C3B 3576   1.808   2.600   6.507 -0.0512  0.2333  0.3046
  262POPC   C4B 3577   1.553   2.233   6.721  0.0452 -0.0688  0.1847
  263POPC   NC3 3578   0.660   2.628   4.996  0.2765 -0.1962  0.1446
  263POPC   PO4 3579   1.034   2.782   5.073  0.0520 -0.2403  0.1156
  263POPC   GL1 3580   0.913   2.620   5.456 -0.1730 -0.1592 -0.2862
  263POPC   GL2 3581   0.594   2.651   5.621 -0.1595  0.3954 -0.1203
  263POPC   C1A 3582   1.014   2.519   5.872  0.1798  0.0479  0.3088
  263POPC   D2A 3583   0.898   2.770   6.212 -0.0548  0.1814 -0.1023
  263POPC   C3A 3584   0.755   2.665   6.643  0.1854 -0.1294  0.1425
  263POPC   C4A 3585   0.384   2.691   6.843  0.3575 -0.1255 -0.1369
  263POPC   C1B 3586   0.384   2.684   6.031 -0.1928 -0.5860  0.2321
  263POPC   C2B 3587  -0.023   2.604   6.011 -0.1655  0.3867  0.3238
  263POPC   C3B 3588  -0.533   2.583   5.823  0.0896  0.2507 -0.1672
  263POPC   C4B 3589  -0.560   2.320   5.643 -0.0513  0.1339 -0.2327
  264POPC   NC3 3590   1.281   7.776   4.261  0.2144  0.2284 -0.0673
  264POPC   PO4 3591   0.938   7.595   4.595  0.2730  0.0669 -0.3156
  264POPC   GL1 3592   0.937   7.548   5.046 -0.0409  0.2286  0.1800
  264POPC   GL2 3593   1.056   7.283   5.191 -0.2705  0.0723  0.1014
  264POPC   C1A 3594   0.911   7.821   5.478 -0.3063 -0.0101  0.2708
  264POPC   D2A 3595   0.857   8.185   5.892 -0.1122 -0.0052 -0.1402
  264POPC   C3A 3596   0.994   8.464   6.191  0.0116 -0.2922 -0.0464
  264POPC   C4A 3597   0.939   8.906   6.432  0.2077 -0.0234  0.1661
  264POPC   C1B 3598   1.013   7.365   5.657  0.0254  0.2312 -0.1835
  264POPC   C2B 3599   1.085   7.080   6.083 -0.1394 -0.1060  0.0317
  264POPC   C3B 3600   1.090   6.936   6.511 -0.4115  0.1664  0.1723
  264POPC   C4B 3601   0.745   7.119   6.727  0.0361 -0.2808  0.4494
  265POPC   NC3 3602   7.172   2.460   3.540 -0.1264 -0.1766 -0.2409
  265POPC   PO4 3603   6.844   2.331   3.888 -0.4877 -0.3134  0.1123
  265POPC   GL1 3604   6.813   2.271   4.280  0.0747 -0.4902 -0.3277
  265POPC   GL2 3605   7.125   2.412   4.503  0.3798 -0.2845 -0.0071
  265POPC   C1A 3606   7.006   1.916   4.629 -0.0624 -0.0634  0.0515
  265POPC   D2A 3607   7.241   1.799   5.094  0.1326 -0.3371 -0.2530
  265POPC   C3A 3608   6.996   1.766   5.434  0.1182  0.0411  0.2145
  265POPC   C4A 3609   6.842   1.645   5.816  0.1582  0.3909 -0.1060
  265POPC   C1B 3610   6.756   2.571   4.779  0.1021 -0.0550 -0.1305
  265POPC   C2B 3611   6.665   2.437   5.181  0.0260 -0.0761 -0.1231
  265POPC   C3B 3612   6.667   2.144   5.606 -0.2134  0.3054  0.2383
  265POPC   C4B 3613   6.725   2.018   6.058  0.2312  0.2471  0.0082
  266POPC   NC3 3614   0.107   0.505   4.995  0.1970 -0.0016  0.4218
  266POPC   PO4 3615  -0.247   0.466   5.125  0.0152  0.0403  0.1932
  266POPC   GL1 3616  -0.491   0.641   5.487  0.2546 -0.0422  0.2567
  266POPC   GL2 3617  -0.337   0.951   5.566 -0.0108 -0.1895  0.1894
  266POPC   C1A 3618  -0.669   0.800   5.931  0.2995  0.0449 -0.0094
  266POPC   D2A 3619  -0.631   0.696   6.286  0.0827 -0.1392 -0.1101
  266POPC   C3A 3620  -0.318   0.529   6.432 -0.1437 -0.2622 -0.3172
  266POPC   C4A 3621  -0.271   0.197   6.662  0.1464  0.1175 -0.0667
  266POPC   C1B 3622  -0.168   0.983   5.997 -0.0017  0.2542 -0.1421
  266POPC   C2B 3623  -0.412   1.191   6.385 -0.0679  0.1432 -0.0226
  266POPC   C3B 3624  -0.512   1.497   6.702 -0.2928 -0.0679 -0.3666
  266POPC   C4B 3625  -0.697   1.385   7.188 -0.1882  0.0155  0.0523
  267POPC   NC3 3626   2.872   4.570   4.592  0.2566  0.3632  0.1662
  267POPC   PO4 3627   3.250   4.811   4.740  0.1702 -0.3068 -0.0450
  267POPC   GL1 3628   3.373   4.976   5.143  0.4417  0.2624  0.0702
  267POPC   GL2 3629   3.057   5.046   5.299  0.3709 -0.0937  0.2155
  267POPC   C1A 3630   3.514   4.963   5.563 -0.0862 -0.0146  0.0640
  267POPC   D2A 3631   3.336   4.749   5.946  0.0591 -0.1740  0.1751
  267POPC   C3A 3632   3.362   5.089   6.360  0.0977 -0.0765  0.1577
  267POPC   C4A 3633   3.266   5.275   6.782  0.0012  0.2598  0.1736
  267POPC   C1B 3634   2.965   5.025   5.692  0.2819  0.0637 -0.0884
  267POPC   C2B 3635   2.846   4.823   6.073 -0.3958 -0.2020 -0.1349
  267POPC   C3B 3636   2.538   4.792   6.507  0.0679  0.0509 -0.1592
  267POPC   C4B 3637   2.296   4.813   6.840 -0.3057  0.0408  0.0863
  268POPC   NC3 3638   2.481   6.974   4.242 -0.0826  0.1658  0.3623
  268POPC   PO4 3639   2.382   6.863   4.655  0.0057  0.2286  0.2134
  268POPC   GL1 3640   2.516   6.635   5.079  0.3492  0.0015 -0.0970
  268POPC   GL2 3641   2.803   6.401   5.171 -0.0910 -0.1701  0.3231
  268POPC   C1A 3642   2.243   6.710   5.479  0.1294 -0.0861 -0.1800
  268POPC   D2A 3643   2.312   6.543   5.907 -0.3850  0.1216 -0.1696
  268POPC   C3A 3644   2.665   6.610   6.119  0.0151  0.2821 -0.4972
  268POPC   C4A 3645   2.875   7.058   6.366 -0.1587  0.5571  0.1703
  268POPC   C1B 3646   2.774   6.672   5.531  0.0069  0.2516  0.1740
  268POPC   C2B 3647   3.090   6.970   5.767  0.1321 -0.2959 -0.1167
  268POPC   C3B 3648   3.143   7.395   5.882 -0.1190  0.0110 -0.5146
  268POPC   C4B 3649   2.862   7.701   5.953 -0.0698  0.0157  0.1166
  269POPC   NC3 3650   7.979   3.189   4.363  0.0858  0.2453  0.0353
  269POPC   PO4 3651   8.185   3.398   4.766 -0.2975 -0.1067  0.2094
  269POPC   GL1 3652   8.089   3.279   5.180  0.0844  0.0790  0.1614
  269POPC   GL2 3653   8.240   2.997   5.320 -0.0706  0.3286 -0.0830
  269POPC   C1A 3654   7.873   3.317   5.519  0.3718 -0.2325 -0.1217
  269POPC   D2A 3655   7.726   3.408   6.039 -0.0765 -0.3079  0.1812
  269POPC   C3A 3656   7.485   3.151   6.473 -0.3369  0.0771 -0.1576
  269POPC   C4A 3657   7.196   2.810   6.466  0.0609  0.1385  0.2955
  269POPC   C1B 3658   8.212   2.951   5.726 -0.2141 -0.1153  0.0116
  269POPC   C2B 3659   8.151   3.092   6.091 -0.2073  0.1046 -0.1003
  269POPC   C3B 3660   7.932   3.009   6.385  0.2703 -0.0361  0.1754
  269POPC   C4B 3661   7.691   2.775   6.731 -0.0328 -0.2695 -0.0079
  270POPC   NC3 3662   3.037   5.321   4.837 -0.0709  0.2458  0.0161
  270POPC   PO4 3663   3.526   5.437   4.675 -0.2292  0.0881 -0.0306
  270POPC   GL1 3664   3.492   5.634   5.057  0.2075 -0.1660 -0.0002
  270POPC   GL2 3665   3.447   5.958   5.063 -0.5820 -0.1490 -0.0212
  270POPC   C1A 3666   3.308   5.588   5.476 -0.2813 -0.0455  0.1638
  270POPC   D2A 3667   3.262   5.827   5.880 -0.0929  0.2198 -0.1381
  270POPC   C3A 3668   3.293   5.683   6.256 -0.1460 -0.0884 -0.0631
  270POPC   C4A 3669   3.020   5.728   6.587 -0.1099  0.2609  0.1296
  270POPC   C1B 3670   3.519   6.199   5.390 -0.2023 -0.0842  0.2735
  270POPC   C2B 3671   3.552   6.262   5.832 -0.0255 -0.0486  0.4854
  270POPC   C3B 3672   3.589   6.082   6.170 -0.0454  0.1384  0.0680
  270POPC   C4B 3673   3.827   5.743   6.292  0.1439 -0.0095 -0.0715
  271POPC   NC3 3674   9.771   6.734   5.085 -0.0739 -0.1420  0.0345
  271POPC   PO4 3675   9.355   6.617   4.843 -0.2401 -0.1279 -0.2590
  271POPC   GL1 3676   9.233   6.740   5.302 -0.1560 -0.1135  0.4569
  271POPC   GL2 3677   9.357   6.433   5.437 -0.0283 -0.3674  0.2438
  271POPC   C1A 3678   9.247   6.910   5.713  0.2033  0.2954 -0.0873
  271POPC   D2A 3679   9.127   6.991   6.171  0.1062 -0.0278 -0.4017
  271POPC   C3A 3680   8.740   7.223   6.262 -0.0674  0.2520  0.0067
  271POPC   C4A 3681   8.340   7.270   6.410 -0.1287  0.3451 -0.2413
  271POPC   C1B 3682   9.354   6.420   5.899 -0.0055  0.1343 -0.0181
  271POPC   C2B 3683   9.541   6.560   6.321 -0.1539  0.3554  0.1430
  271POPC   C3B 3684   9.602   6.950   6.491  0.2976  0.5054 -0.1466
  271POPC   C4B 3685   9.495   7.291   6.697  0.0142  0.2535 -0.1854
  272POPC   NC3 3686   3.040   0.755   4.438 -0.1281  0.0461 -0.2059
  272POPC   PO4 3687   3.380   0.497   4.629  0.0024 -0.0316  0.1088
  272POPC   GL1 3688   3.466   0.226   4.891  0.1077  0.1110  0.2775
  272POPC   GL2 3689   3.387   0.451   5.162 -0.0549  0.3030 -0.1310
  272POPC   C1A 3690   3.560  -0.034   5.222 -0.1718 -0.1928 -0.1217
  272POPC   D2A 3691   3.816  -0.394   5.428  0.2135  0.1897  0.1923
  272POPC   C3A 3692   4.026  -0.461   5.783  0.0430 -0.0097 -0.0991
  272POPC   C4A 3693   4.469  -0.478   5.791  0.1619 -0.2829  0.1625
  272POPC   C1B 3694   3.505   0.414   5.616 -0.1450  0.0883 -0.1270
  272POPC   C2B 3695   3.549   0.733   5.939 -0.0038 -0.0459  0.0544
  272POPC   C3B 3696   3.725   0.783   6.342 -0.0982  0.2637 -0.1501
  272POPC   C4B 3697   4.059   0.976   6.506  0.1892  0.1919 -0.1615
  273POPC   NC3 3698   1.615   4.944   5.103  0.0814  0.1459 -0.2933
  273POPC   PO4 3699   1.499   4.658   4.743  0.2078  0.1515  0.0312
  273POPC   GL1 3700   1.389   4.492   5.158  0.0229 -0.2295  0.1163
  273POPC   GL2 3701   1.103   4.735   5.251 -0.0998 -0.1403 -0.3964
  273POPC   C1A 3702   1.484   4.072   5.331 -0.4297  0.1161 -0.0228
  273POPC   D2A 3703   1.599   3.581   5.547 -0.1982 -0.1857 -0.1943
  273POPC   C3A 3704   2.080   3.420   5.641 -0.3862 -0.1484 -0.1422
  273POPC   C4A 3705   2.327   3.038   5.884  0.2836  0.0136 -0.3654
  273POPC   C1B 3706   1.264   4.708   5.567 -0.0299 -0.1074 -0.1153
  273POPC   C2B 3707   1.261   4.559   6.016 -0.0139 -0.0972 -0.0901
  273POPC   C3B 3708   1.293   4.779   6.390  0.0742 -0.0046 -0.2485
  273POPC   C4B 3709   1.385   4.798   6.792  0.2965 -0.2970 -0.1462
  274POPC   NC3 3710   4.279   0.289   4.105 -0.1103 -0.1812 -0.0746
  274POPC   PO4 3711   4.051  -0.013   4.229 -0.0647 -0.0624  0.3925
  274POPC   GL1 3712   4.239   0.054   4.623 -0.2156 -0.1377  0.0716
  274POPC   GL2 3713   4.273   0.411   4.746 -0.0314  0.1350  0.0105
  274POPC   C1A 3714   4.638   0.016   4.909 -0.0499  0.3027  0.2470
  274POPC   D2A 3715   4.840   0.201   5.210 -0.0234  0.0538  0.0176
  274POPC   C3A 3716   4.519   0.382   5.555  0.3088  0.2412 -0.0209
  274POPC   C4A 3717   4.345   0.838   5.855 -0.0684  0.0786  0.3236
  274POPC   C1B 3718   4.209   0.300   5.170 -0.3004 -0.3565  0.1879
  274POPC   C2B 3719   3.968   0.084   5.481  0.3705 -0.3302 -0.0912
  274POPC   C3B 3720   3.642  -0.086   5.810  0.2113 -0.1256  0.0970
  274POPC   C4B 3721   3.539  -0.389   5.917  0.2589  0.0242  0.1425
  275POPC   NC3 3722   4.181   7.907   3.874  0.0656 -0.0096 -0.0111
  275POPC   PO4 3723   4.350   8.376   3.867  0.1203 -0.0469 -0.2258
  275POPC   GL1 3724   4.274   8.591   4.281 -0.0556 -0.1549  0.1389
  275POPC   GL2 3725   3.886   8.636   4.448 -0.1544 -0.1527 -0.0779
  275POPC   C1A 3726   4.425   8.553   4.611  0.0989  0.3501 -0.0940
  275POPC   D2A 3727   4.280   8.372   5.015  0.1837 -0.4169 -0.0567
  275POPC   C3A 3728   4.181   8.628   5.338 -0.0318  0.0811 -0.2420
  275POPC   C4A 3729   4.048   8.501   5.683 -0.2399  0.2557 -0.0245
  275POPC   C1B 3730   3.833   8.575   4.863 -0.0732  0.1189 -0.0847
  275POPC   C2B 3731   3.642   8.589   5.222 -0.0971  0.2934 -0.1663
  275POPC   C3B 3732   3.564   8.465   5.597 -0.1861  0.1972 -0.0604
  275POPC   C4B 3733   3.343   8.589   5.950  0.0888 -0.1876 -0.0580
  276POPC   NC3 3734   3.780   6.965   4.382 -0.1905  0.0431 -0.1328
  276POPC   PO4 3735   4.102   6.784   4.239  0.0807  0.1172 -0.1883
  276POPC   GL1 3736   4.277   6.820   4.693 -0.0429  0.1167  0.3594
  276POPC   GL2 3737   4.385   6.581   5.045  0.0541  0.1715  0.2646
  276POPC   C1A 3738   4.556   7.011   4.925 -0.1250  0.1415 -0.1444
  276POPC   D2A 3739   4.534   7.443   5.119 -0.2063  0.2390 -0.1104
  276POPC   C3A 3740   4.742   7.571   5.446  0.3093  0.1550 -0.2600
  276POPC   C4A 3741   4.765   7.796   5.794 -0.7569 -0.0439  0.3058
  276POPC   C1B 3742   4.492   6.509   5.440 -0.0314  0.0780  0.0983
  276POPC   C2B 3743   4.686   6.523   5.859  0.1465 -0.0439 -0.2496
  276POPC   C3B 3744   4.765   6.433   6.263  0.2145 -0.1903 -0.1815
  276POPC   C4B 3745   5.024   6.380   6.556  0.1397  0.3073  0.0297
  277POPC   NC3 3746   8.338   7.186   4.536  0.1412  0.3344  0.0006
  277POPC   PO4 3747   8.856   6.997   4.596 -0.0812  0.1063 -0.1086
  277POPC   GL1 3748   8.831   7.210   4.976  0.0945 -0.0308  0.0235
  277POPC   GL2 3749   8.854   7.072   5.292 -0.0841 -0.1001  0.1958
  277POPC   C1A 3750   8.448   7.324   5.182 -0.2599 -0.0287  0.2189
  277POPC   D2A 3751   8.225   7.281   5.410 -0.1396 -0.3001 -0.1126
  277POPC   C3A 3752   8.034   7.653   5.631 -0.1055 -0.0777 -0.2283
  277POPC   C4A 3753   8.028   8.000   5.852  0.1579 -0.0988  0.4205
  277POPC   C1B 3754   8.745   7.035   5.734 -0.2067  0.1439  0.1011
  277POPC   C2B 3755   8.564   6.854   6.052 -0.0309 -0.1877  0.0862
  277POPC   C3B 3756   8.566   6.830   6.505  0.2356  0.0001 -0.0661
  277POPC   C4B 3757   8.642   7.033   6.956  0.0124  0.1537 -0.0357
  278POPC   NC3 3758   0.652   5.430   4.764 -0.0767 -0.3231 -0.2036
  278POPC   PO4 3759   0.206   5.607   4.979 -0.0383 -0.0259 -0.0341
  278POPC   GL1 3760   0.024   5.812   5.330 -0.1000  0.1135  0.0971
  278POPC   GL2 3761  -0.382   5.945   5.262 -0.2074  0.2413  0.0017
  278POPC   C1A 3762  -0.112   6.022   5.739 -0.0731 -0.2855  0.1378
  278POPC   D2A 3763  -0.196   6.027   6.130 -0.0808 -0.1780 -0.1637
  278POPC   C3A 3764   0.089   6.372   6.069 -0.1457 -0.1213 -0.0658
  278POPC   C4A 3765   0.327   6.645   5.973  0.1116  0.2004 -0.0361
  278POPC   C1B 3766  -0.417   5.721   5.637  0.1547 -0.0809  0.2632
  278POPC   C2B 3767  -0.538   5.789   5.908  0.0665  0.0594 -0.3513
  278POPC   C3B 3768  -0.757   5.667   6.339  0.0462  0.1671  0.1249
  278POPC   C4B 3769  -0.972   5.460   6.599  0.2042 -0.0209  0.0136
  279POPC   NC3 3770   7.934   1.790   3.646 -0.0601  0.3230  0.0845
  279POPC   PO4 3771   7.823   1.959   3.967 -0.2324  0.0855 -0.2496
  279POPC   GL1 3772   7.949   1.743   4.361  0.0541 -0.6984  0.2670
  279POPC   GL2 3773   7.601   1.812   4.379  0.1757  0.0837  0.0973
  279POPC   C1A 3774   8.064   1.797   4.823 -0.0986  0.1988 -0.0511
  279POPC   D2A 3775   8.071   2.045   5.095 -0.0657 -0.2264 -0.2311
  279POPC   C3A 3776   7.663   2.202   5.207 -0.0677 -0.0476  0.0347
  279POPC   C4A 3777   7.581   2.362   5.600 -0.2026 -0.1798  0.2660
  279POPC   C1B 3778   7.424   1.620   4.711  0.0812 -0.2399  0.1188
  279POPC   C2B 3779   7.681   1.579   5.126  0.2841 -0.0975  0.3004
  279POPC   C3B 3780   7.989   1.432   5.279 -0.1450  0.3243 -0.0290
  279POPC   C4B 3781   8.340   1.403   5.020  0.0739  0.0746 -0.2666
  280POPC   NC3 3782   6.512   4.240   4.367  0.1696  0.0609 -0.0381
  280POPC   PO4 3783   6.227   4.613   4.444 -0.0615 -0.2818 -0.1985
  280POPC   GL1 3784   5.998   4.471   4.836  0.2190 -0.2000 -0.0984
  280POPC   GL2 3785   5.741   4.293   4.846 -0.1411 -0.1090 -0.2115
  280POPC   C1A 3786   6.134   4.525   5.234  0.1436 -0.0011 -0.1387
  280POPC   D2A 3787   6.524   4.521   5.333 -0.1200 -0.0653 -0.2817
  280POPC   C3A 3788   6.357   4.170   5.604 -0.2811  0.0828  0.0247
  280POPC   C4A 3789   6.120   4.205   5.901  0.0903 -0.1398  0.0901
  280POPC   C1B 3790   6.014   4.048   5.164 -0.1859  0.1099 -0.2637
  280POPC   C2B 3791   6.003   3.802   5.550 -0.0927  0.4742  0.0317
  280POPC   C3B 3792   5.922   3.431   5.640 -0.1193 -0.0027 -0.0442
  280POPC   C4B 3793   5.598   3.096   5.715  0.1021 -0.3810  0.1844
  281POPC   NC3 3794   1.788   6.209   4.448  0.0774  0.0589  0.0671
  281POPC   PO4 3795   1.554   6.203   4.841  0.2400 -0.2177 -0.2915
  281POPC   GL1 3796   1.821   6.317   5.181 -0.1871 -0.2088  0.0089
  281POPC   GL2 3797   1.958   5.976   5.179  0.1403  0.1569 -0.0212
  281POPC   C1A 3798   1.900   6.421   5.679 -0.1782  0.0194  0.1049
  281POPC   D2A 3799   1.863   6.642   6.036  0.0769 -0.0506 -0.1614
  281POPC   C3A 3800   2.057   6.550   6.333  0.3908 -0.1026  0.0394
  281POPC   C4A 3801   2.203   6.328   6.704 -0.0236  0.2292  0.1653
  281POPC   C1B 3802   1.844   5.955   5.577 -0.2865  0.1095  0.0679
  281POPC   C2B 3803   2.146   6.077   5.871  0.0964  0.0002  0.0415
  281POPC   C3B 3804   2.406   6.159   6.233  0.2226 -0.1653  0.0803
  281POPC   C4B 3805   2.727   6.150   6.627  0.0348  0.1772 -0.1936
  282POPC   NC3 3806   3.736   4.185   4.291  0.1566 -0.0706  0.3500
  282POPC   PO4 3807   3.637   4.460   4.768  0.2644  0.1620 -0.1919
  282POPC   GL1 3808   3.567   4.416   5.216 -0.0416  0.0797 -0.1008
  282POPC   GL2 3809   3.225   4.501   5.385 -0.1583  0.1577 -0.3324
  282POPC   C1A 3810   3.580   4.347   5.699 -0.0328  0.2073 -0.1291
  282POPC   D2A 3811   3.749   4.449   6.111  0.0645 -0.0867  0.1670
  282POPC   C3A 3812   4.142   4.455   6.047  0.0092  0.0558 -0.0212
  282POPC   C4A 3813   4.434   4.102   5.933 -0.1673 -0.1685 -0.2761
  282POPC   C1B 3814   3.061   4.394   5.741 -0.0153  0.0185  0.0618
  282POPC   C2B 3815   3.325   4.174   6.117 -0.0479 -0.0430 -0.2012
  282POPC   C3B 3816   3.257   4.184   6.667 -0.0496  0.0212 -0.4895
  282POPC   C4B 3817   3.021   4.136   7.078 -0.1356  0.1187 -0.2470
  283POPC   NC3 3818   5.405   3.352   4.322  0.3442  0.3864  0.2996
  283POPC   PO4 3819   5.409   3.018   4.561 -0.4485  0.0066  0.0514
  283POPC   GL1 3820   5.579   2.857   4.926 -0.0334 -0.1643  0.0556
  283POPC   GL2 3821   5.963   2.895   4.864 -0.1693  0.3502 -0.0428
  283POPC   C1A 3822   5.678   2.662   5.335 -0.1757  0.2925 -0.1110
  283POPC   D2A 3823   5.747   2.446   5.640 -0.3551 -0.2869  0.2390
  283POPC   C3A 3824   5.420   2.535   5.927 -0.2079  0.0240 -0.2155
  283POPC   C4A 3825   5.347   2.968   6.133 -0.2580  0.1592 -0.3140
  283POPC   C1B 3826   6.088   3.287   4.933 -0.2878  0.0611 -0.1581
  283POPC   C2B 3827   6.197   3.631   4.976  0.4007 -0.0376  0.2245
  283POPC   C3B 3828   6.539   4.015   5.134  0.1295 -0.1567  0.1397
  283POPC   C4B 3829   6.907   4.111   5.361 -0.0495 -0.2129 -0.0457
  284POPC   NC3 3830   6.812   4.596   4.494 -0.3329 -0.2960  0.2565
  284POPC   PO4 3831   6.980   4.851   4.931 -0.1149 -0.3914 -0.3322
  284POPC   GL1 3832   7.020   4.597   5.323  0.2359  0.0701 -0.3037
  284POPC   GL2 3833   7.318   4.606   5.313 -0.3700  0.0414  0.0038
  284POPC   C1A 3834   6.954   4.413   5.753 -0.1578  0.0281 -0.0297
  284POPC   D2A 3835   6.823   3.967   5.851 -0.3335 -0.1422 -0.1546
  284POPC   C3A 3836   6.791   3.874   6.357  0.0395 -0.2115 -0.1086
  284POPC   C4A 3837   7.096   3.786   6.820  0.2317 -0.0703 -0.1431
  284POPC   C1B 3838   7.442   4.570   5.823 -0.2986  0.1288  0.2885
  284POPC   C2B 3839   7.223   4.699   6.242  0.0788 -0.1270  0.2346
  284POPC   C3B 3840   7.388   4.932   6.661  0.1308  0.3176 -0.0722
  284POPC   C4B 3841   7.564   4.773   6.953  0.2224  0.2186  0.2712
  285POPC   NC3 3842   5.886   7.350   3.653 -0.1391 -0.2084 -0.0601
  285POPC   PO4 3843   5.650   7.685   3.829 -0.0951 -0.3434  0.1375
  285POPC   GL1 3844   5.255   7.702   4.130 -0.0116  0.3221  0.2056
  285POPC   GL2 3845   5.003   7.406   4.287  0.0242  0.0261 -0.0152
  285POPC   C1A 3846   5.164   7.739   4.664 -0.1047 -0.0307  0.1234
  285POPC   D2A 3847   5.008   7.625   5.034 -0.0947  0.0395 -0.0944
  285POPC   C3A 3848   5.113   7.888   5.339  0.2059  0.0626 -0.0391
  285POPC   C4A 3849   5.287   7.866   5.697  0.3350 -0.0000  0.1302
  285POPC   C1B 3850   5.015   7.239   4.626  0.2261 -0.0155 -0.3166
  285POPC   C2B 3851   5.052   7.130   5.169 -0.1356  0.0384 -0.3345
  285POPC   C3B 3852   5.165   7.294   5.569 -0.0111 -0.0372  0.1491
  285POPC   C4B 3853   5.383   7.438   5.924 -0.1476  0.1258 -0.1272
  286POPC   NC3 3854   1.319   8.370   4.626 -0.1244  0.4394 -0.1017
  286POPC   PO4 3855   0.907   8.072   4.672 -0.0817  0.2853  0.0270
  286POPC   GL1 3856   0.643   7.933   5.056  0.1581 -0.0337 -0.2857
  286POPC   GL2 3857   0.477   8.283   5.278 -0.1259 -0.0108 -0.1973
  286POPC   C1A 3858   0.417   7.896   5.538 -0.0936 -0.0245 -0.1883
  286POPC   D2A 3859   0.377   7.991   5.942  0.2255 -0.1716  0.1661
  286POPC   C3A 3860   0.515   7.793   6.356 -0.1170  0.3525 -0.2892
  286POPC   C4A 3861   0.472   7.666   6.778  0.3389  0.1271  0.1084
  286POPC   C1B 3862   0.381   8.388   5.710  0.0881 -0.0781  0.0954
  286POPC   C2B 3863   0.087   8.435   6.106 -0.3003  0.1352 -0.0489
  286POPC   C3B 3864   0.068   8.617   6.583  0.0126  0.0594  0.2642
  286POPC   C4B 3865   0.489   8.799   6.730 -0.1340  0.1800  0.1813
  287POPC   NC3 3866   6.654   7.722   3.937  0.0550 -0.0050 -0.0158
  287POPC   PO4 3867   6.860   7.320   4.042 -0.0766 -0.1922  0.0251
  287POPC   GL1 3868   6.844   7.480   4.457 -0.4251 -0.1788 -0.0023
  287POPC   GL2 3869   6.988   7.870   4.315 -0.0039 -0.0215 -0.0452
  287POPC   C1A 3870   6.638   7.611   4.771 -0.0198  0.0000 -0.2504
  287POPC   D2A 3871   6.512   7.883   5.108 -0.1843  0.1736  0.2141
  287POPC   C3A 3872   6.626   8.228   5.502 -0.0337  0.2229 -0.3398
  287POPC   C4A 3873   6.660   8.098   5.947  0.1052 -0.1419  0.1914
  287POPC   C1B 3874   6.887   8.153   4.718  0.0685 -0.2250  0.0562
  287POPC   C2B 3875   7.017   8.238   5.114  0.0734  0.3177  0.2127
  287POPC   C3B 3876   7.181   7.965   5.423 -0.2394  0.3277 -0.3061
  287POPC   C4B 3877   7.247   7.974   5.935  0.0594 -0.3012  0.1087
  288POPC   NC3 3878   1.401   0.781   4.687  0.1862  0.2340  0.1285
  288POPC   PO4 3879   1.551   0.794   5.101 -0.4599 -0.0379  0.0828
  288POPC   GL1 3880   1.531   0.779   5.528  0.2296 -0.1185 -0.0315
  288POPC   GL2 3881   1.175   0.842   5.658 -0.0747 -0.0692 -0.3509
  288POPC   C1A 3882   1.581   0.703   5.941 -0.1256 -0.0920 -0.1180
  288POPC   D2A 3883   1.606   0.713   6.291  0.0279 -0.0997  0.2587
  288POPC   C3A 3884   1.902   0.424   6.474 -0.0640  0.0748 -0.1757
  288POPC   C4A 3885   2.323   0.426   6.662  0.1870 -0.1543  0.0961
  288POPC   C1B 3886   1.093   0.618   6.052  0.4123 -0.2152 -0.0258
  288POPC   C2B 3887   1.262   0.325   6.362  0.2705 -0.1488 -0.3280
  288POPC   C3B 3888   1.316   0.208   6.815  0.0064  0.1498 -0.1138
  288POPC   C4B 3889   1.503   0.448   7.182  0.0817  0.4551  0.1095
  289POPC   NC3 3890   2.299   1.011   4.605  0.2190 -0.0990  0.0499
  289POPC   PO4 3891   2.703   1.127   4.635 -0.2001 -0.0243  0.0936
  289POPC   GL1 3892   2.618   1.164   5.004  0.1435 -0.1174 -0.4889
  289POPC   GL2 3893   2.495   0.867   5.263  0.0218  0.0348  0.1520
  289POPC   C1A 3894   2.641   1.273   5.524 -0.1884 -0.1021  0.1077
  289POPC   D2A 3895   2.227   1.418   5.750 -0.1031 -0.1213 -0.0082
  289POPC   C3A 3896   1.814   1.397   5.917  0.0119  0.0513 -0.0847
  289POPC   C4A 3897   1.404   1.223   5.814  0.2006  0.0344 -0.0711
  289POPC   C1B 3898   2.668   0.449   5.424 -0.0251 -0.2671  0.1446
  289POPC   C2B 3899   2.588   0.208   5.796  0.2182  0.2521  0.1399
  289POPC   C3B 3900   2.727   0.092   6.254 -0.3341 -0.4063 -0.0478
  289POPC   C4B 3901   2.912  -0.015   6.545  0.0190  0.0417  0.2353
  290POPC   NC3 3902   9.176   2.542   4.779  0.2773 -0.1803  0.1995
  290POPC   PO4 3903   9.209   3.036   4.759  0.0039  0.3584 -0.0323
  290POPC   GL1 3904   9.127   2.860   5.155  0.1786  0.1377 -0.0524
  290POPC   GL2 3905   9.144   2.542   5.286  0.2059  0.0865  0.3169
  290POPC   C1A 3906   9.149   2.936   5.639 -0.0337  0.2181 -0.1055
  290POPC   D2A 3907   8.937   2.937   6.056 -0.0050  0.2971  0.1304
  290POPC   C3A 3908   8.974   2.880   6.531 -0.2596  0.0685  0.0195
  290POPC   C4A 3909   9.171   2.599   6.847  0.2317  0.3808  0.2194
  290POPC   C1B 3910   8.837   2.248   5.505 -0.0362  0.4101  0.0350
  290POPC   C2B 3911   8.885   2.319   5.927  0.0493  0.0043  0.3703
  290POPC   C3B 3912   9.212   2.480   6.345  0.4788  0.1726  0.1622
  290POPC   C4B 3913   9.425   2.227   6.694 -0.3358  0.2175 -0.0645
  291POPC   NC3 3914   8.883   2.862   4.460  0.1768  0.1034  0.0662
  291POPC   PO4 3915   8.823   2.416   4.426 -0.0253 -0.0207 -0.1365
  291POPC   GL1 3916   8.628   2.589   4.817  0.0314  0.0463  0.0143
  291POPC   GL2 3917   8.459   2.911   4.817  0.2386  0.0320  0.2995
  291POPC   C1A 3918   8.461   2.340   5.169 -0.1191 -0.0027 -0.4151
  291POPC   D2A 3919   8.118   2.306   5.564  0.2395 -0.1049  0.1804
  291POPC   C3A 3920   7.964   1.900   5.601  0.2955 -0.2387 -0.0002
  291POPC   C4A 3921   7.525   1.834   5.522 -0.0122 -0.0010  0.0295
  291POPC   C1B 3922   8.665   2.776   5.263 -0.2543 -0.0905  0.0345
  291POPC   C2B 3923   8.603   2.621   5.656 -0.0054  0.1048 -0.3166
  291POPC   C3B 3924   8.510   2.683   6.086 -0.1514  0.1905 -0.2183
  291POPC   C4B 3925   8.157   2.595   6.336  0.4518 -0.2620 -0.2399
  292POPC   NC3 3926   5.141   7.905   3.698 -0.0621 -0.1816  0.1703
  292POPC   PO4 3927   4.687   7.805   3.817 -0.0357 -0.0155  0.1572
  292POPC   GL1 3928   4.619   7.814   4.168  0.0405 -0.3396 -0.1082
  292POPC   GL2 3929   4.457   8.106   4.231  0.0949 -0.2278 -0.0787
  292POPC   C1A 3930   4.889   8.137   4.462  0.1852  0.1535  0.1384
  292POPC   D2A 3931   5.085   8.215   4.880 -0.1089 -0.2024 -0.3593
  292POPC   C3A 3932   4.874   8.580   5.073  0.0993 -0.4036  0.1225
  292POPC   C4A 3933   4.618   8.760   5.448 -0.1144  0.2266  0.1023
  292POPC   C1B 3934   4.064   7.926   4.493  0.3681 -0.2928  0.0123
  292POPC   C2B 3935   4.084   7.918   4.820  0.1490 -0.2661  0.0481
  292POPC   C3B 3936   3.881   8.090   5.089  0.0127  0.1147 -0.0306
  292POPC   C4B 3937   3.399   8.135   5.189 -0.0493  0.2827  0.1638
  293POPC   NC3 3938   3.541   0.965   4.474  0.3475  0.0292  0.1686
  293POPC   PO4 3939   3.157   1.228   4.309 -0.0570  0.3641  0.1106
  293POPC   GL1 3940   3.383   1.318   4.767 -0.1818 -0.2027  0.0324
  293POPC   GL2 3941   3.177   1.168   4.949  0.1535 -0.0456 -0.2874
  293POPC   C1A 3942   3.764   1.542   4.890 -0.0806  0.4159 -0.0249
  293POPC   D2A 3943   4.108   1.447   5.134 -0.1558  0.1606 -0.1665
  293POPC   C3A 3944   4.359   1.729   5.468 -0.1462  0.0299  0.2901
  293POPC   C4A 3945   4.688   1.679   5.736  0.0079 -0.1785 -0.3232
  293POPC   C1B 3946   3.118   0.914   5.337 -0.1726  0.1644 -0.1554
  293POPC   C2B 3947   3.082   0.862   5.802 -0.1584  0.0998  0.0029
  293POPC   C3B 3948   2.994   0.950   6.335  0.2527  0.1139  0.3222
  293POPC   C4B 3949   3.091   1.111   6.643 -0.1968  0.0016 -0.0556
  294POPC   NC3 3950   8.668   7.085   4.153  0.0001 -0.2922 -0.1007
  294POPC   PO4 3951   8.481   6.699   4.342 -0.0835 -0.2024 -0.1373
  294POPC   GL1 3952   8.313   6.753   4.797  0.0588 -0.2634 -0.0765
  294POPC   GL2 3953   8.414   6.851   4.998 -0.0748 -0.2545  0.0607
  294POPC   C1A 3954   7.929   7.037   4.954  0.2653  0.0681  0.3812
  294POPC   D2A 3955   7.769   7.377   5.256 -0.1086 -0.1301 -0.2193
  294POPC   C3A 3956   7.399   7.483   5.143  0.1604 -0.4580 -0.0344
  294POPC   C4A 3957   7.149   7.756   4.853 -0.0299 -0.1757 -0.1259
  294POPC   C1B 3958   8.125   6.743   5.377  0.2289  0.0111  0.1430
  294POPC   C2B 3959   8.175   6.655   5.813  0.2662  0.4093  0.0746
  294POPC   C3B 3960   8.303   6.407   6.143  0.2005 -0.0498 -0.1419
  294POPC   C4B 3961   8.508   6.308   6.500 -0.1682  0.0373  0.1438
  295POPC   NC3 3962   1.163   9.285   4.748 -0.1341  0.2152 -0.0048
  295POPC   PO4 3963   1.555   9.420   4.657 -0.0413 -0.1861  0.0850
  295POPC   GL1 3964   1.537   9.209   5.108  0.0207  0.0800  0.1692
  295POPC   GL2 3965   1.778   9.077   5.292 -0.2005  0.2575 -0.2835
  295POPC   C1A 3966   1.435   8.800   5.218  0.0110  0.1563  0.1546
  295POPC   D2A 3967   1.528   8.384   5.104 -0.0552  0.2222 -0.1104
  295POPC   C3A 3968   1.402   8.027   5.336 -0.1297  0.3207 -0.1327
  295POPC   C4A 3969   1.378   7.807   5.700  0.2842 -0.6285 -0.2490
  295POPC   C1B 3970   1.892   9.100   5.746  0.0662  0.0589  0.2078
  295POPC   C2B 3971   2.014   9.088   6.097 -0.1981 -0.0977  0.0207
  295POPC   C3B 3972   2.184   8.933   6.437 -0.3783  0.4539 -0.3980
  295POPC   C4B 3973   2.579   8.772   6.518  0.4232  0.4400 -0.0254
  296POPC   NC3 3974   0.200   1.543   5.049 -0.1594 -0.0977  0.0824
  296POPC   PO4 3975   0.118   1.980   4.979  0.0732 -0.2528 -0.0824
  296POPC   GL1 3976  -0.063   1.894   5.325  0.1908 -0.1342  0.2487
  296POPC   GL2 3977  -0.240   1.553   5.291 -0.0841 -0.4938  0.0098
  296POPC   C1A 3978  -0.238   1.921   5.679  0.0711 -0.3176  0.0953
  296POPC   D2A 3979  -0.302   2.141   6.074 -0.1701 -0.0202  0.3518
  296POPC   C3A 3980   0.132   2.199   6.292  0.1473  0.2248 -0.1778
  296POPC   C4A 3981   0.453   2.383   6.369 -0.0722  0.0250  0.0307
  296POPC   C1B 3982  -0.132   1.421   5.672 -0.4432 -0.3898  0.1640
  296POPC   C2B 3983  -0.110   1.494   6.191 -0.0855 -0.2606  0.0477
  296POPC   C3B 3984  -0.148   1.845   6.525  0.1419  0.0501  0.1748
  296POPC   C4B 3985  -0.313   1.874   7.033  0.0175  0.1716  0.1261
  297POPC   NC3 3986   5.846   9.833   3.183 -0.2696 -0.1324  0.0614
  297POPC   PO4 3987   5.817  10.304   3.128 -0.0973  0.3148 -0.0977
  297POPC   GL1 3988   5.969  10.257   3.574 -0.2014  0.2012 -0.2448
  297POPC   GL2 3989   6.196  10.568   3.678  0.0718  0.3651 -0.1929
  297POPC   C1A 3990   6.147  10.058   3.891  0.3502 -0.1021  0.0725
  297POPC   D2A 3991   6.249  10.139   4.313  0.0968 -0.0658 -0.2602
  297POPC   C3A 3992   5.967   9.927   4.499  0.0090  0.0488 -0.2118
  297POPC   C4A 3993   5.708   9.897   4.835 -0.0676  0.1375  0.1718
  297POPC   C1B 3994   6.004  10.881   3.863 -0.1636  0.0086 -0.1868
  297POPC   C2B 3995   6.116  11.215   4.125  0.1092  0.1386  0.1499
  297POPC   C3B 3996   6.282  11.440   4.375  0.0877 -0.2377  0.0724
  297POPC   C4B 3997   6.480  11.383   4.751 -0.2143  0.4133  0.0269
  298POPC   NC3 3998   1.659   1.783   4.138  0.1699  0.3993 -0.2877
  298POPC   PO4 3999   1.876   1.606   4.474  0.1663  0.2388  0.0410
  298POPC   GL1 4000   1.845   1.723   5.048  0.0730 -0.0176 -0.1770
  298POPC   GL2 4001   1.741   1.401   5.367  0.0411  0.1233 -0.0725
  298POPC   C1A 4002   1.921   1.830   5.410 -0.0752 -0.3006 -0.1603
  298POPC   D2A 4003   1.799   2.127   5.601  0.0171  0.0102 -0.2216
  298POPC   C3A 4004   1.983   2.314   5.898 -0.1177  0.0689 -0.0092
  298POPC   C4A 4005   2.140   2.313   6.290 -0.0990 -0.2819  0.1738
  298POPC   C1B 4006   1.961   1.020   5.613 -0.0077 -0.0579 -0.0252
  298POPC   C2B 4007   2.045   0.832   5.989 -0.0875 -0.0191  0.1587
  298POPC   C3B 4008   2.107   0.905   6.351 -0.0234 -0.0101  0.0894
  298POPC   C4B 4009   2.165   0.835   6.871  0.0738 -0.2157 -0.1543
  299POPC   NC3 4010   8.788   4.101   4.223  0.1806 -0.0644  0.0630
  299POPC   PO4 4011   8.680   4.366   4.590  0.2577  0.2228 -0.2698
  299POPC   GL1 4012   8.623   4.165   5.021 -0.1032  0.2483 -0.0042
  299POPC   GL2 4013   8.304   4.338   5.113  0.1684  0.1796  0.2949
  299POPC   C1A 4014   8.908   4.275   5.279 -0.0640 -0.2364  0.1586
  299POPC   D2A 4015   8.978   4.387   5.801 -0.1394 -0.2012  0.0464
  299POPC   C3A 4016   8.645   4.562   5.909  0.2237 -0.3466 -0.1692
  299POPC   C4A 4017   8.335   4.623   5.589  0.2329 -0.1109  0.2494
  299POPC   C1B 4018   8.363   4.098   5.450 -0.1111 -0.0895  0.2576
  299POPC   C2B 4019   8.334   4.127   5.941  0.0288 -0.0017  0.0681
  299POPC   C3B 4020   8.430   3.981   6.387 -0.0194 -0.0769  0.2545
  299POPC   C4B 4021   8.656   3.596   6.400 -0.1685  0.1949 -0.3201
  300POPC   NC3 4022   4.731   6.756   3.797  0.0527  0.1224  0.1222
  300POPC   PO4 4023   4.927   6.487   4.118  0.0963 -0.2982  0.0788
  300POPC   GL1 4024   5.043   6.634   4.477  0.1358  0.2159 -0.0721
  300POPC   GL2 4025   4.803   6.626   4.694  0.0923 -0.0140 -0.0137
  300POPC   C1A 4026   5.196   6.622   4.950  0.2538  0.3528 -0.0586
  300POPC   D2A 4027   4.982   6.615   5.391  0.0838 -0.2571  0.2156
  300POPC   C3A 4028   5.038   6.865   5.762  0.0453  0.1724 -0.2642
  300POPC   C4A 4029   5.287   6.679   6.058 -0.0448  0.0933 -0.1896
  300POPC   C1B 4030   4.738   6.265   5.045 -0.2475 -0.0576 -0.2086
  300POPC   C2B 4031   4.688   6.031   5.423 -0.0811  0.1150  0.0972
  300POPC   C3B 4032   4.838   5.660   5.665  0.1490  0.0593  0.0389
  300POPC   C4B 4033   5.101   5.506   6.095  0.0799 -0.0901  0.0906
  301POPC   NC3 4034   6.870   6.270   4.251 -0.0397  0.0240 -0.0647
  301POPC   PO4 4035   7.292   6.137   4.559  0.3079  0.1301 -0.1253
  301POPC   GL1 4036   7.116   6.102   4.955  0.2140  0.1651  0.2553
  301POPC   GL2 4037   7.042   5.791   5.072  0.1542  0.0146 -0.1582
  301POPC   C1A 4038   7.255   6.296   5.348 -0.3095  0.0246 -0.1733
  301POPC   D2A 4039   7.411   6.081   5.770 -0.1331 -0.2195  0.1330
  301POPC   C3A 4040   7.281   6.255   6.184 -0.1222  0.1129  0.0817
  301POPC   C4A 4041   7.264   6.285   6.518  0.0751 -0.1465  0.1319
  301POPC   C1B 4042   7.095   5.751   5.480  0.2589 -0.2006 -0.3877
  301POPC   C2B 4043   7.300   5.548   5.836 -0.0333 -0.0512  0.2403
  301POPC   C3B 4044   7.481   5.403   6.133  0.0834 -0.2204  0.0810
  301POPC   C4B 4045   7.669   5.330   6.549 -0.0398  0.1685 -0.0582
  302W        W 4046   3.367   6.788   2.528 -0.0151 -0.0323  0.0700
  303W        W 4047   0.883   0.682   0.655 -0.2316 -0.1415 -0.2599
  304W        W 4048   7.353   5.714  11.513  0.1220 -0.2076  0.1096
  305W        W 4049   2.807   5.781   3.616 -0.2987  0.0070 -0.0791
  306W        W 4050   8.947   7.547  10.176  0.3002 -0.2062 -0.2326
  307W        W 4051   5.314   4.676   3.582  0.0226 -0.3613 -0.1445
  308W        W 4052   6.269   7.748   9.311 -0.0516 -0.0919 -0.1532
  309W        W 4053   0.797   5.927  10.111  0.2085  0.0896  0.0815
  310W        W 4054   7.950   6.516  10.452  0.0226  0.2316 -0.0275
  311W        W 4055   6.222   2.438   2.292 -0.0869  0.0522  0.0351
  312W        W 4056   6.682   2.576  11.076  0.2725 -0.1527 -0.3694
  313W        W 4057   1.949   7.839  12.977  0.1199 -0.0264  0.0538
  314W        W 4058   6.487   5.339   9.061 -0.1987 -0.2858  0.3533
  315W        W 4059   3.078   2.064   1.024  0.1455  0.0941  0.3312
  316W        W 4060   2.977   7.498   2.224  0.0539 -0.1991 -0.3202
  317W        W 4061   0.560   9.298   1.985 -0.1132  0.1513 -0.2808
  318W        W 4062   9.598   0.053   0.759 -0.1654 -0.0022  0.3335
  319W        W 4063   5.669   1.357   0.735 -0.0088 -0.0274  0.1548
  320W        W 4064   9.567   8.097   0.181 -0.0662  0.0731  0.3423
  321W        W 4065   8.503   2.586   0.207  0.0584  0.0860 -0.0579
  322W        W 4066   6.954   9.344  11.842 -0.0802  0.0775 -0.3157
  323W        W 4067   0.258   2.268   9.733  0.0435 -0.0431 -0.1439
  324W        W 4068   5.548   8.750   9.996 -0.2559 -0.1499 -0.1029
  325W        W 4069   9.676   8.231  12.541  0.0105  0.2782  0.0032
  326W        W 4070   1.986   5.628  12.416 -0.0551  0.2977 -0.0693
  327W        W 4071   9.273   2.237   3.720  0.1589  0.1738 -0.2019
  328W        W 4072   7.893   6.063   0.534  0.2081  0.1109  0.0252
  329W        W 4073   9.485   7.190  11.071  0.0997  0.0990  0.1416
  330W        W 4074   1.964   2.555   9.604  0.1921  0.0004 -0.1652
  331W        W 4075   0.052   0.157   9.616 -0.1635 -0.1613  0.0218
  332W        W 4076   9.538   7.573   8.170 -0.0464 -0.3385 -0.1201
  333W        W 4077   2.666   2.031   9.063 -0.1437  0.2220  0.2939
  334W        W 4078   4.994   5.258   8.656  0.0339  0.1412 -0.0767
  335W        W 4079   7.834   3.910   1.683  0.1226 -0.2025  0.0800
  336W        W 4080   5.224   9.271  12.676 -0.3356  0.1272  0.1616
  337W        W 4081   3.579   5.211   4.069  0.0531  0.0226 -0.3239
  338W        W 4082   5.961   4.214   1.881  0.1765  0.0366  0.1763
  339W        W 4083   1.775   2.995   4.302  0.0782 -0.0537  0.2288
  340W        W 4084   1.957   0.043   0.484 -0.3734 -0.0901 -0.0074
  341W        W 4085   8.865   5.094  11.988 -0.2744 -0.0727 -0.3386
  342W        W 4086   7.806   2.746   1.527 -0.1040 -0.0143  0.5454
  343W        W 4087   7.075   3.157  12.074  0.3048 -0.0686 -0.0387
  344W        W 4088   7.019   7.889   1.441  0.2306 -0.2216 -0.2052
  345W        W 4089   3.179   8.376  11.239 -0.0867  0.2394 -0.1459
  346W        W 4090   5.427   1.893  10.860  0.1622 -0.0640 -0.0027
  347W        W 4091   5.302   7.309   3.717 -0.0983 -0.3482  0.0034
  348W        W 4092   3.424   5.476   9.434  0.0051 -0.0496 -0.0340
  349W        W 4093   9.323   2.974   2.699  0.1098 -0.4394  0.3241
  350W        W 4094   0.224   6.915   0.696 -0.1355 -0.0815  0.1658
  351W        W 4095   0.031   8.534   9.094 -0.1278  0.0007 -0.1600
  352W        W 4096   7.490   4.917   9.534 -0.1648  0.3024 -0.1323
  353W        W 4097   9.683   2.083   9.847  0.2946 -0.0082  0.2913
  354W        W 4098   1.162   5.845   9.214  0.2028  0.0998 -0.1344
  355W        W 4099   5.049   2.775   2.435 -0.0565 -0.2992  0.0318
  356W        W 4100   4.089   0.199  11.594  0.0266 -0.2424  0.1028
  357W        W 4101   1.635   7.933   2.264  0.2510 -0.1622 -0.0846
  358W        W 4102   3.288   8.585   0.123 -0.0336  0.0300  0.1932
  359W        W 4103   4.831   6.839  10.870 -0.0461  0.1453  0.3986
  360W        W 4104   9.434   8.447  11.088 -0.0239 -0.0437  0.1824
  361W        W 4105   1.112   9.832  11.514  0.0849  0.0500  0.0021
  362W        W 4106   1.399   3.458  10.433 -0.2215 -0.1329 -0.1803
  363W        W 4107   9.704   1.535  12.376 -0.2523  0.3302 -0.0763
  364W        W 4108   3.365   7.591   1.416  0.2356 -0.0565 -0.4182
  365W        W 4109   6.905   5.086  12.280  0.0459  0.0466  0.3363
  366W        W 4110   7.766   7.707   9.426 -0.1869  0.2638  0.3432
  367W        W 4111   4.693   6.659  11.797  0.2407  0.2192 -0.1051
  368W        W 4112   5.881   2.830   3.248  0.0830  0.0542  0.1194
  369W        W 4113   3.448   4.355   0.121 -0.0775 -0.2161 -0.3055
  370W        W 4114   7.386   3.730   3.280  0.3364  0.0246 -0.2025
  371W        W 4115   9.676   9.140   9.837  0.1383  0.2736 -0.1182
  372W        W 4116   4.537   6.807   0.655 -0.0052  0.0432 -0.1709
  373W        W 4117   7.486   7.405   3.666  0.0458  0.1739  0.2934
  374W        W 4118   2.254   2.185   8.825  0.1434 -0.1313 -0.1835
  375W        W 4119   9.559   9.441  12.363  0.1927 -0.1996 -0.0586
  376W        W 4120   4.599   8.027  12.337 -0.1862 -0.0534  0.3156
  377W        W 4121   1.346   1.573   2.646 -0.0567 -0.0631  0.1916
  378W        W 4122   3.886   9.452   3.978 -0.0723  0.0618  0.3203
  379W        W 4123   9.395   9.347   0.665  0.0598  0.5203 -0.1211
  380W        W 4124   9.658   6.404  10.197  0.2538  0.3382  0.3047
  381W        W 4125   2.310   0.941   0.954  0.0547  0.1608 -0.2108
  382W        W 4126   7.450   2.604  12.377  0.5053 -0.2163  0.0154
  383W        W 4127   4.568   2.256   3.573  0.1267  0.0440  0.0391
  384W        W 4128   2.760   0.654   1.099  0.2914 -0.0773 -0.0278
  385W        W 4129   8.772   0.764  10.340  0.2271 -0.0940  0.2180
  386W        W 4130   3.482   2.905   2.776 -0.5362 -0.1530 -0.1353
  387W        W 4131   4.496   4.191   3.534 -0.2416 -0.2242 -0.2285
  388W        W 4132   1.938   9.889  11.922 -0.2224  0.0989 -0.0854
  389W        W 4133   3.425   1.448  10.442  0.2370  0.2096 -0.0461
  390W        W 4134   6.863   0.895   1.664 -0.2287 -0.0384  0.2368
  391W        W 4135   4.028   7.805  10.535 -0.0375  0.1065  0.0533
  392W        W 4136   6.129   0.657   2.797  0.2181  0.0439  0.1255
  393W        W 4137   6.907   9.754   2.779 -0.1035  0.2118 -0.0129
  394W        W 4138   0.807   9.411  11.969 -0.0352 -0.2111 -0.1768
  395W        W 4139   1.328   2.928   1.062 -0.1388 -0.3398  0.0968
  396W        W 4140   7.735   6.319   3.618 -0.0970  0.1279 -0.0994
  397W        W 4141   9.264   8.530   4.610  0.0570  0.5026 -0.0406
  398W        W 4142   6.260   1.020  12.520  0.0258 -0.0826 -0.2915
  399W        W 4143   3.757   2.777   3.916 -0.1644  0.1775  0.0270
  400W        W 4144   1.843   5.049  12.233  0.2436 -0.0581  0.3246
  401W        W 4145   7.154   8.044   2.073  0.2205  0.2650 -0.0012
  402W        W 4146   2.428   5.517  11.289  0.2516  0.3285 -0.0022
  403W        W 4147   7.505   1.117  12.460 -0.0582  0.0820  0.1602
  404W        W 4148   1.864   4.337  11.602 -0.0434  0.1105 -0.1028
  405W        W 4149   5.581   5.602   3.234  0.3555 -0.1813 -0.0229
  406W        W 4150   7.920   5.205  12.558  0.1307  0.0615  0.0534
  407W        W 4151   7.510   0.221   3.545 -0.0195 -0.0363  0.1006
  408W        W 4152   1.155   9.231  10.329 -0.0405 -0.0788  0.0740
  409W        W 4153   5.403   1.603   1.150  0.0393 -0.2188  0.4690
  410W        W 4154   9.451   8.365  10.110 -0.1372 -0.0133  0.4149
  411W        W 4155   2.202   7.389   0.060 -0.0188  0.2717 -0.1566
  412W        W 4156   9.042   3.939   1.228  0.0378 -0.1044  0.1678
  413W        W 4157   4.776   5.258   2.632 -0.0588  0.0898  0.1574
  414W        W 4158   1.650   3.462   1.582 -0.5077  0.0800  0.2909
  415W        W 4159   1.121   1.539   8.708  0.5273 -0.4309 -0.4013
  416W        W 4160   4.888   9.671   2.061  0.1429 -0.1754  0.0560
  417W        W 4161   2.472   5.169   2.974 -0.1295  0.0943 -0.1614
  418W        W 4162   1.273   8.544   2.351 -0.0968  0.3116 -0.1133
  419W        W 4163   9.121   5.930   1.644  0.3204  0.1712 -0.2025
  420W        W 4164   1.739   7.180   2.884 -0.0035 -0.1570  0.2442
  421W        W 4165   9.345   1.488   1.136 -0.1568 -0.0777 -0.0978
  422W        W 4166   7.272   4.807   2.454  0.3006  0.0358  0.1244
  423W        W 4167   8.799   3.347  11.809  0.1605  0.0012  0.1233
  424W        W 4168   1.915   3.967   2.822  0.3293 -0.0818  0.1579
  425W        W 4169   9.355   5.701   9.999  0.1038  0.1409  0.0655
  426W        W 4170   2.826   0.272  11.515 -0.3347  0.3596  0.1574
  427W        W 4171   3.097   8.096   8.705  0.1190 -0.0527  0.1067
  428W        W 4172   0.784   0.776  11.451  0.2110  0.0702  0.0422
  429W        W 4173   3.515   2.387  12.821  0.0759  0.2668  0.0820
  430W        W 4174   7.097   2.546   2.925  0.0113 -0.0380  0.0803
  431W        W 4175   9.772   4.946   0.368  0.2054  0.2897  0.0958
  432W        W 4176   4.900   7.750  10.816 -0.0646  0.0588  0.2954
  433W        W 4177   8.106   5.307   3.683 -0.0022 -0.1592  0.2018
  434W        W 4178   9.795   2.368  12.285 -0.1307 -0.0185 -0.0315
  435W        W 4179   5.571   3.343   9.784 -0.0170  0.1254 -0.1951
  436W        W 4180   3.474   7.543  12.714  0.4504 -0.0324  0.1189
  437W        W 4181   0.324   5.707  10.081 -0.1142 -0.0851  0.0309
  438W        W 4182   5.381   5.921   3.848  0.0598 -0.2997  0.0495
  439W        W 4183   6.543   8.052   0.422 -0.1468 -0.2261  0.1612
  440W        W 4184   8.214   7.453  12.619  0.2734 -0.1458 -0.1141
  441W        W 4185   9.135   3.704  11.575 -0.1089 -0.0927 -0.2453
  442W        W 4186   0.698   7.487  12.513  0.1294  0.1723 -0.2499
  443W        W 4187   2.280   2.409   3.105 -0.0195 -0.1242  0.1362
  444W        W 4188   3.978   5.828   0.072 -0.2087 -0.0894 -0.1055
  445W        W 4189   2.394   4.092   2.741  0.0568  0.2780  0.1271
  446W        W 4190   1.974   2.448   3.836 -0.1760  0.1706  0.2543
  447W        W 4191   7.063   1.229   3.857 -0.1679  0.1288 -0.0537
  448W        W 4192   9.860   3.049   4.237 -0.1221 -0.2179  0.1282
  449W        W 4193   3.306   4.164  10.555  0.0797 -0.1715  0.0187
  450W        W 4194   4.982   4.601   3.967 -0.2228 -0.1410 -0.1009
  451W        W 4195   2.758   8.612   8.877  0.0125 -0.2246  0.0327
  452W        W 4196   6.003   5.608  11.344 -0.0075 -0.0910 -0.0037
  453W        W 4197   6.596   2.986   2.166  0.0747  0.0158  0.0678
  454W        W 4198   3.896   5.664   1.066  0.1754  0.1645 -0.0161
  455W        W 4199   8.215   4.716  10.062 -0.0614  0.0145 -0.3068
  456W        W 4200   9.763   7.527   3.865 -0.0701 -0.1065 -0.1643
  457W        W 4201   4.851   0.565   2.648 -0.1387  0.1667 -0.6642
  458W        W 4202   4.313   2.907  12.377  0.0778  0.4022  0.4101
  459W        W 4203   6.129   8.174   2.234 -0.1323  0.0668  0.0912
  460W        W 4204   4.219   6.260  12.943 -0.1111  0.3661  0.2759
  461W        W 4205   4.458   8.762   2.907  0.1363 -0.2460 -0.1014
  462W        W 4206   1.158   8.882   1.261  0.2333 -0.1373  0.1310
  463W        W 4207   4.494   3.143   9.947  0.4182 -0.0340 -0.2927
  464W        W 4208   1.826   8.929   3.787  0.1094  0.0257  0.0470
  465W        W 4209   5.764   9.467  12.407  0.1212 -0.0600 -0.1952
  466W        W 4210   0.341   9.395  11.140 -0.2649 -0.1450 -0.3401
  467W        W 4211   4.072   6.991   1.867 -0.0889 -0.1663  0.1712
  468W        W 4212   9.364   5.182  11.370 -0.0234 -0.0385  0.1716
  469W        W 4213   9.103   6.969   9.450  0.0716  0.1482  0.0687
  470W        W 4214   4.076   4.481   9.492  0.0978 -0.0218 -0.0638
  471W        W 4215   9.779   7.748  11.612  0.0645 -0.1486  0.0991
  472W        W 4216   8.136   7.839  11.892  0.0139  0.0222 -0.1598
  473W        W 4217   5.847   3.687  12.450 -0.4069 -0.1717 -0.2395
  474W        W 4218   9.075   7.713   0.751  0.0402  0.0068 -0.0439
  475W        W 4219   7.702   8.899   2.067 -0.1257 -0.0679 -0.0416
  476W        W 4220   4.461   1.138  12.124  0.0995  0.1325  0.2162
  477W        W 4221   2.722   9.321   0.943  0.0315  0.1264  0.2757
  478W        W 4222   8.093   0.188   8.948  0.0454  0.0578  0.0661
  479W        W 4223   1.786   8.895   9.957  0.0857 -0.2458  0.0338
  480W        W 4224   5.253   2.461  12.307  0.2462  0.1878 -0.1433
  481W        W 4225   1.939   8.461   9.163 -0.1093 -0.1221 -0.1399
  482W        W 4226   6.997   5.485  11.379 -0.0221 -0.2899  0.0952
  483W        W 4227   2.085   1.762  12.093 -0.0735 -0.0180  0.3623
  484W        W 4228   3.359   2.659  11.340 -0.1140  0.2489 -0.3059
  485W        W 4229   8.705   3.071   1.475  0.0976 -0.3186 -0.0408
  486W        W 4230   2.457   7.767   2.395  0.0821  0.1900 -0.1125
  487W        W 4231   7.208   2.182   9.459 -0.0885 -0.0393  0.1265
  488W        W 4232   8.841   4.037   0.065 -0.1342  0.1816  0.0789
  489W        W 4233   9.570   5.844   0.372 -0.0800  0.2876 -0.1050
  490W        W 4234   2.338   0.132   4.323 -0.4910 -0.1597 -0.0564
  491W        W 4235   2.293   6.672   0.547  0.1293 -0.0990 -0.1374
  492W        W 4236   8.279   5.586  11.809  0.0509  0.1374  0.2969
  493W        W 4237   8.736   3.081   3.972 -0.2292  0.0064  0.3108
  494W        W 4238   0.649   1.644   4.717  0.1983  0.0006 -0.0205
  495W        W 4239   1.150   1.577  11.977 -0.1111 -0.1846 -0.1723
  496W        W 4240   6.326   8.396  11.816  0.0163  0.0944  0.1499
  497W        W 4241   3.833   6.444  10.546 -0.2229 -0.1190  0.0995
  498W        W 4242   7.622   6.694  10.820 -0.2505  0.2547 -0.0742
  499W        W 4243   4.341   0.505  10.677  0.0390  0.0640  0.1523
  500W        W 4244   1.733   0.897   1.643  0.0745  0.0424 -0.0744
  501W        W 4245   4.181   1.300   2.118 -0.0535  0.1246 -0.1138
  502W        W 4246   7.681   9.725   3.837 -0.2281 -0.0422  0.0139
  503W        W 4247   3.909   9.529   1.355 -0.1694  0.1727  0.2444
  504W        W 4248   5.257   4.959   8.947 -0.3666 -0.3817  0.0966
  505W        W 4249   0.151   4.185   4.528  0.3639  0.0818 -0.0069
  506W        W 4250   0.119   3.230   8.871  0.0963 -0.0959  0.3632
  507W        W 4251   2.227   4.910  10.446 -0.0884 -0.2022 -0.2859
  508W        W 4252   6.081   7.559   1.248 -0.2665  0.0136  0.0084
  509W        W 4253   8.193   2.203   9.369  0.1425  0.2034  0.0311
  510W        W 4254   2.656   6.677   1.984  0.0495  0.0161 -0.1860
  511W        W 4255   2.015   4.351  12.829 -0.1758 -0.3335  0.2332
  512W        W 4256   3.560   6.725   0.022 -0.0178  0.1672 -0.0683
  513W        W 4257   0.743   5.226   0.776 -0.2202 -0.1023 -0.2469
  514W        W 4258   3.042   5.017   2.160 -0.0998 -0.2691  0.0698
  515W        W 4259   4.996   8.620  11.842  0.2226 -0.2087 -0.1942
  516W        W 4260   6.624   0.349   0.964 -0.0042 -0.2586 -0.0439
  517W        W 4261   1.243   1.100  10.844 -0.0651 -0.1247 -0.0911
  518W        W 4262   8.358   6.586   9.189 -0.0760 -0.1381  0.0839
  519W        W 4263   7.044   9.798  10.695 -0.0886  0.4318 -0.1651
  520W        W 4264   9.817   5.857  12.361  0.0217 -0.4245  0.1835
  521W        W 4265   0.263   7.254  12.409 -0.3000  0.1221 -0.1990
  522W        W 4266   7.808   0.813   9.210  0.0640 -0.1352 -0.1219
  523W        W 4267   4.002   8.993   2.209  0.0251 -0.2261 -0.1919
  524W        W 4268   2.003   1.775  10.867  0.4177 -0.1270 -0.0823
  525W        W 4269   9.690   2.309   0.996  0.3732 -0.0328  0.1980
  526W        W 4270   4.929   5.623   8.342 -0.2331  0.0158  0.1673
  527W        W 4271   7.341   7.533   8.699 -0.1190 -0.1613 -0.1345
  528W        W 4272   3.220   3.961  11.050 -0.1040  0.1606 -0.0421
  529W        W 4273   8.171   8.874   1.031 -0.4126 -0.2001  0.0574
  530W        W 4274   0.623   7.935  12.684  0.2402 -0.3672 -0.1023
  531W        W 4275   1.567   2.780   8.742 -0.1051  0.0450 -0.0924
  532W        W 4276   3.241   9.668   9.735  0.0070 -0.0770  0.0858
  533W        W 4277   3.824   5.304   9.665 -0.1704 -0.3040  0.4344
  534W        W 4278   4.896   6.271  12.294  0.0192  0.2260 -0.1119
  535W        W 4279   4.383   4.052   2.130  0.2131 -0.1441 -0.0509
  536W        W 4280   6.188   3.237  11.143  0.1860  0.1282  0.1714
  537W        W 4281   4.891   8.726   1.021 -0.1077 -0.3595  0.2033
  538W        W 4282   0.932   4.310  10.731  0.3846 -0.1416 -0.0062
  539W        W 4283   7.756   2.150   1.191 -0.1244 -0.0430  0.1326
  540W        W 4284   2.808   2.544   3.725 -0.3205 -0.0132  0.1469
  541W        W 4285   4.887   3.665   3.589  0.1032  0.2632  0.0539
  542W        W 4286   4.503   4.559   9.916  0.3482 -0.1134  0.3159
  543W        W 4287   9.852   9.192   1.422  0.1634 -0.1552  0.1140
  544W        W 4288   4.083   0.395   0.806 -0.0166  0.2679  0.2368
  545W        W 4289   6.914   9.477   9.622 -0.2059  0.0902  0.1648
  546W        W 4290   6.654   9.138   2.312 -0.2230  0.1891  0.0338
  547W        W 4291   8.428   1.704   3.880  0.0371 -0.0235  0.1020
  548W        W 4292   2.335   2.358   4.223  0.2080 -0.0493 -0.0552
  549W        W 4293   6.629   3.100   1.663 -0.0033 -0.1785  0.2408
  550W        W 4294   7.243   0.917  10.684  0.1714 -0.2986  0.0030
  551W        W 4295   6.063   2.076   9.441 -0.0132  0.0559  0.0628
  552W        W 4296   4.856   0.138   0.269  0.0547  0.0105 -0.0120
  553W        W 4297   2.073   1.146   2.022 -0.1531 -0.3054  0.1208
  554W        W 4298   3.341   1.344   3.130 -0.2026 -0.0156 -0.1576
  555W        W 4299   3.160   3.348   9.656  0.2678 -0.3243 -0.0303
  556W        W 4300   8.069   0.593   1.566  0.3610 -0.1948  0.0133
  557W        W 4301   4.758   6.611   3.331 -0.3118  0.5053  0.2790
  558W        W 4302   9.874   6.566   0.932  0.0520 -0.0778  0.0409
  559W        W 4303   8.776   6.108   2.673 -0.0334  0.0428  0.1979
  560W        W 4304   7.729   8.305   2.152 -0.1869  0.2562 -0.0887
  561W        W 4305   9.305   4.787  12.828 -0.1852 -0.1941  0.0120
  562W        W 4306   5.664   8.383   1.511  0.1190 -0.0118  0.0915
  563W        W 4307   4.884   1.336  11.311  0.1208 -0.0149 -0.0852
  564W        W 4308   1.503   6.227   0.906 -0.1182 -0.0079  0.2143
  565W        W 4309   7.494   6.815  12.266 -0.1114  0.2436  0.0217
  566W        W 4310   3.902   0.139   1.219  0.0143 -0.0264 -0.0218
  567W        W 4311   0.311   2.786   3.860 -0.0159  0.2555  0.1703
  568W        W 4312   2.006   3.988   0.196  0.3355 -0.0023 -0.2460
  569W        W 4313   5.388   1.438  11.159  0.1182 -0.4231 -0.2773
  570W        W 4314   9.808   3.309   8.471  0.4472  0.2916 -0.0427
  571W        W 4315   5.509   6.575  10.106  0.0844 -0.0231 -0.2874
  572W        W 4316   2.221   1.564   3.696  0.0414 -0.0360 -0.3331
  573W        W 4317   5.675   3.950   2.244  0.1203 -0.1668  0.2028
  574W        W 4318   8.394   3.351   1.993  0.1929  0.0564  0.1448
  575W        W 4319   0.871   4.373  12.678  0.1496 -0.0919 -0.1159
  576W        W 4320   4.830   0.497  11.097  0.1102  0.1531  0.3074
  577W        W 4321   5.109   1.311   2.954  0.6210  0.1332 -0.1037
  578W        W 4322   4.521   7.982   3.394 -0.1508  0.2107 -0.0473
  579W        W 4323   1.586   2.770  12.773  0.0692  0.0659  0.2291
  580W        W 4324   8.999   5.836   9.621 -0.2828  0.2025 -0.1781
  581W        W 4325   1.162   3.074   9.402  0.1919 -0.2362  0.1293
  582W        W 4326   7.743   0.991   3.209  0.0461  0.0525  0.3440
  583W        W 4327   1.438   1.738   1.174 -0.1226  0.2215 -0.0020
  584W        W 4328   6.405   5.631   2.887 -0.2910  0.1199 -0.0619
  585W        W 4329   4.190   4.086   2.659 -0.2138 -0.1198  0.3401
  586W        W 4330   5.188   5.323   2.019 -0.2407  0.0709 -0.1744
  587W        W 4331   8.967   2.647  10.527 -0.0543  0.0246 -0.3804
  588W        W 4332   2.074   8.116   2.488 -0.0034 -0.1123  0.0886
  589W        W 4333   5.511   8.145   9.709  0.0081  0.0266  0.0917
  590W        W 4334   4.416   9.605   1.029  0.0705 -0.0931  0.3557
  591W        W 4335   0.088   0.061   1.745 -0.1883  0.1016 -0.0711
  592W        W 4336   0.735   2.288   1.506  0.0989  0.3854  0.1091
  593W        W 4337   5.943   7.226  11.248 -0.0706  0.3121 -0.6160
  594W        W 4338   6.395   4.346  12.046  0.0625 -0.2380  0.0543
  595W        W 4339   8.810   4.346   1.010 -0.2985 -0.2102 -0.1541
  596W        W 4340   1.374   5.304  12.332 -0.1634  0.1675  0.0845
  597W        W 4341   6.607   8.140  10.397  0.0424  0.2523  0.1328
  598W        W 4342   0.098   0.291   0.387 -0.0598  0.2827  0.1038
  599W        W 4343   2.359   3.999   9.432  0.0780 -0.0354  0.5105
  600W        W 4344   1.724   1.691   3.669 -0.0832 -0.1864  0.1498
  601W        W 4345   9.174   1.554  10.304 -0.1091  0.0320 -0.0995
  602W        W 4346   4.614   4.571   9.303  0.1071  0.0467 -0.2544
  603W        W 4347   6.431   5.824   8.917 -0.0639 -0.1770  0.0213
  604W        W 4348   8.753   3.043   0.498 -0.0494  0.1308 -0.1542
  605W        W 4349   5.942   0.306  12.076  0.2206 -0.2013 -0.0538
  606W        W 4350   9.073   8.893   4.350 -0.0376  0.1005  0.0539
  607W        W 4351   8.673   4.624  11.863  0.0142  0.2632 -0.0982
  608W        W 4352   1.558   7.818   3.733 -0.3873 -0.1124  0.2059
  609W        W 4353   7.918   6.356   9.599  0.2120 -0.0845 -0.0702
  610W        W 4354   7.370   1.995  11.029  0.0988  0.2583  0.0783
  611W        W 4355   3.159   8.461   9.409  0.1108 -0.2377  0.0027
  612W        W 4356   7.305   8.461  10.743  0.1460 -0.3738 -0.1688
  613W        W 4357   7.042   6.953   1.608  0.0752 -0.1323  0.1833
  614W        W 4358   0.990   1.639   5.596 -0.1466 -0.3309  0.2585
  615W        W 4359   7.658   7.366  10.561  0.0558 -0.1800 -0.3921
  616W        W 4360   5.534   3.621   1.391  0.0756 -0.2755 -0.0478
  617W        W 4361   3.581   3.058   3.412  0.1874  0.0185 -0.2002
  618W        W 4362   2.846   2.274  10.531 -0.1934 -0.1646 -0.0722
  619W        W 4363   9.586   7.887  12.122 -0.0665 -0.1812 -0.2031
  620W        W 4364   7.147   8.880   3.800  0.2911  0.0416 -0.0866
  621W        W 4365   3.756   5.810   3.127  0.0514 -0.0225  0.0412
  622W        W 4366   5.052   3.873   3.135 -0.3116 -0.1121 -0.1184
  623W        W 4367   6.452   2.127   3.632 -0.0079  0.0697  0.1798
  624W        W 4368   1.188   2.665  11.695  0.1182 -0.0018 -0.1254
  625W        W 4369   8.350   1.747   1.016  0.0335  0.0131  0.1016
  626W        W 4370   6.639   3.470  10.805  0.1527 -0.1526  0.0831
  627W        W 4371   1.134   5.680   1.689 -0.2394 -0.0013 -0.0092
  628W        W 4372   4.748   4.903   8.960 -0.0179 -0.2818 -0.1906
  629W        W 4373   3.886   8.149  10.046 -0.2585 -0.1884 -0.0062
  630W        W 4374   4.797   1.614  10.104  0.0900 -0.1376 -0.1223
  631W        W 4375   3.654   6.378  11.669 -0.3328  0.0151  0.2342
  632W        W 4376   2.828   3.937  12.626 -0.2049 -0.5184 -0.0179
  633W        W 4377   4.976   4.092  10.122  0.3438  0.1263  0.0893
  634W        W 4378   2.678   6.053  12.157  0.0577 -0.0872  0.1498
  635W        W 4379   8.448   8.776   0.035  0.2610 -0.3460 -0.0870
  636W        W 4380   6.688   6.891   3.636 -0.1459  0.0384  0.0813
  637W        W 4381   1.053   4.344  12.200 -0.0114 -0.0844 -0.2475
  638W        W 4382   0.982   7.221   9.502  0.0478  0.0419  0.1915
  639W        W 4383   9.527   6.589   3.113  0.1523  0.1915 -0.2627
  640W        W 4384   8.845   0.056  12.508 -0.1487  0.2614 -0.3294
  641W        W 4385   4.670   6.889   9.857 -0.1837 -0.1414 -0.2808
  642W        W 4386   9.483   5.809   9.348 -0.0579  0.0321  0.2724
  643W        W 4387   7.668   6.339   1.340 -0.4751 -0.3078  0.0090
  644W        W 4388   4.718   0.561   2.204  0.2123 -0.0639 -0.0556
  645W        W 4389   1.493   9.470   0.063  0.1472 -0.3039 -0.1954
  646W        W 4390   2.120   3.831   1.037 -0.0014 -0.2355  0.1425
  647W        W 4391   9.873   1.838   1.619  0.0445 -0.0826 -0.0546
  648W        W 4392   9.168   8.269   3.390  0.3498  0.1143  0.3720
  649W        W 4393   8.754   7.448   8.763  0.2031  0.1057 -0.1632
  650W        W 4394   9.178   5.870  12.988 -0.1674  0.1667  0.2554
  651W        W 4395   6.378   6.432   3.150 -0.1941  0.1469  0.1310
  652W        W 4396   5.248   5.271   0.506 -0.0407 -0.0792 -0.0478
  653W        W 4397   7.794   9.691   2.031 -0.2470  0.1846  0.0714
  654W        W 4398   7.305   9.234   9.348 -0.0972  0.3063 -0.0440
  655W        W 4399   6.491   5.142  11.316 -0.1653 -0.1251 -0.0587
  656W        W 4400   5.208   4.586   4.505  0.1174 -0.0960 -0.3679
  657W        W 4401   9.161   3.758   2.670 -0.2158  0.0417 -0.0845
  658W        W 4402   0.286   5.887   1.699 -0.2736  0.5319  0.1569
  659W        W 4403   5.592   0.399  12.788  0.1135 -0.0934 -0.3548
  660W        W 4404   0.199   9.211   0.003  0.4703 -0.1504  0.2759
  661W        W 4405   9.051   3.823  10.563 -0.1629  0.1326 -0.0117
  662W        W 4406   6.041   4.662  11.920  0.0009 -0.0503 -0.2809
  663W        W 4407   2.335   1.538   2.858  0.1067 -0.2833 -0.0331
  664W        W 4408   3.273   2.099  11.223  0.0016  0.2868 -0.0441
  665W        W 4409   3.467   9.271   3.149  0.2317 -0.1989 -0.2049
  666W        W 4410   3.155   0.802   9.822  0.0862  0.1206 -0.4685
  667W        W 4411   5.361   6.493   2.650 -0.1822 -0.3097  0.0515
  668W        W 4412   3.760   9.578   2.942  0.0492  0.1033  0.0809
  669W        W 4413   1.020   0.829  12.555 -0.1515 -0.0612  0.3440
  670W        W 4414   8.709   7.649   4.871 -0.1433  0.0021  0.1705
  671W        W 4415   5.570   6.722  12.986  0.0719  0.0302  0.0116
  672W        W 4416   5.611   4.140   8.361  0.0196 -0.0448 -0.0442
  673W        W 4417   7.269   5.126   0.420 -0.1033  0.0392  0.2382
  674W        W 4418   3.941   2.710   9.184 -0.1013  0.1133 -0.4382
  675W        W 4419   0.090   2.019   0.653  0.1422  0.1354 -0.2203
  676W        W 4420   8.756   0.970  11.628 -0.2873  0.0178  0.6227
  677W        W 4421   6.831   2.180   2.822 -0.1484 -0.1127  0.0497
  678W        W 4422   2.201   7.989   9.241  0.1977 -0.2590 -0.3396
  679W        W 4423   0.283   0.194   2.962 -0.1763  0.0950 -0.1722
  680W        W 4424   9.472   3.374  11.694  0.1762  0.1356 -0.2812
  681W        W 4425   3.477   4.957   0.305 -0.2137  0.0439 -0.0628
  682W        W 4426   8.765   5.611   1.476 -0.1244  0.0708 -0.1241
  683W        W 4427   0.333   0.395   9.258 -0.2151  0.0598  0.0914
  684W        W 4428   5.308   7.704   1.611  0.0236  0.1805 -0.1303
  685W        W 4429   1.747   5.000  10.296 -0.0019 -0.1687  0.2889
  686W        W 4430   9.485   3.826  11.944 -0.1417  0.1710  0.1524
  687W        W 4431   0.744   1.403   9.174 -0.2657 -0.0619 -0.2654
  688W        W 4432   6.559   4.198   3.740 -0.3054  0.3544  0.2558
  689W        W 4433   4.700   8.780  12.897  0.1566  0.0670 -0.0051
  690W        W 4434   6.002   9.237   7.390 -0.0910 -0.3345 -0.2976
  691W        W 4435   3.328   1.993   2.104  0.1588 -0.0948  0.0616
  692W        W 4436   6.482   6.143   0.887  0.2584 -0.0398  0.1465
  693W        W 4437   7.696   3.526   4.071  0.2824 -0.1121 -0.1938
  694W        W 4438   9.394   4.791   1.562  0.3293 -0.1654 -0.0275
  695W        W 4439   2.656   0.265   2.679  0.2358  0.1627 -0.1365
  696W        W 4440   7.603   6.924   1.055 -0.2561  0.1144  0.2392
  697W        W 4441   3.768   5.727  11.216  0.2197 -0.1981  0.0479
  698W        W 4442   9.034   6.971   8.937 -0.1423 -0.2208  0.0488
  699W        W 4443   2.743   9.122   4.057  0.0993 -0.1347  0.1706
  700W        W 4444   4.793   7.091  10.314  0.2292 -0.0875  0.0972
  701W        W 4445   9.482   6.800  11.395  0.0607  0.1991 -0.2738
  702W        W 4446   9.095   3.245   9.802  0.0116  0.0604  0.0585
  703W        W 4447   9.376   2.907   4.193 -0.0994 -0.0060 -0.1621
  704W        W 4448   9.432   0.561   8.914 -0.3450 -0.0559  0.0661
  705W        W 4449   5.653   0.130   0.991 -0.1296 -0.2724  0.2790
  706W        W 4450   3.301   7.378   9.679 -0.1186 -0.1730 -0.0625
  707W        W 4451   4.702   2.581  12.212 -0.3227  0.3327  0.1564
  708W        W 4452   0.163   6.700  10.016  0.0808 -0.1571  0.0027
  709W        W 4453   0.049   4.902   2.285 -0.1724 -0.0536 -0.1845
  710W        W 4454   2.364   3.799  11.940 -0.0225  0.3481  0.1134
  711W        W 4455   5.646   1.335  10.733  0.2940  0.5364  0.0874
  712W        W 4456   3.449   6.080   9.317  0.0106 -0.0791  0.1202
  713W        W 4457   5.256   5.742   0.297  0.1969 -0.1997 -0.1177
  714W        W 4458   0.642   8.175   3.877  0.2051  0.0487  0.3736
  715W        W 4459   9.706   6.252   0.613  0.0029  0.0622  0.3174
  716W        W 4460   4.109   8.487  11.241 -0.0354  0.1174 -0.1217
  717W        W 4461   1.723   1.710   8.136  0.1623  0.2667 -0.3219
  718W        W 4462   4.701   8.955   0.372  0.3820 -0.2407  0.1237
  719W        W 4463   2.260   1.305   9.016  0.1704  0.4707  0.0191
  720W        W 4464   1.470   9.535  11.208  0.2739 -0.1754  0.1398
  721W        W 4465   7.230   5.096   1.846  0.3005 -0.3543  0.0864
  722W        W 4466   3.668   6.802   3.397 -0.3247 -0.3654 -0.0142
  723W        W 4467   5.650   7.890   7.983  0.0598 -0.1439  0.2080
  724W        W 4468   9.515   8.296   2.966 -0.4052  0.4337 -0.0535
  725W        W 4469   7.271   3.990  12.418  0.0774  0.1766  0.3640
  726W        W 4470   8.161   7.992   9.120 -0.0378 -0.1719  0.0060
  727W        W 4471   6.357   5.732   1.117  0.1972  0.0835 -0.0821
  728W        W 4472   3.165   3.072   3.653  0.2227  0.1306 -0.1695
  729W        W 4473   7.679   5.400   2.934  0.1257  0.0123  0.0939
  730W        W 4474   9.014   3.144  10.260  0.0520 -0.0539 -0.3603
  731W        W 4475   9.424   6.806   1.802 -0.0175  0.2136 -0.1940
  732W        W 4476   8.867   3.084   1.968 -0.0180  0.1249 -0.0588
  733W        W 4477   8.741   4.119   1.559  0.2098 -0.1902 -0.1990
  734W        W 4478   7.936   2.488   1.972  0.1974  0.1316 -0.0080
  735W        W 4479   6.955   0.180   7.074 -0.0948  0.0969 -0.0708
  736W        W 4480   2.644   9.404   8.286 -0.2890  0.3113 -0.5116
  737W        W 4481   0.268   4.468   1.521  0.3682 -0.1453 -0.3507
  738W        W 4482   8.058   3.729  11.567  0.0510 -0.0301  0.0361
  739W        W 4483   6.794   6.772   1.954  0.3544  0.2856  0.0631
  740W        W 4484   5.605   0.393  10.729 -0.3440  0.2874  0.2887
  741W        W 4485   0.536   7.871   0.676  0.0385 -0.3664  0.2229
  742W        W 4486   7.833   5.205   0.545 -0.1212  0.1755 -0.2184
  743W        W 4487   1.703   7.501   4.127 -0.3119 -0.1026 -0.0893
  744W        W 4488   9.133   7.183   1.710  0.2731  0.1715  0.0274
  745W        W 4489   6.456   0.907  10.353 -0.0895  0.0950 -0.2043
  746W        W 4490   0.983   8.352   5.293  0.3138 -0.2650  0.1630
  747W        W 4491   0.454   4.061  12.466  0.1313  0.1062 -0.0816
  748W        W 4492   1.552   5.697   5.094 -0.0375 -0.2472 -0.3925
  749W        W 4493   8.345   5.477  12.677 -0.0702  0.3545  0.1105
  750W        W 4494   3.470   7.242  10.121 -0.0994  0.4161 -0.3254
  751W        W 4495   0.191   1.718  10.622  0.1393  0.2466  0.0005
  752W        W 4496   1.180   6.647  11.588  0.2594 -0.1435  0.3170
  753W        W 4497   7.542   8.657  11.289 -0.1375 -0.0305  0.3695
  754W        W 4498   7.426   0.769  11.525 -0.0306  0.1890 -0.0208
  755W        W 4499   3.538   8.800   9.180 -0.1063  0.0712 -0.0036
  756W        W 4500   2.965   4.155   8.582  0.2493  0.3968 -0.1413
  757W        W 4501   1.583   2.703   3.937  0.0505 -0.0503  0.0135
  758W        W 4502   6.652   4.276   9.582 -0.0549 -0.0220  0.2756
  759W        W 4503   6.852   8.463   2.128 -0.3048  0.3437  0.2209
  760W        W 4504   3.549   0.556   1.256  0.2090 -0.1770  0.1821
  761W        W 4505   2.199   2.547   8.086 -0.0725  0.0021 -0.1479
  762W        W 4506   0.271   4.967   0.634 -0.0872 -0.0290  0.2804
  763W        W 4507   4.332   7.299   9.909  0.0223 -0.2021 -0.0977
  764W        W 4508   4.415   7.576   9.100  0.1475 -0.0004 -0.2710
  765W        W 4509   9.067   3.525   2.164  0.0077 -0.3414  0.2965
  766W        W 4510   8.287   3.645   9.358 -0.1451 -0.1049  0.1969
  767W        W 4511   3.468   7.139   3.097  0.1902 -0.5497  0.3132
  768W        W 4512   7.674   9.251   1.772  0.0423 -0.1927  0.1710
  769W        W 4513   1.617   1.934  12.262 -0.0240 -0.1570  0.1229
  770W        W 4514   1.335   7.529   2.989  0.1078  0.1251 -0.2919
  771W        W 4515   9.048   1.684  12.351 -0.1273 -0.0631 -0.1181
  772W        W 4516   0.325   5.235   3.033  0.4366 -0.0656 -0.1385
  773W        W 4517   6.594   3.356   0.715 -0.1285 -0.1198 -0.0401
  774W        W 4518   1.096   7.131   2.647  0.5372 -0.0664  0.0030
  775W        W 4519   4.469   6.197  11.970 -0.3006  0.1639 -0.0734
  776W        W 4520   8.535   7.157   3.640 -0.0296 -0.0630 -0.0162
  777W        W 4521   1.741   1.425   1.783 -0.0606 -0.1627  0.1451
  778W        W 4522   5.187   1.557   3.403  0.1203 -0.1426  0.0666
  779W        W 4523   8.026   9.364   0.386 -0.0586 -0.0496  0.4121
  780W        W 4524   4.563   4.100  11.919 -0.2032  0.0578  0.0634
  781W        W 4525   3.188   8.052   2.131  0.3018 -0.2313 -0.5261
  782W        W 4526   0.288   9.781   0.885 -0.2487 -0.1184  0.0290
  783W        W 4527   9.747   7.431  10.540  0.0109  0.4182 -0.0342
  784W        W 4528   7.458   3.257  11.750 -0.0964  0.1374 -0.1344
  785W        W 4529   6.834   1.169  12.319  0.1672 -0.1272 -0.2848
  786W        W 4530   9.424   4.222   1.915 -0.1974  0.2791 -0.3307
  787W        W 4531   8.060   8.771  10.274 -0.5893 -0.2091  0.2013
  788W        W 4532   1.774   2.672  12.161 -0.2399  0.1810  0.0126
  789W        W 4533   6.223   7.666   0.327 -0.0903  0.3175  0.0479
  790W        W 4534   2.014   3.878   1.512 -0.0677  0.0584  0.0373
  791W        W 4535   3.775   7.122  12.518  0.0836 -0.1201  0.0395
  792W        W 4536   6.866   2.305  12.797 -0.0361  0.2539  0.1170
  793W        W 4537   8.736   7.216  12.005  0.2375 -0.0822 -0.1386
  794W        W 4538   0.983   3.781   4.760  0.1611 -0.1486 -0.0159
  795W        W 4539   6.325   8.912   1.463 -0.1994 -0.1332  0.0809
  796W        W 4540   2.355   9.721   2.721 -0.2013 -0.2954  0.1905
  797W        W 4541   6.649   1.633  11.061  0.4487 -0.0287  0.1913
  798W        W 4542   3.056   7.544   9.190  0.1043 -0.1835  0.0794
  799W        W 4543   8.639   4.896   4.418 -0.1075  0.0359 -0.0804
  800W        W 4544   8.709   9.499   3.686 -0.1436 -0.2783  0.4388
  801W        W 4545   0.564   0.311   0.859  0.0335  0.0785 -0.3328
  802W        W 4546   3.089   7.344   3.819 -0.1054 -0.0222  0.1979
  803W        W 4547   5.143   1.827   1.514  0.1512 -0.4368  0.2345
  804W        W 4548   1.052   8.686   1.741  0.0927 -0.1471  0.1789
  805W        W 4549   3.066   7.122   8.934 -0.3754  0.2744  0.0116
  806W        W 4550   6.112   5.586   2.024 -0.1044 -0.1813 -0.2796
  807W        W 4551   8.545   8.632   1.391 -0.0977 -0.0973 -0.1967
  808W        W 4552   8.094   3.714   2.635 -0.3696 -0.3027 -0.0089
  809W        W 4553   4.034   7.315   8.162 -0.2399 -0.2386 -0.1181
  810W        W 4554   6.077   1.441  10.339 -0.4982 -0.2033  0.0271
  811W        W 4555   1.177   6.679  12.120 -0.0925  0.2626  0.0985
  812W        W 4556   1.248   6.152   1.785 -0.0429  0.1158 -0.0337
  813W        W 4557   1.880   8.802   2.311  0.0430  0.1146  0.0547
  814W        W 4558   8.667   3.839   0.753  0.1068  0.2420  0.2576
  815W        W 4559   2.589   1.196   9.361  0.0603 -0.1354 -0.1186
  816W        W 4560   7.364   6.600   4.268 -0.0563 -0.0314  0.0812
  817W        W 4561   7.041   2.296  10.711 -0.0046 -0.1073 -0.0216
  818W        W 4562   3.486   2.994   9.088 -0.1616  0.1252 -0.0104
  819W        W 4563   0.887   9.683  12.439  0.0106  0.1020 -0.1907
  820W        W 4564   8.968   1.855   9.461 -0.2530  0.1253  0.1063
  821W        W 4565   0.272   4.589   4.944  0.0827  0.2856  0.1817
  822W        W 4566   8.495   8.906  10.545 -0.5858  0.3016 -0.0670
  823W        W 4567   9.248   8.521  12.456  0.0781 -0.1552  0.4254
  824W        W 4568   3.090   3.581   0.026 -0.1192  0.3384  0.0332
  825W        W 4569   3.219   4.025   0.555  0.2015 -0.2003  0.1881
  826W        W 4570   2.111   5.810   3.658 -0.1469  0.0286 -0.1957
  827W        W 4571   5.477   4.984  11.947 -0.3079 -0.0985 -0.0017
  828W        W 4572   7.741   5.376   9.659  0.1826 -0.1281 -0.1133
  829W        W 4573   4.910   3.217   0.736 -0.3574  0.0875  0.0801
  830W        W 4574   7.591   8.100   0.458  0.0645  0.2152 -0.3381
  831W        W 4575   6.289   1.991  10.368  0.2343 -0.2616  0.0580
  832W        W 4576   9.352   3.566  11.142  0.0663 -0.1215 -0.0323
  833W        W 4577   3.964   6.727  12.309  0.2742 -0.0930  0.2135
  834W        W 4578   9.285   7.904  12.667 -0.0479  0.1679  0.0379
  835W        W 4579   0.409   7.668  11.945  0.1286 -0.1953  0.1455
  836W        W 4580   4.505   0.702   1.065 -0.2772  0.1110 -0.0431
  837W        W 4581   9.500   9.323   3.558  0.0096  0.1439  0.0496
  838W        W 4582   3.564   2.698  10.045 -0.1327 -0.1261 -0.2131
  839W        W 4583   9.373   2.758  11.449  0.0637 -0.3061 -0.0324
  840W        W 4584   8.801   8.659   3.489  0.0292  0.1004  0.2564
  841W        W 4585   1.972   6.723   9.663 -0.1557 -0.0354 -0.1359
  842W        W 4586   9.201   8.563   2.181 -0.0089 -0.1386 -0.0276
  843W        W 4587   2.458   4.289   9.899 -0.4854  0.1147  0.1899
  844W        W 4588   1.555   6.820  10.573 -0.0269  0.0517  0.0643
  845W        W 4589   2.251   0.283   1.885 -0.0493 -0.2932 -0.1020
  846W        W 4590   1.478   3.649  12.319 -0.3362 -0.0136  0.2534
  847W        W 4591   0.261   4.613   0.279 -0.0125 -0.0105  0.0712
  848W        W 4592   7.635   4.018   3.904  0.0627 -0.1630  0.1710
  849W        W 4593   1.697   0.995  11.029  0.1950 -0.2548 -0.2083
  850W        W 4594   5.583   9.776  11.945  0.1596  0.1878 -0.2318
  851W        W 4595   9.369   0.994   0.995  0.1554 -0.1607 -0.1056
  852W        W 4596   6.367   6.173   4.143 -0.1006  0.3861  0.0312
  853W        W 4597   1.044   4.131  11.773  0.0053  0.2592 -0.2962
  854W        W 4598   7.157   9.702   1.114  0.4189 -0.0847 -0.1529
  855W        W 4599   2.331   2.950   9.958  0.0535  0.0375  0.1127
  856W        W 4600   6.842   1.541  11.999  0.1723 -0.0447 -0.1309
  857W        W 4601   1.827   3.719  10.345 -0.1480 -0.1013 -0.0215
  858W        W 4602   6.648   6.488   2.339  0.0663  0.3590 -0.1545
  859W        W 4603   0.779   9.102   1.589  0.1461  0.0689 -0.2579
  860W        W 4604   0.899   1.459   0.106  0.2902 -0.0138 -0.0872
  861W        W 4605   2.243   2.852  11.418 -0.1978  0.0248 -0.0656
  862W        W 4606   8.431   9.149   1.354 -0.4783  0.3195  0.3009
  863W        W 4607   7.203   2.632   4.051 -0.0059 -0.3112 -0.2116
  864W        W 4608   0.986   3.406  11.986 -0.0153  0.1139 -0.0431
  865W        W 4609   9.808   3.296   2.103  0.1084  0.1855 -0.0853
  866W        W 4610   0.823   1.789   8.387 -0.1441  0.3958  0.2110
  867W        W 4611   3.831   5.918   3.667 -0.3611  0.0493 -0.0422
  868W        W 4612   5.982   6.120   1.030  0.0736 -0.3275  0.0875
  869W        W 4613   7.993   3.137   3.156  0.3466 -0.2743  0.4299
  870W        W 4614   3.408   0.283   9.014 -0.1071  0.2182 -0.0717
  871W        W 4615   6.864   0.889   5.681  0.3897  0.0416  0.4623
  872W        W 4616   1.760   0.598   2.033 -0.2932 -0.0979 -0.1954
  873W        W 4617   9.788   0.761   1.160 -0.1904  0.2826  0.3121
  874W        W 4618   1.223   1.243   5.293 -0.0935  0.0330  0.0551
  875W        W 4619   1.859   8.866   9.463 -0.1151 -0.3704 -0.0000
  876W        W 4620   5.469   2.186   1.796 -0.1665 -0.0165  0.0032
  877W        W 4621   5.207   4.544  10.945  0.1104 -0.0078 -0.0694
  878W        W 4622   3.605   6.112   0.970 -0.4153  0.3456  0.0520
  879W        W 4623   4.188   3.416   9.655  0.1763  0.1541 -0.0750
  880W        W 4624   1.150   3.323  12.465  0.2602  0.3190 -0.0039
  881W        W 4625   2.433   9.631   0.043 -0.3370  0.0722 -0.3650
  882W        W 4626   9.243   7.446   1.184 -0.1371 -0.0056  0.4088
  883W        W 4627   7.779   9.583  10.134 -0.0593  0.0872 -0.0531
  884W        W 4628   1.727   8.005   9.325  0.1779 -0.1551 -0.0803
  885W        W 4629   5.697   1.721  10.390 -0.1578 -0.0124 -0.0043
  886W        W 4630   8.601   9.517   3.163  0.3065 -0.2883  0.3605
  887W        W 4631   0.062   9.027   4.281 -0.1044  0.1093 -0.1650
  888W        W 4632   7.726   5.699   4.188 -0.0366  0.0457 -0.2690
  889W        W 4633   3.881   0.461   9.182  0.0133  0.1560  0.0488
  890W        W 4634   5.868   5.651   0.946 -0.1649  0.2479  0.1563
  891W        W 4635   9.574   1.953   1.998 -0.2596 -0.4720  0.0567
  892W        W 4636   0.710   9.563   9.333 -0.0231  0.0920 -0.4039
  893W        W 4637   9.871   2.697   0.079  0.1160 -0.0198 -0.1399
  894W        W 4638   7.934   4.824  10.520 -0.0509 -0.0058 -0.2706
  895W        W 4639   6.118   8.295  10.490  0.1922  0.1681  0.0707
  896W        W 4640   1.944   8.981  10.464 -0.2021  0.4408  0.2309
  897W        W 4641   1.858   4.008   9.245 -0.1215 -0.2097 -0.0087
  898W        W 4642   1.786   8.620   3.167  0.0518 -0.0974  0.0608
  899W        W 4643   9.862   4.511   9.458 -0.1194  0.0375  0.2186
  900W        W 4644   5.472   8.113  11.867  0.4941  0.3693  0.0504
  901W        W 4645   9.440   4.902   9.252 -0.3651  0.0043  0.1236
  902W        W 4646   1.370   3.161  10.953 -0.4671 -0.3041 -0.1213
  903W        W 4647   4.606   1.516  10.529 -0.3484  0.0980  0.1502
  904W        W 4648   0.625   7.916   2.189  0.3364  0.0693  0.1096
  905W        W 4649   4.098   4.505   0.679  0.2368 -0.1775  0.1631
  906W        W 4650   8.588   2.070   1.941 -0.1046  0.1231 -0.0755
  907W        W 4651   0.591   3.759  11.910 -0.0521  0.0519 -0.3244
  908W        W 4652   0.037   7.745  12.539 -0.0338  0.1684  0.2571
  909W        W 4653   4.317   0.953   2.438 -0.3303 -0.0130  0.1868
  910W        W 4654   1.317   7.588  10.902 -0.2116 -0.2784 -0.1859
  911W        W 4655   7.150   5.507  12.023  0.0156 -0.0260  0.0593
  912W        W 4656   9.222   9.378  12.011 -0.0880 -0.0727 -0.1777
  913W        W 4657   2.724   0.748  10.069  0.2621  0.0705 -0.1582
  914W        W 4658   6.294   2.527   9.675 -0.0441 -0.0521  0.1539
  915W        W 4659   4.706   6.129   8.605  0.0244  0.2596 -0.0573
  916W        W 4660   6.711   4.994  10.062  0.1074  0.2594  0.1098
  917W        W 4661   7.165   8.587   9.991 -0.2210 -0.0423  0.3175
  918W        W 4662   1.287   4.031   3.428 -0.2699  0.1606  0.0928
  919W        W 4663   1.665   7.869   1.732  0.1212  0.0828  0.2252
  920W        W 4664   0.453   7.395   3.574 -0.0756 -0.1341  0.0971
  921W        W 4665   6.972   6.030   2.369 -0.0682  0.0697 -0.2520
  922W        W 4666   9.535   4.572   8.925 -0.0586 -0.0111  0.0782
  923W        W 4667   1.380   3.116  11.977  0.1911 -0.1257 -0.1305
  924W        W 4668   5.786   4.447   9.734  0.0988 -0.1732  0.0212
  925W        W 4669   5.202   5.153   9.897 -0.0922 -0.0567 -0.3115
  926W        W 4670   7.935   6.142   2.709 -0.0030  0.0246 -0.0532
  927W        W 4671   3.597   5.788   2.669 -0.0441  0.4019  0.1036
  928W        W 4672   5.908   2.863   2.449 -0.0247 -0.0903  0.1313
  929W        W 4673   3.438   6.819   9.742  0.1921  0.0535 -0.0522
  930W        W 4674   5.395   8.464  12.277 -0.0261  0.0671 -0.2584
  931W        W 4675   7.199   3.511   8.996 -0.0708 -0.1704 -0.0884
  932W        W 4676   1.787   2.257  12.975 -0.0806 -0.0296 -0.2179
  933W        W 4677   5.831   8.972   2.772 -0.2118 -0.3220 -0.0930
  934W        W 4678   8.823   1.159   0.169  0.2448 -0.1435  0.0205
  935W        W 4679   2.586   1.407   9.843  0.0938 -0.0995  0.1507
  936W        W 4680   2.120   6.762  12.164  0.1614 -0.0581 -0.1302
  937W        W 4681   6.473   8.220   3.590  0.1548 -0.3350 -0.0120
  938W        W 4682   3.104   0.767   1.513 -0.0398 -0.3471 -0.0142
  939W        W 4683   4.691   9.838  12.816 -0.1175  0.1981  0.2731
  940W        W 4684   4.699   4.146   2.575 -0.1712  0.1253 -0.1139
  941W        W 4685   7.625   6.463  10.040 -0.3087  0.2505  0.1438
  942W        W 4686   2.676   0.847  10.592 -0.0727 -0.0431 -0.0349
  943W        W 4687   0.591   1.417   8.671 -0.1112 -0.1097  0.1283
  944W        W 4688   1.069   4.669   0.052 -0.0990 -0.1309  0.0969
  945W        W 4689   1.681   7.382   0.156 -0.2101 -0.1708 -0.0798
  946W        W 4690   7.591   7.279   4.697 -0.0968  0.1035 -0.1116
  947W        W 4691   8.473   8.872  11.103  0.2754 -0.1829 -0.1658
  948W        W 4692   6.913   5.561   8.898  0.1446  0.1868  0.0485
  949W        W 4693   9.016   7.557   2.028  0.0648  0.0279  0.1222
  950W        W 4694   0.667   5.220   3.425  0.0905 -0.0924  0.0642
  951W        W 4695   2.545   3.772   9.829  0.0701  0.1187 -0.0648
  952W        W 4696   6.738   2.192   0.544 -0.1442 -0.1929  0.1608
  953W        W 4697   7.776   3.614   9.481 -0.0724  0.4162 -0.1583
  954W        W 4698   8.963   6.495   3.463 -0.3404 -0.0347 -0.5137
  955W        W 4699   0.015   1.929   9.396  0.1059  0.0529  0.1954
  956W        W 4700   1.326   1.424   9.924  0.5089 -0.1669 -0.1715
  957W        W 4701   7.273   8.286  12.200 -0.1471  0.1865 -0.0772
  958W        W 4702   0.664   5.961  11.281 -0.1566 -0.0286  0.3092
  959W        W 4703   2.690   5.037  10.453 -0.2249 -0.2049  0.2359
  960W        W 4704   0.541   0.482   5.259  0.2673  0.1118 -0.2053
  961W        W 4705   3.130   7.922   1.028 -0.2697  0.2026  0.1566
  962W        W 4706   4.783   5.135  10.244  0.1796  0.0133  0.0220
  963W        W 4707   6.679   2.584   2.472  0.1636 -0.1268 -0.0947
  964W        W 4708   5.223   2.935  10.708 -0.1578  0.1259 -0.0473
  965W        W 4709   6.032   4.575  10.852  0.0118  0.0682  0.3717
  966W        W 4710   8.968   0.157  10.427 -0.1294  0.2450 -0.1824
  967W        W 4711   2.362   9.138   9.521  0.1033 -0.1196 -0.0001
  968W        W 4712   5.299   2.429   0.962  0.1326  0.0541 -0.0517
  969W        W 4713   3.423   6.040   1.421 -0.1022 -0.2697  0.0574
  970W        W 4714   2.473   2.355  11.401  0.0935 -0.0421  0.3025
  971W        W 4715   3.206   7.636  10.097  0.1403 -0.0136  0.1121
  972W        W 4716   7.255   9.274  12.296 -0.3781 -0.0020 -0.2176
  973W        W 4717   1.183   0.662   1.939 -0.0825 -0.1244  0.5268
  974W        W 4718   0.668   4.364   0.277  0.2046 -0.2834  0.0392
  975W        W 4719   8.275   4.700   0.779  0.1532 -0.0206  0.0320
  976W        W 4720   5.118   7.983  12.224 -0.0785 -0.0241 -0.1280
  977W        W 4721   6.133   1.133   0.103 -0.2225  0.2107 -0.3656
  978W        W 4722   4.424   7.867   2.767  0.1093 -0.0389  0.1574
  979W        W 4723   1.115   2.775   0.473 -0.0781 -0.3596 -0.1089
  980W        W 4724   5.962   3.303  12.871 -0.0954 -0.1111  0.0652
  981W        W 4725   3.654   3.796   3.774 -0.0161 -0.0619 -0.3684
  982W        W 4726   7.755   6.813   9.618 -0.3011 -0.1101 -0.2498
  983W        W 4727   6.419   9.559  11.548 -0.0158 -0.0223  0.0407
  984W        W 4728   6.743   4.929   3.655 -0.2863  0.0623 -0.0808
  985W        W 4729   6.114   0.252   0.833 -0.1067  0.0559  0.0198
  986W        W 4730   1.648   9.133   3.281  0.0315  0.0087 -0.2048
  987W        W 4731   9.732   9.232  11.173  0.0306 -0.0093  0.2139
  988W        W 4732   0.580   1.559  10.259  0.3568 -0.0959  0.3565
  989W        W 4733   2.271   3.281   3.312 -0.0196 -0.1308 -0.2492
  990W        W 4734   9.691   7.276   1.356 -0.0265  0.2690  0.0734
  991W        W 4735   8.822   2.290   9.786  0.0612  0.3403  0.2606
  992W        W 4736   4.678   3.921   1.736 -0.3568  0.0824 -0.0953
  993W        W 4737   7.058   3.188   2.088 -0.1106 -0.0740  0.1382
  994W        W 4738   6.255   5.469  10.872  0.0300 -0.0813 -0.1438
  995W        W 4739   8.135   6.263   1.441 -0.0834 -0.0611  0.0449
  996W        W 4740   1.912   5.208   3.541 -0.2896  0.1448  0.2674
  997W        W 4741   4.660   9.394   0.110  0.4459  0.2375 -0.3270
  998W        W 4742   3.561   7.436  10.580 -0.0136  0.1233 -0.1189
  999W        W 4743   6.680   7.531   0.480 -0.0876 -0.1326  0.2219
 1000W        W 4744   5.504   3.760  12.880 -0.2325  0.0477 -0.3762
 1001W        W 4745   0.084   9.388   3.511 -0.0004  0.2506 -0.0681
 1002W        W 4746   0.176   8.944   9.565  0.1419 -0.1575 -0.0743
 1003W        W 4747   9.699   1.140   1.417  0.1244 -0.0409 -0.1898
 1004W        W 4748   0.351   3.204   9.376 -0.1485 -0.2630 -0.2295
 1005W        W 4749   9.133   2.367  11.926 -0.0333  0.2556  0.1583
 1006W        W 4750   9.274   1.198   2.323 -0.1468  0.1296  0.0248
 1007W        W 4751   8.535   9.534  11.813  0.1191 -0.3629 -0.2327
 1008W        W 4752   4.917   7.290   2.954  0.0670 -0.1776 -0.0177
 1009W        W 4753   7.372   7.319   3.171  0.3155 -0.1369 -0.4014
 1010W        W 4754   2.592   3.073  10.392  0.1469  0.0395 -0.1193
 1011W        W 4755   5.907   4.151   2.905 -0.0490 -0.1867 -0.1030
 1012W        W 4756   2.977   5.127  11.360  0.2620 -0.4177 -0.0708
 1013W        W 4757   9.743   1.390   8.878  0.0441  0.1008 -0.0324
 1014W        W 4758   1.475   7.994   3.219 -0.3339 -0.3362 -0.0236
 1015W        W 4759   8.731   0.410   9.121  0.2855 -0.0335  0.1718
 1016W        W 4760   1.604   1.275   1.285 -0.0540  0.1405  0.1088
 1017W        W 4761   0.836   9.769   0.063  0.1915 -0.0189 -0.0388
 1018W        W 4762   2.501   0.043  11.152 -0.2109  0.2173 -0.0246
 1019W        W 4763   8.462   8.472   0.890  0.3952 -0.1007  0.1897
 1020W        W 4764   3.610   8.660  11.555  0.0381 -0.0735  0.3599
 1021W        W 4765   3.552   9.843  10.100  0.3162  0.0047 -0.3128
 1022W        W 4766   5.941   6.722  10.346 -0.3838  0.1108 -0.0235
 1023W        W 4767   8.740   2.796  10.047  0.1221  0.2225 -0.0704
 1024W        W 4768   2.533   9.574   4.021 -0.0361 -0.0043 -0.4166
 1025W        W 4769   1.098   5.685   4.889  0.0191  0.1880 -0.3407
 1026W        W 4770   4.375   0.794   4.466  0.3680 -0.3585  0.2458
 1027W        W 4771   9.507   6.165   4.453 -0.0312  0.1838 -0.0115
 1028W        W 4772   0.803   1.707   1.256 -0.0072 -0.0948 -0.0247
 1029W        W 4773   5.782   7.093   9.937  0.1753  0.0747 -0.0206
 1030W        W 4774   7.972   8.620  12.867 -0.0885  0.0220 -0.0979
 1031W        W 4775   5.669   1.626  12.434  0.0579  0.1170 -0.1455
 1032W        W 4776   7.342   8.065  12.943 -0.0101  0.0279  0.0341
 1033W        W 4777   0.266   5.465   4.420 -0.1355 -0.0563 -0.1719
 1034W        W 4778   0.009   1.645   2.943 -0.2180 -0.1149  0.1333
 1035W        W 4779   3.656   6.992   8.339  0.2049 -0.2673  0.1478
 1036W        W 4780   0.132   2.831   8.541  0.2049  0.0883 -0.1992
 1037W        W 4781   0.238   2.742   9.191  0.0424 -0.2568 -0.0620
 1038W        W 4782   1.409   4.325  10.547 -0.1772 -0.0571  0.2109
 1039W        W 4783   6.926   1.215   2.844  0.2695  0.1782 -0.0255
 1040W        W 4784   1.806   1.032   3.493 -0.2268  0.0191  0.2092
 1041W        W 4785   8.176   7.012  10.435  0.0523  0.0166  0.0855
 1042W        W 4786   4.280   2.148   1.356  0.1923  0.2640  0.0476
 1043W        W 4787   1.309   9.054   9.876 -0.2870  0.0080 -0.0131
 1044W        W 4788   2.035   5.046   9.626  0.0031 -0.1193  0.2221
 1045W        W 4789   7.357   5.322  11.014 -0.1474  0.3400  0.0877
 1046W        W 4790   7.669   7.286   9.082  0.2019 -0.1152  0.0803
 1047W        W 4791   6.102   6.290   2.292 -0.0015  0.1180 -0.2367
 1048W        W 4792   1.819   1.805   0.153  0.3337  0.1413 -0.0459
 1049W        W 4793   5.386   3.186   1.392 -0.2971  0.0439 -0.0625
 1050W        W 4794   6.151   4.493  12.941  0.0126  0.0952  0.1998
 1051W        W 4795   3.073   7.863  12.568 -0.2935 -0.1794  0.2201
 1052W        W 4796   4.207   2.999   3.982  0.0861  0.1865  0.1901
 1053W        W 4797   6.626   8.035  11.271  0.0806 -0.1669 -0.1768
 1054W        W 4798   0.351   2.058   1.186  0.1956 -0.2429  0.4868
 1055W        W 4799   7.019   5.355   8.366 -0.2238  0.2371  0.0649
 1056W        W 4800   5.576   6.023  12.457 -0.1107  0.1374 -0.1006
 1057W        W 4801   4.677   3.760  12.863  0.1448 -0.0528  0.1123
 1058W        W 4802   1.581   5.702  12.712  0.0300  0.2427  0.2932
 1059W        W 4803   1.414   3.594  11.761  0.2980  0.3506 -0.0270
 1060W        W 4804   3.012   9.342   9.378  0.1308 -0.0404  0.0062
 1061W        W 4805   4.354   4.851   0.461 -0.0835  0.2731  0.2097
 1062W        W 4806   6.992   3.022  12.528  0.0134  0.0497  0.1933
 1063W        W 4807   1.597   8.245  11.620 -0.1896  0.0098 -0.0679
 1064W        W 4808   8.527   0.679   1.856  0.1918  0.4618 -0.1409
 1065W        W 4809   3.461   0.778   8.920 -0.0088 -0.3564 -0.1749
 1066W        W 4810   5.267   6.756  11.801 -0.1478  0.1912 -0.1700
 1067W        W 4811   9.450   9.727  11.278 -0.2343  0.1765 -0.1108
 1068W        W 4812   2.745   0.013   1.873  0.1379 -0.0995 -0.0614
 1069W        W 4813   8.577   6.699   3.786 -0.0060  0.0819  0.0029
 1070W        W 4814   7.295   8.917  11.922  0.1934 -0.1762 -0.0129
 1071W        W 4815   6.780   2.276   3.294 -0.0859 -0.3197  0.0501
 1072W        W 4816   3.500   5.883  12.924  0.2370 -0.0639 -0.2758
 1073W        W 4817   7.025   7.810  11.114 -0.1872 -0.0802  0.0369
 1074W        W 4818   3.531   0.435  10.812  0.2204 -0.0820 -0.1876
 1075W        W 4819   5.862   0.944   1.059  0.1352  0.0420  0.3939
 1076W        W 4820   4.754   9.704   0.569  0.0394 -0.1379  0.0855
 1077W        W 4821   4.590   0.477  10.240 -0.2402  0.4353 -0.1076
 1078W        W 4822   1.028   9.477   8.576 -0.2034  0.0835 -0.0907
 1079W        W 4823   2.595   8.899   2.901 -0.0103 -0.2261 -0.3111
 1080W        W 4824   9.712   6.686   1.384 -0.1122 -0.1296 -0.0740
 1081W        W 4825   4.103   5.833  12.325 -0.1090 -0.2420  0.0325
 1082W        W 4826   2.285   6.803   1.690 -0.0339 -0.0706 -0.1618
 1083W        W 4827   1.919   4.681   8.697 -0.0705  0.0750  0.1139
 1084W        W 4828   7.146   1.600   1.083 -0.1581  0.1190  0.0786
 1085W        W 4829   2.811   0.743  11.621  0.3401 -0.3179  0.2687
 1086W        W 4830   4.433   7.825   1.835 -0.0380  0.1672  0.0057
 1087W        W 4831   8.556   5.216   1.686 -0.3386  0.2888 -0.2534
 1088W        W 4832   8.141   8.631   2.229 -0.4134 -0.1905 -0.0397
 1089W        W 4833   9.691   8.856   3.123  0.1203  0.1633 -0.2088
 1090W        W 4834   4.529   4.742  11.485  0.4764 -0.1652 -0.2425
 1091W        W 4835   3.760   5.172   1.478  0.0368 -0.3773 -0.4132
 1092W        W 4836   6.393   1.977  12.034  0.1848  0.0564 -0.1167
 1093W        W 4837   6.912   4.093   2.750  0.2940  0.1249  0.0159
 1094W        W 4838   4.319   7.500   3.606  0.0347 -0.1541  0.0476
 1095W        W 4839   3.138   0.244   3.868  0.1890 -0.3353  0.0770
 1096W        W 4840   6.573   9.567  10.688  0.1036  0.2457 -0.2465
 1097W        W 4841   5.544   3.736   8.075  0.3385 -0.1748  0.2197
 1098W        W 4842   9.016   1.195  10.007 -0.2854  0.1998 -0.3530
 1099W        W 4843   0.923   8.361   1.337 -0.1601  0.1455 -0.3845
 1100W        W 4844   1.102   7.963   2.236  0.1992  0.0074 -0.1881
 1101W        W 4845   0.365   3.054  12.821  0.0904  0.0887 -0.0522
 1102W        W 4846   7.014   4.010   2.144 -0.2878 -0.2176 -0.0282
 1103W        W 4847   9.451   6.364   2.010 -0.5033 -0.1860  0.0098
 1104W        W 4848   0.707   0.200   3.719 -0.0273  0.1157  0.2005
 1105W        W 4849   7.303   8.961   0.707  0.2472  0.1765  0.1577
 1106W        W 4850   4.887   1.060   2.155 -0.2582 -0.0741  0.0710
 1107W        W 4851   0.837   6.179  12.724  0.1595 -0.2571 -0.1730
 1108W        W 4852   7.667   5.432   1.877  0.3537 -0.1017  0.0149
 1109W        W 4853   1.188   9.265  11.596  0.1103 -0.1605 -0.0145
 1110W        W 4854   8.510   0.205   9.888 -0.0849  0.2396 -0.0916
 1111W        W 4855   0.925   5.111  11.640  0.0802 -0.1024 -0.1283
 1112W        W 4856   1.769   5.388  10.619  0.1088 -0.1506 -0.0304
 1113W        W 4857   3.740   5.190   0.638 -0.6010 -0.0502 -0.1514
 1114W        W 4858   9.502   6.264   3.905 -0.1492  0.0125  0.0204
 1115W        W 4859   0.546   4.843  12.061  0.0701  0.1667 -0.2334
 1116W        W 4860   0.523   8.085   1.391  0.0121  0.0201 -0.3720
 1117W        W 4861   5.775   8.579  11.835  0.1433 -0.1559  0.1660
 1118W        W 4862   6.920   3.765   0.835  0.1774  0.3922  0.1502
 1119W        W 4863   2.876   5.472   2.112 -0.0513 -0.2343 -0.2170
 1120W        W 4864   4.670   5.929   3.182  0.1537 -0.0545 -0.2870
 1121W        W 4865   7.355   3.808   4.313  0.1506 -0.0062 -0.0824
 1122W        W 4866   6.640   6.038   4.624 -0.0093 -0.0575  0.2512
 1123W        W 4867   3.528   2.406   2.994  0.0281  0.0269 -0.1204
 1124W        W 4868   9.891   9.814   1.267 -0.3228  0.4746  0.1528
 1125W        W 4869   3.056   8.736   4.144  0.0196  0.0256 -0.1040
 1126W        W 4870   7.219   9.036   0.236 -0.0208  0.1621  0.2624
 1127W        W 4871   8.019   4.519   2.061 -0.2680  0.1039  0.0967
 1128W        W 4872   0.787   7.823   4.184  0.3066 -0.2276  0.0917
 1129W        W 4873   9.348   3.109   2.091  0.2214  0.1496  0.3715
 1130W        W 4874   3.089   5.384   1.609  0.1053 -0.3213 -0.2615
 1131W        W 4875   0.869   6.893   2.302  0.2422 -0.1222  0.0233
 1132W        W 4876   0.544   3.455   0.269 -0.0305 -0.0175  0.0882
 1133W        W 4877   3.019   3.985   3.787 -0.3190  0.0983 -0.1823
 1134W        W 4878   9.367   1.710   9.759  0.3083  0.1299  0.0404
 1135W        W 4879   8.062   8.592  11.228 -0.0841  0.1034  0.1934
 1136W        W 4880   5.355   2.179   4.049 -0.1130  0.0284  0.0769
 1137W        W 4881   5.048   6.932   0.891  0.2335  0.3969  0.0206
 1138W        W 4882   7.477   7.819  11.895  0.2021 -0.3117 -0.0211
 1139W        W 4883   1.267   4.513   8.375 -0.1165  0.0410  0.0981
 1140W        W 4884   5.816   0.846  10.789 -0.0535  0.1108 -0.1188
 1141W        W 4885   7.365   6.802   8.143  0.3520 -0.3948  0.3753
 1142W        W 4886   6.617   7.955   2.297  0.0094 -0.0895  0.4795
 1143W        W 4887   1.687   0.056  12.426  0.0521  0.0895 -0.1872
 1144W        W 4888   6.747   7.773   1.864  0.4318  0.1391  0.1369
 1145W        W 4889   9.442   0.292   3.750 -0.0438  0.0166 -0.0936
 1146W        W 4890   6.774   0.333  12.032 -0.0741 -0.1303 -0.1430
 1147W        W 4891   6.468   2.949  10.870  0.2248 -0.2745  0.6459
 1148W        W 4892   3.328   4.017   2.745 -0.1739 -0.2687 -0.0904
 1149W        W 4893   4.865   1.369  11.881 -0.0242  0.1635 -0.1241
 1150W        W 4894   5.905   3.975   0.538  0.5978 -0.0664 -0.3722
 1151W        W 4895   0.331   6.753   5.336 -0.1434 -0.0894 -0.3178
 1152W        W 4896   8.579   2.627   2.652 -0.1492  0.1107 -0.1454
 1153W        W 4897   2.426   5.437   1.751 -0.1653  0.1545  0.0482
 1154W        W 4898   2.864   6.240  11.717  0.0574 -0.0108 -0.2811
 1155W        W 4899   5.566   6.180   3.208  0.0936 -0.3362 -0.0946
 1156W        W 4900   2.469   6.411   4.384 -0.0201 -0.2726 -0.0671
 1157W        W 4901   7.427   7.894   0.884 -0.0492  0.0720  0.0856
 1158W        W 4902   9.359   9.579   4.113  0.3828  0.3461 -0.0218
 1159W        W 4903   5.056   3.831  12.531  0.0780 -0.1564  0.1237
 1160W        W 4904   0.098   7.116   1.667  0.0142 -0.0085 -0.0014
 1161W        W 4905   6.121   1.647   9.810 -0.0350  0.1430 -0.0940
 1162W        W 4906   8.117   0.103   2.393  0.1439 -0.0863  0.3411
 1163W        W 4907   4.502   3.347   9.050  0.0659 -0.2052  0.1809
 1164W        W 4908   8.714   7.221  12.541  0.3385 -0.3539  0.1338
 1165W        W 4909   4.045   5.431  10.851  0.0437 -0.2186  0.2042
 1166W        W 4910   0.135   1.344  10.291 -0.2117  0.3877  0.0199
 1167W        W 4911   5.029   1.868  11.392 -0.1332 -0.2529  0.0196
 1168W        W 4912   6.762   9.162   9.169 -0.1094  0.1874 -0.0710
 1169W        W 4913   7.001   5.766   4.344 -0.1811 -0.2492 -0.0186
 1170W        W 4914   1.498   5.473  11.114  0.3233 -0.2682 -0.1101
 1171W        W 4915   1.478   8.690   0.881  0.1490  0.0600  0.0926
 1172W        W 4916   0.328   1.244   0.025 -0.2185 -0.1332  0.0870
 1173W        W 4917   9.497   4.787  10.705  0.1648 -0.0464  0.3088
 1174W        W 4918   0.575   6.557   2.840 -0.1301  0.2055 -0.0086
 1175W        W 4919   1.107   7.099  11.772 -0.2273 -0.0940  0.0547
 1176W        W 4920   5.820   9.603   7.607 -0.1303 -0.0753  0.0740
 1177W        W 4921   0.440   9.430   2.544  0.3380  0.1498  0.0360
 1178W        W 4922   3.025   4.128   0.089  0.2810 -0.2159 -0.2511
 1179W        W 4923   7.222   8.013   8.425  0.1393 -0.4687 -0.3822
 1180W        W 4924   3.748   2.053   9.502  0.2609 -0.0369  0.0215
 1181W        W 4925   1.487   6.876   9.544  0.1700 -0.1028 -0.0672
 1182W        W 4926   7.913   1.867   0.827  0.1740 -0.1108 -0.3032
 1183W        W 4927   3.585   7.865   1.883  0.0688  0.1830  0.0079
 1184W        W 4928   5.833   5.489  12.724 -0.1253 -0.1216 -0.1754
 1185W        W 4929   1.684   8.954   2.826  0.1362  0.1143 -0.2180
 1186W        W 4930   6.830   4.259   0.980 -0.0915  0.1553 -0.0984
 1187W        W 4931   3.961   0.026   9.807  0.2654 -0.0652 -0.0107
 1188W        W 4932   9.782   7.292   0.593 -0.1819  0.0780  0.0013
 1189W        W 4933   8.100   5.066   1.905  0.1143  0.1919 -0.1998
 1190W        W 4934   7.532   2.331  11.942  0.0295 -0.3687 -0.1306
 1191W        W 4935   0.249   9.001   2.239 -0.0108 -0.0491 -0.0896
 1192W        W 4936   1.852   9.812   1.952 -0.0010 -0.2081 -0.1016
 1193W        W 4937   6.869   6.011  11.379 -0.1621 -0.0219  0.2292
 1194W        W 4938   7.968   0.392  12.521 -0.1306  0.0184 -0.0351
 1195W        W 4939   3.183   4.185  11.591  0.2462 -0.0460 -0.0616
 1196W        W 4940   1.137   3.487   3.952  0.0701  0.0095 -0.4909
 1197W        W 4941   9.649   3.552   4.007  0.1674 -0.1221  0.3579
 1198W        W 4942   3.474   9.891   4.385  0.0911  0.1046 -0.0519
 1199W        W 4943   7.059   1.809   0.478  0.2083 -0.0479 -0.1525
 1200W        W 4944   5.887   6.138  12.039 -0.1443 -0.1465 -0.0384
 1201W        W 4945   6.127   8.071   1.207 -0.0492 -0.1917 -0.0633
 1202W        W 4946   9.352   7.304   2.358 -0.0032 -0.1398  0.2618
 1203W        W 4947   2.458   4.159   4.638 -0.1754  0.1366  0.0621
 1204W        W 4948   8.918   5.019  12.659 -0.1373 -0.1399 -0.0652
 1205W        W 4949   0.034   2.607  11.834  0.0079 -0.1883 -0.1024
 1206W        W 4950   9.716   1.910   8.790 -0.1866 -0.1237 -0.0659
 1207W        W 4951   8.857   1.848  11.781  0.3063  0.0047  0.2396
 1208W        W 4952   1.963   3.514  12.122 -0.0425 -0.4798  0.1220
 1209W        W 4953   1.171   5.656  10.263 -0.0107  0.5398 -0.0381
 1210W        W 4954   1.796   3.386  11.142  0.1404  0.0881  0.1461
 1211W        W 4955   2.979   4.494   3.965 -0.0017  0.1985 -0.0900
 1212W        W 4956   8.960   3.977   9.273 -0.4790 -0.1665 -0.0785
 1213W        W 4957   3.279   7.786   3.572 -0.0692  0.0929 -0.1428
 1214W        W 4958   4.599   6.910   4.291 -0.1066  0.2139 -0.1285
 1215W        W 4959   1.018   4.268  10.120 -0.2336 -0.0388  0.5540
 1216W        W 4960   4.323   3.148  11.587 -0.4615  0.0219  0.0837
 1217W        W 4961   1.410   4.973   1.561 -0.2411  0.0746 -0.0528
 1218W        W 4962   2.194   9.262   3.636  0.2020  0.6089  0.0319
 1219W        W 4963   1.173   4.602   9.286  0.1649  0.2582 -0.0871
 1220W        W 4964   4.004   5.490   4.013 -0.1094  0.4581 -0.1985
 1221W        W 4965   5.787   6.295  11.099  0.0966 -0.2316  0.2593
 1222W        W 4966   1.763   3.266  11.659 -0.0938  0.4197  0.0685
 1223W        W 4967   8.303   5.646   0.623 -0.3525  0.2329 -0.0392
 1224W        W 4968   6.684   9.580   0.412 -0.0372  0.0792 -0.2224
 1225W        W 4969   6.639   7.422   9.910 -0.0589  0.0888 -0.0495
 1226W        W 4970   4.900   3.026  12.437  0.2622  0.5730 -0.1780
 1227W        W 4971   6.934   3.902   3.600  0.4268 -0.0533  0.2550
 1228W        W 4972   7.178   9.440   1.606  0.0620  0.1631 -0.1239
 1229W        W 4973   1.826   6.312  11.858  0.0748  0.4426  0.0092
 1230W        W 4974   5.370   7.501   0.504 -0.0389  0.1308  0.0602
 1231W        W 4975   1.118   3.952   8.746 -0.0873 -0.0694  0.2750
 1232W        W 4976   4.330   5.163   8.843 -0.0646 -0.2943  0.2661
 1233W        W 4977   5.487   2.363   3.073 -0.2072  0.0274 -0.1508
 1234W        W 4978   6.673   9.553  12.658 -0.3112  0.1388 -0.0244
 1235W        W 4979   1.348   7.812  10.457 -0.0259  0.1079 -0.2051
 1236W        W 4980   1.520   8.551  10.888 -0.0009 -0.2639 -0.0415
 1237W        W 4981   9.385   5.419   0.069  0.1301  0.0000 -0.1264
 1238W        W 4982   4.943   8.126  11.768 -0.0772 -0.5627 -0.2483
 1239W        W 4983   8.017   9.521   3.043  0.0073  0.1658 -0.2463
 1240W        W 4984   2.277   8.325   0.099  0.1976 -0.2981 -0.1644
 1241W        W 4985   1.697   2.240   8.892 -0.1848 -0.3409  0.0180
 1242W        W 4986   5.639   5.203   0.814 -0.2712 -0.0145 -0.1441
 1243W        W 4987   3.894   0.746  10.971 -0.2504 -0.1198 -0.0108
 1244W        W 4988   8.669   7.254   0.601  0.1071  0.1396 -0.0177
 1245W        W 4989   0.050   9.408   9.394  0.0914 -0.2729 -0.3026
 1246W        W 4990   6.658   1.980  10.707  0.2513 -0.0537 -0.1351
 1247W        W 4991   6.479   5.444  12.237 -0.1210 -0.0749  0.6929
 1248W        W 4992   6.792   5.890   3.854  0.0766  0.1694 -0.2826
 1249W        W 4993   6.660   3.823   4.679  0.2213  0.0261 -0.1797
 1250W        W 4994   2.058   3.959   2.293  0.0576 -0.4548  0.0421
 1251W        W 4995   0.117   8.208  11.949  0.2845  0.1847 -0.0897
 1252W        W 4996   5.662   4.544  12.266  0.0633  0.0812  0.2649
 1253W        W 4997   0.442   3.631  10.217  0.1085  0.0343 -0.1033
 1254W        W 4998   2.025   1.962   3.395 -0.1858  0.2291 -0.1228
 1255W        W 4999   7.335   1.473   0.210  0.1573 -0.0748 -0.1785
 1256W        W 5000   9.842   5.829   4.226 -0.2734  0.3312 -0.1224
 1257W        W 5001   1.738   6.430   0.154  0.3351 -0.1481 -0.0619
 1258W        W 5002   4.344   6.450   3.961  0.0087  0.1013  0.1748
 1259W        W 5003   9.333   4.466   2.474  0.1064 -0.0829  0.1419
 1260W        W 5004   9.111   2.971   3.580  0.1683  0.2878  0.2806
 1261W        W 5005   3.177   7.646  11.932 -0.0363  0.1342  0.2415
 1262W        W 5006   3.855   8.993  12.474 -0.1179 -0.1213  0.2292
 1263W        W 5007   4.499   0.498  11.645 -0.0969  0.0675  0.2004
 1264W        W 5008   2.932   1.070  12.967 -0.3585  0.0141  0.1262
 1265W        W 5009   8.375   2.779   0.832  0.1367  0.3068  0.2950
 1266W        W 5010   7.637   9.347  10.953 -0.0935  0.3051  0.0787
 1267W        W 5011   8.438   5.580   0.149 -0.0104  0.0550 -0.0056
 1268W        W 5012   3.319   4.380  10.108  0.3408 -0.2882 -0.1206
 1269W        W 5013   2.456   1.368   1.134  0.1641 -0.2511  0.0388
 1270W        W 5014   2.188   7.701  12.167 -0.1945  0.1234 -0.3724
 1271W        W 5015   7.453   5.669   4.600  0.0845 -0.1505  0.2045
 1272W        W 5016   9.370   1.017   0.419 -0.2164 -0.0851 -0.0076
 1273W        W 5017   9.395   6.629   9.753  0.0200 -0.1528 -0.4053
 1274W        W 5018   0.582   5.751  12.172  0.1063 -0.0318 -0.3352
 1275W        W 5019   2.602   0.463  12.427  0.1651 -0.0248  0.0149
 1276W        W 5020   1.563   5.883   1.436 -0.1752  0.0106  0.1432
 1277W        W 5021   5.700   9.355   3.205 -0.3188  0.1753  0.0545
 1278W        W 5022   7.314   3.077   9.149  0.1037 -0.0323 -0.0857
 1279W        W 5023   9.893   6.135   2.115 -0.0355 -0.2997  0.4598
 1280W        W 5024   2.276   4.677  12.375  0.2877 -0.0271 -0.0706
 1281W        W 5025   3.491   1.740   3.835  0.0385 -0.0880  0.0589
 1282W        W 5026   3.497   3.869  12.822 -0.2664 -0.2932 -0.0792
 1283W        W 5027   3.601   5.837   0.466 -0.0322 -0.1920  0.2090
 1284W        W 5028   5.082   3.482   4.738  0.0416  0.1499  0.1532
 1285W        W 5029   8.626   8.222   1.623  0.0659 -0.1628 -0.2734
 1286W        W 5030   7.984   2.742  11.190  0.1987 -0.1282 -0.0020
 1287W        W 5031   2.528   3.029  12.928  0.2287 -0.2620  0.3656
 1288W        W 5032   5.485   2.865   0.301  0.0429 -0.0339 -0.2411
 1289W        W 5033   4.915   1.462   0.052  0.2859 -0.1886  0.0697
 1290W        W 5034   2.749   2.682  10.123 -0.1898 -0.0922 -0.1384
 1291W        W 5035   2.476   3.914   8.568  0.1806  0.1475 -0.2242
 1292W        W 5036   9.863   9.598   3.957 -0.0076 -0.0000 -0.0550
 1293W        W 5037   8.898   5.017  10.041 -0.0204 -0.4317 -0.4299
 1294W        W 5038   5.663   5.893  12.917 -0.0724  0.2832  0.1965
 1295W        W 5039   1.714   1.050   2.433 -0.2077 -0.0846  0.1817
 1296W        W 5040   5.871   2.822   1.953  0.1229 -0.1164 -0.0896
 1297W        W 5041   4.777   4.346   2.098 -0.2869 -0.2714 -0.0461
 1298W        W 5042   9.009   3.987   8.644  0.0894  0.0227  0.0835
 1299W        W 5043   9.287   8.825   3.614  0.0666  0.0682  0.1337
 1300W        W 5044   6.030   7.218   2.333  0.2180 -0.4051 -0.0984
 1301W        W 5045   5.474   4.239   2.647  0.3813 -0.0645 -0.2297
 1302W        W 5046   9.183   6.442   2.473 -0.0332  0.0317 -0.1520
 1303W        W 5047   0.522   1.190   2.309 -0.0931 -0.0152  0.0735
 1304W        W 5048   5.322   9.819   1.770 -0.1617  0.2095 -0.0958
 1305W        W 5049   8.095   6.731  11.276  0.0212  0.1123  0.0026
 1306W        W 5050   3.787   5.063  10.249  0.1001 -0.1977  0.0191
 1307W        W 5051   3.529   2.166   1.686  0.1327 -0.0716  0.0340
 1308W        W 5052   1.185   9.185   8.961 -0.2634  0.1008  0.1868
 1309W        W 5053   2.363   0.522  10.334 -0.0481  0.2258  0.0824
 1310W        W 5054   9.392   4.835   0.645 -0.2123  0.1590  0.3101
 1311W        W 5055   9.492   1.677   3.202 -0.0064 -0.3227  0.3699
 1312W        W 5056   4.718   8.808  11.427 -0.1885  0.1176 -0.1109
 1313W        W 5057   9.888   6.421  12.142 -0.3972 -0.0359  0.0789
 1314W        W 5058   9.553   2.019  12.054 -0.2769  0.2608 -0.0034
 1315W        W 5059   6.499   4.126  11.443  0.1230  0.1507  0.0142
 1316W        W 5060   8.582   6.525  11.461  0.0333  0.0866 -0.2870
 1317W        W 5061   5.376   0.196   3.384 -0.3522  0.0025 -0.2359
 1318W        W 5062   2.270   2.532   0.681  0.1576  0.1870  0.1284
 1319W        W 5063   3.325   4.913   1.378  0.2361 -0.1289  0.1509
 1320W        W 5064   0.443   6.351   1.784 -0.0919  0.0061  0.2344
 1321W        W 5065   7.510   7.129   0.215 -0.1943 -0.1555 -0.1989
 1322W        W 5066   7.363   6.116   0.436  0.0347 -0.0575  0.1240
 1323W        W 5067   3.551   3.101  10.461  0.2310  0.2556  0.1545
 1324W        W 5068   2.061   5.835   0.119 -0.0858 -0.2430 -0.1267
 1325W        W 5069   5.802   7.649   3.182 -0.0716 -0.0212  0.1270
 1326W        W 5070   2.861   5.581   0.723 -0.2462 -0.2073  0.0149
 1327W        W 5071   0.313   2.844  12.269  0.2126  0.0369  0.0937
 1328W        W 5072   0.924   1.457   4.206  0.0598 -0.0686  0.1964
 1329W        W 5073   3.354   5.665   2.260  0.1324  0.1694 -0.0668
 1330W        W 5074   0.517   1.097  11.089 -0.0665  0.3710  0.1462
 1331W        W 5075   2.367   9.661   0.739 -0.3339 -0.0704 -0.0591
 1332W        W 5076   0.306   5.275   1.117  0.2060  0.1557  0.0774
 1333W        W 5077   9.642   3.027   0.477 -0.2816  0.0655 -0.3565
 1334W        W 5078   2.109   9.656  10.915 -0.0423  0.0099  0.0978
 1335W        W 5079   9.503   6.129  12.050 -0.0768 -0.0671 -0.0354
 1336W        W 5080   6.154   8.024   8.455  0.0081  0.1402  0.2072
 1337W        W 5081   8.405   4.220   2.702  0.1550  0.1929  0.1400
 1338W        W 5082   8.238   2.290   1.640 -0.0544 -0.0343  0.1433
 1339W        W 5083   8.083   4.320  10.477 -0.1635 -0.4590  0.2427
 1340W        W 5084   0.511   4.021  11.481  0.0449  0.1099  0.0750
 1341W        W 5085   0.930   0.771   2.991 -0.2351 -0.3997  0.2024
 1342W        W 5086   4.214   2.827   2.587  0.5751  0.1457 -0.1445
 1343W        W 5087   1.454   2.153  10.950 -0.3173  0.1247 -0.0463
 1344W        W 5088   6.427   8.897  10.955  0.1190 -0.0843 -0.2602
 1345W        W 5089   6.090   5.482   3.338  0.2167 -0.1582  0.3139
 1346W        W 5090   4.086   2.502   3.008  0.3000 -0.1013  0.1249
 1347W        W 5091   8.131   6.067   3.405 -0.1328  0.1752 -0.1444
 1348W        W 5092   2.555   2.521   2.714 -0.0782  0.0579  0.1196
 1349W        W 5093   9.130   2.445   2.650  0.2209  0.2211  0.0362
 1350W        W 5094   8.784   7.898   8.549 -0.0857 -0.1505  0.2537
 1351W        W 5095   9.077   4.465   9.025 -0.1937  0.0275  0.0397
 1352W        W 5096   6.140   6.754   3.523  0.1304  0.0429 -0.2542
 1353W        W 5097   0.608   1.832   2.356  0.2863  0.0653  0.0385
 1354W        W 5098   7.206   3.475   9.533 -0.0246 -0.0633  0.2436
 1355W        W 5099   3.937   9.177   3.180 -0.2095  0.0037  0.0001
 1356W        W 5100   3.309   3.776  11.814  0.3765  0.3256 -0.1845
 1357W        W 5101   5.817   3.747  10.334 -0.1995 -0.3356  0.0889
 1358W        W 5102   5.989   0.464  10.370 -0.1834  0.4373 -0.0169
 1359W        W 5103   0.264   8.719   0.807 -0.1316 -0.1236  0.0026
 1360W        W 5104   1.934   2.890   0.770  0.1176  0.0938 -0.0842
 1361W        W 5105   7.402   7.015  11.753 -0.0733  0.1655 -0.0712
 1362W        W 5106   0.402   1.614   0.835 -0.3858 -0.3045  0.2164
 1363W        W 5107   4.907   3.429   0.249 -0.0078 -0.0678  0.1429
 1364W        W 5108   0.157   9.087  11.510  0.1411 -0.0878  0.0551
 1365W        W 5109   6.745   9.699   1.436  0.0858 -0.2831 -0.0969
 1366W        W 5110   6.300   0.719   0.956  0.1500  0.1158 -0.1851
 1367W        W 5111   8.614   0.874   2.743 -0.4862 -0.0736 -0.2422
 1368W        W 5112   4.792   5.836   1.672 -0.2318 -0.0056 -0.1732
 1369W        W 5113   9.833   5.269   2.626 -0.2181 -0.3439  0.0940
 1370W        W 5114   4.931   5.046   3.668 -0.1280 -0.0661  0.1247
 1371W        W 5115   6.724   9.550   3.495  0.0732  0.1999 -0.1293
 1372W        W 5116   2.009   2.974   3.855 -0.2710 -0.0216 -0.1643
 1373W        W 5117   2.196   3.099   1.880  0.0035 -0.0819  0.0562
 1374W        W 5118   5.138   9.301   9.182 -0.3211 -0.0121 -0.2443
 1375W        W 5119   3.678   1.901  12.063  0.1146 -0.2244  0.1408
 1376W        W 5120   7.157   2.861   2.541  0.1326  0.1769  0.0164
 1377W        W 5121   5.135   6.446   8.782  0.0050  0.0229  0.2498
 1378W        W 5122   9.405   9.620   2.514  0.1998  0.0116  0.0631
 1379W        W 5123   0.186   9.112  10.719  0.0296 -0.0762 -0.0950
 1380W        W 5124   4.028   2.796  10.673 -0.1620  0.0440  0.1546
 1381W        W 5125   1.529   6.415   3.277 -0.4370 -0.1566  0.1819
 1382W        W 5126   3.920   0.687  10.482 -0.1802  0.2919  0.0873
 1383W        W 5127   1.839   2.689   7.805  0.1529 -0.0125  0.0324
 1384W        W 5128   5.338   1.640   3.872  0.1362 -0.0155  0.2467
 1385W        W 5129   5.588   4.854   1.176  0.1273  0.1283 -0.0728
 1386W        W 5130   6.311   5.701   8.188  0.0918  0.1707 -0.2629
 1387W        W 5131   7.826   2.413   8.815 -0.2167 -0.1892 -0.3237
 1388W        W 5132   4.613   6.415   9.581  0.3303 -0.3514  0.0130
 1389W        W 5133   4.387   9.394  10.307  0.4724  0.0751 -0.1348
 1390W        W 5134   2.372   9.860  11.672  0.1683 -0.1061  0.1234
 1391W        W 5135   7.597   0.016  10.931 -0.0375 -0.1665  0.0396
 1392W        W 5136   0.247   0.022   3.470 -0.1056  0.0615  0.3161
 1393W        W 5137   4.929   2.918  10.208  0.2132 -0.0831  0.1971
 1394W        W 5138   0.005   0.766  10.806  0.2568  0.1316  0.0615
 1395W        W 5139   8.893   4.220   3.749  0.1028  0.2835 -0.0854
 1396W        W 5140   3.591   2.521   2.028  0.0553  0.1529  0.0243
 1397W        W 5141   2.032   4.468   0.378 -0.0435 -0.2105  0.0953
 1398W        W 5142   1.092   1.336   3.010  0.1667 -0.2922 -0.3195
 1399W        W 5143   5.419   9.522   1.406 -0.2689 -0.0145  0.2033
 1400W        W 5144   4.390   3.201   1.192  0.2009 -0.1582 -0.5629
 1401W        W 5145   9.264   5.181  10.870 -0.0951 -0.0441 -0.0057
 1402W        W 5146   4.674   4.406   8.819 -0.0583 -0.0610  0.0780
 1403W        W 5147   3.385   8.099   9.936  0.1464 -0.2675 -0.0660
 1404W        W 5148   0.498   4.921  10.320  0.0229 -0.1128  0.2631
 1405W        W 5149   7.358   3.490  12.350 -0.0014  0.2433  0.0793
 1406W        W 5150   0.957   6.795   3.060  0.0361 -0.0414  0.1286
 1407W        W 5151   8.048   9.231   2.181 -0.1581  0.1329  0.1796
 1408W        W 5152   4.722   1.096   9.916  0.0323 -0.1705  0.0155
 1409W        W 5153   9.040   6.928   2.213 -0.0216  0.2317  0.2995
 1410W        W 5154   8.430   2.725  10.804  0.1106 -0.1159 -0.0789
 1411W        W 5155   0.681   8.982   4.342  0.1071  0.1433  0.3104
 1412W        W 5156   5.682   8.317   0.986  0.0490  0.1046 -0.3162
 1413W        W 5157   9.192   9.531  10.425 -0.1221 -0.1906  0.0520
 1414W        W 5158   3.547   8.485   9.683 -0.3682  0.1948 -0.1121
 1415W        W 5159   2.820   4.754   3.130  0.0268  0.0587 -0.3351
 1416W        W 5160   9.138   6.476  11.503 -0.1825  0.1477 -0.3512
 1417W        W 5161   6.353   7.303   9.093 -0.1027  0.1989  0.2223
 1418W        W 5162   9.233   5.952   0.721 -0.2360  0.0051  0.2985
 1419W        W 5163   7.435   5.081  10.535 -0.1585  0.1933 -0.1262
 1420W        W 5164   1.165   2.165   0.460 -0.2219  0.2087  0.0854
 1421W        W 5165   3.115   5.230   1.048  0.5263 -0.1181 -0.1554
 1422W        W 5166   3.993   8.168   3.452  0.0436 -0.0897 -0.1790
 1423W        W 5167   4.737   7.723  11.328 -0.2712 -0.1043 -0.1678
 1424W        W 5168   0.459   6.275   9.155  0.1375 -0.2530 -0.0021
 1425W        W 5169   6.211   1.611   2.621  0.1172  0.1577 -0.0178
 1426W        W 5170   7.243   5.695   2.191  0.2438  0.0103  0.2613
 1427W        W 5171   7.034   7.729   3.134 -0.3632 -0.3995  0.0624
 1428W        W 5172   4.449   8.507   8.739 -0.0753  0.1586 -0.3448
 1429W        W 5173   2.053   0.189   2.334 -0.0662 -0.0294 -0.0044
 1430W        W 5174   7.502   8.900  10.789  0.1754  0.1341 -0.0952
 1431W        W 5175   2.322   7.206   0.526  0.5862 -0.1675 -0.3740
 1432W        W 5176   7.684   4.349  12.371 -0.3637  0.0640  0.3106
 1433W        W 5177   4.540   3.224   2.651  0.0276  0.1257  0.3403
 1434W        W 5178   4.684   0.581  12.053 -0.2004 -0.0307  0.0226
 1435W        W 5179   7.952   8.003   1.551 -0.1987 -0.0009 -0.4533
 1436W        W 5180   0.099   0.305   2.170 -0.1353  0.1865  0.0627
 1437W        W 5181   0.619   8.945   2.636 -0.3480  0.1798  0.0700
 1438W        W 5182   5.549   2.728  10.347  0.1422 -0.2571 -0.1133
 1439W        W 5183   4.661   9.765   9.138  0.1373 -0.4497 -0.3042
 1440W        W 5184   4.324   6.482  11.205  0.0426 -0.1005 -0.3068
 1441W        W 5185   2.815   7.277   9.863  0.0261 -0.1504  0.0680
 1442W        W 5186   0.652   5.184  10.721  0.1183  0.1036  0.0076
 1443W        W 5187   0.494   0.304   2.518  0.2477  0.1226 -0.3566
 1444W        W 5188   7.677   6.488   0.686  0.2579 -0.2350 -0.1942
 1445W        W 5189   4.856   4.843   0.472  0.1271 -0.1803 -0.0812
 1446W        W 5190   4.140   4.723  12.266  0.0605  0.0766 -0.2136
 1447W        W 5191   9.342   7.440  11.440 -0.4250  0.0614  0.3496
 1448W        W 5192   9.720   5.915   3.613 -0.0855  0.2035  0.1544
 1449W        W 5193   8.128   0.546   9.747 -0.1735  0.0240  0.0126
 1450W        W 5194   9.570   9.779  11.970 -0.0115  0.1666  0.0186
 1451W        W 5195   1.984   6.675  10.268  0.1801  0.3377  0.2307
 1452W        W 5196   9.796   0.345   3.357  0.3931 -0.0678  0.0112
 1453W        W 5197   8.173   6.506   0.495  0.4907 -0.0405 -0.0252
 1454W        W 5198   1.893   4.883  12.700 -0.1357 -0.2678  0.2961
 1455W        W 5199   3.892   8.466   8.932  0.4431  0.0588  0.0220
 1456W        W 5200   4.050   4.597  10.310 -0.2913 -0.0962 -0.1830
 1457W        W 5201   6.640   6.330  10.191  0.0883  0.1352  0.0574
 1458W        W 5202   5.882   0.626   5.051  0.1169  0.1524 -0.0975
 1459W        W 5203   7.299   6.862   0.701  0.0947 -0.0342 -0.0036
 1460W        W 5204   6.133   6.811  12.956  0.2320  0.0304 -0.2380
 1461W        W 5205   8.682   5.930  12.716 -0.0897 -0.3214 -0.0420
 1462W        W 5206   2.931   8.463   1.763 -0.1976  0.1450  0.2052
 1463W        W 5207   9.048   4.518   4.205 -0.0668  0.1082  0.1217
 1464W        W 5208   0.309   4.831   2.775  0.0290  0.1169 -0.4779
 1465W        W 5209   1.043   0.348  11.763  0.2606 -0.2030  0.0378
 1466W        W 5210   6.474   4.944   8.736 -0.0781 -0.1347  0.0238
 1467W        W 5211   2.092   9.643   3.360  0.0928  0.0881 -0.3032
 1468W        W 5212   6.003   3.648   9.128  0.2097  0.1221  0.0543
 1469W        W 5213   2.447   6.501  12.446  0.0796 -0.3453  0.1177
 1470W        W 5214   0.972   3.350   8.593  0.0403  0.0530 -0.0025
 1471W        W 5215   8.729   8.664   1.836 -0.1141  0.2294  0.0201
 1472W        W 5216   2.028   4.883   2.877  0.3233 -0.0337 -0.0071
 1473W        W 5217   4.614   6.410   2.891 -0.1851  0.2250  0.2958
 1474W        W 5218   1.922   4.949   0.293 -0.3134  0.2392 -0.3299
 1475W        W 5219   3.798   7.583   1.187  0.1803 -0.1364 -0.3313
 1476W        W 5220   3.087   7.615   8.675 -0.2078  0.0709 -0.2233
 1477W        W 5221   7.832   0.120   2.826  0.0869 -0.1583 -0.0531
 1478W        W 5222   6.676   7.715   3.471 -0.0040  0.0979 -0.3709
 1479W        W 5223   9.790   9.334   2.401 -0.2298 -0.0306 -0.1344
 1480W        W 5224   6.173   8.611  12.811 -0.1192  0.2160  0.1761
 1481W        W 5225   4.321   6.894  10.933 -0.0245 -0.1870 -0.4580
 1482W        W 5226   2.925   0.507   0.596  0.3753  0.0203 -0.0535
 1483W        W 5227   3.301   8.613   3.702 -0.3268  0.2170  0.0902
 1484W        W 5228   8.248   3.501   9.808 -0.1600  0.2911  0.2484
 1485W        W 5229   4.609   1.323   3.201  0.2734  0.1823 -0.2372
 1486W        W 5230   1.114   9.175  10.886  0.1850  0.3131 -0.3150
 1487W        W 5231   4.605   3.910  12.354 -0.1546  0.0108  0.0188
 1488W        W 5232   4.904   7.372   9.117 -0.0684  0.1452  0.0270
 1489W        W 5233   6.982   6.538   4.660  0.0703  0.0338 -0.2488
 1490W        W 5234   3.704   1.179   2.010  0.1754 -0.1411  0.2713
 1491W        W 5235   2.211   2.480  10.840 -0.0846 -0.0256 -0.0532
 1492W        W 5236   0.964   6.320   9.264 -0.2180  0.0375  0.2163
 1493W        W 5237   8.857   0.376  11.995  0.1085 -0.1964  0.2607
 1494W        W 5238   1.825   5.385   4.449 -0.0169  0.2787 -0.1399
 1495W        W 5239   5.550   8.554   2.680 -0.3173  0.0034 -0.1712
 1496W        W 5240   8.299   8.075   0.685 -0.0090  0.1759 -0.0255
 1497W        W 5241   8.823   2.673  11.114  0.1363 -0.3498 -0.1711
 1498W        W 5242   3.941   8.747  12.037 -0.0023  0.0914 -0.1502
 1499W        W 5243   4.230   9.323  12.693  0.1631  0.0402 -0.0379
 1500W        W 5244   2.492   1.806  12.356 -0.1368  0.4211  0.0259
 1501W        W 5245   4.898   3.197   3.343  0.0339  0.0127 -0.0525
 1502W        W 5246   9.728   9.779   2.151  0.0399  0.1726 -0.0188
 1503W        W 5247   0.585   1.939   0.406 -0.3344  0.0165 -0.1043
 1504W        W 5248   5.862   0.201   1.916 -0.1468 -0.0324 -0.1619
 1505W        W 5249   9.679   3.912   9.407  0.1788  0.0744  0.0930
 1506W        W 5250   1.843   1.001   4.359 -0.2033  0.0025 -0.1159
 1507W        W 5251   0.316   4.774   1.135 -0.1185  0.3737 -0.0541
 1508W        W 5252   4.356   5.867   3.847  0.0399 -0.2119 -0.4401
 1509W        W 5253   2.722   3.418   8.743  0.0296  0.0928  0.0589
 1510W        W 5254   9.449   5.537  12.573 -0.1929 -0.1898 -0.3305
 1511W        W 5255   4.848   0.801  12.919  0.3078 -0.1054 -0.0030
 1512W        W 5256   0.115   1.221  10.804 -0.1939  0.1681 -0.3563
 1513W        W 5257   2.069   6.657  10.746  0.4167  0.0477 -0.1093
 1514W        W 5258   0.258   5.344  10.410 -0.0545 -0.0345  0.0473
 1515W        W 5259   6.352   3.284   0.255  0.1609 -0.1265 -0.1557
 1516W        W 5260   5.214   5.281   1.062  0.2715 -0.1091 -0.2207
 1517W        W 5261   8.059   6.999   2.464  0.3566 -0.2871 -0.4813
 1518W        W 5262   5.317   1.896   2.999  0.1983  0.2724 -0.1201
 1519W        W 5263   8.851   5.876   4.554 -0.1128  0.0163 -0.1691
 1520W        W 5264   8.874   5.255   2.709 -0.0951 -0.1549  0.1207
 1521W        W 5265   3.407   3.636  11.366 -0.1270  0.0218 -0.1682
 1522W        W 5266   5.214   1.326   1.638  0.2203  0.0255 -0.1280
 1523W        W 5267   8.441   4.897   9.322  0.3167 -0.1471  0.2449
 1524W        W 5268   3.896   1.441  10.328 -0.0162  0.2511  0.0915
 1525W        W 5269   2.801   1.369   8.870 -0.2637 -0.4268 -0.2305
 1526W        W 5270   6.162   9.631  11.087 -0.3056 -0.0056  0.0561
 1527W        W 5271   6.372   5.953   3.362  0.0592  0.1405  0.2333
 1528W        W 5272   8.832   1.806   0.716 -0.2028 -0.2068  0.1878
 1529W        W 5273   9.834   3.664   1.135  0.1174  0.2082  0.1785
 1530W        W 5274   2.223   0.961   3.852 -0.1900  0.1142 -0.0551
 1531W        W 5275   1.317   4.715   4.016  0.2403  0.0014 -0.0574
 1532W        W 5276   0.988   0.504   4.576  0.2824  0.3223 -0.1374
 1533W        W 5277   1.762   5.048  11.568  0.0292  0.1955 -0.1068
 1534W        W 5278   8.145   0.263  11.429  0.0438  0.1353 -0.0117
 1535W        W 5279   0.280   3.979   1.457  0.1207 -0.3210  0.0839
 1536W        W 5280   0.553   0.672   1.552  0.2096  0.0000 -0.1432
 1537W        W 5281   7.624   6.785   8.892 -0.1643  0.0953 -0.0228
 1538W        W 5282   2.372   2.000  10.614  0.2101  0.1365  0.1882
 1539W        W 5283   1.031   4.549   4.424  0.1331 -0.1923  0.2235
 1540W        W 5284   3.256   3.156   1.493  0.2550 -0.1765 -0.0480
 1541W        W 5285   0.595   7.997   9.648  0.1070  0.2580  0.0737
 1542W        W 5286   3.795   8.267   0.210  0.2648  0.1173 -0.3235
 1543W        W 5287   2.355   5.383   9.464 -0.0752 -0.0384 -0.0217
 1544W        W 5288   1.455   9.100  12.606 -0.1340 -0.0233  0.2851
 1545W        W 5289   3.689   9.534   3.529  0.1563 -0.0845  0.0579
 1546W        W 5290   2.684   0.125  10.554  0.0164 -0.3560 -0.1801
 1547W        W 5291   7.940   5.025   0.101  0.2540  0.0635  0.3496
 1548W        W 5292   5.142   4.230   4.193 -0.0576  0.0404 -0.1035
 1549W        W 5293   9.696   4.912   9.703 -0.2654 -0.2813 -0.3480
 1550W        W 5294   8.766   6.090  10.105  0.2277 -0.3297  0.0101
 1551W        W 5295   8.095   3.609  12.953  0.6095 -0.1825 -0.2822
 1552W        W 5296   6.766   0.487   0.097  0.0698  0.0651  0.0126
 1553W        W 5297   8.126   2.690   9.190 -0.1269  0.4625  0.1481
 1554W        W 5298   6.320   6.165   8.582  0.0812 -0.0710 -0.2457
 1555W        W 5299   9.582   3.750   2.119  0.0614 -0.3014 -0.0496
 1556W        W 5300   8.405   3.193  12.135 -0.1223  0.1313  0.0113
 1557W        W 5301   0.066   4.302   1.120  0.0827  0.1399 -0.0815
 1558W        W 5302   6.426   7.034  11.379  0.0323 -0.3501  0.0391
 1559W        W 5303   5.709   3.252  10.685 -0.0541 -0.1956 -0.1226
 1560W        W 5304   9.742   5.761   2.737  0.0153  0.0705  0.0204
 1561W        W 5305   2.619   2.527   1.740  0.0398  0.1651  0.4069
 1562W        W 5306   3.655   8.413  10.404  0.1359 -0.1907  0.2181
 1563W        W 5307   1.261   5.026   0.956 -0.1289  0.0496  0.0592
 1564W        W 5308   0.521   7.471   1.721  0.1721  0.0930 -0.1834
 1565W        W 5309   5.342   8.802   9.041  0.0683  0.4057  0.2879
 1566W        W 5310   7.829   5.637  12.689 -0.2052 -0.1030  0.2053
 1567W        W 5311   3.809   0.119  11.188  0.1310 -0.0591  0.0153
 1568W        W 5312   3.395   6.176   3.031  0.2208  0.0984 -0.0561
 1569W        W 5313   8.221   8.416   1.749 -0.2234 -0.0600 -0.0603
 1570W        W 5314   6.967   8.756   2.558  0.2262  0.0876 -0.1973
 1571W        W 5315   0.950   3.956  11.104  0.4788  0.2884  0.0781
 1572W        W 5316   8.366   1.935  10.197  0.0429  0.1718  0.0275
 1573W        W 5317   8.543   0.891   1.408 -0.0017 -0.1600  0.0775
 1574W        W 5318   4.069   6.263   9.402 -0.3672  0.4759  0.1190
 1575W        W 5319   1.197   3.149   2.555  0.2674  0.1394 -0.0400
 1576W        W 5320   3.373   9.637   9.171 -0.0723  0.1495  0.0987
 1577W        W 5321   4.445   7.156  11.787  0.2417  0.1202 -0.0530
 1578W        W 5322   2.654   1.024  11.193 -0.0768  0.1249  0.0649
 1579W        W 5323   3.183   8.558  10.153 -0.0409 -0.0510 -0.1019
 1580W        W 5324   0.684   5.673  12.832  0.2948 -0.1509  0.2568
 1581W        W 5325   8.355   0.045   2.989  0.1677 -0.0533  0.1674
 1582W        W 5326   1.507   0.199   2.209 -0.2323 -0.1695  0.0256
 1583W        W 5327   0.637   6.144   1.326  0.0003 -0.0569 -0.1475
 1584W        W 5328   1.556   3.846   3.969  0.1330  0.0971 -0.2816
 1585W        W 5329   9.631   3.214   0.937  0.2911 -0.0566 -0.1425
 1586W        W 5330   9.812   7.605  11.147 -0.0649 -0.1876 -0.1094
 1587W        W 5331   6.097   2.348  12.583  0.2885  0.0717  0.4035
 1588W        W 5332   2.237   3.128  10.943 -0.0679 -0.1273  0.0585
 1589W        W 5333   2.559   4.184   3.224 -0.0144  0.0618  0.2232
 1590W        W 5334   2.837   1.874  10.863  0.0517 -0.2157 -0.1306
 1591W        W 5335   1.638   6.937  10.040 -0.1352 -0.1685 -0.1534
 1592W        W 5336   2.468   7.280   1.417 -0.0688 -0.2627  0.2645
 1593W        W 5337   7.169   4.624   1.977 -0.1204  0.1689  0.0786
 1594W        W 5338   2.474   5.595  12.178  0.1120 -0.2809  0.1385
 1595W        W 5339   4.629   3.883   3.978  0.2252 -0.0297  0.1514
 1596W        W 5340   5.218   5.872  11.497  0.0457  0.1864 -0.0333
 1597W        W 5341   4.087   1.686  11.276 -0.1074 -0.0619  0.1765
 1598W        W 5342   7.675   5.711   3.622 -0.2200 -0.2070 -0.3124
 1599W        W 5343   8.409   7.851  12.935  0.0268  0.1279 -0.1518
 1600W        W 5344   5.492   0.020   2.287 -0.0825  0.0687 -0.1063
 1601W        W 5345   5.777   7.508   0.740  0.2406  0.2502 -0.3170
 1602W        W 5346   2.957   0.451   9.164  0.0173  0.0021 -0.0810
 1603W        W 5347   6.584   3.719   2.549  0.1745  0.0837  0.0433
 1604W        W 5348   7.068   9.769  12.148 -0.1395  0.0945  0.3011
 1605W        W 5349   8.287   0.682   9.186  0.1312  0.0932  0.0096
 1606W        W 5350   4.077   3.231   1.938  0.1561  0.0216 -0.1611
 1607W        W 5351   0.738   3.763   1.444  0.2116 -0.3068  0.0617
 1608W        W 5352   7.936   0.972  10.253  0.1869  0.2118 -0.2287
 1609W        W 5353   8.754   0.201   0.602 -0.2306 -0.0339  0.0272
 1610W        W 5354   6.376   6.094  12.164  0.0960  0.0083 -0.1572
 1611W        W 5355   0.045   2.377   2.077 -0.1517  0.1868 -0.2178
 1612W        W 5356   6.717   6.910   0.636 -0.1884 -0.0979 -0.1718
 1613W        W 5357   7.825   7.666  12.275 -0.1287  0.1138 -0.1160
 1614W        W 5358   1.157   7.382  11.317  0.0304 -0.4056 -0.1995
 1615W        W 5359   7.889   4.807   9.043  0.0258 -0.2919  0.0574
 1616W        W 5360   9.801   6.554   4.507  0.2492 -0.1216  0.0470
 1617W        W 5361   6.785   7.030   8.255  0.0351 -0.1345 -0.1314
 1618W        W 5362   3.273   3.578   3.481  0.2045 -0.1856  0.0748
 1619W        W 5363   1.024   1.198  11.245  0.3839 -0.0327  0.0345
 1620W        W 5364   4.354   3.278   3.548 -0.3334  0.1215  0.0886
 1621W        W 5365   2.795   7.706   3.695  0.0680 -0.3235 -0.0890
 1622W        W 5366   8.444   4.329   3.644  0.2244 -0.3315 -0.2845
 1623W        W 5367   7.756   9.409  12.528  0.0951  0.2749 -0.2010
 1624W        W 5368   4.270   2.696   9.760  0.1690 -0.1516  0.1520
 1625W        W 5369   3.522   9.327  11.319  0.0259 -0.1620  0.1381
 1626W        W 5370   8.925   6.853   0.399  0.1741 -0.0417 -0.1070
 1627W        W 5371   1.867   0.844   0.690  0.0348  0.1723 -0.0753
 1628W        W 5372   4.435   5.261  11.166 -0.1241 -0.2280  0.2001
 1629W        W 5373   3.351   4.419   3.007  0.3400 -0.0304 -0.0601
 1630W        W 5374   9.156   8.835   9.594 -0.0621 -0.2419 -0.1766
 1631W        W 5375   8.446   3.915   1.240  0.3672 -0.0415  0.1914
 1632W        W 5376   4.303   1.372  10.056 -0.0089  0.0499  0.0809
 1633W        W 5377   5.661   4.126   1.243  0.2119  0.3810 -0.0810
 1634W        W 5378   2.701   0.858   2.529  0.1862 -0.0275  0.2273
 1635W        W 5379   3.849   9.594   0.779 -0.1630 -0.0580 -0.2424
 1636W        W 5380   5.337   8.282  10.887  0.0564 -0.0770  0.0419
 1637W        W 5381   1.793   4.482  12.410 -0.0852  0.1404 -0.0638
 1638W        W 5382   5.291   9.754   3.030  0.0814  0.0924  0.3194
 1639W        W 5383   0.278   9.709   9.909  0.1450  0.2129  0.0768
 1640W        W 5384   0.210   1.330  12.115 -0.1452 -0.1061 -0.3280
 1641W        W 5385   9.271   7.320   4.515 -0.1037  0.0812  0.0782
 1642W        W 5386   1.591   3.686  10.834  0.0396  0.0406  0.2464
 1643W        W 5387   6.922   7.924  12.092 -0.3227 -0.2367  0.3238
 1644W        W 5388   4.979   2.413   2.784 -0.1508 -0.0388  0.2235
 1645W        W 5389   1.402   1.388   0.790 -0.0604  0.2444 -0.0163
 1646W        W 5390   7.786   7.735   8.899 -0.1342  0.2856 -0.4207
 1647W        W 5391   1.642   6.477  12.278 -0.2066  0.3239  0.2115
 1648W        W 5392   2.444   8.491   1.648 -0.1392 -0.1150 -0.2613
 1649W        W 5393   7.856   6.177  12.490 -0.0372 -0.2506 -0.3194
 1650W        W 5394   5.396   2.930  12.706  0.1176 -0.4989  0.0495
 1651W        W 5395   7.200   7.124  10.532 -0.2267 -0.1656  0.0646
 1652W        W 5396   1.846   9.191   8.186 -0.1018  0.0754  0.4057
 1653W        W 5397   0.179   8.342   9.726  0.0691  0.0403 -0.1074
 1654W        W 5398   0.103   9.776  11.806  0.2144  0.0919  0.0631
 1655W        W 5399   0.152   7.841   9.431 -0.0023 -0.0172  0.0825
 1656W        W 5400   4.051   8.718  10.617  0.1811 -0.2417 -0.2455
 1657W        W 5401   6.941   5.361   0.821  0.2076  0.0435 -0.0344
 1658W        W 5402   2.029   9.457  10.460  0.0443 -0.1971  0.1986
 1659W        W 5403   2.164   0.312  10.877 -0.2561 -0.2473 -0.2771
 1660W        W 5404   7.355   6.035   4.009  0.0847 -0.0955  0.3125
 1661W        W 5405   6.376   8.488   3.090 -0.0751  0.0576 -0.1753
 1662W        W 5406   8.771   3.597   4.011 -0.0125 -0.3330  0.2933
 1663W        W 5407   5.489   9.081   1.721  0.0991 -0.1101  0.0177
 1664W        W 5408   8.816   6.313  12.367 -0.0039 -0.2780  0.2926
 1665W        W 5409   3.001   2.244   2.925 -0.1867 -0.2006  0.0936
 1666W        W 5410   8.434   6.467   1.782  0.0784 -0.0088 -0.3490
 1667W        W 5411   7.849   5.332  11.023  0.3662 -0.0821 -0.0904
 1668W        W 5412   9.588   2.370  12.819  0.0407  0.0488  0.0754
 1669W        W 5413   8.943   6.581   2.928  0.2786  0.1698 -0.3818
 1670W        W 5414   3.460   3.400   4.573  0.2138  0.3742  0.1975
 1671W        W 5415   2.577   3.487  10.739 -0.1390 -0.0316 -0.1644
 1672W        W 5416   3.568   7.992   3.211  0.1071  0.0411 -0.0007
 1673W        W 5417   1.213   9.724  12.060  0.1814 -0.1029 -0.2214
 1674W        W 5418   9.743   4.437   2.244 -0.0912 -0.3090  0.2352
 1675W        W 5419   3.805   0.050  10.659  0.2419  0.1328 -0.1803
 1676W        W 5420   2.761   7.042   1.076  0.0054 -0.1320  0.2472
 1677W        W 5421   7.298   2.761  11.882  0.2352  0.3833  0.0330
 1678W        W 5422   0.962   3.811  12.288 -0.3722  0.1447 -0.0388
 1679W        W 5423   6.153   8.011   3.251  0.3656 -0.1585 -0.0890
 1680W        W 5424   7.806   1.583   0.233 -0.0614 -0.0305  0.0372
 1681W        W 5425   9.245   3.330   5.339  0.0663  0.2251  0.0948
 1682W        W 5426   6.299   3.892   3.007  0.0567  0.0471  0.2239
 1683W        W 5427   0.627   3.269   3.829  0.1937  0.1770 -0.3524
 1684W        W 5428   9.661   4.461  12.527  0.0628 -0.2412 -0.1590
 1685W        W 5429   5.248   3.506  11.578 -0.0582  0.0811 -0.0027
 1686W        W 5430   7.683   4.452   2.926 -0.1252 -0.1941 -0.2500
 1687W        W 5431   3.080   9.117   3.730  0.0088  0.1534 -0.0681
 1688W        W 5432   8.473   6.822  12.298  0.0187  0.3495 -0.1173
 1689W        W 5433   1.668   2.038   2.525 -0.0971 -0.0925  0.2275
 1690W        W 5434   8.776   0.874   3.678 -0.2135 -0.0306 -0.0475
 1691W        W 5435   8.840   9.574   2.144 -0.0771 -0.0433  0.0207
 1692W        W 5436   3.125   5.878   1.028  0.0167  0.3875  0.1718
 1693W        W 5437   4.468   2.032   0.439  0.1359  0.1589  0.2050
 1694W        W 5438   4.141   9.129   0.899 -0.2425  0.0639 -0.1000
 1695W        W 5439   4.918   7.380  12.887  0.2015 -0.0801  0.1213
 1696W        W 5440   9.382   9.041  12.651  0.0283 -0.0561  0.1064
 1697W        W 5441   1.253   6.955   1.380  0.0663 -0.0626  0.0725
 1698W        W 5442   7.073   0.850   9.825  0.1732 -0.2530  0.2160
 1699W        W 5443   5.357   2.878  11.716 -0.1466 -0.0793 -0.2149
 1700W        W 5444   9.236   3.776   3.757  0.0206 -0.2482 -0.2612
 1701W        W 5445   1.044   6.747   0.043 -0.1724 -0.3569 -0.1851
 1702W        W 5446   4.354   7.445  11.303  0.0869 -0.0125  0.1967
 1703W        W 5447   5.379   8.739   0.957  0.1153  0.2937 -0.0259
 1704W        W 5448   8.999   4.942   1.771  0.0618 -0.1606 -0.5419
 1705W        W 5449   9.091   1.119   9.483 -0.2500  0.1781  0.0855
 1706W        W 5450   0.406   7.941   0.189  0.2734  0.2547 -0.2681
 1707W        W 5451   7.464   7.734   2.932  0.0612  0.0646  0.0802
 1708W        W 5452   6.695   9.791   0.879 -0.1136  0.1204 -0.2843
 1709W        W 5453   3.492   9.083  12.912 -0.1459  0.1733  0.0769
 1710W        W 5454   0.283   6.395  11.714 -0.0979 -0.0063 -0.1566
 1711W        W 5455   0.150   4.078  10.253 -0.3853  0.0403 -0.1318
 1712W        W 5456   0.340   2.833   2.126  0.0584  0.1381  0.2827
 1713W        W 5457   4.198   7.990  11.379 -0.0577  0.1918 -0.0598
 1714W        W 5458   9.039   3.993   4.704  0.1430  0.2659 -0.1412
 1715W        W 5459   1.223   8.354  10.511  0.3206  0.0343 -0.3682
 1716W        W 5460   5.830   5.264   4.262  0.1927  0.0232 -0.3338
 1717W        W 5461   2.181   0.617   4.284  0.1649  0.1418  0.3711
 1718W        W 5462   1.553   1.299  10.375  0.2801  0.0899  0.1085
 1719W        W 5463   7.129   5.900  12.751 -0.0008  0.0760  0.0407
 1720W        W 5464   4.418   9.692  12.319 -0.1389  0.0376 -0.0143
 1721W        W 5465   4.175   1.812  11.832  0.0943 -0.0471  0.0173
 1722W        W 5466   5.192   1.452   2.132  0.0664 -0.0785 -0.0630
 1723W        W 5467   8.926   7.919   4.503 -0.3699 -0.0361 -0.1114
 1724W        W 5468   2.817   8.473   2.253 -0.0165 -0.1944  0.2452
 1725W        W 5469   3.989   7.133   9.221 -0.0308  0.0343 -0.0743
 1726W        W 5470   3.332   6.057   8.795  0.0851  0.0659 -0.3817
 1727W        W 5471   0.839   7.724  11.211  0.0181  0.0493  0.0971
 1728W        W 5472   2.508   1.658   3.309 -0.0774  0.0869 -0.1013
 1729W        W 5473   5.684   8.686  12.741  0.2891  0.0418 -0.1181
 1730W        W 5474   1.338   9.643   2.392 -0.2796 -0.0273  0.2196
 1731W        W 5475   0.924   2.919  10.845  0.1735  0.3162 -0.1229
 1732W        W 5476   5.620   4.206   0.092  0.1403 -0.2615 -0.2838
 1733W        W 5477   4.691   8.315   2.893  0.1821  0.4416  0.0304
 1734W        W 5478   8.131   2.063   2.182 -0.1176  0.1038 -0.0871
 1735W        W 5479   4.219   0.064   9.338  0.1613  0.0803 -0.4613
 1736W        W 5480   0.548   3.723   4.056 -0.5932  0.0601 -0.1513
 1737W        W 5481   6.043   1.904   1.707 -0.1071 -0.1678 -0.0332
 1738W        W 5482   9.224   1.942  10.616 -0.1321  0.1968  0.1774
 1739W        W 5483   2.780   0.709   3.013 -0.0109  0.1530  0.0598
 1740W        W 5484   1.644   5.118   3.094  0.3973 -0.0658 -0.3636
 1741W        W 5485   4.258   8.359   3.126  0.0618 -0.1433 -0.1424
 1742W        W 5486   3.011   7.386   3.235  0.3422  0.0393  0.0743
 1743W        W 5487   0.346   4.179   2.428 -0.1723 -0.0884  0.1503
 1744W        W 5488   9.655   4.405  10.376  0.1954  0.3347 -0.1597
 1745W        W 5489   7.333   4.686   9.094 -0.1287  0.3127  0.0806
 1746W        W 5490   1.288   6.378   4.347  0.3028 -0.2362 -0.1274
 1747W        W 5491   0.643   8.878  10.622  0.3204 -0.1267  0.0792
 1748W        W 5492   1.183   6.682  10.125  0.0917  0.0850  0.2591
 1749W        W 5493   0.197   2.429   4.765  0.1686  0.1466  0.1521
 1750W        W 5494   9.213   5.604  12.083 -0.2181  0.0838  0.0279
 1751W        W 5495   2.201   4.351  12.000  0.1285 -0.3062  0.0085
 1752W        W 5496   3.981   1.624   2.408 -0.0862 -0.0510  0.2365
 1753W        W 5497   1.177   9.764   2.931  0.2013  0.2461 -0.1204
 1754W        W 5498   9.641   7.019   2.914  0.0447 -0.0751 -0.3722
 1755W        W 5499   2.540   8.403   9.310  0.1632 -0.0376 -0.0933
 1756W        W 5500   3.277   4.328  12.628  0.0628 -0.0799  0.1326
 1757W        W 5501   6.925   8.414  11.543 -0.2431  0.2510 -0.2218
 1758W        W 5502   6.918   0.718  10.307 -0.1351 -0.0556 -0.1857
 1759W        W 5503   9.241   3.809   0.812  0.1941  0.0303 -0.0673
 1760W        W 5504   9.272   3.313   1.658  0.1236 -0.0326 -0.1835
 1761W        W 5505   9.366   9.426   2.058 -0.1345 -0.1758 -0.0111
 1762W        W 5506   5.410   0.621   1.099  0.0830  0.1093 -0.0920
 1763W        W 5507   1.597   2.211   1.197 -0.2203  0.1979  0.0529
 1764W        W 5508   2.202   6.342   4.793  0.0250 -0.2482  0.1972
 1765W        W 5509   2.076   2.709   0.196 -0.2308 -0.1062  0.2423
 1766W        W 5510   3.765   8.379  12.274  0.2501 -0.0444 -0.2144
 1767W        W 5511   0.636   0.003  12.011  0.1388 -0.3571  0.1052
 1768W        W 5512   0.630   3.591   5.051  0.2077 -0.1624 -0.0071
 1769W        W 5513   4.842   2.771  11.657 -0.1429  0.2409 -0.0352
 1770W        W 5514   0.564   8.687   9.398 -0.1644 -0.1530  0.2793
 1771W        W 5515   0.832   1.672  11.483  0.0315 -0.2074  0.1309
 1772W        W 5516   2.683   0.561   1.698 -0.0518 -0.1807 -0.0139
 1773W        W 5517   0.973   1.990  12.222 -0.0330  0.1745 -0.0991
 1774W        W 5518   1.656   7.331   3.610  0.1055 -0.1462 -0.0374
 1775W        W 5519   1.302   2.397   0.040  0.2564 -0.0435 -0.0162
 1776W        W 5520   0.932   6.334   2.540 -0.0074 -0.1252  0.0280
 1777W        W 5521   5.143   7.183  10.747  0.2912 -0.1156  0.0600
 1778W        W 5522   0.198   2.455  12.683 -0.1777 -0.1085  0.0929
 1779W        W 5523   8.711   2.220  12.187  0.2396  0.0696 -0.1213
 1780W        W 5524   1.716   7.775   1.190  0.1838 -0.1539 -0.2559
 1781W        W 5525   2.660   0.156   0.946 -0.4830 -0.1434 -0.0393
 1782W        W 5526   2.180   9.169  10.889 -0.1892 -0.0343 -0.0129
 1783W        W 5527   7.316   1.914   2.701  0.1431  0.0506  0.0537
 1784W        W 5528   5.549   5.464  12.277  0.0033  0.0441 -0.2058
 1785W        W 5529   2.369   5.875  10.796  0.1669 -0.0668  0.1350
 1786W        W 5530   0.233   3.216   2.470  0.0329  0.1707 -0.3313
 1787W        W 5531   4.713   0.267   0.753  0.2206 -0.0260  0.0417
 1788W        W 5532   1.727   0.079   8.960  0.2531 -0.3570 -0.2222
 1789W        W 5533   2.208   4.105   8.957  0.2649  0.3476 -0.1518
 1790W        W 5534   8.374   7.858   4.442  0.2059  0.0818  0.1292
 1791W        W 5535   7.200   2.650  12.822 -0.2311  0.3976  0.1270
 1792W        W 5536   4.488   2.271  11.803 -0.1203  0.1550  0.3389
 1793W        W 5537   5.749   3.218   0.963  0.3056  0.0519 -0.4325
 1794W        W 5538   8.021   1.375  12.682  0.0445 -0.0611 -0.0128
 1795W        W 5539   3.381   4.821   0.788 -0.0901  0.0024 -0.1187
 1796W        W 5540   9.577   8.607   1.414  0.3410 -0.0288 -0.0274
 1797W        W 5541   8.248   4.428  11.030 -0.0571  0.4146  0.0306
 1798W        W 5542   8.068   4.965   4.829  0.0395  0.0784 -0.1915
 1799W        W 5543   3.046   3.604   1.512  0.0425  0.0214  0.1126
 1800W        W 5544   9.850   3.588   0.166 -0.0537 -0.1321 -0.2269
 1801W        W 5545   6.462   6.663   8.300  0.3081 -0.1424  0.0002
 1802W        W 5546   7.149   6.512   2.222 -0.0892  0.1056  0.0773
 1803W        W 5547   2.711   8.074   0.402 -0.0093 -0.2588  0.1702
 1804W        W 5548   4.031   1.318   1.049  0.0734 -0.0038  0.2144
 1805W        W 5549   0.627   8.020  12.190 -0.0931  0.1376  0.0902
 1806W        W 5550   8.503   0.542   8.659 -0.0552  0.0552 -0.1091
 1807W        W 5551   1.563   3.605   2.553 -0.2962 -0.0012 -0.1723
 1808W        W 5552   4.942   5.113   0.047 -0.0138 -0.0478  0.2631
 1809W        W 5553   4.911   9.037   2.316  0.1173 -0.2632  0.0398
 1810W        W 5554   1.068   8.983   8.393 -0.2692  0.0549  0.1615
 1811W        W 5555   1.830   0.014   0.014  0.1526 -0.1662 -0.2843
 1812W        W 5556   0.665   6.956   1.751 -0.0505 -0.0652  0.0001
 1813W        W 5557   6.946   9.020  11.453 -0.1486  0.2124 -0.2983
 1814W        W 5558   3.815   9.485   0.227 -0.4168  0.2410  0.2835
 1815W        W 5559   8.230   3.805  12.484 -0.0373 -0.0871 -0.0204
 1816W        W 5560   1.363   0.519  10.917 -0.0082 -0.2499 -0.1315
 1817W        W 5561   4.290   6.025   1.655 -0.2568  0.0129 -0.0851
 1818W        W 5562   4.755   2.250   1.223 -0.3381 -0.1349  0.1167
 1819W        W 5563   8.839   2.038   3.871  0.0112 -0.1370 -0.0334
 1820W        W 5564   2.234   6.288  10.495  0.1054  0.0287 -0.0681
 1821W        W 5565   8.066   2.380   3.960  0.2445 -0.0847  0.0633
 1822W        W 5566   9.215   8.477   0.841  0.4584 -0.2538  0.0701
 1823W        W 5567   0.600   7.539   9.420 -0.1977 -0.1828  0.0273
 1824W        W 5568   1.983   6.064   1.615  0.2517  0.2585  0.2187
 1825W        W 5569   8.988   2.590   0.437  0.2975  0.0397 -0.0314
 1826W        W 5570   8.675   2.828   3.489 -0.0373 -0.0273 -0.0520
 1827W        W 5571   1.810   2.362   4.374  0.2491 -0.1204  0.0892
 1828W        W 5572   6.009   1.372   3.088 -0.3621  0.1510 -0.1854
 1829W        W 5573   5.111   5.755   7.774  0.1873 -0.2295 -0.2330
 1830W        W 5574   0.300   8.935   1.684 -0.1798  0.1543 -0.0762
 1831W        W 5575   7.378   6.284   3.070 -0.1623 -0.0600  0.1776
 1832W        W 5576   4.945   6.599   0.280 -0.0037 -0.2441  0.0135
 1833W        W 5577   3.477   8.883   4.502 -0.0171  0.0920  0.2363
 1834W        W 5578   6.985   6.284   0.031 -0.0401 -0.2739 -0.1733
 1835W        W 5579   6.899   5.748  10.111  0.2224 -0.0622  0.0221
 1836W        W 5580   2.202   0.780   1.748  0.3107  0.3025  0.1879
 1837W        W 5581   6.657   8.556  12.691 -0.1433  0.0269  0.0204
 1838W        W 5582   4.964   6.874   8.901 -0.2501 -0.0173 -0.1017
 1839W        W 5583   6.852   7.368   1.392  0.1138  0.2622  0.2713
 1840W        W 5584   2.143   8.062  10.171 -0.0369 -0.0556  0.3440
 1841W        W 5585   2.745   5.055   4.508 -0.2923 -0.0779  0.3247
 1842W        W 5586   1.083   5.596   3.695  0.0251 -0.0845 -0.2200
 1843W        W 5587   0.820   3.911   9.116  0.1575 -0.1012 -0.1852
 1844W        W 5588   6.771   3.972  12.601 -0.0296 -0.2602 -0.0216
 1845W        W 5589   0.511   2.070  11.333  0.0506  0.0676  0.0601
 1846W        W 5590   2.951   9.840   9.362  0.0995 -0.0744  0.2759
 1847W        W 5591   7.011   9.544   2.262 -0.0276 -0.0235 -0.2932
 1848W        W 5592   3.563   0.078   2.716  0.2914  0.1564  0.1934
 1849W        W 5593   7.247   7.082   2.030 -0.0779  0.2616  0.0399
 1850W        W 5594   7.010   6.987   1.094  0.0778  0.0996  0.0689
 1851W        W 5595   8.393   6.477   2.666  0.1823  0.0243 -0.0120
 1852W        W 5596   7.172   7.481   1.733 -0.0163  0.1606 -0.1095
 1853W        W 5597   2.932   2.941   9.644 -0.0616  0.0518 -0.0846
 1854W        W 5598   9.380   5.331   2.839 -0.1162 -0.0905  0.0321
 1855W        W 5599   8.967   0.801   0.629 -0.1225  0.1671 -0.1449
 1856W        W 5600   5.567   7.620   9.961 -0.2801 -0.0746 -0.1868
 1857W        W 5601   8.307   3.185   3.527 -0.1981 -0.0528  0.0557
 1858W        W 5602   5.413   2.484  12.907  0.3325 -0.0384  0.0145
 1859W        W 5603   4.178   5.164  12.478 -0.0444  0.3766  0.1809
 1860W        W 5604   4.173   3.494   2.951  0.2091  0.0316 -0.0531
 1861W        W 5605   1.332   4.477   1.544  0.0626  0.1933  0.3411
 1862W        W 5606   1.184   8.033  10.979 -0.0609 -0.2060  0.0498
 1863W        W 5607   9.710   2.801  12.526 -0.0568 -0.2783 -0.3667
 1864W        W 5608   2.994   2.644   0.093  0.0639  0.0683  0.1957
 1865W        W 5609   4.400   3.074  10.420 -0.0856 -0.0622 -0.1778
 1866W        W 5610   5.912   7.730  10.322 -0.2199  0.0614  0.2447
 1867W        W 5611   6.475   4.305  12.520 -0.0416 -0.1303 -0.0215
 1868W        W 5612   0.178   8.295   0.533  0.0462 -0.3607 -0.1551
 1869W        W 5613   4.371   6.522  10.649 -0.0863  0.1861 -0.2088
 1870W        W 5614   8.730   7.665  10.611 -0.2651  0.0755 -0.1272
 1871W        W 5615   1.975   2.581  10.130 -0.1533  0.1749  0.0340
 1872W        W 5616   9.874   6.452   3.505  0.1087 -0.3420  0.1074
 1873W        W 5617   5.980   6.933   9.504 -0.2320  0.1127  0.0300
 1874W        W 5618   8.024   6.907   9.198 -0.0438 -0.1587  0.2202
 1875W        W 5619   6.385   0.122  11.774 -0.1343  0.0570 -0.3793
 1876W        W 5620   1.289   2.146   4.294  0.1781 -0.0890 -0.2249
 1877W        W 5621   3.125   8.542  11.687 -0.2016  0.1167 -0.0175
 1878W        W 5622   0.189   2.115   0.060  0.0270 -0.1473  0.1285
 1879W        W 5623   9.624   4.746  11.614  0.3343 -0.1630  0.0475
 1880W        W 5624   6.726   3.836   8.350  0.0074 -0.0015 -0.3007
 1881W        W 5625   3.106   9.067   2.773 -0.3349 -0.1335 -0.1068
 1882W        W 5626   2.167   5.262   1.205 -0.4149  0.1789 -0.0761
 1883W        W 5627   6.123   1.853  12.421 -0.0293  0.1132 -0.0204
 1884W        W 5628   2.507   6.626   2.919 -0.1731  0.2145 -0.2798
 1885W        W 5629   7.307   4.652  12.301  0.0639  0.2645  0.0505
 1886W        W 5630   6.474   3.768   9.688 -0.1611  0.4371  0.1691
 1887W        W 5631   2.762   3.310   2.506  0.1830  0.2880  0.5104
 1888W        W 5632   0.384   4.218   3.493  0.0860 -0.3914 -0.0695
 1889W        W 5633   0.850   6.532  10.949  0.0357  0.0990  0.0349
 1890W        W 5634   6.513   8.522  11.328 -0.2412 -0.3566 -0.1308
 1891W        W 5635   4.870   6.934   8.405 -0.0333 -0.1640 -0.0589
 1892W        W 5636   9.419   9.475   1.152  0.1864 -0.0884  0.2826
 1893W        W 5637   9.435   4.136   2.974  0.3298  0.0100  0.1002
 1894W        W 5638   5.086   0.263   2.019 -0.0434  0.2069  0.2654
 1895W        W 5639   9.683   9.578  10.784 -0.1693  0.0223  0.2669
 1896W        W 5640   2.543   0.402   0.001 -0.2517  0.0546  0.0641
 1897W        W 5641   4.990   6.752   2.941 -0.0033 -0.2056  0.2630
 1898W        W 5642   3.839   2.149   2.282  0.5168 -0.0333  0.0081
 1899W        W 5643   0.226   5.953  11.917  0.0431  0.3347  0.2091
 1900W        W 5644   2.940   3.461  11.128  0.3211 -0.0089  0.0889
 1901W        W 5645   8.271   5.223  11.352  0.2366 -0.3175  0.2093
 1902W        W 5646   4.841   6.378  10.710  0.0924  0.0296 -0.0498
 1903W        W 5647   3.719   0.132   3.879  0.3288  0.3794 -0.1779
 1904W        W 5648   3.793   5.561   8.191  0.1120  0.0807  0.2587
 1905W        W 5649   3.295   0.081  10.545 -0.1975  0.2716 -0.0278
 1906W        W 5650   2.919   8.181  12.035  0.0140  0.2446  0.2608
 1907W        W 5651   1.752   4.086   3.252 -0.0481 -0.2083  0.0267
 1908W        W 5652   3.217   6.833   0.806  0.1166  0.0705 -0.1447
 1909W        W 5653   0.149   7.320   9.242  0.1375 -0.1547 -0.2255
 1910W        W 5654   5.549   4.933   2.055  0.3761 -0.0664  0.0198
 1911W        W 5655   7.490   4.001   2.836  0.0078 -0.1522 -0.2361
 1912W        W 5656   6.880   4.564  12.545 -0.0648 -0.2070  0.0945
 1913W        W 5657   1.874   8.302   0.908 -0.5120 -0.0919  0.3521
 1914W        W 5658   4.147   9.626   2.659  0.0750  0.2017  0.4063
 1915W        W 5659   0.871   5.135   1.985 -0.0914  0.2987 -0.1328
 1916W        W 5660   2.162   1.053  11.463 -0.1824 -0.3258  0.1864
 1917W        W 5661   6.497   6.364   1.810 -0.1103  0.0403 -0.1196
 1918W        W 5662   8.761   5.851   0.871 -0.1927 -0.3160 -0.1886
 1919W        W 5663   8.239   1.623   1.928 -0.0539 -0.1007 -0.0169
 1920W        W 5664   7.032   4.379  10.965  0.2149  0.1444 -0.3086
 1921W        W 5665   0.828   4.632   1.738  0.2182  0.0301 -0.0724
 1922W        W 5666   9.494   7.632   8.694 -0.0782 -0.3803 -0.2302
 1923W        W 5667   0.117   5.417   1.569  0.2183 -0.1677  0.3059
 1924W        W 5668   6.635   3.473   2.055 -0.1077 -0.0103  0.2587
 1925W        W 5669   0.264   8.439  10.781 -0.1056 -0.2171  0.0576
 1926W        W 5670   2.597   0.508  10.938  0.0988 -0.0322  0.1162
 1927W        W 5671   0.694   2.745   1.646 -0.4221 -0.0534 -0.1474
 1928W        W 5672   7.281   5.319   9.790 -0.0793  0.0036  0.3390
 1929W        W 5673   4.921   4.343   0.748  0.0621 -0.2989  0.0033
 1930W        W 5674   0.871   9.624   1.589 -0.1818  0.0085 -0.0437
 1931W        W 5675   9.587   6.101   8.087 -0.1170 -0.5978  0.1680
 1932W        W 5676   7.750   7.052   1.914 -0.0697  0.0419 -0.1829
 1933W        W 5677   7.216   9.105  10.399 -0.2048 -0.0985  0.0732
 1934W        W 5678   0.255   5.564  12.544 -0.2858 -0.0966 -0.2790
 1935W        W 5679   6.017   5.910  10.881 -0.1041  0.0274  0.0635
 1936W        W 5680   3.112   7.245   2.654 -0.2107  0.3503  0.1152
 1937W        W 5681   8.655   7.974  12.533 -0.0754  0.0273  0.2530
 1938W        W 5682   0.669   2.397  10.592 -0.0978  0.0314  0.0997
 1939W        W 5683   1.590   5.336   0.250  0.0545 -0.0727 -0.0080
 1940W        W 5684   0.132   8.019   0.990 -0.1078 -0.3511 -0.0165
 1941W        W 5685   6.043   6.947   1.306 -0.1691 -0.2772  0.0572
 1942W        W 5686   1.820   7.633  10.823 -0.0737 -0.1990 -0.2567
 1943W        W 5687   7.906   2.853  12.519 -0.2566 -0.1365  0.2395
 1944W        W 5688   2.406   9.750   2.230  0.0401 -0.3165 -0.1607
 1945W        W 5689   4.779   0.950   1.422 -0.3455 -0.0051 -0.1779
 1946W        W 5690   5.340   7.490   1.042 -0.0290 -0.0739 -0.0253
 1947W        W 5691   0.048   2.198  10.435  0.3170  0.2562 -0.2481
 1948W        W 5692   4.447   0.905  11.154  0.1719  0.0261  0.0290
 1949W        W 5693   6.573   8.071   0.975 -0.1837 -0.0347  0.1364
 1950W        W 5694   8.857   5.958   3.168  0.1976 -0.0003  0.2038
 1951W        W 5695   4.113   4.622   4.584  0.1716 -0.2429  0.2823
 1952W        W 5696   3.976   5.523  10.138  0.3834  0.2307 -0.2213
 1953W        W 5697   9.884   9.413   0.957 -0.1133 -0.0788 -0.0398
 1954W        W 5698   5.904   3.006   0.382  0.1875 -0.2646  0.3288
 1955W        W 5699   7.337   2.601   9.711  0.1067  0.2002  0.0372
 1956W        W 5700   3.792   0.665   0.251 -0.2072 -0.0015 -0.0480
 1957W        W 5701   1.630   2.646  10.576  0.1007  0.0343  0.1988
 1958W        W 5702   8.372   6.961  12.753 -0.0123  0.0675 -0.2327
 1959W        W 5703   2.746   2.827   2.304 -0.0042  0.0774  0.1780
 1960W        W 5704   4.282   2.373  10.931 -0.0766 -0.1836  0.2544
 1961W        W 5705   3.833   6.859  10.056  0.0484 -0.0807 -0.0039
 1962W        W 5706   6.580   5.822  10.746  0.0152  0.1678  0.1171
 1963W        W 5707   8.387   4.728   3.380 -0.0611 -0.3547  0.0628
 1964W        W 5708   6.274   5.316  11.757 -0.0816 -0.2886  0.0863
 1965W        W 5709   7.950   4.071   9.660 -0.2208 -0.1491  0.1980
 1966W        W 5710   2.593   4.162  12.267  0.1421  0.4032 -0.1312
 1967W        W 5711   0.190   7.198   3.969  0.1157  0.2147 -0.1080
 1968W        W 5712   6.389   7.103  10.871  0.1733 -0.1151  0.0707
 1969W        W 5713   0.863   2.143   3.881 -0.0260  0.0209  0.1976
 1970W        W 5714   0.538   8.306   0.884  0.1151  0.0127 -0.0396
 1971W        W 5715   6.875   6.807   0.108 -0.1582  0.1904 -0.1931
 1972W        W 5716   3.017   9.548  10.595 -0.1810  0.1943  0.3945
 1973W        W 5717   6.969   0.723   0.738  0.1290  0.1915 -0.1759
 1974W        W 5718   4.068   0.272  10.262 -0.0996  0.2492  0.1220
 1975W        W 5719   4.475   2.963   2.203 -0.0182 -0.4220 -0.1566
 1976W        W 5720   7.885   9.553   2.556 -0.1618 -0.1572 -0.0670
 1977W        W 5721   4.915   7.692   0.441 -0.1609 -0.2192  0.1641
 1978W        W 5722   9.362   9.882  10.149 -0.2127  0.1599  0.2383
 1979W        W 5723   8.339   9.751   4.082 -0.2113  0.1104  0.0536
 1980W        W 5724   6.765   1.212   7.440  0.1931  0.2030  0.0658
 1981W        W 5725   5.671   9.189   2.323  0.0644 -0.5079 -0.1528
 1982W        W 5726   9.636   1.897   3.652  0.0622  0.0190 -0.4392
 1983W        W 5727   1.420   6.147  10.207  0.1926  0.2420 -0.2058
 1984W        W 5728   4.791   7.656   2.539  0.1649 -0.0441  0.1284
 1985W        W 5729   2.800   8.922   0.513  0.0907 -0.3413  0.0381
 1986W        W 5730   1.385   2.835   2.098  0.1835  0.1261  0.1101
 1987W        W 5731   5.827   3.195  12.357  0.0123 -0.1263  0.3267
 1988W        W 5732   4.445   4.382   4.105 -0.1711  0.5034 -0.0018
 1989W        W 5733   4.867   0.641   0.385  0.2080  0.0896  0.0712
 1990W        W 5734   3.613   1.288  12.600  0.2743 -0.1290 -0.3047
 1991W        W 5735   4.991   1.079   3.392 -0.1687 -0.0067 -0.2910
 1992W        W 5736   5.225   8.710   1.492 -0.2243  0.1431 -0.2116
 1993W        W 5737   1.018   5.554  10.781  0.2306 -0.1952  0.0977
 1994W        W 5738   5.656   7.859   1.218 -0.0710 -0.2271  0.0498
 1995W        W 5739   0.982   4.118   1.740  0.2038 -0.0457  0.1563
 1996W        W 5740   4.538   2.140   3.023  0.2926 -0.1406 -0.2704
 1997W        W 5741   9.156   3.509  12.152  0.3159 -0.0468  0.2574
 1998W        W 5742   9.629   6.703   0.511  0.1961  0.1696  0.0195
 1999W        W 5743   5.579   6.855   3.825  0.2106  0.0620  0.2124
 2000W        W 5744   0.839   7.721   2.660 -0.0736  0.2720  0.2078
 2001W        W 5745   7.240   8.754  12.422 -0.2639 -0.1344  0.0294
 2002W        W 5746   5.078   0.334  12.803 -0.1331 -0.1890 -0.3399
 2003W        W 5747   2.966   5.219   3.060  0.0921 -0.0783  0.1360
 2004W        W 5748   9.299   8.921  12.187 -0.0496 -0.1472  0.1317
 2005W        W 5749   1.825   2.332   0.529 -0.0725 -0.1210 -0.1470
 2006W        W 5750   7.873   2.247  12.334 -0.3299 -0.0043 -0.1475
 2007W        W 5751   5.262   6.542   1.151  0.1540 -0.2794  0.3663
 2008W        W 5752   5.489   6.180   0.709  0.2592  0.3274 -0.0365
 2009W        W 5753   2.256   9.355  11.738 -0.0938 -0.0119  0.0792
 2010W        W 5754   0.602   9.042   4.837 -0.3239  0.2002  0.0493
 2011W        W 5755   8.880   5.125  11.443 -0.0435 -0.0500 -0.0200
 2012W        W 5756   1.342   1.591  12.491  0.1509 -0.0381 -0.1997
 2013W        W 5757   9.355   5.382   0.687  0.0900 -0.0273  0.2532
 2014W        W 5758   7.000   2.912   3.288  0.0217 -0.2956  0.4077
 2015W        W 5759   7.821   6.637   2.713 -0.0582  0.1009  0.0598
 2016W        W 5760   1.192   4.183   3.943  0.1051 -0.1444 -0.2412
 2017W        W 5761   4.393   7.795  10.930 -0.0452  0.2547 -0.0653
 2018W        W 5762   7.216   1.249  11.042 -0.1231  0.4190  0.0836
 2019W        W 5763   2.184   4.680  10.918  0.5289 -0.1630 -0.0799
 2020W        W 5764   7.174   8.520   0.376 -0.1585 -0.5824 -0.0359
 2021W        W 5765   3.469   2.812   0.134 -0.3224  0.2620 -0.5218
 2022W        W 5766   8.779   7.930   4.057 -0.0271  0.0669 -0.1280
 2023W        W 5767   0.720   4.865   0.349  0.1027 -0.3189 -0.3150
 2024W        W 5768   1.440   5.047  12.858 -0.0173  0.1732 -0.2173
 2025W        W 5769   8.679   8.539  12.488  0.0461 -0.3433  0.1944
 2026W        W 5770   3.793   4.088   1.662 -0.0780 -0.0444  0.0945
 2027W        W 5771   4.150   3.964   4.105  0.1233 -0.1188 -0.1214
 2028W        W 5772   0.692   2.867   2.525 -0.0024 -0.1180  0.0562
 2029W        W 5773   8.184   0.527   2.671  0.0758  0.3978  0.1553
 2030W        W 5774   1.585   5.538   3.577  0.4039  0.0698 -0.3146
 2031W        W 5775   2.808   4.452  12.767  0.2234 -0.2625 -0.0190
 2032W        W 5776   2.345   8.986  12.088 -0.0520  0.1915  0.0019
 2033W        W 5777   6.783   1.669   2.683 -0.1058  0.4698 -0.1435
 2034W        W 5778   1.857   9.645   2.473  0.3409 -0.1407 -0.1081
 2035W        W 5779   9.446   5.195   4.069  0.4374  0.2057  0.2812
 2036W        W 5780   2.548   8.399   8.358  0.0896 -0.0650 -0.0815
 2037W        W 5781   5.331   4.910   2.633 -0.0117 -0.2614  0.3068
 2038W        W 5782   7.037   8.850   1.090 -0.0688 -0.2417  0.2080
 2039W        W 5783   1.379   3.924  10.121  0.0419 -0.1440  0.0568
 2040W        W 5784   0.035   1.909  11.291 -0.3145  0.1978  0.4085
 2041W        W 5785   5.376   9.425  11.644  0.0511  0.0668  0.1051
 2042W        W 5786   9.111   1.058   2.838  0.1460 -0.1202  0.1043
 2043W        W 5787   4.102   6.139   1.219 -0.1467  0.2622 -0.1490
 2044W        W 5788   4.063   9.005   1.413  0.2823  0.1337 -0.1304
 2045W        W 5789   3.898   3.672   1.871 -0.3864  0.0782 -0.1118
 2046W        W 5790   7.272   4.483   1.067  0.1342 -0.0282  0.1411
 2047W        W 5791   1.667   2.301   3.337  0.0125 -0.2137  0.3651
 2048W        W 5792   8.156   3.872  10.130 -0.2985  0.3303 -0.0395
 2049W        W 5793   6.839   4.570   2.486  0.1809  0.2287 -0.1219
 2050W        W 5794   1.313   0.497   9.617 -0.1397  0.1444  0.1050
 2051W        W 5795   4.447   1.601  12.232 -0.1712  0.0005  0.0610
 2052W        W 5796   6.445   3.958   0.648 -0.1593 -0.1760  0.0105
 2053W        W 5797   6.197   2.567  11.148 -0.0387  0.1132 -0.3458
 2054W        W 5798   2.869   3.774  12.117 -0.0120  0.2616 -0.0661
 2055W        W 5799   8.733   0.816  12.128 -0.3009  0.0876 -0.1967
 2056W        W 5800   2.929   5.642  11.333 -0.0824  0.1284  0.1366
 2057W        W 5801   7.904   2.273   3.432 -0.1091 -0.2077 -0.1900
 2058W        W 5802   3.211   0.797   0.904  0.3038  0.1421 -0.2766
 2059W        W 5803   8.799   2.562   2.085  0.0028 -0.2402  0.1689
 2060W        W 5804   1.253   1.773   3.835  0.0689 -0.1684 -0.3031
 2061W        W 5805   6.926   7.471   2.256 -0.1989 -0.0952  0.2779
 2062W        W 5806   7.442   1.633   3.825  0.0156 -0.0279  0.2570
 2063W        W 5807   0.483   3.625  11.195  0.2042  0.2650  0.1527
 2064W        W 5808   6.511   2.812   3.281 -0.1848 -0.0521  0.1725
 2065W        W 5809   5.262   8.307   8.938 -0.0526 -0.3502 -0.2672
 2066W        W 5810   3.017   3.071   4.287 -0.1613  0.1693  0.5877
 2067W        W 5811   8.336   7.210  11.284  0.3271 -0.0351  0.0375
 2068W        W 5812   0.758   8.797   0.989 -0.0726 -0.1650  0.2501
 2069W        W 5813   3.431   8.847  10.606  0.0352  0.1182 -0.0384
 2070W        W 5814   8.614   3.941  10.981 -0.2912  0.1252  0.1234
 2071W        W 5815   0.289   8.297  11.411 -0.0199  0.0542 -0.1603
 2072W        W 5816   9.015   8.460   1.312  0.0970 -0.2185  0.2366
 2073W        W 5817   2.669   6.829   8.514  0.1069  0.1585  0.1495
 2074W        W 5818   8.827   3.380   9.297  0.0911  0.1448  0.2989
 2075W        W 5819   9.195   4.705   2.884 -0.1510  0.0911  0.1380
 2076W        W 5820   9.138   6.022  11.002 -0.2593  0.1656 -0.0511
 2077W        W 5821   2.127   9.168   2.622  0.1647 -0.1890  0.0385
 2078W        W 5822   3.077   0.194  11.991  0.1402 -0.0326 -0.1574
 2079W        W 5823   6.005   5.722  12.217 -0.2719  0.1053  0.0296
 2080W        W 5824   3.537   1.972   4.371 -0.2914  0.0219  0.2368
 2081W        W 5825   1.955   0.518  11.798 -0.2069  0.0813  0.1240
 2082W        W 5826   1.226   0.213  12.328 -0.0941 -0.1460  0.0669
 2083W        W 5827   5.947   0.928   2.233  0.1435  0.0375  0.0141
 2084W        W 5828   0.548   2.640  11.734 -0.2364 -0.0607 -0.0762
 2085W        W 5829   0.612   2.223   4.694  0.1344 -0.0257 -0.1314
 2086W        W 5830   0.088   0.295  12.727  0.0726 -0.0666 -0.1804
 2087W        W 5831   6.150   5.183  10.078  0.1323 -0.0704  0.1080
 2088W        W 5832   1.514   2.578   5.221 -0.1971  0.0989  0.2065
 2089W        W 5833   7.009   6.421   2.721 -0.0384 -0.0415  0.1838
 2090W        W 5834   7.924   5.517   0.199  0.0244 -0.2342  0.1195
 2091W        W 5835   5.964   7.722   2.428 -0.2607  0.1843 -0.1031
 2092W        W 5836   3.623   0.957   3.885  0.0301  0.0623 -0.0243
 2093W        W 5837   4.959   4.616  10.222 -0.2876  0.0244  0.1302
 2094W        W 5838   1.059   4.431   8.828  0.0123 -0.1167  0.0508
 2095W        W 5839   5.572   4.995  12.507  0.0215 -0.0053  0.1525
 2096W        W 5840   5.562   7.977  12.469  0.2939 -0.3039 -0.1378
 2097W        W 5841   5.319   7.687   3.192 -0.1634 -0.0643  0.3964
 2098W        W 5842   0.579   0.216  11.552 -0.1751  0.0189 -0.3658
 2099W        W 5843   0.377   6.875   3.423 -0.1298  0.0985  0.1700
 2100W        W 5844   0.230   5.182   9.981  0.0419 -0.1190  0.0954
 2101W        W 5845   4.221   2.432   3.929 -0.3313 -0.0684 -0.1301
 2102W        W 5846   6.679   2.268  10.258 -0.2521  0.1371 -0.1027
 2103W        W 5847   8.850   2.305   3.427 -0.2165  0.1791  0.2478
 2104W        W 5848   1.626   9.277  10.246 -0.0195 -0.1536 -0.1450
 2105W        W 5849   5.924   7.709  12.806 -0.1472 -0.5019 -0.1238
 2106W        W 5850   0.659   8.583   0.504  0.0214 -0.0351  0.2481
 2107W        W 5851   9.457   3.438   3.521  0.3377 -0.1291  0.0200
 2108W        W 5852   3.434   5.579   8.680 -0.2311  0.1300  0.2794
 2109W        W 5853   5.154   2.524   9.371 -0.0193 -0.0338 -0.0836
 2110W        W 5854   4.145   1.239  10.699  0.1017  0.1160 -0.1644
 2111W        W 5855   1.494   7.028  12.273  0.2436 -0.2553 -0.2152
 2112W        W 5856   1.560   8.481   9.485  0.1704  0.0060  0.2948
 2113W        W 5857   7.516   5.635   0.548 -0.0797  0.0043 -0.2490
 2114W        W 5858   8.933   6.349   9.713  0.1960 -0.0605 -0.0970
 2115W        W 5859   0.857   8.457  12.458  0.1729  0.0920  0.1144
 2116W        W 5860   8.095   3.912   2.150 -0.0911 -0.0300 -0.0557
 2117W        W 5861   5.247   7.753   2.684 -0.0732 -0.1549  0.1653
 2118W        W 5862   9.209   8.674   1.727 -0.1771 -0.2130  0.1914
 2119W        W 5863   8.517   0.337  10.631  0.2223 -0.0934 -0.0466
 2120W        W 5864   6.501   0.721  12.135  0.1425 -0.1885  0.0146
 2121W        W 5865   9.315   8.679   8.567  0.1959  0.3996 -0.0565
 2122W        W 5866   4.837   5.618   0.111 -0.1671 -0.1878  0.0930
 2123W        W 5867   7.081   2.081  12.393 -0.1254  0.1038 -0.1989
 2124W        W 5868   8.867   1.976  12.727  0.2172  0.2859 -0.2877
 2125W        W 5869   3.255   9.349  11.721 -0.2853  0.1178  0.1801
 2126W        W 5870   9.224   4.117  10.157 -0.3042 -0.0311 -0.1788
 2127W        W 5871   0.351   6.853  12.722 -0.0323  0.0214  0.0025
 2128W        W 5872   9.006   2.295  11.460 -0.0493 -0.1454  0.0098
 2129W        W 5873   6.494   6.739  10.419 -0.1157  0.0143 -0.1824
 2130W        W 5874   6.896   7.544   9.024 -0.2545 -0.0879  0.0252
 2131W        W 5875   3.647   0.066   9.414  0.2451 -0.3232  0.0087
 2132W        W 5876   9.352   0.868   1.870  0.2553 -0.1953  0.2935
 2133W        W 5877   0.290   0.922   4.187  0.1122 -0.2815  0.0068
 2134W        W 5878   9.500   2.922   9.651 -0.1320  0.0047 -0.2221
 2135W        W 5879   0.230   0.696   0.038  0.0308 -0.0714  0.1223
 2136W        W 5880   7.063   5.547   0.121  0.1009 -0.0840  0.2464
 2137W        W 5881   5.242   8.021   0.301 -0.1517  0.3685  0.2874
 2138W        W 5882   0.885   7.368  10.783 -0.0814  0.0526  0.1032
 2139W        W 5883   2.569   1.007   1.509  0.1489  0.0644  0.0180
 2140W        W 5884   3.799   2.896   2.225  0.3331  0.0458  0.1646
 2141W        W 5885   4.043   2.371  11.983  0.2211  0.1804  0.2003
 2142W        W 5886   7.604   3.604  11.354  0.2342 -0.1305  0.1555
 2143W        W 5887   8.773   5.617  11.737  0.0017 -0.0292 -0.1115
 2144W        W 5888   8.035   7.095  12.234 -0.0126 -0.0023  0.1165
 2145W        W 5889   8.227   2.776  11.639 -0.4648  0.0022 -0.0796
 2146W        W 5890   3.080   2.271   9.015 -0.0660  0.0807 -0.1229
 2147W        W 5891   6.608   6.050   0.415  0.2421 -0.0252 -0.1814
 2148W        W 5892   7.007   7.701   9.660 -0.2940  0.3904  0.1909
 2149W        W 5893   1.888   6.533   0.711  0.0070  0.3595 -0.2955
 2150W        W 5894   5.448   0.366  10.250  0.2669  0.0429 -0.2261
 2151W        W 5895   0.843   4.328   2.217 -0.0052  0.1712  0.1255
 2152W        W 5896   3.336   3.871  12.361  0.3806  0.1659 -0.0594
 2153W        W 5897   3.859   8.924  11.118 -0.0085 -0.2167  0.0168
 2154W        W 5898   7.492   1.572  12.727  0.0366 -0.1335 -0.0549
 2155W        W 5899   1.554   8.130  10.056  0.1904 -0.2032 -0.2406
 2156W        W 5900   2.635   5.092   0.919 -0.1505  0.3608  0.1016
 2157W        W 5901   5.317   6.615   0.591  0.0322 -0.0174  0.2406
 2158W        W 5902   4.685   5.196   0.881 -0.1217 -0.0849  0.1323
 2159W        W 5903   2.984   7.826  11.076 -0.1935  0.1790  0.1555
 2160W        W 5904   7.554   3.023   1.866 -0.0155 -0.1169  0.2120
 2161W        W 5905   9.892   0.698   1.875  0.0951  0.1035 -0.1577
 2162W        W 5906   7.320   7.058  10.044 -0.1847  0.1845 -0.0425
 2163W        W 5907   0.849   1.540  12.624 -0.0918 -0.0480  0.0048
 2164W        W 5908   7.561   9.706  12.194  0.2873  0.0224  0.0985
 2165W        W 5909   5.987   3.766   0.990  0.2279  0.3025 -0.1136
 2166W        W 5910   3.792   8.793   1.004  0.0114 -0.1873 -0.0609
 2167W        W 5911   4.595   3.337   8.589 -0.1959  0.1025  0.1142
 2168W        W 5912   7.926   4.059   1.225 -0.4025 -0.4456  0.0904
 2169W        W 5913   7.200   7.376  11.386 -0.2163 -0.0114  0.0145
 2170W        W 5914   6.700   4.074  10.140 -0.1075  0.1062 -0.1105
 2171W        W 5915   6.736   8.477   0.733  0.0680  0.0413 -0.3136
 2172W        W 5916   2.327   0.476   9.733  0.1375 -0.1491  0.1513
 2173W        W 5917   0.796   1.301   9.896 -0.3718 -0.1172  0.1211
 2174W        W 5918   7.066   1.828  12.858  0.4445  0.1889 -0.1525
 2175W        W 5919   3.082   0.449  10.202  0.3967  0.1175  0.1331
 2176W        W 5920   7.473   2.903   0.726 -0.2178  0.3711 -0.1017
 2177W        W 5921   4.039   0.811   1.146  0.0876 -0.0041  0.2317
 2178W        W 5922   4.555   0.391  12.881 -0.0394 -0.2026  0.1668
 2179W        W 5923   6.991   4.825   9.520  0.1639  0.0372 -0.2396
 2180W        W 5924   8.321   2.230   8.903 -0.1889  0.1683  0.2704
 2181W        W 5925   2.111   7.258   4.131 -0.1285 -0.0650 -0.1434
 2182W        W 5926   2.803   2.113   3.403  0.0686 -0.0331 -0.0609
 2183W        W 5927   2.688   4.060   5.115 -0.1397  0.5133  0.2171
 2184W        W 5928   3.403   7.672  11.301 -0.4115  0.1484  0.1527
 2185W        W 5929   2.835   5.822   1.618  0.4984 -0.0952  0.1327
 2186W        W 5930   0.321   1.108   0.501 -0.1495 -0.1201 -0.1345
 2187W        W 5931   1.595   4.565   0.020  0.0696  0.0217 -0.0902
 2188W        W 5932   5.413   7.761  10.926  0.1424  0.3232 -0.2144
 2189W        W 5933   8.772   9.382  12.225  0.2466  0.0509 -0.0782
 2190W        W 5934   5.225   8.626   9.616  0.3414  0.0076  0.1229
 2191W        W 5935   4.136   6.582   3.009  0.2455 -0.2957 -0.0977
 2192W        W 5936   6.085   3.993   4.588 -0.3760 -0.1742 -0.0139
 2193W        W 5937   9.720   8.845   1.809  0.2125 -0.1493 -0.0882
 2194W        W 5938   1.657   9.149  10.900  0.0499  0.1697 -0.0805
 2195W        W 5939   6.992   9.074  12.689  0.0307 -0.0749  0.0034
 2196W        W 5940   9.823   5.614   2.290  0.4397  0.0411 -0.0501
 2197W        W 5941   3.506   3.463   9.980  0.3638 -0.2381  0.2586
 2198W        W 5942   7.005   8.145  10.070  0.0102 -0.0167 -0.3633
 2199W        W 5943   2.150   3.308   8.026 -0.1044  0.0391  0.1296
 2200W        W 5944   3.305   7.487   0.925  0.0245  0.2304 -0.1985
 2201W        W 5945   0.659   0.056   1.291 -0.1683 -0.2406  0.3319
 2202W        W 5946   4.357   9.462   1.562  0.0659 -0.1035 -0.0783
 2203W        W 5947   9.829   8.506   4.263  0.0430 -0.1222  0.2498
 2204W        W 5948   6.250   8.835   0.490  0.0814  0.0200  0.4799
 2205W        W 5949   1.488   8.782   8.981 -0.0375  0.2765 -0.0124
 2206W        W 5950   1.719   7.761  11.776 -0.0284 -0.2357 -0.2223
 2207W        W 5951   2.750   2.204  12.402 -0.1042 -0.3316  0.1172
 2208W        W 5952   0.517   5.633   3.667 -0.4350 -0.1232 -0.1011
 2209W        W 5953   8.812   1.376  11.952 -0.2040  0.3551  0.1015
 2210W        W 5954   3.007   0.653   2.105  0.1182 -0.1207  0.3851
 2211W        W 5955   7.520   9.341   2.218 -0.1424 -0.0230 -0.1795
 2212W        W 5956   4.074   7.066   0.779 -0.0144 -0.0052 -0.5316
 2213W        W 5957   5.564   1.270   3.257  0.3448  0.2317 -0.0351
 2214W        W 5958   8.110   0.998   2.891 -0.2561 -0.1285 -0.1310
 2215W        W 5959   6.523   7.472  12.084  0.2163 -0.1401 -0.0381
 2216W        W 5960   6.253   8.415   0.780  0.0140 -0.0111  0.1032
 2217W        W 5961   8.579   9.135   2.234  0.0399  0.1645  0.0478
 2218W        W 5962   4.562   4.868  12.019 -0.0348  0.2479 -0.0280
 2219W        W 5963   8.002   0.885  12.589 -0.0920  0.2114 -0.0516
 2220W        W 5964   2.720   9.375   1.744 -0.1625 -0.0133 -0.2509
 2221W        W 5965   6.596   1.309   2.407  0.1832  0.3085 -0.0216
 2222W        W 5966   8.446   3.201   0.089 -0.0268  0.2102 -0.5048
 2223W        W 5967   1.847   4.641   4.313 -0.0346 -0.3414 -0.2366
 2224W        W 5968   0.708   1.907   9.100 -0.0443 -0.1408 -0.0676
 2225W        W 5969   4.086   0.421   3.668  0.0518 -0.0864  0.0655
 2226W        W 5970   3.900   3.098   2.995 -0.1355 -0.0590 -0.4264
 2227W        W 5971   0.822   1.540   2.665  0.0940 -0.0352 -0.1271
 2228W        W 5972   1.699   4.175   0.613 -0.1821 -0.0480  0.2536
 2229W        W 5973   0.264   9.564   3.028 -0.0251 -0.3027  0.0148
 2230W        W 5974   8.900   0.604   1.049  0.0923 -0.1026  0.2069
 2231W        W 5975   8.319   7.546  10.008  0.2910 -0.1845  0.0316
 2232W        W 5976   9.739   7.522   3.136  0.2292  0.6469 -0.1530
 2233W        W 5977   9.498   5.605  11.144  0.0275 -0.1029  0.0635
 2234W        W 5978   2.233   8.525  12.323  0.1675  0.0002  0.1286
 2235W        W 5979   1.480   8.376   3.540 -0.1070 -0.0093 -0.2712
 2236W        W 5980   2.754   6.713   0.667 -0.0096  0.1390 -0.0517
 2237W        W 5981   9.347   6.495   0.898 -0.3083  0.2072 -0.0002
 2238W        W 5982   2.633   2.785  11.788  0.0997  0.2807  0.2026
 2239W        W 5983   1.366   4.510   3.495 -0.2874 -0.1843  0.1709
 2240W        W 5984   4.260   9.845   0.567  0.1586 -0.0163 -0.1419
 2241W        W 5985   0.981   2.639   9.627 -0.1014 -0.1658  0.0224
 2242W        W 5986   9.226   3.892   4.247  0.1991  0.1180 -0.1490
 2243W        W 5987   7.845   5.226   8.603 -0.0026  0.0068  0.2068
 2244W        W 5988   7.249   9.851   0.182 -0.1610  0.0784  0.1781
 2245W        W 5989   1.170   3.679  12.827 -0.3443 -0.2373 -0.1242
 2246W        W 5990   5.916   5.538   2.892  0.1143  0.0182 -0.2056
 2247W        W 5991   1.595   3.744   2.041 -0.0722 -0.0993 -0.0711
 2248W        W 5992   6.450   5.353   2.436 -0.0946  0.0027  0.3431
 2249W        W 5993   3.970   2.658   4.356  0.5747  0.1595  0.0283
 2250W        W 5994   6.247   2.946   4.471 -0.3588  0.3259 -0.0417
 2251W        W 5995   7.829   3.337   9.989  0.1095  0.0331 -0.0957
 2252W        W 5996   8.987   8.266  11.256  0.0516  0.0855 -0.1296
 2253W        W 5997   2.807   6.172   3.227 -0.2305  0.1048  0.3379
 2254W        W 5998   3.896   9.011   9.526  0.2186  0.1478  0.0024
 2255W        W 5999   2.936   5.240   3.915  0.0818  0.1810 -0.1165
 2256W        W 6000   3.168   8.932   9.640 -0.0472 -0.1286  0.1013
 2257W        W 6001   5.349   0.503   2.466  0.1739  0.0559  0.1313
 2258W        W 6002   2.541   6.069   2.823  0.0714 -0.1312  0.0840
 2259W        W 6003   3.480   6.739  12.306 -0.0746 -0.1687  0.3177
 2260W        W 6004   8.367   3.301   2.715 -0.0665 -0.0564 -0.1370
 2261W        W 6005   7.597   8.488   0.156  0.0002 -0.1566 -0.2356
 2262W        W 6006   5.722   4.668   9.118 -0.2933  0.2533 -0.0821
 2263W        W 6007   9.471   7.113   3.994  0.2159 -0.1241 -0.0123
 2264W        W 6008   0.555   4.743  12.764 -0.3422 -0.1408 -0.0804
 2265W        W 6009   1.334   7.487   8.610 -0.1248  0.3224  0.1036
 2266W        W 6010   1.036   8.397   0.864 -0.2996 -0.1211  0.0532
 2267W        W 6011   9.529   3.389   4.470 -0.0674  0.0736 -0.3741
 2268W        W 6012   2.984   7.789   1.754  0.1188  0.0097 -0.3352
 2269W        W 6013   8.577   0.368   0.130  0.0547 -0.0047  0.0456
 2270W        W 6014   8.428   1.032   3.396 -0.1815 -0.1711  0.4395
 2271W        W 6015   5.023   4.973  11.761 -0.0626  0.2850  0.0864
 2272W        W 6016   2.109   7.254   1.056 -0.1655 -0.1839 -0.1308
 2273W        W 6017   8.951   7.889   1.315  0.2269  0.0955  0.0315
 2274W        W 6018   2.966   8.855   0.989  0.0503  0.4708  0.2204
 2275W        W 6019   5.007   2.320   1.690  0.1215  0.1723  0.2684
 2276W        W 6020   7.147   3.197  10.551 -0.1738  0.1368 -0.2041
 2277W        W 6021   1.311   1.656   4.555  0.2627  0.0247  0.0080
 2278W        W 6022   0.936   4.461   3.058 -0.2258 -0.0855  0.1350
 2279W        W 6023   0.888   5.266  12.158  0.2303  0.3785  0.0208
 2280W        W 6024   0.351   4.972   1.640 -0.1913  0.0687  0.1572
 2281W        W 6025   1.818   1.283   3.889  0.3298  0.0504  0.0222
 2282W        W 6026   7.689   5.296   9.109  0.2202 -0.1243  0.3607
 2283W        W 6027   3.298   2.588   3.449  0.2424  0.0363  0.0646
 2284W        W 6028   6.785   5.860   9.287 -0.0519  0.0627  0.1340
 2285W        W 6029   4.033   0.067  12.116 -0.3293  0.0313 -0.0420
 2286W        W 6030   1.003   5.038   4.786 -0.1313 -0.1438 -0.3158
 2287W        W 6031   1.711   0.517   9.250 -0.0716  0.2590  0.0436
 2288W        W 6032   6.726   6.461   3.797 -0.0286  0.2678  0.0830
 2289W        W 6033   5.926   9.592   9.634 -0.1013  0.1238 -0.2216
 2290W        W 6034   3.425   2.216  10.174  0.3936 -0.3021 -0.1578
 2291W        W 6035   3.754   6.327   8.900  0.1399 -0.1352 -0.1109
 2292W        W 6036   4.032   8.214  10.802  0.2812 -0.3126  0.1630
 2293W        W 6037   5.359   3.747   3.479 -0.1229  0.1855 -0.4932
 2294W        W 6038   5.090   6.672  10.400 -0.1612 -0.2073 -0.1969
 2295W        W 6039   0.315   9.603   4.734  0.0722 -0.2237 -0.3754
 2296W        W 6040   2.636   4.369  10.621 -0.0715  0.2955  0.1379
 2297W        W 6041   2.003   6.931   0.162 -0.2573  0.1276  0.1815
 2298W        W 6042   6.042   2.991   9.690 -0.3362 -0.0976  0.1980
 2299W        W 6043   3.438   4.819   3.744 -0.1567  0.1577 -0.0809
 2300W        W 6044   4.993   6.943   9.436  0.0627  0.0320 -0.0512
 2301W        W 6045   1.066   3.761   0.373  0.1786 -0.1951 -0.2296
 2302W        W 6046   6.522   9.633   2.457 -0.3738 -0.0928  0.1278
 2303W        W 6047   3.479   7.915  10.864 -0.0483  0.2223  0.0188
 2304W        W 6048   9.576   4.053   2.508  0.0531  0.0868  0.3965
 2305W        W 6049   3.219   6.483   3.379  0.1006 -0.0664 -0.1584
 2306W        W 6050   9.614   9.112   8.599  0.0943  0.0054 -0.0895
 2307W        W 6051   3.057   3.109  12.871 -0.0080 -0.2384  0.1285
 2308W        W 6052   1.572   1.017   0.277 -0.1673  0.0301 -0.0089
 2309W        W 6053   2.133   3.340   1.458 -0.1269 -0.3128  0.0406
 2310W        W 6054   8.197   3.657   4.354 -0.2645 -0.4156  0.0800
 2311W        W 6055   5.376   8.001  10.377  0.3428 -0.0127 -0.1290
 2312W        W 6056   6.675   4.674   1.946  0.1167  0.1776  0.2063
 2313W        W 6057   5.710   9.436  10.638 -0.0983 -0.1464  0.0621
 2314W        W 6058   5.404   6.743  10.924 -0.1261  0.1209 -0.3997
 2315W        W 6059   2.696   6.175   0.770  0.4078  0.1938 -0.1584
 2316W        W 6060   2.815   3.498   3.854  0.3124  0.2186  0.1040
 2317W        W 6061   8.157   3.907  10.732  0.0299  0.2648  0.0847
 2318W        W 6062   2.313   6.991  12.739  0.0881 -0.0621  0.0692
 2319W        W 6063   6.520   4.893   9.633  0.0372 -0.1060 -0.4121
 2320W        W 6064   1.408   1.250   4.282 -0.1755  0.0069  0.0940
 2321W        W 6065   2.139   1.508  11.696  0.3157  0.0692  0.0191
 2322W        W 6066   1.291   0.785  11.368 -0.0302 -0.0473 -0.3087
 2323W        W 6067   6.344   7.952  10.844 -0.2315  0.0799  0.3677
 2324W        W 6068   4.157   9.710   3.213 -0.4176  0.0937  0.2381
 2325W        W 6069   8.798   1.718   9.980 -0.2099  0.0099 -0.0350
 2326W        W 6070   0.930   3.693  10.146 -0.1972  0.1005 -0.1319
 2327W        W 6071   5.831   2.453   3.946 -0.1572  0.0411  0.0116
 2328W        W 6072   8.931   9.000   1.444 -0.1065  0.1963  0.2236
 2329W        W 6073   0.738   5.575  11.750 -0.2110 -0.4305  0.0526
 2330W        W 6074   8.306   0.905  10.610 -0.0608  0.2244 -0.2986
 2331W        W 6075   0.722   9.345   3.041  0.0519  0.1368 -0.2492
 2332W        W 6076   6.690   6.154   9.699 -0.2439 -0.1701  0.2791
 2333W        W 6077   6.759   6.187  11.858  0.0929  0.0480 -0.2275
 2334W        W 6078   7.032   3.524   4.690 -0.0864 -0.0333 -0.1539
 2335W        W 6079   4.702   5.361  12.048  0.2087 -0.2488 -0.5019
 2336W        W 6080   1.693   6.069   3.621 -0.0579  0.1796  0.0020
 2337W        W 6081   2.098   4.694   3.865 -0.1068 -0.1419  0.1102
 2338W        W 6082   1.228   8.738  12.289 -0.0295 -0.0537 -0.2365
 2339W        W 6083   8.285   2.551  12.198 -0.0165  0.0990 -0.1410
 2340W        W 6084   7.005   4.136   4.019  0.0974  0.2454 -0.0744
 2341W        W 6085   7.393   5.266   2.312 -0.1437  0.1781 -0.1897
 2342W        W 6086   9.553   1.180   9.995  0.0463  0.0209 -0.0220
 2343W        W 6087   0.706   1.081   3.911  0.1205  0.0483 -0.1582
 2344W        W 6088   9.097   6.487   8.842  0.2283 -0.3159  0.1356
 2345W        W 6089   1.363   4.162  11.028  0.0848 -0.0302 -0.1858
 2346W        W 6090   4.991   5.632  10.208  0.2772 -0.0178 -0.1299
 2347W        W 6091   8.938   8.307  12.821 -0.1857 -0.0792  0.1168
 2348W        W 6092   3.154   0.601  12.287 -0.0979  0.1298 -0.1114
 2349W        W 6093   3.805   1.745   1.961 -0.1232  0.0953 -0.3080
 2350W        W 6094   8.470   7.628   8.323 -0.1094 -0.1835 -0.1157
 2351W        W 6095   3.818   3.577  11.836  0.2697  0.3698 -0.2813
 2352W        W 6096   1.023   0.279   1.626  0.0351  0.0696  0.0415
 2353W        W 6097   0.795   6.074   3.555 -0.1254  0.3731  0.3259
 2354W        W 6098   2.823   4.599  12.289  0.1626  0.1975 -0.3837
 2355W        W 6099   1.886   8.124  12.041  0.1464 -0.0798 -0.1332
 2356W        W 6100   7.311   0.002   3.067 -0.0843  0.0108  0.0021
 2357W        W 6101   5.125   3.993   1.074  0.2131  0.1430 -0.1003
 2358W        W 6102   9.715   7.585   9.788 -0.0456 -0.3453 -0.1195
 2359W        W 6103   8.656   7.227   2.075  0.0709 -0.0807  0.2453
 2360W        W 6104   7.704   7.395  11.806 -0.0143 -0.0599 -0.2100
 2361W        W 6105   9.159   3.155   0.692 -0.2805 -0.0296 -0.2005
 2362W        W 6106   2.391   6.027  12.774  0.4447  0.1885  0.1155
 2363W        W 6107   7.730   4.273  10.814  0.2363 -0.1807  0.0729
 2364W        W 6108   1.561   1.549   2.208 -0.1284  0.0552 -0.0471
 2365W        W 6109   0.871   4.283   9.470  0.1624 -0.1654  0.1451
 2366W        W 6110   7.563   3.463   0.831  0.2267 -0.1475  0.0126
 2367W        W 6111   9.874   6.513   9.043  0.1054  0.4101 -0.1031
 2368W        W 6112   5.259   6.358   2.103 -0.2014 -0.0155 -0.1880
 2369W        W 6113   2.870   1.490  10.529 -0.2071  0.1715 -0.0488
 2370W        W 6114   1.124   5.360   9.319  0.4302 -0.2326  0.1286
 2371W        W 6115   3.910   7.076  11.888 -0.2823  0.0754  0.3264
 2372W        W 6116   8.818   3.865  11.940 -0.0955 -0.4872 -0.0027
 2373W        W 6117   8.085   1.403  10.427  0.0447  0.0992 -0.0921
 2374W        W 6118   2.442   1.466   2.069 -0.1633 -0.0680  0.0878
 2375W        W 6119   2.678   4.725  10.967  0.1729 -0.0856  0.0978
 2376W        W 6120   8.213   9.274  10.380 -0.0112  0.2059 -0.0935
 2377W        W 6121   4.025   4.895   4.163  0.0536  0.0019 -0.0020
 2378W        W 6122   4.635   1.347   2.507  0.0501  0.1376  0.0941
 2379W        W 6123   6.863   2.121  11.168  0.1140  0.0066  0.1875
 2380W        W 6124   1.681   3.224   2.124 -0.0979  0.0436  0.0339
 2381W        W 6125   7.903   8.473   0.814 -0.2468  0.0731  0.0486
 2382W        W 6126   1.261   4.816   2.031  0.0602  0.0202  0.1512
 2383W        W 6127   3.062   4.622  10.420  0.1167 -0.0347 -0.3520
 2384W        W 6128   8.591   7.745   0.450  0.0435  0.1222 -0.1885
 2385W        W 6129   8.600   3.820   1.942 -0.0160 -0.3589 -0.3337
 2386W        W 6130   4.992   2.922  12.969  0.0733  0.0172  0.1217
 2387W        W 6131   1.622   6.756   1.061 -0.2535  0.0520 -0.3141
 2388W        W 6132   4.890   2.953   2.930  0.2276  0.1045 -0.2196
 2389W        W 6133   9.140   3.207  11.403 -0.0214  0.0342 -0.0475
 2390W        W 6134   2.598   7.676   9.222 -0.1851 -0.0646 -0.2046
 2391W        W 6135   2.059   5.353  10.054 -0.3865 -0.1642  0.2226
 2392W        W 6136   5.537   6.327   9.535 -0.0275  0.1186  0.4377
 2393W        W 6137   1.187   7.426  12.576  0.1278  0.0904  0.3218
 2394W        W 6138   7.670   1.555   1.147  0.3386  0.0107 -0.1607
 2395W        W 6139   8.274   2.792   1.322  0.1337  0.0276  0.0127
 2396W        W 6140   2.910   8.249  12.798  0.0785  0.0737  0.0590
 2397W        W 6141   9.134   9.302   0.180  0.3395  0.0828  0.0400
 2398W        W 6142   7.981   4.242   0.358 -0.0374  0.1545  0.3665
 2399W        W 6143   8.094   9.638   9.284  0.2258 -0.0745  0.0462
 2400W        W 6144   3.765   4.515  12.702  0.3973 -0.2707  0.2492
 2401W        W 6145   4.762   5.438  12.661  0.2321 -0.0691  0.2601
 2402W        W 6146   7.559   5.902   0.059  0.2354  0.1649  0.1605
 2403W        W 6147   0.605   4.297  11.915 -0.0065  0.1509 -0.3485
 2404W        W 6148   4.933   9.595  12.430  0.2440  0.2086  0.3570
 2405W        W 6149   5.752   2.815   1.280  0.2868  0.2292 -0.1689
 2406W        W 6150   7.894   4.551   1.103 -0.0240 -0.0046  0.0900
 2407W        W 6151   7.566   0.617  10.332 -0.1011  0.1699  0.0230
 2408W        W 6152   8.531   3.773  12.863 -0.0369  0.0784 -0.2043
 2409W        W 6153   9.584   7.464  12.389  0.0962 -0.3529 -0.1653
 2410W        W 6154   1.317   5.903   3.271 -0.0397  0.1616 -0.1428
 2411W        W 6155   7.796   3.052   4.804  0.0083 -0.1058  0.0643
 2412W        W 6156   0.591   3.448   8.938  0.0694  0.2211 -0.2837
 2413W        W 6157   7.227   3.663  10.801 -0.0316  0.3065 -0.1039
 2414W        W 6158   0.696   8.343  10.504 -0.0049  0.1536 -0.1473
 2415W        W 6159   7.923   7.492   1.646 -0.2240 -0.2878 -0.1998
 2416W        W 6160   0.840   7.357   3.050  0.0930 -0.2769 -0.0904
 2417W        W 6161   5.765   9.508   1.831  0.2617 -0.0603  0.1438
 2418W        W 6162   3.877   3.490  11.376 -0.1349 -0.0929  0.3234
 2419W        W 6163   0.366   6.202  10.021 -0.4659  0.0528  0.0297
 2420W        W 6164   1.878   0.211   4.288  0.0073  0.1011 -0.1617
 2421W        W 6165   0.371   2.040   1.849 -0.5535  0.1527  0.0675
 2422W        W 6166   5.994   3.655  11.931 -0.1680 -0.1071  0.2928
 2423W        W 6167   9.310   2.511  10.970 -0.1584  0.0845  0.0839
 2424W        W 6168   4.804   1.659   0.483 -0.1691 -0.0191  0.1719
 2425W        W 6169   4.228   4.639  12.822  0.5508  0.1527  0.1540
 2426W        W 6170   5.409   2.197   2.589  0.0779  0.3543 -0.0208
 2427W        W 6171   7.401   6.635   0.230  0.0303 -0.0149  0.0181
 2428W        W 6172   8.486   3.024   2.308 -0.1027  0.2474 -0.2261
 2429W        W 6173   3.101   0.611  11.210  0.0911 -0.0101  0.1677
 2430W        W 6174   0.968   1.645  11.034  0.1732 -0.2697 -0.0107
 2431W        W 6175   0.316   7.758   4.020 -0.0056 -0.0411 -0.1340
 2432W        W 6176   6.200   0.673   9.983 -0.1679 -0.2660 -0.2211
 2433W        W 6177   2.665   9.330   2.613 -0.1021  0.0020  0.0502
 2434W        W 6178   9.596   1.643  10.811  0.2917  0.1376 -0.0203
 2435W        W 6179   5.291   8.638  11.367  0.2116  0.1944 -0.1205
 2436W        W 6180   6.413   3.237   9.548 -0.3793 -0.2558  0.0994
 2437W        W 6181   2.235   5.537   3.305 -0.2924  0.3098  0.0648
 2438W        W 6182   2.453   4.624   2.787 -0.2959 -0.1911 -0.1357
 2439W        W 6183   7.283   6.564   1.130  0.3774 -0.2160  0.0369
 2440W        W 6184   4.639   2.561   2.451  0.2007 -0.1587 -0.0629
 2441W        W 6185   5.083   7.406  11.202  0.0112 -0.3902  0.0653
 2442W        W 6186   6.051   6.231   0.535  0.2674 -0.0559 -0.1079
 2443W        W 6187   3.891   4.598   0.230  0.1036  0.1564  0.2676
 2444W        W 6188   2.634   0.945   4.178  0.2992  0.0807 -0.2944
 2445W        W 6189   1.647   4.061  12.058  0.2096  0.2619  0.2752
 2446W        W 6190   3.705   3.879  10.805  0.1275 -0.2087  0.0279
 2447W        W 6191   0.056   3.125  11.876  0.2646  0.1092  0.0718
 2448W        W 6192   8.650   0.048   3.420 -0.3853  0.1125  0.1163
 2449W        W 6193   6.078   7.232  12.155 -0.3077 -0.0134  0.1100
 2450W        W 6194   7.877   8.110  12.838 -0.0330 -0.2109  0.5408
 2451W        W 6195   5.785   7.667  11.320  0.1722  0.0422 -0.0514
 2452W        W 6196   7.474   2.551   1.135 -0.0689 -0.0656  0.1961
 2453W        W 6197   2.954   1.687   3.001 -0.0572  0.0382 -0.1535
 2454W        W 6198   3.078   4.017   3.220  0.0570  0.0218  0.3131
 2455W        W 6199   1.716   2.050   4.729 -0.0628  0.0079  0.0591
 2456W        W 6200   1.336   5.335   2.747  0.1312  0.0067 -0.2214
 2457W        W 6201   0.014   3.320   3.379 -0.1258 -0.0748  0.0518
 2458W        W 6202   6.819   0.151  12.518  0.0615 -0.3388 -0.3120
 2459W        W 6203   5.705   2.152  12.364 -0.0257 -0.3076 -0.4423
 2460W        W 6204   7.050   1.010   0.216  0.0105  0.1360  0.1659
 2461W        W 6205   7.960   2.846   0.530 -0.0595  0.0731 -0.2663
 2462W        W 6206   2.879   6.760  10.014 -0.2148 -0.2268  0.2797
 2463W        W 6207   8.685   4.686   3.874  0.0203  0.2282  0.1614
 2464W        W 6208   6.684   4.584   0.600  0.1127 -0.0230 -0.0413
 2465W        W 6209   9.521   3.193  12.195  0.0111 -0.1354  0.0345
 2466W        W 6210   2.770   2.265   0.247  0.0606 -0.3077  0.2303
 2467W        W 6211   8.322   1.062  11.841 -0.1390 -0.0983  0.3415
 2468W        W 6212   2.349   4.935   3.460 -0.0456 -0.1750 -0.2585
 2469W        W 6213   7.145   5.756  10.985  0.0489  0.3059 -0.1362
 2470W        W 6214   1.184   7.247   0.108  0.1153  0.1551  0.1694
 2471W        W 6215   3.751   6.281  12.772 -0.2674  0.2074 -0.0661
 2472W        W 6216   2.386   0.519  11.430 -0.0777 -0.0063 -0.3847
 2473W        W 6217   9.717   3.230   9.256 -0.1182 -0.0141 -0.0100
 2474W        W 6218   3.160   8.008  11.579  0.1297 -0.1717  0.0777
 2475W        W 6219   8.723   9.332  10.282  0.0754 -0.0450  0.3894
 2476W        W 6220   8.836   2.872   1.015 -0.0107  0.0925  0.0074
 2477W        W 6221   1.960   1.505   3.238  0.1733 -0.1852  0.2074
 2478W        W 6222   2.027   6.293   3.999 -0.0295  0.0179 -0.0952
 2479W        W 6223   7.642   5.310   3.947 -0.0565  0.0053 -0.0682
 2480W        W 6224   1.782   9.628   1.361  0.0037 -0.1391  0.1055
 2481W        W 6225   2.414   2.143   3.716  0.1173 -0.1935  0.0931
 2482W        W 6226   6.004   6.958  11.646  0.1387 -0.3392 -0.0993
 2483W        W 6227   8.461   0.796   0.536 -0.0956  0.1316  0.1399
 2484W        W 6228   1.616   0.049   9.806  0.1272 -0.0496 -0.2037
 2485W        W 6229   2.544   0.802   9.058 -0.1798  0.2083 -0.0160
 2486W        W 6230   1.686   8.562  12.134 -0.1319 -0.0408  0.2753
 2487W        W 6231   2.511   3.967   3.767  0.0382  0.1530  0.0857
 2488W        W 6232   2.932   4.514   2.068 -0.4276  0.1610 -0.4059
 2489W        W 6233   4.827   6.446  11.315  0.3723 -0.2564 -0.0469
 2490W        W 6234   3.475   5.651  10.279 -0.0405 -0.0006 -0.1710
 2491W        W 6235   6.057   5.119   4.696 -0.4725  0.7163  0.4719
 2492W        W 6236   5.680   7.446   2.746  0.2373  0.0473 -0.0326
 2493W        W 6237   7.390   7.118  11.000 -0.2693 -0.0399 -0.0588
 2494W        W 6238   8.927   0.419   3.526  0.2116  0.0214  0.1282
 2495W        W 6239   7.002   8.129   3.402  0.0222  0.0073 -0.0409
 2496W        W 6240   0.828   3.111   2.960 -0.0022  0.2646  0.1778
 2497W        W 6241   2.959   0.560  12.733 -0.0730 -0.5119 -0.0495
 2498W        W 6242   1.426   3.211   2.992 -0.2000  0.0496 -0.2100
 2499W        W 6243   5.984   2.279   3.427  0.2141 -0.1508 -0.1550
 2500W        W 6244   3.880   0.589   3.214 -0.0435  0.0979  0.3175
 2501W        W 6245   6.648   6.115  12.567  0.0878 -0.1741 -0.1553
 2502W        W 6246   8.591   4.173  10.542 -0.0124  0.0193  0.0787
 2503W        W 6247   6.175   6.279   3.748 -0.0674 -0.0322  0.1219
 2504W        W 6248   3.550   4.526  11.734 -0.2422 -0.1006  0.0393
 2505W        W 6249   7.045   7.894   2.605  0.3539  0.2913 -0.0473
 2506W        W 6250   9.757   9.460   4.429 -0.0599  0.0023  0.0920
 2507W        W 6251   3.673   8.873   1.740  0.0741  0.1830 -0.2553
 2508W        W 6252   0.770   9.363   4.037 -0.0130 -0.1916 -0.1020
 2509W        W 6253   8.031   7.932   9.999  0.2861  0.3687 -0.0758
 2510W        W 6254   1.113   8.295  12.868  0.0478 -0.1327 -0.1566
 2511W        W 6255   3.457   8.699   2.941  0.1245 -0.1331  0.2343
 2512W        W 6256   0.281   1.550  12.544  0.1490 -0.3011 -0.1855
 2513W        W 6257   6.514   1.422   2.989 -0.2187  0.1871 -0.1222
 2514W        W 6258   1.451   0.835  10.462  0.0003  0.0756 -0.1665
 2515W        W 6259   6.701   5.322  12.703  0.0624  0.1251 -0.2627
 2516W        W 6260   8.338   7.387   2.642  0.1473  0.1543  0.0094
 2517W        W 6261   2.987   0.131   0.029  0.0116 -0.1583  0.0597
 2518W        W 6262   4.616   6.060   9.979  0.0340 -0.0326  0.1722
 2519W        W 6263   6.401   7.632  10.321  0.0679 -0.0193  0.0367
 2520W        W 6264   2.930   8.060   9.153  0.0135 -0.0323  0.2798
 2521W        W 6265   5.450   9.491   0.270 -0.0149  0.0036 -0.0009
 2522W        W 6266   7.977   0.818   0.609 -0.1578 -0.1508 -0.0452
 2523W        W 6267   4.137   6.780   9.651  0.0794 -0.0698  0.0281
 2524W        W 6268   2.324   2.672   3.542 -0.0825  0.2867 -0.2644
 2525W        W 6269   1.671   1.609   9.505  0.2709  0.0734 -0.1869
 2526W        W 6270   0.671   1.191   1.392  0.0614 -0.0641  0.0211
 2527W        W 6271   9.390   6.704   3.667 -0.2787 -0.0847 -0.0910
 2528W        W 6272   6.256   6.630   2.630  0.0363  0.0007  0.1903
 2529W        W 6273   4.516   0.116   1.988 -0.0077 -0.0419  0.3402
 2530W        W 6274   2.802   7.643   1.297  0.0894 -0.1168 -0.0105
 2531W        W 6275   6.904   8.007  12.612 -0.2523 -0.1778  0.1224
 2532W        W 6276   1.824   6.621   2.448  0.1070  0.1508  0.1971
 2533W        W 6277   6.925   5.040  10.583 -0.1779  0.2278 -0.0888
 2534W        W 6278   8.348   7.769   3.021  0.0312  0.0306 -0.1014
 2535W        W 6279   8.542   0.027   8.595  0.1336 -0.1872 -0.0312
 2536W        W 6280   3.343   5.625   3.851  0.0776  0.2188  0.1357
 2537W        W 6281   2.124   6.942  11.635 -0.0597  0.0138 -0.1381
 2538W        W 6282   5.457   5.144  11.433  0.0663 -0.4342  0.1901
 2539W        W 6283   9.046   7.206  10.536 -0.3086  0.1336  0.1562
 2540W        W 6284   2.973   8.834  12.843  0.0144 -0.1171  0.2343
 2541W        W 6285   5.172   4.171  12.140 -0.5189 -0.5421 -0.3053
 2542W        W 6286   3.065   7.364  10.980 -0.3291 -0.2669  0.1056
 2543W        W 6287   7.321   4.118  10.602  0.0083  0.2429 -0.3383
 2544W        W 6288   8.060   1.365   0.661 -0.0067  0.1545  0.1008
 2545W        W 6289   3.255   6.059  11.559 -0.0505 -0.1269  0.0496
 2546W        W 6290   1.911   3.817   8.626  0.0616 -0.1155  0.0502
 2547W        W 6291   2.740   1.651  12.793  0.0157  0.0725 -0.0110
 2548W        W 6292   2.138   5.230  10.923 -0.2732 -0.3191  0.0839
 2549W        W 6293   3.333   7.902   9.481  0.1674  0.1781  0.1730
 2550W        W 6294   7.503   4.932   0.926 -0.1895  0.0440 -0.0700
 2551W        W 6295   1.970   5.553   1.566 -0.2001 -0.3588  0.1115
 2552W        W 6296   0.583   4.679  10.711 -0.0926  0.0382 -0.0713
 2553W        W 6297   3.435   1.111   0.062  0.3677 -0.0490  0.1988
 2554W        W 6298   1.976   2.267  11.187  0.0885  0.1011 -0.1323
 2555W        W 6299   9.033   0.139   2.394 -0.1068 -0.0211  0.1440
 2556W        W 6300   7.497   6.781   1.511  0.0243 -0.0686 -0.0108
 2557W        W 6301   8.222   1.208   1.092 -0.0632  0.0145 -0.0889
 2558W        W 6302   2.495   7.615   1.800 -0.0926 -0.0898 -0.1079
 2559W        W 6303   7.179   3.955  12.948 -0.0885  0.1351 -0.0638
 2560W        W 6304   1.738   4.239  10.170  0.2512 -0.0367 -0.0599
 2561W        W 6305   2.268   7.753   0.542  0.1040 -0.0032  0.4284
 2562W        W 6306   9.667   2.529   3.859 -0.1262  0.0537 -0.0548
 2563W        W 6307   3.417   4.980  11.515  0.3689 -0.1348  0.1525
 2564W        W 6308   1.632   3.279   3.851 -0.0807 -0.2123  0.3185
 2565W        W 6309   0.187   4.979   9.330 -0.0204 -0.3377  0.2245
 2566W        W 6310   9.276   3.007   1.265  0.1508 -0.1030  0.0698
 2567W        W 6311   7.212   2.025   4.087 -0.3009 -0.2234  0.0086
 2568W        W 6312   9.756   4.980  10.280 -0.2081  0.2949  0.0943
 2569W        W 6313   9.430   7.353  10.113  0.1541  0.3780  0.3637
 2570W        W 6314   2.816   4.095  10.216  0.0679  0.0046  0.0100
 2571W        W 6315   5.117   1.338   0.758 -0.2213  0.2847  0.1849
 2572W        W 6316   2.690   3.287   9.864  0.1850 -0.2170  0.1706
 2573W        W 6317   8.624   6.398   2.206  0.1143 -0.1740  0.0011
 2574W        W 6318   0.827   2.517   3.520 -0.0054  0.0890 -0.0450
 2575W        W 6319   6.057   6.081   1.821 -0.0800  0.1095  0.0310
 2576W        W 6320   9.032   4.558   8.540 -0.1510 -0.0697 -0.0171
 2577W        W 6321   4.317   5.066  10.191  0.0572  0.4302 -0.0594
 2578W        W 6322   0.162   0.008   4.380 -0.2007 -0.0483  0.1105
 2579W        W 6323   2.213   9.252   0.936  0.3179 -0.2975  0.2409
 2580W        W 6324   7.685   4.328   9.292  0.3802 -0.3803  0.2068
 2581W        W 6325   8.532   6.826   0.756 -0.0407 -0.0340  0.1677
 2582W        W 6326   4.514   4.712   3.762  0.0295 -0.1151  0.2861
 2583W        W 6327   9.206   2.316   0.847  0.3569  0.1808  0.0477
 2584W        W 6328   2.459   1.175  10.292 -0.0266  0.2832  0.1234
 2585W        W 6329   0.291   2.582   2.551 -0.0066 -0.1220 -0.3250
 2586W        W 6330   3.609   7.218   2.595 -0.0298 -0.1882  0.1109
 2587W        W 6331   1.496   2.629   9.422  0.2302  0.1809 -0.0825
 2588W        W 6332   8.855   9.230   9.236  0.0251 -0.1886 -0.2936
 2589W        W 6333   7.017   3.636  11.982  0.0760  0.2249  0.3013
 2590W        W 6334   5.189   8.350  10.084  0.3077  0.3560  0.4838
 2591W        W 6335   1.369   4.449   0.944  0.1749 -0.2391 -0.0078
 2592W        W 6336   9.428   1.999   9.181  0.3890 -0.4046  0.2684
 2593W        W 6337   4.049   4.802  11.810  0.0669  0.1783  0.0498
 2594W        W 6338   0.025   6.839   9.470 -0.0590  0.2460 -0.1484
 2595W        W 6339   4.406   4.628   2.332 -0.2818  0.3993  0.2268
 2596W        W 6340   0.935   6.066  10.879  0.0816  0.1838 -0.2067
 2597W        W 6341   8.055   7.880   3.472 -0.1374 -0.0761  0.1598
 2598W        W 6342   0.136   7.044  10.435  0.1060 -0.1282  0.0299
 2599W        W 6343   1.891   0.550  11.305  0.0425 -0.0274  0.3036
 2600W        W 6344   8.862   5.428   0.452  0.1939 -0.1530  0.2041
 2601W        W 6345   4.632   9.059   1.301  0.0333 -0.1836  0.0405
 2602W        W 6346   3.112   1.750  12.435  0.2914  0.1878  0.2876
 2603W        W 6347   0.574   4.218   9.838 -0.2592  0.0618  0.0136
 2604W        W 6348   9.052   0.508   9.984 -0.1659  0.0198  0.2076
 2605W        W 6349   6.433   6.600   0.385 -0.0436  0.0861 -0.1595
 2606W        W 6350   6.359   3.703   4.091  0.0264 -0.1010  0.2579
 2607W        W 6351   4.434   3.764   0.359  0.1186  0.0741 -0.0037
 2608W        W 6352   6.342   7.558   3.086  0.1214 -0.3136  0.0350
 2609W        W 6353   4.193   7.248  12.876  0.2223  0.3302  0.0733
 2610W        W 6354   1.446   1.116  12.154 -0.2708 -0.1173  0.2103
 2611W        W 6355   1.978   5.622   2.172 -0.1227 -0.0625 -0.0443
 2612W        W 6356   9.165   2.044   4.631 -0.2923 -0.0792 -0.2436
 2613W        W 6357   0.264   5.662  11.445 -0.2934 -0.2972 -0.1643
 2614W        W 6358   0.954   3.679   0.905  0.0203 -0.3018  0.0698
 2615W        W 6359   3.691   0.217  12.904  0.1060 -0.0568  0.1704
 2616W        W 6360   1.793   6.988   0.613 -0.0737  0.0884 -0.2124
 2617W        W 6361   6.792   7.623  12.970 -0.0404 -0.0422 -0.0240
 2618W        W 6362   7.370   0.880   9.395 -0.1210  0.0324  0.0653
 2619W        W 6363   9.362   5.099   3.342 -0.2811  0.3460  0.2532
 2620W        W 6364   8.604   8.514   2.285 -0.0284  0.1111 -0.1213
 2621W        W 6365   6.513   4.845  12.758 -0.0426  0.1084  0.1342
 2622W        W 6366   9.208   7.876   9.923  0.1207 -0.2053  0.1518
 2623W        W 6367   9.767   3.345  10.194 -0.1921 -0.1995  0.0106
 2624W        W 6368   6.214   3.786   2.183 -0.0000 -0.0030 -0.3404
 2625W        W 6369   1.298   9.736   5.027  0.0830 -0.0434  0.1679
 2626W        W 6370   7.960   0.620  11.699  0.2649 -0.2441  0.2051
 2627W        W 6371   3.679   2.245   3.930 -0.0492  0.0365 -0.1485
 2628W        W 6372   5.824   5.598   3.933  0.1241  0.1529  0.1333
 2629W        W 6373   7.889   5.606   0.967 -0.1623 -0.0388  0.0694
 2630W        W 6374   2.338   2.933   1.258  0.3105 -0.0187 -0.3238
 2631W        W 6375   0.258   3.634  12.746 -0.1160 -0.4353  0.1687
 2632W        W 6376   1.003   0.282  12.768  0.1355 -0.0459 -0.1557
 2633W        W 6377   2.853   7.240   1.727 -0.0359 -0.0606 -0.4068
 2634W        W 6378   9.625   0.106   4.146  0.1265 -0.0463  0.1085
 2635W        W 6379   1.109   2.026  10.519 -0.1689 -0.2223  0.4009
 2636W        W 6380   9.318   5.325   1.672  0.0998 -0.5081 -0.3193
 2637W        W 6381   4.797   3.547   4.294 -0.1923  0.4281 -0.3324
 2638W        W 6382   5.610   8.218  11.382  0.0534  0.0355  0.0421
 2639W        W 6383   0.329   8.580   1.321  0.1135  0.0562 -0.0052
 2640W        W 6384   6.944   0.997   2.260 -0.2156 -0.0954  0.2463
 2641W        W 6385   2.699   1.207   3.776  0.2516 -0.0250 -0.1584
 2642W        W 6386   8.842   9.436   4.204  0.2017 -0.1946  0.0117
 2643W        W 6387   0.939   0.750   9.874  0.2982 -0.0997  0.0671
 2644W        W 6388   0.787   3.309  12.815 -0.0162  0.1170 -0.1656
 2645W        W 6389   0.860   4.169   0.830 -0.2107  0.0037  0.2851
 2646W        W 6390   5.535   1.741   9.822  0.1794  0.2038 -0.0163
 2647W        W 6391   1.230   9.199  12.105 -0.0799 -0.0047 -0.0923
 2648W        W 6392   0.493   7.946  10.147 -0.1049 -0.0446 -0.2897
 2649W        W 6393   5.435   7.202   3.119 -0.2892 -0.1086 -0.1987
 2650W        W 6394   4.835   6.743   1.478  0.0709 -0.2795 -0.1218
 2651W        W 6395   7.610   3.100  12.265 -0.0051  0.0762  0.2879
 2652W        W 6396   7.179   3.406   1.168  0.0044 -0.1128 -0.0564
 2653W        W 6397   8.915   7.378   2.473  0.2521 -0.0503 -0.0702
 2654W        W 6398   2.388   8.149  11.982  0.2640 -0.3263  0.0624
 2655W        W 6399   9.773   4.486   0.684 -0.2723  0.0047  0.1664
 2656W        W 6400   3.743   2.484  11.035 -0.0631 -0.0074 -0.1214
 2657W        W 6401   0.288   2.262   9.011 -0.1530 -0.3161 -0.2517
 2658W        W 6402   6.191   9.270  10.648 -0.0173 -0.0580  0.2206
 2659W        W 6403   5.515   6.998   1.248 -0.1131 -0.0246  0.0450
 2660W        W 6404   9.273   7.818   3.155 -0.0242 -0.1629  0.0869
 2661W        W 6405   5.325   1.112   1.184 -0.0203 -0.2528 -0.0679
 2662W        W 6406   1.774   8.717  11.362  0.1413  0.1394  0.0577
 2663W        W 6407   3.791   3.611   4.218  0.0390 -0.1069 -0.1522
 2664W        W 6408   9.137   4.415  10.633 -0.0151 -0.1917 -0.3947
 2665W        W 6409   0.634   3.881   0.522  0.3105  0.2402  0.1722
 2666W        W 6410   9.742   5.395  12.161 -0.3512 -0.1792 -0.3153
 2667W        W 6411   2.888   6.837   3.987  0.1593 -0.0562 -0.3299
 2668W        W 6412   8.807   8.539   9.238  0.2623 -0.4361  0.2982
 2669W        W 6413   9.740   2.754   1.320 -0.0809  0.0387 -0.1312
 2670W        W 6414   3.376   2.158  12.309  0.0723 -0.3397 -0.0901
 2671W        W 6415   6.497   7.151   0.203  0.0094  0.6461 -0.2456
 2672W        W 6416   1.394   5.060   3.608 -0.1536 -0.1618  0.0515
 2673W        W 6417   2.471   8.813   0.869 -0.0767  0.0236  0.2987
 2674W        W 6418   9.039   7.061  11.621 -0.1947  0.1006  0.1472
 2675W        W 6419   0.307   2.921   2.983  0.1230 -0.0210  0.1177
 2676W        W 6420   2.569   8.589  11.815 -0.1147 -0.2998 -0.1092
 2677W        W 6421   9.764   7.068   4.429 -0.0231 -0.0365 -0.1069
 2678W        W 6422   0.196   4.094   0.293 -0.1135 -0.0533 -0.3400
 2679W        W 6423   8.094   5.607  12.258  0.2445  0.2715  0.1554
 2680W        W 6424   5.460   0.022   9.811  0.0387 -0.0062 -0.1969
 2681W        W 6425   4.256   3.472   4.113 -0.0863 -0.1526  0.0369
 2682W        W 6426   7.231   9.688   3.568 -0.2658 -0.0148  0.4763
 2683W        W 6427   1.045   6.448   0.909 -0.3590  0.0010 -0.2613
 2684W        W 6428   1.879   1.268   9.965  0.0181 -0.0590 -0.2134
 2685W        W 6429   1.741   7.338   1.999 -0.0648  0.0488 -0.2854
 2686W        W 6430   7.623   2.174   2.400 -0.2575 -0.5692  0.1568
 2687W        W 6431   8.312   5.302  10.846  0.1629  0.2978  0.4128
 2688W        W 6432   7.001   4.932   3.197 -0.3155 -0.1238 -0.2639
 2689W        W 6433   7.651   5.181   4.544 -0.0721 -0.1783 -0.0834
 2690W        W 6434   4.206   6.218   8.834  0.1162  0.1077  0.0292
 2691W        W 6435   2.267   6.517   0.083  0.1311  0.2534  0.0754
 2692W        W 6436   8.757   1.548   1.902  0.1356 -0.2114  0.0079
 2693W        W 6437   5.026   5.797   2.859 -0.0826 -0.2956  0.0247
 2694W        W 6438   3.170   9.624   3.600 -0.1847 -0.2114  0.0615
 2695W        W 6439   1.045   5.844   9.677  0.2734 -0.0758  0.0683
 2696W        W 6440   1.056   3.079  11.364  0.0006  0.1324 -0.1467
 2697W        W 6441   0.431   5.144  11.470 -0.3921  0.1156 -0.1516
 2698W        W 6442   5.118   1.065   0.299 -0.0069  0.2692 -0.1855
 2699W        W 6443   9.867   7.433  11.954  0.1761  0.0018 -0.1361
 2700W        W 6444   0.401   6.319   3.283 -0.1181  0.2074  0.0393
 2701W        W 6445   6.243   7.945   1.767 -0.0600  0.0739 -0.1906
 2702W        W 6446   6.591   9.647  12.077  0.0120 -0.1555  0.0832
 2703W        W 6447   3.634   4.562   1.572  0.0054  0.0369 -0.2946
 2704W        W 6448   3.767   0.656   2.698  0.0257 -0.0263 -0.0187
 2705W        W 6449   3.559   7.875  10.381 -0.1643 -0.1358 -0.2230
 2706W        W 6450   3.080   6.480   9.430  0.2916  0.1411  0.1541
 2707W        W 6451   8.082   1.283  10.910  0.0512 -0.2482 -0.0062
 2708W        W 6452   9.545   0.261   1.729  0.3026 -0.2365  0.1336
 2709W        W 6453   0.430   8.976  12.075 -0.2999 -0.0420 -0.4771
 2710W        W 6454   0.642   6.946   3.830  0.1860  0.0674  0.3124
 2711W        W 6455   7.010   8.279   1.164 -0.1046 -0.2732 -0.0376
 2712W        W 6456   2.452   6.590   3.885 -0.0664  0.2132 -0.4108
 2713W        W 6457   3.308   3.410   4.039 -0.0325  0.0514  0.1546
 2714W        W 6458   6.373   0.125  10.763  0.2804 -0.0716  0.0242
 2715W        W 6459   9.059   6.664   8.412  0.0579 -0.1237 -0.3077
 2716W        W 6460   8.343   1.748  10.976 -0.0419  0.2306  0.0233
 2717W        W 6461   0.621   7.406   8.110 -0.0849 -0.1899  0.0581
 2718W        W 6462   3.610   2.981   9.573  0.0209 -0.2614 -0.0607
 2719W        W 6463   7.404   1.982   0.865  0.1498  0.0591 -0.2835
 2720W        W 6464   4.079   6.749   0.361  0.4890  0.1705 -0.3922
 2721W        W 6465   1.669   2.711   2.984  0.2265 -0.3298 -0.2509
 2722W        W 6466   0.674   2.059   3.361  0.0920 -0.1798  0.2634
 2723W        W 6467   2.267   0.887  10.950 -0.1452 -0.1018  0.0947
 2724W        W 6468   1.649   0.160   1.025 -0.0391  0.4422 -0.1663
 2725W        W 6469   0.445   6.617  10.468  0.2035 -0.2847  0.1638
 2726W        W 6470   9.142   7.885   9.439  0.1182 -0.0063 -0.0955
 2727W        W 6471   9.039   9.076   1.952 -0.1840 -0.0400  0.3445
 2728W        W 6472   8.521   7.932  10.236 -0.3882 -0.0899  0.2877
 2729W        W 6473   1.690   4.382   3.875  0.4206 -0.0735  0.2784
 2730W        W 6474   2.851   5.180   8.912 -0.1625  0.1747 -0.0427
 2731W        W 6475   0.960   2.481   4.379 -0.1573  0.2798  0.5815
 2732W        W 6476   3.326   0.499   0.261 -0.0008 -0.2167  0.0297
 2733W        W 6477   2.035   7.557   9.264  0.0815 -0.0671 -0.0800
 2734W        W 6478   4.221   6.373  10.025  0.1008 -0.1566  0.4122
 2735W        W 6479   9.810   4.349   8.008  0.2620 -0.1818 -0.2101
 2736W        W 6480   7.301   6.254  10.976  0.1591  0.5610  0.0579
 2737W        W 6481   6.015   4.022  12.781  0.0885 -0.2630  0.0006
 2738W        W 6482   4.528   5.006   3.278 -0.4152 -0.0321 -0.0763
 2739W        W 6483   2.702   0.933   8.286  0.0083 -0.1443 -0.0406
 2740W        W 6484   1.700   2.784  11.614 -0.1312  0.1621  0.2983
 2741W        W 6485   6.152   4.958   9.138  0.1034  0.5504 -0.5158
 2742W        W 6486   4.340   1.185   1.430 -0.3257 -0.0333  0.4053
 2743W        W 6487   3.320   1.428   8.811  0.1384 -0.0025 -0.1158
 2744W        W 6488   2.828   7.435  12.383 -0.0858  0.3910 -0.0088
 2745W        W 6489   2.143   4.390   3.080 -0.3352 -0.2646  0.2300
 2746W        W 6490   6.097   5.116   1.097  0.2662 -0.1163  0.0299
 2747W        W 6491   0.612   6.517   4.466 -0.1100 -0.0178 -0.0691
 2748W        W 6492   0.196   1.857  12.088  0.3357  0.1773  0.1540
 2749W        W 6493   6.111   5.860   0.138 -0.3568 -0.2815  0.1047
 2750W        W 6494   3.686   1.416  10.810  0.1671  0.3029 -0.3772
 2751W        W 6495   2.087   0.417  12.287 -0.0795 -0.1576  0.0845
 2752W        W 6496   4.925   6.157   4.596 -0.1697 -0.1545 -0.1054
 2753W        W 6497   4.147   5.729   4.686  0.0704  0.2036  0.0781
 2754W        W 6498   5.098   0.545  10.655  0.1033 -0.2897  0.1841
 2755W        W 6499   6.980   3.016   9.637 -0.2185  0.1464 -0.2024
 2756W        W 6500   9.106   4.626   4.937 -0.2515  0.2236 -0.0095
 2757W        W 6501   9.219   3.289   3.924  0.3917  0.3223 -0.1058
 2758W        W 6502   6.306   2.732   0.144  0.2623 -0.0101 -0.1181
 2759W        W 6503   7.649   3.517   2.893  0.1852 -0.1964  0.0193
 2760W        W 6504   6.470   7.121   3.236 -0.1544  0.0572  0.4709
 2761W        W 6505   7.611   1.678   2.289 -0.1548  0.1818 -0.0133
 2762W        W 6506   3.355   9.474   2.590  0.1206  0.4272  0.3079
 2763W        W 6507   7.165   2.743  10.904 -0.5241  0.1589  0.1301
 2764W        W 6508   3.772   6.991  10.547  0.2330 -0.2520 -0.1296
 2765W        W 6509   2.761   4.598   8.848  0.0494 -0.2314  0.0758
 2766W        W 6510   7.666   7.179   4.230  0.0167  0.0874  0.0930
 2767W        W 6511   8.241   8.366  11.668 -0.1466 -0.2018  0.1560
 2768W        W 6512   5.679   6.410   3.684 -0.0011 -0.2105 -0.2049
 2769W        W 6513   4.921   0.485   1.184  0.1778 -0.0936  0.0333
 2770W        W 6514   0.752   2.594   3.057 -0.1919  0.1946  0.3677
 2771W        W 6515   3.613   9.363   9.979 -0.3123 -0.0889 -0.2052
 2772W        W 6516   8.590   5.262   3.859 -0.1226 -0.0741 -0.2716
 2773W        W 6517   5.650   5.236   9.409 -0.2327 -0.1797 -0.0897
 2774W        W 6518   0.910   7.079   0.464  0.2332 -0.1200  0.2624
 2775W        W 6519   0.776   7.843  10.632  0.0599 -0.2865  0.2315
 2776W        W 6520   0.370   2.811  10.870  0.1739  0.0146  0.2271
 2777W        W 6521   9.336   1.522  11.936 -0.0432  0.1222 -0.0937
 2778W        W 6522   4.282   5.291   1.627  0.6091 -0.0755 -0.0186
 2779W        W 6523   2.644   0.686   3.727  0.1582 -0.0196 -0.4835
 2780W        W 6524   7.971   2.383  10.832  0.1564  0.0744 -0.3451
 2781W        W 6525   8.875   0.017   2.960 -0.2363 -0.0426 -0.0168
 2782W        W 6526   2.944   1.464  11.114 -0.1655 -0.0192 -0.1417
 2783W        W 6527   6.742   5.161   1.693 -0.1038  0.0573 -0.3699
 2784W        W 6528   2.095   4.749   9.983 -0.1264  0.1125 -0.0751
 2785W        W 6529   7.767   8.236  11.413  0.0238  0.1214 -0.0827
 2786W        W 6530   5.458   0.497  11.763  0.1752 -0.4314  0.1975
 2787W        W 6531   0.578   1.129   2.859  0.0577  0.3896 -0.0953
 2788W        W 6532   1.253   5.518   1.162 -0.2076  0.2151 -0.2371
 2789W        W 6533   2.200   2.042  11.662 -0.0735  0.0537 -0.0949
 2790W        W 6534   7.914   3.587   1.209  0.1974  0.2851 -0.0113
 2791W        W 6535   2.860   4.024   4.242 -0.0867  0.0068  0.2156
 2792W        W 6536   6.193   8.352   0.264  0.1501 -0.0055 -0.0079
 2793W        W 6537   3.291   6.333  12.671  0.0693 -0.2382 -0.0289
 2794W        W 6538   8.903   2.785   2.994  0.0563 -0.2373  0.0761
 2795W        W 6539   8.652   1.260   9.706 -0.0271 -0.1610 -0.0227
 2796W        W 6540   4.736   3.216   3.850  0.1113 -0.0052 -0.1785
 2797W        W 6541   0.734   8.613  11.473  0.1210 -0.0405 -0.1541
 2798W        W 6542   9.195   4.305   1.484  0.0739  0.0596 -0.1825
 2799W        W 6543   5.250   3.311   3.773 -0.0750  0.3338 -0.2355
 2800W        W 6544   7.094   7.864  11.591  0.0961  0.1113 -0.1279
 2801W        W 6545   0.252   5.410  10.988 -0.3469  0.1676  0.1703
 2802W        W 6546   7.526   4.896  12.715 -0.0200 -0.1571  0.1118
 2803W        W 6547   6.045   8.634  11.410 -0.2221  0.2341 -0.3331
 2804W        W 6548   8.790   4.432  10.995  0.0217  0.1429 -0.1240
 2805W        W 6549   5.149   8.228  12.678  0.0464 -0.2259 -0.4801
 2806W        W 6550   2.874   2.479   0.772 -0.1574 -0.1657 -0.2221
 2807W        W 6551   1.377   2.269   2.889  0.0120  0.0132  0.3792
 2808W        W 6552   3.359   7.136   4.680  0.3578  0.2633  0.4733
 2809W        W 6553   0.226   8.746   0.209 -0.1669 -0.1687 -0.1891
 2810W        W 6554   7.495   6.801   3.431 -0.0716 -0.0925  0.0482
 2811W        W 6555   7.987   6.674   1.706 -0.2128  0.2698  0.1594
 2812W        W 6556   3.398   9.885  12.538 -0.0697 -0.1784 -0.0617
 2813W        W 6557   0.498   9.466  12.735  0.1304  0.1771  0.2470
 2814W        W 6558   8.469   9.757  12.294 -0.1511 -0.1547  0.0673
 2815W        W 6559   3.465   5.473  11.628 -0.0059  0.2459 -0.1705
 2816W        W 6560   6.436   6.271  12.986 -0.0784 -0.0266 -0.0763
 2817W        W 6561   3.797   2.517   9.662 -0.0590 -0.0587 -0.2894
 2818W        W 6562   8.580   5.961   1.920  0.3450  0.0370 -0.1987
 2819W        W 6563   0.889   1.123   1.884 -0.1725  0.1172  0.0528
 2820W        W 6564   3.939   5.429   8.680 -0.2262  0.1528  0.2741
 2821W        W 6565   4.212   2.529   0.337 -0.1482  0.2638  0.1482
 2822W        W 6566   1.248   5.006   0.399  0.1067 -0.2475 -0.0416
 2823W        W 6567   8.612   6.854   2.466 -0.1375 -0.1344 -0.0959
 2824W        W 6568   4.015   8.642   9.907 -0.2227  0.0164 -0.1212
 2825W        W 6569   4.684   5.643   8.844  0.0508 -0.1876 -0.0016
 2826W        W 6570   1.907   5.750  11.020 -0.1392 -0.0706  0.1250
 2827W        W 6571   6.534   6.598   8.770  0.0459 -0.0292 -0.0026
 2828W        W 6572   2.774   5.675  10.533  0.1726 -0.1692  0.3242
 2829W        W 6573   3.390   2.462   0.765 -0.0544 -0.1661  0.0052
 2830W        W 6574   9.385   7.082   4.960  0.1082  0.0070  0.2590
 2831W        W 6575   5.330   6.997   0.328 -0.1413  0.2631 -0.2129
 2832W        W 6576   4.289   4.268  10.726  0.0192  0.1304  0.4415
 2833W        W 6577   7.821   8.420  10.003 -0.0549 -0.2431  0.4172
 2834W        W 6578   4.997   3.724   0.659 -0.0854  0.1456  0.0170
 2835W        W 6579   8.619   8.674  11.537  0.0770 -0.1196  0.0000
 2836W        W 6580   1.477   9.134   2.392  0.0186  0.0591  0.1574
 2837W        W 6581   3.953   4.070  12.947  0.3529 -0.0298 -0.3879
 2838W        W 6582   3.143   5.693   9.127 -0.4171 -0.0499  0.1146
 2839W        W 6583   7.698   5.738   2.440 -0.2377  0.1131 -0.1492
 2840W        W 6584   7.940   9.125   9.930  0.0672  0.1207  0.1683
 2841W        W 6585   2.946   4.762   9.829  0.2283  0.4685 -0.1071
 2842W        W 6586   8.007   8.335   2.621 -0.0351 -0.0091 -0.0579
 2843W        W 6587   4.548   2.603   3.117  0.1402 -0.1397  0.2980
 2844W        W 6588   1.339   9.847   1.320 -0.1153  0.0198  0.1153
 2845W        W 6589   6.584   4.654   3.190 -0.1410  0.1472 -0.0549
 2846W        W 6590   9.352   7.633  10.867  0.0601 -0.2678  0.0539
 2847W        W 6591   6.299   4.691   3.610 -0.0502  0.0751  0.0383
 2848W        W 6592   6.724   3.975   8.842  0.1149  0.0047  0.5242
 2849W        W 6593   8.273   0.264   3.581 -0.2324  0.2116 -0.1747
 2850W        W 6594   4.969   4.801   1.036 -0.1636 -0.6449 -0.0294
 2851W        W 6595   4.698   7.587  11.906 -0.0995 -0.0207 -0.2047
 2852W        W 6596   2.814   5.369   2.604  0.1670  0.1653  0.1217
 2853W        W 6597   3.358   6.013  11.045  0.0515 -0.3033  0.1463
 2854W        W 6598   5.723   5.367   1.299 -0.2824 -0.2196  0.2683
 2855W        W 6599   2.712   4.156   0.835 -0.0489  0.1303 -0.0061
 2856W        W 6600   4.449   7.305   2.071  0.3581  0.1275 -0.1862
 2857W        W 6601   6.024   2.369  12.024  0.2319  0.0190 -0.1386
 2858W        W 6602   5.126   9.509   2.524  0.1786 -0.0243  0.1825
 2859W        W 6603   9.200   4.537   0.302 -0.0479 -0.1880  0.3457
 2860W        W 6604   4.647   0.982  11.639 -0.2491  0.0800  0.1357
 2861W        W 6605   1.327   2.966  10.348  0.4052  0.1926  0.3151
 2862W        W 6606   7.020   1.870   3.613  0.4610 -0.1377 -0.0234
 2863W        W 6607   0.203   3.710   9.231  0.1518 -0.2695 -0.1528
 2864W        W 6608   5.898   6.838  10.942 -0.0889 -0.2541  0.0498
 2865W        W 6609   0.979   4.425  11.300 -0.2856 -0.2885  0.1491
 2866W        W 6610   4.818   0.780   5.919  0.2101  0.0344 -0.0742
 2867W        W 6611   6.760   5.425   9.532  0.1048  0.3710  0.0045
 2868W        W 6612   4.826   8.265   3.913  0.1850 -0.0449 -0.1412
 2869W        W 6613   9.322   1.939   2.676 -0.1794  0.4110 -0.1460
 2870W        W 6614   4.442   3.762   9.844  0.0306  0.2135 -0.0868
 2871W        W 6615   8.887   4.747   0.665  0.0857 -0.1818  0.1460
 2872W        W 6616   8.279   8.926   1.844  0.0909 -0.2257  0.1829
 2873W        W 6617   4.271   5.799   9.138  0.0492 -0.2825  0.4988
 2874W        W 6618   3.724   9.774   1.779  0.2190 -0.1049  0.1025
 2875W        W 6619   1.967   8.284   9.694  0.2183 -0.1877 -0.0839
 2876W        W 6620   2.580   8.237  10.123  0.1730  0.1464  0.0070
 2877W        W 6621   7.030   3.889   9.754 -0.1013 -0.0385  0.0374
 2878W        W 6622   2.521   3.719  11.189 -0.0439 -0.0214  0.1979
 2879W        W 6623   6.533   1.790   1.783  0.2161 -0.0992 -0.2209
 2880W        W 6624   7.222   6.565  10.473  0.0722  0.0494 -0.1851
 2881W        W 6625   2.131   1.671   1.742 -0.1255 -0.0923  0.0651
 2882W        W 6626   4.774   3.728   2.261 -0.1505 -0.2017 -0.0670
 2883W        W 6627   9.864   4.074  12.292  0.2246 -0.0621  0.1438
 2884W        W 6628   4.168   8.737   3.425  0.1015  0.2517 -0.0954
 2885W        W 6629   4.014   8.085   1.680 -0.0177 -0.2645  0.0495
 2886W        W 6630   8.603   2.145   0.402  0.3510  0.0203 -0.0773
 2887W        W 6631   0.549   3.817   9.597 -0.1209  0.4326  0.0457
 2888W        W 6632   8.675   3.802   9.671  0.2564 -0.4668  0.0224
 2889W        W 6633   7.526   4.936   8.216 -0.3265 -0.3772  0.1417
 2890W        W 6634   7.685   8.965   3.303  0.2322 -0.0710  0.1357
 2891W        W 6635   2.979   9.019   2.281  0.0496 -0.0617 -0.0127
 2892W        W 6636   8.238   4.690   0.240  0.0086  0.6572 -0.4176
 2893W        W 6637   1.424   8.728  11.750  0.0687  0.1522 -0.0382
 2894W        W 6638   9.828   0.688   3.786  0.2016 -0.1637 -0.0132
 2895W        W 6639   4.115   6.667   9.034 -0.2195 -0.0084 -0.0481
 2896W        W 6640   6.615   0.986  12.980  0.2371  0.0498 -0.1909
 2897W        W 6641   0.653   1.875  10.680 -0.0206  0.0514  0.3961
 2898W        W 6642   8.262   9.142  11.617 -0.0234 -0.1787 -0.3127
 2899W        W 6643   7.355   9.651   2.581  0.0571  0.0774  0.0001
 2900W        W 6644   2.809   6.214  12.591  0.0997 -0.0199  0.1271
 2901W        W 6645   4.188   3.586   2.378  0.2555 -0.1718 -0.2387
 2902W        W 6646   5.157   6.395   3.630  0.2030 -0.1137 -0.0951
 2903W        W 6647   0.975   7.923   9.290 -0.0204  0.2050 -0.1601
 2904W        W 6648   0.585   0.899  12.036  0.1411  0.3091  0.1379
 2905W        W 6649   7.546   1.575  11.521 -0.1250  0.1086 -0.3231
 2906W        W 6650   9.817   1.601  11.778  0.0737  0.0479  0.1172
 2907W        W 6651   6.380   2.549   4.148  0.2056 -0.3580 -0.1902
 2908W        W 6652   2.493   8.718  10.834 -0.5310 -0.4383  0.1647
 2909W        W 6653   5.336   0.598   0.252  0.2499 -0.1535  0.0548
 2910W        W 6654   2.311   4.634   9.593  0.0086 -0.2910  0.5925
 2911W        W 6655   3.009   6.321   2.707  0.1420  0.1766 -0.1082
 2912W        W 6656   6.613   3.959   1.802  0.0582 -0.1717  0.0023
 2913W        W 6657   2.666   7.526  10.773  0.4294 -0.0761  0.0559
 2914W        W 6658   7.243   8.376   2.540  0.2821 -0.0267 -0.0773
 2915W        W 6659   5.774   6.677   2.249  0.0215  0.0331  0.0177
 2916W        W 6660   4.822   1.704   2.920 -0.1679  0.2113  0.1050
 2917W        W 6661   5.527   3.757   0.839 -0.3703  0.1422  0.2935
 2918W        W 6662   3.645   4.062  12.027  0.1703 -0.0350  0.0124
 2919W        W 6663   9.237   9.377   9.945  0.1399 -0.2135  0.1265
 2920W        W 6664   2.725   7.705  10.175  0.0360 -0.1830  0.0360
 2921W        W 6665   5.430   1.669   6.926 -0.0713  0.2208  0.0430
 2922W        W 6666   4.965   2.138  10.872 -0.0252  0.0407  0.1830
 2923W        W 6667   9.505   1.367   1.876 -0.0472 -0.1386  0.1613
 2924W        W 6668   3.559   0.873  12.237 -0.1906 -0.1008  0.0445
 2925W        W 6669   2.064   4.978   9.100  0.1221 -0.2029 -0.0167
 2926W        W 6670   8.973   6.954   3.631 -0.1570 -0.3005  0.4244
 2927W        W 6671   3.991   3.217   9.222  0.1315 -0.2245  0.2397
 2928W        W 6672   9.680   7.672   0.957  0.1655  0.1889 -0.3214
 2929W        W 6673   7.830   8.856   8.412  0.1031  0.1862 -0.0714
 2930W        W 6674   4.466   6.669  12.244  0.1787 -0.1010  0.1120
 2931W        W 6675   9.220   2.043  10.069 -0.1121 -0.0502 -0.1242
 2932W        W 6676   1.629   8.338   2.628  0.1297  0.0549  0.1019
 2933W        W 6677   6.790   3.273   2.529  0.1727  0.1055  0.1138
 2934W        W 6678   9.560   7.233   8.978 -0.2590 -0.0694 -0.0841
 2935W        W 6679   8.996   9.570   1.516  0.2144  0.0068  0.1445
 2936W        W 6680   0.983   8.431   3.411  0.2050 -0.0573  0.1314
 2937W        W 6681   8.907   5.464  12.922 -0.1937  0.0384  0.0060
 2938W        W 6682   6.200   4.260   1.048 -0.2045  0.1462 -0.2121
 2939W        W 6683   3.790   2.876   1.104  0.2568 -0.2375  0.1427
 2940W        W 6684   2.757   1.729   3.765 -0.1216  0.0145  0.1351
 2941W        W 6685   5.143   5.704   4.697  0.1587 -0.2219 -0.1857
 2942W        W 6686   8.487   9.655   1.363 -0.1172 -0.0544  0.1704
 2943W        W 6687   8.056   6.284   5.022 -0.2477 -0.0680  0.1902
 2944W        W 6688   7.778   6.226   4.242  0.0697  0.1463  0.0843
 2945W        W 6689   0.160   3.256   5.241  0.1924 -0.0437  0.0966
 2946W        W 6690   6.280   3.359  12.154 -0.1808  0.2515  0.0727
 2947W        W 6691   8.649   9.730  11.015 -0.1366  0.1345 -0.1025
 2948W        W 6692   9.564   0.365  10.491 -0.1289  0.3358 -0.1775
 2949W        W 6693   9.859   0.286  12.199  0.2776  0.0458  0.1679
 2950W        W 6694   1.204   9.383   3.356  0.1702 -0.3914  0.1863
 2951W        W 6695   8.321   6.845   2.105 -0.3772 -0.0144 -0.3109
 2952W        W 6696   8.027   4.935   4.260  0.2280 -0.0041 -0.2995
 2953W        W 6697   7.972   9.141   3.691  0.0465  0.3877 -0.0702
 2954W        W 6698   3.598   3.834   0.310  0.2487  0.4136 -0.2630
 2955W        W 6699   9.557   6.910  10.242 -0.0241  0.3013  0.2021
 2956W        W 6700   0.892   8.459   2.733 -0.2848  0.1446  0.0800
 2957W        W 6701   6.754   7.128   8.819 -0.2458 -0.2382 -0.1557
 2958W        W 6702   1.645   0.104   3.815  0.2553 -0.0588 -0.0419
 2959W        W 6703   6.694   8.218   1.728  0.2821  0.1792 -0.0074
 2960W        W 6704   7.607   4.980  11.310 -0.1585  0.0430  0.1758
 2961W        W 6705   8.397   0.819   2.320  0.3603 -0.1487  0.1317
 2962W        W 6706   0.202   3.711   8.727  0.3784  0.2886  0.2962
 2963W        W 6707   0.965   8.775  10.253  0.0018 -0.1532  0.0099
 2964W        W 6708   3.202   6.499  11.297  0.1705 -0.0403 -0.0718
 2965W        W 6709   1.167   8.924   4.283  0.0511  0.2482 -0.3046
 2966W        W 6710   5.396   2.869   3.113 -0.0764 -0.1157 -0.1644
 2967W        W 6711   3.000   7.807   0.112  0.0479 -0.1783  0.0665
 2968W        W 6712   9.522   0.762  12.317 -0.0726  0.0372 -0.2610
 2969W        W 6713   9.021   7.313   0.216  0.0852 -0.1611  0.2466
 2970W        W 6714   7.573   8.642  10.353  0.3535 -0.1323 -0.0757
 2971W        W 6715   4.771   2.591  10.854 -0.2022 -0.1379 -0.2266
 2972W        W 6716   5.494   0.283  12.332  0.0816 -0.2620 -0.2164
 2973W        W 6717   9.308   4.083  12.288 -0.3576  0.0389 -0.4356
 2974W        W 6718   2.439   1.865   1.181  0.0788 -0.0672 -0.1963
 2975W        W 6719   8.290   6.454  12.888 -0.0103 -0.1984  0.2049
 2976W        W 6720   6.938   2.564  12.345  0.0990  0.1593 -0.0871
 2977W        W 6721   6.343   5.120   1.968 -0.3033  0.0384 -0.0084
 2978W        W 6722   1.852   6.970   1.515  0.1456  0.0176  0.1404
 2979W        W 6723   1.488   6.252   2.415 -0.0067  0.1359 -0.3235
 2980W        W 6724   6.359   0.234  12.314  0.3896  0.0199 -0.1230
 2981W        W 6725   0.765   4.628   2.636 -0.0296 -0.0272  0.2481
 2982W        W 6726   7.881   6.304   0.064  0.2578 -0.0051  0.3084
 2983W        W 6727   1.720   6.752   9.083 -0.0593  0.3759 -0.2931
 2984W        W 6728   2.742   6.993  10.880 -0.2488  0.1467  0.1206
 2985W        W 6729   3.224   0.565   2.679 -0.0375 -0.0391  0.2852
 2986W        W 6730   0.517   3.313  10.781  0.0500 -0.1567 -0.2168
 2987W        W 6731   5.082   2.851  11.223  0.1845 -0.1421 -0.3079
 2988W        W 6732   5.016   4.356   1.685  0.4750  0.2160 -0.0315
 2989W        W 6733   4.736   0.633   9.782 -0.0202  0.1387 -0.0656
 2990W        W 6734   4.957   9.156  11.734 -0.4421  0.1430 -0.1228
 2991W        W 6735   4.613   4.563  10.999  0.0666  0.1022  0.2733
 2992W        W 6736   0.196   0.288   3.943 -0.0643 -0.2874  0.2989
 2993W        W 6737   4.133   5.931   9.906 -0.1013  0.0917 -0.1818
 2994W        W 6738   6.782   1.891   1.339 -0.0231  0.0999 -0.2187
 2995W        W 6739   7.285   4.705  11.537  0.4265 -0.0870  0.0190
 2996W        W 6740   5.947   7.615   8.995  0.0482 -0.2216  0.0235
 2997W        W 6741   2.043   4.113   4.066  0.3117  0.2076 -0.4143
 2998W        W 6742   5.822   7.269   0.276 -0.0878  0.0316  0.3390
 2999W        W 6743   0.371   6.337  10.980 -0.2667 -0.1471  0.0175
 3000W        W 6744   5.159   4.210  12.887 -0.2744  0.3372  0.0085
 3001W        W 6745   8.541   2.560   3.859 -0.0328 -0.1156 -0.1218
 3002W        W 6746   2.832   6.348   0.278 -0.1741  0.2482  0.2614
 3003W        W 6747   8.446   5.712  10.394  0.3504 -0.2932  0.1958
 3004W        W 6748   5.157   0.991   9.532  0.2730  0.4209 -0.0091
 3005W        W 6749   7.906   9.352   1.231  0.1153 -0.1742  0.0134
 3006W        W 6750   8.895   3.466   3.552  0.2370  0.1921  0.0139
 3007W        W 6751   3.384   6.466  10.722 -0.1426 -0.1226  0.1023
 3008W        W 6752   1.242   7.257   4.254  0.1707 -0.0395 -0.3870
 3009W        W 6753   4.734   3.466   9.487 -0.1103  0.0911 -0.3168
 3010W        W 6754   3.541   2.080   1.101  0.3050  0.1770 -0.2570
 3011W        W 6755   8.151   0.130  10.235  0.0586  0.0949  0.0675
 3012W        W 6756   8.437   1.424   1.546  0.2856  0.1415  0.1119
 3013W        W 6757   2.502   4.352   4.123 -0.0384 -0.1694  0.1646
 3014W        W 6758   9.840   5.866   9.734  0.0764  0.1974 -0.0878
 3015W        W 6759   7.667   0.270   2.288  0.2175  0.0102  0.3447
 3016W        W 6760   8.087   5.803  11.380 -0.0239  0.1796 -0.1472
 3017W        W 6761   4.434   3.397   0.704 -0.3041 -0.0924  0.4002
 3018W        W 6762   5.857   2.263  10.473 -0.2320 -0.0442 -0.0771
 3019W        W 6763   4.380   6.669   1.249  0.0557 -0.1447  0.1558
 3020W        W 6764   4.726   0.206   9.479  0.3213 -0.1537  0.0029
 3021W        W 6765   4.543   2.775  12.821 -0.0373 -0.0771 -0.3060
 3022W        W 6766   7.216   5.384   9.288 -0.2349  0.2018  0.1999
 3023W        W 6767   5.037   9.450   3.698 -0.1834 -0.3661 -0.0621
 3024W        W 6768   2.600   1.764   2.453 -0.0105 -0.0935  0.1209
 3025W        W 6769   1.443   7.757   9.029 -0.2558 -0.3488  0.1422
 3026W        W 6770   7.380   7.737   9.186 -0.2120  0.0102  0.3330
 3027W        W 6771   0.276   1.146   1.773  0.1034  0.4233  0.0847
 3028W        W 6772   6.184   3.393  10.649 -0.2434  0.0798  0.1918
 3029W        W 6773   3.143   1.697   3.451 -0.0766 -0.1153 -0.2000
 3030W        W 6774   3.648   6.878  11.528 -0.0684 -0.0423  0.1594
 3031W        W 6775   4.136   7.199   2.467 -0.0225  0.0937  0.0064
 3032W        W 6776   2.569   4.483   1.659 -0.0558  0.1511 -0.0749
 3033W        W 6777   4.189   6.988  11.403 -0.2956 -0.2641 -0.1479
 3034W        W 6778   3.007   1.125   1.874 -0.0789  0.1088 -0.1454
 3035W        W 6779   0.910   4.815   3.540  0.5574 -0.0443  0.1146
 3036W        W 6780   1.764   6.351  10.509  0.2126  0.0339  0.0611
 3037W        W 6781   7.642   5.706  11.944  0.1202 -0.1706 -0.1491
 3038W        W 6782   9.177   5.730   2.693 -0.1459 -0.1112  0.1403
 3039W        W 6783   6.866   4.601  11.996 -0.1789  0.2426  0.0995
 3040W        W 6784   5.658   5.417   0.272  0.2462  0.2960  0.4386
 3041W        W 6785   3.822   0.357   1.782  0.0284 -0.3620 -0.2008
 3042W        W 6786   7.393   7.292  12.250 -0.0543  0.2066  0.4383
 3043W        W 6787   6.421   6.886   1.659 -0.0136 -0.1478  0.0090
 3044W        W 6788   5.095   6.040   9.751  0.1836 -0.0988  0.0886
 3045W        W 6789   9.828   6.085   3.105  0.2434 -0.1844 -0.1984
 3046W        W 6790   5.306   5.553   1.528  0.2114  0.0929  0.1498
 3047W        W 6791   1.011   1.071   9.506 -0.1803 -0.1974  0.0429
 3048W        W 6792   2.745   4.085   8.023  0.0806  0.0911  0.1607
 3049W        W 6793   0.016   6.171   0.155  0.2930 -0.2487 -0.0733
 3050W        W 6794   4.871   8.449  12.276 -0.1609  0.0166 -0.1087
 3051W        W 6795   8.034   0.072   4.423 -0.1238  0.2986 -0.3960
 3052W        W 6796   1.825   6.730   2.957 -0.0194 -0.0286  0.1719
 3053W        W 6797   6.956   8.675  10.453 -0.2219 -0.1412 -0.0116
 3054W        W 6798   3.072   5.773   2.645  0.2338  0.0479 -0.2775
 3055W        W 6799   7.958   1.660   2.674  0.1094 -0.2560 -0.0514
 3056W        W 6800   5.314   7.502   9.528  0.0403 -0.3306 -0.1323
 3057W        W 6801   7.758   7.500   2.635 -0.1257  0.1084  0.2504
 3058W        W 6802   5.130   1.006   2.582 -0.1067  0.0174  0.0694
 3059W        W 6803   8.124   9.457   1.668  0.1823  0.1497  0.1014
 3060W        W 6804   2.536   2.000   0.706  0.1737  0.1099 -0.1244
 3061W        W 6805   7.009   6.466   0.526 -0.0599  0.0721  0.0575
 3062W        W 6806   8.241   2.289   1.112  0.1355 -0.1160 -0.3108
 3063W        W 6807   2.386   1.781   4.175  0.0591  0.0676 -0.2841
 3064W        W 6808   8.977   6.071   9.136  0.1416 -0.2019  0.0901
 3065W        W 6809   1.799   1.789  11.453  0.0705 -0.3594 -0.0541
 3066W        W 6810   4.136   3.900  12.125  0.0989  0.1602  0.1590
 3067W        W 6811   7.692   2.846  10.814  0.3169  0.1171 -0.1514
 3068W        W 6812   0.051   3.075   9.795  0.1636  0.2484  0.2761
 3069W        W 6813   6.534   8.960   0.974 -0.0914 -0.0786  0.3098
 3070W        W 6814   2.009   8.506   3.909 -0.1250 -0.0488 -0.2832
 3071W        W 6815   4.633   5.984  12.814  0.0402  0.2651 -0.0090
 3072W        W 6816   3.816   8.597   2.489  0.1155  0.0218 -0.2123
 3073W        W 6817   0.276   9.804   0.032  0.0909 -0.1485  0.0693
 3074W        W 6818   2.138   4.997   1.616 -0.3089  0.0475  0.1672
 3075W        W 6819   0.946   1.992   1.922  0.0242 -0.0381 -0.0356
 3076W        W 6820   7.179   6.046   1.378  0.0362  0.1295 -0.2315
 3077W        W 6821   1.125   6.274  11.298 -0.3216 -0.3334 -0.0870
 3078W        W 6822   8.222   2.935   9.990  0.2505 -0.0500  0.2052
 3079W        W 6823   3.255   7.369   0.297 -0.3678 -0.0004 -0.2913
 3080W        W 6824   9.751   1.367   0.722 -0.3454 -0.3335  0.0440
 3081W        W 6825   4.455   3.556  11.868  0.0334 -0.2616  0.1836
 3082W        W 6826   2.404   3.328   9.460 -0.1344 -0.2219 -0.0352
 3083W        W 6827   0.762   1.099   3.361  0.1467  0.0482 -0.2110
 3084W        W 6828   0.079   4.035   3.046 -0.1668  0.1352 -0.0194
 3085W        W 6829   5.558   3.955   9.899  0.0248 -0.0291 -0.1709
 3086W        W 6830   0.166   1.602   0.405 -0.2392 -0.0871 -0.1497
 3087W        W 6831   1.588   5.889   0.235  0.0810 -0.0831 -0.0874
 3088W        W 6832   8.949   0.077   1.226 -0.0295 -0.3084 -0.1599
 3089W        W 6833   3.410   5.556   0.773  0.2726  0.1863 -0.2118
 3090W        W 6834   9.720   2.155   2.885  0.2773  0.0255  0.1957
 3091W        W 6835   5.648   7.908   9.340 -0.1417  0.1534  0.1923
 3092W        W 6836   6.231   4.329   0.433  0.0679  0.0021  0.0859
 3093W        W 6837   5.083   0.818  11.346 -0.2084 -0.0806  0.4687
 3094W        W 6838   4.039   6.017  11.632  0.0325  0.1483 -0.0990
 3095W        W 6839   1.590   2.703   0.313  0.3589  0.0375 -0.0305
 3096W        W 6840   9.500   0.474   2.223  0.0995 -0.0004  0.1158
 3097W        W 6841   0.472   1.161   7.762 -0.0217 -0.1511  0.3277
 3098W        W 6842   9.382   6.330   9.300 -0.0339 -0.0138  0.3127
 3099W        W 6843   5.975   1.935   0.338 -0.1607 -0.2591 -0.3040
 3100W        W 6844   6.406   3.856  12.326  0.0871  0.0627  0.0878
 3101W        W 6845   7.989   0.633   2.105 -0.3434 -0.0327 -0.4477
 3102W        W 6846   7.288   0.328   2.697 -0.0082 -0.3246  0.1288
 3103W        W 6847   3.255   1.312   3.788 -0.1412 -0.0403  0.0400
 3104W        W 6848   4.272   7.672   2.349 -0.0162  0.1260 -0.1934
 3105W        W 6849   7.549   0.478   3.080 -0.3571 -0.2174  0.0061
 3106W        W 6850   6.290   7.376   1.645  0.2037  0.0651  0.5059
 3107W        W 6851   1.188   4.458   0.463  0.2324  0.1779  0.0388
 3108W        W 6852   4.765   1.188   5.675 -0.1312 -0.1956  0.1764
 3109W        W 6853   2.656   7.980  10.592 -0.1393 -0.3008  0.0674
 3110W        W 6854   6.018   6.037   3.033 -0.0970 -0.2463  0.3819
 3111W        W 6855   1.547   0.189  11.414  0.0887  0.1099  0.1833
 3112W        W 6856   9.693   4.403   1.505  0.1887  0.1197  0.0781
 3113W        W 6857   3.536   9.280   1.463  0.1555 -0.2783  0.1533
 3114W        W 6858   3.835   1.855   1.441  0.1856  0.2827 -0.4404
 3115W        W 6859   7.078   1.246   0.685 -0.0090 -0.1737  0.2014
 3116W        W 6860   9.152   4.770  11.151 -0.0248  0.2383  0.1894
 3117W        W 6861   8.378   6.042   0.390 -0.2632 -0.2284 -0.4549
 3118W        W 6862   9.194   7.773   2.540 -0.3415  0.1790  0.1698
 3119W        W 6863   9.125   9.856   3.543 -0.2786  0.0232 -0.3107
 3120W        W 6864   1.527   5.790   1.947  0.0838 -0.4188 -0.2939
 3121W        W 6865   3.496   3.300   1.025  0.1564 -0.1238  0.0325
 3122W        W 6866   3.836   7.832   8.462 -0.3213  0.0175  0.4083
 3123W        W 6867   4.281   8.373   2.644  0.1010 -0.4072  0.2211
 3124W        W 6868   0.162   3.056   8.094 -0.0803  0.1847  0.1503
 3125W        W 6869   4.496   5.517  10.096  0.1811  0.0085  0.4382
 3126W        W 6870   8.777   4.611  12.987  0.1963 -0.2689  0.2947
 3127W        W 6871   0.353   6.747  12.166  0.0273  0.0325 -0.3181
 3128W        W 6872   4.033   2.579  10.224  0.1727  0.0892  0.3337
 3129W        W 6873   9.813   2.590  10.866  0.1690  0.3153  0.0242
 3130W        W 6874   5.370   9.010  10.763 -0.0812 -0.2043 -0.0420
 3131W        W 6875   9.495   8.983   2.240  0.0538  0.2285 -0.1602
 3132W        W 6876   3.175   5.337   3.486  0.1042  0.3275 -0.1645
 3133W        W 6877   4.314   6.243  12.467 -0.1067 -0.2405  0.0942
 3134W        W 6878   9.313   0.274  12.139 -0.0019  0.3174  0.1420
 3135W        W 6879   7.799   8.193  12.003  0.1161  0.1461  0.0417
 3136W        W 6880   0.730   2.338   2.623 -0.1342  0.3754  0.0253
 3137W        W 6881   1.748   2.877   3.411  0.0815  0.1485 -0.3470
 3138W        W 6882   4.770   3.530  10.149  0.0364  0.1066 -0.0908
 3139W        W 6883   9.380   0.653   1.408  0.3820  0.4242 -0.0075
 3140W        W 6884   4.521   2.517   1.671 -0.0879 -0.1656 -0.0372
 3141W        W 6885   2.059   8.652   2.757  0.3284 -0.2991  0.0117
 3142W        W 6886   3.840   9.090  10.308 -0.1043  0.0374 -0.1137
 3143W        W 6887   5.211   1.850   0.755 -0.0317  0.1401  0.0235
 3144W        W 6888   6.427   1.886   2.262 -0.0275  0.1520 -0.0760
 3145W        W 6889   8.858   9.671   0.440 -0.0090 -0.1078  0.0945
 3146W        W 6890   3.980   6.568   8.531  0.0061  0.5207 -0.1494
 3147W        W 6891   9.800   5.748   0.821  0.1501  0.1302  0.0609
 3148W        W 6892   4.934   3.285   2.336 -0.1605  0.2412 -0.0989
 3149W        W 6893   6.713   7.603  10.756  0.3396 -0.1320  0.0048
 3150W        W 6894   1.821   4.187   1.866 -0.0565 -0.0127  0.1149
 3151W        W 6895   6.243   4.270  10.431 -0.1924  0.0683 -0.0029
 3152W        W 6896   3.460   5.259   9.015 -0.0559 -0.2116  0.3096
 3153W        W 6897   4.616   2.983   0.341  0.1053  0.3182 -0.0642
 3154W        W 6898   3.233   5.420   9.902 -0.1846  0.1567  0.0358
 3155W        W 6899   2.830   3.792   2.652 -0.0696 -0.0782 -0.1564
 3156W        W 6900   2.710   5.570   1.200 -0.2590  0.1492  0.2160
 3157W        W 6901   8.624   0.802  11.006 -0.0154 -0.0383  0.1241
 3158W        W 6902   2.340   3.419   3.804 -0.0036 -0.1549  0.0127
 3159W        W 6903   0.734   1.272  10.641 -0.1381  0.0492 -0.0580
 3160W        W 6904   7.238   3.596   3.844  0.1905 -0.2318  0.2935
 3161W        W 6905   7.509   3.062  12.751 -0.0468 -0.0933  0.0655
 3162W        W 6906   6.730   0.960  10.800  0.0638  0.0211 -0.0366
 3163W        W 6907   2.103   6.982   5.133 -0.0623  0.2012  0.0491
 3164W        W 6908   1.698   2.129   9.451  0.2719  0.0958  0.0287
 3165W        W 6909   1.460   0.560   1.334 -0.0622 -0.0841  0.0410
 3166W        W 6910   4.111   3.971   3.195 -0.0394  0.1073 -0.0378
 3167W        W 6911   8.181   0.082  10.907 -0.2084 -0.0023 -0.3673
 3168W        W 6912   3.471   3.365   3.002 -0.2302 -0.2845 -0.1703
 3169W        W 6913   7.724   4.911   2.903 -0.2655 -0.0667  0.1172
 3170W        W 6914   2.988   8.554   2.832  0.1811 -0.3342  0.0532
 3171W        W 6915   9.717   2.099   4.140 -0.0445 -0.0687  0.3814
 3172W        W 6916   1.254   9.114   3.750 -0.2812  0.1184  0.2474
 3173W        W 6917   1.005   8.643  10.879  0.0517 -0.0454 -0.0753
 3174W        W 6918   2.026   6.077  11.461 -0.2009  0.0652 -0.3282
 3175W        W 6919   6.528   2.155  12.504 -0.0909  0.0589 -0.0963
 3176W        W 6920   8.748   6.815  10.580 -0.1271  0.0279  0.1784
 3177W        W 6921   7.553   2.978   2.850 -0.0683  0.3342  0.0321
 3178W        W 6922   7.228   9.689  12.666  0.1940 -0.0200  0.1304
 3179W        W 6923   9.156   7.098  12.278 -0.2737  0.1121  0.0989
 3180W        W 6924   3.162   4.866   4.229  0.0923 -0.0840 -0.2652
 3181W        W 6925   1.686   1.503  11.917 -0.3216 -0.1116  0.0547
 3182W        W 6926   7.712   0.699   2.667  0.0366  0.0047 -0.1098
 3183W        W 6927   0.452   0.647   2.917 -0.0521 -0.0025  0.0850
 3184W        W 6928   2.964   0.195   3.153 -0.1810  0.0337  0.0534
 3185W        W 6929   9.836   9.326   1.917  0.2319  0.0990 -0.0823
 3186W        W 6930   0.121   9.151   0.542 -0.3364  0.0009  0.0875
 3187W        W 6931   5.333   5.377  10.541  0.1128 -0.3281  0.2062
 3188W        W 6932   1.370   6.593   2.827 -0.0255 -0.3211 -0.1708
 3189W        W 6933   3.134   8.016   4.748  0.1777 -0.0188 -0.0240
 3190W        W 6934   5.745   5.485  10.860 -0.1520  0.2200  0.0666
 3191W        W 6935   7.694   0.241   1.711  0.1011 -0.0070 -0.1332
 3192W        W 6936   5.680   3.263   1.777 -0.0588  0.1849 -0.3626
 3193W        W 6937   5.651   4.214   9.278 -0.1907 -0.0958 -0.3291
 3194W        W 6938   2.134   0.532   0.391  0.1065 -0.0657  0.0064
 3195W        W 6939   5.368   0.924  10.919  0.3260 -0.0413 -0.0374
 3196W        W 6940   7.765   0.645   3.606  0.3387  0.1644 -0.1701
 3197W        W 6941   0.498   7.016   9.530 -0.0574 -0.0812  0.0035
 3198W        W 6942   7.032   5.810   0.539  0.0906 -0.0472 -0.1601
 3199W        W 6943   1.487   8.856   1.948 -0.0342  0.0608 -0.0914
 3200W        W 6944   1.734   1.729   9.974 -0.0556  0.1485  0.1804
 3201W        W 6945   9.405   1.898   0.714 -0.1844  0.1177 -0.0132
 3202W        W 6946   0.360   4.698   3.703  0.0643  0.1878  0.1817
 3203W        W 6947   5.667   8.436  10.530  0.2472 -0.1402 -0.1791
 3204W        W 6948   5.306   0.945  12.869 -0.1601  0.2588  0.3154
 3205W        W 6949   2.640   1.514   1.647  0.0830  0.1043  0.1411
 3206W        W 6950   2.461   9.874   9.632 -0.0686  0.1863  0.3143
 3207W        W 6951   8.700   0.724   9.658 -0.0746  0.1803  0.0151
 3208W        W 6952   5.774   6.571  11.850  0.1890  0.1628 -0.0449
 3209W        W 6953   0.922   9.557   2.160  0.0235 -0.2584  0.1430
 3210W        W 6954   7.222   4.205  10.139  0.2363 -0.2888 -0.1596
 3211W        W 6955   8.846   5.470  12.396  0.0597  0.0752  0.0633
 3212W        W 6956   0.472   8.846   8.339  0.0219  0.2219  0.0489
 3213W        W 6957   2.589   4.939   1.882 -0.0846  0.2138  0.0781
 3214W        W 6958   1.487   0.498   4.271 -0.1753  0.0624  0.0842
 3215W        W 6959   5.909   7.580  10.841  0.0945 -0.1961 -0.4022
 3216W        W 6960   6.997   4.077  11.564  0.1602  0.0357 -0.1144
 3217W        W 6961   6.939   5.100   8.945  0.0087  0.3929  0.2431
 3218W        W 6962   2.666   3.112   9.125 -0.2377  0.1686 -0.0948
 3219W        W 6963   3.175   2.621  10.405  0.1346  0.0521 -0.1484
 3220W        W 6964   3.538   5.429   0.145  0.2460  0.3157  0.2268
 3221W        W 6965   0.746   5.465  11.183 -0.3972 -0.1048  0.1001
 3222W        W 6966   6.196   8.982   3.119 -0.1417 -0.0402 -0.2447
 3223W        W 6967   5.415   7.963   0.744 -0.0907 -0.0226 -0.0311
 3224W        W 6968   6.905   7.199   9.423 -0.2246  0.0048  0.2196
 3225W        W 6969   2.366   9.275   2.113  0.2470  0.2036 -0.0081
 3226W        W 6970   7.078   5.186   1.308  0.2632  0.0094 -0.2017
 3227W        W 6971   2.923   2.258   9.977  0.1301  0.1366  0.2788
 3228W        W 6972   2.089   2.621   8.588 -0.0709 -0.0465 -0.1425
 3229W        W 6973   4.935   1.663  10.890 -0.1079 -0.0854 -0.2279
 3230W        W 6974   2.107   8.059  11.559  0.0476 -0.2419  0.0005
 3231W        W 6975   5.133   5.817  12.359  0.2310  0.0826 -0.1823
 3232W        W 6976   6.179   2.818  12.362 -0.0775  0.1382 -0.1609
 3233W        W 6977   2.671   5.295   3.502  0.0359 -0.1561 -0.4602
 3234W        W 6978   8.845   8.880   0.957 -0.0481 -0.1236 -0.1408
 3235W        W 6979   5.599   5.914  10.656  0.0529 -0.0278 -0.1385
 3236W        W 6980   2.664   5.690   9.214 -0.0494 -0.0234 -0.0748
 3237W        W 6981   3.609   6.959   0.497 -0.0480  0.3339  0.1986
 3238W        W 6982   8.050   8.704   9.628  0.4674  0.3280  0.0826
 3239W        W 6983   8.112   8.443  12.396  0.1052  0.1912  0.0859
 3240W        W 6984   9.658   5.714  11.779  0.1162  0.2690 -0.0165
 3241W        W 6985   4.530   1.261   0.981 -0.0874 -0.0337 -0.0318
 3242W        W 6986   9.647   5.228   4.577 -0.1790 -0.3090  0.0786
 3243W        W 6987   1.015   6.805   4.223 -0.0183  0.1380 -0.1601
 3244W        W 6988   7.744   1.237   2.581  0.0153 -0.1650 -0.3316
 3245W        W 6989   2.542   2.024   2.927  0.2059  0.0869  0.0332
 3246W        W 6990   9.792   5.492  10.128 -0.0387  0.0940 -0.0509
 3247W        W 6991   9.431   1.125  11.543  0.2040 -0.0940 -0.0202
 3248W        W 6992   4.084   9.302  11.435  0.1149  0.1219 -0.2176
 3249W        W 6993   6.718   8.334  10.864 -0.1368 -0.1502 -0.2114
 3250W        W 6994   6.806   2.721  11.853  0.3578 -0.0515  0.0234
 3251W        W 6995   6.529   4.402  11.060  0.1826  0.1267  0.2605
 3252W        W 6996   6.785   3.303   3.902 -0.0579  0.0581 -0.0161
 3253W        W 6997   1.237   3.434   2.146  0.1912  0.0013 -0.1987
 3254W        W 6998   1.705   6.941  11.372  0.2640 -0.2267  0.1366
 3255W        W 6999   9.811   8.859  10.364 -0.0991 -0.4593 -0.1111
 3256W        W 7000   1.936   0.295   3.467 -0.0571 -0.0039  0.0884
 3257W        W 7001   6.243   8.478   1.801  0.0738 -0.1101  0.2112
 3258W        W 7002   3.070   4.654  11.354  0.0636  0.0242  0.2392
 3259W        W 7003   9.517   7.592   9.307 -0.0204  0.0679  0.0519
 3260W        W 7004   5.943   0.622  11.163  0.1414  0.3563 -0.2089
 3261W        W 7005   6.420   6.630  11.025  0.0120  0.2588  0.1060
 3262W        W 7006   3.491   2.440  11.836 -0.3438 -0.2739  0.0754
 3263W        W 7007   9.669   1.200   4.319 -0.1483  0.2410  0.1233
 3264W        W 7008   2.198   9.842   9.089 -0.0609  0.2202  0.0154
 3265W        W 7009   0.895   8.733   3.850  0.2021  0.3760 -0.0412
 3266W        W 7010   0.889   6.568   1.463  0.0446  0.1042 -0.0704
 3267W        W 7011   3.204   3.828   9.388 -0.1421  0.1342  0.1421
 3268W        W 7012   2.489   2.427   4.750 -0.0736  0.0357 -0.0476
 3269W        W 7013   8.670   5.806  10.871 -0.0190 -0.1420  0.0537
 3270W        W 7014   7.970   0.900   4.129 -0.1130  0.0340  0.0398
 3271W        W 7015   3.584   8.899   9.949  0.2691 -0.0908  0.0783
 3272W        W 7016   1.092   2.030   2.433 -0.3415 -0.0182  0.2052
 3273W        W 7017   8.587   4.688  12.318 -0.4283 -0.1756  0.0240
 3274W        W 7018   4.110   2.239   1.800 -0.2684  0.2893  0.0961
 3275W        W 7019   6.706   6.563   0.966  0.4034 -0.0663 -0.2035
 3276W        W 7020   7.729   0.219  12.054 -0.2047 -0.1148  0.2895
 3277W        W 7021   1.115   9.596   3.754  0.0685 -0.2212 -0.1045
 3278W        W 7022   4.175   4.682   8.888 -0.2744  0.3802  0.2279
 3279W        W 7023   1.356   3.651  11.231 -0.1526 -0.2749 -0.1025
 3280W        W 7024   3.333   9.070   0.366 -0.0286  0.1363 -0.0006
 3281W        W 7025   3.319   8.499   2.426  0.3293 -0.0231 -0.0437
 3282W        W 7026   0.538   3.690   4.560 -0.1699  0.0036 -0.1994
 3283W        W 7027   2.862   7.326  12.888  0.1023  0.3330  0.1362
 3284W        W 7028   4.549   3.990  10.342  0.1893 -0.0632  0.0335
 3285W        W 7029   8.789   7.201   1.200  0.2117 -0.0001  0.2301
 3286W        W 7030   8.413   1.044  10.062  0.0252 -0.3075  0.3953
 3287W        W 7031   0.653   7.192   9.008 -0.1579  0.0443 -0.2285
 3288W        W 7032   3.061   2.855   1.805  0.1551 -0.2062 -0.1860
 3289W        W 7033   6.529   4.855   4.786  0.2380  0.0193 -0.1289
 3290W        W 7034   6.085   3.315   8.664 -0.2777  0.0801  0.0782
 3291W        W 7035   5.096   1.677  12.280 -0.0893 -0.2720 -0.2160
 3292W        W 7036   4.426   7.978  11.869  0.0597  0.1934 -0.0103
 3293W        W 7037   6.191   2.956   2.889 -0.1021  0.0156  0.0719
 3294W        W 7038   3.835   3.289   3.788  0.0140 -0.0761 -0.1654
 3295W        W 7039   0.832   8.795   3.118  0.2082  0.0955  0.1651
 3296W        W 7040   4.794   6.393   1.853 -0.0302 -0.1922  0.1439
 3297W        W 7041   4.622   5.055   4.179  0.0003  0.2173  0.3168
 3298W        W 7042   3.639   1.077  11.749  0.0259  0.1401  0.1312
 3299W        W 7043   6.501   4.859  12.266  0.1283 -0.2036 -0.2090
 3300W        W 7044   5.348   5.071   4.168 -0.0576 -0.0122 -0.0229
 3301W        W 7045   6.719   2.841   3.746 -0.0081  0.0942 -0.2407
 3302W        W 7046   6.545   4.679   1.089  0.1891  0.1522  0.0996
 3303W        W 7047   7.582   2.685  11.455 -0.1988  0.3479 -0.2703
 3304W        W 7048   9.477   3.020   3.194  0.0712  0.1695  0.2829
 3305W        W 7049   9.611   3.895   3.384 -0.2284  0.0243  0.0623
 3306W        W 7050   8.387   1.986  12.984 -0.0980  0.4130  0.3089
 3307W        W 7051   7.712   8.113   3.850 -0.0092  0.3706 -0.1000
 3308W        W 7052   5.163   4.692  12.192 -0.2349  0.0348 -0.2904
 3309W        W 7053   6.868   0.970   3.345 -0.2444 -0.1889  0.0710
 3310W        W 7054   1.187   5.881   2.798 -0.2162 -0.1282 -0.0685
 3311W        W 7055   1.867   1.104   3.004 -0.0331 -0.1096  0.2313
 3312W        W 7056   0.568   5.987   2.852 -0.0580 -0.1780  0.1490
 3313W        W 7057   0.350   6.033   8.599  0.0543  0.1441  0.1525
 3314W        W 7058   7.483   3.217   3.290  0.2335  0.2164 -0.1719
 3315W        W 7059   2.076   1.220   1.435 -0.1579  0.3198  0.2139
 3316W        W 7060   5.093   6.262   3.093  0.4166 -0.1069  0.0498
 3317W        W 7061   6.100   2.029  11.604  0.0420  0.1256  0.2537
 3318W        W 7062   5.695   2.167   0.779 -0.3260  0.5828 -0.1215
 3319W        W 7063   5.262   9.748   0.667  0.0151  0.0863 -0.0523
 3320W        W 7064   8.511   8.059  10.709  0.1800  0.0163 -0.0351
 3321W        W 7065   8.124   5.511   2.686 -0.0204 -0.1768 -0.0066
 3322W        W 7066   2.033   5.831  11.927 -0.5064  0.1106 -0.0236
 3323W        W 7067   1.899   5.783   4.747 -0.0392 -0.1443 -0.3093
 3324W        W 7068   8.434   8.299   9.923  0.2230 -0.1735  0.2408
 3325W        W 7069   0.364   7.919  11.063  0.1807  0.2139 -0.0916
 3326W        W 7070   8.353   0.237   9.404 -0.2553  0.3677 -0.2226
 3327W        W 7071   8.652   2.395  12.659  0.4574 -0.0847 -0.0139
 3328W        W 7072   5.215   8.258   2.823  0.3535 -0.1078 -0.1121
 3329W        W 7073   5.927   5.806   1.444  0.2046  0.1366  0.3539
 3330W        W 7074   0.314   9.010   9.116 -0.3097  0.1151 -0.0762
 3331W        W 7075   5.214   5.827   2.014  0.1487  0.2480  0.0313
 3332W        W 7076   6.244   1.558  11.822  0.4588 -0.0427  0.2205
 3333W        W 7077   5.551   9.001   9.545  0.0927  0.0437 -0.1905
 3334W        W 7078   2.023   7.535   1.576  0.0483  0.0939 -0.0092
 3335W        W 7079   4.498   2.685  11.316 -0.2415 -0.0541 -0.2497
 3336W        W 7080   0.507   6.850   0.248 -0.0666  0.1259  0.0006
 3337W        W 7081   0.489   9.637  11.557  0.1358 -0.0298 -0.1871
 3338W        W 7082   9.814   8.778  12.751  0.2996  0.1144 -0.0770
 3339W        W 7083   8.882   1.563   1.347 -0.0357  0.1590  0.4688
 3340W        W 7084   5.029   2.578   3.232 -0.0538  0.1473 -0.3695
 3341W        W 7085   7.548   7.996   2.480  0.0249  0.0729  0.4443
 3342W        W 7086   6.699   6.555  12.182 -0.1016  0.0065 -0.0646
 3343W        W 7087   7.862   4.108  12.863 -0.1805 -0.6317 -0.1951
 3344W        W 7088   8.926   8.833  11.194  0.0184  0.0003 -0.0514
 3345W        W 7089   8.798   4.573  10.250 -0.5258  0.2987  0.3069
 3346W        W 7090   9.321   3.516   9.315 -0.0668  0.2715  0.0123
 3347W        W 7091   1.759   3.216  10.657  0.2977 -0.1019  0.2334
 3348W        W 7092   9.213   3.043   9.084  0.3156 -0.0877 -0.1673
 3349W        W 7093   2.022   0.175   9.497 -0.1669 -0.0961 -0.0849
 3350W        W 7094   7.141   8.567  12.879  0.2000 -0.0125  0.2633
 3351W        W 7095   5.170   8.316   1.200  0.2482  0.0925  0.0016
 3352W        W 7096   4.189   5.988   2.961 -0.1899  0.0699 -0.1291
 3353W        W 7097   0.778   7.047   1.272 -0.0632  0.0637  0.0834
 3354W        W 7098   4.542   1.935   9.679 -0.4000 -0.0348 -0.0167
 3355W        W 7099   9.416   0.980  12.762 -0.0310 -0.1738 -0.1278
 3356W        W 7100   2.639   5.635  12.659 -0.1218 -0.0813  0.1931
 3357W        W 7101   2.603   4.508   3.591  0.0770 -0.4531 -0.0627
 3358W        W 7102   4.255   4.551   3.334  0.1762 -0.0551  0.0429
 3359W        W 7103   8.675   6.402   0.269  0.0398 -0.0291 -0.0196
 3360W        W 7104   3.124   7.712  10.610  0.1245  0.1767 -0.2583
 3361W        W 7105   0.170   4.829   8.456  0.1604  0.1488 -0.0059
 3362W        W 7106   3.033   5.887  12.896  0.2542  0.1655 -0.3983
 3363W        W 7107   4.895   5.359   3.192  0.1193  0.0532 -0.0898
 3364W        W 7108   0.471   2.736   9.713  0.0190 -0.2556 -0.1364
 3365W        W 7109   2.298   3.605   9.024  0.0673 -0.1783  0.0450
 3366W        W 7110   7.617   5.718  10.755 -0.1828 -0.0788  0.1859
 3367W        W 7111   5.061   2.742   0.609  0.0417  0.1846  0.1475
 3368W        W 7112   1.412   5.833   4.527  0.1718 -0.2856  0.2398
 3369W        W 7113   1.902   4.100  10.698  0.3811 -0.0758  0.0015
 3370W        W 7114   0.841   7.606  12.961 -0.1365 -0.1418  0.4553
 3371W        W 7115   4.429   3.314  12.943  0.1631 -0.1053  0.2877
 3372W        W 7116   9.270   6.316   0.387 -0.2898  0.2231 -0.2160
 3373W        W 7117   0.370   2.313   5.249 -0.1597  0.3075  0.2975
 3374W        W 7118   0.705   5.073   4.389 -0.0293  0.0817  0.0057
 3375W        W 7119   8.577   1.412   0.534 -0.2141  0.3056  0.0257
 3376W        W 7120   6.689   6.765   9.297  0.0061  0.0514  0.2033
 3377W        W 7121   9.318   4.212  12.837 -0.1191  0.1560 -0.0806
 3378W        W 7122   8.001   2.943   2.156  0.2505 -0.0715 -0.1629
 3379W        W 7123   9.145   8.506  10.411 -0.2005  0.0788 -0.1509
 3380W        W 7124   4.023   7.506   8.774 -0.2775 -0.1973 -0.2357
 3381W        W 7125   8.387   2.846  12.705  0.0943  0.0813  0.1259
 3382W        W 7126   7.792   5.998   4.639 -0.1167 -0.0871 -0.0560
 3383W        W 7127   0.187   7.164  11.037 -0.0866  0.4969  0.0533
 3384W        W 7128   1.417   3.524   9.421  0.3820  0.0695  0.2233
 3385W        W 7129   4.040   0.728  11.435 -0.1646  0.3113 -0.0533
 3386W        W 7130   5.810   4.092  10.729  0.0816 -0.1084 -0.0862
 3387W        W 7131   5.084   2.310  11.798  0.1611  0.2630  0.0104
 3388W        W 7132   9.148   2.185   1.930  0.0035 -0.1296  0.2415
 3389W        W 7133   5.414   5.040  10.887  0.0027 -0.0269  0.0091
 3390W        W 7134   7.793   8.787  11.665 -0.2141 -0.0471  0.0851
 3391W        W 7135   4.537   8.757  11.936  0.0428  0.1528  0.0803
 3392W        W 7136   1.376   0.914   0.970 -0.3697 -0.1021 -0.1463
 3393W        W 7137   1.689   0.515   0.215 -0.3045 -0.0545 -0.0594
 3394W        W 7138   1.521   9.184   0.500 -0.0432 -0.2718 -0.0380
 3395W        W 7139   2.034   5.421   2.665 -0.1547  0.1091  0.1651
 3396W        W 7140   0.880   7.927   1.009  0.0610 -0.0206 -0.2261
 3397W        W 7141   9.561   9.667   1.614 -0.1866 -0.0852  0.1155
 3398W        W 7142   9.694   6.764  10.841  0.1511  0.0731  0.2140
 3399W        W 7143   7.950   1.882  10.687  0.2068 -0.4234 -0.0726
 3400W        W 7144   1.865   9.544  12.683  0.2156 -0.1057  0.2559
 3401W        W 7145   3.089   1.039  10.287 -0.0253  0.0211  0.2831
 3402W        W 7146   5.656   6.788  11.381 -0.0009 -0.0519  0.0075
 3403W        W 7147   3.455   6.206   2.451 -0.1298  0.1193  0.0978
 3404W        W 7148   9.067   3.395   4.451  0.1891 -0.0292  0.3654
 3405W        W 7149   2.322   1.519   4.701 -0.1109  0.0829 -0.3938
 3406W        W 7150   7.712   9.169  12.000 -0.1789  0.0430 -0.2035
 3407W        W 7151   4.717   4.008   7.839  0.0984  0.1825 -0.1190
 3408W        W 7152   4.332   1.649   1.248 -0.0151  0.1819 -0.0928
 3409W        W 7153   0.693   2.881   0.177  0.2724  0.1109 -0.0704
 3410W        W 7154   3.957   5.372  12.070  0.0374  0.0786 -0.0159
 3411W        W 7155   5.801   9.680   0.010 -0.0499  0.2028  0.2316
 3412W        W 7156   8.202   9.622   3.619  0.4510 -0.0163  0.2238
 3413W        W 7157   2.261   9.158  12.791 -0.2412 -0.0203  0.3592
 3414W        W 7158   0.732   5.606   2.211  0.2568  0.0102  0.3044
 3415W        W 7159   4.590   8.634  10.538  0.0887 -0.2930 -0.0142
 3416W        W 7160   3.000   8.178   3.724  0.0132  0.1134 -0.1370
 3417W        W 7161   2.823   4.981  12.594 -0.4112 -0.1171 -0.3210
 3418W        W 7162   4.720   6.164   3.639 -0.0672 -0.3042 -0.0125
 3419W        W 7163   8.087   7.799   0.305 -0.3045  0.2770  0.1598
 3420W        W 7164   0.844   0.485   9.428 -0.0134  0.1246 -0.1190
 3421W        W 7165   7.777   2.040   2.924 -0.2357  0.1511 -0.2699
 3422W        W 7166   8.048   3.867   3.567  0.1512  0.0457  0.0502
 3423W        W 7167   7.735   5.916   9.835 -0.1793  0.0969  0.1033
 3424W        W 7168   1.800   1.328  12.450  0.1618 -0.1921 -0.0408
 3425W        W 7169   7.369   9.119   9.841 -0.0668 -0.0507 -0.3288
 3426W        W 7170   8.712   1.230   2.352 -0.3788  0.3557  0.1329
 3427W        W 7171   2.851   8.364   1.287 -0.2449  0.0982  0.3663
 3428W        W 7172   5.440   6.848   9.631  0.0483 -0.2922  0.0634
 3429W        W 7173   1.457   2.149   2.080 -0.0360  0.0244 -0.3877
 3430W        W 7174   5.811   6.684   0.423 -0.0933  0.0997  0.0600
 3431W        W 7175   6.757   3.148   0.011  0.1785  0.2912 -0.1045
 3432W        W 7176   8.420   3.364   1.104  0.0536  0.0988  0.0075
 3433W        W 7177   7.864   3.144   3.699  0.3817 -0.3255  0.0626
 3434W        W 7178   5.464   4.774   9.505  0.3217  0.0607 -0.4365
 3435W        W 7179   0.070   1.070   2.880 -0.0841  0.1391 -0.0190
 3436W        W 7180   4.754   5.564   3.680  0.0032 -0.1730 -0.0669
 3437W        W 7181   8.011   8.971  10.733  0.2036 -0.2131 -0.2885
 3438W        W 7182   3.191   5.192  10.360 -0.1851  0.0275  0.0002
 3439W        W 7183   7.756   7.622  12.896 -0.0674  0.1309 -0.1778
 3440W        W 7184   2.673   9.375  12.049  0.0795  0.1096 -0.0262
 3441W        W 7185   1.105   8.986   0.725  0.0346 -0.0612 -0.1568
 3442W        W 7186   2.860   8.460   0.741  0.0412 -0.0137  0.2245
 3443W        W 7187   3.611   6.861   8.868  0.1938 -0.0960 -0.2336
 3444W        W 7188   0.664   5.477   1.725 -0.0637 -0.2714 -0.0334
 3445W        W 7189   6.272   7.969   2.765  0.2317 -0.1972  0.2323
 3446W        W 7190   5.657   4.851  10.052  0.0607 -0.0822  0.1243
 3447W        W 7191   8.075   7.308   9.567  0.1758  0.1851  0.3142
 3448W        W 7192   5.377   4.769   0.716 -0.2552 -0.2882  0.0309
 3449W        W 7193   5.062   6.396   9.338  0.0142 -0.0541 -0.2478
 3450W        W 7194   6.131   4.624   2.952  0.0838 -0.1513  0.2288
 3451W        W 7195   1.458   7.809  12.708 -0.0385  0.0080 -0.3910
 3452W        W 7196   9.456   9.103   4.113  0.1202  0.1448 -0.1493
 3453W        W 7197   4.078   7.019   8.623 -0.3780 -0.0103 -0.2450
 3454W        W 7198   2.643   7.515   0.308 -0.0854  0.1204  0.2777
 3455W        W 7199   2.124   9.393   9.092 -0.2601 -0.1284  0.1959
 3456W        W 7200   3.045   0.039   0.559  0.2610 -0.0872  0.1470
 3457W        W 7201   1.254   8.187   1.763  0.1804  0.1399 -0.2262
 3458W        W 7202   4.366   5.704  11.869 -0.2023 -0.0236  0.2496
 3459W        W 7203   2.866   4.348   1.295 -0.0683  0.2000 -0.1483
 3460W        W 7204   8.732   6.938  11.175 -0.0478  0.0753 -0.0523
 3461W        W 7205   4.842   4.562   3.365  0.2883 -0.0119 -0.1677
 3462W        W 7206   6.064   4.322   4.081 -0.0051 -0.2792  0.1855
 3463W        W 7207   7.702   2.352   0.696  0.0861 -0.0424 -0.0895
 3464W        W 7208   9.819   5.034   8.902 -0.0495 -0.1356  0.1269
 3465W        W 7209   4.754   4.617   0.026 -0.4454 -0.2934  0.0226
 3466W        W 7210   5.117   5.959  12.825 -0.1424 -0.0493  0.1466
 3467W        W 7211   1.764   0.584   2.551  0.0784  0.1251  0.1643
 3468W        W 7212   4.673   6.314   9.064  0.1426 -0.0817 -0.0468
 3469W        W 7213   0.290   6.762   4.757 -0.3286 -0.0921  0.1052
 3470W        W 7214   7.586   6.552   1.964  0.2545  0.0358  0.0036
 3471W        W 7215   2.856   8.926  12.013  0.0341 -0.0173  0.1391
 3472W        W 7216   3.677   1.608  11.675 -0.1232 -0.1819 -0.2929
 3473W        W 7217   0.612   1.275  11.589 -0.1596 -0.0013  0.1310
 3474W        W 7218   6.870   2.470   9.828 -0.0217  0.0318  0.2885
 3475W        W 7219   4.224   3.719  12.674 -0.1836  0.2384  0.0192
 3476W        W 7220   4.491   8.303   1.886  0.1094  0.0424 -0.0470
 3477W        W 7221   1.486   0.756  11.820  0.2883 -0.2290  0.0028
 3478W        W 7222   9.047   9.583  11.601 -0.0948 -0.0681 -0.2663
 3479W        W 7223   0.505   0.709   2.072 -0.1059 -0.2857  0.1448
 3480W        W 7224   8.729   8.478   3.032 -0.3236  0.1768  0.2300
 3481W        W 7225   5.716   5.107  10.490 -0.5334 -0.1068 -0.0122
 3482W        W 7226   2.028   3.419   2.896  0.0946 -0.1329 -0.0245
 3483W        W 7227   0.455   8.386   2.410 -0.0122  0.0319 -0.1968
 3484W        W 7228   8.532   3.690   2.419  0.1699 -0.0799  0.1757
 3485W        W 7229   6.709   1.272  11.373 -0.3539 -0.0967 -0.0428
 3486W        W 7230   6.403   1.226   1.488  0.0217  0.3946  0.1593
 3487W        W 7231   4.493   7.085   1.553  0.4827 -0.2291  0.0270
 3488W        W 7232   5.398   5.135   3.258  0.1239  0.0494 -0.3557
 3489W        W 7233   1.658   4.722   9.756 -0.0760  0.0702  0.0339
 3490W        W 7234   0.825   4.772   9.990 -0.1047 -0.1099  0.1305
 3491W        W 7235   4.753   8.466   9.683  0.0936 -0.1689  0.4820
 3492W        W 7236   6.522   4.723  10.440 -0.0927  0.0596 -0.1222
 3493W        W 7237   2.258   6.279   0.936  0.0720  0.1835 -0.3337
 3494W        W 7238   1.321   9.623  12.580  0.0779  0.2057  0.1674
 3495W        W 7239   0.200   2.538  11.319  0.1046  0.3076 -0.3989
 3496W        W 7240   0.120   4.445  10.794  0.3513  0.0080 -0.1023
 3497W        W 7241   0.294   2.345   3.641  0.1853  0.1128 -0.1177
 3498W        W 7242   8.390   5.512   2.033  0.0518 -0.4306  0.0338
 3499W        W 7243   7.794   4.685   0.512 -0.1470 -0.2583 -0.0123
 3500W        W 7244   8.991   4.184   0.598  0.0325  0.0160 -0.0162
 3501W        W 7245   1.601   9.701   9.391  0.2312 -0.2876  0.0725
 3502W        W 7246   8.198   1.277   2.407 -0.0248 -0.0650 -0.1960
 3503W        W 7247   6.062   3.262   3.522  0.1910 -0.0893  0.2624
 3504W        W 7248   6.131   7.024   0.647 -0.0436 -0.3796  0.1356
 3505W        W 7249   9.627   5.659   1.381  0.0285 -0.1347 -0.0754
 3506W        W 7250   4.074   1.198  11.234  0.4157 -0.0539 -0.1243
 3507W        W 7251   6.502   5.763   1.787  0.1568  0.0890  0.1212
 3508W        W 7252   5.952   9.606   0.989  0.0559  0.1691 -0.2521
 3509W        W 7253   2.758   0.474   4.156  0.2198  0.2160 -0.0857
 3510W        W 7254   5.864   2.460   0.291  0.0085  0.0196  0.2631
 3511W        W 7255   5.830   0.490   2.394 -0.0037 -0.0021 -0.1974
 3512W        W 7256   5.236   7.046  10.033 -0.0296  0.0292 -0.1275
 3513W        W 7257   4.745   2.751   0.994 -0.2146 -0.0965 -0.1626
 3514W        W 7258   2.733   2.875   4.749  0.1288 -0.0983 -0.2547
 3515W        W 7259   1.503   2.310  11.475  0.1237 -0.0867  0.1181
 3516W        W 7260   2.776   3.193   3.370  0.2012 -0.2733  0.0917
 3517W        W 7261   7.285   3.266  10.009 -0.1719 -0.0906 -0.3074
 3518W        W 7262   7.257   4.405   9.655 -0.0690 -0.1121 -0.1765
 3519W        W 7263   8.540   1.706  12.180  0.0623 -0.0806 -0.2150
 3520W        W 7264   4.768   3.387   1.846  0.3226 -0.3377  0.3440
 3521W        W 7265   4.423   3.544  11.256  0.2437 -0.2834 -0.1710
 3522W        W 7266   1.815   2.712   1.243 -0.2264 -0.3674 -0.0735
 3523W        W 7267   4.080   1.092  12.461 -0.0761  0.2238  0.1674
 3524W        W 7268   5.248   7.525  12.026 -0.0066  0.1564  0.1006
 3525W        W 7269   8.778   1.925   4.350  0.0429  0.2555  0.1615
 3526W        W 7270   3.968   1.887   0.434 -0.2382  0.3132 -0.1721
 3527W        W 7271   8.662   6.764   9.908 -0.0160 -0.0807  0.1636
 3528W        W 7272   1.974   6.189  10.053  0.0382  0.1044  0.1439
 3529W        W 7273   3.933   8.737   2.955  0.1416  0.0850  0.0609
 3530W        W 7274   2.509   4.643   0.786 -0.0274  0.1810 -0.0392
 3531W        W 7275   5.178   3.113   1.803 -0.0921  0.2200 -0.0125
 3532W        W 7276   9.830   3.449  11.046 -0.0261 -0.2184 -0.2629
 3533W        W 7277   3.046   2.161  12.786 -0.3831 -0.1336 -0.2649
 3534W        W 7278   3.439   4.361   1.988  0.1875  0.2143 -0.1240
 3535W        W 7279   7.957   6.872  11.731 -0.1204  0.2376  0.1506
 3536W        W 7280   5.538   4.590   1.611 -0.0967 -0.3833 -0.1160
 3537W        W 7281   8.877   4.896   3.407 -0.0928 -0.1052  0.1084
 3538W        W 7282   5.507   0.343   1.530 -0.0320 -0.0536 -0.3332
 3539W        W 7283   0.041   3.253  12.445 -0.1190 -0.1712 -0.2084
 3540W        W 7284   3.550   7.984   0.687 -0.1088 -0.5020  0.0389
 3541W        W 7285   9.022   4.494  12.516  0.4186  0.0758 -0.1839
 3542W        W 7286   7.240   8.225  11.188  0.1564 -0.0637 -0.0892
 3543W        W 7287   7.532   7.900   1.796 -0.0156  0.1477  0.0965
 3544W        W 7288   6.720   6.740   2.918 -0.0335  0.1813 -0.0921
 3545W        W 7289   0.778   9.119   9.236 -0.2646  0.0985  0.0732
 3546W        W 7290   1.604   4.910   8.318  0.1924 -0.1556 -0.0956
 3547W        W 7291   7.850   1.158  11.663 -0.1418 -0.0904 -0.0896
 3548W        W 7292   9.833   5.271  11.524 -0.0697  0.0624  0.1335
 3549W        W 7293   4.565   1.715   3.494  0.1284  0.0817 -0.1132
 3550W        W 7294   2.512   7.745  11.351 -0.2582  0.1240  0.0635
 3551W        W 7295   8.695   6.176   3.721 -0.2237  0.0989 -0.4652
 3552W        W 7296   5.942   9.272   0.419 -0.1966 -0.2807 -0.0384
 3553W        W 7297   8.569   7.750   3.575 -0.3151 -0.2052 -0.2609
 3554W        W 7298   4.856   2.778   1.932  0.0529  0.2565  0.1992
 3555W        W 7299   2.700   0.766   9.522 -0.0151  0.0019  0.0896
 3556W        W 7300   6.731   7.219   1.833  0.0180  0.1090 -0.0678
 3557W        W 7301   1.443   1.889  12.842 -0.1340  0.2046 -0.1807
 3558W        W 7302   1.709   4.686   1.821  0.1534 -0.0645 -0.0889
 3559W        W 7303   2.128   6.394   2.818 -0.0822 -0.0013 -0.1972
 3560W        W 7304   7.169   1.661   1.692  0.1127 -0.5229 -0.0184
 3561W        W 7305   3.768   2.368   0.313  0.1175  0.1114 -0.3546
 3562W        W 7306   8.536   4.344   0.463  0.2396  0.1231  0.3500
 3563W        W 7307   2.300   6.668   2.368 -0.1182 -0.2514  0.2104
 3564W        W 7308   0.011   4.082   1.901  0.0511  0.0373  0.1726
 3565W        W 7309   3.144   0.870   3.427  0.0083  0.3618 -0.2216
 3566W        W 7310   8.160   7.970  12.460 -0.3333 -0.0783  0.1457
 3567W        W 7311   7.378   7.877  12.405  0.2695 -0.0708 -0.0314
 3568W        W 7312   0.148   2.164  11.721 -0.1631  0.1412  0.0456
 3569W        W 7313   0.797   7.552  10.246  0.2822  0.0931 -0.1224
 3570W        W 7314   6.869   8.978  12.170  0.0101 -0.1122  0.0751
 3571W        W 7315   3.178   8.399   3.292 -0.0114  0.2536  0.1206
 3572W        W 7316   2.021   1.982   3.907  0.3730  0.0810  0.0457
 3573W        W 7317   1.117   5.952   2.248 -0.1243  0.0869 -0.1214
 3574W        W 7318   6.549   4.683   4.061  0.3331 -0.4375  0.1001
 3575W        W 7319   3.987   5.079  11.258 -0.0969  0.1159  0.0232
 3576W        W 7320   5.944   3.876   3.747 -0.1209  0.0353  0.2929
 3577W        W 7321   5.074   6.827  12.839 -0.0320  0.3372 -0.1234
 3578W        W 7322   6.228   8.648   3.625  0.0195 -0.0020  0.0182
 3579W        W 7323   0.990   6.286   3.052 -0.1364  0.1872 -0.1296
 3580W        W 7324   1.676   3.124  12.417  0.0748 -0.3365  0.0737
 3581W        W 7325   3.114   0.253   1.342 -0.5114 -0.3467  0.2227
 3582W        W 7326   3.474   0.434   2.283 -0.0593  0.1478  0.1842
 3583W        W 7327   2.463   7.994   2.847  0.1152  0.0668  0.1553
 3584W        W 7328   4.646   0.832   3.700  0.0390  0.0628 -0.0953
 3585W        W 7329   1.731   1.421   8.865 -0.0218  0.0546  0.2341
 3586W        W 7330   7.790   5.408  11.510 -0.0050  0.0768  0.0795
 3587W        W 7331   5.885   0.115  10.000  0.0367 -0.3291  0.0213
 3588W        W 7332   6.349   6.323  10.656 -0.1780 -0.0502 -0.0192
 3589W        W 7333   5.099   8.768  12.601 -0.2131  0.1655 -0.0983
 3590W        W 7334   7.759   7.196  11.298 -0.0048 -0.0950 -0.2931
 3591W        W 7335   7.352   3.874   1.568  0.0446  0.0896  0.0217
 3592W        W 7336   9.229   8.998   9.029 -0.0431  0.1126  0.0563
 3593W        W 7337   5.338   1.468  12.777  0.1742 -0.3279  0.2044
 3594W        W 7338   7.763   9.226   0.771  0.1082 -0.1519 -0.2503
 3595W        W 7339   1.786   7.697  10.315 -0.2926  0.0522 -0.1299
 3596W        W 7340   9.083   0.917  11.234  0.1759  0.0247 -0.0327
 3597W        W 7341   1.527   0.259   1.717  0.0173  0.0820 -0.2624
 3598W        W 7342   5.214   0.026   1.169 -0.0684  0.1238 -0.0855
 3599W        W 7343   8.281   1.523   0.079 -0.0028  0.1111 -0.4669
 3600W        W 7344   8.132   8.297  10.364 -0.1917  0.1106  0.2221
 3601W        W 7345   9.198   2.809   1.711 -0.1429  0.0671 -0.3016
 3602W        W 7346   2.538   0.192   0.462  0.2120 -0.1481  0.0352
 3603W        W 7347   2.415   5.748   0.780 -0.2141  0.0955 -0.0330
 3604W        W 7348   8.285   4.104   9.137  0.5057 -0.2788  0.0548
 3605W        W 7349   7.165   8.875   8.716  0.1353  0.3038  0.1037
 3606W        W 7350   0.357   6.956  11.528  0.1041 -0.1795 -0.1486
 3607W        W 7351   2.085   8.705   8.348 -0.2033  0.0527  0.2585
 3608W        W 7352   1.909   0.349   1.432 -0.0447 -0.1015 -0.0906
 3609W        W 7353   2.274   7.528   2.836  0.0577 -0.1985  0.1638
 3610W        W 7354   0.490   9.435   0.316  0.0965 -0.2180 -0.3228
 3611W        W 7355   1.059   5.433   4.470 -0.2261  0.1569 -0.0656
 3612W        W 7356   0.091   8.273  12.944  0.0427  0.3012 -0.1112
 3613W        W 7357   9.402   0.420   4.631  0.0092  0.0226 -0.0248
 3614W        W 7358   3.453   1.129   1.536  0.0739 -0.0206  0.1118
 3615W        W 7359   3.869   7.708   2.576  0.0824 -0.2123 -0.1973
 3616W        W 7360   1.108   2.216   9.393  0.0249 -0.1943  0.4685
 3617W        W 7361   3.686   5.308   3.555 -0.0223  0.0105  0.0051
 3618W        W 7362   4.213   5.648   3.404  0.4058 -0.1848  0.2385
 3619W        W 7363   1.839   0.576   9.713 -0.0389  0.1799  0.2150
 3620W        W 7364   8.881   7.803  11.104 -0.0785  0.0300  0.1282
 3621W        W 7365   5.355   3.179  10.290  0.1371  0.0825  0.0158
 3622W        W 7366   2.202   7.575  10.038 -0.0208  0.1512 -0.1999
 3623W        W 7367   9.168   5.609   1.106 -0.3540 -0.0027  0.0884
 3624W        W 7368   8.170   5.196   8.973  0.0390  0.1837  0.3441
 3625W        W 7369   9.368   6.391  10.605 -0.0874 -0.2779  0.1764
 3626W        W 7370   9.871   0.496   4.419  0.1215 -0.0490 -0.1652
 3627W        W 7371   8.277   3.570   3.137  0.0350 -0.0419  0.1350
 3628W        W 7372   8.504   3.256   4.366  0.1722 -0.3445 -0.0746
 3629W        W 7373   6.944   4.468   3.507 -0.1458 -0.0452  0.2993
 3630W        W 7374   7.500   5.139  12.252 -0.1397 -0.2630  0.3864
 3631W        W 7375   1.201   6.953   0.890  0.1895 -0.1888 -0.1798
 3632W        W 7376   3.882   7.403  11.505  0.4548  0.0327 -0.1322
 3633W        W 7377   5.379   2.385   0.399  0.1464  0.3483  0.0908
 3634W        W 7378   3.522   9.315   9.510 -0.0396  0.6966  0.1930
 3635W        W 7379   5.219   4.505   9.146 -0.3582  0.0759  0.0764
 3636W        W 7380   4.674   6.457  10.212 -0.3921 -0.1506  0.2227
 3637W        W 7381   0.052   9.786  11.178 -0.1798 -0.1382  0.0004
 3638W        W 7382   7.684   2.650   3.752 -0.1972  0.1672 -0.1195
 3639W        W 7383   3.493   0.716   1.821  0.1995 -0.0890  0.4434
 3640W        W 7384   1.365   5.024  11.909  0.0932  0.3188  0.4218
 3641W        W 7385   1.062   5.766  12.550  0.1975  0.0913  0.3451
 3642W        W 7386   2.550   3.480   2.947  0.1577  0.0134  0.3577
 3643W        W 7387   9.661   8.883   0.761  0.1688  0.0508  0.1747
 3644W        W 7388   0.550   1.731   9.546 -0.1597 -0.0213  0.2168
 3645W        W 7389   8.069   5.139   1.071 -0.4269 -0.2644 -0.1842
 3646W        W 7390   9.192   0.636   9.356 -0.1145  0.0718 -0.2421
 3647W        W 7391   5.826   6.073  11.563  0.0927  0.4010 -0.3096
 3648W        W 7392   1.112   1.695   3.348  0.1464  0.0155 -0.0526
 3649W        W 7393   9.526   6.287  12.858  0.0995 -0.1840 -0.1399
 3650W        W 7394   9.183   0.882   4.487  0.0728  0.2668  0.0460
 3651W        W 7395   0.243   1.333   9.483 -0.0985 -0.3063  0.1198
 3652W        W 7396   1.694   0.799   8.292 -0.0966 -0.1031  0.0965
 3653W        W 7397   6.768   7.991   9.263  0.0578  0.1690 -0.0163
 3654W        W 7398   1.965   5.512  11.488 -0.3281  0.3257  0.0978
 3655W        W 7399   0.673   9.461  10.761  0.0226 -0.2432 -0.0161
 3656W        W 7400   6.806   4.594  11.427 -0.2231  0.3645  0.1566
 3657W        W 7401   1.222   4.678  10.944  0.0164  0.0252 -0.2916
 3658W        W 7402   8.013   8.097  11.032 -0.0157 -0.0317 -0.0243
 3659W        W 7403   3.517   8.411   1.940 -0.2027  0.1203  0.0153
 3660W        W 7404   7.138   4.602   2.889 -0.1057 -0.3785  0.1878
 3661W        W 7405   7.075   1.676  10.822  0.0528 -0.0125  0.0770
 3662W        W 7406   5.982   4.171   8.933 -0.1633  0.2081 -0.2614
 3663W        W 7407   9.398   1.529   9.256  0.0206  0.1122  0.2159
 3664W        W 7408   5.297   5.385   3.685 -0.0510  0.0029 -0.0793
 3665W        W 7409   4.977   9.694  11.823 -0.0127 -0.1397 -0.0417
 3666W        W 7410   0.994   7.157   9.980 -0.0261 -0.0485 -0.1615
 3667W        W 7411   7.996   1.092   0.160 -0.0504 -0.1656 -0.1266
 3668W        W 7412   7.695   1.088  11.161  0.2801  0.0975 -0.2241
 3669W        W 7413   9.085   2.130   0.360 -0.2454 -0.0769 -0.0487
 3670W        W 7414   7.106   0.279   1.053  0.0225 -0.0040  0.0852
 3671W        W 7415   0.205   1.171   1.123  0.1829  0.1395 -0.2802
 3672W        W 7416   1.994   4.995   4.731  0.1247  0.0865 -0.0291
 3673W        W 7417   7.333   7.426  12.778  0.1840  0.0042  0.0165
 3674W        W 7418   0.697   4.637   9.159 -0.1747 -0.0248 -0.1037
 3675W        W 7419   9.568   6.861   2.271 -0.0790 -0.0945  0.3356
 3676W        W 7420   0.799   1.938   4.329 -0.1987 -0.3656  0.2265
 3677W        W 7421   3.082   1.016  10.858  0.2273  0.1166  0.1414
 3678W        W 7422   8.448   9.674  10.552  0.2823  0.1775 -0.1175
 3679W        W 7423   3.611   8.844   8.645  0.2881  0.0229  0.0041
 3680W        W 7424   5.694   7.377   1.479  0.1510  0.0490 -0.3472
 3681W        W 7425   2.430   5.763  10.161 -0.2804  0.0118  0.0171
 3682W        W 7426   7.551   7.552  10.083  0.4123  0.4466 -0.2730
 3683W        W 7427   4.222   6.710   3.491 -0.0816 -0.1748 -0.1003
 3684W        W 7428   8.659   9.709   0.910 -0.2082 -0.0102 -0.1726
 3685W        W 7429   9.467   1.551  11.319 -0.1617 -0.0771  0.1063
 3686W        W 7430   6.792   3.893  11.128  0.2977 -0.0447  0.0476
 3687W        W 7431   6.681   2.260   2.062  0.1177  0.0677 -0.0556
 3688W        W 7432   1.693   1.160  11.511 -0.0163 -0.0209 -0.2177
 3689W        W 7433   9.582   5.979   8.879  0.1444 -0.3998  0.0341
 3690W        W 7434   1.554   1.785  10.512  0.2566  0.0878 -0.3067
 3691W        W 7435   2.546   9.550   9.279 -0.5473 -0.0449  0.1694
 3692W        W 7436   6.715   5.709  11.723 -0.1885  0.1111 -0.3462
 3693W        W 7437   9.213   1.542   0.275 -0.0196 -0.0859  0.0510
 3694W        W 7438   3.454   1.920   0.140  0.0129 -0.0095  0.0528
 3695W        W 7439   2.730   3.005   3.853 -0.0019 -0.1638 -0.3970
 3696W        W 7440   4.064   4.838  10.864 -0.2075 -0.1136  0.0918
 3697W        W 7441   0.692   9.063   8.693  0.0610  0.0023 -0.2572
 3698W        W 7442   1.271   5.465  11.615 -0.0155 -0.1075 -0.1002
 3699W        W 7443   5.609   1.710   1.640 -0.0001 -0.1430  0.0752
 3700W        W 7444   2.287   9.716   1.784 -0.1446  0.2152  0.4156
 3701W        W 7445   4.033   4.024   0.559  0.0193  0.0880 -0.0142
 3702W        W 7446   4.196   3.881  11.594 -0.0913  0.0766 -0.1354
 3703W        W 7447   7.523   4.725  10.898 -0.0112  0.1764  0.0852
 3704W        W 7448   3.458   7.159   9.267 -0.1518 -0.0169 -0.3469
 3705W        W 7449   4.616   1.769  12.716 -0.4135  0.0444 -0.0051
 3706W        W 7450   7.338   1.994   1.388  0.1547  0.1128 -0.2679
 3707W        W 7451   1.753   5.026   4.009  0.1626 -0.1284  0.0616
 3708W        W 7452   7.807   4.894   1.475 -0.1071  0.1887 -0.1929
 3709W        W 7453   3.532   0.573   3.592 -0.1844  0.3965 -0.1321
 3710W        W 7454   7.913   9.884   3.374 -0.1855 -0.3110  0.0492
 3711W        W 7455   7.449   0.642   0.853 -0.0478 -0.0526  0.1169
 3712W        W 7456   2.345   5.417  10.524  0.2292 -0.0941  0.1298
 3713W        W 7457   8.975   1.985   1.140 -0.2547 -0.0246 -0.5227
 3714W        W 7458   4.957   4.659   9.712 -0.0365 -0.0286 -0.1189
 3715W        W 7459   9.436   8.594   4.025 -0.0043 -0.0847  0.0089
 3716W        W 7460   8.375   3.292   9.029 -0.1555  0.1558  0.3447
 3717W        W 7461   4.341   2.123   2.556  0.1810  0.4831  0.0513
 3718W        W 7462   1.737   3.279   1.142  0.1398  0.1261  0.2122
 3719W        W 7463   7.401   9.267   1.159  0.0740 -0.1462  0.4416
 3720W        W 7464   7.456   4.690   3.296 -0.7091  0.0444 -0.1980
 3721W        W 7465   7.050   2.634   1.979  0.0632  0.1139  0.2103
 3722W        W 7466   8.990   4.847  10.622 -0.0671 -0.0748  0.1711
 3723W        W 7467   0.824   5.118   1.438 -0.0707 -0.1918 -0.1886
 3724W        W 7468   5.342   8.750   2.142  0.3567  0.1370  0.2051
 3725W        W 7469   7.297   6.770   2.902  0.3284  0.0239 -0.1674
 3726W        W 7470   5.532   6.314   8.492  0.1651  0.5256  0.4059
 3727W        W 7471   0.776   2.487   8.840  0.0447 -0.0834  0.0938
 3728W        W 7472   8.468   2.685   9.594  0.1391  0.2075  0.2087
 3729W        W 7473   9.493   0.720   9.793  0.0745  0.1451 -0.0227
 3730W        W 7474   8.641   4.626   2.871 -0.1410 -0.0073 -0.3685
 3731W        W 7475   0.334   8.188   4.312 -0.0599  0.2601  0.2193
 3732W        W 7476   8.799   2.142  10.321  0.1169  0.1728  0.1676
 3733W        W 7477   9.135   1.434  11.001 -0.3754  0.2015 -0.1639
 3734W        W 7478   3.632   5.733   4.261  0.4617 -0.0703 -0.1731
 3735W        W 7479   7.765   3.521  10.793 -0.3914  0.0584 -0.3165
 3736W        W 7480   1.677   9.656   4.249 -0.1462 -0.1522 -0.2460
 3737W        W 7481   6.838   6.223   8.843  0.0644  0.1302 -0.3771
 3738W        W 7482   3.838   4.288   2.885  0.2157 -0.0639 -0.2788
 3739W        W 7483   3.616   7.100   1.050 -0.0586  0.0603  0.2950
 3740W        W 7484   4.284   7.967   1.207 -0.0987  0.2061  0.0505
 3741W        W 7485   8.966   4.417   3.313  0.2613  0.2858 -0.1536
 3742W        W 7486   5.964   5.174   2.309  0.0359 -0.0258  0.1384
 3743W        W 7487   4.252   4.272  12.428  0.1588 -0.0926 -0.0452
 3744W        W 7488   1.262   1.672   5.066 -0.0083 -0.0760 -0.0903
 3745W        W 7489   0.687   8.062  11.594 -0.1214  0.0466 -0.2510
 3746W        W 7490   0.923   0.315   2.767  0.0178 -0.0404 -0.0044
 3747W        W 7491   7.526   2.652   3.259  0.0399  0.0076 -0.1657
 3748W        W 7492   6.167   7.529   9.867  0.0592 -0.0488  0.3659
 3749W        W 7493   7.614   2.352   4.211 -0.0816  0.2040 -0.1722
 3750W        W 7494   6.194   3.299  11.666  0.0357 -0.0317  0.3381
 3751W        W 7495   3.068   8.083  10.309  0.1211 -0.2661 -0.0329
 3752W        W 7496   8.253   5.929   2.372  0.1028  0.1708 -0.0964
 3753W        W 7497   1.417   2.707   9.944 -0.0386  0.0399  0.0029
 3754W        W 7498   3.388   0.300   9.793  0.1688  0.3774  0.0388
 3755W        W 7499   4.688   5.975   2.213 -0.1274 -0.0913  0.1065
 3756W        W 7500   5.410   2.964   2.198 -0.2394 -0.1094  0.2813
 3757W        W 7501   8.228   2.924   4.032  0.0677 -0.0516  0.2016
 3758W        W 7502   7.148   2.946   1.522  0.0935  0.0557 -0.2837
 3759W        W 7503   7.979   7.874   0.977 -0.2663  0.2746 -0.2317
 3760W        W 7504   6.717   9.849   1.961 -0.0294 -0.0762 -0.0515
 3761W        W 7505   6.106   5.535   8.597 -0.2005  0.0198 -0.0918
 3762W        W 7506   7.066   8.060  10.603 -0.0128  0.0156 -0.0160
 3763W        W 7507   8.675   0.085  11.624 -0.1398  0.2872 -0.0092
 3764W        W 7508   4.121   5.859   2.469  0.0691 -0.0301 -0.1892
 3765W        W 7509   0.771   2.439   0.276 -0.2053  0.2067  0.1215
 3766W        W 7510   7.846   2.735  12.012 -0.1014 -0.0643  0.2183
 3767W        W 7511   7.998   4.942   9.507 -0.1279 -0.0413  0.2202
 3768W        W 7512   8.802   9.163   9.761  0.0990  0.1020 -0.2144
 3769W        W 7513   9.746   8.750  10.850 -0.1370 -0.1866  0.2350
 3770W        W 7514   2.673   8.178  11.537  0.0101 -0.0938  0.3350
 3771W        W 7515   5.145   5.489  11.140 -0.2769  0.0947  0.1214
 3772W        W 7516   7.662   9.652   1.529 -0.1687 -0.3466  0.0788
 3773W        W 7517   2.253   3.407   8.489 -0.0327 -0.1094 -0.0510
 3774W        W 7518   1.932   3.509   0.123 -0.0389 -0.0187 -0.2814
 3775W        W 7519   5.916   3.693   3.229 -0.1955 -0.0746  0.0165
 3776W        W 7520   3.352   6.301   0.180 -0.2837  0.0948 -0.1550
 3777W        W 7521   6.316   2.888  10.391  0.0647  0.0206 -0.1290
 3778W        W 7522   8.775   7.422  11.445  0.0157 -0.0203  0.0098
 3779W        W 7523   5.843   1.855  12.006  0.1065 -0.0236  0.1306
 3780W        W 7524   8.138   9.077   4.572  0.2535 -0.1462 -0.2510
 3781W        W 7525   2.757   8.772   9.972 -0.2318  0.1070  0.2639
 3782W        W 7526   3.146   3.323   9.097 -0.1342 -0.0930 -0.3008
 3783W        W 7527   6.417   7.482   2.167 -0.1422 -0.0258  0.3292
 3784W        W 7528   8.383   6.803   1.381  0.3061 -0.1431  0.0733
 3785W        W 7529   8.239   1.824   0.481 -0.0624  0.1702 -0.3785
 3786W        W 7530   5.810   0.098   5.389 -0.2236 -0.0932 -0.1126
 3787W        W 7531   8.995   5.537  11.092 -0.4694  0.0877  0.0677
 3788W        W 7532   1.695   3.183   0.388  0.0831  0.1710 -0.4275
 3789W        W 7533   1.421   6.739   1.792 -0.2508  0.0585  0.0735
 3790W        W 7534   7.020   9.231   2.668 -0.1190  0.3612 -0.0628
 3791W        W 7535   7.939   7.828   2.076  0.4482  0.1773 -0.1596
 3792W        W 7536   3.086   0.533  10.722  0.0294  0.0533  0.2832
 3793W        W 7537   6.199   5.100  10.589 -0.1998 -0.0785 -0.0815
 3794W        W 7538   4.632   6.492  12.691 -0.2165 -0.0545  0.0793
 3795W        W 7539   4.751   2.878   8.810  0.3490  0.1311 -0.1897
 3796W        W 7540   9.321   7.394   2.879  0.0091 -0.0553  0.2301
 3797W        W 7541   3.664   8.139  11.340  0.0391 -0.2459 -0.1393
 3798W        W 7542   6.307   9.528   0.680  0.1944  0.0921 -0.1026
 3799W        W 7543   5.440   0.440  11.245 -0.0288 -0.0483  0.1169
 3800W        W 7544   4.991   8.182   3.300  0.2367 -0.0841 -0.0068
 3801W        W 7545   5.124   0.714  12.470  0.0031  0.2640 -0.1760
 3802W        W 7546   5.183   9.096  11.268 -0.1722 -0.0648  0.1401
 3803W        W 7547   2.913   6.080  10.919  0.1873 -0.1234  0.0341
 3804W        W 7548   6.111   4.640  12.457  0.4736  0.1787  0.0638
 3805W        W 7549   5.260   4.451   1.205  0.1633 -0.0061  0.2030
 3806W        W 7550   0.212   7.612   2.128 -0.0116 -0.1908  0.0025
 3807W        W 7551   2.143   1.564  10.324  0.3084 -0.3012  0.1001
 3808W        W 7552   5.549   3.818  12.086 -0.1029 -0.0773  0.0367
 3809W        W 7553   9.882   4.135   8.943  0.0279  0.2850 -0.0105
 3810W        W 7554   4.968   7.153  11.742  0.2497 -0.1592 -0.1703
 3811W        W 7555   0.990   7.337   1.611 -0.0924  0.3015 -0.2524
 3812W        W 7556   9.857   8.205   1.439 -0.2576  0.1503  0.5277
 3813W        W 7557   9.064   5.768   8.722  0.2151  0.1465 -0.0797
 3814W        W 7558   6.075   5.269   0.540 -0.0783  0.0153 -0.2292
 3815W        W 7559   5.547   4.595  10.636  0.1446  0.0320  0.4511
 3816W        W 7560   2.408   7.382   9.589 -0.3729  0.1844 -0.0387
 3817W        W 7561   5.587   3.292  11.897 -0.2061  0.0584 -0.2073
 3818W        W 7562   1.317   8.036  12.025  0.2668  0.2177  0.1057
 3819W        W 7563   8.232   9.280  12.148  0.0147 -0.1330  0.0143
 3820W        W 7564   1.567   6.538   3.973 -0.1491 -0.0361  0.3395
 3821W        W 7565   8.995   5.016   4.121  0.2053 -0.1993  0.1924
 3822W        W 7566   9.190   4.779   1.106  0.4043  0.0184 -0.0756
 3823W        W 7567   9.183   2.580  10.025 -0.0558 -0.2019 -0.1305
 3824W        W 7568   5.264   7.170   2.613 -0.0218 -0.1942 -0.0986
 3825W        W 7569   1.545   3.708   3.035 -0.2528  0.1313  0.0417
 3826W        W 7570   4.258   4.197   8.978 -0.1870 -0.1165  0.2290
 3827W        W 7571   8.969   5.154   1.355  0.3293  0.1851 -0.0927
 3828W        W 7572   4.543   8.317  11.032  0.0118  0.2311 -0.1745
 3829W        W 7573   8.725   3.220   3.125  0.0818  0.1352  0.1332
 3830W        W 7574   5.636   9.034   1.286  0.1815  0.2128  0.2896
 3831W        W 7575   0.332   9.013   3.226  0.0065 -0.1425  0.0936
 3832W        W 7576   4.898   7.532   3.445 -0.1935  0.3368  0.0177
 3833W        W 7577   7.821   6.736  12.683  0.2313 -0.0663  0.1973
 3834W        W 7578   1.615   2.418   1.644 -0.1487  0.0894  0.1202
 3835W        W 7579   6.263   2.231   0.044 -0.0613  0.2305  0.0601
 3836W        W 7580   8.441   2.165  10.680 -0.3065 -0.1085 -0.1309
 3837W        W 7581   2.117   3.659  10.867 -0.1203 -0.0470 -0.0768
 3838W        W 7582   5.475   2.545   3.562 -0.2512  0.1450 -0.3211
 3839W        W 7583   1.219   9.770   4.519 -0.2381 -0.1259 -0.2050
 3840W        W 7584   9.650   2.200   4.641  0.1186  0.0356  0.0163
 3841W        W 7585   7.066   4.895  11.042  0.1047 -0.2334 -0.0135
 3842W        W 7586   7.166   1.211  11.532  0.0379  0.3457 -0.2708
 3843W        W 7587   6.362   4.793   1.581  0.0280  0.1756  0.1515
 3844W        W 7588   9.564   5.944  10.772 -0.2468  0.3084  0.3136
 3845W        W 7589   7.414   8.446   8.710  0.1028  0.0833  0.2439
 3846W        W 7590   3.232   6.579  11.797 -0.2285 -0.2587 -0.2458
 3847W        W 7591   2.324   8.487   2.137 -0.1727  0.0234 -0.0792
 3848W        W 7592   8.958   0.437  10.866  0.0986  0.3995  0.0402
 3849W        W 7593   6.333   2.108   2.660 -0.2509 -0.0485  0.0049
 3850W        W 7594   4.375   2.230  10.054  0.1265 -0.2120  0.2270
 3851W        W 7595   9.870   7.331   2.535  0.1819 -0.0315  0.1912
 3852W        W 7596   0.522   1.102  12.548 -0.1152  0.0042 -0.0623
 3853W        W 7597   2.022   1.814   0.622 -0.1428 -0.0620 -0.1032
 3854W        W 7598   5.937   2.382   1.806 -0.0061  0.0408 -0.2631
 3855W        W 7599   7.128   9.062   2.038 -0.0971  0.1227  0.3534
 3856W        W 7600   3.672   3.085   4.251 -0.1600 -0.0804 -0.3148
 3857W        W 7601   5.854   3.696   1.807  0.0859 -0.0455 -0.0261
 3858W        W 7602   9.786   0.839   0.672  0.0758  0.0778  0.3705
 3859W        W 7603   4.565   7.139   1.066 -0.0306  0.2254 -0.2522
 3860W        W 7604   7.018   1.317  12.810 -0.1061 -0.0356 -0.1897
 3861W        W 7605   7.140   2.288   2.457 -0.1562  0.2872  0.2344
 3862W        W 7606   6.323   0.892  11.218 -0.1147  0.1056  0.2314
 3863W        W 7607   3.490   4.399  11.269 -0.0474 -0.1115 -0.1203
 3864W        W 7608   3.371   3.364  12.219 -0.1083 -0.2899 -0.1488
 3865W        W 7609   0.244   9.860  10.726 -0.0356  0.0722  0.0616
 3866W        W 7610   9.648   6.981   0.954 -0.0450 -0.0500 -0.0449
 3867W        W 7611   1.326   4.336   2.036 -0.2298  0.1001 -0.3943
 3868W        W 7612   9.227   8.374   9.440 -0.3339  0.1935  0.0267
 3869W        W 7613   4.859   2.038   2.487  0.4535  0.0301 -0.1570
 3870W        W 7614   4.642   5.373   1.932 -0.2109  0.4600 -0.0531
 3871W        W 7615   1.871   7.507   0.642  0.0332 -0.2912 -0.0337
 3872W        W 7616   0.158   4.515  11.848 -0.0573  0.1058  0.0254
 3873W        W 7617   5.348   2.352  11.368  0.3153 -0.1080 -0.1241
 3874W        W 7618   9.696   2.103  10.865 -0.0773 -0.2154 -0.2153
 3875W        W 7619   2.266   5.116   4.181 -0.2010 -0.1234  0.0723
 3876W        W 7620   0.736   6.609  12.506  0.1847  0.1943  0.1489
 3877W        W 7621   6.331   1.146   3.387 -0.1874 -0.1465 -0.1969
 3878W        W 7622   6.513   0.323   2.810  0.0351  0.1481 -0.0522
 3879W        W 7623   1.231   3.017   4.127 -0.0292 -0.6749  0.0755
 3880W        W 7624   8.142   5.869   9.465  0.0307  0.0996 -0.1641
 3881W        W 7625   1.029   1.160   2.489  0.1582 -0.0379  0.0489
 3882W        W 7626   1.930   6.642  12.634  0.1271 -0.0830  0.0152
 3883W        W 7627   6.448   3.784  11.831 -0.0078 -0.0557 -0.5655
 3884W        W 7628   7.743   4.271  11.614 -0.2272  0.0965  0.0477
 3885W        W 7629   8.120   2.207   2.650 -0.1174 -0.1730  0.0425
 3886W        W 7630   8.199   0.299   0.478  0.4355  0.1766  0.0613
 3887W        W 7631   0.557   8.052   2.804  0.2537  0.1232 -0.0009
 3888W        W 7632   9.702   5.273   1.986  0.2085 -0.0339 -0.1299
 3889W        W 7633   4.226   5.690   1.954  0.1609 -0.2520 -0.0469
 3890W        W 7634   2.241   0.032  10.438  0.2253  0.0032 -0.1207
 3891W        W 7635   6.403   5.838  10.310 -0.0006  0.0547  0.1401
 3892W        W 7636   0.995   5.654   0.600  0.4359  0.1542 -0.0595
 3893W        W 7637   0.866   4.085   2.663 -0.0864  0.5336  0.1645
 3894W        W 7638   2.392   2.395   9.851  0.1201  0.3057  0.1519
 3895W        W 7639   5.119   2.398   2.156  0.4542 -0.1516  0.2328
 3896W        W 7640   3.783   4.800   2.925 -0.1632 -0.0612  0.0866
 3897W        W 7641   9.731   9.008   9.123  0.2108  0.1093 -0.1239
 3898W        W 7642   6.530   7.000   2.411  0.2748  0.0394  0.1989
 3899W        W 7643   7.986   4.780  12.335 -0.0744 -0.1677  0.1180
 3900W        W 7644   9.480   0.823   3.143  0.0647  0.0210  0.2149
 3901W        W 7645   6.444   2.400  11.560 -0.4193 -0.0459 -0.3466
 3902W        W 7646   0.784   7.123  12.801 -0.0680 -0.0879 -0.1578
 3903W        W 7647   1.983   0.517  12.794  0.1606  0.2954  0.1850
 3904W        W 7648   0.532   5.164   2.502 -0.2985  0.0948 -0.3546
 3905W        W 7649   5.659   3.866  11.512  0.0256  0.0148 -0.0974
 3906W        W 7650   1.315   4.338   9.734 -0.4114 -0.1138  0.0425
 3907W        W 7651   4.356   5.536   0.731  0.1398  0.2979 -0.0198
 3908W        W 7652   6.211   9.093  11.410 -0.2286 -0.1779 -0.2649
 3909W        W 7653   6.449   3.397   2.933 -0.1776  0.1239 -0.1350
 3910W        W 7654   6.803   0.351  10.845  0.0895  0.1734  0.0220
 3911W        W 7655   0.672   7.116  10.405  0.0525  0.2684  0.2013
 3912W        W 7656   1.407   7.811   0.256  0.0834  0.2332  0.0929
 3913W        W 7657   1.284   8.549   9.945  0.0793  0.1882  0.0125
 3914W        W 7658   4.306   6.035  10.898  0.3079  0.0146  0.2105
 3915W        W 7659   0.113   8.618  11.741  0.1245  0.0785  0.0151
 3916W        W 7660   6.595   5.177   1.217  0.0091 -0.1267  0.3624
 3917W        W 7661   2.259   2.184   9.366 -0.4013 -0.2556 -0.0834
 3918W        W 7662   2.327   2.578   2.118 -0.1016  0.2783 -0.0420
 3919W        W 7663   8.208   4.278  11.531 -0.3453  0.1805  0.1061
 3920W        W 7664   7.226   5.918   9.063 -0.0045 -0.1253 -0.0388
 3921W        W 7665   5.231   3.406   9.295  0.2493 -0.0813  0.1180
 3922W        W 7666   7.969   9.628  11.924  0.1264 -0.0415  0.2271
 3923W        W 7667   2.776   8.533  10.489  0.0589  0.2287 -0.0755
 3924W        W 7668   3.263   2.332   0.330  0.0461  0.0191 -0.2064
 3925W        W 7669   5.708   8.703  11.040  0.1992  0.0202 -0.0938
 3926W        W 7670   7.995   4.051  12.001 -0.1203  0.0278 -0.1018
 3927W        W 7671   4.647   3.900   9.217 -0.1556  0.1121  0.2013
 3928W        W 7672   7.603   0.275  11.476  0.2540  0.1026 -0.2063
 3929W        W 7673   8.911   9.359   2.573 -0.1434 -0.1671 -0.1690
 3930W        W 7674   1.802   3.386   3.392 -0.0489 -0.0411 -0.2154
 3931W        W 7675   2.591   7.427   4.060 -0.0724  0.0536 -0.2589
 3932W        W 7676   2.246   3.329   0.856  0.0194 -0.2735 -0.0907
 3933W        W 7677   6.832   5.059   0.238  0.1407 -0.1192 -0.1775
 3934W        W 7678   8.592   0.478   3.103 -0.1253 -0.1306  0.2435
 3935W        W 7679   2.614   7.232  11.542 -0.1098  0.0895 -0.0413
 3936W        W 7680   2.922   2.862  11.122 -0.2295 -0.1477  0.0045
 3937W        W 7681   3.006   5.728  11.913  0.0448 -0.0529 -0.0790
 3938W        W 7682   9.111   1.663   2.193  0.0933  0.0464  0.1568
 3939W        W 7683   4.647   5.310   0.383 -0.1095 -0.1396 -0.2576
 3940W        W 7684   9.532   1.961   0.249  0.1120 -0.0022  0.2472
 3941W        W 7685   6.678   1.729   0.854 -0.1386  0.2790  0.2038
 3942W        W 7686   1.564   6.435  11.466  0.0425 -0.0484  0.1864
 3943W        W 7687   6.652   8.567   0.243  0.0149 -0.0351 -0.1389
 3944W        W 7688   9.162   9.551   3.026 -0.3418 -0.3757  0.0294
 3945W        W 7689   5.522   6.706   9.099 -0.0217  0.2410 -0.1626
 3946W        W 7690   5.869   2.095   9.911 -0.1697 -0.0798 -0.1549
 3947W        W 7691   2.484   5.833   9.682  0.1995  0.0624 -0.1212
 3948W        W 7692   9.504   5.995   2.357  0.0801  0.3524  0.1311
 3949W        W 7693   4.663   9.200   0.823  0.3887 -0.0732 -0.1562
 3950W        W 7694   2.038   6.735   4.302 -0.1684  0.3439  0.0374
 3951W        W 7695   0.246   0.550  11.794 -0.3917  0.1098  0.0613
 3952W        W 7696   9.648   8.370  10.569 -0.1367  0.1036  0.0982
 3953W        W 7697   0.099   7.987  10.566 -0.0527 -0.1197  0.1155
 3954W        W 7698   8.181   2.090  12.004 -0.0160 -0.1597 -0.1307
 3955W        W 7699   1.113   2.942  12.816  0.2666 -0.1421  0.0736
 3956W        W 7700   2.310   0.996   9.808 -0.1853  0.0880  0.3062
 3957W        W 7701   5.281   3.695   1.896 -0.0726  0.2451 -0.0224
 3958W        W 7702   9.220   6.810  10.885  0.0221 -0.2629  0.2652
 3959W        W 7703   0.149   9.093   2.770 -0.1221  0.1132 -0.1972
 3960W        W 7704   3.826   3.623  12.393  0.0266  0.3044 -0.1660
 3961W        W 7705   5.213   3.462   1.018  0.1805 -0.2426 -0.2166
 3962W        W 7706   5.588   6.408  10.581 -0.0789  0.1687  0.0826
 3963W        W 7707   7.503   7.912   3.373 -0.1488  0.3251  0.1344
 3964W        W 7708   2.108   2.102  10.139  0.0733  0.3159  0.2122
 3965W        W 7709   5.511   7.513  10.521  0.1484 -0.2555 -0.0727
 3966W        W 7710   0.164   3.539   9.743  0.0447  0.0527 -0.3113
 3967W        W 7711   8.933   4.937   9.180  0.0890  0.3241 -0.1120
 3968W        W 7712   9.339   6.175   3.440 -0.3321 -0.2839  0.0293
 3969W        W 7713   5.750   8.077   2.645  0.2528 -0.0527 -0.4255
 3970W        W 7714   0.994   3.148   0.789 -0.2414  0.1499 -0.1910
 3971W        W 7715   9.709   2.839   2.401  0.3074 -0.0911  0.1092
 3972W        W 7716   1.084   0.226   9.992  0.1631  0.0441 -0.3451
 3973W        W 7717   8.433   9.021  10.055 -0.1055 -0.0712 -0.0038
 3974W        W 7718   3.790   5.458   2.272  0.1521 -0.0955 -0.1287
 3975W        W 7719   9.341   9.732   0.309 -0.1218 -0.0034  0.0202
 3976W        W 7720   8.782   0.971  12.610 -0.3796 -0.0334 -0.3113
 3977W        W 7721   7.998   6.100   1.010  0.1010  0.0880 -0.3425
 3978W        W 7722   5.682   0.788   2.821  0.0833  0.2019 -0.0381
 3979W        W 7723   8.917   4.009   2.289 -0.2448  0.4221 -0.0496
 3980W        W 7724   0.988   4.789  10.461 -0.1861  0.0808 -0.0245
 3981W        W 7725   1.267   4.128   2.953 -0.1791  0.4155  0.0690
 3982W        W 7726   4.098   2.212  10.524 -0.2441  0.1532 -0.0515
 3983W        W 7727   3.763   2.371   3.397  0.0759  0.2601 -0.2897
 3984W        W 7728   7.027   9.442   0.077  0.1701 -0.0538  0.0641
 3985W        W 7729   1.872   6.868   1.998 -0.0624  0.1522 -0.0191
 3986W        W 7730   0.292   2.444   1.651 -0.0269 -0.1310 -0.0879
 3987W        W 7731   3.108   4.432   3.467 -0.1367 -0.3197  0.0734
 3988W        W 7732   0.432   7.753   4.635  0.0798  0.1631 -0.0007
 3989W        W 7733   3.330   1.517   0.353  0.1330  0.2483  0.0450
 3990W        W 7734   1.711   8.134   4.075  0.1186 -0.1714  0.2128
 3991W        W 7735   9.567   2.368   1.727 -0.2631 -0.0039  0.2461
 3992W        W 7736   2.618   3.675   1.826  0.2760  0.2965 -0.0449
 3993W        W 7737   0.295   2.459   0.433 -0.0117 -0.2344 -0.0438
 3994W        W 7738   6.458   0.791   2.441 -0.0906 -0.1654 -0.1673
 3995W        W 7739   5.413   7.238  11.529 -0.0648 -0.2999  0.0275
 3996W        W 7740   8.377   4.486   4.180  0.0663 -0.0156  0.1388
 3997W        W 7741   9.017   8.094  12.228  0.1131  0.1064 -0.2672
 3998W        W 7742   9.343   4.739   2.068  0.0451  0.0122  0.1942
 3999W        W 7743   1.500   8.871   4.768 -0.0859  0.2831  0.0337
 4000W        W 7744   0.792   3.461   9.433  0.2431  0.2556 -0.1250
 4001W        W 7745   8.254   6.040   9.961 -0.2921 -0.1071 -0.0099
 4002W        W 7746   5.340   7.654  12.786  0.0436  0.1711  0.0796
 4003W        W 7747   6.876   8.395   8.574 -0.0441 -0.3165  0.3113
 4004W        W 7748   0.652   1.592   3.134  0.0824 -0.2982 -0.1118
 4005W        W 7749   5.248   1.760   6.427  0.6086  0.0597 -0.0056
 4006W        W 7750   4.137   9.816   3.696 -0.0800  0.0793  0.1024
 4007W        W 7751   9.705   5.473  10.606 -0.1566 -0.1849 -0.0580
 4008W        W 7752   2.559   5.519   4.217  0.1901 -0.0079  0.3762
 4009W        W 7753   3.799   3.016  11.125 -0.2202  0.1374  0.2645
 4010W        W 7754   0.271   7.246   4.668 -0.1016  0.2792 -0.0744
 4011W        W 7755   9.190   0.609   2.726  0.2775 -0.0403 -0.0991
 4012W        W 7756   9.501   5.764   1.897 -0.0306  0.2404  0.2421
 4013W        W 7757   4.581   8.374   8.283 -0.3223  0.3614 -0.3274
 4014W        W 7758   3.885   7.228   9.657  0.4242  0.2077 -0.2207
 4015W        W 7759   4.358   5.717   1.263 -0.1507 -0.2639  0.0667
 4016W        W 7760   1.759   3.082  10.139 -0.0661  0.0869 -0.3961
 4017W        W 7761   7.969   6.229   9.062 -0.0859 -0.0429  0.0703
 4018W        W 7762   4.211   8.237   0.750 -0.0069  0.3671 -0.3705
 4019W        W 7763   2.539   9.576  10.727 -0.3949 -0.0317  0.1381
 4020W        W 7764   3.382   0.959   2.309  0.1048  0.1156 -0.3915
 4021W        W 7765   3.108   1.833   2.500  0.2203 -0.2186  0.5315
 4022W        W 7766   4.869   4.300  10.629  0.4606 -0.1881 -0.0671
 4023W        W 7767   0.329   6.255   1.000 -0.1956 -0.0019  0.0011
 4024W        W 7768   2.809   1.947  11.471 -0.4404  0.1881 -0.1797
 4025W        W 7769   7.524   1.548   0.652  0.0837 -0.0515 -0.2323
 4026W        W 7770   9.230   5.309   9.739 -0.1535 -0.2003 -0.1939
 4027W        W 7771   4.459   6.741   1.981  0.0575 -0.0360  0.0868
 4028W        W 7772   8.512   8.180   2.710  0.1067  0.0384 -0.2619
 4029W        W 7773   7.653   5.910   8.782 -0.1820 -0.0723 -0.1296
 4030W        W 7774   9.023   1.030   1.417 -0.2534 -0.2729  0.0886
 4031W        W 7775   4.311   5.175  11.689  0.0492  0.2800 -0.2765
 4032W        W 7776   1.265   2.537   1.349  0.1685 -0.0605 -0.2268
 4033W        W 7777   7.374   2.167   3.194  0.0460 -0.1821  0.3721
 4034W        W 7778   6.280   3.479  10.107  0.0117  0.0567  0.2420
 4035W        W 7779   5.185   1.328  10.597  0.0089 -0.2564  0.4624
 4036W        W 7780   0.596   6.938  10.875  0.0890  0.2423  0.2856
 4037W        W 7781   3.810   9.666  11.629  0.4544 -0.1106  0.0034
 4038W        W 7782   9.355   5.408   2.327  0.0135  0.0117 -0.1766
 4039W        W 7783   9.175   1.132  12.299  0.3748  0.1551 -0.0528
 4040W        W 7784   5.574   4.624   3.046  0.0608 -0.0143 -0.1530
 4041W        W 7785   9.553   8.936   4.579 -0.4024 -0.1375  0.2855
 4042W        W 7786   0.431   3.646   3.564 -0.1342  0.0749 -0.3850
 4043W        W 7787   8.454   1.876   9.676  0.0693  0.0872 -0.1896
 4044W        W 7788   8.487   4.748   1.939  0.0741  0.0769 -0.1137
 4045W        W 7789   0.518   1.997  12.543  0.4400  0.2421 -0.1238
 4046W        W 7790   0.930   2.027   0.062 -0.1192 -0.4353  0.0240
 4047W        W 7791   2.474   5.867  11.700 -0.0970  0.4802 -0.4700
 4048W        W 7792   2.633   4.902   9.359 -0.1140 -0.2449 -0.0659
 4049W        W 7793   0.000   6.701   0.059  0.4653 -0.0056 -0.1336
 4050W        W 7794   8.276   4.168   0.838 -0.2755  0.2044 -0.0941
 4051W        W 7795   7.296   7.504   4.132  0.0753  0.1262  0.4055
 4052W        W 7796   3.841   6.326   0.313 -0.1324 -0.2442  0.0529
 4053W        W 7797   4.940   8.979  12.187 -0.0206  0.0298  0.0102
 4054W        W 7798   0.118   7.143   0.165 -0.0472  0.0832 -0.1044
 4055W        W 7799   3.822   0.552   9.753 -0.0262  0.1655  0.1134
 4056W        W 7800   5.923   7.548   1.943  0.1367  0.1728  0.1648
 4057W        W 7801   7.337   1.314   2.037  0.0601 -0.2574 -0.1602
 4058W        W 7802   4.598   8.557   0.614 -0.4722  0.1655  0.1553
 4059W        W 7803   4.215   3.995   1.425  0.1331 -0.2880 -0.0141
 4060W        W 7804   3.244   2.400   1.341  0.2483 -0.1886 -0.0419
 4061W        W 7805   4.876   4.648   2.627  0.1079  0.0840  0.3680
 4062W        W 7806   3.191   8.339  12.437 -0.5862 -0.1428 -0.1245
 4063W        W 7807   0.743   0.155   9.041  0.0396  0.1863  0.0488
 4064W        W 7808   7.546   6.174  10.551  0.1105 -0.1099 -0.0647
 4065W        W 7809   9.262   3.181  12.626 -0.1289 -0.0129 -0.3479
 4066W        W 7810   5.317   7.080   8.180 -0.1213  0.1865  0.3054
 4067W        W 7811   0.114   1.571   2.021 -0.2216  0.0190 -0.2997
 4068W        W 7812   5.447   1.870   2.167 -0.0079  0.1705  0.1217
 4069W        W 7813   5.242   9.293   2.097 -0.1180 -0.0302  0.0728
 4070W        W 7814   7.629   5.379   1.377 -0.0949 -0.0488  0.2968
 4071W        W 7815   4.402   5.188   3.722  0.0426  0.4538  0.0917
 4072W        W 7816   2.005   8.792   0.721  0.4945  0.2421 -0.0456
 4073W        W 7817   2.023   9.162   4.767 -0.0421 -0.1198 -0.1526
 4074W        W 7818   4.342   0.285   2.465  0.4327  0.2339  0.1411
 4075W        W 7819   8.929   0.260   9.571 -0.0592 -0.0264  0.1628
 4076W        W 7820   0.984   7.764   8.206 -0.3967 -0.0518  0.1874
 4077W        W 7821   7.239   6.533   3.771 -0.5216 -0.3827 -0.4224
 4078W        W 7822   7.865   0.317   0.844 -0.0693  0.3418  0.1207
 4079W        W 7823   5.567   2.448  11.889  0.1701  0.0918 -0.1662
 4080W        W 7824   8.323   3.287  11.582 -0.1965 -0.1911  0.3167
 4081W        W 7825   6.505   8.468   1.293  0.0776 -0.1962  0.0558
 4082W        W 7826   0.929   8.398   4.226 -0.0217 -0.0029 -0.2003
 4083W        W 7827   1.145   2.519  10.645 -0.2108  0.1285  0.0544
 4084W        W 7828   9.829   5.286  12.900  0.2272  0.2056  0.2276
 4085W        W 7829   3.163   5.028   9.442  0.0270  0.0476  0.0517
 4086W        W 7830   0.389   5.128   0.025  0.0169  0.1074 -0.2740
 4087W        W 7831   1.916   7.419  11.299 -0.0804  0.3001 -0.1633
 4088W        W 7832   5.939   7.130   3.149 -0.0998 -0.3429  0.0931
 4089W        W 7833   0.508   0.527   9.887 -0.1161 -0.1476 -0.1085
 4090W        W 7834   2.765   3.634   9.357 -0.1131 -0.0109 -0.1440
 4091W        W 7835   9.297   2.013  11.111  0.3467 -0.2529 -0.4190
 4092W        W 7836   2.406   9.277   0.468 -0.1665 -0.0953 -0.2407
 4093W        W 7837   6.228   7.748   3.663 -0.2398 -0.4765 -0.0077
 4094W        W 7838   9.834   4.411   3.675 -0.0355  0.0459  0.0081
 4095W        W 7839   3.589   1.052   0.515 -0.0206  0.1844  0.1699
 4096W        W 7840   1.823   4.833   1.158  0.0817  0.1628  0.0664
 4097W        W 7841   9.026   5.958   2.242  0.3368 -0.0859 -0.1910
 4098W        W 7842   8.235   1.014  11.356  0.2853 -0.0039 -0.1089
 4099W        W 7843   9.341   2.817  12.986  0.0589 -0.0136 -0.1563
 4100W        W 7844   9.745   5.833  12.865  0.0309 -0.1131 -0.1296
 4101W        W 7845   6.398   4.814   2.523 -0.0816  0.1127 -0.1887
 4102W        W 7846   2.415   7.410   4.553 -0.2581 -0.0501  0.1046
 4103W        W 7847   0.578   7.557   1.222 -0.1397  0.4312 -0.1073
 4104W        W 7848   9.075   1.075   4.012 -0.1211 -0.3806  0.1600
 4105W        W 7849   4.235   9.625   2.069  0.1452 -0.0664  0.2697
 4106W        W 7850   9.351   2.413   4.274  0.0484  0.0469 -0.0379
 4107W        W 7851   2.559   0.431  11.932  0.3636  0.2149 -0.3177
 4108W        W 7852   3.148   5.449   4.339 -0.4021 -0.0933 -0.1738
 4109W        W 7853   8.113   7.822   2.567 -0.6435 -0.1414  0.0561
 4110W        W 7854   0.984   0.357  11.229  0.0597  0.2624  0.0388
 4111W        W 7855   5.340   8.573   0.068 -0.0888 -0.6036  0.2329
 4112W        W 7856   4.862   8.230   8.689 -0.0712 -0.0941  0.0187
 4113W        W 7857   6.790   9.893   0.010 -0.1427  0.1054  0.1006
 4114W        W 7858   2.368   6.145   8.847 -0.0879 -0.0425 -0.0632
 4115W        W 7859   6.784   5.508   2.100 -0.0035 -0.0025  0.0070
 4116W        W 7860   9.199   7.170  12.749  0.1758 -0.0613 -0.1403
 4117W        W 7861   7.197   4.503   0.588  0.2405 -0.4935 -0.0071
 4118W        W 7862   8.509   4.295   2.212  0.2887 -0.1395  0.1698
 4119W        W 7863   5.100   5.172  12.220 -0.1496 -0.2304 -0.2357
 4120W        W 7864   3.264   4.277   8.996  0.0630 -0.1510 -0.1121
 4121W        W 7865   0.110   3.722   4.901  0.0578  0.2561  0.2796
 4122W        W 7866   3.063   2.707   2.738  0.2556 -0.0019  0.0386
 4123W        W 7867   2.991   7.949   3.107  0.2059 -0.0841 -0.2070
 4124W        W 7868   2.364   1.140   3.409 -0.1590  0.2819  0.2257
 4125W        W 7869   1.377   7.611  10.024 -0.2089  0.0988  0.0302
 4126W        W 7870   1.872   0.636   3.867  0.0483  0.0737  0.1523
 4127W        W 7871   8.569   8.737   9.658  0.0338  0.1617  0.2574
 4128W        W 7872   4.630   6.266   1.352  0.0672  0.0934 -0.2107
 4129W        W 7873   0.708   1.142   0.851  0.0255  0.0504  0.0379
 4130W        W 7874   4.433   5.118  12.927 -0.2161 -0.2254 -0.0649
 4131W        W 7875   4.537   4.225  12.802 -0.2253  0.0456 -0.0319
 4132W        W 7876   8.609   6.216   4.243  0.0839  0.0026 -0.2441
 4133W        W 7877   6.321   0.141  12.815 -0.0104 -0.0285  0.0884
 4134W        W 7878   4.381   2.170  12.966  0.0287 -0.0084  0.1691
 4135W        W 7879   6.643   1.225   1.017  0.1869 -0.4058 -0.1609
 4136W        W 7880   2.942   0.071  12.547  0.0519 -0.4762  0.0596
 4137W        W 7881   5.543   6.110   1.750 -0.2526  0.0324 -0.1282
 4138W        W 7882   6.635   5.418   3.769 -0.1981 -0.0078 -0.0475
 4139W        W 7883   6.004   9.310   1.436 -0.2692  0.0368  0.0516
 4140W        W 7884   0.081   4.317  11.358 -0.2086 -0.0051  0.0243
 4141W        W 7885   0.888   4.315   3.523  0.3199 -0.0783 -0.0768
 4142W        W 7886   0.941   1.072   8.778  0.0780 -0.0232 -0.3129
 4143W        W 7887   6.830   5.104   4.125  0.1461 -0.2857 -0.2191
 4144W        W 7888   2.510   7.503   3.276 -0.1526 -0.1995  0.1222
 4145W        W 7889   0.354   1.680  11.652  0.1717 -0.0222  0.0749
 4146W        W 7890   4.470   1.937  11.045  0.1070  0.0786 -0.1625
 4147W        W 7891   3.023   9.525  11.235  0.3572  0.0683  0.1094
 4148W        W 7892   3.452   5.510   1.282 -0.0510  0.1356 -0.0421
 4149W        W 7893   8.468   7.611  12.218  0.3098 -0.1275  0.1893
 4150W        W 7894   5.921   9.867  10.544  0.1363  0.2408  0.0107
 4151W        W 7895   1.204   0.573   0.160 -0.0384  0.2114  0.2056
 4152W        W 7896   1.450   4.050  11.549 -0.3091  0.4428 -0.1266
 4153W        W 7897   6.748   5.372  10.926 -0.1551 -0.1941 -0.2602
 4154W        W 7898   4.031   5.484   2.743 -0.0323 -0.3231  0.0294
 4155W        W 7899   3.501   7.884   8.819 -0.1855 -0.1298 -0.3463
 4156W        W 7900   7.246   9.482   0.610 -0.0549  0.2994  0.0469
 4157W        W 7901   9.603   2.324   2.430 -0.2050  0.0454 -0.1702
 4158W        W 7902   6.839   4.550   9.943  0.1969  0.3239 -0.0297
 4159W        W 7903   1.095   0.261   1.018  0.0766 -0.0796 -0.3458
 4160W        W 7904   1.066   7.553  12.076  0.4325  0.0576  0.1615
 4161W        W 7905   0.658   9.141  11.611  0.0207  0.2360 -0.0214
 4162W        W 7906   9.805   1.650   0.007 -0.0916 -0.2139  0.3882
 4163W        W 7907   4.656   2.732   3.994  0.2080  0.0335 -0.1020
 4164W        W 7908   2.364   4.256   1.208 -0.1048 -0.1806  0.0041
 4165W        W 7909   2.294   5.021   2.457 -0.1108 -0.0901 -0.5139
 4166W        W 7910   1.579   8.707   1.478  0.0184  0.2253 -0.0710
 4167W        W 7911   1.560   4.148   2.506  0.0648 -0.2106  0.1378
 4168W        W 7912   6.237   5.137   2.876  0.1195  0.1555 -0.0380
 4169W        W 7913   5.949   6.591   4.119  0.1388 -0.2508 -0.0124
 4170W        W 7914   4.276   3.096  11.088  0.1143  0.1141 -0.0155
 4171W        W 7915   3.209   6.938  12.750 -0.3198  0.0958  0.0918
 4172W        W 7916   3.906   2.016  12.881 -0.2942  0.1969  0.1570
 4173W        W 7917   1.720   7.095  12.717  0.2139  0.3262  0.1514
 4174W        W 7918   7.179   0.546   1.449  0.1323 -0.1126  0.0387
 4175W        W 7919   1.903   5.763   4.170 -0.0673 -0.0677 -0.2159
 4176W        W 7920   1.517   2.335  12.577 -0.0182 -0.0752  0.1353
 4177W        W 7921   4.761   3.852  11.521  0.1492  0.1001  0.2787
 4178W        W 7922   1.556   3.121   9.110  0.4370  0.0599  0.1426
 4179W        W 7923   5.333   5.491  12.716  0.2525 -0.1625 -0.0964
 4180W        W 7924   4.308   5.400   9.568  0.1022  0.3424 -0.2076
 4181W        W 7925   9.241   2.582   3.283 -0.0831  0.0062  0.2165
 4182W        W 7926   2.682   6.728  11.888  0.0040  0.0349 -0.1732
 4183W        W 7927   2.193   2.017   4.578  0.1641 -0.1345 -0.1881
 4184W        W 7928   7.904   1.886  12.770 -0.0969  0.0027  0.0269
 4185W        W 7929   9.273   0.092  11.657 -0.1419 -0.0610 -0.0043
 4186W        W 7930   8.968   6.358   1.829  0.0945 -0.0944 -0.1378
 4187W        W 7931   2.658   7.710  12.014 -0.2201 -0.1583 -0.0940
 4188W        W 7932   4.086   3.681   9.089  0.0209  0.1555 -0.0393
 4189W        W 7933   2.955   4.758   1.051 -0.2598  0.1419 -0.1297
 4190W        W 7934   8.615   6.185   1.449 -0.0995  0.1760  0.2081
 4191W        W 7935   6.774   1.383   1.959  0.1266  0.3179  0.2699
 4192W        W 7936   1.334   1.601   0.275  0.1254 -0.0136 -0.1588
 4193W        W 7937   7.560   8.019   9.754  0.0322  0.1123 -0.1109
 4194W        W 7938   8.230   1.474   9.956 -0.1939 -0.1110 -0.1897
 4195W        W 7939   9.107   2.399  12.924 -0.1370 -0.2837  0.1487
 4196W        W 7940   7.209   7.559  10.759  0.2153  0.1382  0.1818
 4197W        W 7941   5.398   0.100   0.166 -0.0212 -0.0370 -0.0035
 4198W        W 7942   6.724   3.245  10.345  0.0573 -0.2087  0.0650
 4199W        W 7943   6.511   5.656  11.278  0.0121 -0.1853 -0.1541
 4200W        W 7944   8.757   4.645   1.503  0.1028  0.2453 -0.0236
 4201W        W 7945   7.949   7.574   4.538  0.1585  0.0788 -0.1999
 4202W        W 7946   1.399   2.665   4.383 -0.1384  0.1845 -0.0650
 4203W        W 7947   4.029   1.174   4.199  0.2052 -0.3524 -0.0146
 4204W        W 7948   3.683   8.505   3.310  0.4959  0.1365  0.0548
 4205W        W 7949   7.585   5.228   3.462  0.2466 -0.2715 -0.0364
 4206W        W 7950   7.495   1.745   3.352 -0.0475  0.1441  0.1154
 4207W        W 7951   4.359   0.797   0.207 -0.1438 -0.2137  0.0326
 4208W        W 7952   5.639   5.649   1.824 -0.0823 -0.1339 -0.3823
 4209W        W 7953   1.145   2.216   3.345  0.0012  0.1194 -0.0856
 4210W        W 7954   0.102   9.818   8.642  0.0737  0.2770  0.2016
 4211W        W 7955   3.382   2.806  10.835  0.0732  0.2816 -0.0367
 4212W        W 7956   0.861   5.521   2.754 -0.1138  0.1019 -0.1938
 4213W        W 7957   8.548   8.736   3.906 -0.0377 -0.4484  0.0831
 4214W        W 7958   8.962   7.346   3.894 -0.0084 -0.0287 -0.0138
 4215W        W 7959   5.359   2.980   9.522  0.3547  0.3075  0.2053
 4216W        W 7960   7.568   4.842   4.176  0.3824  0.0066  0.2990
 4217W        W 7961   9.055   4.283  11.900  0.0473  0.0705  0.0281
 4218W        W 7962   4.028   6.507   1.776 -0.3463  0.0916  0.2304
 4219W        W 7963   3.461   9.306  12.194 -0.0744 -0.2766 -0.3755
 4220W        W 7964   9.687   4.080   4.179  0.1742 -0.2073  0.1506
 4221W        W 7965   6.619   5.478   0.472  0.0337 -0.0949 -0.0330
 4222W        W 7966   7.299   4.790   1.486 -0.2543 -0.1069  0.1178
 4223W        W 7967   6.837   3.681   2.959 -0.2571  0.1984 -0.2890
 4224W        W 7968   2.285   9.224   1.507  0.0187 -0.0473 -0.1976
 4225W        W 7969   0.671   6.454  11.416 -0.1924 -0.0629 -0.2142
 4226W        W 7970   7.494   2.133   3.667  0.1508  0.2103  0.0184
 4227W        W 7971   0.629   2.051  11.830  0.1375 -0.0827 -0.0600
 4228W        W 7972   9.630   0.678   0.184 -0.2499  0.3061  0.1831
 4229W        W 7973   5.412   0.866  10.407 -0.2213  0.2429  0.3711
 4230W        W 7974   3.485   6.169   3.978 -0.0335 -0.0465 -0.0064
 4231W        W 7975   9.341   6.352   1.501 -0.2939 -0.0245  0.0156
 4232W        W 7976   2.571   9.561  10.199  0.3469 -0.2878  0.2289
 4233W        W 7977   3.773   6.286  12.164  0.0417  0.0478 -0.0744
 4234W        W 7978   1.345   5.136  10.683 -0.4726 -0.0222  0.0203
 4235W        W 7979   2.502   5.605   0.283 -0.0267  0.0988 -0.0366
 4236W        W 7980   3.740   1.941  11.012  0.2747  0.2087 -0.1039
 4237W        W 7981   4.235   6.181   3.416  0.0053 -0.1509 -0.2255
 4238W        W 7982   3.369   1.878   2.893 -0.2828  0.1382 -0.0165
 4239W        W 7983   8.440   4.156   3.187  0.0172 -0.0935  0.3121
 4240W        W 7984   3.858   8.190   2.839 -0.1761  0.2017 -0.2166
 4241W        W 7985   7.895   7.600  10.958 -0.0804 -0.0268  0.2170
 4242W        W 7986   4.779   7.109  12.167 -0.2646  0.2220 -0.2745
 4243W        W 7987   5.904   2.334   1.263 -0.0167 -0.1048  0.0737
 4244W        W 7988   7.508   1.348  10.590 -0.1946  0.3931 -0.5499
 4245W        W 7989   8.612   7.620   0.972 -0.1401  0.3120 -0.2157
 4246W        W 7990   9.671   8.549   0.385 -0.2192 -0.3631 -0.0279
 4247W        W 7991   0.554   4.538  11.521  0.3312  0.0881  0.2239
 4248W        W 7992   5.389   4.466  10.000 -0.0258  0.1343  0.0985
 4249W        W 7993   3.655   6.951   2.106 -0.1614  0.1503 -0.0313
 4250W        W 7994   6.007   0.491   1.298 -0.0318 -0.1901  0.0250
 4251W        W 7995   3.650   2.533  10.493  0.0741 -0.0935 -0.0048
 4252W        W 7996   5.995   5.080  11.012  0.4577 -0.1956  0.0639
 4253W        W 7997   9.837   9.108  12.030 -0.0564  0.0641 -0.2122
 4254W        W 7998   0.518   0.848   9.491  0.0131 -0.3691 -0.1724
 4255W        W 7999   1.521   3.979   1.543  0.1930  0.0970 -0.0367
 4256W        W 8000   3.966   1.045  12.921  0.0516  0.1516 -0.1879
 4257W        W 8001   5.964   3.389   4.420  0.1451 -0.2079  0.1765
 4258W        W 8002   3.272   4.277   4.441  0.2227 -0.1591 -0.0666
 4259W        W 8003   3.293   0.309   1.814 -0.1397 -0.0230  0.0827
 4260W        W 8004   6.345   0.584   3.212 -0.1042 -0.0609 -0.2026
 4261W        W 8005   1.586   7.097   2.439 -0.3956 -0.1603 -0.3477
 4262W        W 8006   9.783   3.966   0.726  0.0072 -0.1523 -0.1222
 4263W        W 8007   4.172   1.570  12.668  0.0820  0.1571 -0.0076
 4264W        W 8008   8.531   3.051  10.414  0.0893 -0.0942  0.0345
 4265W        W 8009   0.365   9.070   1.192  0.1547  0.0728  0.2265
 4266W        W 8010   4.010   6.095   4.124  0.1021 -0.0903 -0.2208
 4267W        W 8011   1.261   2.979   1.627  0.0687 -0.0778 -0.1496
 4268W        W 8012   4.258   5.023   2.115 -0.2114 -0.2424 -0.0532
 4269W        W 8013   1.374   1.064   2.095  0.0031 -0.0508 -0.0969
 4270W        W 8014   4.199   8.845  11.542 -0.1856 -0.0990 -0.2771
 4271W        W 8015   0.010   6.631   1.997 -0.2577  0.1942  0.2129
 4272W        W 8016   6.314   8.326  10.012  0.0924 -0.0797  0.0533
 4273W        W 8017   7.016   0.648  12.319 -0.2515 -0.0524  0.1656
 4274W        W 8018   2.984   6.641  12.271 -0.1710 -0.0998  0.3274
 4275W        W 8019   3.407   3.272   2.047  0.1401 -0.3962 -0.0627
 4276W        W 8020   8.225   3.650   1.596 -0.0619 -0.2754 -0.4809
 4277W        W 8021   6.280   5.771   3.863  0.0430 -0.3026 -0.0178
 4278W        W 8022   0.869   8.089   0.311  0.2361  0.0241  0.4728
 4279W        W 8023   3.296   8.129   1.487 -0.0088 -0.0286 -0.0360
 4280W        W 8024   1.526   3.326  12.873  0.2443  0.1881  0.0129
 4281W        W 8025   2.144   9.441  12.240 -0.0827  0.1935 -0.5483
 4282W        W 8026   9.176   9.676   9.557 -0.1056 -0.1323  0.2125
 4283W        W 8027   9.001   2.851   2.395  0.0949  0.1068  0.2195
 4284W        W 8028   2.867   3.037  12.283  0.3315 -0.1037 -0.3855
 4285W        W 8029   6.772   6.557   1.439 -0.3611 -0.0716 -0.1853
 4286W        W 8030   2.269   8.517   8.754 -0.1217  0.2563 -0.1803
 4287W        W 8031   0.817   6.585   3.493  0.3465  0.0519 -0.0300
 4288W        W 8032   8.922   8.939  12.491 -0.0085  0.4668  0.2758
 4289W        W 8033   5.092   8.995   0.052 -0.0450 -0.1030 -0.0643
 4290W        W 8034   9.790   3.090  10.678  0.0060  0.1346  0.2554
 4291W        W 8035   3.516   7.302   3.580 -0.0001  0.0574 -0.0347
 4292W        W 8036   2.037   6.455   1.400 -0.2017 -0.2750 -0.0509
 4293W        W 8037   4.674   8.196   2.413  0.0258  0.0345 -0.0326
 4294W        W 8038   3.025   9.868  10.139 -0.1567 -0.2581 -0.1830
 4295W        W 8039   7.265   3.087   3.732 -0.1039  0.6990 -0.0748
 4296W        W 8040   1.608   3.514   9.930  0.3059 -0.0383 -0.2428
 4297W        W 8041   7.605   9.042   4.177 -0.1491 -0.2131  0.0683
 4298W        W 8042   2.840   1.641   1.160  0.1131  0.2030  0.0974
 4299W        W 8043   1.333   2.066   9.799  0.2388 -0.0272 -0.0899
 4300W        W 8044   2.192   7.462   3.674 -0.0950  0.0287  0.0366
 4301W        W 8045   4.990   8.239   0.678 -0.0027  0.0565  0.2236
 4302W        W 8046   5.855   9.207  11.037 -0.1342 -0.1866 -0.0924
 4303W        W 8047   4.172   9.192  10.759 -0.1504  0.0804  0.1192
 4304W        W 8048   2.051   4.449   1.536 -0.0600  0.0436 -0.1437
 4305W        W 8049   5.069   6.118   0.898 -0.0795  0.0246 -0.1649
 4306W        W 8050   3.260   5.607  10.748 -0.0160 -0.0836  0.0348
 4307W        W 8051   7.704   7.550   0.467  0.0933 -0.3715  0.1991
 4308W        W 8052   8.384   5.072  11.775  0.1663  0.0643  0.1249
 4309W        W 8053   1.848   2.194  10.634 -0.0683  0.0469 -0.1981
 4310W        W 8054   3.792   3.464   0.650  0.2057  0.3097 -0.0031
 4311W        W 8055   1.471   0.467  12.702 -0.1886 -0.0517  0.0140
 4312W        W 8056   8.469   6.105   9.214 -0.0983 -0.2570 -0.1964
 4313W        W 8057   0.708   6.102  11.809 -0.2218  0.1268 -0.0171
 4314W        W 8058   7.616   4.337   1.500  0.1193 -0.1123 -0.3914
 4315W        W 8059   7.938   4.589  12.878  0.0453 -0.0879  0.1742
 4316W        W 8060   5.988   8.190   3.699 -0.1513 -0.1355  0.0130
 4317W        W 8061   2.432   0.828  12.750 -0.1316 -0.0960 -0.2946
 4318W        W 8062   8.770   1.594   2.739  0.1709  0.1402  0.1774
 4319W        W 8063   3.074   7.005   2.161 -0.0367 -0.3225  0.2398
 4320W        W 8064   6.352   2.890   0.625  0.0893  0.2210  0.0440
 4321W        W 8065   7.145   3.317   2.874 -0.1454  0.1131 -0.0992
 4322W        W 8066   5.152   6.057   2.463  0.1720  0.0998 -0.0973
 4323W        W 8067   0.461   0.948   5.117  0.2446  0.2119 -0.0363
 4324W        W 8068   0.733   6.068   0.724 -0.2994 -0.0739 -0.0145
 4325W        W 8069   5.044   3.673   1.472  0.2985  0.0693 -0.0982
 4326W        W 8070   1.260   9.376   4.196 -0.0548 -0.0870 -0.0098
 4327W        W 8071   4.316   3.547   1.589 -0.0621 -0.0769  0.0247
 4328W        W 8072   4.047   5.086   3.261  0.4114 -0.0307  0.0082
 4329W        W 8073   5.578   7.002  12.127 -0.3912 -0.1586  0.0424
 4330W        W 8074   5.154   7.338   8.629 -0.0246  0.1095 -0.0005
 4331W        W 8075   3.987   9.668  10.279  0.0888  0.1662 -0.3033
 4332W        W 8076   3.796   4.389  10.798  0.3966  0.1620  0.1108
 4333W        W 8077   1.443   5.938   3.993 -0.0349  0.2545  0.1873
 4334W        W 8078   5.677   9.043  10.358 -0.3170 -0.1110 -0.3139
 4335W        W 8079   8.769   2.681  12.160 -0.1618 -0.1889  0.1880
 4336W        W 8080   1.529   0.156   2.773 -0.1926  0.0430 -0.0061
 4337W        W 8081   2.353   5.482   8.894  0.1121  0.1067 -0.0433
 4338W        W 8082   0.845   5.893   4.478 -0.1814 -0.1909  0.1619
 4339W        W 8083   4.534   9.400  11.006  0.1208 -0.2309 -0.1192
 4340W        W 8084   0.832   5.393   9.725 -0.0561 -0.0336 -0.2776
 4341W        W 8085   3.732   9.200  11.797  0.0082 -0.2242 -0.0249
 4342W        W 8086   4.005   7.553   1.655  0.2006  0.1802 -0.1950
 4343W        W 8087   1.272   2.454   9.017  0.0619  0.0700  0.1987
 4344W        W 8088   1.575   7.502   4.613 -0.1338 -0.3018  0.3323
 4345W        W 8089   0.988   6.484   1.994  0.0419 -0.1510 -0.2029
 4346W        W 8090   7.997   7.073  10.891 -0.2359 -0.1324 -0.0479
 4347W        W 8091   2.519   9.140   4.495 -0.1752  0.0979  0.0018
 4348W        W 8092   0.249   4.371   4.084 -0.0392  0.0795  0.0206
 4349W        W 8093   0.109   3.508  11.504 -0.2527 -0.1111  0.0342
 4350W        W 8094   2.541   7.245  10.422 -0.2058 -0.0412 -0.1200
 4351W        W 8095   5.120   6.856  11.333 -0.5417  0.2727  0.2012
 4352W        W 8096   0.680   6.060   0.219 -0.2069  0.1573  0.0695
 4353W        W 8097   7.457   3.270   2.380 -0.4489  0.1935  0.2027
 4354W        W 8098   8.286   4.209   1.636 -0.0778 -0.3186 -0.0835
 4355W        W 8099   8.785   3.484  11.257 -0.0206  0.3093  0.1228
 4356W        W 8100   2.598   0.426   2.206 -0.0038  0.0413 -0.0639
 4357W        W 8101   4.599   6.772   9.209 -0.0009 -0.2459  0.0178
 4358W        W 8102   0.282   6.629   1.350  0.0929  0.3682 -0.0460
 4359W        W 8103   0.415   2.359  12.205 -0.1605  0.3432  0.0004
 4360W        W 8104   5.981   5.721   9.803  0.0193 -0.3252 -0.0359
 4361W        W 8105   4.295   8.179   9.696 -0.1252 -0.0669  0.2367
 4362W        W 8106   1.221   1.682   8.098  0.0301 -0.1476 -0.0625
 4363W        W 8107   1.174   3.907   2.365  0.3391  0.1495  0.3929
 4364W        W 8108   4.641   8.277   1.066  0.0246 -0.1922  0.3982
 4365W        W 8109   7.723   3.766   0.295 -0.0399 -0.0068  0.0515
 4366W        W 8110   9.048   7.580  12.381 -0.0920 -0.3430  0.3982
 4367W        W 8111   5.850   8.755   0.218  0.1191  0.0559  0.0756
 4368W        W 8112   1.285   0.953   3.367  0.4762 -0.2536 -0.1356
 4369W        W 8113   0.352   7.136   2.129  0.1781 -0.1509 -0.0734
 4370W        W 8114   7.812   8.481  10.771  0.3338  0.1484 -0.0820
 4371W        W 8115   2.550   0.504   4.624 -0.1209  0.3343  0.0374
 4372W        W 8116   8.205   4.306  12.485  0.0375  0.0099 -0.1631
 4373W        W 8117   5.898   0.898   3.324  0.0195  0.1382 -0.0597
 4374W        W 8118   4.764   8.068   1.535  0.2942  0.1412 -0.0735
 4375W        W 8119   6.328   2.119  11.121  0.0138  0.2795 -0.0896
 4376W        W 8120   6.409   3.597  12.806  0.1087  0.0293  0.1385
 4377W        W 8121   0.674   9.791   2.731  0.1364  0.2055  0.0796
 4378W        W 8122   2.191   7.091   8.740 -0.0174  0.3035  0.1559
 4379W        W 8123   2.025   2.690  12.592 -0.0634 -0.4894 -0.3787
 4380W        W 8124   6.574   2.634   1.289 -0.1747 -0.1890 -0.2145
 4381W        W 8125   2.054   0.378   0.829 -0.0653  0.2304  0.0830
 4382W        W 8126   4.573   5.912   9.485 -0.1264 -0.3442 -0.0552
 4383W        W 8127   9.890   7.803   0.501 -0.1604  0.1773 -0.1425
 4384W        W 8128   7.494   4.195   0.246 -0.0096 -0.0683 -0.2908
 4385W        W 8129   2.478   6.492  10.919  0.1054 -0.1285 -0.0391
 4386W        W 8130   4.013   4.289   3.735 -0.3965 -0.0357  0.1498
 4387W        W 8131   1.786   4.198   1.162 -0.1628 -0.1337 -0.2939
 4388W        W 8132   8.469   5.367   1.149 -0.1344 -0.1159 -0.4335
 4389W        W 8133   1.597   1.259   4.763 -0.1170  0.1733 -0.0308
 4390W        W 8134   0.934   2.169  10.998  0.0333  0.0646  0.2538
 4391W        W 8135   5.311   9.371  12.171  0.0631 -0.3405  0.2570
 4392W        W 8136   6.745   9.102  10.626  0.0579  0.0932  0.0295
 4393W        W 8137   2.963   0.663   5.007  0.0703 -0.1540 -0.0192
 4394W        W 8138   8.496   5.211   3.357  0.0233  0.0363  0.2676
 4395W        W 8139   5.256   6.198  10.971  0.2254  0.1162  0.0526
 4396W        W 8140   2.995   2.428  11.578 -0.2381 -0.0384 -0.0873
 4397W        W 8141   2.550   1.699  11.811  0.0597  0.0153 -0.3377
 4398W        W 8142   4.056   0.829  11.998  0.1188 -0.3220 -0.1824
 4399W        W 8143   7.395   7.239   1.320  0.1509 -0.4903 -0.1015
 4400W        W 8144   5.508   9.623  11.093 -0.3352 -0.1636 -0.1790
 4401W        W 8145   6.392   2.211   1.587 -0.3664  0.0696 -0.0321
 4402W        W 8146   0.468   6.021   2.330 -0.1272  0.0690 -0.2950
 4403W        W 8147   4.883   7.194   0.397  0.2309  0.0352  0.0948
 4404W        W 8148   0.850   5.074   2.946  0.1928  0.0555 -0.1687
 4405W        W 8149   3.762   3.279   2.584  0.1133 -0.0383 -0.0199
 4406W        W 8150   3.653   8.477  11.008 -0.0520  0.2301 -0.3253
 4407W        W 8151   5.081   0.879  11.897  0.1352  0.0881  0.0682
 4408W        W 8152   7.235   9.689  11.233 -0.0892 -0.3055 -0.0431
 4409W        W 8153   3.810   3.549   3.383 -0.0077 -0.1044 -0.1139
 4410W        W 8154   2.204   7.016   2.755  0.2095  0.0215 -0.2028
 4411W        W 8155   6.940   8.855   9.554 -0.0925 -0.1826  0.0679
 4412W        W 8156   3.333   7.637   2.915 -0.0715  0.3466  0.1911
 4413W        W 8157   5.962   4.984  12.883  0.1030 -0.2289 -0.1394
 4414W        W 8158   1.780   4.421  11.096  0.2707 -0.2198 -0.0906
 4415W        W 8159   8.106   6.866   3.451 -0.4939  0.2556  0.1507
 4416W        W 8160   5.438   3.688  10.685  0.1790  0.0047 -0.0206
 4417W        W 8161   0.240   9.268   8.625  0.3923  0.2847 -0.0281
 4418W        W 8162   2.352   1.389   0.646 -0.1628 -0.0213 -0.0611
 4419W        W 8163   8.278   1.469   3.473  0.0499  0.0227  0.0655
 4420W        W 8164   8.634   4.664   9.755  0.1138  0.0556 -0.0291
 4421W        W 8165   3.969   4.580  11.392  0.0302 -0.1401 -0.1927
 4422W        W 8166   2.483   5.092   9.875 -0.0458 -0.0225 -0.0119
 4423W        W 8167   7.863   3.364  12.575  0.1838  0.1465  0.0023
 4424W        W 8168   6.241   5.200  12.579  0.0875  0.0328  0.1409
 4425W        W 8169   6.987   4.243   9.237 -0.1748 -0.0160 -0.0438
 4426W        W 8170   0.361   6.008  12.712 -0.1172  0.0179  0.3474
 4427W        W 8171   8.380   6.893   0.261 -0.0034 -0.0858  0.0430
 4428W        W 8172   6.838   7.254  11.077 -0.1453  0.1620  0.2970
 4429W        W 8173   4.905   1.904   3.771  0.2680  0.5038  0.0811
 4430W        W 8174   9.836   6.746   3.978  0.0411 -0.1484  0.0572
 4431W        W 8175   9.403   6.686   4.279 -0.0829 -0.0611 -0.1949
 4432W        W 8176   0.314   8.024   1.823  0.0120 -0.0276  0.0599
 4433W        W 8177   7.412   2.448   1.627 -0.1605 -0.0936  0.1467
 4434W        W 8178   9.655   1.615   2.359  0.4122 -0.1102  0.0437
 4435W        W 8179   4.808   3.944   4.692 -0.0513 -0.2519 -0.2135
 4436W        W 8180   9.389   0.671  10.909  0.1723 -0.0459 -0.3339
 4437W        W 8181   1.512   1.866   3.113  0.1496 -0.0184  0.0240
 4438W        W 8182   1.706   8.000   4.592  0.0473 -0.4159 -0.2089
 4439W        W 8183   4.932   4.448  11.739 -0.1409 -0.2019  0.2470
 4440W        W 8184   4.848   1.489   1.276 -0.1628  0.1217  0.1923
 4441W        W 8185   8.820   2.838  12.845 -0.0736  0.3312  0.0373
 4442W        W 8186   1.407   6.155  12.612  0.0608 -0.0991  0.1577
 4443W        W 8187   3.094   4.078   2.285 -0.3158 -0.1538 -0.0917
 4444W        W 8188   1.641   3.577   4.968  0.0125 -0.0632 -0.1521
 4445W        W 8189   7.531   4.526  10.386  0.4071 -0.2461  0.1907
 4446W        W 8190   5.553   9.382   0.853  0.3878  0.2557 -0.0576
 4447W        W 8191   0.367   1.144   9.042  0.1586  0.1389  0.0569
 4448W        W 8192   3.437   5.980   1.918 -0.2140  0.0956  0.3262
 4449W        W 8193   1.213   3.089   3.654  0.0572 -0.0537  0.1427
 4450W        W 8194   1.030   7.873  12.476 -0.2985 -0.3016 -0.0799
 4451W        W 8195   6.575   2.967  11.413 -0.1030 -0.3766  0.2862
 4452W        W 8196   4.630   7.306  10.861 -0.1752  0.1820 -0.0418
 4453W        W 8197   9.378   5.984  11.448  0.3331 -0.1261 -0.0712
 4454W        W 8198   9.893   5.360   3.994 -0.1098 -0.4768 -0.1528
 4455W        W 8199   5.565   5.863   2.755  0.0103  0.0165  0.0586
 4456W        W 8200   5.554   7.255  10.996 -0.1350  0.1866  0.1027
 4457W        W 8201   7.005   7.345   3.533  0.1698  0.3330 -0.0087
 4458W        W 8202   3.024   7.239   4.312 -0.0839  0.1824  0.3011
 4459W        W 8203   9.794   8.008   4.575 -0.3183 -0.0029  0.1436
 4460W        W 8204   2.099   7.206  12.335  0.0466 -0.0499 -0.2041
 4461W        W 8205   0.017   8.230   2.673 -0.2873 -0.1557  0.0989
 4462W        W 8206   4.137   3.659   1.014 -0.4092 -0.1541  0.1877
 4463W        W 8207   8.693   7.256   9.685  0.0577  0.2299 -0.0351
 4464W        W 8208   9.192   9.839   1.947  0.0815 -0.1367 -0.1996
 4465W        W 8209   5.853   8.092  10.901  0.0625  0.0711 -0.3209
 4466W        W 8210   9.835   5.011   1.398  0.2302 -0.0185 -0.0135
 4467W        W 8211   5.651   6.139   9.991 -0.0309  0.0400  0.1821
 4468W        W 8212   2.076   9.763   3.909 -0.0630 -0.2264 -0.0264
 4469W        W 8213   4.135   4.909   9.773  0.1002 -0.0207  0.3669
 4470W        W 8214   4.456   3.029   1.665 -0.0567 -0.1127 -0.0656
 4471W        W 8215   7.773   4.705   2.471 -0.0772  0.2615 -0.2425
 4472W        W 8216   4.534   3.618   3.276  0.0704  0.0058  0.1362
 4473W        W 8217   7.100   4.688   4.083 -0.0168  0.4960 -0.0707
 4474W        W 8218   9.713   7.153  12.793 -0.3354 -0.2442  0.2081
 4475W        W 8219   6.366   2.204   1.072 -0.0243  0.1792  0.4934
 4476W        W 8220   7.060   6.631  11.810 -0.0627  0.2109  0.0603
 4477W        W 8221   4.774   0.493   7.111 -0.1038  0.0876  0.0220
 4478W        W 8222   5.842   5.983   3.557  0.0157 -0.0320 -0.2535
 4479W        W 8223   7.694   2.800  10.079  0.2468 -0.0111 -0.0209
 4480W        W 8224   6.003   8.849  10.673  0.1004 -0.1144  0.1601
 4481W        W 8225   1.965   3.535  12.610 -0.2136 -0.0249  0.1056
 4482W        W 8226   3.419   9.719   1.297 -0.2872 -0.2801  0.1634
 4483W        W 8227   9.196   1.800   1.619 -0.1541  0.2973 -0.0685
 4484W        W 8228   8.379   4.460   1.222  0.1453  0.2973  0.0414
 4485W        W 8229   4.654   1.991   1.648  0.1416  0.3836  0.1246
 4486W        W 8230   4.317   4.983   9.331  0.0736  0.0439 -0.1297
 4487W        W 8231   6.083   9.595  11.991  0.0542 -0.1104 -0.0658
 4488W        W 8232   8.439   5.108   0.585  0.1404  0.0983 -0.0374
 4489W        W 8233   0.453   6.782   9.133  0.1072 -0.2086 -0.2869
 4490W        W 8234   9.550   8.952  11.701  0.0654  0.0735 -0.2276
 4491W        W 8235   0.893   2.483  12.142  0.0280  0.0770  0.1926
 4492W        W 8236   3.090   1.085   2.703  0.0352 -0.4511 -0.2820
 4493W        W 8237   0.461   0.744   1.055 -0.0046 -0.1847 -0.1791
 4494W        W 8238   4.814   6.009   4.111 -0.2973  0.3637 -0.1249
 4495W        W 8239   3.570   7.363   8.747  0.4185  0.2532 -0.5046
 4496W        W 8240   8.080   3.177   1.569 -0.0498 -0.0066  0.0992
 4497W        W 8241   5.358   5.690   0.803 -0.0625  0.2400 -0.0247
 4498W        W 8242   1.308   9.673  10.084  0.0818  0.3839  0.1720
 4499W        W 8243   2.938   9.021  10.543 -0.1588  0.2706 -0.0576
 4500W        W 8244   7.555   6.489  11.886 -0.1676  0.2926 -0.0316
 4501W        W 8245   2.617   2.737   0.411 -0.2887  0.0231 -0.1134
 4502W        W 8246   6.435   8.596   2.295 -0.0030 -0.6537 -0.3961
 4503W        W 8247   6.260   6.121   9.892  0.0859 -0.0492  0.0604
 4504W        W 8248   8.833   7.661   7.926  0.0624  0.0608 -0.0805
 4505W        W 8249   0.911   6.399  10.422  0.1265 -0.0021  0.2258
 4506W        W 8250   5.344   7.214   1.777 -0.3331  0.2055 -0.2067
 4507W        W 8251   9.472   2.758   0.890  0.3663  0.5267  0.1497
 4508W        W 8252   9.030   1.417  11.480  0.0293 -0.0287 -0.2012
 4509W        W 8253   5.319   3.746   4.026  0.0136  0.0873  0.0644
 4510W        W 8254   0.504   0.119  10.224 -0.0785 -0.0682 -0.0998
 4511W        W 8255   1.674   1.928   1.662  0.0089  0.0916  0.2309
 4512W        W 8256   4.397   3.079   3.111 -0.0770  0.0771  0.1245
 4513W        W 8257   6.464   2.625   1.819 -0.0206 -0.3228  0.0373
 4514W        W 8258   6.457   3.758   1.119 -0.1459 -0.0441  0.3480
 4515W        W 8259   8.503   9.074   3.457 -0.1265  0.2024  0.0264
 4516W        W 8260   3.106   2.374   1.834  0.3127  0.5543  0.1439
 4517W        W 8261   4.761   1.481   1.778 -0.0033 -0.0664 -0.0713
 4518W        W 8262   8.357   5.127  10.354  0.3361 -0.2442  0.3111
 4519W        W 8263   5.291   4.914  10.364 -0.0541  0.0288  0.0687
 4520W        W 8264   0.389   4.276   9.277 -0.0431 -0.0967  0.1007
 4521W        W 8265   6.539   7.069  12.450  0.3535  0.1096  0.0396
 4522W        W 8266   9.313   1.535   3.850 -0.1387 -0.3434  0.2164
 4523W        W 8267   9.086   1.413  12.753 -0.2186 -0.5031 -0.5947
 4524W        W 8268   8.518   8.247   3.545 -0.0740  0.0708 -0.3239
 4525W        W 8269   3.881   2.707  11.477  0.0910  0.1425 -0.0689
 4526W        W 8270   7.630   4.645   4.656  0.2439  0.0323  0.2242
 4527W        W 8271   3.444   7.297  11.780  0.0973  0.1011 -0.2345
 4528W        W 8272   9.670   5.354   9.439  0.1316  0.1045  0.1952
 4529W        W 8273   9.655   6.363  11.630  0.2252  0.0348  0.2139
 4530W        W 8274   8.495   6.383   3.234  0.1228 -0.2404  0.3187
 4531W        W 8275   3.867   2.812  12.068  0.0857  0.1208 -0.0279
 4532W        W 8276   4.825   9.633   2.950  0.1161  0.1519  0.0719
 4533W        W 8277   6.262   7.157   2.757 -0.0515  0.0001 -0.1311
 4534W        W 8278   7.117   0.790  12.770  0.0475  0.2385 -0.2691
 4535W        W 8279   3.289   6.828   4.264  0.0605 -0.0717  0.1930
 4536W        W 8280   3.305   8.498   8.895  0.0392 -0.0905 -0.0214
 4537W        W 8281   4.001   8.506   9.426  0.2223  0.1607 -0.0074
 4538W        W 8282   2.315   8.800   0.215  0.2025 -0.1382  0.2438
 4539W        W 8283   7.024   1.320  10.467  0.2609 -0.0398 -0.2336
 4540W        W 8284   7.977   5.412  10.500  0.1688 -0.1643  0.0725
 4541W        W 8285   1.305   3.992   0.772  0.1014  0.1882 -0.0238
 4542W        W 8286   4.316   6.891  10.230  0.0018 -0.0709  0.1683
 4543W        W 8287   0.717   3.057   1.237  0.0041 -0.0745 -0.0740
 4544W        W 8288   4.931   7.927   2.057 -0.1675  0.0540 -0.0311
 4545W        W 8289   5.710   3.353  11.352 -0.0623 -0.0956 -0.0881
 4546W        W 8290   9.040   0.092  11.247 -0.2405  0.3638 -0.3208
 4547W        W 8291   7.088   8.067   0.604  0.3180 -0.0403 -0.0837
 4548W        W 8292   4.541   4.221   3.066 -0.0610  0.1260 -0.2382
 4549W        W 8293   9.595   8.384   3.622 -0.2767 -0.1485  0.0683
 4550W        W 8294   2.719   2.719  10.706  0.1777  0.1778 -0.0818
 4551W        W 8295   3.492   1.512   1.186  0.1265  0.2299  0.2191
 4552W        W 8296   9.695   4.972   3.676 -0.3806 -0.1462 -0.1781
 4553W        W 8297   0.174   3.416   3.909  0.0962  0.2098 -0.0952
 4554W        W 8298   8.601   0.259   2.159  0.1292 -0.1421 -0.0039
 4555W        W 8299   4.531   0.803  12.511 -0.0661 -0.0631 -0.0993
 4556W        W 8300   3.821   6.793  11.047  0.0284  0.0357  0.4251
 4557W        W 8301   1.878   2.112   8.365 -0.2783  0.5045  0.0672
 4558W        W 8302   5.505   4.102   1.739  0.3838  0.1059 -0.1263
 4559W        W 8303   4.555   3.557  10.714  0.1057  0.3226 -0.0250
 4560W        W 8304   6.491   4.295   1.464 -0.2936 -0.1766  0.1628
 4561W        W 8305   4.904   7.349   9.827 -0.1466 -0.2899 -0.0290
 4562W        W 8306   8.316   2.507   2.247 -0.0697  0.2581 -0.0072
 4563W        W 8307   9.009   7.828   0.253 -0.4127  0.0751  0.1140
 4564W        W 8308   8.812   4.264  11.474  0.0332  0.0930 -0.2254
 4565W        W 8309   8.317   6.015   2.939 -0.0153  0.2678  0.0335
 4566W        W 8310   5.883   8.816   1.671  0.3171  0.5338 -0.1306
 4567W        W 8311   6.495   5.146   8.129 -0.0218 -0.1175  0.0963
 4568W        W 8312   6.399   0.707   1.501  0.2211  0.2014  0.2547
 4569W        W 8313   4.625   3.047  11.993 -0.0158 -0.0022 -0.0233
 4570W        W 8314   2.231   7.737  10.542 -0.2118  0.0562  0.1064
 4571W        W 8315   2.330   3.599   0.408 -0.0425 -0.0856 -0.1281
 4572W        W 8316   4.187   4.130  10.022 -0.0788  0.0417  0.2197
 4573W        W 8317   1.968   1.185  10.704 -0.0414  0.0792  0.1721
 4574W        W 8318   8.703   4.155  12.458  0.0066  0.3439  0.0946
 4575W        W 8319   3.829   8.036   9.607  0.0886 -0.0748  0.0982
 4576W        W 8320   3.159   4.497   0.470  0.0465 -0.0402  0.0589
 4577W        W 8321   0.498   1.725   0.000  0.2013  0.5441  0.0261
 4578W        W 8322   5.490   3.297   3.327 -0.0332 -0.0966  0.1336
 4579W        W 8323   7.381   8.415  11.727  0.1780 -0.1446  0.1660
 4580W        W 8324   3.888   5.048  12.962  0.3197  0.1543  0.0346
 4581W        W 8325   5.762   5.164   8.839  0.2831  0.2166 -0.2341
 4582W        W 8326   3.079   2.779   9.237 -0.1878  0.2266 -0.2464
 4583W        W 8327   1.241   2.072   1.515  0.0145 -0.1172  0.3963
 4584W        W 8328   4.471   0.991   1.870  0.2728 -0.1569 -0.3469
 4585W        W 8329   6.401   0.283   1.787 -0.0451  0.0319 -0.0663
 4586W        W 8330   0.916   2.272  11.516  0.0315 -0.1471  0.0138
 4587W        W 8331   2.577   4.991  12.118 -0.1574 -0.0487  0.0475
 4588W        W 8332   2.271   4.075   0.573 -0.2800 -0.0598  0.0444
 4589W        W 8333   1.188   4.463   2.567 -0.1124 -0.4253  0.1511
 4590W        W 8334   9.807   6.992   3.471 -0.0565  0.3050 -0.0413
 4591W        W 8335   6.951   2.295   1.612  0.0864 -0.0508 -0.0585
 4592W        W 8336   5.503   5.512   2.399  0.1154 -0.3873 -0.2123
 4593W        W 8337   9.385   5.165  11.880  0.0832 -0.1044  0.1051
 4594W        W 8338   2.645   9.061  12.451 -0.2087  0.0834 -0.6188
 4595W        W 8339   0.178   3.081   1.094 -0.1413  0.1401  0.1895
 4596W        W 8340   2.960   9.456   3.149  0.2295  0.1495 -0.1357
 4597W        W 8341   2.610   5.066   5.040  0.0053  0.0397 -0.0527
 4598W        W 8342   0.325   9.411   4.233 -0.2071 -0.1023 -0.0487
 4599W        W 8343   0.035   7.706   8.965  0.3082 -0.2367  0.0656
 4600W        W 8344   2.656   5.374  11.687  0.0775  0.1565  0.2760
 4601W        W 8345   9.766   7.799   1.773  0.0587  0.2149  0.0058
 4602W        W 8346   8.283   9.694  11.385  0.1166  0.0916  0.1694
 4603W        W 8347   5.557   6.989  10.460 -0.0164  0.5280  0.2106
 4604W        W 8348   5.427   3.291   0.573 -0.0891 -0.4512  0.0630
 4605W        W 8349   6.470   7.085   1.061  0.1834 -0.0528 -0.1521
 4606W        W 8350   3.093   9.004   1.801  0.0293 -0.1601 -0.1665
 4607W        W 8351   1.341   3.101   8.375 -0.0847 -0.2597 -0.0355
 4608W        W 8352   5.428   1.760   0.230  0.1162 -0.0162  0.0851
 4609W        W 8353   1.097   1.165   0.463 -0.1353  0.3536  0.2679
 4610W        W 8354   2.975   3.477  12.500  0.2338  0.1583 -0.1041
 4611W        W 8355   1.263   4.050   9.242 -0.0963 -0.0780 -0.0888
 4612W        W 8356   2.130   4.989   0.745 -0.1192  0.0159  0.0351
 4613W        W 8357   7.166   1.017   1.109  0.3764  0.0805 -0.0348
 4614W        W 8358   8.687   4.973  10.999  0.2425  0.0768 -0.2415
 4615W        W 8359   3.628   4.983  11.994  0.0319 -0.0831  0.0990
 4616W        W 8360   0.664   1.528   3.653 -0.0817 -0.0019  0.2512
 4617W        W 8361   8.338   7.547   1.384 -0.2656  0.0924 -0.3293
 4618W        W 8362   6.367   6.141  11.218  0.1453  0.0490 -0.0521
 4619W        W 8363   0.386   3.874   0.949  0.0018 -0.1769 -0.1715
 4620W        W 8364   4.077   1.733  10.716 -0.2866  0.1117  0.2175
 4621W        W 8365   8.359   9.625  10.018  0.1026  0.2645  0.1401
 4622W        W 8366   0.160   1.988   2.435  0.0553  0.0949  0.1563
 4623W        W 8367   2.108   7.154   3.280 -0.1400 -0.1840 -0.0860
 4624W        W 8368   5.560   7.222   2.214  0.0248 -0.1624 -0.1195
 4625W        W 8369   2.226   4.596   2.051 -0.2745  0.0679  0.1219
 4626W        W 8370   3.548   6.626   2.963  0.0059  0.1209  0.3535
 4627W        W 8371   5.116   4.052   8.720  0.0371 -0.0373 -0.4245
 4628W        W 8372   8.115   8.403   0.321 -0.1044  0.0537  0.2393
 4629W        W 8373   4.755   7.275   3.923 -0.0178  0.0663 -0.2024
 4630W        W 8374   2.313   4.176  10.962 -0.1167 -0.0396 -0.0710
 4631W        W 8375   5.999   1.166   5.468 -0.2203  0.1242 -0.3274
 4632W        W 8376   5.310   4.193  10.469  0.1827 -0.0887  0.2321
 4633W        W 8377   7.683   0.730   1.300  0.4614  0.2542 -0.0832
 4634W        W 8378   1.005   0.143   0.489  0.0185  0.1881 -0.1943
 4635W        W 8379   2.761   6.681  12.842 -0.2407 -0.1662  0.3487
 4636W        W 8380   0.620   5.229  12.599 -0.2243  0.0761  0.1310
 4637W        W 8381   9.894   1.649   1.151  0.3156  0.2190  0.1634
 4638W        W 8382   4.620   6.038  11.534  0.0101 -0.1659 -0.1038
 4639W        W 8383   7.019   6.076  10.529  0.0459  0.4321  0.0276
 4640W        W 8384   6.676   2.236   9.435 -0.1145 -0.2109  0.0577
 4641W        W 8385   3.839   0.949  10.060  0.3002 -0.2329 -0.0732
 4642W        W 8386   5.472   2.670   1.729  0.2033  0.2803 -0.1567
 4643W        W 8387   9.306   0.047  10.834  0.0262 -0.0346 -0.2362
 4644W        W 8388   4.613   4.856   1.799 -0.1301 -0.0149  0.2303
 4645W        W 8389   7.053   2.889   1.056 -0.0713  0.0519 -0.0396
 4646W        W 8390   9.319   1.925  11.633 -0.2950  0.0752  0.0445
 4647W        W 8391   9.638   9.466  11.633 -0.1790  0.2289 -0.0658
 4648W        W 8392   2.005   3.073   9.293  0.1697 -0.1466 -0.3011
 4649W        W 8393   7.039   0.262  11.298 -0.2184  0.1595  0.1346
 4650W        W 8394   6.559   1.915   3.123  0.2486  0.0870  0.2311
 4651W        W 8395   2.427   2.758   9.508 -0.0311 -0.1629 -0.3017
 4652W        W 8396   7.599   1.307   4.323 -0.1892 -0.1019 -0.1834
 4653W        W 8397   5.087   5.029   8.173 -0.4086  0.3733  0.0562
 4654W        W 8398   6.379   3.782  10.436 -0.1156  0.1700 -0.4727
 4655W        W 8399   5.493   4.205   3.345  0.0878 -0.1499 -0.0668
 4656W        W 8400   8.672   0.376   2.654 -0.0622  0.0722  0.1708
 4657W        W 8401   5.573   5.867  11.183 -0.2887 -0.0541  0.1929
 4658W        W 8402   2.388   7.945   3.369 -0.1293 -0.1473  0.1225
 4659W        W 8403   1.667   9.409   9.790  0.1015  0.3480  0.1913
 4660W        W 8404   2.211   3.112   0.400 -0.1229  0.0886  0.2713
 4661W        W 8405   5.071   3.239  12.016 -0.2344 -0.1794 -0.4059
 4662W        W 8406   7.960   1.131  12.183 -0.0255  0.4231  0.2943
 4663W        W 8407   1.074   1.583   2.182 -0.3237  0.2559  0.1048
 4664W        W 8408   5.411   7.778   2.136  0.0635  0.0057 -0.1260
 4665W        W 8409   2.782   6.751   2.492  0.1801  0.2607 -0.1321
 4666W        W 8410   1.930   8.134  12.565 -0.3068  0.0884 -0.1994
 4667W        W 8411   2.569   2.195  11.908  0.2726  0.0116  0.1790
 4668W        W 8412   4.625   0.965   9.392 -0.3567  0.0772 -0.1402
 4669W        W 8413   7.273   2.109   1.974 -0.1200 -0.0389 -0.1701
 4670W        W 8414   8.414   9.260   4.100 -0.1803  0.0327  0.1279
 4671W        W 8415   8.855   2.139   2.366 -0.1090  0.1069 -0.0673
 4672W        W 8416   5.512   1.314   9.579  0.1732 -0.1397  0.0492
 4673W        W 8417   8.664   4.268   8.831 -0.0248 -0.2254  0.1124
 4674W        W 8418   0.615   9.826   4.100  0.1716 -0.1661 -0.0985
 4675W        W 8419   3.877   5.772   9.485 -0.3077 -0.1695  0.1255
 4676W        W 8420   1.691   9.193   1.104 -0.2404 -0.1372  0.2400
 4677W        W 8421   0.171   4.991  10.756  0.1190 -0.0226  0.2121
 4678W        W 8422   6.221   5.320   9.571  0.0016  0.1908 -0.0581
 4679W        W 8423   2.576   8.575   4.239  0.2249 -0.0477 -0.1863
 4680W        W 8424   7.002   7.415  11.895  0.0108 -0.0625 -0.2662
 4681W        W 8425   0.831   5.705   3.250  0.0279 -0.2555 -0.1642
 4682W        W 8426   1.501   6.101  11.081  0.0502  0.1304 -0.5558
 4683W        W 8427   9.586   3.877  10.550  0.0278  0.2305  0.0976
 4684W        W 8428   3.053   9.285   1.328  0.0069  0.2411 -0.3330
 4685W        W 8429   2.046   8.733   1.724  0.2077 -0.2070  0.2427
 4686W        W 8430   1.997   7.124   4.588  0.2282 -0.1126  0.0448
 4687W        W 8431   0.343   1.558   1.500  0.3829 -0.0161 -0.4220
 4688W        W 8432   3.597   9.456  10.544 -0.2919  0.1230 -0.0976
 4689W        W 8433   7.952   4.020   3.041 -0.2825  0.1744 -0.1218
 4690W        W 8434   8.063   7.334   3.523  0.0860 -0.3294 -0.1985
 4691W        W 8435   0.719   5.634   1.127  0.3371 -0.2477  0.4092
 4692W        W 8436   5.140   5.859   3.397 -0.2223 -0.2801 -0.2452
 4693W        W 8437   6.540   4.129   0.024  0.1428  0.0657 -0.0381
 4694W        W 8438   6.806   2.725  10.546 -0.1217 -0.2137  0.0923
 4695W        W 8439   9.443   5.759   3.977  0.3791  0.5678  0.1297
 4696W        W 8440   5.890   1.599  12.979  0.0500  0.1677 -0.0536
 4697W        W 8441   1.799   7.657   8.486 -0.1909  0.3995  0.0234
 4698W        W 8442   1.993   4.327   4.621  0.0771 -0.0473  0.1174
 4699W        W 8443   3.217   2.040   9.505  0.1607 -0.4341  0.1456
 4700W        W 8444   4.709   9.244  12.644  0.0358 -0.1350  0.1322
 4701W        W 8445   9.784   2.619   9.943  0.1579 -0.2112  0.2112
 4702W        W 8446   7.447   6.367   9.078 -0.2122 -0.2115 -0.3189
 4703W        W 8447   3.165   6.133  10.402 -0.0152  0.1337 -0.0288
 4704W        W 8448   7.013   0.692  11.752 -0.1208  0.1654 -0.0282
 4705W        W 8449   6.551   5.095   0.751  0.0978 -0.0289 -0.0365
 4706W        W 8450   4.921   0.009   3.361  0.0337 -0.2311 -0.2268
 4707W        W 8451   1.351   0.456   0.618 -0.1079  0.0558  0.0095
 4708W        W 8452   0.503   4.302  11.067 -0.1898 -0.3164  0.2081
 4709W        W 8453   7.380   4.101  11.225 -0.1087 -0.3197 -0.2010
 4710W        W 8454   3.436   9.784   8.613 -0.0502  0.1779  0.0203
 4711W        W 8455   6.117   9.134  12.891  0.2490 -0.1937  0.1572
 4712W        W 8456   2.572   4.649  10.161 -0.2741 -0.1683  0.2413
 4713W        W 8457   1.193   6.807  11.124 -0.1393 -0.0757  0.0362
 4714W        W 8458   6.595   8.045   3.128 -0.2352  0.3142  0.2159
 4715W        W 8459   0.591   0.138   1.818 -0.1551 -0.2718 -0.0580
 4716W        W 8460   5.328   9.023   2.632  0.1519 -0.2414  0.4945
 4717W        W 8461   4.790   2.098  12.375  0.2576 -0.2362 -0.0318
 4718W        W 8462   1.075   0.710  12.075 -0.1646 -0.1798 -0.2050
 4719W        W 8463   2.345   8.361   0.599  0.3544  0.0415 -0.1630
 4720W        W 8464   0.209   4.536  10.033 -0.1462 -0.2262 -0.0431
 4721W        W 8465   4.868   5.629   0.711  0.2148 -0.0658  0.0129
 4722W        W 8466   4.389   4.363   0.233  0.0245 -0.0888  0.0291
 4723W        W 8467   5.392   4.247   0.599 -0.2386 -0.1555 -0.1620
 4724W        W 8468   5.268   2.713   9.925 -0.0246  0.2013 -0.2272
 4725W        W 8469   6.047   4.028   9.510 -0.1260 -0.3486  0.4232
 4726W        W 8470   1.094   2.949   8.908 -0.0160  0.0925 -0.0531
 4727W        W 8471   1.405   4.752   8.770  0.0846 -0.4269 -0.0788
 4728W        W 8472   9.872   7.559   4.342  0.1788 -0.1195  0.0485
 4729W        W 8473   5.812   0.099  11.555 -0.0016 -0.2411  0.1312
 4730W        W 8474   3.205   4.923   2.785  0.1287  0.0329  0.2846
 4731W        W 8475   1.824   2.595   2.118  0.0071 -0.2082 -0.0918
 4732W        W 8476   8.702   1.147   0.979 -0.0573 -0.0099  0.0238
 4733W        W 8477   7.360   5.921  10.207  0.0002 -0.0350 -0.0282
 4734W        W 8478   3.264   8.912  12.458 -0.1786  0.3300 -0.0303
 4735W        W 8479   8.972   9.035  11.736 -0.0256  0.0643  0.1019
 4736W        W 8480   3.591   8.161   3.699  0.2681 -0.1889  0.1316
 4737W        W 8481   4.798   6.639   2.367 -0.0628  0.1022  0.2711
 4738W        W 8482   3.008   9.799   2.740  0.3990  0.0718 -0.0925
 4739W        W 8483   5.846   4.516   3.573 -0.0340 -0.0734  0.1466
 4740W        W 8484   2.083   8.624  11.731 -0.2485  0.2650 -0.2084
 4741W        W 8485   3.481   9.860  12.016 -0.1276 -0.0714  0.1928
 4742W        W 8486   6.221   5.786   0.587  0.0345 -0.0888 -0.4258
 4743W        W 8487   8.001   1.148   1.546 -0.1192  0.0363  0.3666
 4744W        W 8488   8.696   7.751   9.804  0.0358 -0.1944  0.0327
 4745W        W 8489   2.177   5.311  11.873 -0.1028  0.0854 -0.3273
 4746W        W 8490   1.065   2.069   8.761  0.0651  0.0136  0.0647
 4747W        W 8491   4.312   6.234   8.346 -0.0917  0.0099  0.0059
 4748W        W 8492   3.234   2.845   0.996 -0.2265 -0.0961 -0.2775
 4749W        W 8493   4.055   2.746   3.498 -0.1003 -0.0319  0.0652
 4750W        W 8494   1.442   6.326   9.337  0.1767  0.0721 -0.0266
 4751W        W 8495   3.548   4.847  10.950  0.1492  0.0056 -0.0462
 4752W        W 8496   0.877   9.286   1.121 -0.0403 -0.0549 -0.1106
 4753W        W 8497   6.693   3.298  11.783 -0.3333  0.3342 -0.2230
 4754W        W 8498   2.804   2.575   3.250 -0.2055 -0.0573  0.2195
 4755W        W 8499   5.709   9.504   5.379  0.1502 -0.3307 -0.2222
 4756W        W 8500   0.341   8.332  12.525 -0.0297 -0.2257 -0.2212
 4757W        W 8501   1.567   4.049   4.859  0.1918 -0.2946 -0.4783
 4758W        W 8502   1.176   1.115  12.925 -0.1513 -0.1181  0.2547
 4759W        W 8503   4.922   8.720  10.952  0.3163 -0.1457 -0.0635
 4760W        W 8504   1.796   9.002  11.937 -0.0627  0.0990 -0.0518
 4761W        W 8505   8.985   8.377   3.849  0.1182 -0.3171 -0.0626
 4762W        W 8506   4.011   7.196   3.385  0.1658  0.2335 -0.1615
 4763W        W 8507   9.881   1.960  12.624  0.1937 -0.2570 -0.0908
 4764W        W 8508   2.515   8.444   2.698  0.0174 -0.0845 -0.1321
 4765W        W 8509   4.342   0.901  10.293  0.2237  0.0140  0.2034
 4766W        W 8510   3.306   4.546   8.557  0.0284 -0.0618 -0.1276
 4767W        W 8511   3.242   6.008   3.550 -0.2934 -0.0993  0.0890
 4768W        W 8512   4.680   9.348  12.076 -0.0852 -0.1118 -0.0867
 4769W        W 8513   4.397   1.597   0.153  0.3925 -0.1207 -0.3385
 4770W        W 8514   3.945   3.061   9.935 -0.1662  0.3913 -0.2617
 4771W        W 8515   5.720   4.682   0.253  0.2127  0.0414  0.0893
 4772W        W 8516   0.840   5.256  10.243  0.1857 -0.3049  0.0955
 4773W        W 8517   7.249   5.432  12.591  0.0315  0.1400  0.0952
 4774W        W 8518   6.305   9.654   1.773 -0.0514  0.1339  0.1427
 4775W        W 8519   7.996   9.136  12.893 -0.0654 -0.1571 -0.2805
 4776W        W 8520   7.224   2.743  10.160 -0.1193 -0.0720  0.2106
 4777W        W 8521   8.441   2.466   3.196 -0.1804 -0.0251 -0.1301
 4778W        W 8522   6.026   9.097   0.978 -0.2338  0.0025 -0.2313
 4779W        W 8523   6.880   2.989   0.549 -0.1826  0.2092 -0.0759
 4780W        W 8524   6.063   1.067  11.641 -0.0447 -0.1425  0.0124
 4781W        W 8525   5.738   5.110   2.789 -0.0117 -0.0912 -0.2331
 4782W        W 8526   8.465   8.784   2.676  0.0204 -0.0503  0.4628
 4783W        W 8527   7.856   1.477   3.195  0.0660 -0.0965 -0.1347
 4784W        W 8528   1.877   1.354   0.487 -0.0034 -0.0929 -0.3689
 4785W        W 8529   3.946   1.114   4.753  0.4203 -0.0472  0.2193
 4786W        W 8530   0.684   3.009   3.423  0.1399  0.3531  0.1470
 4787W        W 8531   4.296   9.779  11.258 -0.2807  0.0523 -0.1563
 4788W        W 8532   2.104   0.936  12.424  0.1056 -0.0423  0.1790
 4789W        W 8533   1.195   9.467   9.563 -0.3268  0.0484  0.3402
 4790W        W 8534   9.372   4.296   3.793 -0.0430  0.2809  0.0713
 4791W        W 8535   4.439   5.923   0.267  0.0198  0.3054 -0.0289
 4792W        W 8536   1.325   0.788   9.118  0.2243  0.0350  0.1073
 4793W        W 8537   4.029   1.914   0.953 -0.0070  0.0604  0.4425
 4794W        W 8538   5.983   7.020   1.909  0.2209 -0.1030  0.3088
 4795W        W 8539   3.581   8.139   4.563 -0.0061  0.0542  0.0908
 4796W        W 8540   2.728   3.264   0.377  0.1247 -0.0267  0.1227
 4797W        W 8541   1.092   0.231   4.170  0.2447 -0.0251 -0.1031
 4798W        W 8542   5.460   5.755  10.194  0.1124 -0.0075 -0.0849
 4799W        W 8543   3.713   4.039  11.570 -0.0934 -0.0070 -0.0433
 4800W        W 8544   7.338   8.565   2.097  0.0050  0.0682  0.2406
 4801W        W 8545   0.550   0.112  12.590  0.2059  0.0633 -0.2710
 4802W        W 8546   5.851   3.790   4.190  0.2152  0.0307  0.1286
 4803W        W 8547   1.171   3.709   5.196  0.1116 -0.2073  0.2723
 4804W        W 8548   3.318   8.227   2.802  0.1261 -0.2601 -0.1906
 4805W        W 8549   7.026   6.920   2.465 -0.0362  0.0499  0.1119
 4806W        W 8550   4.738   8.546   1.487 -0.1440 -0.1949 -0.1278
 4807W        W 8551   6.487   1.427  12.786 -0.3289 -0.1081 -0.1221
 4808W        W 8552   1.968   0.042   2.974 -0.0708 -0.2212 -0.3641
 4809W        W 8553   8.220   9.348  11.011  0.1672  0.3269  0.3305
 4810W        W 8554   0.496   4.181   1.924  0.1015 -0.0271  0.1617
 4811W        W 8555   0.107   3.562  10.571 -0.0056 -0.1895  0.2116
 4812W        W 8556   1.051   7.435   1.139 -0.0510 -0.3397  0.3749
 4813W        W 8557   8.248   0.101  12.814 -0.0699  0.2088 -0.2649
 4814W        W 8558   9.443   0.572  11.366  0.1998 -0.2979  0.1634
 4815W        W 8559   4.557   3.448  12.347 -0.1202 -0.0046  0.2084
 4816W        W 8560   0.435   3.278   4.282  0.0979  0.2704  0.0069
 4817W        W 8561   8.435   2.730   1.787  0.0837 -0.1273 -0.3964
 4818W        W 8562   2.207   3.150  12.422 -0.0127 -0.2378  0.1656
 4819W        W 8563   7.049   7.191   0.365 -0.3392 -0.0773  0.1912
 4820W        W 8564   5.129   4.083   2.273  0.0091 -0.1381  0.0416
 4821W        W 8565   6.741   3.463  12.385  0.0367 -0.1248  0.0736
 4822W        W 8566   0.731   9.016   0.215  0.0105  0.0642  0.2759
 4823W        W 8567   5.700   5.077   3.711  0.3197 -0.1258  0.0743
 4824W        W 8568   3.099   6.967  11.426  0.0771  0.1246 -0.3433
 4825W        W 8569   4.239   5.227   1.092 -0.0931  0.3107  0.2692
 4826W        W 8570   0.854   3.008   2.095  0.3752 -0.2321 -0.3104
 4827W        W 8571   0.692   0.443  12.209 -0.1595  0.0131 -0.1549
 4828W        W 8572   8.437   6.301   0.935  0.0499 -0.0555 -0.0381
 4829W        W 8573   7.225   0.328   9.952  0.0519  0.0974 -0.0499
 4830W        W 8574   1.693   5.655   3.043  0.0953  0.1987 -0.2081
 4831W        W 8575   7.820   1.160   2.054  0.2863  0.1809  0.2325
 4832W        W 8576   8.771   7.505   1.605 -0.0847 -0.0834 -0.0999
 4833W        W 8577   9.736   2.313   3.354  0.2846 -0.2734  0.2660
 4834W        W 8578   8.962   8.843   0.033  0.2004  0.2435  0.0379
 4835W        W 8579   5.835   2.805  11.922  0.1629 -0.0286 -0.3809
 4836W        W 8580   7.391   0.169   0.649 -0.1852  0.0094 -0.3599
 4837W        W 8581   2.634   4.408   0.350 -0.0772 -0.0051  0.0834
 4838W        W 8582   5.121   7.832   9.816  0.3377  0.1240 -0.0932
 4839W        W 8583   9.456   9.828   8.764  0.1337 -0.2234  0.1653
 4840W        W 8584   4.654   5.333   9.219 -0.0098 -0.3179  0.0196
 4841W        W 8585   6.436   3.541   1.558  0.0794 -0.1064  0.2942
 4842W        W 8586   8.845   7.461   4.365  0.1960 -0.1113  0.3858
 4843W        W 8587   0.046   9.730  12.571 -0.2677  0.0223  0.2356
 4844W        W 8588   4.403   8.865   1.812  0.1004 -0.0063  0.6506
 4845W        W 8589   9.688   4.928   3.002  0.2373  0.3107 -0.5572
 4846W        W 8590   6.404   9.804  10.304 -0.1334 -0.2575  0.0268
 4847W        W 8591   8.003   4.810  11.516 -0.0632 -0.3768 -0.1805
 4848W        W 8592   2.663   3.180  11.424  0.0787  0.0552  0.1090
 4849W        W 8593   1.570   1.494  10.971 -0.0364 -0.4128 -0.1276
 4850W        W 8594   4.128   0.302   0.186 -0.1879  0.0580  0.1120
 4851W        W 8595   6.779   8.734   1.691 -0.2458 -0.1006  0.4320
 4852W        W 8596   9.419   8.447   8.983  0.1318 -0.1792 -0.1305
 4853W        W 8597   4.934   7.393   6.184  0.2040  0.1361 -0.1710
 4854W        W 8598   7.374   1.282   9.655  0.1218  0.2395  0.0157
 4855W        W 8599   4.933   8.182  10.555 -0.1657 -0.2321 -0.1339
 4856W        W 8600   1.166   2.736   2.821  0.2979 -0.4159 -0.0263
 4857W        W 8601   4.829   3.342  11.550 -0.1188  0.2111 -0.1199
 4858W        W 8602   7.243   5.042   3.778  0.1172 -0.2497 -0.0590
 4859W        W 8603   0.680   5.656   9.254 -0.1126  0.0976  0.0741
 4860W        W 8604   2.014   7.510   2.411 -0.2288 -0.2510 -0.3669
 4861W        W 8605   6.377   4.792   0.291  0.0631  0.0611 -0.1127
 4862W        W 8606   1.909   0.762   1.198 -0.1652 -0.0751  0.3258
 4863W        W 8607   5.919   2.016   2.240 -0.1719 -0.0355 -0.2766
 4864W        W 8608   1.256   6.015   5.266  0.2136 -0.0052 -0.0224
 4865W        W 8609   9.209   6.903   3.209  0.3549  0.5833  0.0492
 4866W        W 8610   7.154   5.557   3.825  0.1563 -0.1290  0.3465
 4867W        W 8611   6.477   5.929   2.242 -0.0795 -0.0820  0.6157
 4868W        W 8612   0.981   7.680   9.728  0.2717  0.1782  0.1248
 4869W        W 8613   9.829   6.331   8.543 -0.0147  0.1431  0.2111
 4870W        W 8614   7.544   7.513   2.078  0.2945  0.2288 -0.0901
 4871W        W 8615   6.273   2.358   0.579  0.0125 -0.1320 -0.1026
 4872W        W 8616   4.928   4.286  11.269  0.4219  0.2056 -0.2666
 4873W        W 8617   2.025   5.116   2.057 -0.0618  0.0131 -0.1390
 4874W        W 8618   6.407   3.118  12.687 -0.2137 -0.1318  0.2600
 4875W        W 8619   6.374   6.603  12.602 -0.1299 -0.0775 -0.0038
 4876W        W 8620   9.439   0.192   1.233  0.0158  0.1095 -0.0246
 4877W        W 8621   2.476   3.714   2.264 -0.0598 -0.3927  0.1542
 4878W        W 8622   0.577   6.675   0.969  0.1013  0.1709 -0.0581
 4879W        W 8623   0.099   6.283   4.180  0.1106 -0.1835 -0.1507
 4880W        W 8624   0.823   3.721   2.002  0.1161 -0.0364 -0.0122
 4881W        W 8625   7.227   8.288   9.450  0.0525 -0.2865  0.1319
 4882W        W 8626   9.368   5.697   4.464  0.0822 -0.1311  0.1153
 4883W        W 8627   2.658   8.008   0.924  0.2004 -0.4187 -0.2647
 4884W        W 8628   9.224   2.107   3.121  0.2618  0.0296 -0.1083
 4885W        W 8629   9.463   7.811  10.382 -0.1511  0.0947  0.1943
 4886W        W 8630   6.824   8.913   0.567 -0.1940  0.2946 -0.1390
 4887W        W 8631   2.057   6.208  12.304 -0.2099  0.0897  0.1959
 4888W        W 8632   3.800   9.611  12.722  0.0363  0.1038  0.1139
 4889W        W 8633   9.074   0.554   4.027 -0.0051  0.1509 -0.1669
 4890W        W 8634   3.918   2.458   0.788  0.0268  0.2845  0.3688
 4891W        W 8635   2.269   2.137   2.512 -0.1864  0.0404 -0.1908
 4892W        W 8636   8.081   5.836   3.894  0.0352 -0.0977 -0.0983
 4893W        W 8637   7.727   8.504   1.722  0.4017 -0.2099 -0.3036
 4894W        W 8638   7.969   2.789   2.609  0.2305  0.0765  0.1346
 4895W        W 8639   2.665   3.872   1.309  0.0938  0.2708 -0.1210
 4896W        W 8640   9.448   1.849   5.005 -0.1131  0.0202  0.0170
 4897W        W 8641   0.443   8.859  12.623 -0.0390 -0.0333  0.0489
 4898W        W 8642   7.051   6.895   3.286  0.2638  0.0905  0.1669
 4899W        W 8643   4.619   8.788   3.845  0.0256  0.0196 -0.3278
 4900W        W 8644   8.111   8.840   4.122  0.2225  0.1246 -0.1315
 4901W        W 8645   4.216   4.530   1.275 -0.2360  0.1497  0.2044
 4902W        W 8646   4.233   6.765  12.735  0.1690 -0.0547  0.0558
 4903W        W 8647   9.082   7.439   9.153 -0.4352  0.0395  0.0838
 4904W        W 8648   6.303   0.664  11.694  0.1974  0.1619 -0.0534
 4905W        W 8649   0.326   9.480  10.389  0.1318 -0.2238 -0.2089
 4906W        W 8650   5.281   2.001  12.685  0.0095  0.0085 -0.1104
 4907W        W 8651   8.293   7.164   1.719  0.2220  0.1661 -0.3031
 4908W        W 8652   7.375   4.476   3.717  0.0460  0.1803  0.0458
 4909W        W 8653   4.418   0.191   1.188  0.1012 -0.4127 -0.0306
 4910W        W 8654   1.270   8.001   2.733  0.3354  0.0342  0.4051
 4911W        W 8655   9.401   1.823  12.697  0.1788  0.0344 -0.1320
 4912W        W 8656   6.241   3.321   2.428  0.0134  0.1850 -0.1599
 4913W        W 8657   7.639   6.654  11.377  0.0105  0.2042  0.0998
 4914W        W 8658   2.004   3.665   9.526  0.1377 -0.1271  0.2279
 4915W        W 8659   3.489   1.989   0.628  0.4130 -0.1312  0.1686
 4916W        W 8660   2.303   8.711   3.527  0.4153 -0.2736  0.2658
 4917W        W 8661   3.419   6.593  10.243  0.3638 -0.1841  0.3999
 4918W        W 8662   4.279   6.298   2.541  0.1375 -0.1129 -0.3928
 4919W        W 8663   4.681   7.039  12.628  0.4271  0.2330 -0.2489
 4920W        W 8664   1.625   9.450  11.727  0.1310 -0.2706 -0.1952
 4921W        W 8665   2.738   9.122   8.914 -0.1203 -0.1970  0.1627
 4922W        W 8666   4.201   0.958   9.801  0.2828  0.2306  0.1887
 4923W        W 8667   5.677   5.359   9.978  0.1191 -0.1534  0.2058
 4924W        W 8668   7.444   9.158  11.451  0.0813 -0.0415 -0.4554
 4925W        W 8669   9.289   2.479   1.322 -0.1032 -0.0803  0.1360
 4926W        W 8670   8.370   3.672  11.992 -0.3104 -0.0327  0.0533
 4927W        W 8671   5.798   0.769   0.154 -0.0902  0.0362  0.0964
 4928W        W 8672   7.640   0.118  12.757  0.3323 -0.0879 -0.0684
 4929W        W 8673   8.787   1.257   3.129  0.0137  0.0603  0.0272
 4930W        W 8674   3.465   0.928  10.610 -0.1832 -0.2185  0.1148
 4931W        W 8675   5.223   4.675  12.684  0.1127  0.2008 -0.3213
 4932W        W 8676   0.448   7.638   3.119 -0.0977 -0.0041  0.0178
 4933W        W 8677   3.878   7.460   2.134  0.1550 -0.1447  0.2233
 4934W        W 8678   3.842   7.558  12.342  0.0391 -0.0206  0.0853
 4935W        W 8679   8.858   7.152   2.902 -0.0595  0.1964 -0.0748
 4936W        W 8680   2.841   7.626   4.542 -0.2025 -0.0321 -0.1646
 4937W        W 8681   3.036   9.676   0.994  0.0042 -0.2920  0.1833
 4938W        W 8682   5.063   6.583   9.787  0.0481 -0.0788  0.1982
 4939W        W 8683   1.398   9.522  10.659 -0.0487 -0.3542 -0.2957
 4940W        W 8684   7.800   7.357   1.009  0.0621  0.0706  0.0654
 4941W        W 8685   9.735   3.154  12.902 -0.5340 -0.0139  0.1088
 4942W        W 8686   2.219   1.200   2.500  0.0987 -0.1132  0.2043
 4943W        W 8687   9.673   3.918  11.395 -0.3019  0.3344  0.1581
 4944W        W 8688   3.588   4.883   1.972  0.1331  0.1972 -0.0187
 4945W        W 8689   7.807   8.321   3.450 -0.0647 -0.0856  0.2548
 4946W        W 8690   8.879   5.286   0.896  0.0794  0.2899 -0.0091
 4947W        W 8691   9.233   1.415   4.366  0.3471 -0.0316 -0.2884
 4948W        W 8692   3.026   6.812   2.993  0.1543  0.0018  0.0223
 4949W        W 8693   5.312   7.705   9.034 -0.0590 -0.0899 -0.0561
 4950W        W 8694   8.398   2.326  11.239 -0.2036  0.0666 -0.3191
 4951W        W 8695   7.255   5.510   3.174  0.2931 -0.0773  0.0224
 4952W        W 8696   0.023   7.971   3.127  0.0659  0.0051  0.2494
 4953W        W 8697   4.179   0.042   1.641 -0.1664  0.2895 -0.2800
 4954W        W 8698   3.914   6.135   2.130  0.0448  0.1222  0.2334
 4955W        W 8699   6.505   7.743   1.393  0.1980 -0.0592 -0.0796
 4956W        W 8700   3.707   3.575  10.406 -0.0531  0.2269 -0.0645
 4957W        W 8701   9.429   9.876  12.530 -0.1337 -0.2748  0.0942
 4958W        W 8702   6.406   0.954   2.000  0.1241 -0.1154  0.0191
 4959W        W 8703   4.019   3.232  12.638  0.0724 -0.0160  0.1050
 4960W        W 8704   5.512   8.975  12.366 -0.1894  0.0602 -0.0247
 4961W        W 8705   0.282   2.159  10.909  0.3024 -0.1446  0.0931
 4962W        W 8706   9.890   8.647  12.250 -0.1359  0.0618 -0.0675
 4963W        W 8707   2.149   2.538  11.813  0.1359 -0.2321  0.1047
 4964W        W 8708   7.205   1.425   2.476 -0.0048 -0.1320 -0.0981
 4965W        W 8709   5.378   0.923   0.687 -0.1696 -0.0397  0.2922
 4966W        W 8710   8.791   7.643   2.836  0.5355 -0.2631 -0.1033
 4967W        W 8711   2.802   2.745   1.324  0.0679  0.2538 -0.3434
 4968W        W 8712   7.425   9.559  11.747  0.0697 -0.0601 -0.0317
 4969W        W 8713   9.476   0.474  12.729 -0.0934  0.4546  0.0871
 4970W        W 8714   9.510   3.502   0.539  0.0593 -0.1646 -0.0836
 4971W        W 8715   0.160   5.868  10.865  0.2907 -0.2992 -0.2796
 4972W        W 8716   8.881   3.308   2.655 -0.0323 -0.0550  0.0507
 4973W        W 8717   1.248   2.763  12.358 -0.2822  0.0673  0.0137
 4974W        W 8718   0.176   8.293   3.789  0.2467  0.1372 -0.1144
 4975W        W 8719   7.549   1.890  12.307 -0.2270 -0.0807  0.0696
 4976W        W 8720   2.416   3.755   4.236  0.1929 -0.1380  0.0055
 4977W        W 8721   6.028   7.234  10.418 -0.2942 -0.0032  0.0972
 4978W        W 8722   9.712   5.145  11.031 -0.2927 -0.0860 -0.1296
 4979W        W 8723   5.279   5.497   9.101  0.0356  0.3376 -0.0102
 4980W        W 8724   5.929   8.345  12.366  0.0390 -0.1377 -0.0014
 4981W        W 8725   6.533   8.745  10.000 -0.1135 -0.0215 -0.2259
 4982W        W 8726   8.802   6.644   1.181  0.0156  0.7203  0.0143
 4983W        W 8727   6.879   6.658  12.597 -0.2820  0.1735 -0.2991
 4984W        W 8728   3.117   0.926   0.429 -0.3209 -0.0534  0.1372
 4985W        W 8729   0.763   8.978  11.177 -0.1609 -0.0271  0.0845
 4986W        W 8730   5.446   5.920  11.938 -0.1533 -0.0424 -0.1402
 4987W        W 8731   9.520   8.235   2.454  0.1543 -0.1126  0.2026
 4988W        W 8732   4.310   1.707   1.743  0.3309  0.2253 -0.0651
 4989W        W 8733   0.926   8.839  11.897 -0.0602  0.0487  0.3428
 4990W        W 8734   6.248   4.520   9.336  0.0233 -0.0437  0.2464
 4991W        W 8735   8.726   8.752   0.467 -0.3366  0.0753 -0.5358
 4992W        W 8736   4.934   8.445   2.007  0.0641 -0.2834 -0.1532
 4993W        W 8737   9.060   6.508  10.153 -0.2638 -0.1516  0.0689
 4994W        W 8738   0.098   0.895   4.666  0.0612 -0.0093 -0.1524
 4995W        W 8739   0.228   2.942   1.589 -0.1680  0.1955  0.3516
 4996W        W 8740   9.408   4.075   0.380 -0.3919  0.2931 -0.4310
 4997W        W 8741   5.885   1.864   1.116 -0.1289  0.0120  0.2100
 4998W        W 8742   0.448   0.656   3.710 -0.0358 -0.2451 -0.2520
 4999W        W 8743   1.145   0.907   8.357  0.1268  0.0448 -0.2061
 5000W        W 8744   9.100   4.731  11.653 -0.3259 -0.0880  0.1964
 5001W        W 8745   7.935   6.597  12.196  0.0427  0.1385  0.1213
 5002W        W 8746   2.789   7.629   2.757 -0.0228 -0.3756  0.0070
 5003W        W 8747   9.855   6.820  11.803  0.0311 -0.0349 -0.1044
 5004W        W 8748   1.183   4.941   9.636 -0.1989 -0.0689  0.4965
 5005W        W 8749   0.057   3.652   4.354  0.1349 -0.2022  0.1956
 5006W        W 8750   9.067   3.830   1.732 -0.0736  0.1588 -0.3680
 5007W        W 8751   1.193   7.590   3.453  0.2028 -0.0951 -0.0894
 5008W        W 8752   9.681   4.631  11.152 -0.1033 -0.2010 -0.0689
 5009W        W 8753   4.284   9.632  11.783 -0.1046 -0.0305 -0.1300
 5010W        W 8754   1.288   6.713   2.332 -0.0529 -0.4419  0.1711
 5011W        W 8755   3.545   3.414  12.752 -0.0260  0.2434 -0.0139
 5012W        W 8756   4.890   2.286   0.685 -0.0989 -0.0158 -0.0322
 5013W        W 8757   8.499   7.335   0.115 -0.1655 -0.0674 -0.3306
 5014W        W 8758   1.289   0.250  10.468 -0.0879  0.2310 -0.0696
 5015W        W 8759   5.512   4.385  11.753 -0.1351  0.1206 -0.0823
 5016W        W 8760   8.345   1.930  11.524  0.0065  0.0112  0.1205
 5017W        W 8761   2.224   7.939  11.011  0.1866 -0.1231  0.1761
 5018W        W 8762   4.046   5.902   0.636 -0.1439  0.0322 -0.3882
 5019W        W 8763   5.891   6.973  12.529 -0.2455  0.1429  0.3730
 5020W        W 8764   0.948   0.287   2.208  0.0403 -0.1843  0.2281
 5021W        W 8765   8.024   1.029   9.659 -0.0301 -0.1494 -0.2742
 5022W        W 8766   8.424   6.036  11.692  0.1156 -0.2092 -0.0873
 5023W        W 8767   9.036   6.379   4.485 -0.3956 -0.0493 -0.0075
 5024W        W 8768   4.243   9.667   0.046  0.0629 -0.1280 -0.1087
 5025W        W 8769   5.491   2.705   2.659 -0.1103  0.1035 -0.0324
 5026W        W 8770   8.704   2.303   0.875  0.0919  0.1254 -0.0850
 5027W        W 8771   8.560   8.214   0.287 -0.5360 -0.1075 -0.1380
 5028W        W 8772   5.970   8.596   9.703  0.1080  0.1572 -0.1143
 5029W        W 8773   3.452   1.198   9.285  0.2998 -0.4313 -0.1440
 5030W        W 8774   6.442   8.666  10.520  0.1248 -0.0552  0.2400
 5031W        W 8775   7.341   6.199   8.150  0.1732  0.0183 -0.1344
 5032W        W 8776   7.381   0.545   4.022  0.1451 -0.3250 -0.0261
 5033W        W 8777   1.867   3.643   0.652 -0.2314 -0.1727 -0.3644
 5034W        W 8778   8.614   1.376  10.319  0.0859 -0.2168  0.1142
 5035W        W 8779   8.985   6.055  11.915 -0.1820  0.0685  0.0617
 5036W        W 8780   9.211   4.754   3.762 -0.1561  0.1442 -0.1575
 5037W        W 8781   2.873   1.263   3.323 -0.2153  0.4214 -0.1652
 5038W        W 8782   5.834   2.414  11.486 -0.3296 -0.1747  0.2796
 5039W        W 8783   8.947   8.331   9.903  0.2304 -0.1923  0.1703
 5040W        W 8784   0.520   2.486  10.116  0.3661  0.0012  0.0959
 5041W        W 8785   5.004   9.609  11.207  0.0800 -0.1279 -0.0221
 5042W        W 8786   5.886   1.393   3.629  0.0299  0.2154  0.0194
 5043W        W 8787   7.538   6.287   2.449  0.0634 -0.0258 -0.3161
 5044W        W 8788   7.707   1.101   1.018  0.2129  0.2357  0.1486
 5045W        W 8789   2.006   5.487   0.465 -0.4031  0.1827 -0.1388
 5046W        W 8790   2.787   9.285   4.935  0.0291 -0.3085 -0.4584
 5047W        W 8791   5.141   0.730   1.742 -0.1643  0.0560  0.0426
 5048W        W 8792   9.430   4.199   1.042 -0.0141  0.0090 -0.0339
 5049W        W 8793   3.565   6.434   1.850  0.3041  0.1890 -0.1381
 5050W        W 8794   7.939   2.686   1.007 -0.1157 -0.0850  0.1862
 5051W        W 8795   0.683   2.056  10.242  0.0807 -0.1937  0.0967
 5052W        W 8796   2.103   3.952  10.023  0.1626 -0.4362  0.0507
 5053W        W 8797   4.400   2.318   0.876 -0.2433  0.1737  0.1429
 5054W        W 8798   6.422   2.983   8.901 -0.0756 -0.0610 -0.0080
 5055W        W 8799   7.811   1.989  11.246  0.1602 -0.0409  0.3257
 5056W        W 8800   7.009   6.678   8.899 -0.1660 -0.0222  0.1251
 5057W        W 8801   5.367   5.596   9.625 -0.1176 -0.0867 -0.1981
 5058W        W 8802   3.461   9.277   0.943  0.2198  0.1050 -0.2556
 5059W        W 8803   6.272   5.844   9.405  0.1403  0.0685 -0.0868
 5060W        W 8804   8.844   1.095   1.895 -0.2003 -0.0269  0.1560
 5061W        W 8805   4.051   4.342  11.849 -0.0619 -0.1742  0.0869
 5062W        W 8806   1.315   7.853   4.883 -0.0691  0.1349 -0.0724
 5063W        W 8807   7.713   8.905   0.412 -0.1328 -0.1996  0.2019
 5064W        W 8808   4.807   7.544  12.388 -0.1162 -0.0834 -0.1804
 5065W        W 8809   5.309   1.175  12.306  0.1207  0.0823  0.2956
 5066W        W 8810   4.774   7.861  12.891 -0.0165 -0.3408 -0.0366
 5067W        W 8811   1.247   6.331   3.695  0.3903 -0.0660  0.0251
 5068W        W 8812   0.790   9.122   3.499 -0.5665 -0.0787 -0.0349
 5069W        W 8813   2.090   2.632   1.651 -0.0904  0.2403  0.2790
 5070W        W 8814   2.695   0.068   8.966  0.2207  0.2235  0.1180
 5071W        W 8815   7.453   2.129  12.770 -0.0963  0.3668  0.1578
 5072W        W 8816   6.153   6.725  12.173  0.3634  0.0606 -0.1206
 5073W        W 8817   0.716   2.836   9.259 -0.1001  0.3306  0.2265
 5074W        W 8818   7.298   9.885   2.044 -0.1189 -0.0552 -0.2236
 5075W        W 8819   6.390   8.679   9.512  0.1527  0.1215  0.0674
 5076W        W 8820   1.636   5.884   9.142  0.0517  0.2029 -0.0107
 5077W        W 8821   3.230   1.281   0.788 -0.1601 -0.1405 -0.0624
 5078W        W 8822   2.650   8.047   2.049 -0.0016 -0.1373  0.1680
 5079W        W 8823   8.316   5.066   2.775 -0.2150 -0.1258  0.0078
 5080W        W 8824   2.571   4.995   0.401  0.4043 -0.4200 -0.0617
 5081W        W 8825   5.995   8.639   1.182 -0.3312 -0.0016 -0.1952
 5082W        W 8826   9.641   7.793   2.716 -0.2146  0.0506  0.2627
 5083W        W 8827   1.647   4.737   0.635  0.1778  0.0898 -0.1434
 5084W        W 8828   5.901   2.394   2.730  0.1440  0.0546  0.0300
 5085W        W 8829   1.405   6.551   0.537 -0.1263 -0.2535 -0.2660
 5086W        W 8830   5.228   6.216  10.261  0.1400  0.2127 -0.1031
 5087W        W 8831   6.286   3.158   1.073  0.0005 -0.0245 -0.0860
 5088W        W 8832   7.394   1.247   1.478 -0.1554  0.1341 -0.1989
 5089W        W 8833   5.060   8.906   3.528 -0.0208  0.2546 -0.1700
 5090W        W 8834   1.037   6.850   9.157  0.2839 -0.0731  0.0024
 5091W        W 8835   5.990   9.542  10.167 -0.0473 -0.1759  0.1044
 5092W        W 8836   5.749   4.647   2.557  0.1815  0.1510  0.2158
 5093W        W 8837   6.395   0.239  11.233  0.0886  0.0451 -0.2292
 5094W        W 8838   7.085   3.498  11.465  0.2029 -0.1592 -0.0285
 5095W        W 8839   0.371   5.555   0.691 -0.1365  0.1197 -0.0600
 5096W        W 8840   1.579   4.934   9.283 -0.2201  0.1539 -0.1647
 5097W        W 8841   4.679   7.765   9.527  0.0697  0.2784  0.0832
 5098W        W 8842   0.630   9.863  11.121 -0.2202 -0.0371 -0.2390
 5099W        W 8843   7.158   4.174   3.180  0.0171  0.0819 -0.2586
 5100W        W 8844   6.700   2.933   2.830  0.1764  0.0325  0.1225
 5101W        W 8845   2.515   2.403   1.178  0.0828  0.0019  0.1516
 5102W        W 8846   9.675   2.621   2.946  0.2226  0.1452  0.2727
 5103W        W 8847   7.196   0.314  12.889 -0.0015 -0.1978 -0.0606
 5104W        W 8848   3.660   8.448   1.463 -0.3153 -0.1014  0.1810
 5105W        W 8849   0.287   6.059   3.694  0.0040  0.1980  0.2506
 5106W        W 8850   0.355   8.572   2.954  0.1563 -0.0201  0.1591
 5107W        W 8851   4.218   0.799   3.956 -0.1954  0.0840  0.1572
 5108W        W 8852   6.401   3.712   3.585 -0.2577  0.2683  0.0406
 5109W        W 8853   9.463   6.412  11.122  0.3489  0.0286  0.2967
 5110W        W 8854   6.333   6.433  11.844  0.4614 -0.0966  0.3035
 5111W        W 8855   1.342   0.091   0.146 -0.0404  0.0355  0.1635
 5112W        W 8856   3.223   5.855   4.603  0.0419 -0.3511 -0.1308
 5113W        W 8857   0.338   9.473  12.237  0.2371 -0.2234 -0.2050
 5114W        W 8858   6.368   1.473  12.271  0.2291  0.1615 -0.3727
 5115W        W 8859   6.949   6.366   3.345 -0.0426  0.0529 -0.1195
 5116W        W 8860   0.389   7.521  10.798 -0.3141  0.1088  0.0737
 5117W        W 8861   2.112   5.878   2.916  0.2200  0.1692  0.0002
 5118W        W 8862   0.457   2.599   1.164 -0.0062  0.0606  0.1454
 5119W        W 8863   0.641   0.381   0.098  0.1770  0.4308 -0.0860
 5120W        W 8864   0.151   1.628   8.540  0.2537 -0.1889 -0.0146
 5121W        W 8865   6.033   6.134  10.377  0.1565  0.0027  0.1539
 5122W        W 8866   8.833   6.681  11.936 -0.3284  0.0391 -0.1235
 5123W        W 8867   1.841   9.425   2.954  0.0403  0.0320  0.1482
 5124W        W 8868   7.330   5.909   2.756  0.0488 -0.0963 -0.2492
 5125W        W 8869   7.718   2.068   1.722 -0.0724  0.0505  0.1152
 5126W        W 8870   7.951   5.155   2.400 -0.1676 -0.1154  0.1067
 5127W        W 8871   9.508   3.443   2.497  0.0368  0.3143 -0.2354
 5128W        W 8872   7.731   9.128  10.367  0.2532  0.0090 -0.2125
 5129W        W 8873   4.424   5.417   2.996  0.3027  0.0148  0.0124
 5130W        W 8874   7.234   0.733   3.598 -0.0776 -0.1433  0.2352
 5131W        W 8875   5.907   1.190  11.121 -0.0938  0.0732  0.1867
 5132W        W 8876   2.184   7.736   1.089 -0.2799 -0.2246  0.0435
 5133W        W 8877   7.315   0.949   2.837 -0.1908  0.1406 -0.1394
 5134W        W 8878   2.469   3.660  12.422 -0.1954  0.0234  0.1280
 5135W        W 8879   1.565   3.949   9.637 -0.1462 -0.1161  0.0094
 5136W        W 8880   2.473   7.991   1.474 -0.1894  0.1050  0.1183
 5137W        W 8881   7.511   2.508  10.504  0.0511  0.1689  0.1420
 5138W        W 8882   2.069   4.444   2.498  0.1316 -0.1989 -0.1323
 5139W        W 8883   1.158   3.837  10.655 -0.2135 -0.1248  0.2271
 5140W        W 8884   4.462   1.203  12.844  0.1122 -0.0850  0.2288
 5141W        W 8885   4.448   7.504  10.427 -0.3965  0.2406  0.0532
 5142W        W 8886   4.604   9.677   2.474  0.3115  0.1138 -0.2039
 5143W        W 8887   1.211   7.171   4.733 -0.2141 -0.0418  0.2444
 5144W        W 8888   3.424   0.352   3.118 -0.0527  0.2879 -0.1113
 5145W        W 8889   1.057   1.670   9.569 -0.1364  0.2067 -0.4695
 5146W        W 8890   6.756   3.670   0.251  0.0263  0.0166  0.3311
 5147W        W 8891   6.103   3.376   0.639 -0.0200 -0.0249 -0.1412
 5148W        W 8892   3.856   2.394   1.358 -0.0888 -0.1441  0.2455
 5149W        W 8893   8.289   3.591  11.095  0.1792  0.0019 -0.2369
 5150W        W 8894   2.523   3.571  12.928 -0.3903 -0.0152 -0.5358
 5151W        W 8895   4.920   2.486  12.695 -0.0853  0.1900 -0.1254
 5152W        W 8896   4.827   5.357   7.897 -0.0383 -0.0588 -0.0866
 5153W        W 8897   0.282   7.511  10.291  0.3175  0.4187  0.1713
 5154W        W 8898   2.487   9.562   8.768 -0.3273  0.0418 -0.2470
 5155W        W 8899   3.334   0.066  11.521  0.4140 -0.4054 -0.3912
 5156W        W 8900   6.317   3.942  10.944 -0.1231  0.1002  0.3886
 5157W        W 8901   1.014   7.994  10.139 -0.0164  0.2001  0.1908
 5158W        W 8902   3.317   9.748   3.108 -0.1955 -0.0754 -0.1062
 5159W        W 8903   1.167   5.723  12.028  0.1434 -0.3989 -0.1079
 5160W        W 8904   8.074   1.556  11.311 -0.0425  0.0377 -0.2111
 5161W        W 8905   1.148   3.231   0.231 -0.0921 -0.1551 -0.5734
 5162W        W 8906   5.583   4.390   2.106  0.0977 -0.0929  0.2967
 5163W        W 8907   2.638   7.499   0.833 -0.2017 -0.1919  0.0242
 5164W        W 8908   2.400   8.836   9.104  0.1171 -0.2103 -0.0312
 5165W        W 8909   1.394   1.010   2.827  0.1949  0.0950 -0.1740
 5166W        W 8910   4.343   2.320  12.459 -0.0020  0.0050 -0.3157
 5167W        W 8911   9.216   2.225  12.435  0.2669 -0.4033 -0.2345
 5168W        W 8912   4.558   9.270   2.003 -0.2906  0.3400  0.0250
 5169W        W 8913   4.043   7.942   9.079 -0.0274  0.4132 -0.5728
 5170W        W 8914   0.407   4.638   2.121 -0.1065 -0.1844  0.0200
 5171W        W 8915   7.440   4.339   4.236 -0.2437  0.2756  0.2267
 5172W        W 8916   2.385   6.528   9.959 -0.1755 -0.0197  0.0127
 5173W        W 8917   2.465   8.115  12.583  0.0214  0.0082  0.1454
 5174W        W 8918   0.781   2.172   5.611 -0.1648  0.0221 -0.0068
 5175W        W 8919   0.082   6.581   2.989  0.0832 -0.1009 -0.0081
 5176W        W 8920   8.886   3.127  10.849 -0.0742  0.1497  0.0355
 5177W        W 8921   6.043   5.453   9.127 -0.1520 -0.0896  0.0278
 5178W        W 8922   4.563   8.959   3.342  0.0359 -0.2447 -0.1103
 5179W        W 8923   3.763   5.973   8.506  0.0205  0.2000  0.1035
 5180W        W 8924   0.542   8.498  11.978 -0.3001  0.1722  0.0134
 5181W        W 8925   9.399   3.041  11.027 -0.0581 -0.3956  0.1637
 5182W        W 8926   1.104   3.697   8.287 -0.1440 -0.2400  0.0401
 5183W        W 8927   6.649   8.348   2.632  0.4879  0.0020  0.1035
 5184W        W 8928   0.726   2.857   4.130  0.1322  0.0744  0.2283
 5185W        W 8929   2.145   4.815  11.754 -0.0641 -0.0228  0.2904
 5186W        W 8930   3.623   1.756  12.543 -0.1320  0.1117 -0.0411
 5187W        W 8931   3.803   2.444  12.418 -0.1099 -0.3812  0.0008
 5188W        W 8932   3.886   6.294   8.112  0.1198  0.0294 -0.2901
 5189W        W 8933   2.911   4.836   0.114 -0.1568  0.2875 -0.0057
 5190W        W 8934   1.294   7.624   1.919  0.0976 -0.1453  0.6287
 5191W        W 8935   1.405   8.283  12.424  0.1150  0.2198 -0.0578
 5192W        W 8936   7.715   6.048  11.617 -0.1399 -0.0183  0.0352
 5193W        W 8937   6.697   6.514  11.474 -0.1576  0.0659  0.0019
 5194W        W 8938   1.038   8.404  11.814  0.2333  0.2291 -0.2254
 5195W        W 8939   7.750   9.671  11.331  0.2153  0.2120  0.2297
 5196W        W 8940   3.693   4.029   9.140 -0.1403 -0.1103  0.2427
 5197W        W 8941   4.365   2.486   9.034  0.0083 -0.3005  0.0597
 5198W        W 8942   9.449   8.406   8.093 -0.0333 -0.0619  0.4504
 5199W        W 8943   8.593   9.673   9.496  0.1174 -0.0777  0.0989
 5200W        W 8944   6.080   0.543  12.575 -0.1319 -0.1626 -0.0064
 5201W        W 8945   7.656   4.150   3.398  0.1655  0.2065  0.1029
 5202W        W 8946   1.934   6.005   0.597  0.0723 -0.0750  0.0332
 5203W        W 8947   8.882   3.373  12.857  0.0073 -0.0726  0.2003
 5204W        W 8948   6.114   4.760   0.712 -0.3534 -0.0622 -0.0741
 5205W        W 8949   5.865   0.062  12.612 -0.3302  0.0796 -0.1936
 5206W        W 8950   2.423   1.459  10.775  0.2069 -0.1899 -0.1824
 5207W        W 8951   5.699   4.585  11.209  0.2835  0.1256 -0.0323
 5208W        W 8952   5.156   9.156   1.099 -0.2076  0.0127  0.0692
 5209W        W 8953   5.713   2.622  12.368  0.1137 -0.2081 -0.3248
 5210W        W 8954   0.638   7.219   0.849 -0.1279 -0.1979 -0.3060
 5211W        W 8955   8.476   8.260  12.131  0.1876  0.2124 -0.0680
 5212W        W 8956   9.745   5.909  10.283  0.1518  0.1011  0.1470
 5213W        W 8957   0.722   6.658  11.895 -0.3097  0.0579  0.4626
 5214W        W 8958   8.198   2.334   0.613 -0.1525 -0.3902 -0.0500
 5215W        W 8959   3.624   2.929  12.648 -0.0980 -0.0801  0.3186
 5216W        W 8960   9.834   9.597   0.378 -0.2103 -0.0529 -0.0814
 5217W        W 8961   8.132   3.111   9.434  0.0086  0.1486  0.0452
 5218W        W 8962   5.834   8.428   3.150  0.1789  0.0251 -0.0673
 5219W        W 8963   3.231   8.441  10.639  0.2538 -0.0600 -0.2137
 5220W        W 8964   5.728   8.185  12.989 -0.0133  0.2316  0.0800
 5221W        W 8965   6.234   3.236   1.881  0.2925 -0.2025  0.1475
 5222W        W 8966   8.155   4.591  11.921 -0.2507  0.2256  0.0294
 5223W        W 8967   8.170   7.015   4.048 -0.2052 -0.1278 -0.0296
 5224W        W 8968   8.969   9.781  12.050  0.1573  0.1198  0.0926
 5225W        W 8969   0.992   4.663  11.805  0.0333  0.0958  0.3102
 5226W        W 8970   0.706   2.565  11.197 -0.0497 -0.5399 -0.1164
 5227W        W 8971   3.466   9.304   2.021  0.1479  0.3563  0.1583
 5228W        W 8972   9.168   2.999  11.862  0.1797 -0.3151 -0.5647
 5229W        W 8973   0.094   5.484   9.068  0.0318  0.0661  0.1660
 5230W        W 8974   4.686   0.666   3.199  0.0333 -0.0404  0.2830
 5231W        W 8975   0.570   3.876  10.709  0.2003  0.1635  0.3019
 5232W        W 8976   1.727   7.755   2.766  0.1956 -0.2865 -0.0205
 5233W        W 8977   0.701   5.117   9.344 -0.0021 -0.2292 -0.0098
 5234W        W 8978   7.326   0.982  11.987 -0.0892 -0.1037  0.2055
 5235W        W 8979   2.258   5.404   4.676 -0.2253  0.0316  0.0061
 5236W        W 8980   6.310   8.642  12.293  0.1426 -0.1560  0.0033
 5237W        W 8981   1.802   2.214  11.867  0.3031  0.3183  0.0615
 5238W        W 8982   6.123   3.964   1.435 -0.0534  0.3139 -0.0321
 5239W        W 8983   5.871   9.494  11.524  0.0480  0.1040 -0.0176
 5240W        W 8984   8.291   5.815   1.203  0.1363  0.1240 -0.1864
 5241W        W 8985   9.391   9.209   1.571  0.2779  0.1190 -0.0713
 5242W        W 8986   2.765   9.479   9.750  0.2800 -0.0980 -0.2689
 5243W        W 8987   3.079   1.667   9.901  0.1368  0.0682  0.1177
 5244W        W 8988   4.506   1.222   6.148 -0.1168 -0.1807  0.1459
 5245W        W 8989   1.646   7.160   4.980 -0.0731  0.2361 -0.4927
 5246W        W 8990   4.245   0.939   3.370 -0.0325  0.3754  0.2295
 5247W        W 8991   1.466   9.886   0.595 -0.1483  0.1817 -0.5856
 5248W        W 8992   5.490   5.961   1.224 -0.1121  0.3313 -0.0967
 5249W        W 8993   3.638   4.509  12.231  0.0931  0.2241 -0.1088
 5250W        W 8994   4.135   6.597  11.749  0.4117  0.0886 -0.0237
 5251W        W 8995   1.252   4.802   2.991 -0.1302  0.1355  0.2599
 5252W        W 8996   9.732   3.260   1.532 -0.0792  0.0870 -0.0213
 5253W        W 8997   2.571   7.893   4.186  0.4923  0.0229  0.0726
 5254W        W 8998   2.887   9.498   0.341  0.1140  0.3147 -0.5452
 5255W        W 8999   1.533   7.643  12.212  0.1423 -0.0741 -0.3299
 5256W        W 9000   4.579   7.807   0.817 -0.4394  0.0776  0.3395
 5257W        W 9001   4.820   1.054  10.411  0.2240  0.4638 -0.1624
 5258W        W 9002   6.490   9.046  12.570  0.2036  0.0432 -0.2891
 5259W        W 9003   3.887   6.478   3.742 -0.0454 -0.1586 -0.2025
 5260W        W 9004   9.530   0.717   4.198  0.1729 -0.1943  0.0884
 5261W        W 9005   2.442   3.924  10.492  0.0575  0.0707  0.1091
 5262W        W 9006   2.302   5.383   3.799 -0.0053 -0.1114  0.2724
 5263W        W 9007   4.664   0.489   1.641 -0.0148  0.1444 -0.1842
 5264W        W 9008   9.624   5.040  12.478 -0.0468  0.0564 -0.0899
 5265W        W 9009   9.263   2.291   9.576 -0.2758 -0.2429  0.0981
 5266W        W 9010   6.494   7.907   9.822  0.1987 -0.1342  0.2128
 5267W        W 9011   1.618   3.740   1.095  0.1667 -0.0140 -0.0730
 5268W        W 9012   7.202   6.434   1.687  0.1391  0.0596  0.0717
 5269W        W 9013   1.789   4.614  10.586  0.0521  0.0354  0.0948
 5270W        W 9014   6.057   4.623   8.767  0.3452  0.2959  0.3612
 5271W        W 9015   2.922   4.859   3.644  0.0582  0.1306  0.0431
 5272W        W 9016   9.171   5.645  10.621  0.1239 -0.3584  0.2141
 5273W        W 9017   9.621   3.867   1.551  0.0614 -0.0956 -0.0495
 5274W        W 9018   9.497   2.370  10.434 -0.1352  0.1603  0.4823
 5275W        W 9019   1.506   5.726   0.722  0.0924  0.3711 -0.1979
 5276W        W 9020   6.162   5.263   3.778 -0.0775 -0.0098 -0.0433
 5277W        W 9021   2.754   8.289  11.034  0.1360 -0.1928  0.1985
 5278W        W 9022   7.393   6.331   9.564 -0.1441  0.0637  0.2442
 5279W        W 9023   7.925   3.272   2.524  0.1149 -0.1106 -0.1778
 5280W        W 9024   2.701   1.237  12.584  0.4503 -0.0967  0.1518
 5281W        W 9025   2.451   0.089   3.220  0.0785 -0.0018  0.2219
 5282W        W 9026   8.297   4.845   1.514  0.2372  0.3812 -0.0746
 5283W        W 9027   9.627   1.727  10.298 -0.0399 -0.4076  0.0763
 5284W        W 9028   0.404   1.960   2.867 -0.3056  0.0353  0.2486
 5285W        W 9029   5.871   2.745  12.859 -0.1239 -0.2278 -0.1075
 5286W        W 9030   9.747   3.968  12.835  0.2341 -0.0808 -0.1507
 5287W        W 9031   1.948   7.182  10.434 -0.5700 -0.2563  0.4056
 5288W        W 9032   7.330   3.857   0.571 -0.1296 -0.1593 -0.2119
 5289W        W 9033   4.920   3.634  11.100  0.0106  0.0794  0.2041
 5290W        W 9034   0.256   1.492   2.547 -0.0585  0.1978  0.0153
 5291W        W 9035   6.935   9.811  11.681  0.0736 -0.0350 -0.3215
 5292W        W 9036   7.105   9.313   3.212 -0.2567  0.0862  0.1974
 5293W        W 9037   3.148   1.032  11.997  0.0788  0.3130  0.0422
 5294W        W 9038   5.973   6.132   8.923  0.0522  0.2169 -0.2802
 5295W        W 9039   3.796   8.438   0.663 -0.0730  0.2325 -0.2297
 5296W        W 9040   5.011   0.429  11.609  0.1557 -0.0913  0.0476
 5297W        W 9041   8.549   7.209  10.798 -0.2230  0.5266  0.1705
 5298W        W 9042   9.847   1.552   9.826 -0.3024 -0.0887  0.0193
 5299W        W 9043   3.947   7.333  10.230  0.0696  0.1906 -0.1340
 5300W        W 9044   8.438   4.275  10.060  0.1177  0.0554  0.0487
 5301W        W 9045   0.881   3.484   3.334 -0.0195 -0.0498 -0.0484
 5302W        W 9046   6.784   8.283   3.960  0.2085 -0.1634  0.3707
 5303W        W 9047   3.839   0.941   9.415  0.1286  0.1572 -0.0934
 5304W        W 9048   2.035   2.514   2.578  0.0616 -0.0507 -0.0146
 5305W        W 9049   9.502   8.691   2.671  0.0389  0.1208  0.0166
 5306W        W 9050   2.656   5.261  10.902 -0.0871 -0.2480  0.0524
 5307W        W 9051   5.366   1.958  12.031  0.1039  0.0572 -0.0684
 5308W        W 9052   0.286   6.054   4.623  0.1117  0.0795  0.1215
 5309W        W 9053   2.229   7.537  11.704 -0.0091  0.0899  0.1243
 5310W        W 9054   7.938   3.441  11.936  0.1241 -0.0158 -0.2314
 5311W        W 9055   1.584   9.778   3.241 -0.1622 -0.0338 -0.3259
 5312W        W 9056   0.890   0.752  10.920 -0.0411 -0.1046 -0.0732
 5313W        W 9057   2.745   8.527   0.225 -0.2943 -0.1764  0.0511
 5314W        W 9058   0.857   8.992   9.758 -0.1983  0.0418  0.3278
 5315W        W 9059   2.956   4.170   9.738  0.1188 -0.1430  0.0625
 5316W        W 9060   0.943   2.677   0.927 -0.1964  0.2069  0.1347
 5317W        W 9061   1.507   2.628   2.515 -0.0340 -0.0491  0.2316
 5318W        W 9062   9.104   9.461  10.932 -0.0706 -0.0384  0.1249
 5319W        W 9063   1.668   4.447   9.313  0.0117 -0.0821 -0.1488
 5320W        W 9064   7.960   6.430   3.162  0.1219 -0.0420 -0.2541
 5321W        W 9065   8.778   7.990   3.201 -0.2531  0.1763 -0.0773
 5322W        W 9066   5.569   0.996  11.872 -0.0749 -0.2574  0.0164
 5323W        W 9067   8.449   8.033   1.183  0.2529 -0.0104 -0.0689
 5324W        W 9068   7.977   2.548   3.043  0.0148  0.2826  0.1180
 5325W        W 9069   2.886   7.822   9.700 -0.1679 -0.2745  0.1932
 5326W        W 9070   5.107   2.708   1.400 -0.1119  0.0933  0.2719
 5327W        W 9071   8.060   1.842   1.429  0.0860  0.1750 -0.4281
 5328W        W 9072   0.901   3.351   4.401  0.1364 -0.0007  0.4130
 5329W        W 9073   6.454   4.860  11.714 -0.0090  0.0478 -0.1402
 5330W        W 9074   9.054   5.811   3.603 -0.1747  0.0151 -0.3997
 5331W        W 9075   2.678   5.637   3.018  0.0459  0.0252 -0.2971
 5332W        W 9076   2.546   7.237  12.017 -0.0042 -0.2380 -0.3344
 5333W        W 9077   8.154   5.579   3.206  0.1998 -0.3066 -0.1249
 5334W        W 9078   5.016   4.715   8.577  0.0296 -0.1060 -0.1274
 5335W        W 9079   6.148   6.700   9.097  0.2424 -0.0852 -0.0446
 5336W        W 9080   8.256   7.802   9.557  0.5143  0.4051  0.0673
 5337W        W 9081   6.872   3.759   9.258  0.1171 -0.2796 -0.0689
 5338W        W 9082   7.402   5.189  11.737  0.0993 -0.0549  0.2027
 5339W        W 9083   3.798   7.731   7.963  0.0447  0.3193  0.0792
 5340W        W 9084   2.045   9.759   9.994 -0.1642 -0.0339 -0.3317
 5341W        W 9085   2.704   0.133   3.683 -0.4579  0.0827  0.1608
 5342W        W 9086   9.300   3.491   1.214 -0.0260 -0.2180 -0.1830
 5343W        W 9087   9.873   7.901   8.395 -0.0966 -0.4026  0.1215
 5344W        W 9088   5.231   3.647   2.455  0.2044  0.2418  0.0078
 5345W        W 9089   5.520   9.014   0.511 -0.2902 -0.2220 -0.2884
 5346W        W 9090   8.471   6.950  11.695  0.0827 -0.3194 -0.3995
 5347W        W 9091   7.486   8.977  12.787  0.0300 -0.1328 -0.0652
 5348W        W 9092   4.817   1.859  11.939  0.0914 -0.1025  0.0415
 5349W        W 9093   5.215   0.097  10.933 -0.2066  0.0774 -0.2355
 5350W        W 9094   7.768   5.904   3.101  0.0370  0.0730 -0.0669
 5351W        W 9095   3.042   5.091   0.588 -0.0428 -0.0346  0.1370
 5352W        W 9096   1.375   3.459   0.679 -0.1391 -0.1816  0.0137
 5353W        W 9097   4.572   4.015   0.751 -0.1712  0.0470 -0.2340
 5354W        W 9098   8.137   0.564   0.033  0.1854  0.1684  0.0238
 5355W        W 9099   3.706   6.359   9.746 -0.0424  0.0872  0.0022
 5356W        W 9100   6.486   6.294   9.204  0.0871  0.0973 -0.0886
 5357W        W 9101   1.945   1.704   1.226  0.0282  0.2238  0.1055
 5358W        W 9102   9.312   4.754  10.247  0.3529  0.2490 -0.2256
 5359W        W 9103   9.489   2.685  12.019  0.0465  0.0971  0.2062
 5360W        W 9104   8.871   3.145  12.374 -0.6019 -0.0731  0.1433
 5361W        W 9105   7.695   0.318   0.213 -0.0234 -0.1438  0.2882
 5362W        W 9106   0.887   1.602   0.623  0.3456  0.2193 -0.0167
 5363W        W 9107   9.788   8.715  11.326  0.1532  0.3513 -0.0973
 5364W        W 9108   0.273   2.404   3.082 -0.2675  0.1193  0.1730
 5365W        W 9109   5.878   0.163  11.024 -0.0124  0.2012 -0.1821
 5366W        W 9110   2.553   1.812  10.171  0.2394 -0.2689  0.2383
 5367W        W 9111   0.662   0.484   3.330 -0.1495  0.1627 -0.0755
 5368W        W 9112   3.075   7.725   0.599 -0.0292  0.0153 -0.0533
 5369W        W 9113   2.241   1.457  12.604 -0.2492 -0.1468  0.1601
 5370W        W 9114   3.553   3.846   0.852  0.0502  0.1255  0.1212
 5371W        W 9115   8.521   0.314   1.427 -0.0509 -0.4015  0.2795
 5372W        W 9116   1.582   7.180  10.944 -0.1168 -0.1624  0.0302
 5373W        W 9117   5.784   5.903   9.331  0.2626  0.0262 -0.0304
 5374W        W 9118   3.006   1.172   1.256 -0.2756  0.2109  0.0698
 5375W        W 9119   6.951   5.856   3.344  0.0011  0.4124 -0.1051
 5376W        W 9120   6.419   6.632   9.649  0.0683 -0.3933 -0.1673
 5377W        W 9121   8.840   7.609  12.840  0.3343 -0.0531  0.2670
 5378W        W 9122   3.868   1.456  12.103 -0.1907 -0.1729 -0.0590
 5379W        W 9123   3.697   5.848  11.966 -0.0332  0.1430  0.1676
 5380W        W 9124   6.054   4.220   2.427  0.3062  0.1625  0.2309
 5381W        W 9125   8.618   5.744   4.041 -0.0432  0.3467  0.4649
 5382W        W 9126   6.255   2.470  10.180 -0.0221  0.0588 -0.3071
 5383W        W 9127   7.872   8.062   3.015  0.2824  0.1259  0.0862
 5384W        W 9128   0.022   8.026   2.211  0.1460  0.0493  0.1718
 5385W        W 9129   0.884   3.305  10.521  0.1454  0.1144  0.2068
 5386W        W 9130   8.851   4.652   2.308  0.1731 -0.0796  0.2437
 5387W        W 9131   9.240   8.869   0.507  0.0224  0.2502 -0.0544
 5388W        W 9132   5.123   7.414   2.209  0.1000 -0.2570 -0.3206
 5389W        W 9133   2.289   2.136   1.564 -0.1491 -0.0114 -0.0701
 5390W        W 9134   7.249   8.843   2.999  0.0288  0.1091 -0.0191
 5391W        W 9135   0.031   5.979   9.227  0.2101  0.2027  0.0948
 5392W        W 9136   9.169   7.419   9.691 -0.0167 -0.1444 -0.3637
 5393W        W 9137   8.519   0.551  12.596  0.1699 -0.4809 -0.2556
 5394W        W 9138   5.280   8.224   1.771 -0.2463  0.2948 -0.3420
 5395W        W 9139   7.752   7.237  12.612  0.0099  0.0479  0.2808
 5396W        W 9140   8.717   0.132   3.886 -0.1070  0.2085 -0.3670
 5397W        W 9141   5.316   3.620   8.550  0.0102 -0.1516 -0.0232
 5398W        W 9142   6.830   4.058  12.117 -0.2582  0.0788 -0.0894
 5399W        W 9143   8.611   3.505  10.629 -0.1429 -0.2217 -0.2250
 5400W        W 9144   2.415   2.133   8.361 -0.0861 -0.0841  0.1046
 5401W        W 9145   1.370   4.167  12.507  0.1547 -0.0333 -0.1513
 5402W        W 9146   8.402   3.372   0.589 -0.0537 -0.2555 -0.1649
 5403W        W 9147   6.440   9.186  10.210 -0.1898 -0.0446 -0.0497
 5404W        W 9148   0.597   2.378   2.147  0.2183 -0.2323  0.2229
 5405W        W 9149   5.120   6.933   4.155  0.2401  0.0303  0.0788
 5406W        W 9150   4.092   3.343  10.707  0.0532  0.0554 -0.0121
 5407W        W 9151   1.811   8.005   0.472  0.2133 -0.1362 -0.1031
 5408W        W 9152   5.988   8.819   2.169  0.4555  0.1029  0.5057
 5409W        W 9153   8.282   0.712  12.206 -0.0237  0.2297  0.1239
 5410W        W 9154   4.227   8.478   1.473 -0.1391  0.2832 -0.1065
 5411W        W 9155   2.708   3.703   3.389  0.1174 -0.1430 -0.2249
 5412W        W 9156   3.901   7.768  11.040  0.2586  0.1077 -0.4075
 5413W        W 9157   5.956   5.550  10.388 -0.5081  0.1620  0.1760
 5414W        W 9158   2.985   3.339   4.834  0.0445 -0.5567  0.0079
 5415W        W 9159   5.612   1.242   0.237  0.0643 -0.3840  0.1924
 5416W        W 9160   1.659   1.013   9.513  0.2757  0.1616  0.2232
 5417W        W 9161   0.344   5.639   2.634 -0.0190 -0.0819  0.0883
 5418W        W 9162   3.367   9.810   2.209  0.1960  0.1031 -0.0676
 5419W        W 9163   6.098   6.522  11.428  0.0642  0.1025 -0.0324
 5420W        W 9164   2.345   6.192   0.422 -0.0151  0.1977 -0.1137
 5421W        W 9165   4.028   6.680   2.267 -0.1363 -0.1442  0.0549
 5422W        W 9166   7.235   6.044  11.877  0.0541  0.0898 -0.1655
 5423W        W 9167   8.066   6.367  11.594  0.3366  0.1231 -0.2558
 5424W        W 9168   5.074   5.950   9.195  0.3011  0.0993 -0.4258
 5425W        W 9169   7.284   4.283  11.937  0.0154  0.0939  0.0834
 5426W        W 9170   1.710   5.461  11.924  0.3189  0.0739  0.5092
 5427W        W 9171   0.971   4.877  12.484 -0.0658 -0.2345 -0.1164
 5428W        W 9172   7.228   8.398   1.631  0.0182 -0.0038 -0.2031
 5429W        W 9173   4.513   7.155   8.831  0.0604  0.2600  0.1569
 5430W        W 9174   9.883   1.153   2.207 -0.2989 -0.0421 -0.4418
 5431W        W 9175   2.583   0.148  10.085  0.0121 -0.0838 -0.1174
 5432W        W 9176   2.494   8.051   8.762  0.2128  0.1992 -0.3947
 5433W        W 9177   5.363   6.374  11.442 -0.0269  0.0550  0.1694
 5434W        W 9178   7.636   8.605  12.123  0.1080  0.0401  0.1394
 5435W        W 9179   5.872   6.072   4.152  0.0586 -0.3254 -0.2461
 5436W        W 9180   1.179   5.324   3.250 -0.0062 -0.0636  0.0741
 5437W        W 9181   2.744   6.701   3.400 -0.1999 -0.1840 -0.0569
 5438W        W 9182   6.594   0.879   2.938 -0.0590  0.1752 -0.1296
 5439W        W 9183   6.104   1.787  10.762  0.1564  0.1615 -0.0964
 5440W        W 9184   0.024   6.128  11.291  0.3602  0.1753  0.2502
 5441W        W 9185   4.494   0.028  10.168 -0.0892  0.5021 -0.0306
 5442W        W 9186   6.269   6.684   2.086  0.2093  0.0580  0.0096
 5443W        W 9187   5.117   9.447  10.782 -0.3026 -0.3209 -0.1536
 5444W        W 9188   7.955   8.935   1.472  0.2978 -0.0375  0.1758
 5445W        W 9189   2.476   1.663   9.266 -0.0176 -0.0037 -0.2420
 5446W        W 9190   3.207   8.977  11.378  0.1262  0.1888 -0.0216
 5447W        W 9191   4.394   1.434   9.501 -0.0458  0.0724 -0.1171
 5448W        W 9192   3.305   4.606   2.421 -0.0140  0.1854  0.0795
 5449W        W 9193   1.038   4.706   1.250  0.2013 -0.0011 -0.0414
 5450W        W 9194   4.009   8.575   1.955 -0.3780 -0.1012  0.0733
 5451W        W 9195   2.227   6.660   3.323  0.1476  0.0496  0.0126
 5452W        W 9196   3.998   2.657  12.839 -0.1491 -0.0866 -0.1076
 5453W        W 9197   4.230   7.227  12.328  0.0487  0.0117 -0.3266
 5454W        W 9198   4.063   8.635   8.428 -0.3019 -0.0270 -0.0840
 5455W        W 9199   5.561   0.632   1.980  0.1075  0.4040  0.2115
 5456W        W 9200   5.973   4.567   1.347 -0.2761 -0.1034  0.1015
 5457W        W 9201   4.401   9.156   2.503  0.3610 -0.1925  0.2629
 5458W        W 9202   8.848   6.608   9.261  0.0751 -0.3422 -0.1403
 5459W        W 9203   6.231   2.664   3.697  0.2127 -0.0838 -0.0855
 5460W        W 9204   6.425   8.151  12.858 -0.1581  0.0218 -0.2846
 5461W        W 9205   4.263   0.638   2.920  0.1145  0.0159  0.0791
 5462W        W 9206   8.956   4.268   9.709 -0.0899 -0.2002 -0.2616
 5463W        W 9207   6.883   4.143   0.437 -0.0091  0.2815 -0.1575
 5464W        W 9208   2.889   2.340  11.072 -0.0713  0.3703 -0.1086
 5465W        W 9209   4.283   9.805  10.668 -0.2029  0.0879 -0.2675
 5466W        W 9210   7.447   1.648   9.219 -0.3426  0.1260  0.0830
 5467W        W 9211   5.522   8.379   0.477  0.1410  0.0252  0.1489
 5468W        W 9212   7.920   4.272   2.528  0.2761  0.1200 -0.4592
 5469W        W 9213   0.441   6.502   2.328 -0.0959 -0.0410  0.3436
 5470W        W 9214   5.472   5.801   8.261  0.0593 -0.0414  0.3396
 5471W        W 9215   9.247   7.216   0.724 -0.1921 -0.2514  0.0924
 5472W        W 9216   1.183   8.467  11.305 -0.1924 -0.4830 -0.1677
 5473W        W 9217   5.953   0.932  10.320  0.0816 -0.2571  0.0081
 5474W        W 9218   6.055   0.967   0.572  0.1118  0.2531  0.2376
 5475W        W 9219   3.307   5.047   8.428 -0.0845 -0.3370  0.0698
 5476W        W 9220   9.248   8.111  10.781  0.1652 -0.2458  0.3205
 5477W        W 9221   8.770   5.328  10.550 -0.0441  0.1493 -0.3798
 5478W        W 9222   6.306   0.585  10.797  0.0136 -0.3235 -0.0170
 5479W        W 9223   2.078   2.178   0.974  0.2719 -0.0027 -0.0684
 5480W        W 9224   4.288   7.415   2.914 -0.1625 -0.0764  0.0118
 5481W        W 9225   5.727   5.847   0.494  0.2064  0.1679  0.2357
 5482W        W 9226   2.166   1.348   9.514 -0.0503  0.1290  0.1848
 5483W        W 9227   1.295   8.841   3.304  0.1808 -0.2148  0.1362
 5484W        W 9228   1.122   5.791  11.253  0.1330 -0.0119 -0.0113
 5485W        W 9229   0.568   0.094   9.578  0.1888 -0.2662 -0.0631
 5486W        W 9230   9.777   8.070  11.005  0.1783 -0.4911  0.2386
 5487W        W 9231   1.626   8.211  12.960 -0.0429  0.1057  0.0456
 5488W        W 9232   5.106   9.668  12.975  0.2613  0.0591  0.1657
 5489W        W 9233   1.294   2.692   3.343  0.2956  0.0282  0.0590
 5490W        W 9234   3.227   3.843  10.066 -0.1331 -0.2206 -0.1767
 5491W        W 9235   4.854   4.019   0.274 -0.1047 -0.1109 -0.1667
 5492W        W 9236   1.488   6.880   0.205 -0.0058 -0.0642 -0.0530
 5493W        W 9237   8.324   6.902   9.597 -0.0604  0.3114 -0.1217
 5494W        W 9238   3.224   8.734   1.439 -0.0729 -0.1832 -0.0031
 5495W        W 9239   7.542   8.134  10.360  0.0482  0.0041 -0.2305
 5496W        W 9240   6.159   2.678   0.996  0.1211 -0.0912 -0.2040
 5497W        W 9241   8.584   5.608   2.879 -0.0974  0.0426 -0.0613
 5498W        W 9242   7.873   0.295   3.970  0.0833  0.0669 -0.0621
 5499W        W 9243   1.175   8.522   0.355 -0.3297 -0.2074 -0.2655
 5500W        W 9244   8.141   5.898  12.959  0.0903  0.1376 -0.0963
 5501W        W 9245   1.419   0.854   3.915 -0.0598 -0.2876 -0.0374
 5502W        W 9246   1.253   0.420   3.096 -0.0400  0.2677  0.0372
 5503W        W 9247   8.023   0.652  11.063  0.1014 -0.2483  0.0183
 5504W        W 9248   0.501   7.143  11.933  0.0322 -0.0455 -0.0398
 5505W        W 9249   5.609   9.167  12.926  0.0317  0.1117  0.0070
 5506W        W 9250   3.775   0.140   3.361 -0.2698 -0.0300  0.0217
 5507W        W 9251   9.482   9.136  10.759  0.2096 -0.0347  0.3326
 5508W        W 9252   6.559   1.528  10.095  0.1064 -0.0832  0.1094
 5509W        W 9253   9.752   7.212  11.494  0.1186  0.3497 -0.4565
 5510W        W 9254   1.019   2.289  12.618  0.0863 -0.0268 -0.0422
 5511W        W 9255   5.022   0.672  10.188 -0.2374  0.1727 -0.0303
 5512W        W 9256   7.060   6.247  12.327  0.0682 -0.3553 -0.0796
 5513W        W 9257   3.076   5.762  12.434 -0.0730 -0.1475  0.0103
 5514W        W 9258   3.877   9.790   8.935  0.2248  0.0846 -0.3051
 5515W        W 9259   3.635   4.014   3.281 -0.2213 -0.2892  0.0876
 5516W        W 9260   8.070   5.692   9.005  0.0492  0.1660  0.0662
 5517W        W 9261   3.789   4.054   2.300  0.0302 -0.0451 -0.3209
 5518W        W 9262   2.909   9.537   2.220 -0.3665  0.0658  0.1780
 5519W        W 9263   2.678   6.953  12.441 -0.0108 -0.2184 -0.2839
 5520W        W 9264   0.518   2.719   8.042  0.1153  0.3230  0.3776
 5521W        W 9265   3.284   6.543   1.261 -0.1379 -0.0187  0.0233
 5522W        W 9266   2.547   0.976   2.035  0.1257 -0.1611 -0.2497
 5523W        W 9267   4.412   5.456   2.367 -0.0584 -0.1981 -0.2691
 5524W        W 9268   3.811   5.496  12.717  0.0296  0.2412 -0.0796
 5525W        W 9269   8.756   3.567   1.487  0.1601 -0.3347 -0.0920
 5526W        W 9270   6.359   8.461   8.463 -0.1034  0.0435 -0.2461
 5527W        W 9271   3.476   0.734  12.745  0.0284 -0.2345  0.0898
 5528W        W 9272   3.164   4.496  10.888  0.1829 -0.0588 -0.0714
 5529W        W 9273   7.999   6.049  12.033 -0.2050  0.1769 -0.1240
 5530W        W 9274   9.863   5.441   0.353  0.1076  0.1439  0.1378
 5531W        W 9275   4.819   5.949  11.084 -0.1283 -0.3421 -0.2674
 5532W        W 9276   0.314   7.543  11.417 -0.3198 -0.3892  0.1555
 5533W        W 9277   6.615   5.400  10.461 -0.1070 -0.1121  0.2197
 5534W        W 9278   4.236   2.896   0.734 -0.4522  0.2499 -0.0471
 5535W        W 9279   5.971   8.111  11.927  0.0166  0.0320  0.2093
 5536W        W 9280   9.681   9.783   3.527  0.0781  0.1872  0.1535
 5537W        W 9281   7.554   9.428   0.202  0.1195 -0.3713  0.2405
 5538W        W 9282   6.608   0.609  12.592  0.1471 -0.4802 -0.2440
 5539W        W 9283   6.874   4.551   0.060 -0.0194 -0.0320  0.1057
 5540W        W 9284   3.996   5.403   9.175 -0.1486  0.1259 -0.0397
 5541W        W 9285   2.598   0.846   0.391  0.2947  0.1889  0.1090
 5542W        W 9286   3.462   3.667   2.384 -0.3599 -0.3148 -0.2088
 5543W        W 9287   7.440   4.595   8.548  0.0174 -0.1756 -0.1988
 5544W        W 9288   9.606   1.115   9.511  0.1286 -0.1699  0.0468
 5545W        W 9289   2.265   7.073   9.998 -0.1313  0.1826 -0.1717
 5546W        W 9290   5.197   4.249   9.616 -0.2453 -0.0600 -0.0691
 5547W        W 9291   7.570   1.419  12.026 -0.1551 -0.2248 -0.2666
 5548W        W 9292   0.912   3.818   3.724  0.0731 -0.1911 -0.0561
 5549W        W 9293   6.099   7.732  12.247 -0.2094  0.1076 -0.0366
 5550W        W 9294   8.115   5.439   1.515  0.3864  0.2966 -0.2344
 5551W        W 9295   6.682   1.796   4.037 -0.0469 -0.1828  0.1060
 5552W        W 9296   3.225   9.197  10.908  0.2447 -0.0632 -0.2847
 5553W        W 9297   6.064   6.281   9.415  0.1834  0.2338 -0.1613
 5554W        W 9298   5.135   0.209  12.020 -0.3416  0.1617 -0.2010
 5555W        W 9299   4.171   2.522   2.196 -0.4310  0.0617  0.0489
 5556W        W 9300   2.232   3.439  11.549  0.0348  0.1393  0.2886
 5557W        W 9301   9.622   0.644  11.829 -0.2075  0.1777 -0.0340
 5558W        W 9302   2.647   4.774  11.658  0.0245  0.1203  0.0250
 5559W        W 9303   2.091   4.238   3.573  0.1208  0.0409  0.2643
 5560W        W 9304   5.580   7.187  12.853 -0.1713 -0.0418 -0.0721
 5561W        W 9305   3.441   5.216   2.463  0.0325 -0.0497  0.0357
 5562W        W 9306   3.104   2.899   0.514  0.1479 -0.0401  0.3664
 5563W        W 9307   3.027   2.314   8.517 -0.0478 -0.0712 -0.0213
 5564W        W 9308   4.030   7.294   0.362  0.0543 -0.0753  0.4115
 5565W        W 9309   3.600   8.992   3.515  0.0561  0.3952  0.0961
 5566W        W 9310   3.805   6.282   2.740 -0.0387  0.1637  0.2258
 5567W        W 9311   0.180   1.023  11.715  0.1623  0.0530  0.0370
 5568W        W 9312   0.254   1.966   3.934  0.1617  0.1075  0.3942
 5569W        W 9313   7.971   2.645   9.684 -0.2124 -0.1863  0.0346
 5570W        W 9314   1.976   9.312   4.088  0.1252 -0.0781  0.1855
 5571W        W 9315   4.526   1.659  11.513  0.0456  0.3181 -0.0227
 5572W        W 9316   8.040   2.846  10.463  0.1629 -0.3840 -0.0499
 5573W        W 9317   8.373   8.938  12.538  0.0037 -0.1249 -0.1060
 5574W        W 9318   4.123   3.806  10.610 -0.2294 -0.2379  0.0120
 5575W        W 9319   6.041   8.548   2.608  0.0655  0.1321 -0.2057
 5576W        W 9320   8.242   7.502  10.503 -0.1702 -0.0011 -0.0983
 5577W        W 9321   1.763   3.005   1.625 -0.0041  0.1648 -0.1827
 5578W        W 9322   1.060   9.099   2.083  0.1584  0.0237  0.2174
 5579W        W 9323   5.649   2.519   9.420 -0.0700  0.1206 -0.0276
 5580W        W 9324   3.647   8.101   2.322 -0.0233 -0.0346  0.0976
 5581W        W 9325   3.066   5.930   8.343 -0.2543  0.1658  0.1532
 5582W        W 9326   0.275   5.733   3.190  0.1987  0.0488 -0.1128
 5583W        W 9327   0.942   2.900   4.609 -0.1523 -0.0518 -0.0933
 5584W        W 9328   4.325   8.890  10.201  0.1515  0.0046  0.1314
 5585W        W 9329   9.095   5.288   3.686 -0.1158 -0.5183  0.1063
 5586W        W 9330   3.096   4.657  11.852  0.2991 -0.4107  0.4605
 5587W        W 9331   3.708   7.504   0.646 -0.1715 -0.0301 -0.0893
 5588W        W 9332   5.711   3.359   2.349 -0.0370  0.0888  0.1591
 5589W        W 9333   2.440   6.748  10.432  0.0770 -0.3003 -0.0859
 5590W        W 9334   9.587   4.627   5.068 -0.2200 -0.2776  0.1504
 5591W        W 9335   0.202   0.830   3.288  0.0748  0.1880 -0.3507
 5592W        W 9336   6.447   4.362   8.829  0.3288 -0.2830  0.2454
 5593W        W 9337   9.802   5.244   0.820  0.0805  0.2650 -0.1676
 5594W        W 9338   6.594   9.156   0.187  0.2891  0.0767  0.0543
 5595W        W 9339   7.275   5.321   4.243  0.2583  0.0655  0.0279
 5596W        W 9340   7.562   3.711  12.813  0.1551 -0.4919  0.3022
 5597W        W 9341   4.119   1.461   3.292 -0.3553 -0.0919  0.1455
 5598W        W 9342   7.986   1.419   4.003 -0.2856  0.0498 -0.1893
 5599W        W 9343   9.549   3.685   2.981  0.0999  0.1446 -0.0890
 5600W        W 9344   0.205   0.755   2.487 -0.1078 -0.0660 -0.1937
 5601W        W 9345   7.641   4.848   1.980 -0.2235 -0.1154 -0.4662
 5602W        W 9346   1.244   3.412   1.216  0.0541  0.0816  0.3858
 5603W        W 9347   1.916   1.235   0.947 -0.1208 -0.0403 -0.3715
 5604W        W 9348   0.440   3.308   1.940  0.1868  0.0702 -0.4061
 5605W        W 9349   3.062   3.145  10.595 -0.0461  0.0731  0.3174
 5606W        W 9350   2.740   3.871   0.357  0.0215 -0.1167  0.0071
 5607W        W 9351   5.206   4.013  11.592 -0.0698  0.2888  0.1070
 5608W        W 9352   0.213   1.972   4.483  0.0118 -0.1581 -0.0507
 5609W        W 9353   7.889   4.152   4.341  0.0832 -0.0035  0.2984
 5610W        W 9354   2.977   5.958   2.140  0.0869 -0.1192  0.0818
 5611W        W 9355   2.678   8.390   3.168 -0.5365  0.4131 -0.0000
 5612W        W 9356   7.430   2.205  11.500 -0.0878 -0.0254  0.0154
 5613W        W 9357   8.387   2.910   2.987  0.0239 -0.1314  0.3064
 5614W        W 9358   9.417   7.841   2.127 -0.3440 -0.1897 -0.1188
 5615W        W 9359   3.393   7.712   2.456 -0.2226  0.0839  0.1106
 5616W        W 9360   6.964   6.973  12.214 -0.0072  0.3763  0.1675
 5617W        W 9361   5.431   6.695   3.160 -0.1279  0.0838  0.2526
 5618W        W 9362   0.871   3.292   1.658  0.1732 -0.0746  0.0229
 5619W        W 9363   2.628   2.975   2.852 -0.1533  0.0468 -0.0639
 5620W        W 9364   3.576   7.792   0.189  0.0104  0.0590  0.0726
 5621W        W 9365   5.223   9.114  10.290  0.3183  0.2686 -0.0431
 5622W        W 9366   6.039   5.824   2.510 -0.0079 -0.2558  0.0139
 5623W        W 9367   6.832   3.465   9.931 -0.1540 -0.0228  0.1487
 5624W        W 9368   9.010   7.990  10.372  0.1600  0.1953  0.0060
 5625W        W 9369   6.000   4.899   9.650 -0.1822  0.2807 -0.0289
 5626W        W 9370   8.620   7.180  10.224  0.2693 -0.0712 -0.1856
 5627W        W 9371   2.861   6.233   1.262 -0.2938 -0.0738 -0.1040
 5628W        W 9372   0.736   9.459   4.522 -0.0757 -0.1695  0.2329
 5629W        W 9373   4.413   4.360   1.703  0.0332  0.0809 -0.0680
 5630W        W 9374   1.512   3.821   0.303 -0.1747  0.1277 -0.1658
 5631W        W 9375   1.558   5.902   9.661 -0.1093 -0.1781 -0.1866
 5632W        W 9376   5.211   7.255  12.436 -0.1778  0.3108 -0.2357
 5633W        W 9377   1.397   7.269   0.528 -0.1058 -0.1574 -0.1512
 5634W        W 9378   6.711   2.607   0.795 -0.1096 -0.1019  0.0646
 5635W        W 9379   4.736   5.486  11.561  0.0559 -0.0251  0.2442
 5636W        W 9380   8.112   6.545   8.746 -0.1663  0.0481  0.2288
 5637W        W 9381   9.068   1.325   0.723  0.2361 -0.1540 -0.1333
 5638W        W 9382   4.612   7.106   3.381  0.0738  0.3972  0.0336
 5639W        W 9383   9.459   5.214   1.184  0.2238 -0.0765  0.1726
 5640W        W 9384   0.565   3.225   9.897  0.4470 -0.0620  0.1041
 5641W        W 9385   9.358   0.860  10.357 -0.1949  0.0040  0.1766
 5642W        W 9386   2.420   9.841  12.205 -0.0109 -0.2548  0.5212
 5643W        W 9387   4.836   9.538  10.068  0.0015 -0.0984  0.4324
 5644W        W 9388   7.056   8.774  11.017 -0.0888 -0.0075  0.0563
 5645W        W 9389   7.015   7.588  10.221 -0.1294 -0.1264 -0.0166
 5646W        W 9390   7.908   5.911  10.346 -0.0148  0.0227  0.2508
 5647W        W 9391   5.242   5.464  11.788 -0.3133  0.2266  0.0068
 5648W        W 9392   7.832   9.822   0.495 -0.1523  0.1309  0.0572
 5649W        W 9393   3.491   5.352  11.122 -0.1563 -0.4179  0.0078
 5650W        W 9394   9.511   9.443  12.898 -0.1016  0.4804 -0.1765
 5651W        W 9395   3.380   1.474   2.634 -0.3470  0.2765  0.1088
 5652W        W 9396   3.930   1.352   1.607 -0.3550  0.0453  0.1570
 5653W        W 9397   3.736   6.303  11.134  0.0746  0.0134  0.1138
 5654W        W 9398   8.111   0.682   1.077  0.0086  0.2564 -0.0859
 5655W        W 9399   2.253   3.783   3.215  0.0776 -0.0327  0.0601
 5656W        W 9400   4.473   8.063  10.521  0.3000  0.2545 -0.1101
 5657W        W 9401   9.044   1.033  10.682 -0.0922  0.0937  0.5171
 5658W        W 9402   1.844   9.288   2.123  0.0863 -0.2826  0.2010
 5659W        W 9403   7.713   4.568   9.933 -0.2144  0.1101 -0.2209
 5660W        W 9404   5.638   9.568   2.691 -0.2770 -0.1466 -0.0803
 5661W        W 9405   2.024   3.738   3.673  0.3006  0.3428  0.0085
 5662W        W 9406   4.608   1.195   0.470  0.3671 -0.2927  0.1986
 5663W        W 9407   8.366   4.875  12.727 -0.5584  0.0965  0.3784
 5664W        W 9408   4.259   4.574   2.781  0.0222 -0.2354  0.0566
 5665W        W 9409   8.823   6.054  11.432 -0.1908  0.1387  0.0519
 5666W        W 9410   2.610   6.253   2.355 -0.1536  0.0483 -0.0762
 5667W        W 9411   5.121   5.787  10.723 -0.0400  0.1113  0.1786
 5668W        W 9412   8.034   5.075   3.255 -0.2529  0.0162  0.3586
 5669W        W 9413   9.501   4.961   2.490 -0.1951  0.1024 -0.1687
 5670W        W 9414   0.581   4.324  10.363 -0.0086  0.3192  0.3267
 5671W        W 9415   9.331   2.580   2.156  0.2844 -0.2483 -0.1891
 5672W        W 9416   8.133   6.651  10.009 -0.0541  0.0424 -0.0364
 5673W        W 9417   2.839   3.768  11.563 -0.2419 -0.1386 -0.1870
 5674W        W 9418   4.288   5.038   2.648  0.2941 -0.3842  0.0468
 5675W        W 9419   7.538   2.501   2.783  0.0393  0.3721 -0.0954
 5676W        W 9420   1.980   3.093  12.873  0.1525 -0.1375  0.1506
 5677W        W 9421   9.229   6.628  12.486  0.1463 -0.0787  0.0576
 5678W        W 9422   3.958   4.795   3.719  0.0300  0.1660  0.1730
 5679W        W 9423   9.231   9.201  11.350 -0.0485 -0.2402 -0.2742
 5680W        W 9424   6.610   7.944  11.735  0.2642 -0.2004 -0.1290
 5681W        W 9425   4.849   5.521   9.685  0.1262 -0.3986 -0.2943
 5682W        W 9426   7.684   1.567   1.712 -0.3191  0.0401  0.0691
 5683W        W 9427   3.087   9.219  10.069 -0.0018  0.0326  0.5642
 5684W        W 9428   6.274   6.948  10.012  0.2022  0.1014 -0.3436
 5685W        W 9429   8.060   6.417   2.226 -0.1524  0.1325  0.0888
 5686W        W 9430   0.935   3.463  10.988 -0.1631 -0.0094 -0.3411
 5687W        W 9431   9.308   6.716   0.012  0.1847 -0.0696 -0.1119
 5688W        W 9432   3.018   1.871   0.546 -0.0482  0.0746 -0.1387
 5689W        W 9433   3.646   4.515   3.411 -0.2247  0.1426 -0.0093
 5690W        W 9434   5.642   6.022   2.280  0.3638 -0.0457  0.0576
 5691W        W 9435   6.820   5.945   2.881 -0.1646  0.1101  0.0178
 5692W        W 9436   5.773   2.620   9.907 -0.0320  0.0252  0.0506
 5693W        W 9437   2.331   4.565   9.084 -0.4645 -0.1982  0.0401
 5694W        W 9438   2.302   5.174  12.499  0.0085  0.2557  0.0828
 5695W        W 9439   4.498   7.541   1.357 -0.0343  0.0057  0.0820
 5696W        W 9440   1.368   1.503  11.468 -0.1520  0.1213  0.3300
 5697W        W 9441   7.629   0.090  10.373 -0.4042  0.0492  0.0315
 5698W        W 9442   8.518   4.720   4.893 -0.1322 -0.1752  0.2041
 5699W        W 9443   8.364   0.945  12.892 -0.1206 -0.1310  0.0502
 5700W        W 9444   9.619   2.425   8.979  0.2056 -0.1037  0.0871
 5701W        W 9445   8.922   9.332   1.086  0.0882  0.2012  0.1696
 5702W        W 9446   3.752   9.144   2.668  0.3623 -0.2869  0.2671
 5703W        W 9447   2.441   1.968   5.062  0.1019  0.2001  0.3505
 5704W        W 9448   4.513   6.925   2.877 -0.1228  0.1243  0.0196
 5705W        W 9449   6.868   9.289   0.945 -0.0596 -0.2103  0.2735
 5706W        W 9450   1.734   0.635   3.100  0.0335  0.1535  0.2598
 5707W        W 9451   4.600   3.969  10.982 -0.0180  0.1292  0.0621
 5708W        W 9452   1.244   5.420   2.199  0.2215  0.0983 -0.3277
 5709W        W 9453   3.112   5.115  10.887  0.0465 -0.2237  0.2366
 5710W        W 9454   3.844   0.770   2.216 -0.0533  0.0622 -0.1463
 5711W        W 9455   0.775   4.894  11.162  0.1259  0.4345  0.1172
 5712W        W 9456   4.836   8.706  10.088  0.0316  0.1183  0.2434
 5713W        W 9457   5.566   1.270   2.727 -0.4477 -0.2861  0.1370
 5714W        W 9458   0.579   2.328   9.392 -0.0648  0.0205 -0.6118
 5715W        W 9459   9.274   3.883   9.676  0.4406 -0.1136 -0.0458
 5716W        W 9460   4.991   2.400  10.386  0.0231  0.2048  0.0101
 5717W        W 9461   9.540   1.140  11.033 -0.1985  0.1265 -0.3348
 5718W        W 9462   4.894   2.362   9.919 -0.0388  0.0117  0.0562
 5719W        W 9463   0.706   8.331  11.085  0.1342 -0.0265  0.1816
 5720W        W 9464   5.210   0.336   0.678 -0.3118 -0.0022  0.0142
 5721W        W 9465   3.114   6.503   2.247 -0.0580  0.1072 -0.3677
 5722W        W 9466   7.751   1.936  11.814 -0.2105  0.2245  0.1535
 5723W        W 9467   9.857   8.603   2.311 -0.1147  0.0196 -0.0288
 5724W        W 9468   4.717   5.962  10.455  0.5070  0.1954  0.0508
 5725W        W 9469   3.500   8.263  11.869 -0.1405  0.2968 -0.0534
 5726W        W 9470   6.491   9.159   9.683 -0.0264  0.1438 -0.1529
 5727W        W 9471   2.974   1.964  12.058  0.3477  0.0647 -0.2673
 5728W        W 9472   1.919   4.263   8.441 -0.1922 -0.0007 -0.0252
 5729W        W 9473   9.399   8.567  12.911  0.0060  0.0385  0.1087
 5730W        W 9474   5.967   2.936  11.452  0.2464 -0.1250  0.0565
 5731W        W 9475   6.216   1.438   1.988  0.0099 -0.2455 -0.0440
 5732W        W 9476   7.973   6.038   1.905  0.3589 -0.0325  0.1391
 5733W        W 9477   4.877   7.044   1.901  0.0997 -0.1959  0.0452
 5734W        W 9478   2.461   1.337   8.482  0.2253 -0.2875 -0.0492
 5735W        W 9479   8.708   3.638  12.348  0.3697 -0.1566 -0.0020
 5736W        W 9480   2.551   6.242   1.644 -0.2487 -0.3360  0.2456
 5737W        W 9481   7.190   0.368  10.543 -0.0800  0.1221  0.1117
 5738W        W 9482   6.237   3.796   0.205  0.1306  0.0180 -0.1036
 5739W        W 9483   2.285   6.480  11.763  0.0518 -0.0649  0.1965
 5740W        W 9484   2.388   2.715  12.233 -0.1926  0.1325  0.0147
 5741W        W 9485   7.034   3.421   1.644  0.2523 -0.0665  0.0432
 5742W        W 9486   5.328   9.594   7.624  0.2820 -0.0336 -0.1222
 5743W        W 9487   1.303   6.211  11.880 -0.1717 -0.2253  0.0129
 5744W        W 9488   3.314   4.783  12.802 -0.0920 -0.1639  0.0981
 5745W        W 9489   7.303   4.287   2.460 -0.2778  0.2272  0.0523
 5746W        W 9490   5.986   4.722   2.019  0.0347 -0.1446 -0.0560
 5747W        W 9491   3.921   9.313   1.802  0.0278 -0.0002  0.2631
 5748W        W 9492   3.140   1.739   1.547 -0.0190  0.2576 -0.3126
 5749W        W 9493   7.656   0.694   9.812  0.0350 -0.1513 -0.2515
 5750W        W 9494   9.134   9.742   0.821 -0.2083 -0.4064  0.2514
 5751W        W 9495   4.671   5.549  10.789  0.1496  0.1929 -0.0637
 5752W        W 9496   2.316   4.770   1.217 -0.1401  0.1142 -0.0912
 5753W        W 9497   0.737   5.971   1.849 -0.0491 -0.1560 -0.2254
 5754W        W 9498   7.133   3.405   0.587 -0.0692 -0.0937 -0.0825
 5755W        W 9499   3.287   3.659  10.575  0.0505 -0.1761  0.3700
 5756W        W 9500   8.718   9.251  12.862 -0.0904 -0.3177  0.2037
 5757W        W 9501   9.680   8.250  11.505  0.1374 -0.2692  0.2563
 5758W        W 9502   3.438   4.378   9.434 -0.1192  0.0756 -0.1856
 5759W        W 9503   9.335   7.670   1.599 -0.1353 -0.0662  0.0424
 5760W        W 9504   6.985   4.267   1.605  0.0815 -0.1030  0.0931
 5761W        W 9505   7.906   7.893  10.553 -0.0817  0.0323  0.1743
 5762W        W 9506   3.327   9.623   0.009 -0.1390  0.2710  0.1056
 5763W        W 9507   1.445   8.267   1.157 -0.0367 -0.1412  0.2091
 5764W        W 9508   9.676   9.825   3.042 -0.0589  0.0186 -0.0255
 5765W        W 9509   5.789   9.837   1.458 -0.1959 -0.1482 -0.3496
 5766W        W 9510   8.673   6.845   3.252  0.1311  0.0770 -0.2291
 5767W        W 9511   4.889   9.581   1.061 -0.0243 -0.1052 -0.1084
 5768W        W 9512   0.083   8.511   3.329 -0.2216  0.1500  0.0828
 5769W        W 9513   7.951   7.085   1.396 -0.1269 -0.1179  0.1691
 5770W        W 9514   6.750   9.173   1.443 -0.0051  0.0489 -0.1438
 5771W        W 9515   9.740   7.683  12.977  0.1331  0.0433  0.2622
 5772W        W 9516   2.394   4.672  12.934 -0.1790  0.1475  0.2229
 5773W        W 9517   9.595   6.119   1.120  0.0434 -0.0716 -0.0297
 5774W        W 9518   7.967   2.908   0.033  0.2599  0.1143 -0.0575
 5775W        W 9519   0.034   7.166   9.930  0.0688 -0.0203 -0.0863
 5776W        W 9520   5.957   5.117  12.156 -0.2327  0.0818  0.0328
 5777W        W 9521   7.966   2.325  10.336  0.0024 -0.0032 -0.1161
 5778W        W 9522   4.366   8.692   1.045 -0.1533 -0.2540 -0.0315
 5779W        W 9523   2.518   7.076   3.614  0.0192 -0.0007 -0.3000
 5780W        W 9524   6.971   7.681   0.953  0.0315 -0.0567  0.1868
 5781W        W 9525   1.852   3.153   8.646 -0.1345 -0.1834 -0.1882
 5782W        W 9526   8.583   1.556  12.671 -0.3244 -0.3172 -0.0153
 5783W        W 9527   3.852   2.026   2.834 -0.2111 -0.3292 -0.2053
 5784W        W 9528   3.744   1.509   0.022  0.1016 -0.0410 -0.2143
 5785W        W 9529   4.859   3.220   1.381  0.0864  0.2175  0.3341
 5786W        W 9530   6.727   9.728  11.195  0.2360  0.1940  0.2282
 5787W        W 9531   1.409   0.949   9.966  0.1404 -0.0031  0.0438
 5788W        W 9532   0.843   9.689   0.782  0.1508  0.4247  0.1881
 5789W        W 9533   6.290   1.447   0.537 -0.0999 -0.0592 -0.1169
 5790W        W 9534   3.345   3.826   4.287  0.1499  0.0003 -0.1157
 5791W        W 9535   5.592   8.479   9.304  0.3835  0.0615 -0.1560
 5792W        W 9536   9.485   4.231  10.952 -0.0235 -0.0256  0.1386
 5793W        W 9537   6.749   0.778   1.173  0.0815 -0.1771  0.1009
 5794W        W 9538   4.629   8.470   3.402  0.0860 -0.0956  0.2938
 5795W        W 9539   0.194   2.823   5.010 -0.2156  0.3304 -0.3453
 5796W        W 9540   3.272   6.859   1.664  0.1347 -0.1155 -0.2977
 5797W        W 9541   2.115   2.840  10.523  0.3060  0.1558  0.1849
 5798W        W 9542   3.153   2.556  12.568 -0.0913  0.0176  0.2822
 5799W        W 9543   5.918   6.563   9.837 -0.1113  0.3226 -0.2831
 5800W        W 9544   3.476   8.082  12.766  0.0873  0.2847  0.0299
 5801W        W 9545   8.795   8.550  10.811 -0.0405 -0.0354  0.0072
 5802W        W 9546   7.583   1.977   0.398 -0.0702 -0.2032  0.1411
 5803W        W 9547   2.310   0.575   3.340 -0.2939  0.0733  0.3827
 5804W        W 9548   6.181   4.168   3.421  0.0743  0.1870  0.3310
 5805W        W 9549   5.544   3.850   2.950 -0.0653 -0.0475  0.0864
 5806W        W 9550   9.876   1.045  12.598 -0.0360  0.0247 -0.0250
 5807W        W 9551   3.572   0.578  11.401 -0.0238  0.1504 -0.0246
 5808W        W 9552   4.436   3.582   4.586 -0.0463 -0.1651 -0.1074
 5809W        W 9553   8.869   5.596  10.152  0.1299  0.0601  0.1934
 5810W        W 9554   3.147   6.986   3.476  0.1324  0.2125  0.1691
 5811W        W 9555   9.811   0.279  10.906  0.1242 -0.1595  0.0169
 5812W        W 9556   8.116   3.231   8.595 -0.0238 -0.2258  0.1084
 5813W        W 9557   3.694   7.293  11.073  0.5047 -0.0215 -0.1886
 5814W        W 9558   2.626   4.811   4.035 -0.0136 -0.2029 -0.0283
 5815W        W 9559   1.281   6.405  10.757  0.1100  0.0010 -0.0451
 5816W        W 9560   6.845   8.412  12.050  0.1708 -0.0037  0.1052
 5817W        W 9561   6.920   7.527  12.424  0.1062  0.1204 -0.0894
 5818W        W 9562   6.690   1.116  11.807  0.0316  0.2794  0.0604
 5819W        W 9563   9.710   9.447  10.255  0.2093 -0.1468 -0.0559
 5820W        W 9564   5.341   3.152   2.611  0.0531 -0.0715  0.2601
 5821W        W 9565   6.706   4.670   9.076 -0.3288 -0.0556 -0.0607
 5822W        W 9566   3.036   3.615   2.185  0.0317 -0.1642  0.0137
 5823W        W 9567   2.707   1.798   8.136 -0.0498  0.2391  0.1459
 5824W        W 9568   1.878   6.078  12.747 -0.1681 -0.0970  0.0989
 5825W        W 9569   9.622   4.620   4.142 -0.2296 -0.1651 -0.0671
 5826W        W 9570   8.618   5.088   2.259 -0.3933  0.1136 -0.0713
 5827W        W 9571   3.456   7.863  12.241 -0.0239  0.0180  0.0257
 5828W        W 9572   5.852   9.148  11.915  0.2174 -0.0130  0.1187
 5829W        W 9573   1.916   5.864   1.086 -0.0150  0.0435  0.0357
 5830W        W 9574   2.758   1.180   0.758  0.1144  0.0650 -0.2437
 5831W        W 9575   0.710   0.267  10.653  0.0937 -0.0785  0.1026
 5832W        W 9576   4.168   8.943   0.056 -0.0889 -0.0370 -0.2120
 5833W        W 9577   7.642   3.054   9.644 -0.2243  0.2506  0.1319
 5834W        W 9578   8.969   4.213   2.767 -0.0669  0.0079 -0.0591
 5835W        W 9579   6.313   9.575   0.066  0.0432  0.2111  0.1599
 5836W        W 9580   0.153   3.597  12.130 -0.0155 -0.0265  0.2441
 5837W        W 9581   3.420   9.721  10.987 -0.0406  0.1860  0.4293
 5838W        W 9582   6.355   0.066   0.362  0.0676  0.1431 -0.2804
 5839W        W 9583   1.086   2.488   1.843 -0.0039 -0.2753  0.0385
 5840W        W 9584   0.342   6.113  10.487 -0.0478  0.1006  0.0203
 5841W        W 9585   7.809   6.189  10.973 -0.3679 -0.1923  0.0893
 5842W        W 9586   2.137   0.519   8.984 -0.2080  0.0649 -0.0793
 5843W        W 9587   0.460   0.576  11.168  0.2198  0.0222  0.0196
 5844W        W 9588   9.842   4.908  12.035  0.1942 -0.1589  0.0619
 5845W        W 9589   7.968   1.664  12.261  0.3147 -0.1078 -0.1986
 5846W        W 9590   9.453   0.230   2.639  0.1872  0.0914 -0.2785
 5847W        W 9591   5.268   8.240   2.308  0.2230 -0.1667 -0.0651
 5848W        W 9592   6.667   6.096   1.378 -0.0436  0.2682 -0.1242
 5849W        W 9593   7.133   7.835   3.815 -0.2554 -0.1403  0.1347
 5850W        W 9594   5.411   9.475   9.566  0.2063 -0.0121  0.2730
 5851W        W 9595   0.690   0.956   5.530 -0.0379  0.1807 -0.1817
 5852W        W 9596   5.414   9.809  12.615  0.1934 -0.0410  0.3136
 5853W        W 9597   4.136   7.657   0.835 -0.0950  0.2247  0.1353
 5854W        W 9598   4.504   8.397  11.581  0.1436 -0.2395  0.1745
 5855W        W 9599   3.170   2.997   3.145 -0.2363  0.0353  0.0551
 5856W        W 9600   1.360   1.934  11.699 -0.3497  0.0466 -0.1291
 5857W        W 9601   5.001   2.949   4.763 -0.2344  0.1163  0.2484
 5858W        W 9602   1.255   7.855   1.431  0.0038 -0.0386  0.0640
 5859W        W 9603   6.803   6.323  10.926 -0.3800  0.1278 -0.1253
 5860W        W 9604   2.331   5.898   1.324 -0.1087 -0.2610  0.1966
 5861W        W 9605   0.736   9.624   4.968  0.0440  0.1261 -0.0182
 5862W        W 9606   3.509   5.352   2.968  0.3031 -0.1492  0.1363
 5863W        W 9607   5.751   2.921   3.722 -0.0099 -0.2062  0.2253
 5864W        W 9608   0.323   3.768   2.160 -0.1559  0.2625 -0.0998
 5865W        W 9609   7.896   4.433   3.947 -0.1725 -0.0767 -0.0978
 5866W        W 9610   1.049   3.596   2.824 -0.0667 -0.3979  0.0541
 5867W        W 9611   5.623   0.777  12.447  0.0562  0.0461  0.1846
 5868W        W 9612   4.149   7.736   3.231  0.0197  0.3909 -0.2861
 5869W        W 9613   1.473   2.865   4.820  0.0334 -0.0852 -0.0855
 5870W        W 9614   9.468   7.121   0.242  0.0503 -0.1914 -0.0920
 5871W        W 9615   1.465   3.732   4.479 -0.1041  0.0877  0.0575
 5872W        W 9616   3.731   0.065   0.429  0.0934 -0.0771  0.2031
 5873W        W 9617   7.301   7.346   0.814 -0.1656 -0.2105 -0.0188
 5874W        W 9618   1.844   4.428   5.081 -0.1887 -0.2118  0.1784
 5875W        W 9619   4.599   9.761   3.958  0.1387 -0.3061 -0.0749
 5876W        W 9620   5.711   7.789   0.265 -0.0170  0.0093 -0.0948
 5877W        W 9621   9.788   0.577   9.412  0.0740 -0.3970 -0.1960
 5878W        W 9622   9.017   8.985  10.576 -0.0495 -0.0502  0.5277
 5879W        W 9623   7.434   6.298  12.722  0.1165  0.1561  0.2453
 5880W        W 9624   1.281   6.910   3.755 -0.2068 -0.1979 -0.2447
 5881W        W 9625   0.054   1.347  11.314  0.4779 -0.2279 -0.2430
 5882W        W 9626   3.943   0.867   1.669 -0.0055  0.0417  0.1325
 5883W        W 9627   1.691   0.681  12.271 -0.1742 -0.1052 -0.2831
 5884W        W 9628   5.005   8.174  11.260 -0.1658 -0.0293  0.3544
 5885W        W 9629   7.721   6.746   3.871 -0.0939  0.1176  0.0293
 5886W        W 9630   2.017   8.726  10.961 -0.1726  0.1626 -0.1853
 5887W        W 9631   9.208   6.129   4.881  0.0032 -0.0652 -0.0751
 5888W        W 9632   4.224   9.339   0.421 -0.1416  0.0776 -0.1857
 5889W        W 9633   1.903   0.961   8.999 -0.1992 -0.1466 -0.0843
 5890W        W 9634   0.457   4.292   2.892 -0.4113 -0.1173 -0.4380
 5891W        W 9635   7.526   1.075  12.961 -0.0898  0.3514  0.0371
 5892W        W 9636   0.438   0.985  10.094 -0.0938  0.1301  0.1762
 5893W        W 9637   2.833   6.652   1.474 -0.1669 -0.0712 -0.2098
 5894W        W 9638   9.580   0.864   2.551  0.0719  0.0303  0.0734
 5895W        W 9639   6.905   3.838   1.317  0.0400 -0.1423  0.1515
 5896W        W 9640   6.317   0.024   1.230  0.0539  0.0271 -0.2142
 5897W        W 9641   2.083   8.045   1.988 -0.1176  0.0848 -0.1217
 5898W        W 9642   8.353   9.617   2.128 -0.0618 -0.0658  0.1382
 5899W        W 9643   3.064   5.139  11.816 -0.0384 -0.2616  0.0269
 5900W        W 9644   2.380   5.901   1.996 -0.0290  0.0520 -0.1680
 5901W        W 9645   0.167   8.399  10.267 -0.0453  0.2298  0.1433
 5902W        W 9646   4.257   8.368  12.250  0.0542  0.1974  0.1373
 5903W        W 9647   3.088   0.407   8.642  0.1078 -0.2132 -0.1049
 5904W        W 9648   1.645   4.939  11.061 -0.2297 -0.1420  0.0733
 5905W        W 9649   3.545   3.111  11.762  0.3297 -0.0508 -0.2849
 5906W        W 9650   2.337   1.244   0.175 -0.1362 -0.1780 -0.3058
 5907W        W 9651   5.713   7.590  11.811  0.0237  0.1921 -0.0904
 5908W        W 9652   7.379   1.785   9.691  0.0687  0.0785  0.0216
 5909W        W 9653   2.858   0.354   8.192  0.0070 -0.2046  0.2206
 5910W        W 9654   0.105   3.971  10.931  0.1326  0.1317  0.1885
 5911W        W 9655   5.585   0.916  11.367 -0.0428 -0.0195 -0.1288
 5912W        W 9656   3.065   6.865   0.245  0.0110  0.1702  0.2672
 5913W        W 9657   9.579   3.438   9.731 -0.2264  0.1109 -0.0702
 5914W        W 9658   0.177   5.284   3.521 -0.1188  0.0809  0.3563
 5915W        W 9659   1.480   8.638  12.811  0.0623 -0.1274  0.0163
 5916W        W 9660   4.775   1.345   3.762 -0.2901 -0.0211  0.1637
 5917W        W 9661   7.335   6.840  12.778 -0.2830 -0.4888  0.1343
 5918W        W 9662   8.894   7.405   3.370 -0.2630  0.1769  0.1545
 5919W        W 9663   8.662   9.662   9.052 -0.2468 -0.2736 -0.1397
 5920W        W 9664   6.278   9.177   1.895 -0.2371 -0.1049 -0.0021
 5921W        W 9665   0.527   7.339   9.892  0.1519  0.0150  0.1873
 5922W        W 9666   6.683   0.605  11.385  0.1891  0.5024  0.0031
 5923W        W 9667   6.807   2.862   4.318  0.2569 -0.0145 -0.4123
 5924W        W 9668   6.013   9.693   2.305  0.3992 -0.2138 -0.1042
 5925W        W 9669   1.137   8.891   2.739  0.0772  0.1825  0.0734
 5926W        W 9670   8.944   5.510   2.018  0.2060 -0.2830  0.2830
 5927W        W 9671   1.309   9.698   1.876 -0.0351  0.0594  0.1129
 5928W        W 9672   7.309   1.207   3.355  0.5394 -0.1776  0.3784
 5929W        W 9673   4.700   4.275   1.257 -0.0525 -0.0269  0.2396
 5930W        W 9674   2.839   1.426   0.340 -0.0426  0.1148 -0.5421
 5931W        W 9675   1.662   6.593  11.030 -0.2165 -0.1324  0.2853
 5932W        W 9676   9.022   2.601   3.961  0.2385  0.2872  0.1230
 5933W        W 9677   4.301   2.697   1.250  0.2000 -0.2576  0.2231
 5934W        W 9678   9.026   8.275   2.669  0.0994 -0.1721 -0.0870
 5935W        W 9679   7.554   8.443  12.623 -0.3699 -0.2327 -0.0347
 5936W        W 9680   5.969   4.147  11.207  0.1383 -0.2429 -0.0434
 5937W        W 9681   8.419   7.494   4.012  0.0435 -0.1197  0.1254
 5938W        W 9682   6.847   4.706   1.446  0.0643 -0.1205  0.0208
 5939W        W 9683   7.481   3.138  11.170  0.1095 -0.0996  0.1668
 5940W        W 9684   6.943   0.234   0.506 -0.0747 -0.1028 -0.1720
 5941W        W 9685   1.157   1.139  11.748 -0.0034 -0.1333 -0.0744
 5942W        W 9686   0.603   5.152   8.419 -0.2327 -0.0569 -0.1878
 5943W        W 9687   9.583   1.101   3.853 -0.1176 -0.0063  0.2173
 5944W        W 9688   8.339   6.305   8.263  0.1818 -0.4581  0.0484
 5945W        W 9689   0.543   7.759   8.973  0.0283 -0.1534 -0.2289
 5946W        W 9690   8.073   3.133  10.894  0.2745 -0.1302  0.2818
 5947W        W 9691   6.876   2.211  11.845 -0.2927  0.3273 -0.2441
 5948W        W 9692   0.843   0.551  10.316  0.1897 -0.3670  0.2293
 5949W        W 9693   5.334   3.353  11.052 -0.1364  0.4239 -0.3907
 5950W        W 9694   4.914   8.346   0.121  0.1502  0.1616 -0.0419
 5951W        W 9695   5.439   5.061   0.026 -0.1073 -0.1131 -0.0287
 5952W        W 9696   5.296   6.647   1.676  0.1248  0.3456 -0.0981
 5953W        W 9697   3.649   8.827   8.198  0.2613  0.0337  0.0984
 5954W        W 9698   6.042   6.576   8.544  0.2502 -0.0061  0.0071
 5955W        W 9699   0.791   7.526  11.669  0.2735  0.2279 -0.1738
 5956W        W 9700   3.839   5.774   1.571  0.0068 -0.1686  0.1209
 5957W        W 9701   2.744   8.528  12.361  0.1685  0.0936  0.0338
 5958W        W 9702   7.572   2.705   2.262 -0.0847 -0.0051  0.2608
 5959W        W 9703   2.172   0.745   2.377 -0.5706 -0.3253 -0.0666
 5960W        W 9704   7.785   3.749  12.328  0.0876  0.2372 -0.0005
 5961W        W 9705   5.797   3.570   0.318 -0.0667 -0.2836 -0.0557
 5962W        W 9706   7.588   3.415   1.583  0.1158 -0.1296 -0.4129
 5963W        W 9707   1.219   0.077   8.631 -0.0167 -0.2732  0.2034
 5964W        W 9708   3.455   4.279   3.817  0.0001  0.1188 -0.2394
 5965W        W 9709   3.669   6.608   0.833  0.0028  0.0555 -0.3349
 5966W        W 9710   5.079   6.739  12.324 -0.2650 -0.0490 -0.2069
 5967W        W 9711   6.644   1.827  11.598  0.1423 -0.3004  0.0678
 5968W        W 9712   4.098   1.111   2.914  0.1111 -0.3354  0.0413
 5969W        W 9713   7.561   8.721   9.633 -0.1537 -0.0039  0.1231
 5970W        W 9714   1.510   1.372   3.204 -0.1191  0.3840 -0.2167
 5971W        W 9715   2.507   8.881   2.433  0.5660 -0.2774  0.1235
 5972W        W 9716   7.551   8.750   1.157  0.0022 -0.0140 -0.0252
 5973W        W 9717   7.571   0.858   1.808  0.1374 -0.1248 -0.3377
 5974W        W 9718   1.113   1.315   3.741  0.5681 -0.0403  0.1751
 5975W        W 9719   3.366   8.676   0.624 -0.3054 -0.2763  0.0091
 5976W        W 9720   0.259   7.516   0.822  0.3491 -0.0055 -0.2797
 5977W        W 9721   6.123   8.042  11.404 -0.1558  0.3222 -0.1367
 5978W        W 9722   6.898   6.796  10.172  0.2678  0.0194 -0.0026
 5979W        W 9723   4.564   9.304  11.459 -0.3507 -0.0222 -0.1068
 5980W        W 9724   0.757   7.767   3.606  0.4263 -0.2020 -0.1783
 5981W        W 9725   8.939   0.489  11.492 -0.3810  0.0794 -0.1913
 5982W        W 9726   9.878   0.012  10.278 -0.0294 -0.1666 -0.2336
 5983W        W 9727   3.412   1.251   9.916 -0.2732 -0.1274 -0.1809
 5984W        W 9728   0.534   0.019   0.468 -0.0144 -0.0386  0.2148
 5985W        W 9729   3.849   8.178   1.106  0.1359 -0.0115 -0.1945
 5986W        W 9730   2.636   1.908   9.689  0.1272  0.2296 -0.0384
 5987W        W 9731   8.814   1.750  10.728  0.2554 -0.2634 -0.3303
 5988W        W 9732   3.216   4.946  12.227 -0.0472 -0.1389  0.0749
 5989W        W 9733   4.895   6.083   0.370 -0.2614  0.2408 -0.0388
 5990W        W 9734   9.182   3.416   3.078  0.1819 -0.0196  0.0402
 5991W        W 9735   9.288   8.525   5.194 -0.2031  0.0021 -0.1096
 5992W        W 9736   2.989   4.754   1.645  0.2298 -0.1463  0.1046
 5993W        W 9737   8.238   6.070   8.686 -0.0480  0.2417  0.1500
 5994W        W 9738   9.745   2.420   9.489  0.2477  0.5547  0.0168
 5995W        W 9739   1.394   3.237   4.534 -0.0590 -0.0388  0.2583
 5996W        W 9740   1.020   8.806  12.789 -0.0323  0.3894  0.4284
 5997W        W 9741   1.601   5.707   2.541  0.1808  0.1738  0.0797
 5998W        W 9742   0.361   4.386   0.705 -0.0341 -0.1116 -0.1277
 5999W        W 9743   9.261   6.030  10.307  0.4822 -0.0509 -0.0891
 6000W        W 9744   6.015   4.710  10.333 -0.1315  0.2638  0.1391
 6001W        W 9745   7.502   4.983   5.015 -0.1079  0.0238  0.1687
 6002W        W 9746   9.737   1.180   0.081 -0.3282  0.4192 -0.2901
 6003W        W 9747   2.846   1.294   2.322 -0.0309  0.3047 -0.0112
 6004W        W 9748   1.011   2.427  10.177 -0.2873  0.0463 -0.0641
 6005W        W 9749   9.640   9.781   9.300 -0.1560  0.2071  0.1414
 6006W        W 9750   7.880   7.549   3.113  0.0758  0.1680  0.1354
 6007W        W 9751   9.740   5.426   3.164  0.0847  0.3418 -0.0948
 6008W        W 9752   1.397   6.704  12.656  0.0590 -0.2350  0.0666
 6009W        W 9753   0.207   1.892   3.351 -0.1694 -0.0156 -0.0529
 6010W        W 9754   0.287   5.449   9.552 -0.0880 -0.2599 -0.2245
 6011W        W 9755   1.950   4.315   9.723 -0.1266 -0.0845  0.1189
 6012W        W 9756   1.339   8.927  11.227 -0.1649  0.0133  0.0392
 6013W        W 9757   3.667   1.916  10.456  0.1688 -0.0298 -0.1709
 6014W        W 9758   8.677   8.163   9.500 -0.0785  0.0202  0.0573
 6015W        W 9759   8.460   4.227  12.044  0.3752  0.0266 -0.0103
 6016W        W 9760   8.566   3.197   9.649 -0.3377 -0.0119  0.0404
 6017W        W 9761   5.613   7.362   8.698 -0.0424  0.1152  0.1073
 6018W        W 9762   0.968   3.849   4.246  0.0578  0.5927 -0.0551
 6019W        W 9763   5.985   0.784  12.142  0.1941  0.0005  0.1590
 6020W        W 9764   6.290   8.264   4.057  0.2253  0.0901 -0.2541
 6021W        W 9765   3.910   9.497  10.990  0.3161 -0.1138  0.0430
 6022W        W 9766   1.128   1.541  10.578 -0.0419 -0.0282 -0.2353
 6023W        W 9767   0.054   6.261   1.538  0.0811  0.1358  0.3041
 6024W        W 9768   4.561   4.632  10.443  0.2252 -0.0853 -0.1659
 6025W        W 9769   7.600   0.625  12.707 -0.0675 -0.1671  0.1277
 6026W        W 9770   1.925   8.233   1.435  0.0702 -0.2742 -0.3718
 6027W        W 9771   5.861   7.118   9.014 -0.0406  0.0897  0.0724
 6028W        W 9772   4.228   0.533   1.439  0.1828  0.2023  0.3094
 6029W        W 9773   0.469   4.652   9.609 -0.0774  0.1307 -0.1275
 6030W        W 9774   1.799   3.556   9.066 -0.0238  0.0527  0.1829
 6031W        W 9775   8.784   2.822  11.624  0.0530 -0.2415  0.3370
 6032W        W 9776   2.886   5.351  12.196  0.3017 -0.0306  0.1839
 6033W        W 9777   7.445   1.435   2.928  0.0536  0.2804  0.1160
 6034W        W 9778   6.702   0.366   1.437  0.1396  0.0091 -0.1990
 6035W        W 9779   0.647   9.227   0.719 -0.1451 -0.0404  0.1513
 6036W        W 9780   7.180   2.518   0.632 -0.0929 -0.0309 -0.0608
 6037W        W 9781   6.079   0.146   2.775 -0.0389  0.3766 -0.0126
 6038W        W 9782   3.882   6.556   1.286 -0.1961  0.1777  0.1601
 6039W        W 9783   7.077   5.006  12.809 -0.0955 -0.5573  0.1434
 6040W        W 9784   5.064   4.360   2.999 -0.4067 -0.0730  0.2866
 6041W        W 9785   7.294   0.496   1.987  0.3057 -0.1827 -0.0072
 6042W        W 9786   9.368   6.113   2.853 -0.2025 -0.4025 -0.0874
 6043W        W 9787   0.085   2.703   0.790 -0.0392  0.2226 -0.0382
 6044W        W 9788   7.502   8.173   1.281  0.1246 -0.3118  0.3099
 6045W        W 9789   5.786   4.464   0.910  0.1828  0.0554 -0.2651
 6046W        W 9790   2.762   8.699  11.368  0.1400  0.1825 -0.1454
 6047W        W 9791   6.925   8.145   0.162  0.0593 -0.0313  0.3591
 6048W        W 9792   8.354   7.778   1.817 -0.0485  0.0442  0.0117
 6049W        W 9793   5.341   6.310   0.106 -0.2193  0.0652 -0.0559
 6050W        W 9794   0.955   5.211  12.954  0.3088 -0.1327 -0.1366
 6051W        W 9795   6.976   8.452   3.007 -0.1492  0.0724  0.0678
 6052W        W 9796   8.881   9.721  10.001  0.1177  0.2534  0.1453
 6053W        W 9797   4.121   3.956  11.101 -0.2693 -0.0964  0.3110
 6054W        W 9798   2.074   4.015  12.475 -0.2071 -0.0550 -0.0678
 6055W        W 9799   6.339   2.363   3.071  0.2378  0.1855 -0.3449
 6056W        W 9800   7.021   6.147   0.934 -0.0358  0.1354 -0.3496
 6057W        W 9801   3.705   7.631   9.910 -0.1230  0.3141  0.2069
 6058W        W 9802   8.995   0.505   1.758 -0.2092 -0.0507 -0.3156
 6059W        W 9803   7.954   0.442  10.598 -0.1081  0.0228 -0.3185
 6060W        W 9804   7.371   8.420   0.828 -0.2040  0.1701  0.0857
 6061W        W 9805   3.170   3.020  10.124  0.1060 -0.0547 -0.0918
 6062W        W 9806   2.896   9.742  11.724  0.2148  0.4570 -0.1292
 6063W        W 9807   0.017   3.711   2.513  0.1046 -0.0651  0.1631
 6064W        W 9808   1.999   6.208  10.952 -0.0770  0.2469  0.1149
 6065W        W 9809   7.829   7.164  10.004  0.0867  0.3560 -0.4731
 6066W        W 9810   2.870   1.722   2.004 -0.1172  0.3192  0.2509
 6067W        W 9811   1.195   8.843   9.413  0.1720  0.0029 -0.1292
 6068W        W 9812   3.576   3.420  10.887  0.3623  0.1236  0.0186
 6069W        W 9813   8.461   9.217   0.845 -0.1458  0.0079 -0.0709
 6070W        W 9814   8.536   5.898  12.179  0.0590  0.3309 -0.3044
 6071W        W 9815   4.532   4.636   0.875 -0.0183  0.0486  0.2674
 6072W        W 9816   1.626   6.995   4.122 -0.0298 -0.0095 -0.1067
 6073W        W 9817   9.095   3.959  11.078 -0.0030  0.0277 -0.0549
 6074W        W 9818   3.486   1.616   9.522  0.2649 -0.0693  0.1848
 6075W        W 9819   0.082   4.546   3.224  0.2216  0.2299 -0.1954
 6076W        W 9820   3.554   8.271   9.248  0.0884 -0.0072 -0.0114
 6077W        W 9821   0.959   7.962   3.142  0.0736 -0.0388 -0.3062
 6078W        W 9822   6.235   6.466   1.385 -0.1456  0.1395  0.2815
 6079W        W 9823   2.867   4.266   2.848 -0.4582 -0.3192  0.1271
 6080W        W 9824   7.482   5.856  12.381  0.0100  0.0880 -0.0707
 6081W        W 9825   6.191   8.425  10.986 -0.0156 -0.1708  0.0012
 6082W        W 9826   4.344   8.789   9.207 -0.2866 -0.1502  0.3745
 6083W        W 9827   7.461   8.800   2.465 -0.1064 -0.2811 -0.0419
 6084W        W 9828   9.846   2.974  11.305  0.1003 -0.0375  0.0096
 6085W        W 9829   4.885   5.780  11.901 -0.2081 -0.1971  0.1188
 6086W        W 9830   6.489   6.952  11.925  0.2073 -0.0338  0.1769
 6087W        W 9831   4.279   0.428  12.314  0.0720  0.0165 -0.3265
 6088W        W 9832   1.101   4.987   2.476  0.0231  0.1924  0.2024
 6089W        W 9833   2.340   8.673  10.282  0.2571  0.1155 -0.1354
 6090W        W 9834   0.042   0.330   0.958  0.0369  0.0908  0.0877
 6091W        W 9835   4.954   5.578   2.335  0.3485 -0.2186 -0.1007
 6092W        W 9836   1.208   1.013   1.522 -0.0970  0.0392 -0.0283
 6093W        W 9837   4.791   0.250  12.416 -0.1205  0.3593 -0.0611
 6094W        W 9838   2.460   9.467  11.318  0.0583 -0.0735 -0.2589
 6095W        W 9839   8.594   8.902  11.990  0.1543 -0.2598  0.0159
 6096W        W 9840   4.610   3.724   2.827 -0.0046 -0.0539  0.0818
 6097W        W 9841   7.877   9.078  11.282  0.1653 -0.2976  0.1726
 6098W        W 9842   9.545   7.153   9.579  0.0301  0.2368 -0.1385
 6099W        W 9843   2.721   6.285  10.492 -0.3798 -0.0832 -0.1443
 6100W        W 9844   4.666   5.070   9.734  0.1234  0.0221 -0.1652
 6101W        W 9845   7.197   5.834   9.625 -0.1387 -0.0977 -0.0259
 6102W        W 9846   9.647   6.538   2.641  0.1970 -0.0938  0.0747
 6103W        W 9847   9.466   0.231   9.684  0.1466  0.0958 -0.0845
 6104W        W 9848   8.367   3.883   0.352  0.0872  0.1023  0.3552
 6105W        W 9849   3.944   9.512   9.442  0.2855  0.1252 -0.0060
 6106W        W 9850   2.134   8.280   4.365  0.2072 -0.0006  0.1221
 6107W        W 9851   5.545   4.413   8.756  0.3022  0.3597 -0.0267
 6108W        W 9852   8.884   7.698  11.843 -0.0927 -0.0067  0.1750
 6109W        W 9853   7.907   9.657   0.003 -0.0528  0.2661  0.1020
 6110W        W 9854   1.082   4.100   1.269  0.0390 -0.0044  0.0913
 6111W        W 9855   8.658   5.638   9.260 -0.0318 -0.5196  0.1364
 6112W        W 9856   5.928   5.005  11.602  0.1113 -0.0487 -0.4996
 6113W        W 9857   1.385   7.553   2.476 -0.1118 -0.2616  0.2862
 6114W        W 9858   7.090   9.337  10.942 -0.1945 -0.3905  0.4656
 6115W        W 9859   2.472   0.316   9.291  0.0736 -0.0308 -0.3266
 6116W        W 9860   7.897   5.129  11.972 -0.1516 -0.1995  0.3634
 6117W        W 9861   1.629   5.680  10.125 -0.2082  0.0402 -0.0429
 6118W        W 9862   7.993   2.321  11.606  0.1522  0.1292  0.2568
 6119W        W 9863   6.739   5.138   2.736  0.3321 -0.1319 -0.1530
 6120W        W 9864   7.678   3.782   2.369 -0.0539 -0.0566 -0.0472
 6121W        W 9865   2.570   5.226  12.966 -0.1875 -0.2186  0.0662
 6122W        W 9866   1.393   8.197   0.619  0.2582 -0.1362 -0.1257
 6123W        W 9867   7.639   3.167  10.443 -0.1529  0.0996  0.4706
 6124W        W 9868   2.308   8.955  11.292 -0.0965 -0.2002  0.0247
 6125W        W 9869   3.320   6.901  10.985  0.0203 -0.1373  0.1423
 6126W        W 9870   3.682   4.965  12.497  0.2597 -0.1133  0.1225
 6127W        W 9871   8.150   0.106   1.808 -0.0175  0.2142  0.5193
 6128W        W 9872   5.713   9.014  11.446  0.1925  0.0321 -0.1065
 6129W        W 9873   6.415   7.135   9.557 -0.0601  0.2269 -0.1956
 6130W        W 9874   9.019   0.546  12.502  0.0641 -0.3466 -0.0422
 6131W        W 9875   4.367   7.643  12.620 -0.1454 -0.1332  0.2482
 6132W        W 9876   9.364   4.295  11.446 -0.2249  0.1993 -0.1199
 6133W        W 9877   1.397   1.808   9.112  0.0467  0.0025 -0.1102
 6134W        W 9878   8.016   7.191   0.031  0.1922  0.1659  0.2975
 6135W        W 9879   7.106   6.239   9.995  0.2557  0.2652 -0.0645
 6136W        W 9880   5.256   1.659   2.579  0.1180 -0.0050  0.4059
 6137W        W 9881   9.644   2.916   8.877 -0.1064 -0.0056 -0.1620
 6138W        W 9882   4.253   7.845  10.068 -0.0525  0.0537 -0.0234
 6139W        W 9883   1.257   7.162   1.973 -0.1153  0.2349  0.1401
 6140W        W 9884   8.497   8.313  11.176 -0.0802  0.3009 -0.0410
 6141W        W 9885   2.128   6.534  11.274  0.0954 -0.4815  0.1686
 6142W        W 9886   3.594   0.409  10.242  0.0003  0.0461  0.1185
 6143W        W 9887   4.490   8.832  12.437  0.0237  0.0791 -0.0754
 6144W        W 9888   3.073   2.453  12.067  0.1231 -0.2897 -0.1682
 6145W        W 9889   3.186   6.160  12.157 -0.2424 -0.3639  0.2272
 6146W        W 9890   2.643   9.074   3.460  0.1166  0.2230 -0.1635
 6147W        W 9891   0.664   0.481   4.152 -0.1373 -0.2382  0.2640
 6148W        W 9892   7.859   3.171  11.478  0.1377 -0.1788 -0.2623
 6149W        W 9893   1.098   3.498   9.039  0.3790  0.2973 -0.1299
 6150W        W 9894   2.406   3.268   4.307 -0.0949  0.5623  0.0372
 6151W        W 9895   9.247   8.094  11.771 -0.2737  0.2298 -0.1367
 6152W        W 9896   4.098   7.294  10.726 -0.0017  0.3153 -0.0068
 6153W        W 9897   0.212   0.445  10.466  0.2070 -0.0105 -0.1022
 6154W        W 9898   1.044   0.027   9.513  0.5155 -0.1685 -0.1922
 6155W        W 9899   0.418   0.624  12.601 -0.0123  0.1540 -0.1546
 6156W        W 9900   4.944   3.839  10.593  0.1540  0.1483  0.1366
 6157W        W 9901   1.906   7.321   9.684  0.2102  0.2076  0.1761
 6158W        W 9902   9.201   2.710  12.456  0.0984  0.0813 -0.0574
 6159W        W 9903   5.394   0.000   5.271  0.1641  0.0858  0.3301
 6160W        W 9904   4.871   1.046  10.904  0.3120 -0.0580  0.1436
 6161W        W 9905   7.550   0.244   1.232 -0.0083 -0.0441 -0.1105
 6162W        W 9906   4.438   2.996   9.428  0.1887 -0.0124  0.2753
 6163W        W 9907   0.790   9.667   9.948  0.4167  0.2066 -0.0550
 6164W        W 9908   0.939   0.689   1.196  0.0169 -0.0185 -0.2600
 6165W        W 9909   8.655   9.259  11.297 -0.0086  0.1074 -0.1105
 6166W        W 9910   1.795   9.029   0.107  0.2128  0.1270  0.1680
 6167W        W 9911   8.001   1.085   3.627 -0.0950  0.1295  0.0026
 6168W        W 9912   1.642   9.437  12.229  0.0563 -0.1643  0.3924
 6169W        W 9913   7.020   1.663   3.125 -0.0517 -0.1433 -0.1643
 6170W        W 9914   2.452   9.340   3.074 -0.1506 -0.1619  0.0587
 6171W        W 9915   7.272   5.129   2.816 -0.0653 -0.0830  0.0340
 6172W        W 9916   4.411   9.330   3.001  0.1003 -0.3496  0.0347
 6173W        W 9917   3.377   9.555   0.482  0.0917  0.1180 -0.1861
 6174W        W 9918   4.215   1.138   9.153 -0.2621 -0.2872  0.2945
 6175W        W 9919   8.785   6.847   1.743 -0.0821  0.5552 -0.0126
 6176W        W 9920   2.815   8.321   9.699 -0.0771 -0.1957  0.0696
 6177W        W 9921   3.088   3.572   0.629 -0.0700 -0.1214 -0.2793
 6178W        W 9922   3.697   7.581   9.263  0.1651 -0.0481 -0.1931
 6179W        W 9923   1.666   6.315   1.966  0.1617  0.1465  0.1233
 6180W        W 9924   2.949   0.217   4.496 -0.0225 -0.0961 -0.2122
 6181W        W 9925   3.052   8.901   3.283 -0.0567 -0.1039 -0.2341
 6182W        W 9926   4.551   2.614  10.414  0.0913  0.0206 -0.0648
 6183W        W 9927   6.820   1.416   0.308 -0.0093  0.0862 -0.4163
 6184W        W 9928   2.164   1.797   9.753 -0.1679 -0.2790 -0.2224
 6185W        W 9929   4.148   8.128   2.274 -0.1850  0.1547 -0.0819
 6186W        W 9930   8.886   3.370   1.024  0.2454  0.0775  0.0313
 6187W        W 9931   2.967   3.335   1.072  0.2332  0.2781  0.1723
 6188W        W 9932   9.818   1.615   4.019 -0.0980 -0.0688 -0.1083
 6189W        W 9933   1.940   9.472   0.254  0.0668 -0.0474 -0.2927
 6190W        W 9934   9.244   2.224   8.704  0.0583  0.2332  0.0170
 6191W        W 9935   3.036   0.228   2.369 -0.0949 -0.0323  0.0290
 6192W        W 9936   0.305   9.795   9.124 -0.2041  0.0423 -0.0484
 6193W        W 9937   2.148   9.871   1.119  0.1851 -0.2627  0.0655
 6194W        W 9938   0.648   6.801  10.044 -0.1204  0.0750 -0.2559
 6195W        W 9939   4.806   2.791   9.706 -0.1164  0.3290 -0.1361
 6196W        W 9940   0.251   5.804   1.169  0.1911  0.2004 -0.1745
 6197W        W 9941   5.926   2.703  10.755 -0.0384  0.0165  0.0354
 6198W        W 9942   2.307   8.926   4.000  0.3605  0.2958 -0.2491
 6199W        W 9943   7.075   6.682  11.177  0.0070 -0.1005 -0.1442
 6200W        W 9944   2.716   3.230   2.012  0.0088 -0.0078 -0.1098
 6201W        W 9945   3.745   5.951  10.704 -0.2759 -0.1785  0.0153
 6202W        W 9946   8.305   6.143  10.621 -0.1011 -0.2495 -0.1608
 6203W        W 9947   9.219   6.086  12.476  0.0165 -0.0095 -0.0637
 6204W        W 9948   9.126   4.826   9.591 -0.1264 -0.0659  0.2475
 6205W        W 9949   9.291   9.122   2.734  0.1969 -0.0432 -0.3977
 6206W        W 9950   5.738   4.278  10.274  0.0184  0.5323  0.2073
 6207W        W 9951   9.677   8.079   9.186  0.3550 -0.1738 -0.1021
 6208W        W 9952   3.037   7.250  10.475 -0.0165 -0.1936  0.0272
 6209W        W 9953   2.017   1.394  11.146 -0.1506 -0.1017  0.0171
 6210W        W 9954   7.553   1.054   3.866 -0.0840 -0.2260 -0.2057
 6211W        W 9955   3.795   6.282   3.282 -0.1729  0.2199  0.0327
 6212W        W 9956   3.984   0.237   2.836 -0.0141  0.0018 -0.0549
 6213W        W 9957   6.511   1.720   9.545 -0.1675 -0.1254 -0.1504
 6214W        W 9958   9.666   2.818   1.826  0.0026  0.2640 -0.1781
 6215W        W 9959   8.411   3.322  12.629 -0.1010 -0.2887 -0.1515
 6216W        W 9960   3.136   5.701   3.146  0.1243 -0.0498 -0.4879
 6217W        W 9961   5.102   8.749   0.547 -0.0110  0.2985  0.1962
 6218W        W 9962   6.871   5.054   2.269 -0.2258 -0.1263  0.2497
 6219W        W 9963   7.874   3.471   1.984 -0.2858 -0.1703 -0.0046
 6220W        W 9964   8.198   6.887   2.949  0.0213 -0.2208 -0.1301
 6221W        W 9965   6.423   7.300   3.704  0.1281  0.2221  0.1346
 6222W        W 9966   9.792   4.791   1.844 -0.4812 -0.0919 -0.2722
 6223W        W 9967   9.249   3.603  10.164  0.0741 -0.0554 -0.0788
 6224W        W 9968   9.176   5.359   9.219 -0.0549 -0.1032 -0.2723
 6225W        W 9969   0.036   0.399   1.431 -0.1407 -0.0230  0.1633
 6226W        W 9970   5.061   0.110   2.562 -0.1968  0.2717 -0.1974
 6227W        W 9971   5.723   8.738   3.647  0.0615 -0.0921  0.3063
 6228W        W 9972   0.140   4.063   9.681 -0.0521  0.2573  0.5251
 6229W        W 9973   3.635   6.113  10.196  0.1005  0.1697  0.0763
 6230W        W 9974   7.893   6.765   0.171  0.4377 -0.0754 -0.2280
 6231W        W 9975   7.670   2.220   9.746 -0.2207 -0.1203  0.0179
 6232W        W 9976   8.420   4.278  12.934 -0.2103  0.2582 -0.1726
 6233W        W 9977   1.378   3.574   3.527 -0.0650 -0.2977 -0.2930
 6234W        W 9978   2.259   8.285  10.642  0.1789  0.1138  0.3247
 6235W        W 9979   4.003   8.091  12.614  0.1366 -0.0046 -0.1794
 6236W        W 9980   8.022   0.065   1.289 -0.1734  0.0363 -0.1262
 6237W        W 9981   0.465   6.243  12.264  0.1730 -0.2720 -0.0872
 6238W        W 9982   5.563   4.150  12.523  0.1756 -0.1759 -0.0899
 6239W        W 9983   2.300   3.018   8.865 -0.2644  0.3387 -0.2033
 6240W        W 9984   2.085   3.422   2.402 -0.1297  0.1061  0.1050
 6241W        W 9985   7.242   2.961   0.174  0.2382 -0.2585 -0.2019
 6242W        W 9986   9.803   4.439   2.743  0.1093  0.0945 -0.2655
 6243W        W 9987   9.621   7.337   1.896 -0.4407 -0.1118  0.0919
 6244W        W 9988   8.548   2.377  11.718 -0.1270  0.0145  0.5353
 6245W        W 9989   6.531   2.632  12.705 -0.0348 -0.3203  0.5191
 6246W        W 9990   9.653   9.014   0.228 -0.1497 -0.0202  0.4293
 6247W        W 9991   6.560   4.175   2.243  0.0424 -0.1159 -0.1714
 6248W        W 9992   0.290   5.371  11.950  0.0581 -0.0630 -0.2458
 6249W        W 9993   3.907   9.514  12.247  0.1616  0.3384  0.1921
 6250W        W 9994   5.536   7.084   0.762 -0.2754 -0.1296 -0.1054
 6251W        W 9995   5.907   0.256   0.185  0.1080 -0.2167 -0.0228
 6252W        W 9996   5.775   1.498   2.219 -0.0143 -0.1277  0.0218
 6253W        W 9997   3.585   1.059  11.149  0.0359  0.3222 -0.1718
 6254W        W 9998   2.867   6.297   3.811  0.3060 -0.3552 -0.2930
 6255W        W 9999   4.575   0.116  11.949  0.0661  0.1303 -0.1505
 6256W        W10000   8.983   6.563   4.021  0.0065 -0.3205  0.2756
 6257W        W10001   1.100   5.989   1.161 -0.1122 -0.0747 -0.0778
 6258W        W10002   3.052   6.330   1.756 -0.0687 -0.0757  0.2538
 6259W        W10003   3.466   5.869   9.786  0.1214  0.2667  0.4474
 6260W        W10004   6.658   4.125   3.220  0.0842  0.1285 -0.0518
 6261W        W10005   9.493   8.487  11.978 -0.1083 -0.2286  0.0613
 6262W        W10006   0.702   3.937   3.190 -0.1050  0.0155 -0.0850
 6263W        W10007   0.175   6.899   2.562 -0.2256  0.0854 -0.0126
 6264W        W10008   8.882   6.427  11.055  0.0702 -0.3056  0.0024
 6265W        W10009   6.327   2.870  11.823 -0.0071  0.3231 -0.2107
 6266W        W10010   6.558   4.892  10.887  0.0720  0.1230  0.2392
 6267W        W10011   5.378   7.214   9.149 -0.0640  0.1650 -0.0791
 6268W        W10012   3.456   3.331   0.333 -0.0032 -0.1736 -0.0882
 6269W        W10013   0.956   6.732   9.644 -0.0959 -0.0146  0.0858
 6270W        W10014   1.891   9.233  11.343  0.0009  0.1206  0.1560
 6271W        W10015   4.851   9.861   1.520  0.0714 -0.0117 -0.1231
 6272W        W10016   5.994   4.129  12.228  0.1962 -0.3778  0.1386
 6273W        W10017   5.989   9.026  12.354 -0.1234 -0.1016 -0.1311
 6274W        W10018   4.697   1.857   0.940  0.1353  0.0576  0.1129
 6275W        W10019   8.781   5.243   9.544 -0.0584 -0.2154 -0.1484
 6276W        W10020   0.408   2.754   4.500  0.1336  0.1320 -0.1235
 6277W        W10021   7.288   6.328  11.472  0.3328  0.1229  0.0379
 6278W        W10022   2.287   0.322   3.868 -0.2311  0.1751 -0.0711
 6279W        W10023   1.993   1.026   5.099 -0.1370  0.4193  0.1339
 6280W        W10024   9.159   0.854  11.873  0.0534  0.2541  0.0839
 6281W        W10025   6.270   7.566  11.210  0.2420  0.3510 -0.3476
 6282W        W10026   4.595   2.812   3.532 -0.0565  0.1041 -0.0737
 6283W        W10027   1.265   7.341  10.438  0.1739  0.1842 -0.0858
 6284W        W10028   2.821   2.342   9.443  0.3823 -0.1554  0.2456
 6285W        W10029   5.672   4.584  12.774  0.1133  0.2307 -0.2316
 6286W        W10030   1.082   6.876  10.658 -0.1383 -0.2691  0.3146
 6287W        W10031   9.111   5.061   0.220 -0.1330  0.1928 -0.2731
 6288W        W10032   3.835   2.535   2.602  0.0528  0.1913 -0.1648
 6289W        W10033   1.640   5.135   2.406  0.0639 -0.2144  0.1283
 6290W        W10034   8.266   0.604  10.204  0.0420  0.2115  0.0591
 6291W        W10035   5.541   8.067   3.433 -0.0258  0.0909  0.0191
 6292W        W10036   8.323   1.115   1.918  0.1704 -0.1877 -0.0397
 6293W        W10037   5.689   6.903   2.703 -0.1108 -0.1847 -0.2436
 6294W        W10038   0.941   7.400   3.876 -0.1377 -0.2112  0.5079
 6295W        W10039   7.525   6.076   0.917 -0.3542  0.3754  0.4901
 6296W        W10040   5.895   3.677   2.644  0.0630  0.0361  0.0024
 6297W        W10041   7.997   9.811  12.420  0.0411  0.0112 -0.1844
 6298W        W10042   1.352   5.184  10.004  0.1161 -0.3314 -0.1119
 6299W        W10043   3.002   7.106  11.934  0.0779  0.3047 -0.0954
 6300W        W10044   2.910   8.121   2.608  0.2027 -0.0048  0.4999
 6301W        W10045   6.827   5.632   1.334  0.0091  0.1853 -0.1167
 6302W        W10046   0.756   7.079  11.291  0.0417  0.1768  0.0012
 6303W        W10047   6.381   9.866   3.149 -0.0092 -0.2766 -0.1180
 6304W        W10048   4.234   9.185  11.954 -0.1312  0.1482  0.3197
 6305W        W10049   6.487   4.373   4.839 -0.0980  0.0172  0.1683
 6306W        W10050   8.617   4.914   1.052  0.0582  0.1131 -0.0953
 6307W        W10051   0.597   2.275   0.809  0.1707  0.1906  0.2537
 6308W        W10052   0.628   1.650  12.164  0.1270  0.0580 -0.2583
 6309W        W10053   2.190   3.408  10.457 -0.2555 -0.4860 -0.0398
 6310W        W10054   8.923   3.602   0.359 -0.1430  0.1506 -0.0818
 6311W        W10055   3.963   3.591   0.091 -0.2394  0.3059  0.1661
 6312W        W10056   6.116   4.021  10.005  0.0833 -0.3692  0.0663
 6313W        W10057   3.747   5.820   9.012  0.1617  0.2592 -0.1382
 6314W        W10058   3.786   4.451   9.897 -0.3111  0.3033  0.2571
 6315W        W10059   9.332   9.422   4.970  0.0729  0.0664 -0.0844
 6316W        W10060   8.430   0.351   0.933 -0.0077 -0.0183 -0.0842
 6317W        W10061   3.447   1.581  11.259  0.1667  0.0208  0.1277
 6318W        W10062   1.539   1.898   0.643  0.0371 -0.0762 -0.0949
 6319W        W10063   3.766   4.087  12.477  0.0514  0.0550 -0.0608
 6320W        W10064   8.521   1.394  11.498 -0.1659 -0.0542  0.0768
 6321W        W10065   4.946   3.703  12.015  0.1305  0.0617 -0.0527
 6322W        W10066   4.711   7.582   8.699  0.3056  0.5485 -0.2505
 6323W        W10067   2.416   7.976   9.739  0.3219 -0.4048 -0.2016
 6324W        W10068   4.729   3.144  10.968  0.3558  0.0850  0.0988
 6325W        W10069   0.938   2.028   2.930 -0.1677  0.2797  0.1891
 6326W        W10070   9.641   1.100  12.021  0.0997 -0.0159 -0.4389
 6327W        W10071   2.071   1.739   2.259  0.1070  0.1934  0.0673
 6328W        W10072   4.847   1.218  12.545  0.1938 -0.2536  0.2981
 6329W        W10073   3.396   0.857   3.027 -0.0686 -0.4746  0.1696
 6330W        W10074   0.254   5.997   0.570 -0.0420 -0.2869 -0.0625
 6331W        W10075   4.299   0.431  11.165 -0.1126 -0.1349 -0.0007
 6332W        W10076   8.337   2.027  12.484  0.0953  0.2909  0.0121
 6333W        W10077   2.368   0.870  11.885 -0.1168  0.1018  0.0035
 6334W        W10078   4.048   3.016   0.204  0.0219  0.1785 -0.2587
 6335W        W10079   5.263   3.666  10.228 -0.4177 -0.1973 -0.0700
 6336W        W10080   1.114   7.311   9.001 -0.0420 -0.0225 -0.1138
 6337W        W10081   8.176   7.336   0.561  0.1358 -0.0083  0.1967
 6338W        W10082   1.191   7.812  11.557 -0.2779 -0.1675 -0.0648
 6339W        W10083   8.762   2.085   2.843  0.4515 -0.4241  0.0838
 6340W        W10084   6.180   7.414  11.690 -0.0492 -0.1674 -0.0222
 6341W        W10085   8.694   5.619   2.414  0.3446  0.0798  0.1541
 6342W        W10086   0.910   7.089   3.488 -0.1971  0.0288  0.0668
 6343W        W10087   0.370   8.877  10.040 -0.0353 -0.1149  0.1891
 6344W        W10088   6.907   3.139  11.029  0.2776  0.2902 -0.2008
 6345W        W10089   0.243   7.068   1.138  0.1665 -0.0043  0.2731
 6346W        W10090   2.004   1.891   2.928 -0.1203  0.0708 -0.2222
 6347W        W10091   2.704   4.033   9.019 -0.0361  0.1985 -0.0352
 6348W        W10092   6.015   0.684   1.787 -0.1842 -0.3059 -0.1133
 6349W        W10093   5.447   4.110  11.113  0.1264 -0.0791 -0.2743
 6350W        W10094   5.674   6.409   1.353 -0.0048  0.0729 -0.3315
 6351W        W10095   2.722   6.262   9.767 -0.2963 -0.0471  0.0013
 6352W        W10096   6.446   6.173   2.725  0.1428 -0.0057 -0.1730
 6353W        W10097   4.202   6.034  10.430 -0.0337 -0.4145 -0.0033
 6354W        W10098   1.305   1.308   9.171 -0.3349 -0.0501 -0.0609
 6355W        W10099   7.271   5.569   1.621  0.6545 -0.0535  0.0971
 6356W        W10100   9.097   7.023  10.024  0.0462  0.2586 -0.2077
 6357W        W10101   7.716   7.090   2.869  0.2538  0.0980 -0.0789
 6358W        W10102   6.619   3.461  11.321  0.1039 -0.4771  0.0598
 6359W        W10103   2.041   4.461   0.870  0.1232 -0.2722  0.4692
 6360W        W10104   9.371   5.728   3.212 -0.2188 -0.1071  0.6677
 6361W        W10105   0.715   9.845   3.229 -0.1367  0.0597 -0.1621
 6362W        W10106   9.384   4.396   9.391 -0.1432 -0.3288 -0.0227
 6363W        W10107   8.567   3.822   3.544  0.1655 -0.0387  0.0929
 6364W        W10108   4.516   8.658   2.314 -0.0878 -0.1844 -0.0158
 6365W        W10109   3.740   8.762   0.202  0.1089 -0.0080 -0.1697
 6366W        W10110   0.318   5.263   2.042  0.0286 -0.0384 -0.0878
 6367W        W10111   7.234   7.140   9.031  0.0023 -0.1686  0.0446
 6368W        W10112   9.467   4.542   3.311 -0.0017 -0.0640 -0.1459
 6369W        W10113   0.553   2.905   0.686 -0.2052  0.2943 -0.1013
 6370W        W10114   6.476   7.718  12.619  0.0782 -0.0590 -0.2273
 6371W        W10115   8.353   5.118  12.264  0.0169  0.3241 -0.1390
 6372W        W10116   8.148   3.371  10.461 -0.3095  0.0046 -0.1447
 6373W        W10117   2.998   7.014   9.424 -0.1400  0.0934  0.0165
 6374W        W10118   4.464   7.347   0.649  0.0638  0.2985  0.5849
 6375W        W10119   8.055   7.650  11.429 -0.0260 -0.1544 -0.0643
 6376W        W10120   4.466   7.551   0.176  0.1381  0.1191  0.4255
 6377W        W10121   1.355   7.027   3.220 -0.0866 -0.3757 -0.0401
 6378W        W10122   9.415   7.576   0.372  0.0842  0.0437  0.1734
 6379W        W10123   0.329   7.511  12.904 -0.2879  0.1917 -0.0576
 6380W        W10124   8.907   8.069   2.215  0.1330 -0.1618 -0.2285
 6381W        W10125   2.660   1.207   2.860  0.1085 -0.0970 -0.0967
 6382W        W10126   3.569   5.974  12.425  0.1579  0.3275  0.3296
 6383W        W10127   1.443   7.714   0.812  0.1091 -0.3683  0.1539
 6384W        W10128   7.746   4.056  10.254 -0.1103  0.0643 -0.0381
 6385W        W10129   4.569   7.221   9.462  0.1959 -0.0532  0.0969
 6386W        W10130   4.075   9.308   9.862 -0.2679 -0.1528  0.0612
 6387W        W10131   5.358   1.524  11.873  0.0803  0.0868 -0.0066
 6388W        W10132   4.983   4.909   3.000 -0.0465  0.0529 -0.3677
 6389W        W10133   1.985   9.739  11.400 -0.1738  0.3971 -0.1131
 6390W        W10134   0.912   9.354   2.574 -0.1654  0.0561 -0.0005
 6391W        W10135   5.508   9.754  10.356  0.4583 -0.0392  0.1855
 6392W        W10136   1.503   7.420   1.464  0.2821 -0.0648 -0.2779
 6393W        W10137   7.188   7.094   4.508 -0.0875 -0.2553  0.0627
 6394W        W10138   9.545   5.453   3.603  0.0137  0.2264 -0.2813
 6395W        W10139   5.409   3.310   0.067  0.0936  0.3165 -0.1385
 6396W        W10140   2.845   3.541  10.318  0.2882 -0.3219  0.1999
 6397W        W10141   1.008   8.359   9.539 -0.2196 -0.2315  0.1567
 6398W        W10142   1.286   0.649   2.459 -0.0372  0.3339  0.2744
 6399W        W10143   4.817   4.981   2.232 -0.1881 -0.1860  0.0508
 6400W        W10144   6.305   5.369   1.557  0.0657  0.1966 -0.1666
 6401W        W10145   9.833   4.737   4.614  0.0586 -0.0900  0.2192
 6402W        W10146   6.473   8.148  12.219 -0.0262 -0.1728  0.1682
 6403W        W10147   2.904   5.895   4.159 -0.2479 -0.1243  0.4358
 6404W        W10148   2.907   5.859  10.102 -0.0956  0.3017  0.0531
 6405W        W10149   9.207   0.379   0.425  0.0306  0.1718  0.2996
 6406W        W10150   2.370   0.373   1.372 -0.1625 -0.2842 -0.0316
 6407W        W10151   5.724   1.207   1.820  0.0943  0.2097 -0.1155
 6408W        W10152   0.593   5.699  10.497  0.0620  0.0318  0.1065
 6409W        W10153   5.480   2.130   1.303 -0.1502  0.1098 -0.2825
 6410W        W10154   5.185   4.630   2.246  0.3899 -0.0262  0.1254
 6411W        W10155   4.123   3.980   9.494 -0.0614 -0.1705 -0.3350
 6412W        W10156   5.277   6.428  12.650  0.1006 -0.2935  0.1776
 6413W        W10157   8.235   0.167  11.937 -0.0725 -0.0140 -0.0219
 6414W        W10158   3.397   0.614   9.407 -0.0036 -0.1481  0.0982
 6415W        W10159   1.581   6.429   9.824  0.1788  0.0872  0.3093
 6416W        W10160   8.304   9.497  12.706 -0.1778  0.1340  0.2367
 6417W        W10161   2.437   5.698   2.443 -0.2648  0.0830  0.2102
 6418W        W10162   3.076   0.787   3.955 -0.0370  0.0440 -0.0308
 6419W        W10163   1.487   2.187   3.823  0.0776 -0.0215  0.0320
 6420W        W10164   0.190   7.188   3.036 -0.0390 -0.1975  0.2969
 6421W        W10165   9.809   0.522   2.889  0.1445 -0.1529  0.0436
 6422W        W10166   0.762   0.754   2.487  0.1635 -0.1036  0.1984
 6423W        W10167   5.260   5.355   2.848  0.0249  0.0520 -0.0511
 6424W        W10168   0.288   1.344   4.563  0.2500  0.0260  0.1425
 6425W        W10169   7.261   1.894  11.909 -0.0546  0.0265  0.2702
 6426W        W10170   9.657   0.047   0.003 -0.2078 -0.0966 -0.0947
 6427W        W10171   3.489   0.549   4.102 -0.0276 -0.0682 -0.2696
 6428W        W10172   7.496   3.860  11.888 -0.1159 -0.1254 -0.0152
 6429W        W10173   4.067   8.614  12.713 -0.3779  0.1840  0.0283
 6430W        W10174   1.219   5.124  11.228  0.3645  0.2839  0.1038
 6431W        W10175   8.401   7.705  11.044 -0.3043 -0.5009 -0.1713
 6432W        W10176   7.991   2.427  12.764  0.1034  0.3211 -0.0596
 6433W        W10177   0.458   1.652  11.095 -0.4656 -0.0921  0.2464
 6434W        W10178   4.452   4.284  11.409  0.0224  0.1203 -0.0573
 6435W        W10179   8.720   3.698   2.937 -0.3527 -0.0775  0.0606
 6436W        W10180   7.989   3.169   0.945 -0.1570  0.1501  0.2269
 6437W        W10181   5.842   8.728   0.732 -0.1577 -0.0799 -0.1133
 6438W        W10182   8.446   6.352   9.666  0.2951 -0.0700 -0.0787
 6439W        W10183   0.097   2.650  10.431  0.1237 -0.3577  0.2362
 6440W        W10184   0.130   7.681   1.390 -0.3502  0.1050 -0.1238
 6441W        W10185   1.906   8.946  12.387 -0.1535  0.1286  0.0251
 6442W        W10186   6.367   9.670   9.826  0.0108  0.3692 -0.0472
 6443W        W10187   0.484   9.319   9.690 -0.1891 -0.2770  0.0229
 6444W        W10188   6.011   3.420   1.362 -0.1113  0.1514 -0.0201
 6445W        W10189   1.903   1.838  12.651  0.4602 -0.1888  0.3243
 6446W        W10190   6.757   5.445   3.191  0.0560  0.0206 -0.0907
 6447W        W10191   0.649   1.534   1.902  0.0478 -0.2368 -0.3873
 6448W        W10192   4.459   6.353   0.435  0.0232 -0.5517 -0.1914
 6449W        W10193   1.987   5.692   9.671 -0.0364  0.1171 -0.1059
 6450W        W10194   2.073   9.543   9.567 -0.1335 -0.3118  0.2684
 6451W        W10195   1.328   4.697  10.128 -0.1743 -0.0548 -0.0513
 6452W        W10196   5.362   3.474  12.422 -0.1709 -0.0341  0.0281
 6453W        W10197   5.566   0.171   2.809  0.2048 -0.0024 -0.2109
 6454W        W10198   0.022   0.753  11.291  0.0090 -0.0821 -0.0583
 6455W        W10199   5.904   6.582   1.788 -0.2595  0.4422  0.1425
 6456W        W10200   7.661   5.873   9.274 -0.3575  0.0643  0.1352
 6457W        W10201   3.666   7.159   1.515  0.0942  0.3074  0.2488
 6458W        W10202   9.104   0.198  12.932 -0.2730  0.0826  0.1873
 6459W        W10203   5.226   4.607   0.272 -0.0844 -0.0341  0.1403
 6460W        W10204   6.137   1.115   2.674 -0.0464 -0.0999  0.1100
 6461W        W10205   1.601   7.267   1.042  0.1778  0.2046 -0.1284
 6462W        W10206   0.716   8.346   1.789 -0.1275  0.1747 -0.1259
 6463W        W10207   5.609   3.751   9.416  0.0571 -0.1657 -0.0292
 6464W        W10208   7.908   4.028  11.207 -0.2546 -0.0971  0.1969
 6465W        W10209   9.353   8.106   8.500  0.0422 -0.0873  0.1605
 6466W        W10210   5.763   1.411  11.530  0.0692 -0.0765 -0.0598
 6467W        W10211   3.764   9.116   0.590  0.1017  0.2339  0.3706
 6468W        W10212   0.279   5.750   0.137  0.1289 -0.1026 -0.0392
 6469W        W10213   6.460   1.791   0.139  0.1316 -0.1554 -0.0973
 6470W        W10214   6.762   4.041  10.650  0.1738 -0.0430 -0.1070
 6471W        W10215   2.294   6.816   1.069  0.0719 -0.0493 -0.0282
 6472W        W10216   0.488   2.386   4.143 -0.2317 -0.0215  0.0225
 6473W        W10217   1.039   2.575   2.349 -0.2244 -0.1606 -0.1552
 6474W        W10218   9.780   9.462   8.920 -0.2851  0.2051 -0.0368
 6475W        W10219   1.202   9.887  10.992  0.2543  0.0968 -0.0400
 6476W        W10220   2.740   9.216  11.606 -0.3853 -0.1833 -0.2147
 6477W        W10221   0.357   6.559   8.677  0.3469 -0.0042 -0.0228
 6478W        W10222   9.089   0.707   0.076  0.1936  0.0197  0.3177
 6479W        W10223   1.870   7.573  12.563 -0.2135 -0.0563  0.3019
 6480W        W10224   8.035   6.604   1.067 -0.0707  0.0350 -0.0445
 6481W        W10225   4.051   2.735   1.712  0.0924  0.5308  0.2794
 6482W        W10226   1.795   7.815   9.759 -0.0607  0.0815 -0.1623
 6483W        W10227   7.334   0.212  12.404  0.4027  0.1235  0.0576
 6484W        W10228   9.467   8.070   1.205  0.0463  0.0398 -0.1901
 6485W        W10229   7.897   8.924  12.433  0.0785  0.0907  0.4266
 6486W        W10230   3.220   1.147  11.446  0.0629 -0.2242 -0.1579
 6487W        W10231   2.520   1.473  11.342  0.0255 -0.3639 -0.1044
 6488W        W10232   5.042   9.357   1.629 -0.2370 -0.0320 -0.1823
 6489W        W10233   9.218   6.914   2.658 -0.0285  0.2049  0.0027
 6490W        W10234   2.227   2.257  12.284  0.1023 -0.0502 -0.0601
 6491W        W10235   0.871   2.876  10.213  0.2538 -0.0615  0.0357
 6492W        W10236   0.017   9.853   2.605 -0.1231 -0.2211 -0.1919
 6493W        W10237   3.270   0.548  11.748 -0.0822 -0.3594 -0.5142
 6494W        W10238   8.941   5.438   3.230 -0.0565 -0.0310  0.0057
 6495W        W10239   0.571   7.242   2.543  0.2341  0.2041 -0.0069
 6496W        W10240   4.224   1.315  11.735  0.1188  0.0766 -0.1685
 6497W        W10241   9.413   7.410   3.530 -0.0673  0.1183 -0.1416
 6498W        W10242   0.685   0.990   4.466  0.2339  0.0197 -0.0612
 6499W        W10243   4.311   2.735  11.802 -0.0176 -0.0023 -0.0117
 6500W        W10244   8.868   8.825  10.129 -0.2821  0.0871  0.1070
 6501W        W10245   5.781   3.290   2.908  0.1665 -0.2457  0.3990
 6502W        W10246   8.494   5.699   9.735  0.1314 -0.1000  0.0013
 6503W        W10247   9.555   0.926   8.608 -0.1160 -0.2162 -0.1571
 6504W        W10248   9.027   3.879   3.263 -0.1506 -0.0669  0.1353
 6505W        W10249   2.743   4.204  11.216  0.0526  0.0910  0.0683
 6506W        W10250   3.338   3.777   1.864  0.1603 -0.0623  0.0516
 6507W        W10251   7.005   2.332   1.106  0.3438  0.0921  0.0483
 6508W        W10252   0.449   6.400  12.963  0.0537 -0.1288 -0.0449
 6509W        W10253   4.143   4.821   1.703  0.0522  0.2617 -0.1340
 6510W        W10254   0.318   8.744  11.144 -0.0564  0.0540 -0.0915
 6511W        W10255   3.210   6.339   9.856 -0.3700 -0.0664 -0.0232
 6512W        W10256   8.955   8.572  12.010 -0.2371  0.1246  0.0204
 6513W        W10257   7.010   3.435   3.384  0.1240 -0.0073 -0.0838
 6514W        W10258   7.355   4.393  12.737  0.1819 -0.1758  0.0542
 6515W        W10259   6.691   7.511  11.469 -0.0877 -0.0886 -0.2997
 6516W        W10260   5.618   2.722  11.171  0.3548  0.1120 -0.1210
 6517W        W10261   3.312   2.841   2.282 -0.2963  0.0204 -0.0462
 6518W        W10262   2.916   2.325   2.327 -0.0420 -0.2220 -0.3499
 6519W        W10263   2.329   2.062  12.790 -0.1923 -0.0083  0.0863
 6520W        W10264   0.106   2.745   3.403 -0.1758  0.0930  0.3147
 6521W        W10265   9.525   1.964   1.308 -0.1118  0.1902  0.2503
 6522W        W10266   6.190   2.909   1.481  0.0200 -0.2754  0.3433
 6523W        W10267   1.333   2.311  12.081 -0.3136  0.3159 -0.1652
 6524W        W10268   3.294   5.337  12.689  0.0773  0.2294  0.3415
 6525W        W10269   7.389   7.290   9.539 -0.0842 -0.3301 -0.0583
 6526W        W10270   3.097   2.934  11.673 -0.0477 -0.0218  0.0798
 6527W        W10271   0.211   5.070  12.436  0.0138  0.0963 -0.1268
 6528W        W10272   9.866   6.351   9.537  0.0372 -0.1970  0.1432
 6529W        W10273   2.153   6.442   1.957 -0.3798  0.1069  0.1144
 6530W        W10274   0.692   2.699  12.643 -0.2582  0.0766  0.0580
 6531W        W10275   2.852   1.461  12.131  0.0489  0.0500  0.0958
 6532W        W10276   9.614   2.348  11.400 -0.0902  0.2219  0.3447
 6533W        W10277   9.239   8.558  11.545  0.0880  0.0806  0.4292
 6534W        W10278   0.069   0.919   9.747 -0.1863 -0.1894 -0.1820
 6535W        W10279   2.021   2.175   1.936 -0.0828 -0.2520 -0.0381
 6536W        W10280   7.451   3.679  10.366  0.1316  0.3712  0.0463
 6537W        W10281   8.198   4.829   3.814  0.3031  0.2431 -0.0819
 6538W        W10282   6.965   6.684   9.679  0.1282 -0.0879  0.0229
 6539W        W10283   3.304   1.771  10.828  0.0511  0.0733  0.2166
 6540W        W10284   0.254   4.540  12.368 -0.0496  0.1981  0.2214
 6541W        W10285   2.763   8.619   3.669 -0.1739 -0.1624  0.1062
 6542W        W10286   5.381   2.943  12.194 -0.3166  0.1378 -0.0454
 6543W        W10287   3.240   2.161   3.675 -0.2278 -0.0937  0.0846
 6544W        W10288   2.990   5.883   9.600  0.3871 -0.3501 -0.2209
 6545W        W10289   6.749   9.370   1.894 -0.1608 -0.0463  0.0027
 6546W        W10290   5.916   6.345   0.027 -0.2286  0.1596 -0.1477
 6547W        W10291   2.031   1.794   9.082 -0.0246  0.3599  0.6337
 6548W        W10292   2.633   8.902   1.397  0.1938  0.0958 -0.2586
 6549W        W10293   0.380   9.066   3.862  0.3034 -0.0926  0.0478
 6550W        W10294   0.098   3.620   1.737  0.1288 -0.1430  0.0414
 6551W        W10295   4.252   8.039   0.027  0.2904 -0.0033 -0.0214
 6552W        W10296   4.897   7.396   0.857 -0.0967  0.0534 -0.1227
 6553W        W10297   8.618   7.091   9.215  0.1531  0.0109  0.1760
 6554W        W10298   7.185   4.909   4.489 -0.0992 -0.2751  0.0022
 6555W        W10299   4.734   2.495   0.224  0.1736  0.0171  0.0634
 6556W        W10300   9.326   4.716  12.199  0.0127 -0.0539 -0.0838
 6557W        W10301   4.978   3.373  12.733 -0.1813  0.1956  0.2649
 6558W        W10302   5.797   5.567  11.826  0.0844 -0.0739  0.0943
 6559W        W10303   2.979   7.537  11.496  0.1144 -0.1525 -0.0837
 6560W        W10304   1.701   9.827  10.350  0.1986  0.0193 -0.0527
 6561W        W10305   3.367   2.272  10.784  0.1926 -0.0855 -0.1834
 6562W        W10306   8.952   8.754   2.604 -0.0492 -0.3192 -0.0042
 6563W        W10307   0.514   4.204   8.770 -0.4040 -0.2037 -0.0013
 6564W        W10308   0.813   3.038  12.327  0.0126  0.1456 -0.1587
 6565W        W10309   1.723   6.816   3.497 -0.2525 -0.2939 -0.1128
 6566W        W10310   7.312   0.620   0.365 -0.0170  0.0663  0.4095
 6567W        W10311   4.386   9.689   9.706 -0.1918 -0.3001  0.1149
 6568W        W10312   0.755   4.710   3.989 -0.0400 -0.1842 -0.0210
 6569W        W10313   7.295   6.797   9.379 -0.1955 -0.0275  0.0136
 6570W        W10314   7.871   8.706   9.077  0.0628  0.4866  0.2909
 6571W        W10315   0.990   9.335  12.862 -0.1610 -0.3689 -0.0871
 6572W        W10316   0.080   6.189   2.679 -0.3357 -0.0120 -0.0206
 6573W        W10317   8.125   8.740   3.439  0.1824  0.1077  0.1656
 6574W        W10318   5.027   7.831   1.151 -0.0518 -0.0948 -0.0654
 6575W        W10319   3.707   4.910   8.729 -0.0468  0.2966 -0.0580
 6576W        W10320   1.173   6.104   0.518  0.0002 -0.3466  0.1050
 6577W        W10321   7.512   2.447  11.044 -0.0779  0.3686 -0.1196
 6578W        W10322   4.588   8.060   0.348  0.1053 -0.0370 -0.0139
 6579W        W10323   4.950   5.009  11.154 -0.1720  0.0284 -0.1142
 6580W        W10324   7.597   7.680   1.332  0.2293 -0.2161 -0.2746
 6581W        W10325   5.408   5.578   4.190 -0.1378  0.1734  0.3733
 6582W        W10326   9.527   2.500   0.361  0.2583  0.0748 -0.2066
 6583W        W10327   0.298   8.222   4.800  0.0466  0.1113 -0.0141
 6584W        W10328   3.898   8.247   4.119  0.2746  0.0939 -0.0794
 6585W        W10329   6.146   1.325   0.967  0.1234 -0.1288 -0.2312
 6586W        W10330   5.291   2.947   0.979  0.2262 -0.2513 -0.1109
 6587W        W10331   7.541   0.528  10.991  0.1056 -0.0243  0.3050
 6588W        W10332   8.634   8.086   8.979 -0.4536 -0.3469 -0.1231
 6589W        W10333   2.237   7.229   1.949 -0.0170  0.1591  0.0958
 6590W        W10334   7.954   4.515   3.390 -0.3121 -0.1481 -0.1150
 6591W        W10335   8.957   4.365   1.938  0.0512  0.0732 -0.0783
 6592W        W10336   9.106   7.787   3.672 -0.2184 -0.1165  0.3882
 6593W        W10337   8.177   9.697   0.853 -0.0836 -0.0173 -0.0486
 6594W        W10338   5.019   6.268  11.808 -0.0110 -0.0527 -0.0436
 6595W        W10339   1.517   0.222  11.934 -0.2119  0.0313 -0.0619
 6596W        W10340   0.280   1.236   3.593 -0.0600  0.4828  0.0909
 6597W        W10341   2.660   7.125   2.944  0.5802 -0.1262  0.1942
 6598W        W10342   8.911   9.190   0.594 -0.1036  0.1955  0.1362
 6599W        W10343   3.021   9.681   4.126  0.0531 -0.1446 -0.0595
 6600W        W10344   6.863   5.706  12.346 -0.1701 -0.0778 -0.1132
 6601W        W10345   7.246   4.860  10.060  0.3314 -0.3095 -0.1030
 6602W        W10346   6.940   1.798  10.342  0.0980 -0.2205 -0.1526
 6603W        W10347   7.634   1.555  11.011  0.1710  0.1464  0.0312
 6604W        W10348   3.992   4.510   2.007 -0.0655  0.1294  0.2235
 6605W        W10349   1.576   7.825  11.281 -0.0050 -0.1391 -0.2218
 6606W        W10350   6.894   5.137  11.764  0.2879  0.0639 -0.0420
 6607W        W10351   9.395   7.315  11.891 -0.0676  0.3520 -0.2963
 6608W        W10352   4.177   1.839  10.238  0.1214 -0.0589  0.0687
 6609W        W10353   1.857   1.514   2.643 -0.0604 -0.1064 -0.2221
 6610W        W10354   9.771   3.236   2.864 -0.3035  0.0487 -0.0195
 6611W        W10355   1.064   1.089  10.298 -0.2692 -0.2360  0.3443
 6612W        W10356   4.734   4.861  12.563 -0.0082  0.4445 -0.1238
 6613W        W10357   7.540   1.051   0.458  0.2603  0.1395  0.0131
 6614W        W10358   4.716   0.019  11.435 -0.3168 -0.1352 -0.0629
 6615W        W10359   9.633   8.720   9.518  0.2188  0.2103  0.2466
 6616W        W10360   9.263   8.165   4.216  0.1217 -0.0628  0.0593
 6617W        W10361   1.448   5.891  10.683  0.1575 -0.3058  0.2170
 6618W        W10362   0.690   3.779   8.513 -0.0133  0.0687 -0.3877
 6619W        W10363   5.789   9.789   0.570  0.2362 -0.0100  0.1644
 6620W        W10364   7.991   2.237   0.218  0.0585 -0.0309 -0.3674
 6621W        W10365   5.119   6.924   3.508  0.2067 -0.1111  0.0550
 6622W        W10366   1.684   5.280   1.287 -0.0492 -0.1414  0.0928
 6623W        W10367   3.522   8.899   2.242  0.1302  0.1232 -0.5128
 6624W        W10368   3.105   5.882   0.432 -0.1079 -0.1744 -0.2735
 6625W        W10369   9.666   4.725   1.077 -0.1343 -0.2077 -0.3667
 6626W        W10370   2.548   8.614  12.774  0.3133 -0.1216 -0.0685
 6627W        W10371   8.543   0.352  11.168  0.1069  0.2041  0.5630
 6628W        W10372   8.659   4.392   9.304 -0.0821  0.1317 -0.3308
 6629W        W10373   6.181   7.296  12.797 -0.0978 -0.1172 -0.0758
 6630W        W10374   1.249   6.319   0.078  0.0852  0.3804 -0.2041
 6631W        W10375   2.973   5.415   0.221  0.1893 -0.4081  0.2143
 6632W        W10376   2.703   0.907  12.194  0.1585  0.0237  0.2645
 6633W        W10377   1.625   0.531   8.757 -0.0307 -0.3312  0.0482
 6634W        W10378   8.414   7.316   3.175  0.1799  0.2253  0.5273
 6635W        W10379   2.669   5.093   1.416 -0.0433 -0.2233 -0.0769
 6636W        W10380   1.848   8.501  10.290  0.1245 -0.0295  0.1610
 6637W        W10381   4.123   5.351   0.293  0.0114 -0.2441 -0.0412
 6638W        W10382   1.997   8.172   3.022  0.1854  0.0490 -0.0095
 6639W        W10383   0.251   6.511   0.472  0.1710  0.0287  0.0060
 6640W        W10384   3.161   7.151   1.310  0.0355 -0.1681  0.1439
 6641W        W10385   8.759   3.899  10.147 -0.1463  0.1910  0.2337
 6642W        W10386   9.440   8.013   0.638  0.1467 -0.1179  0.2837
 6643W        W10387   8.328   9.746   0.313  0.0286 -0.0328  0.0377
 6644W        W10388   6.909   1.343   1.417  0.3751  0.1896 -0.4617
 6645W        W10389   5.400   8.979  11.884 -0.3125 -0.0427 -0.0781
 6646W        W10390   2.812   5.440   9.611  0.0168  0.0415 -0.1544
 6647W        W10391   8.307   8.129   2.169 -0.0708  0.1839 -0.0256
 6648W        W10392   6.495   0.518   0.515 -0.0375  0.1132  0.3409
 6649W        W10393   8.149   1.900   3.207 -0.1589  0.1517  0.3022
 6650W        W10394   3.611   4.373   0.625  0.1540  0.1983 -0.1523
 6651W        W10395   3.007   8.743  10.960 -0.0220 -0.2313 -0.1012
 6652W        W10396   5.738   1.759   2.673  0.3252  0.0490  0.3038
 6653W        W10397   7.662   9.724   1.022 -0.2051 -0.0548  0.0324
 6654W        W10398   9.160   2.504   9.135 -0.0254  0.4402 -0.1030
 6655W        W10399   9.388   6.723  11.935 -0.2118 -0.3717 -0.0802
 6656W        W10400   4.123   0.084  12.676  0.1464 -0.0436  0.0702
 6657W        W10401   3.376   4.481   1.127  0.3390  0.3164 -0.2445
 6658W        W10402   8.837   1.819  11.241  0.1768  0.0795 -0.2128
 6659W        W10403   1.303   9.511   0.866  0.4064 -0.1577 -0.0365
 6660W        W10404   5.047   1.928  10.435 -0.3042 -0.2788 -0.1046
 6661W        W10405   1.123   2.126   1.004  0.4028 -0.1175 -0.2188
 6662W        W10406   0.144   7.010   8.852  0.0518 -0.1207 -0.0628
 6663W        W10407   2.387   2.971   8.400  0.0296  0.2634  0.2555
 6664W        W10408   5.617   3.384   8.879  0.1061 -0.3169  0.5303
 6665W        W10409   2.742   2.160   4.068 -0.1494 -0.0007  0.1372
 6666W        W10410   2.775   2.081   1.524  0.0578  0.1068 -0.0411
 6667W        W10411   0.658   5.442   0.283 -0.0375  0.1206 -0.2533
 6668W        W10412   4.407   8.801   9.687  0.2761 -0.5298  0.0713
 6669W        W10413   6.731   8.366   9.664  0.0569  0.1794  0.1904
 6670W        W10414   8.535   3.830  11.506  0.2068  0.3810  0.1434
 6671W        W10415   8.170   4.488   9.431  0.1433  0.1989 -0.2778
 6672W        W10416   7.157   3.434  12.834 -0.1251  0.2264  0.2823
 6673W        W10417   1.313   9.314   1.465 -0.1271  0.0081  0.4309
 6674W        W10418   2.413   9.150  10.420  0.1990 -0.2571  0.2110
 6675W        W10419   0.186   7.840   3.578 -0.3963  0.1785  0.0174
 6676W        W10420   6.911   0.670   2.608 -0.1233  0.2754  0.1028
 6677W        W10421   1.404   4.619  11.429  0.1735  0.0331 -0.1606
 6678W        W10422   3.416   6.698   3.829  0.1850  0.1801 -0.0109
 6679W        W10423   1.271   2.663  11.121  0.0489 -0.1400  0.0541
 6680W        W10424   3.766   1.206   2.508 -0.0112 -0.1031  0.0810
 6681W        W10425   6.372   0.172   2.307  0.2265  0.2346  0.4614
 6682W        W10426   8.597   8.443  10.337  0.1411  0.0681 -0.1326
 6683W        W10427   4.545   6.014   0.839  0.1248 -0.1889  0.1703
 6684W        W10428   1.638   0.924  12.779  0.0646 -0.1416  0.0447
 6685W        W10429   0.673   4.197   3.954 -0.1317  0.0824  0.0603
 6686W        W10430   0.555   3.193  11.826 -0.2842 -0.2218  0.1290
 6687W        W10431   2.282   2.985   2.471 -0.1487 -0.0527 -0.1056
 6688W        W10432   0.420   0.629   0.541 -0.0033  0.0947  0.2399
 6689W        W10433   1.999   0.348  10.102  0.4203 -0.1546  0.1032
 6690W        W10434   3.331   3.151  11.245 -0.1745 -0.0945 -0.1101
 6691W        W10435   6.859   3.701   4.239  0.1579  0.1206  0.1342
 6692W        W10436   7.428   6.043   1.925 -0.2640  0.0540  0.0178
 6693W        W10437   6.959   4.528  10.484 -0.2218 -0.0244 -0.1929
 6694W        W10438   1.944   0.832  10.251  0.4128 -0.2239 -0.2136
 6695W        W10439   1.979   8.108   3.557  0.1349 -0.0656  0.1530
 6696W        W10440   0.993   6.997   8.652  0.1139 -0.1126  0.0503
 6697W        W10441   2.309   4.049   1.848 -0.1663 -0.2093 -0.1812
 6698W        W10442   8.296   7.163   1.047 -0.1218 -0.0625  0.2004
 6699W        W10443   2.659   4.747   2.355 -0.2282  0.1116 -0.3600
 6700W        W10444   7.553   3.795   9.878  0.0195  0.1453  0.1534
 6701W        W10445   8.255   1.406   9.481  0.2012  0.4815 -0.2685
 6702W        W10446   0.839   9.123  12.414  0.2405  0.0043  0.2437
 6703W        W10447   9.048   0.043   4.284  0.0251  0.0612  0.0654
 6704W        W10448   9.758   0.231  11.495  0.1242 -0.0044 -0.4476
 6705W        W10449   9.642   3.579   8.885  0.3924 -0.0312 -0.0887
 6706W        W10450   0.220   8.150   8.781 -0.0903 -0.1157 -0.0226
 6707W        W10451   5.155   8.669  10.503 -0.0684 -0.0157  0.0754
 6708W        W10452   0.969   9.725  10.458  0.2560 -0.2032  0.2425
 6709W        W10453   1.212   3.645   1.689  0.2710  0.3089 -0.0657
 6710W        W10454   0.341   9.743   2.162  0.1185  0.3553 -0.2894
 6711W        W10455   5.119   6.144   1.506 -0.0849  0.2852 -0.2439
 6712W        W10456   0.889   7.077  12.233 -0.1224  0.1610  0.0769
 6713W        W10457   8.717   9.746  12.952 -0.2692 -0.0301 -0.0111
 6714W        W10458   5.741   2.629   0.755  0.2649  0.0914  0.0308
 6715W        W10459   4.314   8.481   0.185  0.4546  0.3070  0.0082
 6716W        W10460   9.743   8.426   0.880  0.1218  0.1353 -0.0524
 6717W        W10461   7.362   8.194   2.964 -0.1035 -0.2070  0.1509
 6718W        W10462   5.443   2.429  10.720 -0.0827  0.2022  0.1624
 6719W        W10463   2.166   9.262   9.991  0.1475  0.0311 -0.0571
 6720W        W10464   4.572   2.078  10.543 -0.0129 -0.0697 -0.0913
 6721W        W10465   5.465   2.239  10.198 -0.0131 -0.2775 -0.0735
 6722W        W10466   5.115   9.122   9.784 -0.0495  0.0240 -0.0936
 6723W        W10467   0.383   6.520   3.796 -0.0280 -0.1432  0.1846
 6724W        W10468   1.939   5.219   8.675  0.0275  0.1114  0.0262
 6725W        W10469   2.328   0.056  12.672 -0.1697  0.2186 -0.2022
 6726W        W10470   8.267   8.361   3.130 -0.1376  0.0708  0.2532
 6727W        W10471   3.051   9.435  12.663  0.0836  0.1459  0.1273
 6728W        W10472   4.078   7.121   1.267 -0.0983  0.4077 -0.0678
 6729W        W10473   0.496   8.605   3.579  0.1284  0.0075  0.0830
 6730W        W10474   7.106   2.978  11.479 -0.0187  0.1893 -0.2104
 6731W        W10475   6.919   9.129  10.001 -0.4259  0.1526 -0.1749
 6732W        W10476   9.350   8.919  10.168 -0.2468 -0.0989  0.1104
 6733W        W10477   6.251   5.859  11.737  0.1331 -0.0632  0.2457
 6734W        W10478   1.380   6.389   1.339  0.4287  0.0858 -0.2485
 6735W        W10479   8.468   5.668   3.529  0.0492  0.0977 -0.2424
 6736W        W10480   9.516   5.484   8.885  0.1962  0.0961  0.1490
 6737W        W10481   2.291   8.479  11.281 -0.2659  0.1256  0.0564
 6738W        W10482   7.226   1.517  12.350 -0.0651 -0.1406  0.1245
 6739W        W10483   0.308   7.690   2.617  0.3198 -0.2060  0.0216
 6740W        W10484   9.318   9.013   1.074 -0.2104 -0.2697  0.4125
 6741W        W10485   5.876   3.707  11.035 -0.0671  0.3174  0.4638
 6742W        W10486   8.968   2.784   9.582  0.2043  0.0786 -0.0399
 6743W        W10487   9.114   7.925   8.951 -0.0024  0.1816  0.0238
 6744W        W10488   3.162   1.130  12.515 -0.1758 -0.2317  0.2313
 6745W        W10489   0.447   3.783   2.729 -0.1114 -0.0141  0.0624
 6746W        W10490   5.899   6.575   3.159  0.0740  0.2994  0.0171
 6747W        W10491   1.693   5.246   0.760  0.2090 -0.1916  0.3560
 6748W        W10492   6.616   7.493   2.649 -0.0185  0.1440 -0.2395
 6749W        W10493   7.915   6.923   0.617 -0.1182 -0.1378 -0.0176
 6750W        W10494   5.774   6.647   0.918 -0.0998 -0.2158 -0.0330
 6751W        W10495   1.708   0.099  10.950  0.0504  0.0039 -0.3151
 6752W        W10496   0.841   7.413   2.114 -0.4213  0.1186 -0.1597
 6753W        W10497   1.226   4.176   0.034 -0.1589 -0.0096  0.1968
 6754W        W10498   7.285   7.680   0.231 -0.3397 -0.1505  0.2932
 6755W        W10499   9.792   1.222   3.313 -0.0632  0.3435  0.1272
 6756W        W10500   8.119   8.436   3.857 -0.1177 -0.1063 -0.0370
 6757W        W10501   2.613   6.991   0.196 -0.2050  0.3144  0.2354
 6758W        W10502   0.383   3.440   1.353 -0.1240 -0.1120  0.0992
 6759W        W10503   1.946   5.850  10.503  0.1390  0.0678  0.1005
 6760W        W10504   7.508   9.262   2.858 -0.0593  0.1283 -0.1243
 6761W        W10505   3.942   3.919   8.675  0.0010 -0.3829  0.0171
 6762W        W10506   4.132   0.657  12.750 -0.0323  0.0766  0.0579
 6763W        W10507   5.107   7.543  10.237 -0.3297  0.1379  0.3609
 6764W        W10508   3.745   0.471  11.888 -0.2613  0.2180  0.5177
 6765W        W10509   6.936   1.855   2.198 -0.3437 -0.2176 -0.1151
 6766W        W10510   3.891   2.157  10.000  0.0976  0.0685 -0.0454
 6767W        W10511   1.013   7.806   8.798  0.0025  0.1526  0.0646
 6768W        W10512   1.292   0.279   9.155 -0.0909 -0.2691  0.0969
 6769W        W10513   3.806   4.158  10.320 -0.1787  0.1348  0.0264
 6770W        W10514   9.622   9.351   3.023 -0.0326  0.1946 -0.1768
 6771W        W10515   5.315   0.023  11.466 -0.1448 -0.0609 -0.0301
 6772W        W10516   9.197   3.223   0.212  0.0282 -0.0272  0.0217
 6773W        W10517   8.202   9.059   3.055 -0.1398 -0.1967  0.0330
 6774W        W10518   6.159   9.192   2.448 -0.1266 -0.0839  0.1889
 6775W        W10519   6.540   3.267   3.441 -0.2061  0.0774 -0.3225
 6776W        W10520   0.940   1.213  12.234 -0.3105 -0.1071  0.0548
 6777W        W10521   3.636   3.459   9.013  0.0727 -0.1164  0.0026
 6778W        W10522   8.046   3.687   0.718  0.2025 -0.0032  0.1363
 6779W        W10523   6.804   2.607   0.192 -0.1169  0.0465 -0.2297
 6780W        W10524   1.857   9.611   0.821  0.0139  0.0662 -0.0479
 6781W        W10525   5.933   1.310  12.169 -0.1281  0.0617 -0.1414
 6782W        W10526   8.374   7.433  11.777  0.1258  0.0395 -0.2629
 6783W        W10527   8.529   9.221   0.312  0.2380 -0.1599  0.0104
 6784W        W10528   0.108   0.803  12.172 -0.1021  0.1018  0.0262
 6785W        W10529   3.367   7.362   1.884 -0.1518 -0.0316  0.3759
 6786W        W10530   7.636   3.288   0.288  0.0980  0.1373 -0.1379
 6787W        W10531   7.051   0.791  11.154  0.0297 -0.1353  0.1639
 6788W        W10532   3.849   8.575   3.788 -0.0521  0.1539  0.3214
 6789W        W10533   1.193   1.592   1.634  0.1953  0.2718  0.2324
 6790W        W10534   3.184   9.700   1.746 -0.0494  0.1499 -0.1759
 6791W        W10535   1.911   1.021  11.954  0.1373  0.4031  0.1608
 6792W        W10536   3.443   4.879   9.892  0.2530  0.3637 -0.0061
 6793W        W10537   3.325   1.493   2.143  0.0526 -0.1821 -0.0017
 6794W        W10538   6.697   0.506   2.097 -0.1412 -0.4204 -0.1117
 6795W        W10539   2.113   3.523   5.109  0.0643  0.0201 -0.1280
 6796W        W10540   6.046   1.933   3.013 -0.0465  0.1257 -0.0827
 6797W        W10541   1.899   3.957  11.215  0.1295 -0.1700  0.1178
 6798W        W10542   1.055   0.806   4.209 -0.1332 -0.2745 -0.0659
 6799W        W10543   0.485   3.443   3.099 -0.0099 -0.0689 -0.2537
 6800W        W10544   3.080   1.875  10.366 -0.0710 -0.0551  0.2930
 6801W        W10545   1.905   2.629   9.094  0.0933 -0.3614 -0.0250
 6802W        W10546   4.498   1.714   2.216 -0.0580 -0.3418  0.3263
 6803W        W10547   2.888   0.312   9.737  0.0540 -0.0632  0.0426
 6804W        W10548   1.658   3.150   9.644 -0.2363  0.0803  0.4816
 6805W        W10549   3.577   5.244  10.664 -0.3138 -0.3350  0.4072
 6806W        W10550   6.258   6.981   8.626  0.2940 -0.1587 -0.2165
 6807W        W10551   5.480   1.033   2.243  0.0460 -0.0232 -0.1432
 6808W        W10552   0.074   6.396  12.635 -0.3549  0.2100 -0.3371
 6809W        W10553   7.064   1.702  11.307 -0.0198 -0.1821  0.1747
 6810W        W10554   9.732   8.519   4.763 -0.0588  0.1286 -0.1060
 6811W        W10555   1.106   1.363   1.146 -0.1560  0.1577 -0.1989
 6812W        W10556   7.601   5.467  10.164  0.0223 -0.0290  0.2821
 6813W        W10557   3.399   8.819  11.989  0.0827 -0.1747  0.1462
 6814W        W10558   0.596   8.436   9.971  0.1232  0.0504  0.1689
 6815W        W10559   8.429   4.688  10.591 -0.1350  0.0914  0.1037
 6816W        W10560   5.720   7.954   1.701 -0.0564  0.1688  0.2033
 6817W        W10561   6.024   8.032   9.712  0.0788 -0.0476  0.0055
 6818W        W10562   7.100   5.494  10.508 -0.1295 -0.1840 -0.0072
 6819W        W10563   2.308   8.597   9.724 -0.1398  0.2378 -0.0636
 6820W        W10564   4.274   0.556   2.006 -0.1046  0.0232  0.2852
 6821W        W10565   0.550   3.394   0.828  0.0838  0.2522 -0.2547
 6822W        W10566   2.333   1.906  11.197  0.1021 -0.0286 -0.2409
 6823W        W10567   6.302   4.541   9.911  0.0146  0.3315 -0.1798
 6824W        W10568   0.927   9.438  11.234 -0.4829 -0.2659 -0.0650
 6825W        W10569   5.773   8.275  10.119 -0.1438  0.1225  0.0450
 6826W        W10570   1.449   8.819  10.412  0.0278 -0.0935 -0.0792
 6827W        W10571   0.041   6.618  11.277  0.1826  0.1929  0.0733
 6828W        W10572   9.677   4.486   0.150 -0.0023 -0.2835  0.0196
 6829W        W10573   0.573   9.555   3.633  0.1492  0.0642  0.1459
 6830W        W10574   3.572   1.771  10.012  0.3109 -0.3129  0.1163
 6831W        W10575   1.517   0.535   3.498 -0.1020  0.1962  0.1759
 6832W        W10576   2.540   7.140   9.110 -0.0456 -0.2959  0.4182
 6833W        W10577   8.046   4.863  11.042 -0.1224  0.1729 -0.2815
 6834W        W10578   2.543   2.135   2.044  0.1435  0.0912  0.0268
 6835W        W10579   9.731   7.980   4.040 -0.0564 -0.0341 -0.1564
 6836W        W10580   6.834   6.836  10.767  0.0734 -0.0223  0.1881
 6837W        W10581   5.524   6.201   7.928 -0.0005  0.3917 -0.0014
 6838W        W10582   1.607   9.267   9.194 -0.0541  0.0228 -0.0936
 6839W        W10583   6.575   8.801  11.792 -0.2462 -0.0109  0.1908
 6840W        W10584   0.034   4.808  12.848 -0.0919 -0.1197  0.2124
 6841W        W10585   7.303   0.264  11.887  0.3159  0.0804 -0.1944
 6842W        W10586   0.900   6.317   9.875  0.0010  0.0168  0.3589
 6843W        W10587   3.072   9.589  12.178  0.2231  0.1520  0.0373
 6844W        W10588   8.329   1.443   2.946 -0.0942 -0.3653 -0.0296
 6845W        W10589   2.142   6.238   9.600 -0.1038 -0.0466  0.1619
 6846W        W10590   3.124   6.320   0.652  0.1722  0.0810 -0.2057
 6847W        W10591   9.611   4.364  11.968 -0.1898 -0.1973  0.1152
 6848W        W10592   4.354   1.593   0.691  0.1024 -0.0902 -0.3341
 6849W        W10593   7.550   7.754  11.333 -0.1107 -0.0099 -0.3697
 6850W        W10594   4.989   3.350  10.592 -0.1019 -0.0875  0.0153
 6851W        W10595   8.146   1.590  11.804  0.0345  0.2467 -0.0108
 6852W        W10596   8.067   5.543  10.009 -0.1078 -0.0725  0.0435
 6853W        W10597   1.631   1.429  12.915  0.1900 -0.2676  0.0569
 6854W        W10598   5.358   2.835   9.027  0.1361  0.2628  0.0472
 6855W        W10599   4.250   3.517  10.232 -0.1003  0.0208  0.0005
 6856W        W10600   4.849   0.951   0.785  0.0680 -0.0195 -0.1880
 6857W        W10601   5.803   6.322   2.655 -0.1866 -0.1453 -0.1689
 6858W        W10602   4.461   2.603   8.528  0.3478 -0.0845  0.0800
 6859W        W10603   2.145   2.894   3.028  0.0271 -0.0859  0.2059
 6860W        W10604   1.657   5.940  12.167  0.0685 -0.0705 -0.3725
 6861W        W10605   0.294   4.795  11.170  0.0798 -0.0290 -0.1111
 6862W        W10606   2.693   9.118  11.025 -0.2533 -0.0886 -0.4119
 6863W        W10607   3.534   6.572   9.283 -0.2427 -0.1775 -0.0563
 6864W        W10608   8.515   7.683   2.297  0.1128 -0.1519  0.2248
 6865W        W10609   5.583   1.915  11.554 -0.2657 -0.0446 -0.1653
 6866W        W10610   3.943   7.678  12.848 -0.0017 -0.0132 -0.1419
 6867W        W10611   8.768   1.695   0.150 -0.1236  0.1122  0.4037
 6868W        W10612   7.774   0.948  10.703 -0.1778 -0.1217  0.1739
 6869W        W10613   5.019   3.459   2.875 -0.0934 -0.0680 -0.0246
 6870W        W10614   0.753   8.739   2.145  0.1263  0.1193 -0.0928
 6871W        W10615   2.581   9.565   3.521 -0.4162 -0.3257 -0.0114
 6872W        W10616   2.907   7.191   0.604  0.0713  0.0119 -0.0239
 6873W        W10617   7.103   2.516  11.370 -0.2328 -0.1674  0.1350
 6874W        W10618   3.543   2.451   9.204  0.2408 -0.3294 -0.5008
 6875W        W10619   4.969   5.423   4.111 -0.3705  0.1996  0.4297
 6876W        W10620   6.519   8.863   2.698 -0.1506  0.0166  0.0058
 6877W        W10621   1.637   9.060   4.298 -0.1581 -0.3369  0.3631
 6878W        W10622   2.490   8.242   3.776  0.0982  0.1440 -0.1092
 6879W        W10623   4.703   3.567   1.051 -0.2878 -0.0823 -0.1466
 6880W        W10624   4.241   1.729   2.868  0.0648  0.2241 -0.0221
 6881W        W10625   6.983   5.554   2.628 -0.1257  0.1597  0.0518
 6882W        W10626   9.403   4.037   9.026  0.1313  0.1851 -0.0788
 6883W        W10627   1.132   3.285   9.974  0.0269  0.1247 -0.5284
 6884W        W10628   7.117   2.219   0.226 -0.0010 -0.3159 -0.0863
 6885W        W10629   9.616   8.147   9.678  0.1627 -0.1165 -0.0640
 6886W        W10630   5.180   5.933   8.648 -0.2529 -0.3896  0.2363
 6887W        W10631   8.089   5.749  10.893  0.2095 -0.1247 -0.0599
 6888W        W10632   0.808   2.111   9.777  0.0152 -0.2253  0.0947
 6889W        W10633   5.089   4.170   3.594 -0.2375 -0.1449 -0.3832
 6890W        W10634   0.608   8.439  12.947 -0.4169 -0.0434  0.1067
 6891W        W10635   8.897   6.222  10.558 -0.0509 -0.0918 -0.2727
 6892W        W10636   5.712   8.362   2.022 -0.0164  0.1306 -0.4880
 6893W        W10637   6.727   3.319   1.261  0.3684 -0.0161  0.0938
 6894W        W10638   3.896   0.093   2.204 -0.5852  0.1633 -0.0347
 6895W        W10639   6.591   2.947   9.949  0.2525 -0.3091 -0.0742
 6896W        W10640   5.986   5.835   7.823 -0.1239  0.1920 -0.3383
 6897W        W10641   3.764   0.384  12.357  0.0369 -0.0444 -0.3005
 6898W        W10642   5.447   5.344   8.432 -0.1876 -0.1971  0.1443
 6899W        W10643   0.555   3.055  11.284  0.2625  0.2224 -0.2179
 6900W        W10644   2.471   3.315  12.013 -0.1034 -0.0723 -0.1807
 6901W        W10645   8.404   8.331  12.787  0.1528  0.1927  0.0084
 6902W        W10646   9.535   1.299   2.761 -0.2433 -0.1429  0.4335
 6903W        W10647   2.790   4.371   9.328  0.0403  0.0260 -0.0345
 6904W        W10648   3.785   3.749   2.829 -0.0488 -0.0283  0.0503
 6905W        W10649   8.194   3.516   3.870 -0.1242  0.2430 -0.0823
 6906W        W10650   9.425   6.151   9.839 -0.0959 -0.1646  0.0287
 6907W        W10651   7.388   4.753   0.163  0.0357  0.1006 -0.3586
 6908W        W10652   1.594   4.195   4.317  0.0396 -0.4263  0.0756
 6909W        W10653   1.874   4.669   3.355 -0.1506 -0.0782  0.4093
 6910W        W10654   7.433   9.531  10.514  0.0498  0.0479 -0.0029
 6911W        W10655   0.042   3.898   3.844 -0.0919 -0.1723 -0.1548
 6912W        W10656   6.993   4.848   0.911 -0.1338 -0.1133 -0.0144
 6913W        W10657   1.019   1.785  10.081  0.1230  0.0800  0.1529
 6914W        W10658   2.191   4.336  10.357 -0.0092 -0.3601 -0.0422
 6915W        W10659   5.031   7.279   1.349  0.3533 -0.1192  0.2505
 6916W        W10660   0.999   0.623   3.695 -0.0363 -0.0599  0.1886
 6917W        W10661   5.609   0.801   1.503 -0.1443  0.0395 -0.0288
 6918W        W10662   6.373   2.461  10.669 -0.0871  0.1695  0.1185
 6919W        W10663   3.673   7.771  11.760  0.0106  0.0958 -0.0710
 6920W        W10664   3.250   2.544   9.695 -0.1127  0.1942 -0.3083
 6921W        W10665   2.576   2.576  12.704 -0.0150  0.0880  0.2407
 6922W        W10666   6.239   9.614  12.493 -0.0327 -0.1634  0.1172
 6923W        W10667   8.363   6.460  11.958  0.0824  0.1071  0.1153
 6924W        W10668   5.582   9.705   3.597 -0.3045  0.1703  0.2149
 6925W        W10669   1.840   2.797  11.068 -0.0811  0.2186  0.0091
 6926W        W10670   8.253   7.992   3.958 -0.3969 -0.2189 -0.2063
 6927W        W10671   1.048   6.193  12.267 -0.1202  0.0184  0.0643
 6928W        W10672   1.447   4.803  12.459  0.1648  0.0450 -0.0173
 6929W        W10673   7.562   6.898   2.406  0.1167 -0.0793 -0.0763
 6930W        W10674   9.063   6.109   1.186 -0.0892  0.2314 -0.0698
 6931W        W10675   5.871   3.186  10.224 -0.0833 -0.3452  0.0994
 6932W        W10676   0.998   7.618   0.578 -0.2337 -0.2997 -0.3107
 6933W        W10677   0.848   7.820   1.761  0.1535  0.1150  0.2121
 6934W        W10678   3.783   1.545   2.928  0.1581  0.1596 -0.2627
 6935W        W10679   2.684   6.751  11.299 -0.0825  0.0583 -0.3559
 6936W        W10680   2.889   3.554   4.378  0.1711  0.2081 -0.1246
 6937W        W10681   6.226   1.513  11.346 -0.2227  0.0582 -0.1040
 6938W        W10682   7.213   8.927   1.549  0.2083  0.4011  0.1485
 6939W        W10683   9.496   6.783   9.143 -0.3110 -0.0706  0.0053
 6940W        W10684   3.395   2.382   2.527 -0.0867  0.1148 -0.0361
 6941W        W10685   7.269   7.357   2.633 -0.3233 -0.3193  0.0224
 6942W        W10686   6.432   4.052   9.237  0.0830  0.3445  0.0632
 6943W        W10687   6.882   7.011  11.526 -0.0796  0.1189 -0.1567
 6944W        W10688   9.050   8.396   0.314  0.1636 -0.0596 -0.3226
 6945W        W10689   1.355   9.311   2.896  0.2825 -0.0103  0.3335
 6946W        W10690   3.281   4.883   3.278  0.0923 -0.0369  0.1751
 6947W        W10691   0.960   5.146   3.910  0.0948 -0.0687  0.1914
 6948W        W10692   3.036   3.494   3.014  0.2822 -0.0622  0.4809
 6949W        W10693   2.968   0.092  11.003 -0.2153 -0.4134 -0.2839
 6950W        W10694   8.799   2.429   1.405  0.2118 -0.1714 -0.3754
 6951W        W10695   8.152   8.803  12.002  0.3077 -0.0272  0.0222
 6952W        W10696   4.610   9.190   9.876 -0.0821  0.0000 -0.0189
 6953W        W10697   0.854   3.551  11.497  0.0192  0.3108  0.0185
 6954W        W10698   6.342   5.289   0.098 -0.1638 -0.0720  0.2277
 6955W        W10699   2.416   5.298   8.339 -0.0235 -0.1144  0.4894
 6956W        W10700   3.249   3.268   2.550  0.1440 -0.1625 -0.0613
 6957W        W10701   0.663   9.216  10.155 -0.1905  0.1726 -0.0924
 6958W        W10702   1.543   5.880  11.586 -0.1323  0.1265 -0.1169
 6959W        W10703   8.436   3.058  11.195 -0.4131 -0.1578 -0.2023
 6960W        W10704   5.388   6.414  12.148 -0.0256  0.3669  0.1147
 6961W        W10705   5.638   5.736   8.747  0.1488  0.1627  0.0058
 6962W        W10706   3.593   8.571  12.747  0.1479 -0.1400  0.3902
 6963W        W10707   1.622   5.305   1.861 -0.1489 -0.4430 -0.2943
 6964W        W10708   0.722   3.965  12.919  0.1055 -0.1664  0.1343
 6965W        W10709   3.757   7.542   3.043 -0.0514 -0.0187 -0.1176
 6966W        W10710   4.533   8.353  12.664 -0.0198  0.2503 -0.0842
 6967W        W10711   0.939   0.242   5.046  0.2209 -0.0193  0.0470
 6968W        W10712   9.824   8.855   3.726 -0.0739 -0.3452  0.2419
 6969W        W10713   9.047   6.071   4.052 -0.0495 -0.1448  0.1261
 6970W        W10714   1.622   4.656   2.330 -0.2181  0.2147  0.2580
 6971W        W10715   6.963   6.354   9.322  0.1727  0.0574 -0.2094
 6972W        W10716   8.905   6.361   0.803  0.0784 -0.0026 -0.1084
 6973W        W10717   7.532   3.058   1.214 -0.2462  0.1266  0.2126
 6974W        W10718   4.224   0.870   0.703 -0.0715 -0.0662 -0.2266
 6975W        W10719   4.013   7.862   0.427 -0.1682  0.0969 -0.0042
 6976W        W10720   2.353   1.743   0.239  0.1030  0.3675 -0.0659
 6977W        W10721   0.266   1.686   9.027  0.0834  0.2641  0.1213
 6978W        W10722   2.086   3.560   1.963 -0.3297  0.1203  0.1265
 6979W        W10723   1.720   3.056   2.603  0.0018 -0.0765 -0.0399
 6980W        W10724   7.506   7.982  10.860 -0.0066  0.0642 -0.4293
 6981W        W10725   4.707   0.997   2.831 -0.0551 -0.0190  0.1039
 6982W        W10726   1.505   2.264  10.244 -0.0509  0.0604 -0.1468
 6983W        W10727   7.630   4.712  11.954 -0.2166 -0.1713  0.2256
 6984W        W10728   9.871   0.426  10.032 -0.0956 -0.0285 -0.2151
 6985W        W10729   9.093   9.531  12.611  0.2059  0.4767 -0.1535
 6986W        W10730   3.039   1.573  11.687 -0.0675 -0.0619 -0.1376
 6987W        W10731   0.437   5.974   9.577 -0.0875  0.0585  0.1597
 6988W        W10732   7.501   2.014  10.592  0.3715 -0.2003 -0.0703
 6989W        W10733   4.981   1.485   9.663 -0.0899  0.2766  0.3527
 6990W        W10734   8.311   6.313  12.408  0.0083 -0.1545  0.0074
 6991W        W10735   3.902   3.755   9.918  0.0121  0.2442  0.3222
 6992W        W10736   7.348   1.059  10.156 -0.0331 -0.1221 -0.3793
 6993W        W10737   4.874   8.918   1.788 -0.1479  0.0444  0.0616
 6994W        W10738   8.734   8.218  11.667 -0.1057  0.1931 -0.0949
 6995W        W10739   8.793   8.122   0.775 -0.1988  0.2240 -0.0062
 6996W        W10740   1.318   9.001   0.125 -0.1316 -0.2922 -0.1337
 6997W        W10741   9.750   6.907  12.288 -0.1039 -0.0515 -0.2733
 6998W        W10742   2.297   4.043  11.511 -0.1941  0.0347  0.0289
 6999W        W10743   4.853   7.509   1.734  0.0540 -0.2241  0.3026
 7000W        W10744   4.251   5.751  11.265 -0.0524  0.2064  0.1428
 7001W        W10745   0.463   0.872  10.552 -0.0254  0.1973 -0.1942
 7002W        W10746   5.277   4.695  11.474 -0.2487  0.0493  0.2412
 7003W        W10747   8.120   2.723   3.487 -0.0123  0.1658 -0.0396
 7004W        W10748   1.151   5.790   0.105 -0.2257  0.0271  0.1622
 7005W        W10749   5.184   4.175   7.690  0.2531 -0.3041  0.0282
 7006W        W10750   3.565   2.734   1.587  0.0164 -0.0777  0.1633
 7007W        W10751   2.972   6.740  10.510 -0.0610 -0.2682  0.1965
 7008W        W10752   1.514   9.101   8.516  0.0330  0.0608 -0.2694
 7009W        W10753   0.484   6.539   9.573  0.0306 -0.0784 -0.6849
 7010W        W10754   6.482   2.428  12.095 -0.2133 -0.0932 -0.0456
 7011W        W10755   5.544   4.183   3.864  0.2684  0.4087  0.2093
 7012W        W10756   3.964   7.972  12.101 -0.3854 -0.0533 -0.0544
 7013W        W10757   7.656   9.524   9.643 -0.1663 -0.1375 -0.4076
 7014W        W10758   2.412   2.433  10.384 -0.1507 -0.1227  0.1008
 7015W        W10759   5.315   5.029   1.552 -0.0002 -0.0467  0.3233
 7016W        W10760   8.520   4.710  11.357  0.2093 -0.0137  0.2889
 7017W        W10761   4.682   4.157   9.704  0.1928 -0.1588 -0.0625
 7018W        W10762   4.191   8.800   0.519  0.4256 -0.0261 -0.0860
 7019W        W10763   0.047   9.206  12.516  0.1058  0.2470 -0.3021
 7020W        W10764   6.393   9.421   1.184  0.1807  0.2468  0.0888
 7021W        W10765   9.126   3.676  12.584 -0.1455 -0.0960 -0.0068
 7022W        W10766   0.911   6.231   4.042  0.3165 -0.2201 -0.2531
 7023W        W10767   4.947   8.706   3.056 -0.0856  0.0069 -0.3088
 7024W        W10768   5.956   8.009   0.683  0.1149 -0.1859  0.0687
 7025W        W10769   1.591   6.778  11.877  0.2037 -0.2907  0.0758
 7026W        W10770   9.238   1.259   3.450 -0.0210  0.2228 -0.0751
 7027W        W10771   1.623   9.464   3.686  0.1847  0.0998  0.1953
 7028W        W10772   4.126   7.597  11.834  0.2207 -0.2447 -0.4591
 7029W        W10773   1.135   2.586   3.880 -0.2928 -0.1066 -0.0723
 7030W        W10774   8.759   9.079   2.931  0.0433 -0.1957  0.0521
 7031W        W10775   7.427   3.941   1.094  0.0350 -0.1231 -0.1726
 7032W        W10776   2.432   7.845   0.023 -0.3225 -0.2659 -0.2280
 7033W        W10777   0.818   6.502   0.475 -0.1660 -0.1123  0.3305
 7034W        W10778   3.655   6.490   4.293 -0.1863  0.2617  0.0244
 7035W        W10779   9.097   1.816   3.519  0.3864  0.1983  0.2345
 7036W        W10780   2.510   3.595   4.703  0.2208 -0.0156 -0.2342
 7037W        W10781   1.618   6.105   2.893 -0.1390 -0.1020 -0.1016
 7038W        W10782   8.993   9.224   3.406 -0.0903  0.3246  0.0239
 7039W        W10783   4.629   5.813  12.351 -0.3643  0.0993  0.0799
 7040W        W10784   3.472   8.496   4.138 -0.0042 -0.2433 -0.1608
 7041W        W10785   5.787   6.497  12.536  0.0611 -0.0272  0.0369
 7042W        W10786   6.870   7.210   2.984 -0.1099 -0.4514  0.0822
 7043W        W10787   2.845   3.881  10.727  0.0299 -0.3723 -0.0509
 7044W        W10788   9.336   7.914  11.290  0.3047 -0.1262 -0.0658
 7045W        W10789   6.960   6.039   1.824  0.0484  0.1053  0.2109
 7046W        W10790   1.831   7.284  11.885 -0.0088  0.2361 -0.3664
 7047W        W10791   2.255   7.132  10.915  0.2594 -0.2763  0.1982
 7048W        W10792   6.046   4.159  11.688 -0.2906  0.1187  0.1655
 7049W        W10793   1.909   3.496   4.242  0.0477  0.2281  0.1632
 7050W        W10794   8.198   8.849   0.533 -0.1282 -0.2917  0.2791
 7051W        W10795   8.965   0.767   3.205 -0.2280 -0.0740  0.1490
 7052W        W10796   2.043   0.905   0.075 -0.1030 -0.0404 -0.0582
 7053W        W10797   0.553   3.439  12.389  0.3605  0.2241  0.0347
 7054W        W10798   7.357   2.213  10.122  0.2466  0.2776 -0.1826
 7055W        W10799   0.077   3.480   0.680 -0.1764 -0.1615 -0.0751
 7056W        W10800   1.060   0.711   5.163 -0.0265 -0.0764  0.1523
 7057W        W10801   1.072   3.873   9.714  0.0221  0.1012 -0.0794
 7058W        W10802   5.674   7.509  12.403  0.0747 -0.0233  0.1867
 7059W        W10803   7.399   1.680  10.232 -0.1131  0.1530 -0.2870
 7060W        W10804   4.766   4.375  12.361  0.1653 -0.0774  0.2261
 7061W        W10805   3.858   4.894   2.369 -0.0432  0.0680  0.0053
 7062W        W10806   6.252   6.603   0.840  0.1563 -0.1861 -0.0705
 7063W        W10807   3.351   8.438   1.068 -0.1986  0.0216 -0.0624
 7064W        W10808   8.636   1.817   3.240 -0.1938 -0.3632  0.0950
 7065W        W10809   8.874   2.221  10.943 -0.1531 -0.1907  0.1240
 7066W        W10810   4.727   5.222   1.383  0.1755  0.5477  0.0925
 7067W        W10811   8.667   9.866   1.765  0.1786  0.2929  0.0057
 7068W        W10812   3.976   7.456   3.988 -0.0102  0.1152  0.0998
 7069W        W10813   0.439   0.514   4.635  0.2971  0.2527 -0.0445
 7070W        W10814   1.647   4.611  11.948 -0.0961 -0.3243 -0.0447
 7071W        W10815   8.900   0.711   2.263 -0.2384 -0.4240 -0.4775
 7072W        W10816   2.607   8.873   1.945 -0.0620  0.1885  0.3305
 7073W        W10817   3.969   7.015   2.897  0.2407  0.1044 -0.1013
 7074W        W10818   3.205   4.798   8.979  0.0167 -0.0291 -0.1211
 7075W        W10819   5.722   0.535   0.678  0.0955 -0.2187  0.4026
 7076W        W10820   3.474   0.129   0.896 -0.0215 -0.1220 -0.0638
 7077W        W10821   3.421   5.404  12.216  0.2969 -0.0263 -0.1105
 7078W        W10822   8.459   1.190  12.335 -0.1375 -0.0660 -0.0399
 7079W        W10823   9.875   6.330  10.706  0.0925  0.3067  0.3348
 7080W        W10824   7.694   5.904   1.530 -0.2411  0.0190  0.1261
 7081W        W10825   7.169   0.079   1.538 -0.2428  0.0700 -0.0840
 7082W        W10826   0.257   1.881  10.049 -0.0642 -0.2650 -0.0808
 7083W        W10827   4.719   6.489   0.917 -0.0245  0.2803  0.0116
 7084W        W10828   9.215   5.562  11.608  0.0660  0.2076 -0.0687
 7085W        W10829   0.382   1.452   4.055 -0.0773 -0.5431  0.2308
 7086W        W10830   4.166   3.751   3.660 -0.2167  0.1958  0.0741
 7087W        W10831   0.377   9.463   1.459  0.1993 -0.1853 -0.1326
 7088W        W10832   9.337   3.699   0.052 -0.2104  0.2123 -0.1370
 7089W        W10833   2.237   1.299   4.208  0.1049 -0.0881 -0.3021
 7090W        W10834   7.654   8.263   9.153 -0.1951  0.0246  0.3547
 7091W        W10835   0.548   7.418   0.343 -0.0794  0.2746 -0.1666
 7092W        W10836   0.733   0.929   0.222 -0.1898  0.1913  0.3216
 7093W        W10837   9.730   3.063   3.761  0.1497 -0.1065  0.2146
 7094W        W10838   6.869   0.174   2.383 -0.1198  0.0235 -0.0206
 7095W        W10839   7.938   9.642  10.636 -0.0546 -0.1623  0.1014
 7096W        W10840   8.473   0.557  11.717 -0.0617 -0.2338  0.2275
 7097W        W10841   8.408   1.713   2.429 -0.2139  0.1820  0.1162
 7098W        W10842   1.479   3.507   8.666  0.1860  0.3841 -0.1570
 7099W        W10843   0.628   4.327   1.252  0.0105  0.1333  0.0939
 7100W        W10844   4.935   3.021   9.241  0.0897  0.0780 -0.0523
 7101W        W10845   2.691   3.213   1.519  0.2996 -0.1620  0.2573
 7102W        W10846   8.318   4.738   2.424 -0.0672  0.0259 -0.0904
 7103W        W10847   3.531   4.687  10.480 -0.4043  0.2668 -0.2539
 7104W        W10848   3.973   5.502  11.577  0.0995  0.3309  0.2852
 7105W        W10849   6.175   4.581  11.384 -0.0948  0.3423  0.5401
 7106W        W10850   7.906   7.619   3.928 -0.2994  0.0493  0.1607
 7107W        W10851   9.249   5.217  10.341  0.2442 -0.0616  0.3668
 7108W        W10852   2.069   5.429  12.904 -0.1967 -0.3682 -0.3300
 7109W        W10853   1.734   8.431   2.013 -0.2910  0.1569 -0.0190
 7110W        W10854   1.736   8.499   0.371 -0.0599  0.3021  0.0499
 7111W        W10855   3.683   4.877   9.448  0.2152 -0.0592 -0.0497
 7112W        W10856   6.647   1.013   0.506 -0.0179  0.0236 -0.1885
 7113W        W10857   6.707   7.225  10.408 -0.1973 -0.2086 -0.0952
 7114W        W10858   3.369   2.876  12.147 -0.1971 -0.0169  0.0527
 7115W        W10859   9.691   3.829  10.053 -0.0383  0.0922 -0.1563
 7116W        W10860   8.720   2.909   9.152  0.2694 -0.1895  0.1035
 7117W        W10861   5.450   6.166   9.023 -0.1213  0.0586 -0.2132
 7118W        W10862   3.660   3.561   9.505 -0.0333  0.1820  0.1679
 7119W        W10863   8.871   8.128   5.073 -0.0850  0.1549  0.1508
 7120W        W10864   0.533   4.783   3.214 -0.0654 -0.1493 -0.2334
 7121W        W10865   2.461   4.063  12.978  0.0751  0.2192  0.3847
 7122W        W10866   9.289   1.023   9.059  0.2945  0.0472 -0.0819
 7123W        W10867   0.154   4.346  12.790 -0.0497  0.0729  0.0170
 7124W        W10868   4.867   7.808   3.002 -0.0231 -0.1636  0.0208
 7125W        W10869   1.897   3.762  11.694  0.1307 -0.0646 -0.0886
 7126W        W10870   8.612   3.399  10.090  0.4018 -0.1159 -0.4296
 7127W        W10871   4.124   3.278  12.087  0.0256  0.0838 -0.4349
 7128W        W10872   1.418   5.399   4.007  0.1122  0.4869 -0.0740
 7129W        W10873   0.829   2.243   8.254 -0.3866 -0.1345  0.2686
 7130W        W10874   3.713   7.180   0.033 -0.3092  0.0061  0.4465
 7131W        W10875   9.565   4.419   9.887  0.0630 -0.0416 -0.0955
 7132W        W10876   7.873   1.811  10.158 -0.2344 -0.1759  0.4274
 7133W        W10877   9.840   7.994  10.088 -0.2581 -0.1662 -0.2874
 7134W        W10878   2.604   9.689   1.314  0.0745  0.1049  0.0861
 7135W        W10879   5.485   9.187   3.624  0.0885  0.3963  0.3504
 7136W        W10880   6.305   7.639   0.826 -0.0929  0.4723  0.1090
 7137W        W10881   6.371   9.165  12.040 -0.3147  0.1195 -0.1165
 7138W        W10882   3.587   1.492   4.259  0.1127  0.2577  0.2746
 7139W        W10883   2.305   5.002  11.299  0.1839 -0.0307 -0.0314
 7140W        W10884   2.563   9.546  12.563 -0.1530 -0.1765  0.1489
 7141W        W10885   4.493   1.439  11.063  0.4961  0.3705  0.2265
 7142W        W10886   9.432   0.530   0.859  0.0495  0.2599  0.1178
 7143W        W10887   1.068   9.488   0.374 -0.2818  0.1830 -0.0799
 7144W        W10888   8.930   9.108   3.860  0.1275  0.1002  0.0988
 7145W        W10889   2.260   2.196   0.292  0.0707  0.2519 -0.0008
 7146W        W10890   6.220   1.102  10.719  0.0224  0.0775 -0.0229
 7147W        W10891   2.690   9.151   0.042  0.3190 -0.0725 -0.0345
 7148W        W10892   2.651   2.939   0.852 -0.3971  0.1169 -0.0513
 7149W        W10893   1.759   0.411  10.553  0.0807 -0.2440 -0.0173
 7150W        W10894   4.395   8.379  10.127  0.2250 -0.0467  0.2754
 7151W        W10895   2.753   8.793   9.480 -0.4673  0.0177 -0.0250
 7152W        W10896   9.331   3.314  10.628  0.4587  0.1455 -0.1066
 7153W        W10897   8.599   9.347   1.767 -0.0205 -0.0185 -0.0978
 7154W        W10898   7.732   4.832   3.735  0.0219 -0.1849  0.0916
 7155W        W10899   7.492   5.317   0.011  0.3138 -0.0420 -0.0519
 7156W        W10900   4.017   8.345  11.733 -0.2175  0.0041  0.3436
 7157W        W10901   8.329   6.842   8.296 -0.0045  0.0495 -0.0320
 7158W        W10902   1.453   2.508   0.784  0.0047 -0.2639  0.1361
 7159W        W10903   6.480   4.357   2.817  0.0483 -0.3908 -0.0154
 7160W        W10904   7.704   1.338   9.988  0.1155  0.1669  0.0084
 7161W        W10905   0.104   4.037  11.808 -0.0400  0.2168  0.3519
 7162W        W10906   4.119   6.441   0.795  0.0211 -0.1266 -0.1932
 7163W        W10907   9.133   8.759   3.116  0.0679  0.1869 -0.0810
 7164W        W10908   4.565   5.811   2.694 -0.1017 -0.1853 -0.4271
 7165W        W10909   0.808   7.425   8.582 -0.0266  0.3795  0.3809
 7166W        W10910   8.793   1.419   3.597 -0.0421 -0.1213  0.0369
 7167W        W10911   0.257   3.120   0.370  0.5560  0.0582  0.0232
 7168W        W10912   6.209   3.761  11.418 -0.1712  0.4713  0.1691
 7169W        W10913   8.544   5.634  11.294  0.0188 -0.1106 -0.2691
 7170W        W10914   7.620   4.290   0.746 -0.1964  0.1135 -0.0665
 7171W        W10915   7.552   4.311   2.000 -0.1163 -0.0426  0.0275
 7172W        W10916   7.409   0.913   2.339  0.1003  0.0409  0.2762
 7173W        W10917   7.841   5.033  10.055 -0.2612 -0.2298 -0.0496
 7174W        W10918   2.539   6.729   9.511 -0.1278 -0.1134  0.0668
 7175W        W10919   0.714   3.394   2.401  0.1389  0.0882 -0.1690
 7176W        W10920   9.576   3.338   4.957  0.1232  0.1103  0.3042
 7177W        W10921   5.624   2.488   2.200 -0.0595  0.0479 -0.5172
 7178W        W10922   6.645   2.978  12.237  0.0623 -0.0768 -0.0257
 7179W        W10923   1.557   5.340   9.581 -0.0443  0.4093  0.1137
 7180W        W10924   0.345   6.837   4.238 -0.0028  0.0377  0.2415
 7181W        W10925   6.716   1.066   9.983 -0.0761  0.3050 -0.1542
 7182W        W10926   4.781   2.271  11.388 -0.0613  0.2455 -0.3140
 7183W        W10927   1.659   3.947  12.830  0.1420  0.0277  0.1125
 7184W        W10928   5.846   1.157  12.658  0.0144  0.1071 -0.0880
 7185W        W10929   9.591   7.913   3.562  0.2708  0.1008  0.3294
 7186W        W10930   5.088   9.303   0.542  0.1151  0.1150 -0.0676
 7187W        W10931   4.299   5.608  12.735 -0.2404 -0.0355  0.3259
 7188W        W10932   8.600   5.117   0.128 -0.2248  0.1570  0.1225
 7189W        W10933   5.546   9.386  10.019  0.0955  0.0359  0.2368
 7190W        W10934   5.747   2.116  12.940 -0.0648 -0.1506 -0.0725
 7191W        W10935   2.388   6.210   3.534 -0.2663 -0.3916 -0.0194
 7192W        W10936   4.988   0.177   9.949  0.2352 -0.1942 -0.2262
 7193W        W10937   3.797   9.469   2.292 -0.1253  0.0172  0.2554
 7194W        W10938   1.113   1.153   4.817  0.1163 -0.1182  0.0502
 7195W        W10939   6.634   5.773   0.020  0.1499  0.3094  0.1523
 7196W        W10940   5.137   3.728   9.708 -0.2121 -0.4432  0.2030
 7197W        W10941   2.721   1.965   4.581  0.2847  0.0277  0.0977
 7198W        W10942   1.925   7.679   3.253 -0.2793 -0.0076  0.2115
 7199W        W10943   2.177   0.841   9.385 -0.1047 -0.0819 -0.0253
 7200W        W10944   6.768   1.701  12.501  0.0492 -0.2266  0.2085
 7201W        W10945   4.964   2.001   0.095 -0.1678  0.0263  0.1424
 7202W        W10946   8.497   7.824  11.526 -0.0766  0.0700  0.0151
 7203W        W10947   4.661   7.045  11.340  0.4070 -0.1480  0.0735
 7204W        W10948   2.309   0.908   2.930 -0.0807  0.1781 -0.2040
 7205W        W10949   2.094   9.008   3.110  0.0700  0.0893  0.1497
 7206W        W10950   3.223   8.259   0.454  0.4733  0.1151 -0.2636
 7207W        W10951   4.731   8.055  10.010 -0.0653  0.2280  0.0720
 7208W        W10952   8.111   0.610   3.274 -0.5048  0.2586  0.1199
 7209W        W10953   2.798   5.360  10.100 -0.0106 -0.0577  0.3809
 7210W        W10954   8.862   5.901   0.353  0.0066 -0.1056  0.4477
 7211W        W10955   8.645   1.271  10.820  0.0383 -0.0849 -0.1502
 7212W        W10956   4.955   2.069   3.300 -0.0769  0.0217 -0.0834
 7213W        W10957   3.087   8.911   9.156 -0.3350 -0.0820  0.2196
 7214W        W10958   2.976   3.357  11.863 -0.1851  0.0651 -0.0990
 7215W        W10959   3.765   2.085  11.548  0.3315 -0.1853  0.0894
 7216W        W10960   7.299   5.638   1.066 -0.1069  0.1209  0.3171
 7217W        W10961   9.466   2.898  10.315  0.0449  0.1515 -0.0505
 7218W        W10962   1.173   0.128   3.525 -0.1578 -0.4192  0.2495
 7219W        W10963   0.533   8.149   3.321 -0.4061  0.1119  0.2360
 7220W        W10964   0.729   4.685   0.861  0.1644 -0.3655 -0.1693
 7221W        W10965   3.531   4.022   9.730 -0.1470 -0.3321 -0.0466
 7222W        W10966   3.881   4.860   1.030 -0.1758  0.2569 -0.2252
 7223W        W10967   5.843   5.148   1.703 -0.0996 -0.0140  0.1935
 7224W        W10968   8.124   8.388   1.256  0.0153 -0.1996  0.0176
 7225W        W10969   9.591   3.655  12.486 -0.2172  0.2290  0.5155
 7226W        W10970   1.964   8.637  12.812 -0.1855 -0.1783  0.4155
 7227W        W10971   3.306   1.986  11.708  0.0961  0.0089 -0.0545
 7228W        W10972   2.145   3.437   9.925  0.0278  0.3268  0.3165
 7229W        W10973   8.009   5.677   8.445 -0.2495 -0.0587 -0.0459
 7230ION    NA+10974   2.825   8.759   4.621  0.2039 -0.0916  0.1509
 7231ION    NA+10975   1.780   9.166   1.600  0.0904 -0.2239  0.1099
 7232ION    NA+10976   3.773   4.939   4.688  0.2314  0.0263  0.0632
 7233ION    NA+10977   5.045   5.052   9.379  0.1286 -0.1440 -0.2881
 7234ION    NA+10978   6.247   0.602   0.077 -0.2790 -0.2592 -0.3544
 7235ION    NA+10979   4.484   5.093  10.693  0.2888  0.1777 -0.0523
 7236ION    NA+10980   2.063   8.095   8.292 -0.3308  0.0029  0.2183
 7237ION    NA+10981   3.587   1.056   1.006 -0.1768  0.0186  0.1573
 7238ION    NA+10982   5.836   1.401   1.376 -0.1377 -0.2542  0.0514
 7239ION    NA+10983   6.348   5.133   4.286  0.1677  0.0041  0.1458
 7240ION    NA+10984   3.379   1.465  12.081 -0.0156  0.1227 -0.3138
 7241ION    NA+10985   5.160   8.136   9.398  0.1380 -0.0040  0.0111
 7242ION    NA+10986   3.202   4.267  12.095 -0.1159 -0.0825 -0.2032
 7243ION    NA+10987   5.737   7.433   8.153  0.1037  0.0364 -0.0542
 7244ION    NA+10988   3.833   3.225   1.479  0.4204 -0.0217 -0.1137
 7245ION    NA+10989   0.321   3.118  10.362  0.2363  0.2212 -0.1734
 7246ION    NA+10990   1.270   8.262   9.084 -0.0001  0.1284 -0.2334
 7247ION    NA+10991   5.885   4.996   3.281 -0.0056 -0.4015 -0.4279
 7248ION    NA+10992   1.918   8.942   8.873  0.0715 -0.3427  0.0372
 7249ION    NA+10993   3.815   4.157   1.122  0.1719 -0.2126  0.4676
 7250ION    NA+10994   4.734   9.198  10.595  0.0610  0.3013 -0.1703
 7251ION    NA+10995   1.658   4.522   2.872 -0.1011  0.2961  0.0452
 7252ION    NA+10996   0.569   7.847   8.457 -0.0329 -0.1759 -0.2702
 7253ION    NA+10997   8.314   6.611  10.871 -0.2645 -0.2570  0.0006
 7254ION    NA+10998   3.526   3.941   4.827 -0.0016 -0.0989  0.2550
 7255ION    NA+10999   7.049   1.483   9.973  0.0221  0.0055  0.0634
 7256ION    NA+11000   5.199   0.114   9.392 -0.0984 -0.2545 -0.0537
 7257ION    NA+11001   7.741   0.683  12.164 -0.0425 -0.2361  0.0230
 7258ION    NA+11002   0.989   6.724   4.751  0.0036  0.2689 -0.2013
 7259ION    NA+11003   8.921   1.501   9.134 -0.1462  0.0322  0.0700
 7260ION    NA+11004   4.825   9.115   2.835 -0.1002 -0.2109 -0.1040
 7261ION    NA+11005   8.158   4.599   2.883  0.3078 -0.2439  0.0022
 7262ION    NA+11006   1.309   8.432   3.034 -0.2132 -0.2705 -0.0843
 7263ION    NA+11007   4.995   0.048  10.458 -0.0882  0.0258  0.1082
 7264ION    NA+11008   4.642   5.010   8.323  0.1461 -0.0812 -0.2575
 7265ION    NA+11009   4.864   6.979   7.948  0.1334  0.2405  0.1633
 7266ION    NA+11010   0.454   5.941   4.132 -0.2249 -0.0033 -0.3182
 7267ION    NA+11011   4.959   1.884   2.008 -0.2210  0.0123  0.0179
 7268ION    NA+11012   7.314   3.645   2.072 -0.3591  0.0965  0.2511
 7269ION    NA+11013   1.513   0.482  10.065 -0.1655  0.0618 -0.1572
 7270ION    NA+11014   6.120   6.128  12.609  0.1971  0.0795 -0.2374
 7271ION    NA+11015   6.910   7.151  12.750  0.1364 -0.1126 -0.0943
 7272ION    NA+11016   9.581   1.208  10.551  0.0822 -0.2995  0.0273
 7273ION    NA+11017   5.840   7.413   9.527  0.0186  0.0568  0.1248
 7274ION    NA+11018   7.949   8.973   2.582  0.1028 -0.0284  0.1069
 7275ION    NA+11019   5.821   1.732  11.160  0.4117  0.0549 -0.3365
 7276ION    NA+11020   8.602   9.756   2.545 -0.0226 -0.3688  0.1153
 7277ION    NA+11021   9.631   8.347   1.877 -0.1147 -0.1401 -0.0688
 7278ION    NA+11022   7.632   6.879  10.380  0.0667  0.0218 -0.1110
 7279ION    NA+11023   9.307   0.332   3.217 -0.4098  0.0688 -0.0591
 7280ION    NA+11024   2.955   4.040   1.743  0.3847  0.0280 -0.0329
 7281ION    NA+11025   4.921   5.730   1.202  0.0796  0.0484  0.2726
 7282ION    NA+11026   8.680   5.237   4.986 -0.2055  0.4394  0.0401
 7283ION    NA+11027   8.433   2.513  10.288  0.1487 -0.0074  0.1629
 7284ION    NA+11028   4.032   1.241   0.415  0.3244  0.1465 -0.0139
 7285ION    NA+11029   3.900   2.180   9.064 -0.1001 -0.2428  0.0354
 7286ION    NA+11030   8.298   8.512  10.760 -0.2063 -0.0102 -0.0842
 7287ION    NA+11031   5.115   3.237   9.875  0.1416  0.0622 -0.2176
 7288ION    NA+11032   8.180   5.412   9.487  0.1971 -0.1018  0.3986
 7289ION    NA+11033   1.817   8.096  10.612  0.2179 -0.1345 -0.0696
 7290ION    NA+11034   8.988   7.346  11.018 -0.0205  0.0963 -0.0000
 7291ION    NA+11035   2.270   4.495  11.365  0.0128 -0.1355  0.1357
 7292ION    NA+11036   2.532   6.236  11.347 -0.1050 -0.0237  0.0260
 7293ION    NA+11037   2.638   1.218  11.706 -0.1892  0.1618  0.3813
 7294ION    NA+11038   2.360   8.397   1.096 -0.2253 -0.0016  0.0545
 7295ION    NA+11039   3.510   2.289   8.673 -0.1056 -0.7089  0.0203
 7296ION    NA+11040   8.977   6.308  12.904 -0.2299  0.1286 -0.3416
 7297ION    NA+11041   3.694   2.847   0.586 -0.1821  0.2501 -0.0516
 7298ION    NA+11042   4.710   7.191   2.453  0.3622 -0.1669 -0.0115
 7299ION    NA+11043   8.232   7.459   9.125 -0.0477 -0.3064  0.1632
 7300ION    NA+11044   4.052   1.912  12.347  0.0068 -0.2187 -0.2027
 7301ION    NA+11045   4.832   8.951   9.387 -0.0745 -0.1814  0.0789
 7302ION    NA+11046   4.558   6.840   0.156 -0.1312 -0.0855  0.3387
 7303ION    NA+11047   3.083   3.844   1.028  0.1324 -0.0908 -0.2412
 7304ION    NA+11048   8.166   6.452   3.943 -0.1398 -0.3384  0.1980
 7305ION    NA+11049   5.340   3.838   0.352  0.1476 -0.0624  0.0364
 7306ION    CL-11050   3.324   4.036   1.434  0.2011 -0.0823 -0.0390
 7307ION    CL-11051   4.942   4.946  10.652 -0.0701  0.1436  0.0048
 7308ION    CL-11052   9.141   8.117   1.748 -0.5797 -0.1242  0.1975
 7309ION    CL-11053   2.314   1.307  12.111 -0.0992 -0.0529  0.1947
 7310ION    CL-11054   3.556   5.417   1.836  0.1220 -0.2610  0.0339
 7311ION    CL-11055   5.490   6.797   8.607 -0.2175  0.2486 -0.2719
 7312ION    CL-11056   8.298   2.301   9.861 -0.1359  0.1610  0.0739
 7313ION    CL-11057   2.186   0.446   2.793 -0.1802 -0.0426 -0.2740
 7314ION    CL-11058   9.859   0.863  10.328 -0.1924 -0.1792 -0.4080
 7315ION    CL-11059   4.609   0.172   2.876 -0.0606  0.1971 -0.0296
 7316ION    CL-11060   4.193   2.277  11.413  0.0388  0.0211 -0.0848
 7317ION    CL-11061   3.358   7.326  12.252  0.0453 -0.2199 -0.0092
 7318ION    CL-11062   8.113   7.353   2.130 -0.3580  0.1791  0.0973
 7319ION    CL-11063   3.042   1.237   9.565 -0.1169  0.0654 -0.1656
 7320ION    CL-11064   8.375   5.153   9.831 -0.2490 -0.1229 -0.0898
 7321ION    CL-11065   6.475   5.647   9.853  0.4577 -0.0663 -0.1893
 7322ION    CL-11066   3.498   7.247   4.090  0.2821  0.0296  0.1358
 7323ION    CL-11067   2.619   3.684   0.850  0.1365 -0.0059 -0.0181
 7324ION    CL-11068   4.633   2.247   2.073 -0.1327 -0.0935 -0.0801
 7325ION    CL-11069   8.498   6.484  10.322 -0.3110  0.0981  0.0652
 7326ION    CL-11070   6.956   3.678  10.403  0.0541 -0.1424 -0.1390
 7327ION    CL-11071   8.371   9.326   2.631  0.0121 -0.2208  0.3671
 7328ION    CL-11072   4.841   7.898   9.074  0.1414  0.1223  0.2637
 7329ION    CL-11073   2.090   6.890   3.793  0.0562  0.5217  0.2389
 7330ION    CL-11074   1.359   8.042   9.648 -0.2588  0.2931 -0.4575
 7331ION    CL-11075   5.249   6.859   2.189  0.0816 -0.1199 -0.3036
 7332ION    CL-11076   0.731   5.558   4.101 -0.3946  0.0133  0.0058
 7333ION    CL-11077   1.012   8.713   8.954 -0.1293  0.2678 -0.1156
 7334ION    CL-11078   3.781   7.753   3.565  0.1541  0.0858 -0.1033
 7335ION    CL-11079   2.046   8.829   1.255  0.2380  0.1003 -0.0666
 7336ION    CL-11080   2.429   4.692   4.585  0.1088 -0.0923 -0.2202
 7337ION    CL-11081   5.132   9.311   3.194 -0.1775  0.2176 -0.0790
 7338ION    CL-11082   1.155   8.119   3.827 -0.0896 -0.0972 -0.1017
 7339ION    CL-11083   6.410   5.117   3.333  0.2157  0.1311 -0.2424
 7340ION    CL-11084   6.309   5.704  12.660 -0.0246 -0.1305  0.0063
 7341ION    CL-11085   2.685   4.272  11.759 -0.1348  0.0787  0.0003
 7342ION    CL-11086   2.733   6.650   9.034  0.0110  0.0410 -0.1761
 7343ION    CL-11087   9.210   6.918   1.253  0.0225 -0.1369  0.1618
 7344ION    CL-11088   8.380   2.129   3.638  0.1854 -0.0285  0.2696
 7345ION    CL-11089   4.722   0.041  10.913  0.1210  0.0392  0.0052
 7346ION    CL-11090   9.310   0.761   3.634 -0.1814 -0.2810  0.0234
 7347ION    CL-11091   3.751   3.692   1.347  0.0885 -0.0481 -0.0578
 7348ION    CL-11092   7.720   8.636   2.952 -0.1556  0.0067  0.2239
 7349ION    CL-11093   5.290   7.759  11.532 -0.0954  0.0988 -0.3242
 7350ION    CL-11094   8.589   1.948   1.460  0.2392 -0.1559 -0.1046
 7351ION    CL-11095   7.569   2.557   0.209 -0.1100 -0.0256 -0.5041
 7352ION    CL-11096   5.131   3.954   9.233  0.0662  0.2704  0.0110
 7353ION    CL-11097   4.973   8.619   2.566 -0.0495 -0.0723  0.1141
 7354ION    CL-11098   6.008   4.829   4.052  0.0421 -0.1215  0.0794
 7355ION    CL-11099   3.650   0.573   0.740 -0.1843 -0.0134  0.0051
 7356ION    CL-11100   2.407   7.550  12.631  0.1810  0.0480  0.1332
 7357ION    CL-11101   0.219   8.513   1.893 -0.1496  0.1139 -0.2781
 7358ION    CL-11102   9.645   9.617   9.777 -0.3029 -0.0636 -0.1093
 7359ION    CL-11103   4.879   9.596   9.552  0.0669 -0.2602  0.4594
 7360ION    CL-11104   5.854   2.214  10.972 -0.0137  0.0716 -0.2596
 7361ION    CL-11105   0.218   4.608   8.905  0.1731 -0.5787  0.1578
 7362ION    CL-11106   7.194   3.735   2.538  0.2162 -0.1421  0.0738
 7363ION    CL-11107   8.337   6.195  11.145 -0.0173 -0.0428  0.0966
 7364ION    CL-11108   4.426   8.866  11.031 -0.0493  0.0249 -0.1935
 7365ION    CL-11109   8.826   6.774  12.843  0.2340  0.2802 -0.2592
 7366ION    CL-11110   3.236   1.561  12.843 -0.1036  0.0234 -0.0188
 7367ION    CL-11111   5.705   3.397   3.899 -0.4713 -0.1326 -0.5056
 7368ION    CL-11112   8.288   4.029   4.022  0.1199 -0.0160 -0.1285
 7369ION    CL-11113   3.704   1.559   0.725 -0.1585 -0.0135  0.0788
 7370ION    CL-11114   7.972   8.220   9.544 -0.1721 -0.0167  0.0762
 7371ION    CL-11115   1.983   6.087   2.418 -0.2032 -0.4315  0.1253
 7372ION    CL-11116   2.551   4.205   2.259 -0.0169 -0.1126 -0.2097
 7373ION    CL-11117   2.049   3.022  11.921 -0.0109 -0.0380 -0.1842
 7374ION    CL-11118   4.176   7.702   9.528  0.0627 -0.0298  0.4337
 7375ION    CL-11119   8.651   7.690   9.296  0.0210  0.1251 -0.0387
 7376ION    CL-11120   1.820   8.256  11.098  0.0326  0.3013 -0.0774
 7377ION    CL-11121   6.544   1.456  10.613  0.0403 -0.1985 -0.0786
 7378ION    CL-11122   2.530   7.246   2.449  0.0604 -0.3488 -0.0432
 7379ION    CL-11123   9.269   1.922   4.149  0.2362  0.2236  0.0614
 7380ION    CL-11124   3.587   4.659   4.284 -0.3695 -0.0219  0.1692
 7381ION    CL-11125   6.283   1.714   1.321 -0.1345 -0.1009 -0.0319
   9.89556   9.89556  12.98964
