Protein in INSANE! Membrane UpperLeaflet>POPC=1.0 LowerLeaflet>POPC=1.0
12676
    1AU     AUC    1   5.744   5.870   6.010
    1AU     AUC    2   6.007   5.874   5.854
    1AU     AUC    3   5.997   5.860   6.162
    1AU     AUC    4   5.495   5.871   5.845
    1AU     AUC    5   5.482   5.887   6.158
    1AU     AUC    6   5.594   6.127   6.011
    1AU     AUC    7   5.905   6.125   5.998
    1AU     AUC    8   5.592   5.612   6.015
    1AU     AUC    9   5.886   5.616   6.030
    1AU     AUC   10   5.735   5.718   6.270
    1AU     AUC   11   5.756   6.032   6.266
    1AU     AUC   12   5.748   5.711   5.753
    1AU     AUC   13   5.736   6.013   5.751
    1AU     AUC   14   6.257   5.871   5.690
    1AU     AUC   15   6.263   5.873   6.003
    1AU     AUC   16   6.253   5.862   6.313
    1AU     AUC   17   5.237   5.859   5.687
    1AU     AUC   18   5.227   5.883   5.994
    1AU     AUC   19   5.232   5.899   6.315
    1AU     AUC   20   5.450   6.393   6.015
    1AU     AUC   21   5.760   6.393   6.007
    1AU     AUC   22   6.055   6.387   6.004
    1AU     AUC   23   5.418   5.358   6.017
    1AU     AUC   24   5.730   5.348   6.008
    1AU     AUC   25   6.042   5.352   6.037
    1AU     AUC   26   5.716   5.564   6.520
    1AU     AUC   27   5.741   5.875   6.537
    1AU     AUC   28   5.760   6.184   6.527
    1AU     AUC   29   5.757   5.543   5.504
    1AU     AUC   30   5.753   5.859   5.489
    1AU     AUC   31   5.735   6.170   5.488
    1AU     AUC   32   6.006   5.720   6.437
    1AU     AUC   33   6.008   6.012   6.431
    1AU     AUC   34   6.018   5.708   5.594
    1AU     AUC   35   6.017   6.013   5.583
    1AU     AUC   36   5.470   5.734   6.431
    1AU     AUC   37   5.491   6.045   6.435
    1AU     AUC   38   5.499   5.712   5.575
    1AU     AUC   39   5.481   6.017   5.587
    1AU     AUC   40   6.162   6.135   5.835
    1AU     AUC   41   6.172   6.114   6.154
    1AU     AUC   42   5.326   6.128   5.858
    1AU     AUC   43   5.335   6.147   6.176
    1AU     AUC   44   6.160   5.609   5.864
    1AU     AUC   45   6.157   5.609   6.182
    1AU     AUC   46   5.326   5.615   5.841
    1AU     AUC   47   5.324   5.627   6.182
    1AU     AUC   48   5.596   6.289   6.280
    1AU     AUC   49   5.915   6.296   6.251
    1AU     AUC   50   5.566   5.446   6.261
    1AU     AUC   51   5.882   5.457   6.293
    1AU     AUC   52   5.586   6.284   5.750
    1AU     AUC   53   5.903   6.277   5.738
    1AU     AUC   54   5.581   5.464   5.746
    1AU     AUC   55   5.907   5.446   5.773
    1AU    AUSL   56   6.083   5.817   6.618
    1AU    AUSL   57   6.042   5.393   6.643
    1AU     AUL   58   6.280   5.476   6.903
    1AU       S   59   6.306   5.119   6.584
    1AU     LIG   60   6.189   4.870   6.922
    1AU     LIG   61   6.343   4.503   7.139
    1AU     LIG   62   6.584   4.217   7.432
    1AU     LIG   63   6.680   3.991   7.845
    1AU     LIG   64   6.706   3.846   8.306
    1AU     LIG   65   6.891   3.622   8.682
    1AU       S   66   6.128   5.824   7.159
    1AU     LIG   67   6.372   5.539   7.412
    1AU     LIG   68   6.594   5.400   7.812
    1AU     LIG   69   6.947   5.459   8.134
    1AU     LIG   70   7.349   5.488   8.394
    1AU     LIG   71   7.698   5.619   8.678
    1AU     LIG   72   7.906   5.552   9.089
    1AU    AUSL   73   5.800   5.647   6.862
    1AU    AUSL   74   5.675   6.040   6.794
    1AU     AUL   75   5.719   5.994   7.212
    1AU       S   76   5.880   5.636   7.017
    1AU     LIG   77   5.962   5.255   7.229
    1AU     LIG   78   6.177   5.108   7.652
    1AU     LIG   79   6.275   4.981   8.126
    1AU     LIG   80   6.278   4.772   8.585
    1AU     LIG   81   6.374   4.636   9.044
    1AU     LIG   82   6.492   4.786   9.487
    1AU       S   83   5.369   5.738   7.129
    1AU     LIG   84   5.231   5.669   7.587
    1AU     LIG   85   5.039   5.609   8.017
    1AU     LIG   86   4.984   5.737   8.472
    1AU     LIG   87   5.050   6.040   8.852
    1AU     LIG   88   4.956   6.300   9.243
    1AU     LIG   89   4.705   6.497   9.602
    1AU    AUSL   90   6.051   6.182   6.797
    1AU    AUSL   91   6.389   6.064   6.489
    1AU     AUL   92   6.378   5.913   6.802
    1AU       S   93   6.076   6.188   7.006
    1AU     LIG   94   6.420   6.211   7.313
    1AU     LIG   95   6.545   6.440   7.743
    1AU     LIG   96   6.553   6.655   8.205
    1AU     LIG   97   6.571   6.831   8.686
    1AU     LIG   98   6.677   6.890   9.176
    1AU     LIG   99   6.641   6.814   9.659
    1AU       S  100   6.685   6.123   6.538
    1AU     LIG  101   6.834   6.094   6.982
    1AU     LIG  102   7.119   6.332   7.263
    1AU     LIG  103   7.427   6.636   7.478
    1AU     LIG  104   7.709   6.786   7.841
    1AU     LIG  105   8.108   6.834   8.119
    1AU     LIG  106   8.484   6.964   8.394
    1AU    AUSL  107   6.259   5.911   5.383
    1AU    AUSL  108   6.057   6.300   5.344
    1AU     AUL  109   6.277   6.144   5.077
    1AU       S  110   6.286   5.710   4.862
    1AU     LIG  111   6.647   5.502   4.783
    1AU     LIG  112   6.715   5.406   4.335
    1AU     LIG  113   6.873   5.402   3.888
    1AU     LIG  114   7.297   5.494   3.655
    1AU     LIG  115   7.657   5.673   3.387
    1AU     LIG  116   7.765   5.740   2.920
    1AU       S  117   6.487   6.524   5.229
    1AU     LIG  118   6.750   6.514   4.885
    1AU     LIG  119   6.999   6.728   4.549
    1AU     LIG  120   7.151   6.857   4.133
    1AU     LIG  121   7.288   7.165   3.816
    1AU     LIG  122   7.497   7.558   3.687
    1AU     LIG  123   7.485   8.015   3.552
    1AU    AUSL  124   6.016   5.605   5.228
    1AU    AUSL  125   6.369   5.545   5.519
    1AU     AUL  126   6.476   5.717   5.269
    1AU       S  127   6.443   5.247   5.310
    1AU     LIG  128   6.591   5.001   4.948
    1AU     LIG  129   6.811   4.617   4.772
    1AU     LIG  130   7.051   4.367   4.433
    1AU     LIG  131   7.447   4.397   4.147
    1AU     LIG  132   7.836   4.484   3.871
    1AU     LIG  133   8.200   4.311   3.612
    1AU       S  134   6.165   5.490   4.981
    1AU     LIG  135   6.253   5.226   4.613
    1AU     LIG  136   6.335   5.119   4.154
    1AU     LIG  137   6.414   5.142   3.686
    1AU     LIG  138   6.337   4.976   3.236
    1AU     LIG  139   6.384   4.965   2.757
    1AU     LIG  140   6.606   4.974   2.330
    1AU    AUSL  141   5.856   5.959   5.411
    1AU    AUSL  142   5.623   5.712   5.172
    1AU     AUL  143   5.895   5.905   5.017
    1AU       S  144   5.288   5.779   4.880
    1AU     LIG  145   5.406   5.391   4.634
    1AU     LIG  146   5.307   5.252   4.195
    1AU     LIG  147   5.113   5.070   3.790
    1AU     LIG  148   4.993   4.853   3.363
    1AU     LIG  149   4.851   4.899   2.901
    1AU     LIG  150   4.698   5.130   2.495
    1AU       S  151   6.014   5.478   5.091
    1AU     LIG  152   5.870   5.591   4.612
    1AU     LIG  153   6.210   5.614   4.254
    1AU     LIG  154   6.414   5.655   3.802
    1AU     LIG  155   6.509   5.853   3.346
    1AU     LIG  156   6.713   6.145   2.994
    1AU     LIG  157   6.842   6.372   2.590
    1AU    AUSL  158   5.292   5.933   6.717
    1AU    AUSL  159   5.438   6.334   6.642
    1AU     AUL  160   5.490   6.268   6.943
    1AU       S  161   5.226   5.933   7.142
    1AU     LIG  162   4.887   5.603   7.202
    1AU     LIG  163   4.738   5.423   7.630
    1AU     LIG  164   4.565   5.372   8.102
    1AU     LIG  165   4.260   5.313   8.503
    1AU     LIG  166   4.028   5.445   8.927
    1AU     LIG  167   3.695   5.711   9.191
    1AU       S  168   5.040   6.312   6.869
    1AU     LIG  169   5.063   6.617   7.239
    1AU     LIG  170   5.002   6.917   7.604
    1AU     LIG  171   4.829   6.979   8.039
    1AU     LIG  172   4.733   7.204   8.444
    1AU     LIG  173   4.574   7.590   8.676
    1AU     LIG  174   4.333   8.010   8.687
    1AU    AUSL  175   5.591   5.730   6.528
    1AU    AUSL  176   5.088   5.655   6.498
    1AU     AUL  177   5.097   5.768   6.741
    1AU       S  178   4.903   5.349   6.737
    1AU     LIG  179   4.501   5.145   6.567
    1AU     LIG  180   4.090   4.913   6.628
    1AU     LIG  181   3.902   4.638   6.983
    1AU     LIG  182   3.743   4.351   7.331
    1AU     LIG  183   3.524   4.123   7.678
    1AU     LIG  184   3.210   4.213   8.033
    1AU       S  185   5.396   5.633   7.080
    1AU     LIG  186   5.252   5.250   7.293
    1AU     LIG  187   5.164   5.163   7.753
    1AU     LIG  188   5.009   5.117   8.204
    1AU     LIG  189   4.860   4.885   8.596
    1AU     LIG  190   4.826   4.750   9.053
    1AU     LIG  191   4.724   4.919   9.479
    1AU    AUSL  192   5.328   5.837   5.419
    1AU    AUSL  193   5.512   5.426   5.438
    1AU     AUL  194   5.474   5.457   5.127
    1AU       S  195   5.089   5.693   5.099
    1AU     LIG  196   4.918   5.438   4.761
    1AU     LIG  197   4.824   5.401   4.296
    1AU     LIG  198   4.660   5.320   3.844
    1AU     LIG  199   4.351   5.128   3.508
    1AU     LIG  200   4.021   5.164   3.152
    1AU     LIG  201   3.826   5.501   2.871
    1AU       S  202   5.078   5.181   5.231
    1AU     LIG  203   4.794   4.805   5.225
    1AU     LIG  204   4.422   4.567   5.094
    1AU     LIG  205   4.171   4.317   4.769
    1AU     LIG  206   4.220   4.111   4.323
    1AU     LIG  207   4.304   3.831   3.927
    1AU     LIG  208   4.171   3.478   3.633
    1AU    AUSL  209   5.560   6.138   5.192
    1AU    AUSL  210   5.094   6.163   5.486
    1AU     AUL  211   5.202   6.115   5.191
    1AU       S  212   4.936   6.479   5.278
    1AU     LIG  213   4.642   6.565   4.922
    1AU     LIG  214   4.502   6.700   4.483
    1AU     LIG  215   4.404   6.884   4.057
    1AU     LIG  216   4.101   7.052   3.740
    1AU     LIG  217   3.645   7.148   3.710
    1AU     LIG  218   3.385   7.505   3.596
    1AU       S  219   5.449   5.887   4.880
    1AU     LIG  220   5.208   5.790   4.400
    1AU     LIG  221   5.096   5.666   3.945
    1AU     LIG  222   5.045   5.848   3.507
    1AU     LIG  223   5.142   6.137   3.129
    1AU     LIG  224   5.105   6.281   2.673
    1AU     LIG  225   4.903   6.301   2.247
    1AU    AUSL  226   6.363   6.475   5.944
    1AU    AUSL  227   6.391   6.234   5.595
    1AU     AUL  228   6.477   6.688   5.709
    1AU       S  229   6.633   6.231   5.380
    1AU     LIG  230   7.004   6.168   5.164
    1AU     LIG  231   7.241   6.333   4.781
    1AU     LIG  232   7.472   6.531   4.404
    1AU     LIG  233   7.895   6.534   4.164
    1AU     LIG  234   8.271   6.769   3.979
    1AU     LIG  235   8.450   7.035   3.606
    1AU       S  236   6.810   6.389   5.866
    1AU     LIG  237   7.313   6.412   5.978
    1AU     LIG  238   7.827   6.481   5.988
    1AU     LIG  239   8.321   6.579   5.986
    1AU     LIG  240   8.748   6.860   6.017
    1AU     LIG  241   8.981   7.310   6.030
    1AU     LIG  242   9.216   7.719   6.195
    1AU    AUSL  243   6.582   5.923   5.761
    1AU    AUSL  244   6.581   5.758   6.170
    1AU     AUL  245   6.875   5.709   5.932
    1AU       S  246   6.782   6.151   5.846
    1AU     LIG  247   7.177   6.045   5.658
    1AU     LIG  248   7.683   6.080   5.700
    1AU     LIG  249   8.203   6.133   5.710
    1AU     LIG  250   8.718   6.106   5.665
    1AU     LIG  251   9.182   6.313   5.654
    1AU     LIG  252   9.522   6.670   5.517
    1AU       S  253   6.886   5.305   6.169
    1AU     LIG  254   7.288   5.082   6.212
    1AU     LIG  255   7.699   4.845   6.229
    1AU     LIG  256   8.084   4.587   6.261
    1AU     LIG  257   8.503   4.414   6.225
    1AU     LIG  258   8.871   4.335   6.475
    1AU     LIG  259   9.201   4.403   6.816
    1AU    AUSL  260   6.366   6.089   6.083
    1AU    AUSL  261   6.264   6.431   6.341
    1AU     AUL  262   6.518   6.425   6.223
    1AU       S  263   6.537   6.336   6.654
    1AU     LIG  264   6.964   6.523   6.698
    1AU     LIG  265   7.173   6.794   7.036
    1AU     LIG  266   7.376   7.140   7.301
    1AU     LIG  267   7.587   7.591   7.293
    1AU     LIG  268   7.851   8.003   7.314
    1AU     LIG  269   8.098   8.385   7.475
    1AU       S  270   6.841   6.158   6.074
    1AU     LIG  271   7.185   5.979   6.245
    1AU     LIG  272   7.661   6.046   6.220
    1AU     LIG  273   8.148   6.121   6.215
    1AU     LIG  274   8.631   6.198   6.160
    1AU     LIG  275   9.102   6.342   6.163
    1AU     LIG  276   9.455   6.571   6.408
    1AU    AUSL  277   5.084   6.420   6.092
    1AU    AUSL  278   5.132   6.163   6.425
    1AU     AUL  279   5.090   6.615   6.355
    1AU       S  280   4.923   6.239   6.629
    1AU     LIG  281   4.607   6.440   7.030
    1AU     LIG  282   4.571   6.662   7.468
    1AU     LIG  283   4.381   6.737   7.927
    1AU     LIG  284   4.044   6.817   8.289
    1AU     LIG  285   3.615   7.016   8.429
    1AU     LIG  286   3.227   7.267   8.557
    1AU       S  287   4.738   6.430   6.147
    1AU     LIG  288   4.630   6.888   6.164
    1AU     LIG  289   4.331   7.313   6.137
    1AU     LIG  290   3.979   7.666   6.109
    1AU     LIG  291   3.545   7.889   6.023
    1AU     LIG  292   3.113   8.125   6.131
    1AU     LIG  293   2.703   8.152   6.419
    1AU    AUSL  294   5.161   6.087   5.873
    1AU    AUSL  295   5.254   6.504   5.727
    1AU     AUL  296   4.974   6.416   5.740
    1AU       S  297   4.598   6.372   6.001
    1AU     LIG  298   4.528   6.645   5.583
    1AU     LIG  299   4.131   6.920   5.375
    1AU     LIG  300   3.615   6.983   5.314
    1AU     LIG  301   3.089   6.924   5.246
    1AU     LIG  302   2.596   6.741   5.195
    1AU     LIG  303   2.121   6.888   5.092
    1AU       S  304   5.070   6.717   5.396
    1AU     LIG  305   4.940   6.962   5.023
    1AU     LIG  306   4.785   7.288   4.729
    1AU     LIG  307   4.534   7.658   4.785
    1AU     LIG  308   4.387   8.067   4.624
    1AU     LIG  309   4.100   8.360   4.408
    1AU     LIG  310   3.830   8.715   4.252
    1AU    AUSL  311   4.886   5.988   6.165
    1AU    AUSL  312   4.935   5.759   5.797
    1AU     AUL  313   4.764   6.016   5.785
    1AU       S  314   4.593   5.564   5.931
    1AU     LIG  315   4.227   5.449   6.251
    1AU     LIG  316   3.764   5.302   6.347
    1AU     LIG  317   3.300   5.160   6.254
    1AU     LIG  318   2.901   5.004   5.960
    1AU     LIG  319   2.405   5.002   5.915
    1AU     LIG  320   2.001   4.918   5.653
    1AU       S  321   4.668   6.069   6.253
    1AU     LIG  322   4.459   6.437   6.540
    1AU     LIG  323   4.044   6.646   6.682
    1AU     LIG  324   3.545   6.710   6.697
    1AU     LIG  325   3.054   6.780   6.634
    1AU     LIG  326   2.644   7.032   6.706
    1AU     LIG  327   2.207   6.888   6.806
    1AU    AUSL  328   6.433   5.365   6.096
    1AU    AUSL  329   6.372   5.582   6.466
    1AU     AUL  330   6.688   5.621   6.432
    1AU       S  331   6.583   5.097   6.053
    1AU     LIG  332   6.833   4.803   6.280
    1AU     LIG  333   7.246   4.567   6.168
    1AU     LIG  334   7.670   4.366   6.015
    1AU     LIG  335   8.117   4.155   5.974
    1AU     LIG  336   8.471   3.891   6.186
    1AU     LIG  337   8.861   3.811   6.496
    1AU       S  338   6.446   5.241   6.555
    1AU     LIG  339   6.693   4.868   6.793
    1AU     LIG  340   6.865   4.559   7.139
    1AU     LIG  341   7.102   4.291   7.477
    1AU     LIG  342   7.457   4.218   7.808
    1AU     LIG  343   7.797   4.261   8.167
    1AU     LIG  344   8.233   4.272   8.393
    1AU    AUSL  345   6.286   5.687   5.888
    1AU    AUSL  346   6.220   5.240   5.770
    1AU     AUL  347   6.562   5.443   5.721
    1AU       S  348   6.643   5.276   6.118
    1AU     LIG  349   6.992   5.002   5.796
    1AU     LIG  350   7.470   4.820   5.770
    1AU     LIG  351   7.972   4.709   5.775
    1AU     LIG  352   8.422   4.500   5.716
    1AU     LIG  353   8.842   4.412   5.505
    1AU     LIG  354   9.217   4.684   5.548
    1AU       S  355   6.449   5.032   5.528
    1AU     LIG  356   6.410   4.638   5.275
    1AU     LIG  357   6.588   4.235   5.056
    1AU     LIG  358   6.810   3.818   4.878
    1AU     LIG  359   7.048   3.356   4.855
    1AU     LIG  360   7.476   3.121   4.772
    1AU     LIG  361   7.969   3.125   4.681
    1AU    AUSL  362   5.039   5.374   5.960
    1AU    AUSL  363   5.131   5.509   5.551
    1AU     AUL  364   4.838   5.599   5.532
    1AU       S  365   5.011   5.183   5.493
    1AU     LIG  366   4.550   5.178   5.483
    1AU     LIG  367   4.210   5.041   5.230
    1AU     LIG  368   3.978   4.780   4.939
    1AU     LIG  369   3.705   4.533   4.661
    1AU     LIG  370   3.417   4.452   4.297
    1AU     LIG  371   3.152   4.503   3.900
    1AU       S  372   4.744   5.353   5.905
    1AU     LIG  373   4.423   5.071   5.979
    1AU     LIG  374   4.000   4.997   6.012
    1AU     LIG  375   3.656   4.792   6.249
    1AU     LIG  376   3.191   4.648   6.198
    1AU     LIG  377   2.755   4.448   6.071
    1AU     LIG  378   2.504   4.039   5.977
    1AU    AUSL  379   5.191   5.729   6.122
    1AU    AUSL  380   5.276   5.342   6.300
    1AU     AUL  381   4.914   5.490   6.299
    1AU       S  382   5.003   5.152   6.589
    1AU     LIG  383   4.852   4.961   6.234
    1AU     LIG  384   4.441   4.682   6.318
    1AU     LIG  385   4.163   4.384   6.623
    1AU     LIG  386   3.878   4.079   6.917
    1AU     LIG  387   3.683   3.740   7.236
    1AU     LIG  388   3.604   3.268   7.397
    1AU       S  389   4.636   5.623   5.976
    1AU     LIG  390   4.162   5.441   5.745
    1AU     LIG  391   3.678   5.374   5.832
    1AU     LIG  392   3.183   5.450   5.864
    1AU     LIG  393   2.850   5.415   6.233
    1AU     LIG  394   2.373   5.364   6.326
    1AU     LIG  395   1.941   5.249   6.518
    1AU    AUSL  396   5.774   6.537   6.531
    1AU    AUSL  397   5.454   6.333   6.237
    1AU     AUL  398   5.478   6.636   6.616
    1AU       S  399   5.098   6.446   6.770
    1AU     LIG  400   4.867   6.814   6.793
    1AU     LIG  401   4.769   7.098   7.169
    1AU     LIG  402   4.729   7.547   7.385
    1AU     LIG  403   4.649   8.042   7.401
    1AU     LIG  404   4.368   8.416   7.482
    1AU     LIG  405   3.935   8.547   7.616
    1AU       S  406   5.836   6.932   6.510
    1AU     LIG  407   6.027   7.115   6.854
    1AU     LIG  408   6.073   7.564   6.989
    1AU     LIG  409   6.092   7.881   7.352
    1AU     LIG  410   6.042   8.136   7.764
    1AU     LIG  411   5.897   8.451   8.102
    1AU     LIG  412   5.846   8.893   8.268
    1AU    AUSL  413   5.534   6.719   6.177
    1AU    AUSL  414   5.983   6.699   5.772
    1AU     AUL  415   5.659   6.965   5.945
    1AU       S  416   5.687   7.005   6.394
    1AU     LIG  417   5.811   7.450   6.521
    1AU     LIG  418   5.690   7.855   6.731
    1AU     LIG  419   5.485   8.276   6.821
    1AU     LIG  420   5.368   8.736   6.911
    1AU     LIG  421   5.324   9.220   7.048
    1AU     LIG  422   5.154   9.672   7.083
    1AU       S  423   6.050   6.974   5.679
    1AU     LIG  424   6.387   7.242   5.528
    1AU     LIG  425   6.460   7.691   5.341
    1AU     LIG  426   6.734   8.123   5.296
    1AU     LIG  427   6.857   8.610   5.265
    1AU     LIG  428   6.899   9.089   5.212
    1AU     LIG  429   6.877   9.556   5.110
    1AU    AUSL  430   5.935   6.575   6.157
    1AU    AUSL  431   5.945   6.191   6.415
    1AU     AUL  432   6.101   6.572   6.561
    1AU       S  433   6.466   6.365   6.754
    1AU     LIG  434   6.682   6.593   7.114
    1AU     LIG  435   6.918   6.747   7.503
    1AU     LIG  436   7.189   6.897   7.871
    1AU     LIG  437   7.270   7.111   8.304
    1AU     LIG  438   7.290   7.511   8.587
    1AU     LIG  439   7.438   7.844   8.913
    1AU       S  440   6.016   6.881   6.230
    1AU     LIG  441   6.272   7.235   6.418
    1AU     LIG  442   6.409   7.694   6.590
    1AU     LIG  443   6.694   8.133   6.646
    1AU     LIG  444   6.839   8.626   6.706
    1AU     LIG  445   6.706   9.088   6.641
    1AU     LIG  446   6.839   9.552   6.701
    1AU    AUSL  447   5.706   5.294   6.434
    1AU    AUSL  448   6.060   5.428   6.238
    1AU     AUL  449   5.877   5.183   6.695
    1AU       S  450   5.782   4.764   6.545
    1AU     LIG  451   5.823   4.348   6.705
    1AU     LIG  452   5.483   4.040   6.721
    1AU     LIG  453   5.361   3.607   6.828
    1AU     LIG  454   5.346   3.298   7.198
    1AU     LIG  455   5.380   3.114   7.650
    1AU     LIG  456   5.451   2.800   8.010
    1AU       S  457   6.339   5.070   6.454
    1AU     LIG  458   6.351   4.611   6.502
    1AU     LIG  459   6.627   4.306   6.756
    1AU     LIG  460   6.910   4.030   7.062
    1AU     LIG  461   7.228   3.682   7.253
    1AU     LIG  462   7.529   3.272   7.335
    1AU     LIG  463   7.925   2.984   7.381
    1AU    AUSL  464   5.533   5.069   6.144
    1AU    AUSL  465   5.414   5.414   6.690
    1AU     AUL  466   5.440   5.078   6.501
    1AU       S  467   5.579   4.661   6.396
    1AU     LIG  468   5.434   4.265   6.206
    1AU     LIG  469   5.286   3.808   6.296
    1AU     LIG  470   5.039   3.421   6.454
    1AU     LIG  471   4.750   3.030   6.507
    1AU     LIG  472   4.611   2.663   6.772
    1AU     LIG  473   4.632   2.226   6.899
    1AU       S  474   5.162   5.290   6.795
    1AU     LIG  475   4.853   4.952   7.021
    1AU     LIG  476   4.457   4.677   6.951
    1AU     LIG  477   4.252   4.305   7.181
    1AU     LIG  478   4.062   3.978   7.489
    1AU     LIG  479   3.999   3.680   7.865
    1AU     LIG  480   4.057   3.635   8.339
    1AU    AUSL  481   5.966   5.038   6.204
    1AU    AUSL  482   5.492   5.064   5.736
    1AU     AUL  483   5.697   4.815   5.988
    1AU       S  484   5.415   4.723   5.625
    1AU     LIG  485   5.244   4.305   5.704
    1AU     LIG  486   5.168   3.837   5.731
    1AU     LIG  487   5.037   3.435   5.500
    1AU     LIG  488   4.795   3.016   5.411
    1AU     LIG  489   4.678   2.555   5.296
    1AU     LIG  490   4.649   2.197   4.990
    1AU       S  491   5.908   4.839   6.380
    1AU     LIG  492   5.949   4.388   6.208
    1AU     LIG  493   5.802   3.929   6.332
    1AU     LIG  494   5.731   3.453   6.468
    1AU     LIG  495   5.951   2.987   6.512
    1AU     LIG  496   6.137   2.568   6.712
    1AU     LIG  497   6.279   2.163   6.925
    1AU    AUSL  498   5.732   6.515   5.460
    1AU    AUSL  499   6.040   6.300   5.772
    1AU     AUL  500   6.094   6.574   5.456
    1AU       S  501   5.774   6.870   5.316
    1AU     LIG  502   6.169   6.990   5.140
    1AU     LIG  503   6.234   7.420   4.941
    1AU     LIG  504   6.124   7.712   4.570
    1AU     LIG  505   6.080   8.046   4.227
    1AU     LIG  506   6.058   8.454   4.003
    1AU     LIG  507   5.966   8.774   3.682
    1AU       S  508   6.502   6.312   5.472
    1AU     LIG  509   6.932   6.612   5.425
    1AU     LIG  510   7.173   6.779   5.046
    1AU     LIG  511   7.363   7.083   4.714
    1AU     LIG  512   7.570   7.533   4.645
    1AU     LIG  513   7.758   7.981   4.541
    1AU     LIG  514   7.822   8.410   4.304
    1AU    AUSL  515   5.638   6.491   5.861
    1AU    AUSL  516   5.495   6.212   5.580
    1AU     AUL  517   5.474   6.693   5.621
    1AU       S  518   5.856   6.961   5.545
    1AU     LIG  519   5.927   7.402   5.366
    1AU     LIG  520   5.954   7.847   5.150
    1AU     LIG  521   5.754   8.307   5.050
    1AU     LIG  522   5.452   8.717   4.978
    1AU     LIG  523   5.423   9.194   4.838
    1AU     LIG  524   5.024   9.411   4.708
    1AU       S  525   5.294   6.553   5.235
    1AU     LIG  526   5.153   6.532   4.813
    1AU     LIG  527   4.987   6.851   4.494
    1AU     LIG  528   4.910   6.994   4.037
    1AU     LIG  529   4.890   7.285   3.657
    1AU     LIG  530   4.616   7.619   3.455
    1AU     LIG  531   4.257   7.791   3.187
    1AU    AUSL  532   5.829   5.177   5.472
    1AU    AUSL  533   5.418   5.442   5.843
    1AU     AUL  534   5.468   5.147   5.460
    1AU       S  535   5.043   5.056   5.629
    1AU     LIG  536   4.738   4.764   5.739
    1AU     LIG  537   4.287   4.689   5.593
    1AU     LIG  538   3.980   4.412   5.304
    1AU     LIG  539   3.706   4.136   5.009
    1AU     LIG  540   3.408   3.736   4.914
    1AU     LIG  541   3.250   3.328   4.700
    1AU       S  542   5.740   4.797   5.386
    1AU     LIG  543   5.445   4.455   5.209
    1AU     LIG  544   5.290   4.025   5.257
    1AU     LIG  545   5.375   3.588   5.122
    1AU     LIG  546   5.367   3.315   4.718
    1AU     LIG  547   5.368   3.132   4.260
    1AU     LIG  548   5.449   2.831   3.893
    1AU    AUSL  549   5.829   5.243   5.886
    1AU    AUSL  550   5.960   5.528   5.611
    1AU     AUL  551   6.016   5.020   5.693
    1AU       S  552   5.668   4.742   5.555
    1AU     LIG  553   5.751   4.335   5.718
    1AU     LIG  554   5.662   3.884   5.592
    1AU     LIG  555   5.759   3.423   5.469
    1AU     LIG  556   6.075   3.038   5.451
    1AU     LIG  557   6.275   2.620   5.324
    1AU     LIG  558   6.480   2.238   5.108
    1AU       S  559   6.260   5.142   5.316
    1AU     LIG  560   6.074   4.945   5.014
    1AU     LIG  561   6.290   4.595   4.761
    1AU     LIG  562   6.540   4.236   4.539
    1AU     LIG  563   6.738   3.979   4.194
    1AU     LIG  564   6.941   3.750   3.833
    1AU     LIG  565   7.200   3.577   3.481
    2POPC   NC3  566   1.368   2.514   7.956
    2POPC   PO4  567   1.129   3.075   8.170
    2POPC   GL1  568   1.212   2.992   7.742
    2POPC   GL2  569   0.886   2.831   7.697
    2POPC   C1A  570   1.245   2.737   7.338
    2POPC   D2A  571   1.489   2.692   6.965
    2POPC   C3A  572   1.369   2.747   6.561
    2POPC   C4A  573   1.662   2.966   6.309
    2POPC   C1B  574   0.898   3.115   7.313
    2POPC   C2B  575   1.032   2.997   6.891
    2POPC   C3B  576   0.868   2.868   6.484
    2POPC   C4B  577   1.126   2.755   6.104
    3POPC   NC3  578   2.746   1.952   8.160
    3POPC   PO4  579   3.190   2.346   7.754
    3POPC   GL1  580   3.008   1.925   7.586
    3POPC   GL2  581   2.693   1.766   7.684
    3POPC   C1A  582   3.051   1.896   7.166
    3POPC   D2A  583   3.187   1.974   6.779
    3POPC   C3A  584   2.988   1.889   6.466
    3POPC   C4A  585   3.042   1.958   6.083
    3POPC   C1B  586   2.557   1.917   7.289
    3POPC   C2B  587   2.600   2.103   6.857
    3POPC   C3B  588   2.497   2.042   6.432
    3POPC   C4B  589   2.587   2.165   5.995
    4POPC   NC3  590   8.558   5.231   8.214
    4POPC   PO4  591   9.059   5.461   8.279
    4POPC   GL1  592   8.944   5.274   7.844
    4POPC   GL2  593   8.977   4.916   7.713
    4POPC   C1A  594   8.973   5.287   7.349
    4POPC   D2A  595   9.209   5.179   6.932
    4POPC   C3A  596   9.081   5.238   6.468
    4POPC   C4A  597   8.826   5.298   6.071
    4POPC   C1B  598   9.006   4.782   7.225
    4POPC   C2B  599   8.888   4.813   6.754
    4POPC   C3B  600   8.846   4.816   6.301
    4POPC   C4B  601   8.928   4.544   5.977
    5POPC   NC3  602   1.402   0.515   8.124
    5POPC   PO4  603   0.837   0.811   7.990
    5POPC   GL1  604   0.991   0.417   7.759
    5POPC   GL2  605   1.251   0.148   7.800
    5POPC   C1A  606   0.913   0.297   7.327
    5POPC   D2A  607   0.825   0.477   6.923
    5POPC   C3A  608   0.850   0.157   6.608
    5POPC   C4A  609   0.855  11.497   6.215
    5POPC   C1B  610   1.426   0.371   7.424
    5POPC   C2B  611   1.345   0.510   6.973
    5POPC   C3B  612   1.192   0.523   6.536
    5POPC   C4B  613   1.274   0.278   6.175
    6POPC   NC3  614   8.005   2.502   7.981
    6POPC   PO4  615   7.623   3.069   7.982
    6POPC   GL1  616   7.513   2.749   7.649
    6POPC   GL2  617   7.179   2.597   7.749
    6POPC   C1A  618   7.518   2.725   7.173
    6POPC   D2A  619   7.379   2.855   6.734
    6POPC   C3A  620   7.592   2.751   6.326
    6POPC   C4A  621   7.637   2.884   5.876
    6POPC   C1B  622   7.178   2.393   7.368
    6POPC   C2B  623   7.178   2.402   6.912
    6POPC   C3B  624   7.107   2.499   6.460
    6POPC   C4B  625   7.269   2.464   6.038
    7POPC   NC3  626   2.126   5.678   8.123
    7POPC   PO4  627   1.650   6.083   8.063
    7POPC   GL1  628   1.652   5.920   7.670
    7POPC   GL2  629   2.008   5.931   7.663
    7POPC   C1A  630   1.643   6.100   7.257
    7POPC   D2A  631   1.842   6.046   6.870
    7POPC   C3A  632   1.677   6.053   6.457
    7POPC   C4A  633   1.738   5.677   6.240
    7POPC   C1B  634   1.908   5.670   7.295
    7POPC   C2B  635   2.063   5.594   6.880
    7POPC   C3B  636   2.138   5.823   6.501
    7POPC   C4B  637   2.201   5.766   6.052
    8POPC   NC3  638   0.435   5.332   8.174
    8POPC   PO4  639   0.169   4.697   8.248
    8POPC   GL1  640   0.217   4.964   7.879
    8POPC   GL2  641   0.574   4.967   7.862
    8POPC   C1A  642   0.116   4.837   7.431
    8POPC   D2A  643   0.163   4.670   6.998
    8POPC   C3A  644   0.015   4.827   6.617
    8POPC   C4A  645   0.209   4.859   6.237
    8POPC   C1B  646   0.519   5.144   7.486
    8POPC   C2B  647   0.527   5.020   7.057
    8POPC   C3B  648   0.481   5.116   6.574
    8POPC   C4B  649   0.629   5.142   6.139
    9POPC   NC3  650  11.334   5.085   8.187
    9POPC   PO4  651  10.902   4.639   8.030
    9POPC   GL1  652  10.996   4.817   7.663
    9POPC   GL2  653  11.238   5.081   7.689
    9POPC   C1A  654  11.011   4.949   7.254
    9POPC   D2A  655  11.127   5.113   6.880
    9POPC   C3A  656  10.976   4.897   6.555
    9POPC   C4A  657  11.072   4.828   6.163
    9POPC   C1B  658  11.398   5.283   7.304
    9POPC   C2B  659   0.116   5.257   6.887
    9POPC   C3B  660  11.457   5.291   6.392
    9POPC   C4B  661  11.201   5.284   5.960
   10POPC   NC3  662  11.397   8.145   7.974
   10POPC   PO4  663  10.653   8.313   8.067
   10POPC   GL1  664  10.944   8.363   7.681
   10POPC   GL2  665  11.319   8.416   7.564
   10POPC   C1A  666  10.862   8.408   7.234
   10POPC   D2A  667  10.885   8.514   6.808
   10POPC   C3A  668  11.049   8.196   6.600
   10POPC   C4A  669  10.988   8.038   6.207
   10POPC   C1B  670  11.308   8.083   7.271
   10POPC   C2B  671  11.474   8.072   6.859
   10POPC   C3B  672  11.469   7.968   6.452
   10POPC   C4B  673  11.401   8.310   6.194
   11POPC   NC3  674   3.529   2.416   8.077
   11POPC   PO4  675   4.192   2.528   8.309
   11POPC   GL1  676   3.950   2.527   7.833
   11POPC   GL2  677   3.611   2.758   7.696
   11POPC   C1A  678   3.825   2.430   7.392
   11POPC   D2A  679   3.643   2.678   7.095
   11POPC   C3A  680   3.754   2.533   6.707
   11POPC   C4A  681   3.759   2.803   6.383
   11POPC   C1B  682   3.242   2.870   7.361
   11POPC   C2B  683   3.112   2.945   6.906
   11POPC   C3B  684   3.210   2.837   6.461
   11POPC   C4B  685   3.419   3.166   6.208
   12POPC   NC3  686   4.797   7.982   8.047
   12POPC   PO4  687   5.165   7.577   7.984
   12POPC   GL1  688   5.089   7.864   7.607
   12POPC   GL2  689   5.102   8.217   7.700
   12POPC   C1A  690   5.047   7.864   7.118
   12POPC   D2A  691   5.152   7.902   6.663
   12POPC   C3A  692   4.792   7.980   6.373
   12POPC   C4A  693   4.408   8.109   6.141
   12POPC   C1B  694   5.165   8.331   7.255
   12POPC   C2B  695   4.984   8.382   6.825
   12POPC   C3B  696   5.169   8.336   6.386
   12POPC   C4B  697   5.242   7.963   6.109
   13POPC   NC3  698   8.469   0.942   8.006
   13POPC   PO4  699   7.771   1.091   8.146
   13POPC   GL1  700   8.011   1.103   7.769
   13POPC   GL2  701   7.829   1.347   7.558
   13POPC   C1A  702   8.057   0.900   7.364
   13POPC   D2A  703   7.919   1.028   6.927
   13POPC   C3A  704   8.226   0.958   6.596
   13POPC   C4A  705   8.279   1.104   6.183
   13POPC   C1B  706   8.170   1.389   7.229
   13POPC   C2B  707   8.231   1.440   6.788
   13POPC   C3B  708   7.927   1.357   6.456
   13POPC   C4B  709   7.745   1.657   6.170
   14POPC   NC3  710   1.121   9.575   8.107
   14POPC   PO4  711   0.860  10.190   8.157
   14POPC   GL1  712   1.029   9.953   7.777
   14POPC   GL2  713   1.403   9.882   7.785
   14POPC   C1A  714   0.863   9.971   7.365
   14POPC   D2A  715   1.119   9.958   6.993
   14POPC   C3A  716   1.065   9.682   6.639
   14POPC   C4A  717   1.146   9.888   6.252
   14POPC   C1B  718   1.322   9.691   7.393
   14POPC   C2B  719   1.486   9.562   6.997
   14POPC   C3B  720   1.571   9.642   6.589
   14POPC   C4B  721   1.450   9.492   6.189
   15POPC   NC3  722   1.274  10.557   8.214
   15POPC   PO4  723   0.739  10.696   7.851
   15POPC   GL1  724   1.000  10.448   7.679
   15POPC   GL2  725   1.359  10.411   7.719
   15POPC   C1A  726   1.072  10.425   7.263
   15POPC   D2A  727   1.334  10.484   6.932
   15POPC   C3A  728   1.143  10.293   6.580
   15POPC   C4A  729   0.926  10.349   6.199
   15POPC   C1B  730   1.520  10.186   7.337
   15POPC   C2B  731   1.615  10.048   6.897
   15POPC   C3B  732   1.616  10.134   6.437
   15POPC   C4B  733   1.423  10.372   6.113
   16POPC   NC3  734   3.596   9.367   8.265
   16POPC   PO4  735   3.061   9.211   7.979
   16POPC   GL1  736   3.433   9.464   7.772
   16POPC   GL2  737   3.653   9.775   7.824
   16POPC   C1A  738   3.447   9.573   7.324
   16POPC   D2A  739   3.328   9.755   6.909
   16POPC   C3A  740   3.299   9.596   6.447
   16POPC   C4A  741   3.187   9.524   6.004
   16POPC   C1B  742   3.717   9.999   7.390
   16POPC   C2B  743   3.813   9.973   6.917
   16POPC   C3B  744   3.795   9.744   6.488
   16POPC   C4B  745   3.660   9.732   6.026
   17POPC   NC3  746  10.493   1.240   8.270
   17POPC   PO4  747  10.387   1.792   7.962
   17POPC   GL1  748  10.304   1.503   7.655
   17POPC   GL2  749  10.403   1.171   7.727
   17POPC   C1A  750  10.547   1.384   7.264
   17POPC   D2A  751  10.693   1.238   6.866
   17POPC   C3A  752  10.632   1.569   6.610
   17POPC   C4A  753  10.528   1.568   6.209
   17POPC   C1B  754  10.099   1.135   7.360
   17POPC   C2B  755  10.213   1.077   6.937
   17POPC   C3B  756  10.229   1.223   6.516
   17POPC   C4B  757  10.237   1.064   6.076
   18POPC   NC3  758   3.821  11.330   8.171
   18POPC   PO4  759   3.281   0.051   7.849
   18POPC   GL1  760   3.641  11.396   7.684
   18POPC   GL2  761   3.562  11.055   7.688
   18POPC   C1A  762   3.784  11.339   7.275
   18POPC   D2A  763   3.725  11.029   6.964
   18POPC   C3A  764   3.673  11.169   6.579
   18POPC   C4A  765   3.733   0.000   6.292
   18POPC   C1B  766   3.299  11.071   7.291
   18POPC   C2B  767   3.234  10.927   6.845
   18POPC   C3B  768   3.268  10.965   6.383
   18POPC   C4B  769   3.585  10.997   6.054
   19POPC   NC3  770  11.395   6.262   8.242
   19POPC   PO4  771  11.261   6.912   8.040
   19POPC   GL1  772  11.265   6.671   7.678
   19POPC   GL2  773  11.232   6.324   7.769
   19POPC   C1A  774  11.237   6.789   7.235
   19POPC   D2A  775  11.092   6.924   6.780
   19POPC   C3A  776  11.210   6.801   6.309
   19POPC   C4A  777  10.893   6.973   5.942
   19POPC   C1B  778  11.263   6.280   7.323
   19POPC   C2B  779  11.016   6.448   6.950
   19POPC   C3B  780  11.057   6.338   6.491
   19POPC   C4B  781  11.447   6.260   6.275
   20POPC   NC3  782  10.343   0.184   8.485
   20POPC   PO4  783  10.890   0.150   8.076
   20POPC   GL1  784  10.645   0.238   7.689
   20POPC   GL2  785  10.270   0.307   7.718
   20POPC   C1A  786  10.491   0.209   7.253
   20POPC   D2A  787  10.456  11.459   6.909
   20POPC   C3A  788  10.526   0.205   6.547
   20POPC   C4A  789  10.669   0.174   6.121
   20POPC   C1B  790  10.323   0.661   7.380
   20POPC   C2B  791  10.463   0.630   6.925
   20POPC   C3B  792  10.264   0.692   6.513
   20POPC   C4B  793  10.217   0.411   6.186
   21POPC   NC3  794   6.941   1.141   7.993
   21POPC   PO4  795   6.247   1.182   8.067
   21POPC   GL1  796   6.496   0.978   7.712
   21POPC   GL2  797   6.279   0.746   7.516
   21POPC   C1A  798   6.852   1.049   7.379
   21POPC   D2A  799   6.813   1.210   6.976
   21POPC   C3A  800   6.561   0.962   6.714
   21POPC   C4A  801   6.538   1.166   6.332
   21POPC   C1B  802   6.347   1.078   7.196
   21POPC   C2B  803   6.311   1.444   6.901
   21POPC   C3B  804   6.361   1.665   6.485
   21POPC   C4B  805   6.219   1.481   6.091
   22POPC   NC3  806   8.923  11.021   7.907
   22POPC   PO4  807   9.323  10.503   7.936
   22POPC   GL1  808   9.226  10.815   7.558
   22POPC   GL2  809   9.121  11.225   7.509
   22POPC   C1A  810   8.940  10.855   7.204
   22POPC   D2A  811   8.643  10.772   6.865
   22POPC   C3A  812   8.646  11.000   6.503
   22POPC   C4A  813   8.965  11.014   6.258
   22POPC   C1B  814   8.694  11.272   7.326
   22POPC   C2B  815   8.786  11.301   6.897
   22POPC   C3B  816   8.691   0.024   6.517
   22POPC   C4B  817   8.729  11.458   6.068
   23POPC   NC3  818   0.470   1.072   7.864
   23POPC   PO4  819   0.802   1.600   7.984
   23POPC   GL1  820   0.639   1.485   7.610
   23POPC   GL2  821   0.256   1.484   7.647
   23POPC   C1A  822   0.569   1.571   7.190
   23POPC   D2A  823   0.489   1.322   6.830
   23POPC   C3A  824   0.479   1.602   6.493
   23POPC   C4A  825   0.290   1.554   6.090
   23POPC   C1B  826   0.131   1.271   7.260
   23POPC   C2B  827  11.469   1.092   6.893
   23POPC   C3B  828   0.087   1.245   6.492
   23POPC   C4B  829   0.477   1.069   6.320
   24POPC   NC3  830   4.227   8.593   8.210
   24POPC   PO4  831   4.041   9.216   8.179
   24POPC   GL1  832   4.056   9.030   7.786
   24POPC   GL2  833   4.352   8.852   7.753
   24POPC   C1A  834   4.043   8.953   7.321
   24POPC   D2A  835   4.175   8.606   7.031
   24POPC   C3A  836   4.174   8.677   6.556
   24POPC   C4A  837   4.070   8.509   6.143
   24POPC   C1B  838   4.539   8.885   7.310
   24POPC   C2B  839   4.412   9.025   6.869
   24POPC   C3B  840   4.537   9.006   6.415
   24POPC   C4B  841   4.712   9.173   6.039
   25POPC   NC3  842   3.541   1.347   8.191
   25POPC   PO4  843   3.216   0.699   8.068
   25POPC   GL1  844   3.256   0.881   7.660
   25POPC   GL2  845   3.523   1.123   7.573
   25POPC   C1A  846   3.147   1.021   7.246
   25POPC   D2A  847   3.338   1.081   6.838
   25POPC   C3A  848   3.139   1.099   6.428
   25POPC   C4A  849   3.151   1.463   6.132
   25POPC   C1B  850   3.831   1.383   7.300
   25POPC   C2B  851   4.012   1.507   6.881
   25POPC   C3B  852   3.898   1.453   6.451
   25POPC   C4B  853   3.610   1.183   6.331
   26POPC   NC3  854   5.618   9.713   8.267
   26POPC   PO4  855   6.067  10.157   8.240
   26POPC   GL1  856   6.154   9.891   7.834
   26POPC   GL2  857   5.836   9.710   7.770
   26POPC   C1A  858   6.043   9.906   7.344
   26POPC   D2A  859   6.195   9.794   6.909
   26POPC   C3A  860   5.973   9.869   6.517
   26POPC   C4A  861   6.004   9.897   6.070
   26POPC   C1B  862   5.619   9.604   7.354
   26POPC   C2B  863   5.641   9.668   6.887
   26POPC   C3B  864   5.518   9.583   6.438
   26POPC   C4B  865   5.688   9.495   5.998
   27POPC   NC3  866  11.076  10.459   8.043
   27POPC   PO4  867  10.757   9.925   7.797
   27POPC   GL1  868  11.111  10.118   7.634
   27POPC   GL2  869  11.120  10.483   7.546
   27POPC   C1A  870  11.201  10.051   7.216
   27POPC   D2A  871  10.952  10.089   6.839
   27POPC   C3A  872  11.231  10.212   6.533
   27POPC   C4A  873  11.244  10.096   6.096
   27POPC   C1B  874  10.847  10.751   7.300
   27POPC   C2B  875  11.017  10.679   6.911
   27POPC   C3B  876  11.097  10.836   6.508
   27POPC   C4B  877  11.348  10.603   6.238
   28POPC   NC3  878   5.450   0.138   7.947
   28POPC   PO4  879   5.004   0.584   8.255
   28POPC   GL1  880   5.205   0.546   7.797
   28POPC   GL2  881   5.133   0.270   7.565
   28POPC   C1A  882   5.370   0.613   7.311
   28POPC   D2A  883   5.100   0.363   7.024
   28POPC   C3A  884   5.128   0.375   6.583
   28POPC   C4A  885   5.290   0.644   6.284
   28POPC   C1B  886   4.879   0.650   7.417
   28POPC   C2B  887   4.644   0.691   7.050
   28POPC   C3B  888   4.731   0.725   6.604
   28POPC   C4B  889   4.798   0.981   6.244
   29POPC   NC3  890   8.748   2.610   8.046
   29POPC   PO4  891   8.258   2.898   8.015
   29POPC   GL1  892   8.558   2.879   7.636
   29POPC   GL2  893   8.797   2.576   7.538
   29POPC   C1A  894   8.860   3.037   7.315
   29POPC   D2A  895   8.973   3.328   6.971
   29POPC   C3A  896   8.994   3.168   6.541
   29POPC   C4A  897   8.694   3.010   6.186
   29POPC   C1B  898   9.120   2.611   7.193
   29POPC   C2B  899   9.017   2.639   6.746
   29POPC   C3B  900   9.082   2.704   6.313
   29POPC   C4B  901   9.062   2.590   5.878
   30POPC   NC3  902   7.340  10.633   8.261
   30POPC   PO4  903   7.621  10.797   7.688
   30POPC   GL1  904   7.313  10.525   7.585
   30POPC   GL2  905   7.402  10.259   7.824
   30POPC   C1A  906   7.283  10.409   7.159
   30POPC   D2A  907   7.005  10.447   6.838
   30POPC   C3A  908   7.147  10.632   6.476
   30POPC   C4A  909   7.496  10.640   6.208
   30POPC   C1B  910   7.678  10.173   7.456
   30POPC   C2B  911   7.625  10.069   7.025
   30POPC   C3B  912   7.512  10.259   6.622
   30POPC   C4B  913   7.473  10.117   6.193
   31POPC   NC3  914   9.773   4.529   7.648
   31POPC   PO4  915  10.097   4.053   7.939
   31POPC   GL1  916   9.967   4.057   7.498
   31POPC   GL2  917   9.619   4.039   7.568
   31POPC   C1A  918  10.134   4.304   7.113
   31POPC   D2A  919  10.176   4.675   6.815
   31POPC   C3A  920  10.072   4.592   6.363
   31POPC   C4A  921   9.781   4.258   6.223
   31POPC   C1B  922   9.589   4.067   7.116
   31POPC   C2B  923   9.343   3.899   6.763
   31POPC   C3B  924   9.314   4.119   6.390
   31POPC   C4B  925   9.323   4.583   6.334
   32POPC   NC3  926   0.330   2.078   8.014
   32POPC   PO4  927   0.949   2.355   7.925
   32POPC   GL1  928   0.782   2.019   7.642
   32POPC   GL2  929   0.442   1.945   7.557
   32POPC   C1A  930   0.750   2.103   7.208
   32POPC   D2A  931   0.467   1.997   6.887
   32POPC   C3A  932   0.731   2.061   6.563
   32POPC   C4A  933   0.854   1.925   6.166
   32POPC   C1B  934   0.130   1.823   7.283
   32POPC   C2B  935   0.086   1.633   6.883
   32POPC   C3B  936   0.001   1.801   6.470
   32POPC   C4B  937   0.327   2.048   6.256
   33POPC   NC3  938   9.452   5.673   8.285
   33POPC   PO4  939   9.862   6.088   8.165
   33POPC   GL1  940   9.959   5.829   7.805
   33POPC   GL2  941  10.095   6.112   7.666
   33POPC   C1A  942   9.947   5.626   7.391
   33POPC   D2A  943   9.981   5.735   6.941
   33POPC   C3A  944   9.838   5.625   6.518
   33POPC   C4A  945   9.864   5.680   6.071
   33POPC   C1B  946   9.936   6.157   7.235
   33POPC   C2B  947   9.877   6.233   6.769
   33POPC   C3B  948   9.748   6.115   6.337
   33POPC   C4B  949   9.450   5.962   5.999
   34POPC   NC3  950   5.057   1.073   8.195
   34POPC   PO4  951   5.650   0.726   8.152
   34POPC   GL1  952   5.419   0.990   7.789
   34POPC   GL2  953   5.141   1.240   7.727
   34POPC   C1A  954   5.393   1.105   7.319
   34POPC   D2A  955   5.099   0.924   6.991
   34POPC   C3A  956   5.186   1.044   6.578
   34POPC   C4A  957   5.261   1.172   6.133
   34POPC   C1B  958   4.890   1.249   7.332
   34POPC   C2B  959   4.782   1.352   6.890
   34POPC   C3B  960   4.898   1.446   6.455
   34POPC   C4B  961   5.016   1.630   6.053
   35POPC   NC3  962   7.759   9.253   8.113
   35POPC   PO4  963   8.454   9.267   8.074
   35POPC   GL1  964   8.342   9.188   7.653
   35POPC   GL2  965   8.021   9.168   7.680
   35POPC   C1A  966   8.222   8.872   7.313
   35POPC   D2A  967   8.088   8.714   6.864
   35POPC   C3A  968   8.332   8.663   6.445
   35POPC   C4A  969   8.319   8.794   6.004
   35POPC   C1B  970   7.842   9.205   7.268
   35POPC   C2B  971   7.999   9.214   6.849
   35POPC   C3B  972   8.019   9.075   6.404
   35POPC   C4B  973   7.861   9.030   5.945
   36POPC   NC3  974   8.913  10.413   8.138
   36POPC   PO4  975   8.468  11.019   7.989
   36POPC   GL1  976   8.636  10.674   7.638
   36POPC   GL2  977   8.901  10.387   7.634
   36POPC   C1A  978   8.613  10.427   7.223
   36POPC   D2A  979   8.616  10.253   6.798
   36POPC   C3A  980   8.379  10.542   6.476
   36POPC   C4A  981   8.551  10.726   6.077
   36POPC   C1B  982   9.139  10.376   7.239
   36POPC   C2B  983   9.127  10.590   6.820
   36POPC   C3B  984   8.896  10.524   6.441
   36POPC   C4B  985   8.983  10.138   6.273
   37POPC   NC3  986   7.156   8.849   7.958
   37POPC   PO4  987   7.837   8.658   8.190
   37POPC   GL1  988   7.808   8.703   7.744
   37POPC   GL2  989   7.584   8.923   7.700
   37POPC   C1A  990   7.737   8.700   7.265
   37POPC   D2A  991   7.587   8.925   6.893
   37POPC   C3A  992   7.445   8.685   6.558
   37POPC   C4A  993   7.782   8.637   6.268
   37POPC   C1B  994   7.343   9.037   7.330
   37POPC   C2B  995   7.128   9.138   6.942
   37POPC   C3B  996   7.187   9.139   6.497
   37POPC   C4B  997   7.395   9.008   6.143
   38POPC   NC3  998   0.581  11.043   8.095
   38POPC   PO4  999   1.126  10.983   8.498
   38POPC   GL1 1000   1.178  10.981   7.954
   38POPC   GL2 1001   0.949  11.205   7.760
   38POPC   C1A 1002   1.267  10.868   7.462
   38POPC   D2A 1003   1.214  11.035   7.005
   38POPC   C3A 1004   1.187  10.837   6.577
   38POPC   C4A 1005   0.948  10.881   6.192
   38POPC   C1B 1006   1.193  11.369   7.394
   38POPC   C2B 1007   1.447   0.009   7.051
   38POPC   C3B 1008   1.362   0.044   6.628
   38POPC   C4B 1009   1.295  11.278   6.297
   39POPC   NC3 1010   9.311   8.527   8.116
   39POPC   PO4 1011   9.239   7.850   8.067
   39POPC   GL1 1012   9.541   8.049   7.733
   39POPC   GL2 1013   9.717   8.365   7.751
   39POPC   C1A 1014   9.694   8.046   7.280
   39POPC   D2A 1015   9.850   7.775   6.913
   39POPC   C3A 1016   9.683   7.788   6.453
   39POPC   C4A 1017   9.690   7.798   5.998
   39POPC   C1B 1018   9.646   8.557   7.355
   39POPC   C2B 1019   9.533   8.439   6.934
   39POPC   C3B 1020   9.704   8.462   6.513
   39POPC   C4B 1021   9.558   8.249   6.148
   40POPC   NC3 1022   1.152   1.280   7.993
   40POPC   PO4 1023   1.721   0.861   8.111
   40POPC   GL1 1024   1.523   0.893   7.736
   40POPC   GL2 1025   1.600   1.222   7.651
   40POPC   C1A 1026   1.599   0.848   7.278
   40POPC   D2A 1027   1.754   0.816   6.833
   40POPC   C3A 1028   1.433   0.965   6.520
   40POPC   C4A 1029   1.032   0.960   6.277
   40POPC   C1B 1030   1.417   1.360   7.261
   40POPC   C2B 1031   1.325   1.367   6.813
   40POPC   C3B 1032   0.940   1.368   6.561
   40POPC   C4B 1033   0.802   1.414   6.136
   41POPC   NC3 1034   8.014   3.289   8.038
   41POPC   PO4 1035   8.301   3.805   7.971
   41POPC   GL1 1036   8.347   3.419   7.689
   41POPC   GL2 1037   8.007   3.454   7.542
   41POPC   C1A 1038   8.401   3.254   7.271
   41POPC   D2A 1039   8.472   3.533   6.914
   41POPC   C3A 1040   8.537   3.403   6.502
   41POPC   C4A 1041   8.313   3.343   6.130
   41POPC   C1B 1042   7.960   3.418   7.072
   41POPC   C2B 1043   8.049   3.284   6.630
   41POPC   C3B 1044   7.818   3.225   6.232
   41POPC   C4B 1045   7.483   3.370   5.949
   42POPC   NC3 1046  11.143   9.788   8.037
   42POPC   PO4 1047  10.855   9.223   7.850
   42POPC   GL1 1048  11.021   9.546   7.571
   42POPC   GL2 1049  11.368   9.667   7.581
   42POPC   C1A 1050  10.821   9.673   7.182
   42POPC   D2A 1051  10.653   9.449   6.808
   42POPC   C3A 1052  10.646   9.680   6.428
   42POPC   C4A 1053  10.850   9.766   6.029
   42POPC   C1B 1054  11.397   9.584   7.151
   42POPC   C2B 1055  11.154   9.598   6.799
   42POPC   C3B 1056  11.187   9.689   6.401
   42POPC   C4B 1057  11.331   9.583   5.998
   43POPC   NC3 1058  11.122   7.258   8.324
   43POPC   PO4 1059  11.125   7.773   7.894
   43POPC   GL1 1060  11.164   7.318   7.652
   43POPC   GL2 1061  10.953   7.077   7.600
   43POPC   C1A 1062  11.423   7.252   7.267
   43POPC   D2A 1063   0.081   6.981   6.911
   43POPC   C3A 1064  11.478   7.171   6.524
   43POPC   C4A 1065  11.352   7.525   6.258
   43POPC   C1B 1066  10.903   7.478   7.286
   43POPC   C2B 1067  11.028   7.763   6.938
   43POPC   C3B 1068  10.916   7.660   6.527
   43POPC   C4B 1069  10.955   7.234   6.380
   44POPC   NC3 1070   1.464   8.040   8.235
   44POPC   PO4 1071   0.777   8.076   8.204
   44POPC   GL1 1072   1.118   8.181   7.855
   44POPC   GL2 1073   1.098   8.547   7.731
   44POPC   C1A 1074   1.375   8.162   7.440
   44POPC   D2A 1075   1.491   8.337   6.998
   44POPC   C3A 1076   1.588   8.221   6.578
   44POPC   C4A 1077   1.367   8.098   6.205
   44POPC   C1B 1078   0.930   8.399   7.341
   44POPC   C2B 1079   1.036   8.137   7.044
   44POPC   C3B 1080   1.081   8.193   6.638
   44POPC   C4B 1081   0.880   8.275   6.254
   45POPC   NC3 1082   3.322   3.395   8.091
   45POPC   PO4 1083   2.683   3.223   8.073
   45POPC   GL1 1084   2.652   3.198   7.653
   45POPC   GL2 1085   2.447   3.495   7.629
   45POPC   C1A 1086   2.842   3.259   7.226
   45POPC   D2A 1087   2.751   3.357   6.777
   45POPC   C3A 1088   2.937   3.363   6.364
   45POPC   C4A 1089   2.965   3.820   6.182
   45POPC   C1B 1090   2.305   3.276   7.280
   45POPC   C2B 1091   2.112   3.475   6.951
   45POPC   C3B 1092   2.328   3.615   6.620
   45POPC   C4B 1093   2.401   3.279   6.379
   46POPC   NC3 1094  10.801   8.850   8.103
   46POPC   PO4 1095  11.316   9.378   8.210
   46POPC   GL1 1096  11.358   9.184   7.775
   46POPC   GL2 1097  11.240   8.852   7.823
   46POPC   C1A 1098  11.493   9.125   7.350
   46POPC   D2A 1099  11.258   9.101   6.945
   46POPC   C3A 1100  11.447   9.202   6.532
   46POPC   C4A 1101  11.204   9.089   6.165
   46POPC   C1B 1102  11.095   8.823   7.381
   46POPC   C2B 1103  11.340   8.593   7.039
   46POPC   C3B 1104  11.330   8.656   6.570
   46POPC   C4B 1105  10.972   8.597   6.267
   47POPC   NC3 1106   0.645   3.020   8.123
   47POPC   PO4 1107   0.175   2.500   8.122
   47POPC   GL1 1108   0.364   2.727   7.783
   47POPC   GL2 1109   0.507   2.445   7.679
   47POPC   C1A 1110   0.499   2.808   7.336
   47POPC   D2A 1111   0.527   2.997   6.939
   47POPC   C3A 1112   0.206   2.987   6.636
   47POPC   C4A 1113   0.404   2.949   6.226
   47POPC   C1B 1114   0.301   2.339   7.292
   47POPC   C2B 1115   0.291   2.529   6.905
   47POPC   C3B 1116   0.361   2.505   6.488
   47POPC   C4B 1117   0.695   2.450   6.222
   48POPC   NC3 1118   5.410   0.404   8.382
   48POPC   PO4 1119   5.958   0.231   7.955
   48POPC   GL1 1120   5.698   0.366   7.615
   48POPC   GL2 1121   5.760   0.629   7.636
   48POPC   C1A 1122   5.540   0.151   7.241
   48POPC   D2A 1123   5.610   0.375   6.868
   48POPC   C3A 1124   5.598   0.158   6.510
   48POPC   C4A 1125   5.385  11.427   6.211
   48POPC   C1B 1126   5.998   0.411   7.247
   48POPC   C2B 1127   6.199   0.624   6.973
   48POPC   C3B 1128   6.091   0.720   6.598
   48POPC   C4B 1129   5.877   0.491   6.234
   49POPC   NC3 1130  10.512   4.914   7.988
   49POPC   PO4 1131  10.679   5.521   8.055
   49POPC   GL1 1132  10.673   5.247   7.657
   49POPC   GL2 1133  10.319   5.295   7.624
   49POPC   C1A 1134  10.520   4.936   7.303
   49POPC   D2A 1135  10.607   5.038   6.883
   49POPC   C3A 1136  10.476   4.915   6.478
   49POPC   C4A 1137  10.622   5.108   6.121
   49POPC   C1B 1138  10.381   5.415   7.164
   49POPC   C2B 1139  10.319   5.426   6.682
   49POPC   C3B 1140  10.111   5.233   6.317
   49POPC   C4B 1141   9.792   5.184   5.981
   50POPC   NC3 1142   7.998  10.645   7.903
   50POPC   PO4 1143   8.521  10.259   7.965
   50POPC   GL1 1144   8.340  10.221   7.583
   50POPC   GL2 1145   8.159  10.533   7.443
   50POPC   C1A 1146   8.160  10.106   7.191
   50POPC   D2A 1147   8.042  10.264   6.805
   50POPC   C3A 1148   8.237  10.029   6.564
   50POPC   C4A 1149   8.462  10.105   6.224
   50POPC   C1B 1150   7.800  10.555   7.145
   50POPC   C2B 1151   7.558  10.729   6.842
   50POPC   C3B 1152   7.859  10.691   6.547
   50POPC   C4B 1153   7.940  10.336   6.282
   51POPC   NC3 1154   9.941   1.718   8.064
   51POPC   PO4 1155   9.300   1.574   8.296
   51POPC   GL1 1156   9.462   1.870   7.860
   51POPC   GL2 1157   9.754   2.146   7.767
   51POPC   C1A 1158   9.454   1.932   7.370
   51POPC   D2A 1159   9.707   1.890   6.956
   51POPC   C3A 1160   9.528   1.942   6.527
   51POPC   C4A 1161   9.340   1.792   6.129
   51POPC   C1B 1162   9.833   2.275   7.312
   51POPC   C2B 1163   9.533   2.391   6.973
   51POPC   C3B 1164   9.515   2.466   6.516
   51POPC   C4B 1165   9.854   2.260   6.259
   52POPC   NC3 1166  10.492   2.223   8.175
   52POPC   PO4 1167  10.783   1.668   8.320
   52POPC   GL1 1168  10.820   2.040   7.847
   52POPC   GL2 1169  10.445   2.135   7.637
   52POPC   C1A 1170  10.827   2.146   7.347
   52POPC   D2A 1171  10.601   1.910   6.996
   52POPC   C3A 1172  10.541   2.081   6.545
   52POPC   C4A 1173  10.583   2.074   6.077
   52POPC   C1B 1174  10.171   1.877   7.337
   52POPC   C2B 1175  10.146   1.587   6.986
   52POPC   C3B 1176  10.108   1.727   6.568
   52POPC   C4B 1177  10.132   1.858   6.148
   53POPC   NC3 1178   2.845   5.836   8.405
   53POPC   PO4 1179   3.232   6.215   8.227
   53POPC   GL1 1180   2.901   5.955   7.893
   53POPC   GL2 1181   2.576   5.691   7.777
   53POPC   C1A 1182   2.892   5.878   7.428
   53POPC   D2A 1183   2.929   6.004   6.990
   53POPC   C3A 1184   3.043   5.744   6.621
   53POPC   C4A 1185   3.098   5.869   6.177
   53POPC   C1B 1186   2.444   5.668   7.267
   53POPC   C2B 1187   2.568   5.592   6.778
   53POPC   C3B 1188   2.612   5.823   6.359
   53POPC   C4B 1189   2.457   6.184   6.219
   54POPC   NC3 1190   8.946   9.265   8.135
   54POPC   PO4 1191   8.953   9.965   8.259
   54POPC   GL1 1192   8.831   9.871   7.773
   54POPC   GL2 1193   8.773   9.510   7.720
   54POPC   C1A 1194   8.793   9.957   7.316
   54POPC   D2A 1195   8.983   9.852   6.884
   54POPC   C3A 1196   8.716   9.754   6.505
   54POPC   C4A 1197   8.669   9.658   6.033
   54POPC   C1B 1198   9.077   9.521   7.363
   54POPC   C2B 1199   9.156   9.318   6.970
   54POPC   C3B 1200   9.182   9.344   6.538
   54POPC   C4B 1201   9.130   9.649   6.210
   55POPC   NC3 1202   9.712   0.216   7.947
   55POPC   PO4 1203   9.174  11.393   8.020
   55POPC   GL1 1204   9.259   0.185   7.705
   55POPC   GL2 1205   9.417   0.532   7.638
   55POPC   C1A 1206   9.474   0.122   7.314
   55POPC   D2A 1207   9.470   0.387   6.961
   55POPC   C3A 1208   9.368   0.154   6.610
   55POPC   C4A 1209   9.327   0.307   6.198
   55POPC   C1B 1210   9.816   0.519   7.346
   55POPC   C2B 1211   9.920   0.651   6.897
   55POPC   C3B 1212   9.770   0.473   6.489
   55POPC   C4B 1213   9.763   0.508   6.021
   56POPC   NC3 1214   0.376   8.231   8.351
   56POPC   PO4 1215   0.238   7.797   7.907
   56POPC   GL1 1216   0.291   8.156   7.637
   56POPC   GL2 1217   0.614   8.280   7.720
   56POPC   C1A 1218   0.335   8.154   7.199
   56POPC   D2A 1219   0.584   8.210   6.851
   56POPC   C3A 1220   0.385   8.269   6.505
   56POPC   C4A 1221   0.351   8.077   6.138
   56POPC   C1B 1222   0.731   7.916   7.399
   56POPC   C2B 1223   0.741   7.729   6.934
   56POPC   C3B 1224   0.727   7.851   6.462
   56POPC   C4B 1225   0.746   7.863   5.939
   57POPC   NC3 1226   0.632   4.083   7.882
   57POPC   PO4 1227   0.432   3.451   8.122
   57POPC   GL1 1228   0.478   3.579   7.718
   57POPC   GL2 1229   0.545   3.231   7.650
   57POPC   C1A 1230   0.392   3.774   7.319
   57POPC   D2A 1231   0.596   3.956   6.953
   57POPC   C3A 1232   0.487   3.840   6.546
   57POPC   C4A 1233   0.644   3.708   6.124
   57POPC   C1B 1234   0.257   3.272   7.303
   57POPC   C2B 1235   0.355   3.471   6.902
   57POPC   C3B 1236   0.556   3.345   6.518
   57POPC   C4B 1237   0.204   3.454   6.227
   58POPC   NC3 1238   5.177  10.960   8.152
   58POPC   PO4 1239   4.975   0.058   8.002
   58POPC   GL1 1240   4.849  11.345   7.638
   58POPC   GL2 1241   4.966  11.041   7.686
   58POPC   C1A 1242   5.094  11.360   7.257
   58POPC   D2A 1243   5.279  11.387   6.840
   58POPC   C3A 1244   4.935  11.403   6.535
   58POPC   C4A 1245   4.889  11.488   6.107
   58POPC   C1B 1246   5.107  10.844   7.302
   58POPC   C2B 1247   5.269  10.821   6.883
   58POPC   C3B 1248   5.233  10.997   6.459
   58POPC   C4B 1249   5.206  10.985   5.983
   59POPC   NC3 1250   2.932   0.280   8.090
   59POPC   PO4 1251   2.466   0.810   7.957
   59POPC   GL1 1252   2.777   0.633   7.706
   59POPC   GL2 1253   2.576   0.338   7.696
   59POPC   C1A 1254   3.003   0.532   7.335
   59POPC   D2A 1255   2.915   0.304   6.962
   59POPC   C3A 1256   2.943   0.457   6.548
   59POPC   C4A 1257   2.871   0.254   6.168
   59POPC   C1B 1258   2.477   0.435   7.253
   59POPC   C2B 1259   2.288   0.699   6.909
   59POPC   C3B 1260   2.195   0.767   6.470
   59POPC   C4B 1261   2.495   0.729   6.070
   60POPC   NC3 1262   8.987   1.248   8.159
   60POPC   PO4 1263   8.342   1.365   8.100
   60POPC   GL1 1264   8.673   1.339   7.731
   60POPC   GL2 1265   8.894   1.074   7.670
   60POPC   C1A 1266   8.679   1.312   7.250
   60POPC   D2A 1267   8.883   1.267   6.820
   60POPC   C3A 1268   8.624   1.393   6.454
   60POPC   C4A 1269   8.664   1.354   5.976
   60POPC   C1B 1270   9.142   1.111   7.265
   60POPC   C2B 1271   9.188   0.837   6.935
   60POPC   C3B 1272   9.244   1.002   6.559
   60POPC   C4B 1273   9.089   1.296   6.246
   61POPC   NC3 1274   2.330  10.408   7.952
   61POPC   PO4 1275   1.728  10.687   8.143
   61POPC   GL1 1276   1.864  10.535   7.740
   61POPC   GL2 1277   1.862  10.152   7.751
   61POPC   C1A 1278   1.748  10.661   7.323
   61POPC   D2A 1279   1.684  10.863   6.932
   61POPC   C3A 1280   1.923  10.725   6.576
   61POPC   C4A 1281   1.836  10.681   6.158
   61POPC   C1B 1282   2.054  10.244   7.351
   61POPC   C2B 1283   1.982  10.383   6.945
   61POPC   C3B 1284   2.121  10.203   6.542
   61POPC   C4B 1285   2.025  10.235   6.102
   62POPC   NC3 1286   0.491   4.352   8.366
   62POPC   PO4 1287   0.162   4.033   7.913
   62POPC   GL1 1288   0.152   4.317   7.641
   62POPC   GL2 1289   0.358   4.502   7.786
   62POPC   C1A 1290   0.247   4.252   7.249
   62POPC   D2A 1291   0.090   4.019   6.925
   62POPC   C3A 1292   0.168   4.246   6.573
   62POPC   C4A 1293   0.215   4.043   6.183
   62POPC   C1B 1294   0.580   4.610   7.416
   62POPC   C2B 1295   0.660   4.493   6.979
   62POPC   C3B 1296   0.512   4.613   6.601
   62POPC   C4B 1297   0.532   4.442   6.194
   63POPC   NC3 1298   1.163   8.863   8.132
   63POPC   PO4 1299   1.563   9.480   8.114
   63POPC   GL1 1300   1.405   9.303   7.729
   63POPC   GL2 1301   1.077   9.121   7.704
   63POPC   C1A 1302   1.345   9.180   7.292
   63POPC   D2A 1303   1.094   9.232   6.939
   63POPC   C3A 1304   1.336   9.170   6.598
   63POPC   C4A 1305   1.189   9.074   6.208
   63POPC   C1B 1306   0.935   8.900   7.329
   63POPC   C2B 1307   1.153   8.716   6.957
   63POPC   C3B 1308   1.089   8.689   6.520
   63POPC   C4B 1309   0.779   8.758   6.176
   64POPC   NC3 1310   9.830  10.832   8.138
   64POPC   PO4 1311  10.111   0.012   8.126
   64POPC   GL1 1312   9.948  11.212   7.819
   64POPC   GL2 1313   9.602  11.249   7.699
   64POPC   C1A 1314   9.982  10.981   7.413
   64POPC   D2A 1315  10.004  11.167   6.962
   64POPC   C3A 1316   9.895  11.029   6.535
   64POPC   C4A 1317   9.862  10.732   6.210
   64POPC   C1B 1318   9.525  11.102   7.240
   64POPC   C2B 1319   9.304  11.103   6.827
   64POPC   C3B 1320   9.415  11.201   6.390
   64POPC   C4B 1321   9.235  11.338   5.983
   65POPC   NC3 1322   0.696   7.626   7.989
   65POPC   PO4 1323   1.366   7.655   7.997
   65POPC   GL1 1324   1.114   7.545   7.696
   65POPC   GL2 1325   1.150   7.201   7.828
   65POPC   C1A 1326   1.167   7.679   7.273
   65POPC   D2A 1327   1.417   7.822   6.946
   65POPC   C3A 1328   1.226   7.705   6.592
   65POPC   C4A 1329   1.117   7.637   6.204
   65POPC   C1B 1330   1.214   7.167   7.366
   65POPC   C2B 1331   0.973   7.113   6.951
   65POPC   C3B 1332   1.010   7.195   6.490
   65POPC   C4B 1333   1.451   7.265   6.331
   66POPC   NC3 1334   8.889   0.253   8.142
   66POPC   PO4 1335   9.181   0.822   8.096
   66POPC   GL1 1336   8.897   0.579   7.746
   66POPC   GL2 1337   8.693   0.250   7.679
   66POPC   C1A 1338   8.836   0.705   7.304
   66POPC   D2A 1339   8.635   0.837   6.903
   66POPC   C3A 1340   8.724   0.904   6.424
   66POPC   C4A 1341   8.630   0.832   5.955
   66POPC   C1B 1342   8.944   0.208   7.314
   66POPC   C2B 1343   8.856   0.342   6.924
   66POPC   C3B 1344   8.999   0.508   6.577
   66POPC   C4B 1345   8.805   0.439   6.211
   67POPC   NC3 1346   4.295   2.990   8.284
   67POPC   PO4 1347   3.677   3.124   8.129
   67POPC   GL1 1348   4.021   3.057   7.801
   67POPC   GL2 1349   4.339   2.829   7.741
   67POPC   C1A 1350   4.009   2.929   7.359
   67POPC   D2A 1351   4.140   2.765   6.950
   67POPC   C3A 1352   4.232   2.921   6.523
   67POPC   C4A 1353   4.380   3.070   6.120
   67POPC   C1B 1354   4.321   2.481   7.367
   67POPC   C2B 1355   4.132   2.270   6.964
   67POPC   C3B 1356   4.221   2.400   6.533
   67POPC   C4B 1357   4.551   2.569   6.265
   68POPC   NC3 1358   9.944   9.314   8.125
   68POPC   PO4 1359   9.739   8.716   8.107
   68POPC   GL1 1360   9.686   8.941   7.728
   68POPC   GL2 1361   9.312   8.959   7.730
   68POPC   C1A 1362   9.952   9.006   7.345
   68POPC   D2A 1363   9.924   8.764   6.932
   68POPC   C3A 1364   9.899   8.940   6.474
   68POPC   C4A 1365   9.997   9.160   6.034
   68POPC   C1B 1366   9.326   8.934   7.255
   68POPC   C2B 1367   9.435   8.921   6.778
   68POPC   C3B 1368   9.398   8.872   6.359
   68POPC   C4B 1369   9.176   8.475   6.388
   69POPC   NC3 1370  11.453   3.635   8.057
   69POPC   PO4 1371  10.740   3.654   7.988
   69POPC   GL1 1372  10.810   3.672   7.593
   69POPC   GL2 1373  11.123   3.508   7.619
   69POPC   C1A 1374  10.881   3.700   7.179
   69POPC   D2A 1375  10.922   3.613   6.759
   69POPC   C3A 1376  10.739   3.877   6.451
   69POPC   C4A 1377  10.981   3.727   6.066
   69POPC   C1B 1378  11.231   3.186   7.312
   69POPC   C2B 1379  11.308   3.245   6.867
   69POPC   C3B 1380  11.238   3.278   6.407
   69POPC   C4B 1381  11.023   2.998   6.111
   70POPC   NC3 1382   1.219   5.909   7.945
   70POPC   PO4 1383   0.888   5.375   8.096
   70POPC   GL1 1384   0.979   5.546   7.687
   70POPC   GL2 1385   1.340   5.490   7.678
   70POPC   C1A 1386   0.849   5.443   7.251
   70POPC   D2A 1387   0.653   5.487   6.862
   70POPC   C3A 1388   0.915   5.376   6.480
   70POPC   C4A 1389   1.058   5.445   6.041
   70POPC   C1B 1390   1.276   5.731   7.288
   70POPC   C2B 1391   1.190   5.587   6.866
   70POPC   C3B 1392   1.257   5.744   6.444
   70POPC   C4B 1393   1.334   5.903   6.047
   71POPC   NC3 1394   9.852   6.564   8.071
   71POPC   PO4 1395  10.486   6.361   7.915
   71POPC   GL1 1396  10.532   6.343   7.518
   71POPC   GL2 1397  10.831   6.460   7.495
   71POPC   C1A 1398  10.513   6.346   7.098
   71POPC   D2A 1399  10.592   6.319   6.698
   71POPC   C3A 1400  10.270   6.495   6.511
   71POPC   C4A 1401   9.966   6.586   6.242
   71POPC   C1B 1402  10.734   6.779   7.250
   71POPC   C2B 1403  10.599   6.804   6.842
   71POPC   C3B 1404  10.718   6.739   6.411
   71POPC   C4B 1405  10.434   6.757   6.077
   72POPC   NC3 1406   2.871   1.019   8.033
   72POPC   PO4 1407   3.065   1.600   8.087
   72POPC   GL1 1408   3.008   1.359   7.678
   72POPC   GL2 1409   2.687   1.177   7.610
   72POPC   C1A 1410   2.873   1.434   7.233
   72POPC   D2A 1411   2.731   1.626   6.883
   72POPC   C3A 1412   2.781   1.439   6.525
   72POPC   C4A 1413   2.633   1.640   6.170
   72POPC   C1B 1414   2.619   0.942   7.264
   72POPC   C2B 1415   2.826   0.823   6.896
   72POPC   C3B 1416   2.682   0.915   6.502
   72POPC   C4B 1417   2.405   1.198   6.303
   73POPC   NC3 1418   9.642   7.625   8.046
   73POPC   PO4 1419   9.721   6.999   8.011
   73POPC   GL1 1420   9.640   7.317   7.630
   73POPC   GL2 1421   9.818   7.645   7.562
   73POPC   C1A 1422   9.484   7.481   7.197
   73POPC   D2A 1423   9.517   7.394   6.721
   73POPC   C3A 1424   9.330   7.095   6.385
   73POPC   C4A 1425   9.290   6.852   5.976
   73POPC   C1B 1426   9.975   7.360   7.211
   73POPC   C2B 1427  10.035   7.330   6.744
   73POPC   C3B 1428   9.838   7.223   6.333
   73POPC   C4B 1429   9.804   6.972   5.944
   74POPC   NC3 1430  10.560   4.077   7.972
   74POPC   PO4 1431  10.158   4.709   7.794
   74POPC   GL1 1432  10.551   4.540   7.649
   74POPC   GL2 1433  10.395   4.297   7.564
   74POPC   C1A 1434  10.770   4.431   7.260
   74POPC   D2A 1435  10.658   4.541   6.878
   74POPC   C3A 1436  10.684   4.442   6.485
   74POPC   C4A 1437  10.625   4.605   6.067
   74POPC   C1B 1438  10.494   3.990   7.315
   74POPC   C2B 1439  10.562   4.019   6.910
   74POPC   C3B 1440  10.279   4.160   6.623
   74POPC   C4B 1441  10.340   4.175   6.213
   75POPC   NC3 1442   4.898  10.353   8.173
   75POPC   PO4 1443   5.467  10.009   7.964
   75POPC   GL1 1444   5.311  10.288   7.649
   75POPC   GL2 1445   5.069  10.545   7.733
   75POPC   C1A 1446   5.187  10.278   7.197
   75POPC   D2A 1447   5.026  10.215   6.766
   75POPC   C3A 1448   4.985   9.953   6.366
   75POPC   C4A 1449   4.966   9.979   5.874
   75POPC   C1B 1450   4.746  10.488   7.386
   75POPC   C2B 1451   4.652  10.627   6.939
   75POPC   C3B 1452   4.876  10.642   6.545
   75POPC   C4B 1453   5.014  10.429   6.151
   76POPC   NC3 1454   7.668   8.263   7.998
   76POPC   PO4 1455   7.083   8.407   7.870
   76POPC   GL1 1456   7.276   8.560   7.523
   76POPC   GL2 1457   7.516   8.338   7.522
   76POPC   C1A 1458   7.256   8.573   7.070
   76POPC   D2A 1459   7.202   8.253   6.755
   76POPC   C3A 1460   7.086   8.355   6.353
   76POPC   C4A 1461   7.072   8.626   6.007
   76POPC   C1B 1462   7.351   8.067   7.219
   76POPC   C2B 1463   7.523   7.871   6.840
   76POPC   C3B 1464   7.406   7.920   6.381
   76POPC   C4B 1465   7.509   7.799   5.929
   77POPC   NC3 1466   2.449  11.234   8.503
   77POPC   PO4 1467   3.062  11.387   8.315
   77POPC   GL1 1468   2.777  11.384   7.837
   77POPC   GL2 1469   2.534  11.120   7.819
   77POPC   C1A 1470   2.789   0.005   7.373
   77POPC   D2A 1471   2.907  11.306   6.961
   77POPC   C3A 1472   2.715  11.474   6.566
   77POPC   C4A 1473   2.463  11.445   6.179
   77POPC   C1B 1474   2.715  11.004   7.396
   77POPC   C2B 1475   2.682  10.864   6.975
   77POPC   C3B 1476   2.792  10.973   6.555
   77POPC   C4B 1477   2.634  10.940   6.139
   78POPC   NC3 1478   7.808   0.643   8.032
   78POPC   PO4 1479   8.488   0.498   8.115
   78POPC   GL1 1480   8.272   0.563   7.744
   78POPC   GL2 1481   8.114   0.286   7.773
   78POPC   C1A 1482   8.379   0.488   7.333
   78POPC   D2A 1483   8.196   0.578   6.958
   78POPC   C3A 1484   8.433   0.479   6.590
   78POPC   C4A 1485   8.216   0.583   6.226
   78POPC   C1B 1486   7.867   0.386   7.406
   78POPC   C2B 1487   7.856   0.195   7.017
   78POPC   C3B 1488   7.839   0.419   6.611
   78POPC   C4B 1489   7.719   0.154   6.292
   79POPC   NC3 1490   2.036   0.510   8.026
   79POPC   PO4 1491   2.454   0.063   8.192
   79POPC   GL1 1492   2.169   0.031   7.815
   79POPC   GL2 1493   1.906   0.241   7.612
   79POPC   C1A 1494   2.244  11.450   7.379
   79POPC   D2A 1495   2.426  11.482   6.980
   79POPC   C3A 1496   2.189   0.084   6.589
   79POPC   C4A 1497   2.157   0.346   6.214
   79POPC   C1B 1498   1.913   0.392   7.179
   79POPC   C2B 1499   1.776   0.311   6.761
   79POPC   C3B 1500   1.697   0.529   6.377
   79POPC   C4B 1501   1.694   0.417   5.939
   80POPC   NC3 1502  10.806   3.563   8.426
   80POPC   PO4 1503  10.210   3.361   8.319
   80POPC   GL1 1504  10.348   3.378   7.819
   80POPC   GL2 1505  10.308   3.685   7.673
   80POPC   C1A 1506  10.665   3.147   7.525
   80POPC   D2A 1507  10.778   3.227   7.091
   80POPC   C3A 1508  10.788   3.111   6.657
   80POPC   C4A 1509  10.722   3.386   6.331
   80POPC   C1B 1510  10.364   3.485   7.280
   80POPC   C2B 1511  10.412   3.514   6.820
   80POPC   C3B 1512  10.280   3.658   6.400
   80POPC   C4B 1513  10.490   3.745   6.006
   81POPC   NC3 1514  10.843   6.657   7.973
   81POPC   PO4 1515  10.734   7.316   8.077
   81POPC   GL1 1516  10.475   7.212   7.706
   81POPC   GL2 1517  10.142   7.327   7.787
   81POPC   C1A 1518  10.475   7.206   7.237
   81POPC   D2A 1519  10.707   7.301   6.849
   81POPC   C3A 1520  10.459   7.172   6.508
   81POPC   C4A 1521  10.520   7.282   6.124
   81POPC   C1B 1522  10.315   7.635   7.460
   81POPC   C2B 1523  10.365   7.649   6.999
   81POPC   C3B 1524  10.394   7.680   6.554
   81POPC   C4B 1525  10.128   7.608   6.184
   82POPC   NC3 1526   0.550   9.918   7.953
   82POPC   PO4 1527   0.795   9.237   8.115
   82POPC   GL1 1528   0.707   9.471   7.753
   82POPC   GL2 1529   0.328   9.486   7.758
   82POPC   C1A 1530   0.854   9.469   7.320
   82POPC   D2A 1531   0.657   9.715   6.950
   82POPC   C3A 1532   0.500   9.545   6.558
   82POPC   C4A 1533   0.806   9.488   6.231
   82POPC   C1B 1534   0.371   9.671   7.371
   82POPC   C2B 1535   0.238   9.991   7.097
   82POPC   C3B 1536   0.087   9.875   6.702
   82POPC   C4B 1537   0.185   9.863   6.263
   83POPC   NC3 1538   3.315   1.969   7.979
   83POPC   PO4 1539   3.910   1.643   8.248
   83POPC   GL1 1540   3.638   1.607   7.757
   83POPC   GL2 1541   3.518   1.956   7.522
   83POPC   C1A 1542   3.351   1.532   7.371
   83POPC   D2A 1543   3.490   1.602   6.980
   83POPC   C3A 1544   3.369   1.546   6.589
   83POPC   C4A 1545   3.502   1.823   6.272
   83POPC   C1B 1546   3.445   2.208   7.150
   83POPC   C2B 1547   3.270   2.456   6.822
   83POPC   C3B 1548   3.385   2.322   6.412
   83POPC   C4B 1549   3.796   2.302   6.243
   84POPC   NC3 1550   6.651  10.715   7.972
   84POPC   PO4 1551   7.062  10.255   8.220
   84POPC   GL1 1552   6.872  10.280   7.775
   84POPC   GL2 1553   6.481  10.295   7.717
   84POPC   C1A 1554   6.818  10.503   7.358
   84POPC   D2A 1555   6.527  10.566   6.995
   84POPC   C3A 1556   6.595  10.484   6.542
   84POPC   C4A 1557   6.676  10.828   6.324
   84POPC   C1B 1558   6.499  10.121   7.279
   84POPC   C2B 1559   6.628  10.066   6.833
   84POPC   C3B 1560   6.482   9.982   6.391
   84POPC   C4B 1561   6.498   9.966   5.911
   85POPC   NC3 1562   9.746   2.658   8.005
   85POPC   PO4 1563   9.140   2.438   7.908
   85POPC   GL1 1564   9.267   2.802   7.660
   85POPC   GL2 1565   9.528   2.619   7.529
   85POPC   C1A 1566   9.369   3.064   7.261
   85POPC   D2A 1567   9.441   2.886   6.841
   85POPC   C3A 1568   9.493   3.013   6.417
   85POPC   C4A 1569   9.504   2.794   6.048
   85POPC   C1B 1570   9.784   2.790   7.202
   85POPC   C2B 1571   9.979   2.636   6.848
   85POPC   C3B 1572   9.954   2.730   6.428
   85POPC   C4B 1573   9.968   2.996   6.110
   86POPC   NC3 1574   0.209   9.164   8.128
   86POPC   PO4 1575   0.075   8.539   8.176
   86POPC   GL1 1576   0.257   8.698   7.763
   86POPC   GL2 1577   0.621   8.841   7.789
   86POPC   C1A 1578   0.455   8.624   7.342
   86POPC   D2A 1579   0.650   8.704   6.928
   86POPC   C3A 1580   0.351   8.779   6.588
   86POPC   C4A 1581   0.280   8.632   6.164
   86POPC   C1B 1582   0.492   9.123   7.440
   86POPC   C2B 1583   0.567   9.203   6.986
   86POPC   C3B 1584   0.753   9.100   6.568
   86POPC   C4B 1585   0.435   9.135   6.211
   87POPC   NC3 1586   6.220   2.412   8.216
   87POPC   PO4 1587   6.820   2.386   8.062
   87POPC   GL1 1588   6.762   2.255   7.636
   87POPC   GL2 1589   6.622   2.562   7.552
   87POPC   C1A 1590   6.729   2.256   7.155
   87POPC   D2A 1591   6.669   2.463   6.748
   87POPC   C3A 1592   6.575   2.328   6.338
   87POPC   C4A 1593   6.785   2.608   6.026
   87POPC   C1B 1594   6.445   2.708   7.141
   87POPC   C2B 1595   6.478   2.940   6.731
   87POPC   C3B 1596   6.392   2.799   6.312
   87POPC   C4B 1597   6.138   2.935   5.963
   88POPC   NC3 1598   5.844  10.275   7.858
   88POPC   PO4 1599   5.356  10.540   8.279
   88POPC   GL1 1600   5.547  10.715   7.829
   88POPC   GL2 1601   5.850  10.870   7.645
   88POPC   C1A 1602   5.565  10.611   7.325
   88POPC   D2A 1603   5.600  10.395   6.893
   88POPC   C3A 1604   5.377  10.499   6.486
   88POPC   C4A 1605   5.476  10.553   6.005
   88POPC   C1B 1606   6.109  10.584   7.331
   88POPC   C2B 1607   6.101  10.299   6.994
   88POPC   C3B 1608   6.091  10.387   6.592
   88POPC   C4B 1609   5.796  10.304   6.298
   89POPC   NC3 1610   1.132   1.916   7.994
   89POPC   PO4 1611   1.575   2.327   8.334
   89POPC   GL1 1612   1.585   2.085   7.850
   89POPC   GL2 1613   1.275   2.194   7.584
   89POPC   C1A 1614   1.645   1.978   7.384
   89POPC   D2A 1615   1.359   2.170   7.064
   89POPC   C3A 1616   1.483   2.197   6.634
   89POPC   C4A 1617   1.161   2.303   6.349
   89POPC   C1B 1618   1.147   1.798   7.352
   89POPC   C2B 1619   0.993   1.750   6.931
   89POPC   C3B 1620   1.185   1.810   6.550
   89POPC   C4B 1621   1.274   1.590   6.204
   90POPC   NC3 1622   6.104   0.740   8.020
   90POPC   PO4 1623   6.860   0.664   7.985
   90POPC   GL1 1624   6.759   0.545   7.579
   90POPC   GL2 1625   6.893   0.244   7.468
   90POPC   C1A 1626   6.687   0.641   7.143
   90POPC   D2A 1627   6.618   0.428   6.776
   90POPC   C3A 1628   6.845   0.593   6.456
   90POPC   C4A 1629   6.714   0.771   6.049
   90POPC   C1B 1630   6.481   0.188   7.263
   90POPC   C2B 1631   6.366  11.476   6.889
   90POPC   C3B 1632   6.185   0.204   6.567
   90POPC   C4B 1633   6.392   0.458   6.282
   91POPC   NC3 1634   4.227   2.065   8.310
   91POPC   PO4 1635   3.770   2.046   7.934
   91POPC   GL1 1636   4.023   2.011   7.587
   91POPC   GL2 1637   4.136   1.691   7.558
   91POPC   C1A 1638   3.860   1.903   7.167
   91POPC   D2A 1639   3.729   1.995   6.724
   91POPC   C3A 1640   4.071   1.924   6.419
   91POPC   C4A 1641   4.273   2.161   6.061
   91POPC   C1B 1642   4.366   1.853   7.199
   91POPC   C2B 1643   4.435   1.773   6.764
   91POPC   C3B 1644   4.574   1.831   6.333
   91POPC   C4B 1645   4.548   1.757   5.883
   92POPC   NC3 1646   7.527  11.192   7.906
   92POPC   PO4 1647   6.801  11.189   7.978
   92POPC   GL1 1648   6.978  10.958   7.599
   92POPC   GL2 1649   7.267  11.175   7.480
   92POPC   C1A 1650   7.074  10.877   7.127
   92POPC   D2A 1651   7.236  11.118   6.795
   92POPC   C3A 1652   7.053  11.145   6.416
   92POPC   C4A 1653   7.068  10.864   6.010
   92POPC   C1B 1654   7.598  11.189   7.155
   92POPC   C2B 1655   7.785  11.198   6.756
   92POPC   C3B 1656   7.589  11.127   6.365
   92POPC   C4B 1657   7.334  11.332   6.041
   93POPC   NC3 1658   0.482  10.489   8.166
   93POPC   PO4 1659   0.098   9.934   7.950
   93POPC   GL1 1660   0.137  10.170   7.581
   93POPC   GL2 1661   0.476  10.307   7.621
   93POPC   C1A 1662   0.027  10.451   7.223
   93POPC   D2A 1663   0.207  10.612   6.817
   93POPC   C3A 1664   0.280  10.311   6.501
   93POPC   C4A 1665   0.661  10.031   6.509
   93POPC   C1B 1666   0.541  10.566   7.256
   93POPC   C2B 1667   0.799  10.721   6.936
   93POPC   C3B 1668   0.704  10.606   6.563
   93POPC   C4B 1669   0.510  10.640   6.179
   94POPC   NC3 1670   4.557   0.559   8.102
   94POPC   PO4 1671   4.040   0.156   7.901
   94POPC   GL1 1672   4.290   0.350   7.579
   94POPC   GL2 1673   4.621   0.302   7.674
   94POPC   C1A 1674   4.176   0.451   7.121
   94POPC   D2A 1675   3.863   0.317   6.749
   94POPC   C3A 1676   4.007   0.445   6.302
   94POPC   C4A 1677   4.373   0.705   6.170
   94POPC   C1B 1678   4.665   0.182   7.248
   94POPC   C2B 1679   4.631   0.237   6.802
   94POPC   C3B 1680   4.491   0.193   6.386
   94POPC   C4B 1681   4.408  11.338   6.103
   95POPC   NC3 1682   7.115   2.048   7.961
   95POPC   PO4 1683   7.773   2.091   8.124
   95POPC   GL1 1684   7.567   2.155   7.676
   95POPC   GL2 1685   7.408   1.833   7.548
   95POPC   C1A 1686   7.591   2.153   7.186
   95POPC   D2A 1687   7.430   1.969   6.783
   95POPC   C3A 1688   7.508   2.126   6.369
   95POPC   C4A 1689   7.440   1.996   5.946
   95POPC   C1B 1690   7.111   1.917   7.178
   95POPC   C2B 1691   6.920   1.999   6.721
   95POPC   C3B 1692   6.996   2.044   6.253
   95POPC   C4B 1693   6.747   2.119   5.890
   96POPC   NC3 1694  11.360   4.389   8.059
   96POPC   PO4 1695  11.152   3.847   8.348
   96POPC   GL1 1696  11.136   3.977   7.855
   96POPC   GL2 1697  10.987   4.256   7.696
   96POPC   C1A 1698  11.271   3.968   7.371
   96POPC   D2A 1699  11.085   4.091   6.926
   96POPC   C3A 1700  11.237   3.960   6.475
   96POPC   C4A 1701  10.964   4.209   6.149
   96POPC   C1B 1702  11.257   4.479   7.365
   96POPC   C2B 1703  11.168   4.592   6.940
   96POPC   C3B 1704  11.189   4.448   6.544
   96POPC   C4B 1705  11.415   4.449   6.172
   97POPC   NC3 1706   8.035   1.705   8.089
   97POPC   PO4 1707   8.555   2.192   8.046
   97POPC   GL1 1708   8.545   1.843   7.757
   97POPC   GL2 1709   8.262   1.621   7.664
   97POPC   C1A 1710   8.537   1.809   7.305
   97POPC   D2A 1711   8.280   1.927   6.957
   97POPC   C3A 1712   8.424   1.866   6.515
   97POPC   C4A 1713   8.260   1.634   6.173
   97POPC   C1B 1714   7.954   1.829   7.412
   97POPC   C2B 1715   7.801   1.687   7.018
   97POPC   C3B 1716   7.899   1.838   6.614
   97POPC   C4B 1717   8.038   2.096   6.271
   98POPC   NC3 1718  11.054   5.771   8.138
   98POPC   PO4 1719   0.104   5.974   7.934
   98POPC   GL1 1720  11.310   5.838   7.617
   98POPC   GL2 1721  11.093   5.568   7.669
   98POPC   C1A 1722  11.329   5.779   7.174
   98POPC   D2A 1723  11.275   5.586   6.777
   98POPC   C3A 1724  11.250   5.787   6.385
   98POPC   C4A 1725  11.032   6.002   6.055
   98POPC   C1B 1726  10.906   5.469   7.269
   98POPC   C2B 1727  10.789   5.505   6.863
   98POPC   C3B 1728  10.903   5.388   6.464
   98POPC   C4B 1729  10.808   5.570   6.093
   99POPC   NC3 1730   1.483   6.485   8.225
   99POPC   PO4 1731   0.913   6.274   7.974
   99POPC   GL1 1732   1.204   6.358   7.681
   99POPC   GL2 1733   1.258   6.701   7.761
   99POPC   C1A 1734   1.161   6.241   7.254
   99POPC   D2A 1735   1.308   6.095   6.843
   99POPC   C3A 1736   1.176   6.262   6.432
   99POPC   C4A 1737   1.474   6.387   6.115
   99POPC   C1B 1738   1.012   6.712   7.338
   99POPC   C2B 1739   1.160   6.622   6.896
   99POPC   C3B 1740   1.296   6.765   6.469
   99POPC   C4B 1741   1.070   6.695   6.095
  100POPC   NC3 1742   1.438   4.350   8.046
  100POPC   PO4 1743   0.779   4.542   8.065
  100POPC   GL1 1744   0.993   4.398   7.666
  100POPC   GL2 1745   1.309   4.136   7.601
  100POPC   C1A 1746   0.904   4.170   7.296
  100POPC   D2A 1747   1.102   4.021   6.925
  100POPC   C3A 1748   0.859   4.198   6.567
  100POPC   C4A 1749   0.989   4.137   6.145
  100POPC   C1B 1750   1.353   4.421   7.254
  100POPC   C2B 1751   1.204   4.501   6.833
  100POPC   C3B 1752   1.336   4.337   6.456
  100POPC   C4B 1753   1.390   4.533   6.080
  101POPC   NC3 1754   7.196   9.834   8.123
  101POPC   PO4 1755   7.321   9.283   7.949
  101POPC   GL1 1756   7.556   9.435   7.632
  101POPC   GL2 1757   7.487   9.759   7.691
  101POPC   C1A 1758   7.451   9.525   7.172
  101POPC   D2A 1759   7.532   9.431   6.751
  101POPC   C3A 1760   7.281   9.660   6.439
  101POPC   C4A 1761   7.129   9.457   6.082
  101POPC   C1B 1762   7.217   9.945   7.352
  101POPC   C2B 1763   7.149   9.953   6.868
  101POPC   C3B 1764   7.001  10.108   6.432
  101POPC   C4B 1765   7.019   9.951   5.978
  102POPC   NC3 1766   2.109   8.568   7.998
  102POPC   PO4 1767   1.469   8.508   8.153
  102POPC   GL1 1768   1.626   8.522   7.754
  102POPC   GL2 1769   1.706   8.877   7.786
  102POPC   C1A 1770   1.478   8.689   7.355
  102POPC   D2A 1771   1.651   8.905   6.953
  102POPC   C3A 1772   1.638   8.738   6.503
  102POPC   C4A 1773   1.758   8.463   6.133
  102POPC   C1B 1774   1.972   8.810   7.420
  102POPC   C2B 1775   2.167   8.864   7.049
  102POPC   C3B 1776   2.123   8.900   6.645
  102POPC   C4B 1777   2.114   8.857   6.227
  103POPC   NC3 1778   2.963   6.472   7.987
  103POPC   PO4 1779   2.446   6.009   8.170
  103POPC   GL1 1780   2.459   6.176   7.712
  103POPC   GL2 1781   2.487   6.513   7.700
  103POPC   C1A 1782   2.503   6.172   7.243
  103POPC   D2A 1783   2.472   6.082   6.784
  103POPC   C3A 1784   2.868   6.223   6.530
  103POPC   C4A 1785   2.932   6.376   6.099
  103POPC   C1B 1786   2.486   6.683   7.267
  103POPC   C2B 1787   2.618   6.549   6.856
  103POPC   C3B 1788   2.599   6.625   6.416
  103POPC   C4B 1789   2.820   6.893   6.129
  104POPC   NC3 1790   7.709   1.419   8.463
  104POPC   PO4 1791   7.165   1.570   7.981
  104POPC   GL1 1792   7.297   1.318   7.611
  104POPC   GL2 1793   7.462   0.999   7.742
  104POPC   C1A 1794   7.346   1.452   7.145
  104POPC   D2A 1795   7.466   1.466   6.673
  104POPC   C3A 1796   7.249   1.599   6.248
  104POPC   C4A 1797   7.437   1.499   5.797
  104POPC   C1B 1798   7.547   0.989   7.297
  104POPC   C2B 1799   7.264   0.983   6.940
  104POPC   C3B 1800   7.109   1.085   6.531
  104POPC   C4B 1801   7.482   1.150   6.260
  105POPC   NC3 1802   3.728  10.273   8.033
  105POPC   PO4 1803   3.261   9.839   8.157
  105POPC   GL1 1804   3.263  10.111   7.794
  105POPC   GL2 1805   3.250  10.495   7.823
  105POPC   C1A 1806   3.205  10.050   7.353
  105POPC   D2A 1807   3.345  10.258   6.971
  105POPC   C3A 1808   3.209  10.112   6.564
  105POPC   C4A 1809   3.502  10.152   6.262
  105POPC   C1B 1810   3.497  10.501   7.421
  105POPC   C2B 1811   3.767  10.527   7.041
  105POPC   C3B 1812   3.608  10.608   6.604
  105POPC   C4B 1813   3.835  10.562   6.208
  106POPC   NC3 1814   0.645   6.684   7.916
  106POPC   PO4 1815   0.329   6.338   8.378
  106POPC   GL1 1816   0.206   6.467   7.889
  106POPC   GL2 1817   0.445   6.263   7.677
  106POPC   C1A 1818   0.178   6.592   7.402
  106POPC   D2A 1819   0.071   6.455   6.954
  106POPC   C3A 1820   0.241   6.632   6.555
  106POPC   C4A 1821   0.256   6.627   6.100
  106POPC   C1B 1822   0.620   6.379   7.257
  106POPC   C2B 1823   0.624   6.714   6.935
  106POPC   C3B 1824   0.789   6.677   6.531
  106POPC   C4B 1825   0.686   6.362   6.245
  107POPC   NC3 1826   5.843  10.561   8.312
  107POPC   PO4 1827   5.607  11.228   8.115
  107POPC   GL1 1828   5.443  11.208   7.677
  107POPC   GL2 1829   5.725  11.367   7.609
  107POPC   C1A 1830   5.552  11.116   7.222
  107POPC   D2A 1831   5.892  10.913   7.006
  107POPC   C3A 1832   5.766  10.792   6.610
  107POPC   C4A 1833   5.670  10.971   6.219
  107POPC   C1B 1834   6.014  11.382   7.296
  107POPC   C2B 1835   5.858  11.421   6.906
  107POPC   C3B 1836   5.948  11.257   6.549
  107POPC   C4B 1837   5.924  11.448   6.187
  108POPC   NC3 1838   9.961   3.634   8.053
  108POPC   PO4 1839   9.930   3.050   7.870
  108POPC   GL1 1840   9.929   3.266   7.523
  108POPC   GL2 1841   9.818   3.568   7.549
  108POPC   C1A 1842   9.919   3.299   7.093
  108POPC   D2A 1843   9.874   3.134   6.729
  108POPC   C3A 1844   9.821   3.416   6.373
  108POPC   C4A 1845   9.627   3.364   5.970
  108POPC   C1B 1846   9.496   3.561   7.198
  108POPC   C2B 1847   9.434   3.399   6.760
  108POPC   C3B 1848   9.306   3.573   6.339
  108POPC   C4B 1849   9.478   3.845   6.000
  109POPC   NC3 1850   2.097   4.595   8.046
  109POPC   PO4 1851   2.065   4.003   8.165
  109POPC   GL1 1852   1.859   4.163   7.787
  109POPC   GL2 1853   2.184   4.131   7.654
  109POPC   C1A 1854   1.778   4.138   7.314
  109POPC   D2A 1855   1.617   4.188   6.863
  109POPC   C3A 1856   1.831   4.425   6.505
  109POPC   C4A 1857   1.898   4.744   6.156
  109POPC   C1B 1858   2.211   3.853   7.290
  109POPC   C2B 1859   2.098   3.992   6.875
  109POPC   C3B 1860   2.259   4.118   6.449
  109POPC   C4B 1861   1.998   4.174   6.081
  110POPC   NC3 1862  10.141   8.421   8.071
  110POPC   PO4 1863  10.358   9.092   8.180
  110POPC   GL1 1864  10.198   8.852   7.798
  110POPC   GL2 1865  10.487   8.660   7.748
  110POPC   C1A 1866  10.152   8.546   7.397
  110POPC   D2A 1867  10.411   8.542   7.002
  110POPC   C3A 1868  10.249   8.580   6.573
  110POPC   C4A 1869  10.283   8.761   6.163
  110POPC   C1B 1870  10.559   8.861   7.383
  110POPC   C2B 1871  10.738   8.971   7.009
  110POPC   C3B 1872  10.652   8.909   6.583
  110POPC   C4B 1873  10.705   9.070   6.187
  111POPC   NC3 1874   0.489   0.551   8.158
  111POPC   PO4 1875   0.313  11.417   8.109
  111POPC   GL1 1876   0.510   0.098   7.719
  111POPC   GL2 1877   0.500   0.476   7.614
  111POPC   C1A 1878   0.461   0.027   7.265
  111POPC   D2A 1879   0.368   0.254   6.866
  111POPC   C3A 1880   0.374   0.051   6.431
  111POPC   C4A 1881   0.455   0.152   5.955
  111POPC   C1B 1882   0.325   0.774   7.264
  111POPC   C2B 1883   0.375   0.800   6.806
  111POPC   C3B 1884   0.562   0.564   6.486
  111POPC   C4B 1885   0.818   0.514   6.149
  112POPC   NC3 1886  10.628   9.564   8.049
  112POPC   PO4 1887   9.932   9.765   8.227
  112POPC   GL1 1888  10.191   9.726   7.864
  112POPC   GL2 1889  10.313   9.358   7.723
  112POPC   C1A 1890  10.202   9.771   7.437
  112POPC   D2A 1891   9.997   9.654   7.077
  112POPC   C3A 1892  10.180   9.650   6.685
  112POPC   C4A 1893  10.015   9.687   6.230
  112POPC   C1B 1894  10.375   9.322   7.257
  112POPC   C2B 1895  10.242   9.148   6.852
  112POPC   C3B 1896  10.303   9.256   6.414
  112POPC   C4B 1897  10.417   9.484   6.003
  113POPC   NC3 1898   9.570   9.995   8.413
  113POPC   PO4 1899   9.261   9.588   8.000
  113POPC   GL1 1900   9.637   9.674   7.789
  113POPC   GL2 1901   9.821   9.441   7.647
  113POPC   C1A 1902   9.620   9.856   7.364
  113POPC   D2A 1903   9.498   9.719   6.946
  113POPC   C3A 1904   9.733   9.902   6.613
  113POPC   C4A 1905   9.543   9.918   6.213
  113POPC   C1B 1906   9.576   9.358   7.331
  113POPC   C2B 1907   9.735   9.253   6.960
  113POPC   C3B 1908   9.746   9.399   6.588
  113POPC   C4B 1909   9.578   9.384   6.218
  114POPC   NC3 1910  10.218  10.284   8.128
  114POPC   PO4 1911  10.863  10.126   8.280
  114POPC   GL1 1912  10.646  10.397   7.803
  114POPC   GL2 1913  10.363  10.221   7.651
  114POPC   C1A 1914  10.720  10.274   7.291
  114POPC   D2A 1915  10.534  10.418   6.931
  114POPC   C3A 1916  10.715  10.488   6.543
  114POPC   C4A 1917  10.779  10.168   6.306
  114POPC   C1B 1918  10.303  10.569   7.378
  114POPC   C2B 1919  10.081  10.656   6.987
  114POPC   C3B 1920  10.210  10.597   6.552
  114POPC   C4B 1921  10.394  10.442   6.128
  115POPC   NC3 1922  10.645   7.813   7.980
  115POPC   PO4 1923   9.976   7.966   8.027
  115POPC   GL1 1924  10.123   8.077   7.640
  115POPC   GL2 1925  10.459   8.154   7.631
  115POPC   C1A 1926  10.198   8.078   7.205
  115POPC   D2A 1927  10.006   8.257   6.897
  115POPC   C3A 1928  10.079   8.083   6.521
  115POPC   C4A 1929  10.089   8.282   6.151
  115POPC   C1B 1930  10.686   7.946   7.297
  115POPC   C2B 1931  10.613   8.074   6.865
  115POPC   C3B 1932  10.564   8.197   6.446
  115POPC   C4B 1933  10.518   7.916   6.103
  116POPC   NC3 1934  11.480   7.427   7.985
  116POPC   PO4 1935   0.640   7.146   7.876
  116POPC   GL1 1936   0.342   7.360   7.642
  116POPC   GL2 1937   0.138   7.037   7.673
  116POPC   C1A 1938   0.293   7.615   7.247
  116POPC   D2A 1939   0.052   7.568   6.844
  116POPC   C3A 1940   0.313   7.569   6.460
  116POPC   C4A 1941   0.651   7.433   6.174
  116POPC   C1B 1942   0.422   7.039   7.278
  116POPC   C2B 1943   0.491   7.270   6.888
  116POPC   C3B 1944   0.487   7.080   6.500
  116POPC   C4B 1945   0.657   6.948   6.094
  117POPC   NC3 1946   8.509   9.822   8.151
  117POPC   PO4 1947   7.853   9.649   8.316
  117POPC   GL1 1948   8.096   9.618   7.896
  117POPC   GL2 1949   7.985   9.903   7.765
  117POPC   C1A 1950   8.366   9.680   7.465
  117POPC   D2A 1951   8.464   9.724   6.969
  117POPC   C3A 1952   8.261   9.529   6.551
  117POPC   C4A 1953   8.138   9.720   6.179
  117POPC   C1B 1954   7.881   9.711   7.359
  117POPC   C2B 1955   7.951   9.717   6.916
  117POPC   C3B 1956   7.772   9.811   6.514
  117POPC   C4B 1957   7.699   9.436   6.238
  118POPC   NC3 1958   3.596   0.381   7.936
  118POPC   PO4 1959   3.803   1.031   7.977
  118POPC   GL1 1960   3.814   0.705   7.620
  118POPC   GL2 1961   3.795   0.350   7.473
  118POPC   C1A 1962   3.558   0.721   7.226
  118POPC   D2A 1963   3.357   0.556   6.857
  118POPC   C3A 1964   3.576   0.715   6.511
  118POPC   C4A 1965   3.624   0.760   6.046
  118POPC   C1B 1966   3.428   0.216   7.244
  118POPC   C2B 1967   3.389  11.446   6.912
  118POPC   C3B 1968   3.237   0.001   6.508
  118POPC   C4B 1969   3.359   0.358   6.246
  119POPC   NC3 1970  11.248   2.368   8.200
  119POPC   PO4 1971  10.689   2.660   8.185
  119POPC   GL1 1972  10.935   2.543   7.808
  119POPC   GL2 1973  11.300   2.680   7.805
  119POPC   C1A 1974  10.998   2.714   7.397
  119POPC   D2A 1975  10.809   2.737   7.016
  119POPC   C3A 1976  10.904   2.410   6.780
  119POPC   C4A 1977  10.921   2.390   6.326
  119POPC   C1B 1978   0.004   2.747   7.414
  119POPC   C2B 1979  11.334   2.724   7.003
  119POPC   C3B 1980  11.189   2.800   6.610
  119POPC   C4B 1981  11.431   2.734   6.285
  120POPC   NC3 1982   8.083  11.397   8.121
  120POPC   PO4 1983   7.727  10.885   8.204
  120POPC   GL1 1984   7.999  11.107   7.729
  120POPC   GL2 1985   7.836  11.389   7.561
  120POPC   C1A 1986   8.076  11.016   7.255
  120POPC   D2A 1987   8.286  11.120   6.855
  120POPC   C3A 1988   8.150  11.080   6.391
  120POPC   C4A 1989   8.000  10.816   6.057
  120POPC   C1B 1990   8.231  11.492   7.382
  120POPC   C2B 1991   8.387   0.105   6.987
  120POPC   C3B 1992   8.169   0.045   6.610
  120POPC   C4B 1993   8.241   0.066   6.197
  121POPC   NC3 1994   5.987   1.558   8.111
  121POPC   PO4 1995   5.327   1.574   8.085
  121POPC   GL1 1996   5.669   1.418   7.739
  121POPC   GL2 1997   5.906   1.108   7.701
  121POPC   C1A 1998   5.913   1.433   7.333
  121POPC   D2A 1999   5.790   1.337   6.922
  121POPC   C3A 2000   5.973   1.331   6.511
  121POPC   C4A 2001   5.745   1.307   6.086
  121POPC   C1B 2002   5.858   0.922   7.250
  121POPC   C2B 2003   5.599   0.876   6.869
  121POPC   C3B 2004   5.673   0.940   6.426
  121POPC   C4B 2005   6.093   0.965   6.161
  122POPC   NC3 2006  10.777   1.548   7.876
  122POPC   PO4 2007  11.366   1.926   8.115
  122POPC   GL1 2008  11.337   2.147   7.730
  122POPC   GL2 2009  11.209   1.826   7.577
  122POPC   C1A 2010  11.304   2.280   7.298
  122POPC   D2A 2011  11.466   2.135   6.918
  122POPC   C3A 2012  11.383   2.319   6.577
  122POPC   C4A 2013  11.383   2.241   6.160
  122POPC   C1B 2014  11.127   1.802   7.117
  122POPC   C2B 2015  11.033   1.938   6.690
  122POPC   C3B 2016  11.004   1.835   6.264
  122POPC   C4B 2017  10.895   1.663   5.848
  123POPC   NC3 2018   1.300   3.497   8.123
  123POPC   PO4 2019   1.074   4.066   8.050
  123POPC   GL1 2020   0.998   3.728   7.732
  123POPC   GL2 2021   1.318   3.550   7.610
  123POPC   C1A 2022   0.893   3.638   7.297
  123POPC   D2A 2023   1.098   3.504   6.919
  123POPC   C3A 2024   0.982   3.682   6.533
  123POPC   C4A 2025   1.146   3.650   6.128
  123POPC   C1B 2026   1.378   3.243   7.271
  123POPC   C2B 2027   1.498   3.190   6.812
  123POPC   C3B 2028   1.260   3.241   6.423
  123POPC   C4B 2029   1.340   3.185   5.937
  124POPC   NC3 2030   9.288  10.038   7.911
  124POPC   PO4 2031   9.787  10.388   8.288
  124POPC   GL1 2032   9.841  10.459   7.795
  124POPC   GL2 2033   9.865  10.123   7.742
  124POPC   C1A 2034   9.647  10.563   7.345
  124POPC   D2A 2035   9.581  10.242   6.978
  124POPC   C3A 2036   9.453  10.321   6.530
  124POPC   C4A 2037   9.364  10.704   6.352
  124POPC   C1B 2038   9.984  10.198   7.300
  124POPC   C2B 2039  10.125  10.123   6.896
  124POPC   C3B 2040  10.278  10.095   6.481
  124POPC   C4B 2041   9.945  10.222   6.235
  125POPC   NC3 2042  11.045   0.621   7.960
  125POPC   PO4 2043   0.144   0.855   8.096
  125POPC   GL1 2044   0.019   0.539   7.746
  125POPC   GL2 2045  11.310   0.227   7.747
  125POPC   C1A 2046   0.056   0.352   7.313
  125POPC   D2A 2047  11.418   0.550   6.929
  125POPC   C3A 2048   0.052   0.499   6.522
  125POPC   C4A 2049  11.494   0.259   6.190
  125POPC   C1B 2050  11.043   0.302   7.364
  125POPC   C2B 2051  10.926   0.221   6.938
  125POPC   C3B 2052  11.048   0.292   6.513
  125POPC   C4B 2053  11.057   0.519   6.180
  126POPC   NC3 2054   0.522   6.010   8.121
  126POPC   PO4 2055   0.007   5.500   8.223
  126POPC   GL1 2056   0.145   5.463   7.757
  126POPC   GL2 2057   0.479   5.631   7.763
  126POPC   C1A 2058   0.308   5.575   7.302
  126POPC   D2A 2059   0.319   5.895   7.000
  126POPC   C3A 2060   0.245   5.700   6.611
  126POPC   C4A 2061   0.383   5.599   6.229
  126POPC   C1B 2062   0.704   5.896   7.436
  126POPC   C2B 2063   0.835   5.944   7.006
  126POPC   C3B 2064   0.764   5.899   6.563
  126POPC   C4B 2065   0.819   5.876   6.129
  127POPC   NC3 2066  10.391   5.927   8.053
  127POPC   PO4 2067  10.940   6.224   8.194
  127POPC   GL1 2068  10.826   6.004   7.754
  127POPC   GL2 2069  10.580   5.758   7.626
  127POPC   C1A 2070  10.858   5.986   7.279
  127POPC   D2A 2071  10.977   5.971   6.850
  127POPC   C3A 2072  10.753   5.888   6.489
  127POPC   C4A 2073  10.570   6.189   6.209
  127POPC   C1B 2074  10.368   5.897   7.308
  127POPC   C2B 2075  10.454   5.884   6.909
  127POPC   C3B 2076  10.240   5.962   6.541
  127POPC   C4B 2077  10.334   5.709   6.246
  128POPC   NC3 2078   2.072   6.318   8.027
  128POPC   PO4 2079   1.725   6.848   8.082
  128POPC   GL1 2080   1.766   6.738   7.645
  128POPC   GL2 2081   1.709   6.418   7.676
  128POPC   C1A 2082   1.614   6.610   7.196
  128POPC   D2A 2083   1.643   6.493   6.732
  128POPC   C3A 2084   1.824   6.779   6.406
  128POPC   C4A 2085   2.248   6.959   6.303
  128POPC   C1B 2086   2.055   6.374   7.391
  128POPC   C2B 2087   2.130   6.429   6.987
  128POPC   C3B 2088   2.142   6.403   6.557
  128POPC   C4B 2089   1.984   6.355   6.144
  129POPC   NC3 2090  10.342   2.973   8.099
  129POPC   PO4 2091  10.039   2.337   8.171
  129POPC   GL1 2092  10.264   2.558   7.839
  129POPC   GL2 2093  10.054   2.640   7.593
  129POPC   C1A 2094  10.524   2.571   7.434
  129POPC   D2A 2095  10.424   2.404   7.000
  129POPC   C3A 2096  10.472   2.622   6.570
  129POPC   C4A 2097  10.313   2.510   6.141
  129POPC   C1B 2098  10.250   2.955   7.296
  129POPC   C2B 2099  10.346   3.005   6.901
  129POPC   C3B 2100  10.304   3.128   6.477
  129POPC   C4B 2101  10.499   2.984   6.129
  130POPC   NC3 2102   4.352  10.519   7.926
  130POPC   PO4 2103   3.720  10.721   8.054
  130POPC   GL1 2104   3.915  10.678   7.695
  130POPC   GL2 2105   3.982  10.372   7.593
  130POPC   C1A 2106   4.026  10.894   7.364
  130POPC   D2A 2107   4.229  10.959   6.995
  130POPC   C3A 2108   4.108  10.746   6.656
  130POPC   C4A 2109   4.364  10.648   6.296
  130POPC   C1B 2110   4.238  10.445   7.237
  130POPC   C2B 2111   4.231  10.288   6.830
  130POPC   C3B 2112   4.560  10.255   6.543
  130POPC   C4B 2113   4.575  10.189   6.123
  131POPC   NC3 2114   1.037   4.935   8.080
  131POPC   PO4 2115   1.671   4.752   8.008
  131POPC   GL1 2116   1.304   4.801   7.635
  131POPC   GL2 2117   1.023   5.062   7.606
  131POPC   C1A 2118   1.010   4.782   7.212
  131POPC   D2A 2119   0.940   4.945   6.787
  131POPC   C3A 2120   0.971   4.705   6.416
  131POPC   C4A 2121   1.107   4.959   6.132
  131POPC   C1B 2122   1.297   5.197   7.260
  131POPC   C2B 2123   1.453   4.930   6.932
  131POPC   C3B 2124   1.478   4.863   6.491
  131POPC   C4B 2125   1.468   5.264   6.294
  132POPC   NC3 2126   5.315   2.025   8.038
  132POPC   PO4 2127   5.949   2.043   8.154
  132POPC   GL1 2128   5.927   1.881   7.698
  132POPC   GL2 2129   5.583   1.905   7.619
  132POPC   C1A 2130   5.885   1.915   7.200
  132POPC   D2A 2131   5.926   1.800   6.742
  132POPC   C3A 2132   6.096   2.125   6.455
  132POPC   C4A 2133   5.991   2.496   6.217
  132POPC   C1B 2134   5.408   1.606   7.324
  132POPC   C2B 2135   5.291   1.425   6.909
  132POPC   C3B 2136   5.482   1.496   6.486
  132POPC   C4B 2137   5.802   1.780   6.222
  133POPC   NC3 2138   0.009  11.250   7.798
  133POPC   PO4 2139   0.191  10.864   8.295
  133POPC   GL1 2140   0.247  10.799   7.756
  133POPC   GL2 2141   0.456  11.077   7.617
  133POPC   C1A 2142   0.161  10.939   7.245
  133POPC   D2A 2143  11.448  11.046   6.821
  133POPC   C3A 2144   0.169  10.953   6.390
  133POPC   C4A 2145   0.151  10.818   5.891
  133POPC   C1B 2146   0.755  11.081   7.303
  133POPC   C2B 2147   0.755  11.261   6.912
  133POPC   C3B 2148   0.648  11.121   6.515
  133POPC   C4B 2149   0.527  11.148   6.069
  134POPC   NC3 2150   2.294   3.608   8.113
  134POPC   PO4 2151   1.686   3.274   8.033
  134POPC   GL1 2152   1.887   3.313   7.623
  134POPC   GL2 2153   1.944   3.658   7.676
  134POPC   C1A 2154   1.842   3.095   7.190
  134POPC   D2A 2155   1.979   3.002   6.764
  134POPC   C3A 2156   1.901   3.360   6.495
  134POPC   C4A 2157   1.639   3.512   6.164
  134POPC   C1B 2158   1.722   3.628   7.259
  134POPC   C2B 2159   1.627   3.682   6.821
  134POPC   C3B 2160   1.816   3.873   6.460
  134POPC   C4B 2161   2.148   3.696   6.157
  135POPC   NC3 2162   1.628   2.873   8.237
  135POPC   PO4 2163   2.205   2.460   8.050
  135POPC   GL1 2164   1.862   2.500   7.795
  135POPC   GL2 2165   1.729   2.835   7.719
  135POPC   C1A 2166   1.690   2.470   7.375
  135POPC   D2A 2167   1.842   2.322   6.982
  135POPC   C3A 2168   1.836   2.546   6.585
  135POPC   C4A 2169   1.614   2.467   6.187
  135POPC   C1B 2170   2.110   2.746   7.417
  135POPC   C2B 2171   2.311   2.492   7.060
  135POPC   C3B 2172   2.345   2.511   6.608
  135POPC   C4B 2173   2.170   2.816   6.304
  136POPC   NC3 2174   2.756   8.876   8.032
  136POPC   PO4 2175   2.482   8.416   7.793
  136POPC   GL1 2176   2.433   8.882   7.612
  136POPC   GL2 2177   2.730   9.119   7.578
  136POPC   C1A 2178   2.346   9.248   7.289
  136POPC   D2A 2179   2.455   9.280   6.828
  136POPC   C3A 2180   2.561   9.071   6.412
  136POPC   C4A 2181   2.586   8.861   5.970
  136POPC   C1B 2182   2.667   8.863   7.163
  136POPC   C2B 2183   2.564   8.649   6.742
  136POPC   C3B 2184   2.843   8.651   6.367
  136POPC   C4B 2185   3.060   9.046   6.211
  137POPC   NC3 2186   1.996   2.064   8.191
  137POPC   PO4 2187   1.501   1.596   8.006
  137POPC   GL1 2188   1.841   1.668   7.728
  137POPC   GL2 2189   2.088   1.940   7.722
  137POPC   C1A 2190   1.890   1.555   7.305
  137POPC   D2A 2191   1.635   1.749   6.939
  137POPC   C3A 2192   1.684   1.656   6.519
  137POPC   C4A 2193   1.728   1.953   6.177
  137POPC   C1B 2194   2.119   2.147   7.378
  137POPC   C2B 2195   2.135   1.905   6.985
  137POPC   C3B 2196   2.013   2.055   6.583
  137POPC   C4B 2197   2.108   2.295   6.199
  138POPC   NC3 2198   1.774  11.109   8.372
  138POPC   PO4 2199   1.695   0.184   8.067
  138POPC   GL1 2200   1.667  11.298   7.810
  138POPC   GL2 2201   1.954  11.060   7.848
  138POPC   C1A 2202   1.715  11.186   7.366
  138POPC   D2A 2203   1.932  11.323   6.984
  138POPC   C3A 2204   1.775  11.236   6.580
  138POPC   C4A 2205   1.757   0.008   6.240
  138POPC   C1B 2206   2.179  10.938   7.470
  138POPC   C2B 2207   2.184  10.864   7.026
  138POPC   C3B 2208   2.296  11.087   6.654
  138POPC   C4B 2209   2.143  11.074   6.240
  139POPC   NC3 2210   4.502  11.480   8.070
  139POPC   PO4 2211   4.718  10.777   8.068
  139POPC   GL1 2212   4.456  10.990   7.743
  139POPC   GL2 2213   4.128  11.154   7.793
  139POPC   C1A 2214   4.606  10.980   7.329
  139POPC   D2A 2215   4.679  11.231   6.972
  139POPC   C3A 2216   4.545  11.051   6.592
  139POPC   C4A 2217   4.758  11.001   6.231
  139POPC   C1B 2218   4.289  11.356   7.397
  139POPC   C2B 2219   4.209  11.468   6.979
  139POPC   C3B 2220   4.145  11.363   6.567
  139POPC   C4B 2221   4.041  11.043   6.257
  140POPC   NC3 2222   9.477   1.180   8.072
  140POPC   PO4 2223  10.071   1.277   8.111
  140POPC   GL1 2224   9.787   1.358   7.704
  140POPC   GL2 2225   9.539   1.071   7.592
  140POPC   C1A 2226   9.677   1.465   7.254
  140POPC   D2A 2227   9.366   1.459   6.888
  140POPC   C3A 2228   9.522   1.438   6.460
  140POPC   C4A 2229   9.878   1.433   6.204
  140POPC   C1B 2230   9.630   0.964   7.178
  140POPC   C2B 2231   9.737   1.116   6.783
  140POPC   C3B 2232   9.771   0.964   6.362
  140POPC   C4B 2233   9.406   0.861   6.112
  141POPC   NC3 2234   2.866  10.050   8.286
  141POPC   PO4 2235   2.721  10.674   8.061
  141POPC   GL1 2236   2.735  10.583   7.671
  141POPC   GL2 2237   2.789  10.241   7.630
  141POPC   C1A 2238   2.467  10.536   7.316
  141POPC   D2A 2239   2.479  10.372   6.921
  141POPC   C3A 2240   2.444  10.602   6.572
  141POPC   C4A 2241   2.495  10.413   6.204
  141POPC   C1B 2242   2.965  10.491   7.229
  141POPC   C2B 2243   2.952  10.511   6.755
  141POPC   C3B 2244   2.982  10.542   6.324
  141POPC   C4B 2245   2.934  10.180   6.107
  142POPC   NC3 2246   6.928   0.176   7.971
  142POPC   PO4 2247   7.684   0.140   8.003
  142POPC   GL1 2248   7.395   0.168   7.655
  142POPC   GL2 2249   7.288   0.499   7.733
  142POPC   C1A 2250   7.316   0.117   7.193
  142POPC   D2A 2251   7.439   0.082   6.737
  142POPC   C3A 2252   7.208   0.200   6.368
  142POPC   C4A 2253   7.401   0.315   5.917
  142POPC   C1B 2254   7.189   0.624   7.316
  142POPC   C2B 2255   7.138   0.492   6.884
  142POPC   C3B 2256   7.380   0.644   6.538
  142POPC   C4B 2257   7.216   0.724   6.152
  143POPC   NC3 2258   2.957   9.634   7.860
  143POPC   PO4 2259   2.431   9.977   8.108
  143POPC   GL1 2260   2.337   9.924   7.679
  143POPC   GL2 2261   2.488   9.602   7.613
  143POPC   C1A 2262   2.520  10.001   7.271
  143POPC   D2A 2263   2.861  10.042   6.965
  143POPC   C3A 2264   2.672  10.053   6.538
  143POPC   C4A 2265   2.414   9.895   6.162
  143POPC   C1B 2266   2.773   9.553   7.215
  143POPC   C2B 2267   2.862   9.584   6.755
  143POPC   C3B 2268   2.768   9.566   6.327
  143POPC   C4B 2269   2.711   9.335   5.967
  144POPC   NC3 2270   1.653   7.302   8.006
  144POPC   PO4 2271   1.908   7.832   8.368
  144POPC   GL1 2272   1.823   7.872   7.886
  144POPC   GL2 2273   2.011   8.138   7.738
  144POPC   C1A 2274   1.752   7.821   7.390
  144POPC   D2A 2275   1.899   7.954   6.931
  144POPC   C3A 2276   1.743   7.748   6.506
  144POPC   C4A 2277   1.777   7.843   6.042
  144POPC   C1B 2278   1.885   8.322   7.321
  144POPC   C2B 2279   1.957   8.458   6.860
  144POPC   C3B 2280   2.163   8.395   6.454
  144POPC   C4B 2281   2.221   8.113   6.088
  145POPC   NC3 2282   2.595   2.749   8.014
  145POPC   PO4 2283   3.091   2.289   8.257
  145POPC   GL1 2284   2.714   2.291   7.792
  145POPC   GL2 2285   2.467   2.456   7.605
  145POPC   C1A 2286   2.812   2.351   7.262
  145POPC   D2A 2287   2.785   2.570   6.868
  145POPC   C3A 2288   2.873   2.387   6.480
  145POPC   C4A 2289   3.027   2.460   6.079
  145POPC   C1B 2290   2.603   2.819   7.306
  145POPC   C2B 2291   2.478   2.956   6.859
  145POPC   C3B 2292   2.682   2.871   6.407
  145POPC   C4B 2293   2.520   3.009   5.946
  146POPC   NC3 2294  11.216   1.533   8.332
  146POPC   PO4 2295  10.851   1.077   7.998
  146POPC   GL1 2296  11.127   1.232   7.647
  146POPC   GL2 2297  11.447   1.061   7.679
  146POPC   C1A 2298  11.101   1.294   7.182
  146POPC   D2A 2299  11.151   1.454   6.725
  146POPC   C3A 2300  10.987   1.293   6.371
  146POPC   C4A 2301  10.671   0.984   6.407
  146POPC   C1B 2302  11.275   0.815   7.345
  146POPC   C2B 2303  10.985   0.807   6.983
  146POPC   C3B 2304  11.148   0.843   6.565
  146POPC   C4B 2305  11.418   0.875   6.194
  147POPC   NC3 2306   1.910   1.291   8.062
  147POPC   PO4 2307   2.329   1.733   8.146
  147POPC   GL1 2308   2.290   1.457   7.732
  147POPC   GL2 2309   2.146   1.114   7.651
  147POPC   C1A 2310   2.378   1.436   7.272
  147POPC   D2A 2311   2.405   1.238   6.848
  147POPC   C3A 2312   2.239   1.585   6.567
  147POPC   C4A 2313   2.023   1.547   6.150
  147POPC   C1B 2314   2.056   1.056   7.214
  147POPC   C2B 2315   1.897   1.302   6.866
  147POPC   C3B 2316   1.894   1.178   6.462
  147POPC   C4B 2317   1.619   1.220   6.115
  148POPC   NC3 2318  11.473  11.257   8.399
  148POPC   PO4 2319  11.255  10.871   7.880
  148POPC   GL1 2320  11.190  11.054   7.481
  148POPC   GL2 2321  10.990  11.317   7.679
  148POPC   C1A 2322  11.337  11.398   7.194
  148POPC   D2A 2323  11.406   0.055   6.774
  148POPC   C3A 2324  11.329  11.323   6.383
  148POPC   C4A 2325   0.065  11.303   5.975
  148POPC   C1B 2326  10.814  11.329   7.305
  148POPC   C2B 2327  10.951  11.190   6.950
  148POPC   C3B 2328  10.866  11.318   6.586
  148POPC   C4B 2329  10.835  11.162   6.202
  149POPC   NC3 2330   5.178   8.836   8.074
  149POPC   PO4 2331   4.642   8.422   8.098
  149POPC   GL1 2332   4.827   8.654   7.714
  149POPC   GL2 2333   4.832   9.036   7.733
  149POPC   C1A 2334   5.048   8.813   7.324
  149POPC   D2A 2335   4.909   8.959   6.917
  149POPC   C3A 2336   4.986   8.798   6.520
  149POPC   C4A 2337   4.675   8.490   6.390
  149POPC   C1B 2338   4.857   9.294   7.335
  149POPC   C2B 2339   4.725   9.426   6.917
  149POPC   C3B 2340   4.859   9.419   6.484
  149POPC   C4B 2341   5.110   9.527   6.100
  150POPC   NC3 2342   4.377   9.514   8.085
  150POPC   PO4 2343   4.478  10.109   8.072
  150POPC   GL1 2344   4.169   9.913   7.746
  150POPC   GL2 2345   4.085   9.541   7.671
  150POPC   C1A 2346   4.219   9.907   7.271
  150POPC   D2A 2347   4.536   9.892   6.917
  150POPC   C3A 2348   4.327   9.820   6.502
  150POPC   C4A 2349   4.078  10.088   6.232
  150POPC   C1B 2350   4.332   9.389   7.308
  150POPC   C2B 2351   4.199   9.494   6.887
  150POPC   C3B 2352   4.150   9.342   6.462
  150POPC   C4B 2353   4.126   9.547   6.059
  151POPC   NC3 2354   8.985   2.010   8.026
  151POPC   PO4 2355   9.205   1.440   7.802
  151POPC   GL1 2356   9.008   1.715   7.574
  151POPC   GL2 2357   8.982   2.085   7.539
  151POPC   C1A 2358   9.024   1.700   7.170
  151POPC   D2A 2359   8.776   1.751   6.857
  151POPC   C3A 2360   9.028   1.707   6.536
  151POPC   C4A 2361   8.825   1.784   6.172
  151POPC   C1B 2362   8.861   2.184   7.135
  151POPC   C2B 2363   9.131   2.139   6.785
  151POPC   C3B 2364   9.094   2.198   6.337
  151POPC   C4B 2365   8.699   2.322   6.133
  152POPC   NC3 2366  10.561  11.315   7.992
  152POPC   PO4 2367  10.274  10.745   8.031
  152POPC   GL1 2368  10.460  10.968   7.637
  152POPC   GL2 2369  10.359  11.319   7.546
  152POPC   C1A 2370  10.437  11.013   7.173
  152POPC   D2A 2371  10.562  10.905   6.821
  152POPC   C3A 2372  10.404  11.106   6.547
  152POPC   C4A 2373  10.372  10.933   6.193
  152POPC   C1B 2374  10.003   0.006   7.374
  152POPC   C2B 2375   9.963   0.168   6.976
  152POPC   C3B 2376  10.031   0.035   6.560
  152POPC   C4B 2377  10.219  11.410   6.191
  153POPC   NC3 2378   2.017   9.532   8.184
  153POPC   PO4 2379   2.319   8.983   8.088
  153POPC   GL1 2380   2.070   9.251   7.734
  153POPC   GL2 2381   1.876   9.597   7.708
  153POPC   C1A 2382   1.834   9.276   7.314
  153POPC   D2A 2383   1.943   9.347   6.882
  153POPC   C3A 2384   1.867   9.267   6.425
  153POPC   C4A 2385   2.234   9.365   6.158
  153POPC   C1B 2386   1.841   9.785   7.315
  153POPC   C2B 2387   2.112   9.863   6.970
  153POPC   C3B 2388   2.203   9.683   6.580
  153POPC   C4B 2389   1.922   9.754   6.243
  154POPC   NC3 2390   6.064  11.278   7.957
  154POPC   PO4 2391   6.184  10.655   7.960
  154POPC   GL1 2392   6.366  10.943   7.615
  154POPC   GL2 2393   6.491  11.299   7.597
  154POPC   C1A 2394   6.403  11.034   7.178
  154POPC   D2A 2395   6.658  11.044   6.810
  154POPC   C3A 2396   6.289  10.888   6.642
  154POPC   C4A 2397   6.146  10.833   6.243
  154POPC   C1B 2398   6.827  11.309   7.241
  154POPC   C2B 2399   6.918   0.018   6.843
  154POPC   C3B 2400   6.706   0.049   6.443
  154POPC   C4B 2401   6.399  11.274   6.282
  155POPC   NC3 2402   8.282   8.848   8.172
  155POPC   PO4 2403   8.934   8.795   8.191
  155POPC   GL1 2404   8.778   8.943   7.793
  155POPC   GL2 2405   8.542   8.706   7.693
  155POPC   C1A 2406   8.772   9.082   7.360
  155POPC   D2A 2407   8.608   8.848   7.000
  155POPC   C3A 2408   8.478   9.092   6.674
  155POPC   C4A 2409   8.696   9.255   6.329
  155POPC   C1B 2410   8.944   8.607   7.430
  155POPC   C2B 2411   9.056   8.620   6.966
  155POPC   C3B 2412   8.943   8.879   6.601
  155POPC   C4B 2413   8.806   8.775   6.177
  156POPC   NC3 2414   4.110   1.364   7.940
  156POPC   PO4 2415   4.638   0.999   7.985
  156POPC   GL1 2416   4.469   1.164   7.628
  156POPC   GL2 2417   4.406   0.846   7.487
  156POPC   C1A 2418   4.367   1.325   7.232
  156POPC   D2A 2419   4.353   1.074   6.872
  156POPC   C3A 2420   4.393   1.314   6.545
  156POPC   C4A 2421   4.448   1.350   6.159
  156POPC   C1B 2422   4.040   0.931   7.252
  156POPC   C2B 2423   3.842   1.010   6.865
  156POPC   C3B 2424   4.038   0.943   6.474
  156POPC   C4B 2425   4.034   1.072   6.051
  157POPC   NC3 2426   0.893   8.122   3.979
  157POPC   PO4 2427   1.450   7.759   3.935
  157POPC   GL1 2428   1.362   7.995   4.295
  157POPC   GL2 2429   1.232   8.330   4.308
  157POPC   C1A 2430   1.255   7.827   4.691
  157POPC   D2A 2431   1.192   7.549   5.031
  157POPC   C3A 2432   1.268   7.835   5.370
  157POPC   C4A 2433   1.342   7.749   5.782
  157POPC   C1B 2434   0.941   8.233   4.654
  157POPC   C2B 2435   0.888   7.991   5.025
  157POPC   C3B 2436   0.841   8.112   5.445
  157POPC   C4B 2437   1.087   8.186   5.788
  158POPC   NC3 2438   3.607   1.788   4.067
  158POPC   PO4 2439   4.119   2.285   3.880
  158POPC   GL1 2440   3.819   2.197   4.343
  158POPC   GL2 2441   3.475   2.023   4.501
  158POPC   C1A 2442   3.824   2.232   4.781
  158POPC   D2A 2443   3.525   2.027   5.060
  158POPC   C3A 2444   3.565   2.155   5.484
  158POPC   C4A 2445   3.454   2.211   5.899
  158POPC   C1B 2446   3.468   1.619   4.714
  158POPC   C2B 2447   3.569   1.413   5.100
  158POPC   C3B 2448   3.701   1.646   5.448
  158POPC   C4B 2449   3.358   1.749   5.737
  159POPC   NC3 2450   0.713   5.666   3.939
  159POPC   PO4 2451   0.900   6.276   3.924
  159POPC   GL1 2452   0.590   6.139   4.229
  159POPC   GL2 2453   0.369   5.863   4.235
  159POPC   C1A 2454   0.633   5.975   4.664
  159POPC   D2A 2455   0.785   5.853   5.094
  159POPC   C3A 2456   0.515   5.780   5.443
  159POPC   C4A 2457   0.622   5.545   5.792
  159POPC   C1B 2458   0.339   5.573   4.632
  159POPC   C2B 2459   0.175   5.717   5.049
  159POPC   C3B 2460   0.031   5.565   5.475
  159POPC   C4B 2461  11.473   5.734   5.911
  160POPC   NC3 2462   2.042   4.573   4.137
  160POPC   PO4 2463   1.720   4.111   3.842
  160POPC   GL1 2464   1.581   4.075   4.268
  160POPC   GL2 2465   1.899   4.131   4.478
  160POPC   C1A 2466   1.457   4.283   4.660
  160POPC   D2A 2467   1.752   4.440   4.928
  160POPC   C3A 2468   1.654   4.337   5.338
  160POPC   C4A 2469   1.750   4.453   5.743
  160POPC   C1B 2470   2.214   3.854   4.744
  160POPC   C2B 2471   2.253   3.803   5.215
  160POPC   C3B 2472   2.146   4.086   5.592
  160POPC   C4B 2473   2.275   4.500   5.816
  161POPC   NC3 2474   0.474   1.474   4.160
  161POPC   PO4 2475   0.438   0.975   3.724
  161POPC   GL1 2476   0.381   0.960   4.233
  161POPC   GL2 2477   0.556   1.119   4.523
  161POPC   C1A 2478   0.120   0.904   4.665
  161POPC   D2A 2479   0.263   1.159   5.021
  161POPC   C3A 2480   0.409   1.051   5.424
  161POPC   C4A 2481   0.234   1.095   5.858
  161POPC   C1B 2482   0.590   1.498   4.822
  161POPC   C2B 2483   0.557   1.537   5.277
  161POPC   C3B 2484   0.581   1.432   5.692
  161POPC   C4B 2485   0.728   0.978   5.847
  162POPC   NC3 2486   2.247   1.517   4.062
  162POPC   PO4 2487   2.567   0.921   3.885
  162POPC   GL1 2488   2.429   1.037   4.307
  162POPC   GL2 2489   2.076   1.073   4.334
  162POPC   C1A 2490   2.382   0.885   4.745
  162POPC   D2A 2491   2.117   0.876   5.127
  162POPC   C3A 2492   2.218   1.017   5.531
  162POPC   C4A 2493   2.079   1.025   5.986
  162POPC   C1B 2494   1.961   1.228   4.755
  162POPC   C2B 2495   1.849   1.295   5.212
  162POPC   C3B 2496   1.851   1.362   5.653
  162POPC   C4B 2497   1.565   1.637   5.803
  163POPC   NC3 2498   1.329   3.279   3.991
  163POPC   PO4 2499   0.846   3.644   3.706
  163POPC   GL1 2500   0.869   3.491   4.279
  163POPC   GL2 2501   1.170   3.401   4.434
  163POPC   C1A 2502   0.879   3.441   4.809
  163POPC   D2A 2503   0.994   3.573   5.246
  163POPC   C3A 2504   0.932   3.404   5.680
  163POPC   C4A 2505   0.858   3.218   6.112
  163POPC   C1B 2506   1.451   3.269   4.716
  163POPC   C2B 2507   1.496   3.456   5.081
  163POPC   C3B 2508   1.517   3.359   5.477
  163POPC   C4B 2509   1.364   3.692   5.688
  164POPC   NC3 2510   9.635   7.546   3.774
  164POPC   PO4 2511   9.823   7.013   3.978
  164POPC   GL1 2512   9.840   7.241   4.358
  164POPC   GL2 2513   9.979   7.558   4.347
  164POPC   C1A 2514   9.669   7.265   4.786
  164POPC   D2A 2515   9.368   7.494   5.085
  164POPC   C3A 2516   9.400   7.334   5.526
  164POPC   C4A 2517   9.481   7.350   5.961
  164POPC   C1B 2518  10.182   7.402   4.748
  164POPC   C2B 2519  10.130   7.078   5.073
  164POPC   C3B 2520   9.869   7.104   5.431
  164POPC   C4B 2521   9.924   7.462   5.705
  165POPC   NC3 2522  11.217   3.040   3.976
  165POPC   PO4 2523  10.868   2.409   3.960
  165POPC   GL1 2524  11.070   2.460   4.338
  165POPC   GL2 2525  11.361   2.689   4.348
  165POPC   C1A 2526  11.157   2.434   4.770
  165POPC   D2A 2527  10.900   2.575   5.094
  165POPC   C3A 2528  11.106   2.462   5.439
  165POPC   C4A 2529  11.248   2.627   5.826
  165POPC   C1B 2530   0.011   2.840   4.767
  165POPC   C2B 2531  11.296   2.922   5.153
  165POPC   C3B 2532  11.289   3.074   5.549
  165POPC   C4B 2533   0.015   3.060   5.922
  166POPC   NC3 2534  11.148   8.775   3.682
  166POPC   PO4 2535  10.916   9.094   4.273
  166POPC   GL1 2536  11.012   8.719   4.468
  166POPC   GL2 2537  11.216   8.657   4.217
  166POPC   C1A 2538  11.158   8.691   4.882
  166POPC   D2A 2539  11.256   9.030   5.135
  166POPC   C3A 2540  10.930   9.017   5.410
  166POPC   C4A 2541  10.892   8.804   5.800
  166POPC   C1B 2542  11.393   8.379   4.558
  166POPC   C2B 2543  11.494   8.335   5.041
  166POPC   C3B 2544  11.489   8.647   5.408
  166POPC   C4B 2545  11.379   8.712   5.860
  167POPC   NC3 2546   8.841   5.408   3.911
  167POPC   PO4 2547   8.551   5.966   3.938
  167POPC   GL1 2548   8.707   5.712   4.308
  167POPC   GL2 2549   9.063   5.637   4.311
  167POPC   C1A 2550   8.775   5.577   4.755
  167POPC   D2A 2551   8.698   5.387   5.191
  167POPC   C3A 2552   8.714   5.554   5.618
  167POPC   C4A 2553   8.459   5.741   5.964
  167POPC   C1B 2554   9.256   5.785   4.704
  167POPC   C2B 2555   9.104   5.730   5.144
  167POPC   C3B 2556   9.163   5.793   5.596
  167POPC   C4B 2557   8.968   5.805   6.017
  168POPC   NC3 2558   8.338   3.531   4.020
  168POPC   PO4 2559   7.956   3.895   4.172
  168POPC   GL1 2560   8.158   3.587   4.511
  168POPC   GL2 2561   8.448   3.340   4.485
  168POPC   C1A 2562   8.298   3.455   4.953
  168POPC   D2A 2563   8.569   3.548   5.310
  168POPC   C3A 2564   8.365   3.641   5.721
  168POPC   C4A 2565   7.953   3.659   5.955
  168POPC   C1B 2566   8.522   3.005   4.812
  168POPC   C2B 2567   8.511   3.015   5.286
  168POPC   C3B 2568   8.242   3.106   5.675
  168POPC   C4B 2569   8.139   2.852   6.061
  169POPC   NC3 2570   9.007   9.082   4.117
  169POPC   PO4 2571   8.459   9.182   3.702
  169POPC   GL1 2572   8.553   8.862   4.191
  169POPC   GL2 2573   8.818   8.637   4.285
  169POPC   C1A 2574   8.607   8.852   4.701
  169POPC   D2A 2575   8.732   8.632   5.121
  169POPC   C3A 2576   8.627   8.749   5.560
  169POPC   C4A 2577   8.686   9.097   5.796
  169POPC   C1B 2578   9.086   8.676   4.679
  169POPC   C2B 2579   9.243   8.631   5.114
  169POPC   C3B 2580   9.128   8.824   5.506
  169POPC   C4B 2581   9.238   8.685   5.914
  170POPC   NC3 2582  10.495   1.309   3.857
  170POPC   PO4 2583   9.975   0.737   3.894
  170POPC   GL1 2584  10.082   1.166   4.132
  170POPC   GL2 2585  10.388   1.124   4.327
  170POPC   C1A 2586  10.038   1.477   4.487
  170POPC   D2A 2587  10.220   1.405   4.874
  170POPC   C3A 2588  10.157   1.484   5.304
  170POPC   C4A 2589  10.002   1.410   5.715
  170POPC   C1B 2590  10.627   1.169   4.708
  170POPC   C2B 2591  10.532   1.128   5.168
  170POPC   C3B 2592  10.471   1.217   5.610
  170POPC   C4B 2593  10.721   1.198   5.942
  171POPC   NC3 2594   8.221   8.785   3.832
  171POPC   PO4 2595   8.536   9.357   4.185
  171POPC   GL1 2596   8.208   9.167   4.405
  171POPC   GL2 2597   8.039   8.913   4.272
  171POPC   C1A 2598   8.171   9.097   4.813
  171POPC   D2A 2599   8.304   8.915   5.196
  171POPC   C3A 2600   8.215   9.099   5.587
  171POPC   C4A 2601   8.291   9.291   6.016
  171POPC   C1B 2602   8.181   8.622   4.585
  171POPC   C2B 2603   8.255   8.457   4.986
  171POPC   C3B 2604   8.236   8.447   5.448
  171POPC   C4B 2605   7.984   8.459   5.838
  172POPC   NC3 2606   6.486   0.500   3.707
  172POPC   PO4 2607   7.071   0.605   3.908
  172POPC   GL1 2608   6.958   0.294   4.213
  172POPC   GL2 2609   6.611   0.283   4.161
  172POPC   C1A 2610   6.871   0.253   4.667
  172POPC   D2A 2611   6.870   0.429   5.109
  172POPC   C3A 2612   6.767   0.305   5.543
  172POPC   C4A 2613   6.880   0.302   5.998
  172POPC   C1B 2614   6.384   0.431   4.531
  172POPC   C2B 2615   6.354   0.505   4.984
  172POPC   C3B 2616   6.282   0.428   5.442
  172POPC   C4B 2617   6.236   0.628   5.826
  173POPC   NC3 2618   3.597   8.086   3.857
  173POPC   PO4 2619   2.998   8.103   3.949
  173POPC   GL1 2620   3.025   8.332   4.358
  173POPC   GL2 2621   3.383   8.288   4.379
  173POPC   C1A 2622   3.158   8.414   4.826
  173POPC   D2A 2623   3.366   8.162   5.204
  173POPC   C3A 2624   3.432   8.255   5.666
  173POPC   C4A 2625   3.564   8.406   6.084
  173POPC   C1B 2626   3.414   7.961   4.717
  173POPC   C2B 2627   3.674   7.759   5.079
  173POPC   C3B 2628   3.784   7.808   5.538
  173POPC   C4B 2629   3.992   8.100   5.824
  174POPC   NC3 2630   9.516   9.905   3.917
  174POPC   PO4 2631  10.020   9.482   3.769
  174POPC   GL1 2632   9.854   9.595   4.189
  174POPC   GL2 2633   9.753   9.318   4.388
  174POPC   C1A 2634   9.806   9.862   4.588
  174POPC   D2A 2635   9.826  10.043   5.026
  174POPC   C3A 2636   9.595   9.970   5.412
  174POPC   C4A 2637   9.790   9.996   5.789
  174POPC   C1B 2638   9.693   9.402   4.826
  174POPC   C2B 2639   9.951   9.339   5.196
  174POPC   C3B 2640   9.884   9.476   5.636
  174POPC   C4B 2641   9.454   9.594   5.779
  175POPC   NC3 2642   9.179   0.300   3.968
  175POPC   PO4 2643   8.620   0.607   3.744
  175POPC   GL1 2644   8.905   0.572   4.268
  175POPC   GL2 2645   8.915   0.293   4.418
  175POPC   C1A 2646   8.849   0.728   4.740
  175POPC   D2A 2647   8.630   0.735   5.154
  175POPC   C3A 2648   8.869   0.648   5.524
  175POPC   C4A 2649   9.349   0.695   5.643
  175POPC   C1B 2650   8.755   0.103   4.777
  175POPC   C2B 2651   8.842   0.230   5.174
  175POPC   C3B 2652   8.622   0.154   5.536
  175POPC   C4B 2653   8.460   0.362   5.844
  176POPC   NC3 2654   8.138   9.445   3.899
  176POPC   PO4 2655   7.744   8.905   3.842
  176POPC   GL1 2656   7.747   9.316   4.178
  176POPC   GL2 2657   8.036   9.634   4.338
  176POPC   C1A 2658   7.760   9.362   4.629
  176POPC   D2A 2659   7.765   9.293   5.044
  176POPC   C3A 2660   7.809   9.647   5.309
  176POPC   C4A 2661   7.969   9.551   5.718
  176POPC   C1B 2662   8.159   9.655   4.792
  176POPC   C2B 2663   8.293   9.435   5.177
  176POPC   C3B 2664   8.486   9.527   5.553
  176POPC   C4B 2665   8.359   9.905   5.745
  177POPC   NC3 2666   2.993   0.319   3.972
  177POPC   PO4 2667   2.449   0.107   3.776
  177POPC   GL1 2668   2.545   0.246   4.211
  177POPC   GL2 2669   2.668   0.584   4.290
  177POPC   C1A 2670   2.440   0.321   4.661
  177POPC   D2A 2671   2.233   0.410   5.017
  177POPC   C3A 2672   2.477   0.508   5.379
  177POPC   C4A 2673   2.540   0.298   5.786
  177POPC   C1B 2674   2.863   0.646   4.733
  177POPC   C2B 2675   2.976   0.618   5.205
  177POPC   C3B 2676   2.879   0.743   5.653
  177POPC   C4B 2677   3.022   0.727   6.103
  178POPC   NC3 2678   2.156  11.275   3.911
  178POPC   PO4 2679   1.652  11.057   3.526
  178POPC   GL1 2680   1.677  11.144   4.078
  178POPC   GL2 2681   1.964  11.099   4.332
  178POPC   C1A 2682   1.576  11.299   4.551
  178POPC   D2A 2683   1.872  11.183   4.932
  178POPC   C3A 2684   1.763  11.250   5.400
  178POPC   C4A 2685   1.820  11.121   5.859
  178POPC   C1B 2686   2.315  11.309   4.546
  178POPC   C2B 2687   2.389  11.391   4.958
  178POPC   C3B 2688   2.381  11.116   5.289
  178POPC   C4B 2689   2.371  11.167   5.739
  179POPC   NC3 2690  10.713   8.742   4.059
  179POPC   PO4 2691  10.077   8.542   3.975
  179POPC   GL1 2692  10.138   8.918   4.244
  179POPC   GL2 2693  10.369   8.772   4.424
  179POPC   C1A 2694  10.018   9.022   4.694
  179POPC   D2A 2695  10.195   8.879   5.072
  179POPC   C3A 2696  10.026   8.913   5.489
  179POPC   C4A 2697  10.108   8.497   5.689
  179POPC   C1B 2698  10.611   8.818   4.757
  179POPC   C2B 2699  10.692   8.690   5.107
  179POPC   C3B 2700  10.513   8.724   5.483
  179POPC   C4B 2701  10.433   9.043   5.760
  180POPC   NC3 2702   2.418  10.281   3.986
  180POPC   PO4 2703   3.041   9.938   3.883
  180POPC   GL1 2704   2.896  10.144   4.271
  180POPC   GL2 2705   2.751  10.419   4.336
  180POPC   C1A 2706   2.834  10.021   4.678
  180POPC   D2A 2707   3.038  10.160   5.057
  180POPC   C3A 2708   2.833  10.173   5.465
  180POPC   C4A 2709   2.449  10.185   5.738
  180POPC   C1B 2710   2.833  10.521   4.712
  180POPC   C2B 2711   2.565  10.395   5.046
  180POPC   C3B 2712   2.490  10.594   5.432
  180POPC   C4B 2713   2.784  10.574   5.803
  181POPC   NC3 2714  11.358   4.223   3.983
  181POPC   PO4 2715  11.247   4.894   3.793
  181POPC   GL1 2716  11.277   4.689   4.222
  181POPC   GL2 2717  11.034   4.416   4.316
  181POPC   C1A 2718  11.415   4.606   4.651
  181POPC   D2A 2719  11.175   4.432   5.019
  181POPC   C3A 2720  11.354   4.478   5.437
  181POPC   C4A 2721  11.070   4.496   5.768
  181POPC   C1B 2722  11.221   4.130   4.617
  181POPC   C2B 2723  11.368   3.927   5.014
  181POPC   C3B 2724  11.225   3.984   5.428
  181POPC   C4B 2725  11.331   4.041   5.842
  182POPC   NC3 2726   2.740  11.058   3.489
  182POPC   PO4 2727   2.958  10.495   3.884
  182POPC   GL1 2728   2.851  10.899   4.231
  182POPC   GL2 2729   2.677  11.238   4.178
  182POPC   C1A 2730   2.785  11.036   4.676
  182POPC   D2A 2731   2.814  10.840   5.102
  182POPC   C3A 2732   2.834  10.999   5.516
  182POPC   C4A 2733   3.091  10.967   5.908
  182POPC   C1B 2734   2.823   0.022   4.550
  182POPC   C2B 2735   2.842   0.156   4.983
  182POPC   C3B 2736   2.715   0.005   5.400
  182POPC   C4B 2737   2.823  11.384   5.838
  183POPC   NC3 2738   9.067   8.262   3.936
  183POPC   PO4 2739   8.475   8.395   3.917
  183POPC   GL1 2740   8.664   8.165   4.292
  183POPC   GL2 2741   9.003   8.014   4.371
  183POPC   C1A 2742   8.753   8.289   4.733
  183POPC   D2A 2743   8.620   8.121   5.142
  183POPC   C3A 2744   8.733   8.243   5.556
  183POPC   C4A 2745   8.574   8.355   5.966
  183POPC   C1B 2746   9.162   7.933   4.803
  183POPC   C2B 2747   9.077   7.886   5.257
  183POPC   C3B 2748   9.120   7.771   5.684
  183POPC   C4B 2749   8.753   7.809   5.972
  184POPC   NC3 2750   0.994  10.362   4.018
  184POPC   PO4 2751   1.577  10.650   3.931
  184POPC   GL1 2752   1.549  10.273   4.216
  184POPC   GL2 2753   1.337  10.493   4.373
  184POPC   C1A 2754   1.586  10.146   4.699
  184POPC   D2A 2755   1.636  10.351   5.144
  184POPC   C3A 2756   1.552  10.081   5.509
  184POPC   C4A 2757   1.559   9.911   5.924
  184POPC   C1B 2758   1.111  10.322   4.675
  184POPC   C2B 2759   1.112  10.513   5.042
  184POPC   C3B 2760   1.211  10.465   5.425
  184POPC   C4B 2761   1.080  10.622   5.780
  185POPC   NC3 2762   4.453   8.814   3.670
  185POPC   PO4 2763   4.232   9.232   4.007
  185POPC   GL1 2764   4.247   9.194   4.437
  185POPC   GL2 2765   4.277   8.848   4.486
  185POPC   C1A 2766   4.091   9.211   4.861
  185POPC   D2A 2767   4.213   9.422   5.248
  185POPC   C3A 2768   4.060   9.250   5.645
  185POPC   C4A 2769   4.160   9.025   6.052
  185POPC   C1B 2770   4.557   8.990   4.824
  185POPC   C2B 2771   4.546   9.022   5.245
  185POPC   C3B 2772   4.479   8.965   5.646
  185POPC   C4B 2773   4.513   8.648   5.943
  186POPC   NC3 2774  11.172   9.354   3.997
  186POPC   PO4 2775  10.727  10.005   3.908
  186POPC   GL1 2776  10.860   9.943   4.367
  186POPC   GL2 2777  11.042   9.627   4.413
  186POPC   C1A 2778  10.748   9.772   4.815
  186POPC   D2A 2779  10.890   9.572   5.226
  186POPC   C3A 2780  11.087   9.850   5.553
  186POPC   C4A 2781  11.490   9.949   5.667
  186POPC   C1B 2782  11.193   9.450   4.805
  186POPC   C2B 2783  11.425   9.544   5.187
  186POPC   C3B 2784  11.257   9.380   5.540
  186POPC   C4B 2785  10.881   9.337   5.787
  187POPC   NC3 2786   2.350   6.004   3.734
  187POPC   PO4 2787   3.034   6.190   3.849
  187POPC   GL1 2788   2.719   6.086   4.165
  187POPC   GL2 2789   2.519   5.758   4.151
  187POPC   C1A 2790   2.898   5.982   4.587
  187POPC   D2A 2791   3.143   6.005   4.992
  187POPC   C3A 2792   2.920   5.922   5.408
  187POPC   C4A 2793   2.725   5.977   5.836
  187POPC   C1B 2794   2.421   5.802   4.602
  187POPC   C2B 2795   2.299   5.871   5.052
  187POPC   C3B 2796   2.406   5.766   5.476
  187POPC   C4B 2797   2.558   5.488   5.821
  188POPC   NC3 2798  11.399   8.017   3.984
  188POPC   PO4 2799  10.720   8.266   3.856
  188POPC   GL1 2800  10.951   8.226   4.228
  188POPC   GL2 2801  11.043   7.907   4.344
  188POPC   C1A 2802  10.915   8.255   4.684
  188POPC   D2A 2803  10.788   8.184   5.092
  188POPC   C3A 2804  11.015   8.432   5.391
  188POPC   C4A 2805  11.070   8.318   5.798
  188POPC   C1B 2806  11.346   7.903   4.684
  188POPC   C2B 2807  11.204   7.879   5.076
  188POPC   C3B 2808  11.321   8.011   5.455
  188POPC   C4B 2809  11.337   7.882   5.880
  189POPC   NC3 2810   1.817   9.808   4.141
  189POPC   PO4 2811   1.203   9.969   3.841
  189POPC   GL1 2812   1.139   9.937   4.281
  189POPC   GL2 2813   1.344   9.652   4.307
  189POPC   C1A 2814   1.101   9.817   4.722
  189POPC   D2A 2815   1.262   9.986   5.086
  189POPC   C3A 2816   0.983   9.981   5.418
  189POPC   C4A 2817   1.109  10.113   5.793
  189POPC   C1B 2818   1.573   9.591   4.711
  189POPC   C2B 2819   1.492   9.454   5.120
  189POPC   C3B 2820   1.401   9.590   5.532
  189POPC   C4B 2821   1.076   9.606   5.820
  190POPC   NC3 2822   1.269   7.318   3.884
  190POPC   PO4 2823   1.542   6.794   3.692
  190POPC   GL1 2824   1.465   6.922   4.138
  190POPC   GL2 2825   1.150   6.830   4.283
  190POPC   C1A 2826   1.496   7.018   4.613
  190POPC   D2A 2827   1.648   7.149   5.045
  190POPC   C3A 2828   1.452   7.335   5.440
  190POPC   C4A 2829   1.651   7.352   5.859
  190POPC   C1B 2830   0.967   6.971   4.698
  190POPC   C2B 2831   0.832   7.048   5.142
  190POPC   C3B 2832   0.895   6.976   5.600
  190POPC   C4B 2833   1.114   7.195   5.941
  191POPC   NC3 2834   9.836   5.501   3.878
  191POPC   PO4 2835   9.276   5.251   3.969
  191POPC   GL1 2836   9.531   5.428   4.371
  191POPC   GL2 2837   9.830   5.668   4.374
  191POPC   C1A 2838   9.673   5.495   4.841
  191POPC   D2A 2839   9.604   5.733   5.252
  191POPC   C3A 2840   9.594   5.537   5.665
  191POPC   C4A 2841   9.371   5.467   6.088
  191POPC   C1B 2842   9.905   5.952   4.766
  191POPC   C2B 2843   9.906   6.142   5.192
  191POPC   C3B 2844   9.697   6.166   5.596
  191POPC   C4B 2845   9.597   6.432   5.948
  192POPC   NC3 2846   2.798   2.239   3.878
  192POPC   PO4 2847   3.432   2.214   4.037
  192POPC   GL1 2848   3.100   1.901   4.148
  192POPC   GL2 2849   2.845   2.113   4.352
  192POPC   C1A 2850   3.015   1.700   4.560
  192POPC   D2A 2851   3.024   1.982   4.890
  192POPC   C3A 2852   3.081   1.890   5.311
  192POPC   C4A 2853   3.022   2.175   5.632
  192POPC   C1B 2854   2.572   1.949   4.654
  192POPC   C2B 2855   2.534   1.829   5.076
  192POPC   C3B 2856   2.580   1.941   5.508
  192POPC   C4B 2857   2.850   1.649   5.721
  193POPC   NC3 2858   1.970   2.430   3.762
  193POPC   PO4 2859   1.837   1.722   4.024
  193POPC   GL1 2860   1.922   2.144   4.206
  193POPC   GL2 2861   2.291   2.133   4.256
  193POPC   C1A 2862   1.995   2.353   4.639
  193POPC   D2A 2863   2.246   2.239   5.000
  193POPC   C3A 2864   2.153   2.292   5.435
  193POPC   C4A 2865   1.811   2.277   5.753
  193POPC   C1B 2866   2.087   1.854   4.619
  193POPC   C2B 2867   2.005   1.773   5.052
  193POPC   C3B 2868   1.895   1.852   5.473
  193POPC   C4B 2869   2.168   1.912   5.835
  194POPC   NC3 2870   8.220   1.904   3.889
  194POPC   PO4 2871   7.698   2.330   3.846
  194POPC   GL1 2872   7.957   2.212   4.227
  194POPC   GL2 2873   8.077   1.882   4.365
  194POPC   C1A 2874   8.124   2.298   4.654
  194POPC   D2A 2875   7.951   2.205   5.071
  194POPC   C3A 2876   8.092   2.364   5.472
  194POPC   C4A 2877   8.261   2.376   5.884
  194POPC   C1B 2878   8.134   1.787   4.822
  194POPC   C2B 2879   8.112   1.515   5.172
  194POPC   C3B 2880   7.846   1.634   5.511
  194POPC   C4B 2881   7.950   1.951   5.788
  195POPC   NC3 2882   0.872   1.094   3.612
  195POPC   PO4 2883   0.876   1.654   3.993
  195POPC   GL1 2884   0.961   1.270   4.213
  195POPC   GL2 2885   1.325   1.232   4.261
  195POPC   C1A 2886   1.018   1.250   4.678
  195POPC   D2A 2887   1.044   1.502   5.072
  195POPC   C3A 2888   0.984   1.248   5.442
  195POPC   C4A 2889   1.190   1.212   5.846
  195POPC   C1B 2890   1.452   0.976   4.628
  195POPC   C2B 2891   1.295   1.018   5.054
  195POPC   C3B 2892   1.455   1.027   5.441
  195POPC   C4B 2893   1.681   0.877   5.739
  196POPC   NC3 2894  11.016  10.340   4.049
  196POPC   PO4 2895  10.950  10.908   3.852
  196POPC   GL1 2896  10.925  10.812   4.258
  196POPC   GL2 2897  11.279  10.732   4.249
  196POPC   C1A 2898  10.850  10.666   4.676
  196POPC   D2A 2899  10.861  10.827   5.105
  196POPC   C3A 2900  10.878  10.674   5.536
  196POPC   C4A 2901  10.848  10.662   6.046
  196POPC   C1B 2902  11.327  10.504   4.617
  196POPC   C2B 2903  11.113  10.339   4.972
  196POPC   C3B 2904  11.226  10.318   5.382
  196POPC   C4B 2905  11.269  10.473   5.771
  197POPC   NC3 2906   7.292   0.979   4.056
  197POPC   PO4 2907   7.830   1.474   3.903
  197POPC   GL1 2908   7.710   1.208   4.239
  197POPC   GL2 2909   7.424   1.359   4.391
  197POPC   C1A 2910   7.618   0.968   4.649
  197POPC   D2A 2911   7.238   1.030   4.911
  197POPC   C3A 2912   7.315   0.970   5.346
  197POPC   C4A 2913   7.405   1.007   5.783
  197POPC   C1B 2914   7.320   1.519   4.811
  197POPC   C2B 2915   7.234   1.494   5.279
  197POPC   C3B 2916   6.972   1.258   5.602
  197POPC   C4B 2917   6.990   1.198   6.039
  198POPC   NC3 2918   9.764   9.094   3.922
  198POPC   PO4 2919   9.255   8.677   4.037
  198POPC   GL1 2920   9.459   8.895   4.327
  198POPC   GL2 2921   9.721   8.675   4.348
  198POPC   C1A 2922   9.527   8.909   4.771
  198POPC   D2A 2923   9.288   9.137   5.081
  198POPC   C3A 2924   9.524   9.162   5.420
  198POPC   C4A 2925   9.553   9.085   5.814
  198POPC   C1B 2926   9.940   8.532   4.720
  198POPC   C2B 2927   9.794   8.572   5.154
  198POPC   C3B 2928   9.608   8.652   5.559
  198POPC   C4B 2929   9.769   8.686   6.023
  199POPC   NC3 2930   8.839  10.606   4.058
  199POPC   PO4 2931   9.051   9.966   3.892
  199POPC   GL1 2932   9.050  10.181   4.279
  199POPC   GL2 2933   8.704  10.152   4.375
  199POPC   C1A 2934   9.017  10.330   4.734
  199POPC   D2A 2935   8.939  10.143   5.143
  199POPC   C3A 2936   9.065  10.397   5.501
  199POPC   C4A 2937   9.072  10.622   5.925
  199POPC   C1B 2938   8.534  10.067   4.786
  199POPC   C2B 2939   8.440   9.936   5.199
  199POPC   C3B 2940   8.537  10.264   5.448
  199POPC   C4B 2941   8.726  10.274   5.846
  200POPC   NC3 2942   1.492   8.904   4.004
  200POPC   PO4 2943   0.897   8.590   3.996
  200POPC   GL1 2944   1.098   8.818   4.358
  200POPC   GL2 2945   1.164   9.164   4.324
  200POPC   C1A 2946   1.290   8.637   4.778
  200POPC   D2A 2947   1.243   8.401   5.203
  200POPC   C3A 2948   1.069   8.638   5.580
  200POPC   C4A 2949   1.261   8.609   6.016
  200POPC   C1B 2950   1.121   9.131   4.803
  200POPC   C2B 2951   1.310   8.979   5.233
  200POPC   C3B 2952   1.261   9.107   5.678
  200POPC   C4B 2953   0.849   9.148   5.860
  201POPC   NC3 2954   9.740   4.065   3.857
  201POPC   PO4 2955   9.779   3.400   3.892
  201POPC   GL1 2956   9.776   3.674   4.274
  201POPC   GL2 2957   9.443   3.803   4.361
  201POPC   C1A 2958   9.770   3.786   4.749
  201POPC   D2A 2959   9.560   3.841   5.162
  201POPC   C3A 2960   9.773   3.961   5.572
  201POPC   C4A 2961   9.986   3.851   5.989
  201POPC   C1B 2962   9.412   3.413   4.649
  201POPC   C2B 2963   9.440   3.252   5.063
  201POPC   C3B 2964   9.465   3.437   5.473
  201POPC   C4B 2965   9.164   3.566   5.736
  202POPC   NC3 2966   5.818   1.094   3.890
  202POPC   PO4 2967   5.368   1.613   3.871
  202POPC   GL1 2968   5.440   1.555   4.277
  202POPC   GL2 2969   5.482   1.204   4.274
  202POPC   C1A 2970   5.631   1.426   4.682
  202POPC   D2A 2971   5.462   1.343   5.060
  202POPC   C3A 2972   5.748   1.490   5.352
  202POPC   C4A 2973   5.968   1.667   5.706
  202POPC   C1B 2974   5.429   0.948   4.683
  202POPC   C2B 2975   5.492   0.836   5.112
  202POPC   C3B 2976   5.495   1.061   5.505
  202POPC   C4B 2977   5.956   1.126   5.671
  203POPC   NC3 2978   9.551   2.742   3.832
  203POPC   PO4 2979  10.123   2.465   3.811
  203POPC   GL1 2980   9.885   2.404   4.204
  203POPC   GL2 2981   9.608   2.631   4.329
  203POPC   C1A 2982   9.972   2.478   4.653
  203POPC   D2A 2983   9.874   2.260   5.033
  203POPC   C3A 2984   9.935   2.492   5.407
  203POPC   C4A 2985   9.894   2.564   5.848
  203POPC   C1B 2986   9.521   2.770   4.766
  203POPC   C2B 2987   9.420   2.539   5.140
  203POPC   C3B 2988   9.474   2.648   5.552
  203POPC   C4B 2989   9.746   3.007   5.634
  204POPC   NC3 2990  11.354   5.190   4.131
  204POPC   PO4 2991  10.785   4.833   4.189
  204POPC   GL1 2992  10.854   4.880   4.528
  204POPC   GL2 2993  10.970   5.237   4.469
  204POPC   C1A 2994  10.751   4.707   4.939
  204POPC   D2A 2995  10.988   4.796   5.315
  204POPC   C3A 2996  10.878   4.960   5.682
  204POPC   C4A 2997  10.708   5.324   5.671
  204POPC   C1B 2998  11.184   5.040   4.845
  204POPC   C2B 2999  11.475   4.882   5.107
  204POPC   C3B 3000  11.432   5.035   5.489
  204POPC   C4B 3001  11.445   4.822   5.820
  205POPC   NC3 3002  10.301   3.636   3.849
  205POPC   PO4 3003  10.948   3.946   3.897
  205POPC   GL1 3004  10.657   3.654   4.238
  205POPC   GL2 3005  10.299   3.523   4.329
  205POPC   C1A 3006  10.626   3.400   4.689
  205POPC   D2A 3007  10.558   3.590   5.114
  205POPC   C3A 3008  10.513   3.319   5.471
  205POPC   C4A 3009  10.751   3.319   5.827
  205POPC   C1B 3010  10.287   3.793   4.700
  205POPC   C2B 3011  10.116   3.873   5.124
  205POPC   C3B 3012  10.242   3.745   5.553
  205POPC   C4B 3013  10.178   3.379   5.870
  206POPC   NC3 3014   3.804   1.082   3.742
  206POPC   PO4 3015   3.424   1.591   3.690
  206POPC   GL1 3016   3.417   1.339   4.192
  206POPC   GL2 3017   3.553   1.003   4.177
  206POPC   C1A 3018   3.685   1.176   4.643
  206POPC   D2A 3019   3.813   0.934   5.063
  206POPC   C3A 3020   3.712   1.099   5.519
  206POPC   C4A 3021   3.668   1.392   5.891
  206POPC   C1B 3022   3.343   0.819   4.549
  206POPC   C2B 3023   3.300   0.970   4.981
  206POPC   C3B 3024   3.206   1.119   5.395
  206POPC   C4B 3025   3.278   1.069   5.833
  207POPC   NC3 3026   5.660   9.840   3.878
  207POPC   PO4 3027   5.470   9.291   4.163
  207POPC   GL1 3028   5.652   9.537   4.478
  207POPC   GL2 3029   5.647   9.878   4.397
  207POPC   C1A 3030   5.764   9.586   4.935
  207POPC   D2A 3031   5.740   9.472   5.402
  207POPC   C3A 3032   6.127   9.546   5.711
  207POPC   C4A 3033   6.336   9.520   6.154
  207POPC   C1B 3034   5.337   9.813   4.764
  207POPC   C2B 3035   5.254   9.579   5.187
  207POPC   C3B 3036   5.339   9.680   5.657
  207POPC   C4B 3037   5.456   9.947   6.075
  208POPC   NC3 3038   0.530  11.388   3.984
  208POPC   PO4 3039   0.765  10.756   3.877
  208POPC   GL1 3040   0.569  10.955   4.239
  208POPC   GL2 3041   0.202  11.045   4.202
  208POPC   C1A 3042   0.697  11.083   4.652
  208POPC   D2A 3043   0.807  11.234   5.061
  208POPC   C3A 3044   0.915  10.916   5.353
  208POPC   C4A 3045   0.626  10.843   5.683
  208POPC   C1B 3046   0.234  10.834   4.651
  208POPC   C2B 3047   0.394  10.869   5.131
  208POPC   C3B 3048   0.297  11.184   5.499
  208POPC   C4B 3049   0.131   0.121   5.558
  209POPC   NC3 3050   3.330  10.270   3.649
  209POPC   PO4 3051   3.764   9.925   4.042
  209POPC   GL1 3052   3.703   9.831   4.432
  209POPC   GL2 3053   3.832   9.498   4.377
  209POPC   C1A 3054   3.319   9.829   4.711
  209POPC   D2A 3055   3.273   9.673   5.112
  209POPC   C3A 3056   3.459   9.776   5.504
  209POPC   C4A 3057   3.278  10.002   5.807
  209POPC   C1B 3058   3.619   9.429   4.802
  209POPC   C2B 3059   3.678   9.365   5.267
  209POPC   C3B 3060   3.558   9.319   5.720
  209POPC   C4B 3061   3.681   9.253   6.178
  210POPC   NC3 3062   0.193   7.991   3.385
  210POPC   PO4 3063   0.297   7.795   4.059
  210POPC   GL1 3064   0.247   8.016   4.376
  210POPC   GL2 3065   0.541   8.196   4.331
  210POPC   C1A 3066   0.424   7.886   4.763
  210POPC   D2A 3067   0.225   7.795   5.125
  210POPC   C3A 3068   0.341   7.989   5.523
  210POPC   C4A 3069   0.134   8.299   5.744
  210POPC   C1B 3070   0.385   8.382   4.695
  210POPC   C2B 3071   0.519   8.334   5.068
  210POPC   C3B 3072   0.503   8.495   5.428
  210POPC   C4B 3073   0.628   8.394   5.836
  211POPC   NC3 3074   7.819  10.392   3.913
  211POPC   PO4 3075   8.429  10.751   3.871
  211POPC   GL1 3076   8.213  10.593   4.245
  211POPC   GL2 3077   8.192  10.209   4.209
  211POPC   C1A 3078   8.106  10.702   4.702
  211POPC   D2A 3079   7.890  10.758   5.122
  211POPC   C3A 3080   8.164  10.631   5.476
  211POPC   C4A 3081   8.236  10.399   5.857
  211POPC   C1B 3082   8.062  10.182   4.623
  211POPC   C2B 3083   8.141  10.312   5.052
  211POPC   C3B 3084   8.001  10.136   5.457
  211POPC   C4B 3085   7.887  10.026   5.887
  212POPC   NC3 3086   1.643   5.378   4.026
  212POPC   PO4 3087   1.854   6.005   3.792
  212POPC   GL1 3088   1.772   5.926   4.206
  212POPC   GL2 3089   1.998   5.714   4.327
  212POPC   C1A 3090   1.605   5.964   4.606
  212POPC   D2A 3091   1.656   5.995   5.040
  212POPC   C3A 3092   1.919   6.044   5.380
  212POPC   C4A 3093   1.782   5.952   5.814
  212POPC   C1B 3094   1.936   5.619   4.763
  212POPC   C2B 3095   1.955   5.538   5.204
  212POPC   C3B 3096   2.004   5.508   5.651
  212POPC   C4B 3097   1.955   5.269   6.019
  213POPC   NC3 3098   5.544  11.444   3.448
  213POPC   PO4 3099   6.136   0.197   3.774
  213POPC   GL1 3100   6.111   0.100   4.223
  213POPC   GL2 3101   5.912  11.313   4.224
  213POPC   C1A 3102   5.993   0.080   4.687
  213POPC   D2A 3103   6.092  11.271   5.026
  213POPC   C3A 3104   6.086  11.449   5.410
  213POPC   C4A 3105   6.131  11.233   5.796
  213POPC   C1B 3106   5.823  11.093   4.609
  213POPC   C2B 3107   5.704  10.936   5.029
  213POPC   C3B 3108   5.744  11.094   5.421
  213POPC   C4B 3109   5.632  11.238   5.805
  214POPC   NC3 3110   0.238   4.910   3.800
  214POPC   PO4 3111   0.909   4.574   3.884
  214POPC   GL1 3112   0.719   4.773   4.287
  214POPC   GL2 3113   0.387   4.911   4.302
  214POPC   C1A 3114   0.740   4.981   4.692
  214POPC   D2A 3115   0.745   4.826   5.108
  214POPC   C3A 3116   0.385   4.693   5.370
  214POPC   C4A 3117   0.460   4.799   5.800
  214POPC   C1B 3118   0.221   5.050   4.682
  214POPC   C2B 3119   0.406   5.236   5.043
  214POPC   C3B 3120   0.421   5.205   5.478
  214POPC   C4B 3121   0.202   5.260   5.884
  215POPC   NC3 3122   5.588   0.122   3.929
  215POPC   PO4 3123   5.409   0.835   3.945
  215POPC   GL1 3124   5.653   0.681   4.299
  215POPC   GL2 3125   5.675   0.322   4.361
  215POPC   C1A 3126   5.805   0.590   4.752
  215POPC   D2A 3127   5.868   0.376   5.137
  215POPC   C3A 3128   5.795   0.641   5.517
  215POPC   C4A 3129   5.627   0.814   5.925
  215POPC   C1B 3130   5.484   0.020   4.630
  215POPC   C2B 3131   5.609  11.432   5.050
  215POPC   C3B 3132   5.598   0.106   5.462
  215POPC   C4B 3133   5.897   0.231   5.784
  216POPC   NC3 3134   2.908   7.643   4.021
  216POPC   PO4 3135   2.347   7.993   3.986
  216POPC   GL1 3136   2.640   7.967   4.320
  216POPC   GL2 3137   2.525   8.249   4.436
  216POPC   C1A 3138   2.861   8.005   4.754
  216POPC   D2A 3139   2.861   8.237   5.196
  216POPC   C3A 3140   2.950   8.080   5.630
  216POPC   C4A 3141   2.690   7.861   5.965
  216POPC   C1B 3142   2.593   8.450   4.787
  216POPC   C2B 3143   2.381   8.373   5.184
  216POPC   C3B 3144   2.461   8.212   5.593
  216POPC   C4B 3145   2.654   8.365   5.969
  217POPC   NC3 3146   1.815   6.480   3.899
  217POPC   PO4 3147   2.426   6.423   3.870
  217POPC   GL1 3148   2.203   6.201   4.215
  217POPC   GL2 3149   2.027   6.491   4.356
  217POPC   C1A 3150   2.057   6.135   4.691
  217POPC   D2A 3151   2.205   6.385   5.052
  217POPC   C3A 3152   2.121   6.546   5.467
  217POPC   C4A 3153   1.759   6.439   5.698
  217POPC   C1B 3154   1.797   6.572   4.763
  217POPC   C2B 3155   1.694   6.560   5.198
  217POPC   C3B 3156   1.747   6.907   5.505
  217POPC   C4B 3157   2.011   6.863   5.872
  218POPC   NC3 3158   0.537   3.328   3.948
  218POPC   PO4 3159   0.180   3.893   3.931
  218POPC   GL1 3160   0.408   3.739   4.283
  218POPC   GL2 3161   0.399   3.424   4.420
  218POPC   C1A 3162   0.617   3.836   4.654
  218POPC   D2A 3163   0.398   3.795   5.051
  218POPC   C3A 3164   0.518   3.667   5.468
  218POPC   C4A 3165   0.270   3.759   5.785
  218POPC   C1B 3166   0.436   3.192   4.749
  218POPC   C2B 3167   0.526   3.286   5.138
  218POPC   C3B 3168   0.297   3.185   5.471
  218POPC   C4B 3169   0.458   3.281   5.830
  219POPC   NC3 3170  10.277   7.058   4.042
  219POPC   PO4 3171  10.908   7.348   3.960
  219POPC   GL1 3172  10.805   7.125   4.289
  219POPC   GL2 3173  10.535   7.338   4.377
  219POPC   C1A 3174  10.823   7.056   4.714
  219POPC   D2A 3175  10.697   6.898   5.113
  219POPC   C3A 3176  10.642   7.124   5.497
  219POPC   C4A 3177  10.268   7.095   5.740
  219POPC   C1B 3178  10.637   7.700   4.636
  219POPC   C2B 3179  10.455   7.781   5.044
  219POPC   C3B 3180  10.313   7.491   5.339
  219POPC   C4B 3181  10.468   7.573   5.721
  220POPC   NC3 3182  10.576   4.511   3.950
  220POPC   PO4 3183  10.135   4.011   4.074
  220POPC   GL1 3184  10.244   4.360   4.325
  220POPC   GL2 3185  10.546   4.475   4.457
  220POPC   C1A 3186  10.195   4.290   4.754
  220POPC   D2A 3187  10.436   4.282   5.072
  220POPC   C3A 3188  10.197   4.257   5.442
  220POPC   C4A 3189  10.090   4.379   5.835
  220POPC   C1B 3190  10.695   4.099   4.619
  220POPC   C2B 3191  10.865   4.006   5.029
  220POPC   C3B 3192  10.818   4.285   5.392
  220POPC   C4B 3193  10.589   4.211   5.769
  221POPC   NC3 3194   5.056   8.229   3.866
  221POPC   PO4 3195   4.799   7.706   4.136
  221POPC   GL1 3196   4.881   7.935   4.502
  221POPC   GL2 3197   4.900   8.240   4.347
  221POPC   C1A 3198   4.800   8.089   4.931
  221POPC   D2A 3199   4.536   8.287   5.245
  221POPC   C3A 3200   4.501   8.081   5.639
  221POPC   C4A 3201   4.730   7.766   5.894
  221POPC   C1B 3202   5.170   8.371   4.685
  221POPC   C2B 3203   5.252   8.235   5.123
  221POPC   C3B 3204   4.999   8.153   5.506
  221POPC   C4B 3205   4.869   8.275   5.941
  222POPC   NC3 3206   1.300   4.302   3.893
  222POPC   PO4 3207   1.221   3.741   4.067
  222POPC   GL1 3208   1.053   4.000   4.395
  222POPC   GL2 3209   1.078   4.372   4.340
  222POPC   C1A 3210   1.053   4.008   4.863
  222POPC   D2A 3211   1.310   3.968   5.230
  222POPC   C3A 3212   1.260   4.196   5.658
  222POPC   C4A 3213   1.504   4.036   6.049
  222POPC   C1B 3214   1.012   4.526   4.752
  222POPC   C2B 3215   1.116   4.436   5.174
  222POPC   C3B 3216   0.858   4.533   5.511
  222POPC   C4B 3217   0.917   4.569   5.898
  223POPC   NC3 3218   2.625   8.366   3.954
  223POPC   PO4 3219   2.625   9.028   3.881
  223POPC   GL1 3220   2.740   8.784   4.264
  223POPC   GL2 3221   2.402   8.733   4.315
  223POPC   C1A 3222   2.898   8.852   4.717
  223POPC   D2A 3223   2.722   8.785   5.144
  223POPC   C3A 3224   2.810   8.618   5.551
  223POPC   C4A 3225   3.103   8.601   5.913
  223POPC   C1B 3226   2.466   9.087   4.590
  223POPC   C2B 3227   2.498   9.244   5.047
  223POPC   C3B 3228   2.642   9.146   5.493
  223POPC   C4B 3229   3.059   9.071   5.693
  224POPC   NC3 3230  10.178   0.317   3.923
  224POPC   PO4 3231  10.702   0.127   4.209
  224POPC   GL1 3232  10.336   0.280   4.437
  224POPC   GL2 3233  10.227   0.626   4.358
  224POPC   C1A 3234  10.237   0.325   4.875
  224POPC   D2A 3235  10.357   0.510   5.237
  224POPC   C3A 3236  10.431   0.224   5.576
  224POPC   C4A 3237  10.051   0.122   5.756
  224POPC   C1B 3238  10.560   0.677   4.696
  224POPC   C2B 3239  10.822   0.711   5.086
  224POPC   C3B 3240  10.668   0.768   5.528
  224POPC   C4B 3241  10.611   0.692   5.998
  225POPC   NC3 3242   2.255   3.064   4.030
  225POPC   PO4 3243   1.649   2.995   3.699
  225POPC   GL1 3244   1.745   2.673   4.148
  225POPC   GL2 3245   2.091   2.634   4.232
  225POPC   C1A 3246   1.641   2.738   4.641
  225POPC   D2A 3247   1.607   2.935   5.072
  225POPC   C3A 3248   1.774   2.696   5.426
  225POPC   C4A 3249   1.735   2.829   5.841
  225POPC   C1B 3250   2.150   2.850   4.636
  225POPC   C2B 3251   2.107   2.887   5.082
  225POPC   C3B 3252   2.333   2.784   5.439
  225POPC   C4B 3253   2.204   2.623   5.828
  226POPC   NC3 3254   6.871   7.915   3.914
  226POPC   PO4 3255   6.994   8.454   3.826
  226POPC   GL1 3256   7.072   8.491   4.293
  226POPC   GL2 3257   7.343   8.288   4.399
  226POPC   C1A 3258   7.086   8.508   4.789
  226POPC   D2A 3259   7.290   8.346   5.187
  226POPC   C3A 3260   7.121   8.321   5.607
  226POPC   C4A 3261   7.043   8.033   5.961
  226POPC   C1B 3262   7.599   8.406   4.779
  226POPC   C2B 3263   7.795   8.307   5.194
  226POPC   C3B 3264   7.616   8.208   5.599
  226POPC   C4B 3265   7.486   8.295   6.039
  227POPC   NC3 3266   1.354   0.304   3.945
  227POPC   PO4 3267   1.229   0.950   3.842
  227POPC   GL1 3268   1.075   0.749   4.265
  227POPC   GL2 3269   1.028   0.375   4.355
  227POPC   C1A 3270   1.010   0.722   4.735
  227POPC   D2A 3271   0.792   0.887   5.099
  227POPC   C3A 3272   1.003   0.714   5.476
  227POPC   C4A 3273   1.226   0.691   5.876
  227POPC   C1B 3274   1.378   0.355   4.686
  227POPC   C2B 3275   1.259   0.367   5.125
  227POPC   C3B 3276   1.407   0.327   5.529
  227POPC   C4B 3277   1.453  11.464   5.815
  228POPC   NC3 3278  10.851   7.806   3.891
  228POPC   PO4 3279  11.450   7.686   3.654
  228POPC   GL1 3280  11.346   7.541   4.159
  228POPC   GL2 3281  11.325   7.209   4.236
  228POPC   C1A 3282  11.096   7.476   4.615
  228POPC   D2A 3283  10.857   7.429   5.064
  228POPC   C3A 3284  10.993   7.581   5.501
  228POPC   C4A 3285  10.910   7.586   5.979
  228POPC   C1B 3286  11.341   7.035   4.646
  228POPC   C2B 3287  11.207   6.894   5.037
  228POPC   C3B 3288  11.152   7.078   5.445
  228POPC   C4B 3289  11.275   7.272   5.835
  229POPC   NC3 3290   4.371   2.678   3.951
  229POPC   PO4 3291   3.880   2.996   4.056
  229POPC   GL1 3292   4.010   2.684   4.399
  229POPC   GL2 3293   4.278   2.391   4.355
  229POPC   C1A 3294   3.855   2.737   4.828
  229POPC   D2A 3295   3.643   2.570   5.198
  229POPC   C3A 3296   3.814   2.633   5.629
  229POPC   C4A 3297   4.096   2.643   6.023
  229POPC   C1B 3298   4.286   2.469   4.776
  229POPC   C2B 3299   4.156   2.498   5.191
  229POPC   C3B 3300   4.286   2.418   5.597
  229POPC   C4B 3301   4.561   2.725   5.783
  230POPC   NC3 3302   4.831  10.122   3.901
  230POPC   PO4 3303   5.474  10.261   3.919
  230POPC   GL1 3304   5.402  10.335   4.301
  230POPC   GL2 3305   5.283  10.681   4.286
  230POPC   C1A 3306   5.213  10.320   4.695
  230POPC   D2A 3307   4.946  10.414   5.059
  230POPC   C3A 3308   5.071  10.120   5.367
  230POPC   C4A 3309   5.384  10.189   5.647
  230POPC   C1B 3310   4.915  10.742   4.572
  230POPC   C2B 3311   4.793  10.914   4.987
  230POPC   C3B 3312   4.761  10.783   5.392
  230POPC   C4B 3313   5.095  10.604   5.636
  231POPC   NC3 3314  10.490   2.668   4.014
  231POPC   PO4 3315  10.769   3.258   3.901
  231POPC   GL1 3316  10.821   2.990   4.279
  231POPC   GL2 3317  10.504   2.980   4.429
  231POPC   C1A 3318  10.974   2.937   4.708
  231POPC   D2A 3319  10.804   3.092   5.114
  231POPC   C3A 3320  10.816   2.885   5.533
  231POPC   C4A 3321  10.743   2.599   5.884
  231POPC   C1B 3322  10.559   2.586   4.676
  231POPC   C2B 3323  10.405   2.381   5.062
  231POPC   C3B 3324  10.438   2.523   5.482
  231POPC   C4B 3325  10.274   2.885   5.692
  232POPC   NC3 3326   7.248  10.817   4.028
  232POPC   PO4 3327   6.895  11.395   3.865
  232POPC   GL1 3328   7.020  11.217   4.291
  232POPC   GL2 3329   7.361  11.104   4.430
  232POPC   C1A 3330   6.943  11.241   4.753
  232POPC   D2A 3331   7.005  11.430   5.185
  232POPC   C3A 3332   7.040  11.193   5.590
  232POPC   C4A 3333   6.818  11.300   5.989
  232POPC   C1B 3334   7.376  10.917   4.848
  232POPC   C2B 3335   7.477  11.224   5.166
  232POPC   C3B 3336   7.533  11.373   5.567
  232POPC   C4B 3337   7.519  10.943   5.792
  233POPC   NC3 3338   1.582   3.687   3.785
  233POPC   PO4 3339   1.762   3.162   4.154
  233POPC   GL1 3340   1.641   3.551   4.301
  233POPC   GL2 3341   1.938   3.644   4.361
  233POPC   C1A 3342   1.505   3.771   4.670
  233POPC   D2A 3343   1.765   3.931   4.973
  233POPC   C3A 3344   1.761   3.814   5.382
  233POPC   C4A 3345   1.881   3.640   5.738
  233POPC   C1B 3346   1.936   3.416   4.775
  233POPC   C2B 3347   1.981   3.372   5.206
  233POPC   C3B 3348   2.004   3.153   5.566
  233POPC   C4B 3349   2.043   3.214   6.007
  234POPC   NC3 3350   9.016   1.897   3.854
  234POPC   PO4 3351   8.461   2.311   3.988
  234POPC   GL1 3352   8.830   2.170   4.237
  234POPC   GL2 3353   8.743   1.840   4.274
  234POPC   C1A 3354   9.016   2.083   4.671
  234POPC   D2A 3355   8.976   2.295   5.059
  234POPC   C3A 3356   8.992   2.014   5.394
  234POPC   C4A 3357   9.014   2.084   5.813
  234POPC   C1B 3358   8.535   1.984   4.616
  234POPC   C2B 3359   8.594   1.847   5.040
  234POPC   C3B 3360   8.342   1.917   5.404
  234POPC   C4B 3361   8.497   1.928   5.818
  235POPC   NC3 3362   9.652   0.319   3.593
  235POPC   PO4 3363   9.315   0.759   3.946
  235POPC   GL1 3364   9.453   0.543   4.300
  235POPC   GL2 3365   9.741   0.363   4.180
  235POPC   C1A 3366   9.302   0.503   4.710
  235POPC   D2A 3367   9.198   0.640   5.121
  235POPC   C3A 3368   9.324   0.301   5.347
  235POPC   C4A 3369   9.518   0.200   5.717
  235POPC   C1B 3370   9.824   0.450   4.619
  235POPC   C2B 3371   9.719   0.448   5.050
  235POPC   C3B 3372   9.840   0.521   5.477
  235POPC   C4B 3373  10.192   0.640   5.735
  236POPC   NC3 3374   8.870   0.939   3.944
  236POPC   PO4 3375   8.572   1.601   3.842
  236POPC   GL1 3376   8.666   1.347   4.197
  236POPC   GL2 3377   9.036   1.411   4.135
  236POPC   C1A 3378   8.595   1.456   4.654
  236POPC   D2A 3379   8.590   1.306   5.087
  236POPC   C3A 3380   8.719   1.564   5.461
  236POPC   C4A 3381   9.067   1.584   5.738
  236POPC   C1B 3382   9.035   1.198   4.542
  236POPC   C2B 3383   9.134   1.137   4.974
  236POPC   C3B 3384   8.978   1.119   5.382
  236POPC   C4B 3385   9.051   1.068   5.800
  237POPC   NC3 3386   0.242   7.353   3.887
  237POPC   PO4 3387   0.883   7.024   3.899
  237POPC   GL1 3388   0.649   7.119   4.327
  237POPC   GL2 3389   0.320   7.268   4.364
  237POPC   C1A 3390   0.604   7.336   4.781
  237POPC   D2A 3391   0.350   7.248   5.185
  237POPC   C3A 3392   0.452   7.241   5.666
  237POPC   C4A 3393   0.201   7.148   6.067
  237POPC   C1B 3394   0.109   7.463   4.698
  237POPC   C2B 3395  11.375   7.400   5.086
  237POPC   C3B 3396   0.030   7.537   5.510
  237POPC   C4B 3397   0.260   7.634   5.917
  238POPC   NC3 3398   5.497   2.037   3.972
  238POPC   PO4 3399   5.931   2.397   4.075
  238POPC   GL1 3400   5.842   2.042   4.348
  238POPC   GL2 3401   5.933   1.712   4.247
  238POPC   C1A 3402   5.529   1.917   4.679
  238POPC   D2A 3403   5.367   1.836   5.121
  238POPC   C3A 3404   5.602   1.963   5.499
  238POPC   C4A 3405   5.860   2.162   5.837
  238POPC   C1B 3406   6.027   1.755   4.734
  238POPC   C2B 3407   6.045   1.903   5.195
  238POPC   C3B 3408   6.298   2.052   5.560
  238POPC   C4B 3409   6.294   1.971   6.020
  239POPC   NC3 3410   0.693   6.651   4.109
  239POPC   PO4 3411   0.100   6.901   3.947
  239POPC   GL1 3412   0.223   6.757   4.314
  239POPC   GL2 3413   0.151   6.401   4.252
  239POPC   C1A 3414   0.321   6.905   4.725
  239POPC   D2A 3415   0.438   6.737   5.079
  239POPC   C3A 3416   0.357   6.773   5.503
  239POPC   C4A 3417   0.640   6.564   5.774
  239POPC   C1B 3418   0.366   6.393   4.660
  239POPC   C2B 3419   0.446   6.220   5.082
  239POPC   C3B 3420   0.313   6.261   5.497
  239POPC   C4B 3421   0.381   6.083   5.916
  240POPC   NC3 3422  10.459   9.632   3.725
  240POPC   PO4 3423  10.858   9.118   3.735
  240POPC   GL1 3424  10.489   9.245   4.078
  240POPC   GL2 3425  10.584   9.550   4.203
  240POPC   C1A 3426  10.416   9.300   4.602
  240POPC   D2A 3427  10.563   9.222   5.053
  240POPC   C3A 3428  10.408   9.422   5.415
  240POPC   C4A 3429  10.597   9.765   5.596
  240POPC   C1B 3430  10.321   9.795   4.504
  240POPC   C2B 3431  10.223   9.711   4.965
  240POPC   C3B 3432  10.139   9.879   5.423
  240POPC   C4B 3433  10.283  10.002   5.898
  241POPC   NC3 3434   4.854  11.117   3.804
  241POPC   PO4 3435   5.589  11.159   3.813
  241POPC   GL1 3436   5.400  11.191   4.233
  241POPC   GL2 3437   5.034  11.190   4.284
  241POPC   C1A 3438   5.311  11.046   4.680
  241POPC   D2A 3439   5.123  11.301   4.999
  241POPC   C3A 3440   5.204  11.119   5.407
  241POPC   C4A 3441   5.181  11.433   5.705
  241POPC   C1B 3442   4.734  11.278   4.638
  241POPC   C2B 3443   4.607  11.418   5.062
  241POPC   C3B 3444   4.532  11.273   5.462
  241POPC   C4B 3445   4.773  11.134   5.755
  242POPC   NC3 3446  11.271   5.992   3.546
  242POPC   PO4 3447  10.977   5.616   4.022
  242POPC   GL1 3448  11.129   5.723   4.413
  242POPC   GL2 3449  11.437   5.635   4.335
  242POPC   C1A 3450  11.212   5.553   4.842
  242POPC   D2A 3451  11.065   5.357   5.270
  242POPC   C3A 3452  11.039   5.699   5.606
  242POPC   C4A 3453  10.894   6.125   5.563
  242POPC   C1B 3454   0.021   5.995   4.603
  242POPC   C2B 3455  11.249   6.075   4.931
  242POPC   C3B 3456  11.358   6.047   5.360
  242POPC   C4B 3457  11.382   6.232   5.776
  243POPC   NC3 3458   8.056  11.089   3.848
  243POPC   PO4 3459   7.676  10.753   4.197
  243POPC   GL1 3460   7.926  11.075   4.365
  243POPC   GL2 3461   8.283  11.156   4.284
  243POPC   C1A 3462   7.841  11.140   4.780
  243POPC   D2A 3463   7.984  11.268   5.162
  243POPC   C3A 3464   7.946  11.073   5.562
  243POPC   C4A 3465   7.859  11.297   5.960
  243POPC   C1B 3466   8.398  11.168   4.711
  243POPC   C2B 3467   8.392  10.958   5.100
  243POPC   C3B 3468   8.442  11.178   5.459
  243POPC   C4B 3469   8.345  11.168   5.893
  244POPC   NC3 3470   2.165   9.016   3.868
  244POPC   PO4 3471   1.604   9.360   3.960
  244POPC   GL1 3472   1.675   9.232   4.370
  244POPC   GL2 3473   1.908   9.006   4.313
  244POPC   C1A 3474   1.622   9.051   4.811
  244POPC   D2A 3475   1.770   8.751   5.158
  244POPC   C3A 3476   1.613   8.724   5.615
  244POPC   C4A 3477   1.657   8.968   6.015
  244POPC   C1B 3478   2.003   8.774   4.632
  244POPC   C2B 3479   2.243   8.803   4.957
  244POPC   C3B 3480   2.250   8.830   5.393
  244POPC   C4B 3481   2.151   9.051   5.758
  245POPC   NC3 3482   4.361   0.476   3.795
  245POPC   PO4 3483   4.151  11.366   3.874
  245POPC   GL1 3484   4.250   0.186   4.231
  245POPC   GL2 3485   4.234   0.523   4.344
  245POPC   C1A 3486   4.351   0.187   4.692
  245POPC   D2A 3487   4.142   0.271   5.079
  245POPC   C3A 3488   4.384   0.271   5.445
  245POPC   C4A 3489   4.357   0.281   5.888
  245POPC   C1B 3490   4.340   0.715   4.776
  245POPC   C2B 3491   4.556   0.709   5.193
  245POPC   C3B 3492   4.513   0.733   5.656
  245POPC   C4B 3493   4.050   0.667   5.748
  246POPC   NC3 3494   8.742   9.627   3.876
  246POPC   PO4 3495   9.386   9.356   4.034
  246POPC   GL1 3496   9.225   9.403   4.452
  246POPC   GL2 3497   8.979   9.644   4.324
  246POPC   C1A 3498   8.895   9.272   4.782
  246POPC   D2A 3499   8.773   9.146   5.236
  246POPC   C3A 3500   9.053   9.340   5.572
  246POPC   C4A 3501   9.119   9.184   6.032
  246POPC   C1B 3502   8.965   9.791   4.741
  246POPC   C2B 3503   8.854   9.643   5.170
  246POPC   C3B 3504   8.878   9.854   5.578
  246POPC   C4B 3505   9.205  10.035   5.830
  247POPC   NC3 3506   2.296   0.536   3.874
  247POPC   PO4 3507   1.785   0.130   3.976
  247POPC   GL1 3508   2.051   0.181   4.285
  247POPC   GL2 3509   2.131   0.547   4.349
  247POPC   C1A 3510   1.935   0.153   4.692
  247POPC   D2A 3511   1.782   0.161   5.095
  247POPC   C3A 3512   2.145   0.086   5.401
  247POPC   C4A 3513   2.061   0.060   5.820
  247POPC   C1B 3514   1.882   0.684   4.685
  247POPC   C2B 3515   1.664   0.664   5.064
  247POPC   C3B 3516   1.870   0.528   5.429
  247POPC   C4B 3517   2.128   0.574   5.753
  248POPC   NC3 3518  10.465   6.127   3.727
  248POPC   PO4 3519  10.613   6.741   3.961
  248POPC   GL1 3520  10.536   6.684   4.331
  248POPC   GL2 3521  10.413   6.354   4.238
  248POPC   C1A 3522  10.385   6.792   4.711
  248POPC   D2A 3523  10.262   6.542   5.045
  248POPC   C3A 3524  10.317   6.708   5.416
  248POPC   C4A 3525  10.034   6.586   5.722
  248POPC   C1B 3526  10.470   6.263   4.672
  248POPC   C2B 3527  10.375   6.013   5.010
  248POPC   C3B 3528  10.354   6.181   5.425
  248POPC   C4B 3529  10.500   6.379   5.759
  249POPC   NC3 3530   0.440   1.960   3.721
  249POPC   PO4 3531   0.088   2.249   4.154
  249POPC   GL1 3532   0.249   1.921   4.294
  249POPC   GL2 3533   0.574   1.987   4.231
  249POPC   C1A 3534   0.203   1.803   4.704
  249POPC   D2A 3535   0.354   1.945   5.076
  249POPC   C3A 3536   0.180   1.871   5.443
  249POPC   C4A 3537   0.007   2.218   5.645
  249POPC   C1B 3538   0.652   2.071   4.664
  249POPC   C2B 3539   0.677   2.320   5.041
  249POPC   C3B 3540   0.495   2.303   5.466
  249POPC   C4B 3541   0.513   1.965   5.795
  250POPC   NC3 3542   0.505   8.814   3.875
  250POPC   PO4 3543  11.426   8.442   3.809
  250POPC   GL1 3544   0.209   8.567   4.212
  250POPC   GL2 3545   0.547   8.709   4.354
  250POPC   C1A 3546   0.138   8.827   4.627
  250POPC   D2A 3547   0.332   8.827   5.051
  250POPC   C3A 3548   0.205   9.137   5.390
  250POPC   C4A 3549   0.077   9.163   5.840
  250POPC   C1B 3550   0.772   8.701   4.718
  250POPC   C2B 3551   0.866   8.744   5.102
  250POPC   C3B 3552   0.707   8.979   5.402
  250POPC   C4B 3553   0.453   8.864   5.754
  251POPC   NC3 3554  11.227  11.257   3.709
  251POPC   PO4 3555  10.754   0.144   3.689
  251POPC   GL1 3556  11.176   0.098   4.087
  251POPC   GL2 3557  11.213  11.251   4.212
  251POPC   C1A 3558  11.222   0.045   4.617
  251POPC   D2A 3559  11.057  11.300   5.028
  251POPC   C3A 3560  11.174  11.384   5.487
  251POPC   C4A 3561  11.115   0.003   5.943
  251POPC   C1B 3562  11.215  11.029   4.632
  251POPC   C2B 3563  11.362  10.826   5.016
  251POPC   C3B 3564  11.370  10.863   5.451
  251POPC   C4B 3565  11.170  10.994   5.845
  252POPC   NC3 3566   4.180   1.003   4.182
  252POPC   PO4 3567   4.611   1.426   3.833
  252POPC   GL1 3568   4.641   1.247   4.231
  252POPC   GL2 3569   4.391   1.436   4.366
  252POPC   C1A 3570   4.660   1.143   4.686
  252POPC   D2A 3571   4.542   1.202   5.104
  252POPC   C3A 3572   4.617   1.443   5.456
  252POPC   C4A 3573   4.790   1.243   5.809
  252POPC   C1B 3574   4.176   1.325   4.758
  252POPC   C2B 3575   4.074   1.352   5.196
  252POPC   C3B 3576   4.219   1.134   5.534
  252POPC   C4B 3577   4.153   1.468   5.769
  253POPC   NC3 3578   5.706  10.653   3.943
  253POPC   PO4 3579   6.042  10.078   3.932
  253POPC   GL1 3580   5.922  10.308   4.341
  253POPC   GL2 3581   6.031  10.675   4.351
  253POPC   C1A 3582   5.769  10.149   4.797
  253POPC   D2A 3583   5.567   9.981   5.198
  253POPC   C3A 3584   5.820   9.948   5.562
  253POPC   C4A 3585   5.870  10.290   5.796
  253POPC   C1B 3586   5.645  10.615   4.647
  253POPC   C2B 3587   5.490  10.481   5.093
  253POPC   C3B 3588   5.590  10.629   5.505
  253POPC   C4B 3589   5.927  10.780   5.786
  254POPC   NC3 3590   1.847  10.614   3.560
  254POPC   PO4 3591   2.460  10.906   3.835
  254POPC   GL1 3592   2.365  10.780   4.328
  254POPC   GL2 3593   2.033  10.604   4.482
  254POPC   C1A 3594   2.333  10.836   4.821
  254POPC   D2A 3595   2.009  10.721   5.131
  254POPC   C3A 3596   2.037  10.834   5.522
  254POPC   C4A 3597   2.253  10.693   5.878
  254POPC   C1B 3598   2.084  10.294   4.871
  254POPC   C2B 3599   2.162  10.169   5.287
  254POPC   C3B 3600   1.979  10.348   5.600
  254POPC   C4B 3601   1.632  10.563   5.690
  255POPC   NC3 3602   9.791  11.054   3.539
  255POPC   PO4 3603   9.316  11.502   3.649
  255POPC   GL1 3604   9.495  11.412   4.149
  255POPC   GL2 3605   9.673  11.145   4.392
  255POPC   C1A 3606   9.489   0.021   4.657
  255POPC   D2A 3607   9.413  11.351   5.118
  255POPC   C3A 3608   9.650  11.259   5.547
  255POPC   C4A 3609   9.730  11.386   6.052
  255POPC   C1B 3610   9.622  10.972   4.790
  255POPC   C2B 3611   9.289  10.848   5.073
  255POPC   C3B 3612   9.232  10.905   5.510
  255POPC   C4B 3613   9.500  10.912   5.895
  256POPC   NC3 3614   9.160   4.779   4.024
  256POPC   PO4 3615   8.614   5.013   3.920
  256POPC   GL1 3616   8.727   5.183   4.352
  256POPC   GL2 3617   9.066   5.135   4.413
  256POPC   C1A 3618   8.745   5.056   4.811
  256POPC   D2A 3619   8.810   4.859   5.243
  256POPC   C3A 3620   8.746   4.939   5.695
  256POPC   C4A 3621   8.424   4.914   6.029
  256POPC   C1B 3622   9.201   5.292   4.805
  256POPC   C2B 3623   9.182   5.233   5.246
  256POPC   C3B 3624   9.151   5.257   5.671
  256POPC   C4B 3625   9.243   4.967   6.002
  257POPC   NC3 3626   2.887   3.826   4.176
  257POPC   PO4 3627   2.749   3.253   4.025
  257POPC   GL1 3628   2.644   3.401   4.406
  257POPC   GL2 3629   2.323   3.316   4.462
  257POPC   C1A 3630   2.783   3.561   4.791
  257POPC   D2A 3631   2.961   3.357   5.129
  257POPC   C3A 3632   2.876   3.530   5.527
  257POPC   C4A 3633   3.121   3.435   5.880
  257POPC   C1B 3634   2.440   3.201   4.874
  257POPC   C2B 3635   2.477   3.254   5.301
  257POPC   C3B 3636   2.366   3.504   5.647
  257POPC   C4B 3637   2.609   3.519   5.991
  258POPC   NC3 3638   4.153  10.664   4.059
  258POPC   PO4 3639   4.436  10.093   4.128
  258POPC   GL1 3640   4.101  10.190   4.438
  258POPC   GL2 3641   3.809  10.349   4.335
  258POPC   C1A 3642   4.175  10.189   4.903
  258POPC   D2A 3643   4.528  10.075   5.208
  258POPC   C3A 3644   4.638  10.310   5.589
  258POPC   C4A 3645   4.661  10.651   5.881
  258POPC   C1B 3646   3.897  10.622   4.715
  258POPC   C2B 3647   3.869  10.523   5.152
  258POPC   C3B 3648   4.102  10.303   5.445
  258POPC   C4B 3649   4.212  10.435   5.860
  259POPC   NC3 3650   5.006   0.613   3.964
  259POPC   PO4 3651   5.153   0.021   3.714
  259POPC   GL1 3652   5.154   0.183   4.189
  259POPC   GL2 3653   4.799   0.210   4.306
  259POPC   C1A 3654   5.251   0.474   4.558
  259POPC   D2A 3655   5.343   0.363   5.005
  259POPC   C3A 3656   5.296   0.518   5.456
  259POPC   C4A 3657   5.396   0.353   5.886
  259POPC   C1B 3658   4.853   0.262   4.774
  259POPC   C2B 3659   4.879   0.320   5.234
  259POPC   C3B 3660   4.854   0.333   5.695
  259POPC   C4B 3661   4.829   0.482   6.130
  260POPC   NC3 3662   1.883   7.984   3.986
  260POPC   PO4 3663   1.893   8.656   3.949
  260POPC   GL1 3664   2.045   8.380   4.276
  260POPC   GL2 3665   1.731   8.348   4.419
  260POPC   C1A 3666   2.109   8.292   4.744
  260POPC   D2A 3667   1.811   8.233   5.099
  260POPC   C3A 3668   1.978   8.383   5.487
  260POPC   C4A 3669   2.179   8.554   5.836
  260POPC   C1B 3670   1.752   7.936   4.654
  260POPC   C2B 3671   1.691   7.712   5.069
  260POPC   C3B 3672   1.765   7.866   5.500
  260POPC   C4B 3673   1.574   8.215   5.725
  261POPC   NC3 3674   8.823   2.657   4.055
  261POPC   PO4 3675   9.330   3.006   4.125
  261POPC   GL1 3676   9.107   2.847   4.478
  261POPC   GL2 3677   9.109   2.531   4.471
  261POPC   C1A 3678   9.011   2.822   4.931
  261POPC   D2A 3679   8.979   2.733   5.381
  261POPC   C3A 3680   9.199   3.037   5.677
  261POPC   C4A 3681   9.160   3.168   6.063
  261POPC   C1B 3682   8.678   2.487   4.677
  261POPC   C2B 3683   8.465   2.337   5.070
  261POPC   C3B 3684   8.622   2.363   5.508
  261POPC   C4B 3685   8.600   2.750   5.757
  262POPC   NC3 3686   3.238  10.850   3.931
  262POPC   PO4 3687   3.311  11.500   3.943
  262POPC   GL1 3688   3.193  11.299   4.300
  262POPC   GL2 3689   3.462  11.132   4.329
  262POPC   C1A 3690   3.238  11.323   4.773
  262POPC   D2A 3691   3.233  11.120   5.180
  262POPC   C3A 3692   3.236  11.348   5.556
  262POPC   C4A 3693   3.316  11.419   6.000
  262POPC   C1B 3694   3.713  11.106   4.682
  262POPC   C2B 3695   3.719  11.006   5.107
  262POPC   C3B 3696   3.651  11.033   5.526
  262POPC   C4B 3697   3.804  10.689   5.711
  263POPC   NC3 3698  11.221   2.098   3.950
  263POPC   PO4 3699   0.120   1.579   3.881
  263POPC   GL1 3700  11.286   1.696   4.273
  263POPC   GL2 3701  10.950   1.927   4.320
  263POPC   C1A 3702  11.203   1.866   4.736
  263POPC   D2A 3703  11.330   2.067   5.108
  263POPC   C3A 3704  11.176   1.850   5.470
  263POPC   C4A 3705  11.390   1.800   5.898
  263POPC   C1B 3706  10.746   2.115   4.698
  263POPC   C2B 3707  10.818   2.072   5.131
  263POPC   C3B 3708  10.713   2.100   5.549
  263POPC   C4B 3709  11.014   2.165   5.847
  264POPC   NC3 3710   4.371   1.825   3.766
  264POPC   PO4 3711   3.901   1.396   4.067
  264POPC   GL1 3712   3.926   1.662   4.434
  264POPC   GL2 3713   4.166   1.869   4.231
  264POPC   C1A 3714   3.917   1.734   4.895
  264POPC   D2A 3715   4.024   2.022   5.202
  264POPC   C3A 3716   4.122   1.937   5.594
  264POPC   C4A 3717   3.864   1.872   5.932
  264POPC   C1B 3718   4.303   1.945   4.660
  264POPC   C2B 3719   4.426   1.734   5.064
  264POPC   C3B 3720   4.613   1.965   5.433
  264POPC   C4B 3721   4.723   2.235   5.806
  265POPC   NC3 3722   1.125   6.639   3.745
  265POPC   PO4 3723   1.484   6.428   4.206
  265POPC   GL1 3724   1.307   6.402   4.555
  265POPC   GL2 3725   0.985   6.374   4.442
  265POPC   C1A 3726   1.298   6.651   4.902
  265POPC   D2A 3727   1.280   6.864   5.265
  265POPC   C3A 3728   1.303   6.653   5.641
  265POPC   C4A 3729   1.524   6.871   5.988
  265POPC   C1B 3730   0.827   6.489   4.831
  265POPC   C2B 3731   0.857   6.536   5.267
  265POPC   C3B 3732   0.834   6.193   5.498
  265POPC   C4B 3733   1.031   6.250   5.872
  266POPC   NC3 3734   1.374   6.079   3.940
  266POPC   PO4 3735   1.158   5.458   3.945
  266POPC   GL1 3736   1.302   5.671   4.291
  266POPC   GL2 3737   1.034   5.882   4.292
  266POPC   C1A 3738   1.397   5.518   4.711
  266POPC   D2A 3739   1.259   5.672   5.124
  266POPC   C3A 3740   1.538   5.660   5.448
  266POPC   C4A 3741   1.516   5.480   5.825
  266POPC   C1B 3742   1.123   5.960   4.720
  266POPC   C2B 3743   1.195   6.198   5.086
  266POPC   C3B 3744   1.351   6.125   5.492
  266POPC   C4B 3745   1.072   5.759   5.634
  267POPC   NC3 3746   7.258   2.174   3.917
  267POPC   PO4 3747   7.106   1.559   3.610
  267POPC   GL1 3748   7.236   1.689   4.059
  267POPC   GL2 3749   7.575   1.839   4.173
  267POPC   C1A 3750   7.154   1.909   4.509
  267POPC   D2A 3751   7.178   1.975   4.990
  267POPC   C3A 3752   6.873   1.929   5.331
  267POPC   C4A 3753   7.030   1.756   5.719
  267POPC   C1B 3754   7.655   1.923   4.632
  267POPC   C2B 3755   7.658   1.795   5.069
  267POPC   C3B 3756   7.446   1.941   5.444
  267POPC   C4B 3757   7.153   2.248   5.599
  268POPC   NC3 3758  10.295   8.288   3.658
  268POPC   PO4 3759  10.047   7.745   3.867
  268POPC   GL1 3760  10.370   7.867   4.206
  268POPC   GL2 3761  10.420   8.241   4.280
  268POPC   C1A 3762  10.177   7.918   4.649
  268POPC   D2A 3763   9.944   8.089   4.989
  268POPC   C3A 3764  10.096   7.964   5.384
  268POPC   C4A 3765  10.132   7.943   5.787
  268POPC   C1B 3766  10.415   8.352   4.739
  268POPC   C2B 3767  10.310   8.371   5.180
  268POPC   C3B 3768  10.535   8.210   5.561
  268POPC   C4B 3769  10.587   8.406   5.965
  269POPC   NC3 3770   2.763   9.471   3.835
  269POPC   PO4 3771   2.189   9.856   3.851
  269POPC   GL1 3772   2.538   9.793   4.203
  269POPC   GL2 3773   2.888   9.636   4.303
  269POPC   C1A 3774   2.556   9.590   4.659
  269POPC   D2A 3775   2.760   9.695   5.060
  269POPC   C3A 3776   2.482   9.771   5.382
  269POPC   C4A 3777   2.338   9.507   5.678
  269POPC   C1B 3778   3.022   9.384   4.703
  269POPC   C2B 3779   3.015   9.242   5.153
  269POPC   C3B 3780   2.979   9.546   5.519
  269POPC   C4B 3781   2.780   9.803   5.816
  270POPC   NC3 3782   3.865  11.010   3.709
  270POPC   PO4 3783   4.542  10.758   3.812
  270POPC   GL1 3784   4.565  10.930   4.236
  270POPC   GL2 3785   4.533  11.266   4.184
  270POPC   C1A 3786   4.404  10.811   4.670
  270POPC   D2A 3787   4.382  10.612   5.081
  270POPC   C3A 3788   4.193  10.855   5.392
  270POPC   C4A 3789   4.262  10.950   5.809
  270POPC   C1B 3790   4.195  11.240   4.513
  270POPC   C2B 3791   4.158  11.216   4.968
  270POPC   C3B 3792   4.036  11.356   5.389
  270POPC   C4B 3793   3.941  11.348   5.840
  271POPC   NC3 3794   2.839   6.611   3.892
  271POPC   PO4 3795   2.940   7.189   4.029
  271POPC   GL1 3796   2.854   6.824   4.371
  271POPC   GL2 3797   2.550   6.619   4.320
  271POPC   C1A 3798   2.925   6.594   4.812
  271POPC   D2A 3799   3.029   6.427   5.271
  271POPC   C3A 3800   2.834   6.626   5.648
  271POPC   C4A 3801   2.451   6.598   5.910
  271POPC   C1B 3802   2.520   6.320   4.618
  271POPC   C2B 3803   2.670   6.195   5.012
  271POPC   C3B 3804   2.542   6.264   5.434
  271POPC   C4B 3805   2.247   6.161   5.753
  272POPC   NC3 3806   6.974   3.056   4.102
  272POPC   PO4 3807   6.814   2.381   3.968
  272POPC   GL1 3808   7.079   2.551   4.326
  272POPC   GL2 3809   7.451   2.472   4.290
  272POPC   C1A 3810   7.076   2.775   4.764
  272POPC   D2A 3811   7.278   2.846   5.195
  272POPC   C3A 3812   7.113   2.773   5.640
  272POPC   C4A 3813   7.164   2.958   6.090
  272POPC   C1B 3814   7.390   2.359   4.719
  272POPC   C2B 3815   7.466   2.365   5.160
  272POPC   C3B 3816   7.595   2.475   5.572
  272POPC   C4B 3817   7.767   2.402   5.977
  273POPC   NC3 3818   1.781   9.909   3.632
  273POPC   PO4 3819   2.089  10.146   4.271
  273POPC   GL1 3820   2.135   9.787   4.513
  273POPC   GL2 3821   2.163   9.456   4.287
  273POPC   C1A 3822   2.154   9.771   4.929
  273POPC   D2A 3823   1.792   9.862   5.095
  273POPC   C3A 3824   1.896   9.692   5.430
  273POPC   C4A 3825   2.040   9.880   5.762
  273POPC   C1B 3826   2.044   9.323   4.711
  273POPC   C2B 3827   1.991   9.241   5.136
  273POPC   C3B 3828   1.748   9.195   5.487
  273POPC   C4B 3829   1.813   9.428   5.859
  274POPC   NC3 3830   7.275   8.828   3.858
  274POPC   PO4 3831   7.074   9.410   4.108
  274POPC   GL1 3832   7.322   9.140   4.424
  274POPC   GL2 3833   7.481   8.819   4.319
  274POPC   C1A 3834   7.306   8.990   4.877
  274POPC   D2A 3835   7.345   8.848   5.303
  274POPC   C3A 3836   7.126   9.069   5.689
  274POPC   C4A 3837   6.825   9.064   6.088
  274POPC   C1B 3838   7.734   8.868   4.647
  274POPC   C2B 3839   7.833   8.786   5.040
  274POPC   C3B 3840   7.832   8.778   5.463
  274POPC   C4B 3841   7.512   8.699   5.754
  275POPC   NC3 3842   2.822   1.273   3.725
  275POPC   PO4 3843   2.615   1.799   3.972
  275POPC   GL1 3844   2.691   1.492   4.272
  275POPC   GL2 3845   2.909   1.251   4.216
  275POPC   C1A 3846   2.523   1.427   4.689
  275POPC   D2A 3847   2.349   1.320   5.077
  275POPC   C3A 3848   2.290   1.534   5.427
  275POPC   C4A 3849   2.366   1.422   5.814
  275POPC   C1B 3850   2.973   1.175   4.641
  275POPC   C2B 3851   2.793   1.077   5.052
  275POPC   C3B 3852   2.702   1.201   5.490
  275POPC   C4B 3853   2.780   1.161   5.961
  276POPC   NC3 3854   3.737   2.564   3.994
  276POPC   PO4 3855   3.157   2.472   3.680
  276POPC   GL1 3856   3.109   2.540   4.221
  276POPC   GL2 3857   3.439   2.550   4.439
  276POPC   C1A 3858   2.997   2.471   4.707
  276POPC   D2A 3859   3.169   2.392   5.164
  276POPC   C3A 3860   3.254   2.631   5.571
  276POPC   C4A 3861   3.468   2.697   5.997
  276POPC   C1B 3862   3.348   2.814   4.830
  276POPC   C2B 3863   3.385   3.042   5.233
  276POPC   C3B 3864   3.468   3.093   5.677
  276POPC   C4B 3865   3.854   3.081   5.947
  277POPC   NC3 3866   9.011  11.137   3.558
  277POPC   PO4 3867   9.184  10.905   4.167
  277POPC   GL1 3868   8.767  10.978   4.370
  277POPC   GL2 3869   8.777  11.313   4.332
  277POPC   C1A 3870   8.628  10.704   4.712
  277POPC   D2A 3871   8.808  10.631   5.125
  277POPC   C3A 3872   8.683  10.741   5.543
  277POPC   C4A 3873   8.829  11.058   5.781
  277POPC   C1B 3874   9.029  11.184   4.746
  277POPC   C2B 3875   8.892  11.175   5.181
  277POPC   C3B 3876   9.072  11.403   5.514
  277POPC   C4B 3877   9.032   0.268   5.792
  278POPC   NC3 3878   6.354   2.551   4.000
  278POPC   PO4 3879   6.551   3.180   4.068
  278POPC   GL1 3880   6.619   2.798   4.402
  278POPC   GL2 3881   6.573   2.416   4.430
  278POPC   C1A 3882   6.578   2.705   4.873
  278POPC   D2A 3883   6.760   2.891   5.248
  278POPC   C3A 3884   6.566   2.922   5.661
  278POPC   C4A 3885   6.667   3.128   6.051
  278POPC   C1B 3886   6.873   2.301   4.736
  278POPC   C2B 3887   6.959   2.427   5.156
  278POPC   C3B 3888   6.700   2.451   5.528
  278POPC   C4B 3889   6.339   2.471   5.842
  279POPC   NC3 3890   0.392   2.787   3.678
  279POPC   PO4 3891   0.147   3.088   4.156
  279POPC   GL1 3892   0.502   2.867   4.337
  279POPC   GL2 3893   0.482   2.484   4.362
  279POPC   C1A 3894   0.629   2.733   4.760
  279POPC   D2A 3895   0.499   2.784   5.165
  279POPC   C3A 3896   0.756   2.961   5.470
  279POPC   C4A 3897   0.695   2.793   5.838
  279POPC   C1B 3898   0.232   2.365   4.771
  279POPC   C2B 3899   0.084   2.492   5.180
  279POPC   C3B 3900   0.180   2.702   5.566
  279POPC   C4B 3901   0.270   2.519   5.962
  280POPC   NC3 3902  11.112   3.551   3.756
  280POPC   PO4 3903   0.014   3.095   3.625
  280POPC   GL1 3904  11.445   3.504   4.096
  280POPC   GL2 3905  11.130   3.453   4.258
  280POPC   C1A 3906   0.001   3.641   4.590
  280POPC   D2A 3907   0.041   3.386   4.992
  280POPC   C3A 3908   0.010   3.580   5.379
  280POPC   C4A 3909  11.336   3.514   5.800
  280POPC   C1B 3910  11.011   3.685   4.603
  280POPC   C2B 3911  11.059   3.516   4.989
  280POPC   C3B 3912  11.003   3.489   5.399
  280POPC   C4B 3913  10.767   3.784   5.580
  281POPC   NC3 3914   3.373  10.142   4.140
  281POPC   PO4 3915   3.691  10.758   4.073
  281POPC   GL1 3916   3.331  10.625   4.363
  281POPC   GL2 3917   3.315  10.342   4.589
  281POPC   C1A 3918   3.257  10.819   4.745
  281POPC   D2A 3919   3.355  10.603   5.099
  281POPC   C3A 3920   3.248  10.692   5.515
  281POPC   C4A 3921   3.351  10.523   5.941
  281POPC   C1B 3922   3.668  10.180   4.795
  281POPC   C2B 3923   3.528  10.128   5.145
  281POPC   C3B 3924   3.562  10.291   5.500
  281POPC   C4B 3925   3.776  10.183   5.835
  282POPC   NC3 3926   3.765   0.086   4.037
  282POPC   PO4 3927   3.963   0.691   3.906
  282POPC   GL1 3928   3.732   0.540   4.275
  282POPC   GL2 3929   3.404   0.399   4.259
  282POPC   C1A 3930   3.816   0.322   4.673
  282POPC   D2A 3931   3.681   0.014   5.006
  282POPC   C3A 3932   3.625   0.158   5.443
  282POPC   C4A 3933   3.700   0.295   5.864
  282POPC   C1B 3934   3.288   0.328   4.697
  282POPC   C2B 3935   3.491   0.507   5.071
  282POPC   C3B 3936   3.416   0.642   5.510
  282POPC   C4B 3937   3.175   0.343   5.757
  283POPC   NC3 3938   4.172   9.699   4.011
  283POPC   PO4 3939   4.850   9.617   3.848
  283POPC   GL1 3940   4.609   9.542   4.303
  283POPC   GL2 3941   4.315   9.727   4.470
  283POPC   C1A 3942   4.534   9.487   4.821
  283POPC   D2A 3943   4.737   9.506   5.233
  283POPC   C3A 3944   4.537   9.490   5.662
  283POPC   C4A 3945   4.613   9.672   6.099
  283POPC   C1B 3946   4.042   9.716   4.795
  283POPC   C2B 3947   3.901   9.818   5.180
  283POPC   C3B 3948   3.968   9.759   5.594
  283POPC   C4B 3949   4.308   9.941   5.776
  284POPC   NC3 3950  10.323  10.284   3.893
  284POPC   PO4 3951  10.097  10.913   3.858
  284POPC   GL1 3952  10.177  10.791   4.236
  284POPC   GL2 3953  10.451  10.569   4.326
  284POPC   C1A 3954  10.133  10.868   4.652
  284POPC   D2A 3955  10.403  10.663   4.921
  284POPC   C3A 3956  10.376  10.764   5.320
  284POPC   C4A 3957  10.436  10.766   5.731
  284POPC   C1B 3958  10.558  10.244   4.640
  284POPC   C2B 3959  10.434  10.165   5.078
  284POPC   C3B 3960  10.504  10.284   5.509
  284POPC   C4B 3961  10.814  10.220   5.800
  285POPC   NC3 3962   0.978   5.022   3.938
  285POPC   PO4 3963   0.387   5.334   3.994
  285POPC   GL1 3964   0.736   5.348   4.328
  285POPC   GL2 3965   1.091   5.202   4.393
  285POPC   C1A 3966   0.867   5.488   4.740
  285POPC   D2A 3967   1.111   5.195   4.997
  285POPC   C3A 3968   1.194   5.244   5.442
  285POPC   C4A 3969   0.885   5.067   5.694
  285POPC   C1B 3970   1.342   4.899   4.637
  285POPC   C2B 3971   1.435   4.806   5.093
  285POPC   C3B 3972   1.339   4.734   5.550
  285POPC   C4B 3973   1.535   4.975   5.869
  286POPC   NC3 3974   7.214   9.820   3.973
  286POPC   PO4 3975   7.926   9.887   3.893
  286POPC   GL1 3976   7.683   9.976   4.310
  286POPC   GL2 3977   7.459   9.684   4.393
  286POPC   C1A 3978   7.678   9.882   4.801
  286POPC   D2A 3979   7.347   9.889   5.138
  286POPC   C3A 3980   7.498  10.000   5.551
  286POPC   C4A 3981   7.499   9.716   5.877
  286POPC   C1B 3982   7.311   9.501   4.808
  286POPC   C2B 3983   7.330   9.387   5.270
  286POPC   C3B 3984   7.101   9.604   5.579
  286POPC   C4B 3985   6.709   9.505   5.791
  287POPC   NC3 3986   7.358   0.239   3.848
  287POPC   PO4 3987   7.692   0.859   3.858
  287POPC   GL1 3988   7.770   0.665   4.258
  287POPC   GL2 3989   7.451   0.523   4.262
  287POPC   C1A 3990   7.750   0.460   4.706
  287POPC   D2A 3991   7.784   0.285   5.199
  287POPC   C3A 3992   7.682   0.621   5.562
  287POPC   C4A 3993   7.721   0.713   6.065
  287POPC   C1B 3994   7.240   0.602   4.626
  287POPC   C2B 3995   7.369   0.547   5.047
  287POPC   C3B 3996   7.274   0.343   5.420
  287POPC   C4B 3997   7.076   0.658   5.677
  288POPC   NC3 3998   5.047   9.220   4.002
  288POPC   PO4 3999   4.858   8.622   3.740
  288POPC   GL1 4000   4.706   8.694   4.197
  288POPC   GL2 4001   4.736   9.022   4.340
  288POPC   C1A 4002   4.655   8.528   4.666
  288POPC   D2A 4003   4.900   8.596   5.069
  288POPC   C3A 4004   4.860   8.650   5.534
  288POPC   C4A 4005   5.010   8.764   5.984
  288POPC   C1B 4006   5.033   8.896   4.671
  288POPC   C2B 4007   5.027   9.079   5.120
  288POPC   C3B 4008   4.973   9.175   5.566
  288POPC   C4B 4009   5.330   9.153   5.843
  289POPC   NC3 4010   5.052   1.275   3.926
  289POPC   PO4 4011   4.581   0.759   4.070
  289POPC   GL1 4012   4.790   0.713   4.433
  289POPC   GL2 4013   5.048   0.951   4.357
  289POPC   C1A 4014   4.955   0.757   4.847
  289POPC   D2A 4015   5.039   1.062   5.079
  289POPC   C3A 4016   4.960   0.931   5.447
  289POPC   C4A 4017   5.094   0.799   5.833
  289POPC   C1B 4018   5.111   1.350   4.626
  289POPC   C2B 4019   4.942   1.549   5.026
  289POPC   C3B 4020   5.126   1.453   5.447
  289POPC   C4B 4021   5.439   1.530   5.762
  290POPC   NC3 4022   4.382   7.546   4.149
  290POPC   PO4 4023   3.802   7.740   4.066
  290POPC   GL1 4024   4.006   7.476   4.494
  290POPC   GL2 4025   4.281   7.183   4.485
  290POPC   C1A 4026   4.108   7.457   4.972
  290POPC   D2A 4027   4.333   7.751   5.265
  290POPC   C3A 4028   4.258   7.622   5.681
  290POPC   C4A 4029   3.958   7.288   5.743
  290POPC   C1B 4030   4.389   7.024   4.892
  290POPC   C2B 4031   4.537   7.248   5.246
  290POPC   C3B 4032   4.480   7.150   5.682
  290POPC   C4B 4033   4.187   6.853   5.911
  291POPC   NC3 4034   0.385   0.531   3.841
  291POPC   PO4 4035   0.114  11.469   3.824
  291POPC   GL1 4036   0.180   0.099   4.286
  291POPC   GL2 4037   0.353   0.430   4.329
  291POPC   C1A 4038   0.562   0.079   4.620
  291POPC   D2A 4039   0.776   0.265   4.988
  291POPC   C3A 4040   0.676   0.127   5.422
  291POPC   C4A 4041   0.953   0.233   5.759
  291POPC   C1B 4042   0.515   0.607   4.706
  291POPC   C2B 4043   0.334   0.628   5.137
  291POPC   C3B 4044   0.435   0.568   5.600
  291POPC   C4B 4045   0.340   0.640   6.041
  292POPC   NC3 4046  10.355   2.241   3.470
  292POPC   PO4 4047  10.186   1.673   3.862
  292POPC   GL1 4048  10.201   1.978   4.206
  292POPC   GL2 4049  10.490   2.165   4.250
  292POPC   C1A 4050  10.180   2.017   4.660
  292POPC   D2A 4051  10.340   1.882   5.044
  292POPC   C3A 4052  10.101   1.988   5.397
  292POPC   C4A 4053  10.183   2.175   5.766
  292POPC   C1B 4054  10.529   1.700   4.478
  292POPC   C2B 4055  10.742   1.628   4.880
  292POPC   C3B 4056  10.698   1.605   5.347
  292POPC   C4B 4057  10.411   1.715   5.715
  293POPC   NC3 4058   1.366   1.692   3.988
  293POPC   PO4 4059   1.539   2.280   3.737
  293POPC   GL1 4060   1.405   2.278   4.204
  293POPC   GL2 4061   1.080   2.113   4.196
  293POPC   C1A 4062   1.503   2.237   4.686
  293POPC   D2A 4063   1.683   2.245   5.141
  293POPC   C3A 4064   1.397   2.061   5.482
  293POPC   C4A 4065   1.312   2.058   5.937
  293POPC   C1B 4066   1.126   1.893   4.601
  293POPC   C2B 4067   1.107   2.049   5.026
  293POPC   C3B 4068   0.874   1.948   5.396
  293POPC   C4B 4069   1.018   1.692   5.738
  294POPC   NC3 4070   0.434  10.504   3.687
  294POPC   PO4 4071   0.651  10.062   4.049
  294POPC   GL1 4072   0.575  10.450   4.269
  294POPC   GL2 4073   0.251  10.525   4.215
  294POPC   C1A 4074   0.678  10.576   4.685
  294POPC   D2A 4075   0.690  10.246   4.990
  294POPC   C3A 4076   0.700  10.429   5.364
  294POPC   C4A 4077   0.659  10.364   5.777
  294POPC   C1B 4078   0.276  10.275   4.641
  294POPC   C2B 4079   0.168  10.405   5.070
  294POPC   C3B 4080   0.216  10.447   5.526
  294POPC   C4B 4081   0.205  10.291   5.978
  295POPC   NC3 4082   3.012   2.888   3.853
  295POPC   PO4 4083   2.430   2.541   3.829
  295POPC   GL1 4084   2.599   2.570   4.202
  295POPC   GL2 4085   2.615   2.877   4.343
  295POPC   C1A 4086   2.499   2.453   4.590
  295POPC   D2A 4087   2.529   2.655   4.944
  295POPC   C3A 4088   2.669   2.411   5.294
  295POPC   C4A 4089   2.712   2.575   5.711
  295POPC   C1B 4090   2.865   2.979   4.705
  295POPC   C2B 4091   2.928   2.852   5.151
  295POPC   C3B 4092   2.904   3.024   5.558
  295POPC   C4B 4093   3.017   2.951   5.985
  296POPC   NC3 4094   1.290  11.008   3.802
  296POPC   PO4 4095   0.923   0.113   3.925
  296POPC   GL1 4096   0.960  11.337   4.273
  296POPC   GL2 4097   1.103  10.986   4.292
  296POPC   C1A 4098   1.089  11.427   4.682
  296POPC   D2A 4099   1.362  11.353   5.033
  296POPC   C3A 4100   1.146  11.399   5.410
  296POPC   C4A 4101   0.978  11.214   5.801
  296POPC   C1B 4102   1.274  10.902   4.732
  296POPC   C2B 4103   1.480  10.861   5.166
  296POPC   C3B 4104   1.381  10.982   5.586
  296POPC   C4B 4105   1.412  10.890   6.026
  297POPC   NC3 4106   9.928   8.125   4.108
  297POPC   PO4 4107   9.332   7.883   3.864
  297POPC   GL1 4108   9.509   7.886   4.280
  297POPC   GL2 4109   9.455   8.247   4.288
  297POPC   C1A 4110   9.668   7.773   4.711
  297POPC   D2A 4111   9.856   7.595   5.127
  297POPC   C3A 4112   9.615   7.794   5.469
  297POPC   C4A 4113   9.706   8.180   5.664
  297POPC   C1B 4114   9.481   8.328   4.731
  297POPC   C2B 4115   9.474   8.180   5.164
  297POPC   C3B 4116   9.234   8.296   5.539
  297POPC   C4B 4117   9.079   8.203   5.960
  298POPC   NC3 4118   6.433  11.360   3.897
  298POPC   PO4 4119   6.492  10.740   3.903
  298POPC   GL1 4120   6.523  10.970   4.291
  298POPC   GL2 4121   6.532  11.325   4.381
  298POPC   C1A 4122   6.402  10.968   4.720
  298POPC   D2A 4123   6.588  11.072   5.104
  298POPC   C3A 4124   6.349  10.918   5.442
  298POPC   C4A 4125   6.498  10.903   5.870
  298POPC   C1B 4126   6.475  11.477   4.768
  298POPC   C2B 4127   6.516   0.060   5.165
  298POPC   C3B 4128   6.558  11.363   5.555
  298POPC   C4B 4129   6.408   0.130   5.900
  299POPC   NC3 4130  11.069   6.905   3.902
  299POPC   PO4 4131  10.923   6.218   3.741
  299POPC   GL1 4132  10.981   6.475   4.200
  299POPC   GL2 4133  11.211   6.692   4.316
  299POPC   C1A 4134  10.883   6.550   4.692
  299POPC   D2A 4135  10.761   6.385   5.127
  299POPC   C3A 4136  10.868   6.637   5.530
  299POPC   C4A 4137  10.951   6.485   5.982
  299POPC   C1B 4138  11.385   6.519   4.670
  299POPC   C2B 4139   0.014   6.476   5.068
  299POPC   C3B 4140  11.369   6.591   5.429
  299POPC   C4B 4141  11.363   6.770   5.820
  300POPC   NC3 4142  11.476   1.115   3.826
  300POPC   PO4 4143  10.817   0.983   3.883
  300POPC   GL1 4144  11.091   0.923   4.233
  300POPC   GL2 4145  11.371   1.154   4.307
  300POPC   C1A 4146  11.088   0.941   4.690
  300POPC   D2A 4147  11.027   1.254   5.044
  300POPC   C3A 4148  11.003   1.166   5.484
  300POPC   C4A 4149  11.067   0.872   5.821
  300POPC   C1B 4150  11.401   1.379   4.693
  300POPC   C2B 4151  11.449   1.558   5.107
  300POPC   C3B 4152  11.480   1.396   5.531
  300POPC   C4B 4153  11.277   1.314   5.949
  301POPC   NC3 4154  10.789   5.202   3.923
  301POPC   PO4 4155  10.250   4.819   3.784
  301POPC   GL1 4156  10.267   4.878   4.251
  301POPC   GL2 4157  10.449   5.173   4.394
  301POPC   C1A 4158  10.290   4.814   4.729
  301POPC   D2A 4159  10.169   4.705   5.166
  301POPC   C3A 4160  10.433   4.700   5.562
  301POPC   C4A 4161  10.212   4.874   5.942
  301POPC   C1B 4162  10.623   5.212   4.833
  301POPC   C2B 4163  10.559   5.092   5.235
  301POPC   C3B 4164  10.230   5.182   5.507
  301POPC   C4B 4165  10.249   5.407   5.862
  302POPC   NC3 4166   9.659   1.085   3.880
  302POPC   PO4 4167   9.426   1.675   3.857
  302POPC   GL1 4168   9.562   1.424   4.255
  302POPC   GL2 4169   9.477   1.056   4.346
  302POPC   C1A 4170   9.541   1.387   4.717
  302POPC   D2A 4171   9.748   1.229   5.077
  302POPC   C3A 4172   9.494   1.182   5.464
  302POPC   C4A 4173   9.486   1.346   5.899
  302POPC   C1B 4174   9.880   0.985   4.573
  302POPC   C2B 4175  10.120   0.871   4.943
  302POPC   C3B 4176  10.065   0.982   5.393
  302POPC   C4B 4177   9.806   0.957   5.800
  303POPC   NC3 4178   9.621  10.897   3.979
  303POPC   PO4 4179   9.866  10.224   3.902
  303POPC   GL1 4180   9.954  10.326   4.296
  303POPC   GL2 4181   9.732  10.613   4.396
  303POPC   C1A 4182  10.066  10.343   4.695
  303POPC   D2A 4183   9.891  10.571   5.023
  303POPC   C3A 4184  10.019  10.377   5.380
  303POPC   C4A 4185  10.014  10.479   5.794
  303POPC   C1B 4186   9.540  10.336   4.683
  303POPC   C2B 4187   9.416  10.358   5.118
  303POPC   C3B 4188   9.555  10.496   5.542
  303POPC   C4B 4189   9.529  10.394   5.986
  304POPC   NC3 4190   6.645   1.643   3.681
  304POPC   PO4 4191   6.261   1.187   3.831
  304POPC   GL1 4192   6.491   1.053   4.314
  304POPC   GL2 4193   6.818   0.793   4.324
  304POPC   C1A 4194   6.541   1.222   4.794
  304POPC   D2A 4195   6.717   1.454   5.196
  304POPC   C3A 4196   6.547   1.610   5.637
  304POPC   C4A 4197   6.705   1.629   6.091
  304POPC   C1B 4198   6.761   0.763   4.748
  304POPC   C2B 4199   6.810   0.927   5.170
  304POPC   C3B 4200   6.620   0.842   5.542
  304POPC   C4B 4201   6.465   1.141   5.821
  305POPC   NC3 4202  10.888   0.499   3.970
  305POPC   PO4 4203   0.012   0.694   4.039
  305POPC   GL1 4204  11.336   0.500   4.410
  305POPC   GL2 4205  10.972   0.469   4.479
  305POPC   C1A 4206  11.305   0.509   4.874
  305POPC   D2A 4207  11.345   0.875   5.130
  305POPC   C3A 4208  11.462   0.833   5.511
  305POPC   C4A 4209  11.421   0.520   5.787
  305POPC   C1B 4210  10.752   0.215   4.827
  305POPC   C2B 4211  10.802   0.192   5.220
  305POPC   C3B 4212  11.134   0.406   5.378
  305POPC   C4B 4213  10.917   0.389   5.720
  306POPC   NC3 4214   0.854   9.670   3.922
  306POPC   PO4 4215   0.326   9.234   3.891
  306POPC   GL1 4216   0.648   9.206   4.256
  306POPC   GL2 4217   0.805   9.527   4.414
  306POPC   C1A 4218   0.601   9.173   4.737
  306POPC   D2A 4219   0.546   9.445   5.106
  306POPC   C3A 4220   0.614   9.467   5.549
  306POPC   C4A 4221   0.365   9.555   5.905
  306POPC   C1B 4222   0.566   9.813   4.720
  306POPC   C2B 4223   0.329   9.913   5.134
  306POPC   C3B 4224   0.479   9.959   5.565
  306POPC   C4B 4225   0.676   9.927   6.005
  307POPC   NC3 4226  10.798   6.021   4.145
  307POPC   PO4 4227  10.180   5.809   3.903
  307POPC   GL1 4228  10.469   5.657   4.240
  307POPC   GL2 4229  10.307   5.870   4.421
  307POPC   C1A 4230  10.703   5.691   4.685
  307POPC   D2A 4231  10.844   5.817   5.105
  307POPC   C3A 4232  10.551   5.710   5.400
  307POPC   C4A 4233  10.523   5.861   5.804
  307POPC   C1B 4234  10.213   5.545   4.731
  307POPC   C2B 4235  10.098   5.591   5.175
  307POPC   C3B 4236  10.051   5.796   5.591
  307POPC   C4B 4237  10.095   6.122   5.952
  308POPC   NC3 4238  10.601  11.244   3.942
  308POPC   PO4 4239   9.898  11.469   3.754
  308POPC   GL1 4240  10.045  11.415   4.202
  308POPC   GL2 4241  10.323  11.262   4.344
  308POPC   C1A 4242   9.998  11.405   4.694
  308POPC   D2A 4243   9.954  11.496   5.161
  308POPC   C3A 4244  10.170  11.222   5.452
  308POPC   C4A 4245  10.027  11.040   5.837
  308POPC   C1B 4246  10.608  11.117   4.654
  308POPC   C2B 4247  10.532  11.229   5.063
  308POPC   C3B 4248  10.703  11.177   5.457
  308POPC   C4B 4249  10.529  11.275   5.823
  309POPC   NC3 4250   0.646   4.007   3.936
  309POPC   PO4 4251   0.222   4.522   4.029
  309POPC   GL1 4252   0.264   4.240   4.306
  309POPC   GL2 4253   0.584   4.276   4.358
  309POPC   C1A 4254   0.211   4.121   4.693
  309POPC   D2A 4255   0.159   4.349   5.048
  309POPC   C3A 4256   0.252   4.138   5.414
  309POPC   C4A 4257   0.223   4.361   5.781
  309POPC   C1B 4258   0.496   4.536   4.704
  309POPC   C2B 4259   0.647   4.297   5.050
  309POPC   C3B 4260   0.814   4.053   5.360
  309POPC   C4B 4261   0.661   4.100   5.773
  310POPC   NC3 4262   9.940   4.540   3.621
  310POPC   PO4 4263   9.379   4.353   3.939
  310POPC   GL1 4264   9.744   4.470   4.207
  310POPC   GL2 4265   9.787   4.175   4.409
  310POPC   C1A 4266   9.803   4.592   4.688
  310POPC   D2A 4267   9.807   4.305   5.092
  310POPC   C3A 4268   9.696   4.473   5.512
  310POPC   C4A 4269   9.703   4.694   5.941
  310POPC   C1B 4270   9.456   4.200   4.720
  310POPC   C2B 4271   9.253   4.249   5.141
  310POPC   C3B 4272   9.275   4.108   5.561
  310POPC   C4B 4273   9.374   4.322   5.904
  311POPC   NC3 4274   6.369  10.344   4.081
  311POPC   PO4 4275   6.984  10.224   3.884
  311POPC   GL1 4276   6.830  10.542   4.263
  311POPC   GL2 4277   6.501  10.498   4.528
  311POPC   C1A 4278   6.883  10.734   4.722
  311POPC   D2A 4279   6.662  10.575   5.129
  311POPC   C3A 4280   6.826  10.654   5.576
  311POPC   C4A 4281   6.767  10.430   6.012
  311POPC   C1B 4282   6.133  10.546   4.846
  311POPC   C2B 4283   6.052  10.516   5.304
  311POPC   C3B 4284   6.339  10.448   5.676
  311POPC   C4B 4285   6.275  10.370   6.119
  312POPC   NC3 4286   8.199   0.574   3.940
  312POPC   PO4 4287   7.829   0.004   3.840
  312POPC   GL1 4288   8.026   0.140   4.259
  312POPC   GL2 4289   8.405   0.204   4.285
  312POPC   C1A 4290   8.087   0.075   4.728
  312POPC   D2A 4291   8.343   0.104   5.118
  312POPC   C3A 4292   8.118   0.055   5.556
  312POPC   C4A 4293   7.939   0.304   5.857
  312POPC   C1B 4294   8.409   0.451   4.693
  312POPC   C2B 4295   8.158   0.570   4.997
  312POPC   C3B 4296   8.205   0.533   5.434
  312POPC   C4B 4297   8.133   0.808   5.772
  313POPC   NC3 4298   8.237   1.272   3.916
  313POPC   PO4 4299   8.497   0.816   4.205
  313POPC   GL1 4300   8.165   1.016   4.396
  313POPC   GL2 4301   8.165   1.386   4.400
  313POPC   C1A 4302   8.177   1.103   4.835
  313POPC   D2A 4303   8.196   0.999   5.253
  313POPC   C3A 4304   8.473   1.115   5.548
  313POPC   C4A 4305   8.270   1.472   5.698
  313POPC   C1B 4306   7.818   1.433   4.697
  313POPC   C2B 4307   7.678   1.258   5.094
  313POPC   C3B 4308   7.795   1.134   5.506
  313POPC   C4B 4309   7.866   1.230   5.927
  314POPC   NC3 4310   9.334   3.443   4.015
  314POPC   PO4 4311   8.619   3.162   4.017
  314POPC   GL1 4312   8.936   3.297   4.344
  314POPC   GL2 4313   8.960   3.636   4.407
  314POPC   C1A 4314   8.913   3.337   4.830
  314POPC   D2A 4315   8.979   3.241   5.279
  314POPC   C3A 4316   8.742   3.266   5.700
  314POPC   C4A 4317   8.796   3.520   6.075
  314POPC   C1B 4318   9.140   3.804   4.820
  314POPC   C2B 4319   9.049   3.752   5.261
  314POPC   C3B 4320   8.802   3.900   5.634
  314POPC   C4B 4321   8.960   4.025   6.031
  315POPC   NC3 4322   6.813  10.565   3.630
  315POPC   PO4 4323   7.458  10.587   3.694
  315POPC   GL1 4324   7.371  10.342   4.169
  315POPC   GL2 4325   7.298  10.575   4.470
  315POPC   C1A 4326   7.249  10.106   4.604
  315POPC   D2A 4327   7.146  10.366   4.990
  315POPC   C3A 4328   7.066  10.226   5.431
  315POPC   C4A 4329   7.235  10.395   5.831
  315POPC   C1B 4330   7.629  10.428   4.742
  315POPC   C2B 4331   7.639  10.298   5.124
  315POPC   C3B 4332   7.529  10.530   5.436
  315POPC   C4B 4333   7.738  10.484   5.790
  316POPC   NC3 4334   1.355   2.679   3.827
  316POPC   PO4 4335   0.814   2.945   3.919
  316POPC   GL1 4336   0.967   2.628   4.204
  316POPC   GL2 4337   1.263   2.794   4.311
  316POPC   C1A 4338   1.033   2.432   4.626
  316POPC   D2A 4339   1.236   2.563   5.029
  316POPC   C3A 4340   0.979   2.497   5.397
  316POPC   C4A 4341   0.900   2.303   5.791
  316POPC   C1B 4342   1.070   2.951   4.677
  316POPC   C2B 4343   1.111   3.081   5.115
  316POPC   C3B 4344   1.283   2.904   5.503
  316POPC   C4B 4345   1.364   2.517   5.722
  317POPC   NC3 4346   9.794   1.957   3.913
  317POPC   PO4 4347   9.212   2.367   3.891
  317POPC   GL1 4348   9.402   2.169   4.232
  317POPC   GL2 4349   9.278   1.855   4.313
  317POPC   C1A 4350   9.485   2.270   4.687
  317POPC   D2A 4351   9.412   2.010   5.061
  317POPC   C3A 4352   9.532   2.153   5.484
  317POPC   C4A 4353   9.466   2.277   5.942
  317POPC   C1B 4354   9.691   1.845   4.549
  317POPC   C2B 4355   9.843   1.742   4.969
  317POPC   C3B 4356   9.680   1.668   5.396
  317POPC   C4B 4357   9.746   1.839   5.825
  318POPC   NC3 4358   3.337   5.852   3.773
  318POPC   PO4 4359   3.571   5.349   3.796
  318POPC   GL1 4360   3.469   5.075   4.196
  318POPC   GL2 4361   3.142   4.893   4.250
  318POPC   C1A 4362   3.637   5.058   4.651
  318POPC   D2A 4363   3.736   5.229   5.087
  318POPC   C3A 4364   3.412   5.192   5.427
  318POPC   C4A 4365   3.409   4.930   5.809
  318POPC   C1B 4366   3.232   4.752   4.691
  318POPC   C2B 4367   3.494   4.773   5.093
  318POPC   C3B 4368   3.789   4.852   5.461
  318POPC   C4B 4369   3.829   4.564   5.812
  319W        W 4370  11.229  10.787   8.522
  320W        W 4371   8.605   4.368   3.135
  321W        W 4372   5.761   3.533   8.145
  322W        W 4373   6.762   6.818  11.799
  323W        W 4374   7.639   8.426   9.836
  324W        W 4375   2.187   9.586   8.685
  325W        W 4376   5.964   3.851   8.599
  326W        W 4377   0.926   5.089   2.216
  327W        W 4378   3.676   0.783   3.139
  328W        W 4379   9.285   0.751  11.231
  329W        W 4380   7.635   6.093   8.410
  330W        W 4381   8.674   5.516   8.652
  331W        W 4382  10.998   9.113   9.116
  332W        W 4383   9.784   9.404   9.111
  333W        W 4384  10.454   6.508   2.958
  334W        W 4385   7.781  10.865   2.207
  335W        W 4386  10.251   6.669  10.834
  336W        W 4387   7.488   1.365   0.137
  337W        W 4388   5.132   6.457   0.819
  338W        W 4389   0.743   4.361  11.636
  339W        W 4390   0.125   8.135  10.790
  340W        W 4391   8.015   2.306   2.930
  341W        W 4392   4.078  10.762  11.524
  342W        W 4393   3.158   7.636  10.009
  343W        W 4394   1.445   0.900   1.898
  344W        W 4395   9.699   6.600   9.993
  345W        W 4396   7.225   8.052   0.761
  346W        W 4397  11.004   5.444  10.543
  347W        W 4398   6.660   0.751   1.753
  348W        W 4399   3.277   7.037   1.767
  349W        W 4400   5.521   3.584   9.483
  350W        W 4401   1.851   9.482  11.778
  351W        W 4402   4.758   2.834   0.529
  352W        W 4403  10.006  11.371   3.161
  353W        W 4404   8.639   3.428   2.112
  354W        W 4405   1.529   7.588  10.019
  355W        W 4406   0.402   8.518  11.541
  356W        W 4407   0.966   6.935   8.260
  357W        W 4408   2.468   9.931   0.345
  358W        W 4409   6.392   3.601   8.778
  359W        W 4410   7.498   9.534   9.018
  360W        W 4411  10.646   5.090  11.962
  361W        W 4412   6.150   8.454  10.414
  362W        W 4413   1.086   1.385   9.809
  363W        W 4414   6.510   2.928  11.640
  364W        W 4415   2.349  10.855   1.416
  365W        W 4416   1.835   5.534   2.479
  366W        W 4417   9.437   8.869   2.985
  367W        W 4418   4.634  10.797   2.786
  368W        W 4419   5.203   5.465   1.808
  369W        W 4420   8.495   6.950   3.050
  370W        W 4421   7.623   6.575   9.482
  371W        W 4422   5.571   2.602   1.494
  372W        W 4423  11.165  10.526   2.914
  373W        W 4424   7.760   9.514   3.541
  374W        W 4425   5.572   6.649  10.533
  375W        W 4426   1.347   9.912   0.464
  376W        W 4427   9.837   4.707   0.743
  377W        W 4428   7.597   5.191  10.109
  378W        W 4429   2.232   3.703   2.328
  379W        W 4430   1.459   8.137   2.722
  380W        W 4431   3.754   3.732   1.263
  381W        W 4432   9.327   2.424   2.478
  382W        W 4433   5.152   3.233   1.334
  383W        W 4434   5.663   0.354  11.107
  384W        W 4435   5.398   6.076   9.839
  385W        W 4436   4.821   1.162   3.136
  386W        W 4437   9.408   4.612  11.930
  387W        W 4438   4.958  10.548  10.440
  388W        W 4439   8.648   9.896   2.579
  389W        W 4440  11.204   2.618   8.810
  390W        W 4441   2.664   5.911   1.835
  391W        W 4442   2.955   8.035   9.267
  392W        W 4443   2.719   1.970  11.780
  393W        W 4444   0.873   9.341   2.632
  394W        W 4445   5.377   4.427   3.925
  395W        W 4446   2.757   8.609   3.225
  396W        W 4447   1.689   7.929   3.523
  397W        W 4448   5.163   3.668   1.839
  398W        W 4449   6.926   7.547   1.318
  399W        W 4450   3.101   7.443   2.506
  400W        W 4451   3.786   0.462  10.690
  401W        W 4452  11.413   2.586  10.883
  402W        W 4453   5.370  10.835  10.593
  403W        W 4454   1.502   9.215   0.639
  404W        W 4455   8.698  10.523  11.716
  405W        W 4456   4.922   2.380   8.166
  406W        W 4457   3.121   6.616   1.474
  407W        W 4458   0.221   6.573  11.503
  408W        W 4459   3.307   4.763  11.048
  409W        W 4460  10.359   4.097   1.209
  410W        W 4461   3.579   5.544  11.286
  411W        W 4462   5.946  10.443  10.962
  412W        W 4463   7.605   5.084  11.924
  413W        W 4464   2.759   9.161   3.403
  414W        W 4465   6.482  10.180   3.592
  415W        W 4466   3.290   3.395   0.464
  416W        W 4467   8.211   9.056  11.264
  417W        W 4468   2.310   2.283   9.115
  418W        W 4469   9.014   5.406  11.560
  419W        W 4470   5.267   2.622  10.777
  420W        W 4471   9.997   6.633   2.760
  421W        W 4472   6.948   4.629  10.756
  422W        W 4473   4.287   7.004   0.727
  423W        W 4474  11.301   6.065  10.411
  424W        W 4475   1.288   6.459   0.174
  425W        W 4476   9.066   8.868   0.513
  426W        W 4477   6.444   4.036   9.152
  427W        W 4478   2.300   9.655  11.948
  428W        W 4479  10.994   7.451   1.414
  429W        W 4480  10.045  10.737  10.416
  430W        W 4481   3.935   0.149  11.121
  431W        W 4482   7.068   7.501   0.304
  432W        W 4483   7.842   0.891   2.609
  433W        W 4484   7.059   0.261  11.527
  434W        W 4485   8.619   2.232  11.878
  435W        W 4486   4.226   5.713   0.343
  436W        W 4487   4.257   3.748   1.390
  437W        W 4488   5.533   1.955   9.467
  438W        W 4489   8.449   7.145   1.658
  439W        W 4490   7.613   1.675   3.404
  440W        W 4491  10.011  10.810   1.304
  441W        W 4492   8.013   4.090   1.174
  442W        W 4493   5.613   9.660   9.434
  443W        W 4494   1.285   6.513   1.134
  444W        W 4495   9.457   7.926   2.863
  445W        W 4496   6.969  11.289   2.824
  446W        W 4497   5.423   4.133   2.234
  447W        W 4498   2.235   2.801   8.941
  448W        W 4499   0.941  10.904   9.860
  449W        W 4500   2.862   7.641   1.732
  450W        W 4501   4.300  11.115   3.456
  451W        W 4502   4.733   0.781  11.940
  452W        W 4503   7.660   3.637  10.456
  453W        W 4504  10.881   8.832   1.473
  454W        W 4505  10.409   0.574   1.408
  455W        W 4506   3.185   8.110   9.757
  456W        W 4507   3.144   1.621   2.497
  457W        W 4508   9.317   7.545  10.793
  458W        W 4509   2.883  11.123   2.161
  459W        W 4510   7.768   9.281  11.715
  460W        W 4511   9.547   2.582   0.464
  461W        W 4512   7.052   1.697   0.201
  462W        W 4513   4.143   8.741   8.961
  463W        W 4514   0.918   1.404   0.047
  464W        W 4515   7.182   8.893   3.154
  465W        W 4516   3.125   5.656   9.455
  466W        W 4517  10.017   7.098   0.481
  467W        W 4518   5.527   8.394   9.969
  468W        W 4519   0.647   0.948   0.249
  469W        W 4520   1.111   9.465   0.380
  470W        W 4521   7.097   4.315   0.869
  471W        W 4522   2.696  10.774   1.819
  472W        W 4523   4.335  10.783   0.030
  473W        W 4524   9.234  10.061  11.060
  474W        W 4525   3.178   6.467   8.895
  475W        W 4526   5.971   5.731  11.368
  476W        W 4527   5.921   6.041   9.804
  477W        W 4528   2.154   4.838   3.278
  478W        W 4529   9.595   1.056   9.624
  479W        W 4530  10.717   0.890  11.390
  480W        W 4531   4.713   0.632  11.047
  481W        W 4532   2.264   7.626   8.058
  482W        W 4533   2.487   4.836   8.308
  483W        W 4534   7.962   9.579   9.303
  484W        W 4535   3.748   2.571   8.698
  485W        W 4536   4.551   7.146  11.787
  486W        W 4537   3.826   9.031   8.598
  487W        W 4538   0.915   8.393   1.775
  488W        W 4539   9.454   6.514  10.428
  489W        W 4540   3.057   7.120   9.519
  490W        W 4541   5.065  10.720   9.952
  491W        W 4542   7.049   1.836  10.851
  492W        W 4543   5.113   2.320   3.200
  493W        W 4544   2.288   7.172   9.877
  494W        W 4545   2.965   1.814   3.609
  495W        W 4546   7.967   6.093   3.240
  496W        W 4547  11.484   3.449   2.725
  497W        W 4548   5.955   6.466   0.432
  498W        W 4549   4.101  11.283   2.164
  499W        W 4550   0.950   2.709   1.208
  500W        W 4551   5.488   2.739   3.274
  501W        W 4552   4.854   4.347   0.859
  502W        W 4553   9.707   3.351  10.698
  503W        W 4554   5.133   9.824   2.210
  504W        W 4555   6.112  10.813  10.025
  505W        W 4556   1.437   3.346   1.494
  506W        W 4557   7.241   0.850   9.294
  507W        W 4558   0.848   6.525   1.393
  508W        W 4559   9.879   8.460   0.660
  509W        W 4560   1.656   4.022   9.664
  510W        W 4561   4.481   5.313  11.222
  511W        W 4562  10.552  10.055   2.248
  512W        W 4563  11.406   4.708  11.870
  513W        W 4564   8.177   5.494   8.486
  514W        W 4565  10.854   9.349   1.556
  515W        W 4566   1.297   2.821   2.960
  516W        W 4567   7.431   6.583   8.510
  517W        W 4568   0.045   4.818   0.344
  518W        W 4569   2.749   8.568   0.352
  519W        W 4570   2.629   4.666   1.942
  520W        W 4571   4.647  10.232   0.928
  521W        W 4572   3.894   1.704   2.166
  522W        W 4573   7.584   2.393   2.680
  523W        W 4574   2.330   6.959  10.807
  524W        W 4575   6.360   9.538   9.705
  525W        W 4576   6.175   5.066  10.848
  526W        W 4577   3.161   8.640   9.878
  527W        W 4578   8.248   4.819   3.606
  528W        W 4579   8.867   8.550  11.250
  529W        W 4580   3.296   8.100   0.350
  530W        W 4581   7.444   2.643   1.849
  531W        W 4582   6.748   0.819   9.226
  532W        W 4583   9.741   7.552   1.321
  533W        W 4584   8.468   6.094   3.429
  534W        W 4585   0.911   5.589   9.587
  535W        W 4586   1.800  11.005  10.286
  536W        W 4587   4.953   0.082  10.320
  537W        W 4588   8.548   6.637   2.161
  538W        W 4589   1.305   7.469  10.893
  539W        W 4590   0.345   1.681   0.785
  540W        W 4591   5.674   2.811  11.017
  541W        W 4592   5.545   2.339   3.575
  542W        W 4593   6.664   8.767  11.222
  543W        W 4594   3.540   1.009   1.261
  544W        W 4595   7.393   1.323   0.899
  545W        W 4596   7.378   6.176   0.326
  546W        W 4597   1.051   8.422   8.461
  547W        W 4598  11.429   5.188   3.396
  548W        W 4599   9.153   6.094   8.229
  549W        W 4600   3.907  10.777  11.015
  550W        W 4601   0.839   7.881   1.969
  551W        W 4602  10.533   9.921   1.266
  552W        W 4603   5.581   7.165   1.669
  553W        W 4604   7.608  10.080   0.111
  554W        W 4605   2.642   7.559   0.270
  555W        W 4606   9.883   6.484   2.285
  556W        W 4607  10.947   6.465   9.587
  557W        W 4608  10.052   3.291   1.363
  558W        W 4609   1.500  11.348  11.996
  559W        W 4610   7.759   1.919   2.551
  560W        W 4611   9.438   7.035  10.732
  561W        W 4612   0.408   1.179   0.697
  562W        W 4613   5.674   7.945   2.793
  563W        W 4614   6.098  11.323   2.696
  564W        W 4615   1.192   6.566   0.651
  565W        W 4616  10.799  11.298   1.165
  566W        W 4617   4.598   7.110   9.850
  567W        W 4618  11.455   2.597   3.165
  568W        W 4619   5.550   4.164   8.694
  569W        W 4620   2.249   9.160   2.826
  570W        W 4621   2.501   8.155  11.835
  571W        W 4622   9.064  10.497  10.803
  572W        W 4623   1.015   1.897   0.017
  573W        W 4624   1.346   8.666   1.920
  574W        W 4625   6.495   7.184   3.094
  575W        W 4626   4.880   2.017   1.384
  576W        W 4627   9.876   9.764  10.369
  577W        W 4628   9.620   6.785   9.223
  578W        W 4629   1.133   5.669   0.491
  579W        W 4630   5.825  10.462   9.449
  580W        W 4631   7.998   0.581  11.435
  581W        W 4632   9.252   2.127   3.454
  582W        W 4633   6.417   5.731   2.219
  583W        W 4634   1.816   2.202   9.289
  584W        W 4635   9.440   3.229   3.522
  585W        W 4636   4.340   2.594  11.122
  586W        W 4637   5.694   8.683   9.578
  587W        W 4638  10.871   6.762  11.970
  588W        W 4639   8.214  10.971   0.761
  589W        W 4640   1.310   9.000  11.495
  590W        W 4641   2.166   1.861   2.659
  591W        W 4642   2.690   0.293   2.804
  592W        W 4643   3.244   3.728   0.051
  593W        W 4644   4.615   6.205   3.487
  594W        W 4645   9.388   4.342   9.886
  595W        W 4646   4.289   7.949  10.343
  596W        W 4647   0.826   8.954   1.334
  597W        W 4648   7.385   3.133   9.475
  598W        W 4649   5.123   9.498   9.451
  599W        W 4650   3.028   6.054  11.941
  600W        W 4651   0.519   8.592   2.005
  601W        W 4652   4.289   7.193   8.874
  602W        W 4653   9.918   1.954   1.666
  603W        W 4654   0.824   3.528   3.100
  604W        W 4655   2.742   9.327   9.902
  605W        W 4656   7.384   4.847  10.503
  606W        W 4657   4.809   6.591   1.222
  607W        W 4658   7.383   1.699  11.777
  608W        W 4659   9.407   3.184  11.499
  609W        W 4660   8.701   9.913   0.299
  610W        W 4661  10.281   9.456  10.030
  611W        W 4662   2.424   2.330  10.128
  612W        W 4663  10.777   9.520   8.826
  613W        W 4664   7.004   9.943   3.214
  614W        W 4665   3.510   5.125   3.329
  615W        W 4666   5.575   9.715   1.911
  616W        W 4667   5.562   2.450   9.233
  617W        W 4668   8.555  11.325   2.260
  618W        W 4669   6.292   7.046  10.472
  619W        W 4670   2.324   7.672  11.841
  620W        W 4671   1.399   2.826   1.980
  621W        W 4672   0.208   2.222   1.463
  622W        W 4673   4.099   6.365   8.606
  623W        W 4674   6.682   7.196  11.422
  624W        W 4675   0.226   5.353   1.483
  625W        W 4676   0.338   4.269   3.100
  626W        W 4677   3.773  10.216   0.164
  627W        W 4678   8.835   4.340   0.112
  628W        W 4679   1.352   0.989   2.779
  629W        W 4680   2.406   9.591  10.148
  630W        W 4681   7.831   9.315   0.712
  631W        W 4682  11.427   5.657  11.717
  632W        W 4683   5.686   8.499   1.366
  633W        W 4684   7.194  10.188   1.409
  634W        W 4685   2.795   9.565  11.544
  635W        W 4686   6.013   6.894   1.791
  636W        W 4687  10.994   7.418  11.380
  637W        W 4688   1.385   6.664   2.174
  638W        W 4689   3.594  10.370  10.473
  639W        W 4690   3.673   9.487   3.262
  640W        W 4691   0.703   6.734   9.072
  641W        W 4692   8.984   6.840   9.546
  642W        W 4693   8.691   6.684   1.650
  643W        W 4694  11.430   5.771   1.111
  644W        W 4695   3.603   1.811   2.650
  645W        W 4696  10.469   0.725   0.932
  646W        W 4697   1.813  10.176  11.276
  647W        W 4698   4.145   5.679  11.840
  648W        W 4699  11.299   7.447  11.784
  649W        W 4700   8.582   0.549  10.216
  650W        W 4701   6.240   9.746   0.366
  651W        W 4702   1.777   7.300   0.256
  652W        W 4703   4.077   0.440   1.413
  653W        W 4704   5.200   1.671  11.734
  654W        W 4705   8.114   7.123   9.964
  655W        W 4706   8.420   1.175  10.862
  656W        W 4707   5.096   4.467  11.216
  657W        W 4708   7.149   7.134   1.118
  658W        W 4709   0.818   1.830   2.368
  659W        W 4710   7.960   0.314   0.260
  660W        W 4711   5.174  10.010   3.113
  661W        W 4712   0.695   8.897  11.092
  662W        W 4713   5.167   1.834   3.123
  663W        W 4714   2.590   5.270   3.679
  664W        W 4715   5.742   3.156   2.139
  665W        W 4716   3.610   4.836   0.622
  666W        W 4717   8.933   3.765   0.742
  667W        W 4718   7.632   9.178   3.086
  668W        W 4719   7.451   8.181   2.065
  669W        W 4720   1.305  11.359  11.000
  670W        W 4721   1.007   3.056   9.672
  671W        W 4722   9.055   0.271  11.459
  672W        W 4723   5.814   5.791  11.868
  673W        W 4724   4.959  10.225  10.042
  674W        W 4725   3.568   7.020   9.609
  675W        W 4726   6.573  11.078  10.969
  676W        W 4727   9.595   5.529   9.459
  677W        W 4728   2.111   4.196  10.569
  678W        W 4729   7.453   4.220   1.929
  679W        W 4730   0.889   7.601   9.389
  680W        W 4731   2.473  10.361  10.076
  681W        W 4732   7.091  10.506   8.707
  682W        W 4733   7.172  11.123   0.374
  683W        W 4734   0.830   3.356  10.053
  684W        W 4735   4.703   6.178   0.807
  685W        W 4736   3.649   2.358  11.810
  686W        W 4737   2.192   6.250   2.971
  687W        W 4738   8.331   5.279   2.804
  688W        W 4739   8.822   3.788   9.108
  689W        W 4740  10.732   4.834   3.598
  690W        W 4741   5.854  10.548   0.178
  691W        W 4742   2.340  11.335   9.084
  692W        W 4743   5.707   1.791   1.013
  693W        W 4744   8.147   8.267   2.243
  694W        W 4745   2.296   1.723  11.928
  695W        W 4746   1.424   5.192   2.650
  696W        W 4747   5.489   2.660   0.961
  697W        W 4748   3.133   9.496   9.184
  698W        W 4749   2.997   4.141   0.227
  699W        W 4750   4.730   7.233   0.548
  700W        W 4751   9.958   0.727   3.403
  701W        W 4752  10.603   5.191   2.266
  702W        W 4753   8.083   4.603   9.467
  703W        W 4754   1.671   2.388   2.285
  704W        W 4755   9.280   3.251  10.970
  705W        W 4756   7.124   0.936  11.307
  706W        W 4757   9.592   9.001   0.899
  707W        W 4758   4.340   9.948  10.666
  708W        W 4759  10.659   3.225   0.681
  709W        W 4760   4.898   1.290   1.224
  710W        W 4761   1.252   9.770   9.832
  711W        W 4762   6.545   9.984   9.612
  712W        W 4763   2.179   8.637   1.618
  713W        W 4764   1.879   8.565  10.011
  714W        W 4765   9.314   9.471   2.198
  715W        W 4766   2.767   2.183   0.272
  716W        W 4767   3.109   3.178   1.812
  717W        W 4768  10.096   9.625   3.108
  718W        W 4769   0.229   0.590   0.114
  719W        W 4770   4.141   9.531  10.958
  720W        W 4771   5.090   9.395  11.095
  721W        W 4772   9.196   6.581  10.869
  722W        W 4773   8.191  10.002   9.064
  723W        W 4774   7.925   0.359  10.975
  724W        W 4775   8.099   1.447   1.870
  725W        W 4776   1.129   7.980  11.610
  726W        W 4777   7.168   3.658   1.240
  727W        W 4778   0.500   7.707   1.473
  728W        W 4779  10.339   0.224   1.012
  729W        W 4780   6.330   1.680   2.298
  730W        W 4781   2.566   5.569   3.275
  731W        W 4782   3.488   8.359  11.300
  732W        W 4783   0.685  10.410   1.343
  733W        W 4784   3.708   7.884  11.505
  734W        W 4785   5.195   3.063  11.584
  735W        W 4786   6.477   2.794   3.459
  736W        W 4787   0.698   0.699   3.281
  737W        W 4788   7.022   8.406   1.878
  738W        W 4789   5.652   7.800   9.890
  739W        W 4790   5.865  10.535   2.113
  740W        W 4791   0.506  11.032   0.662
  741W        W 4792   8.280   6.355  11.000
  742W        W 4793  11.401   7.620   9.668
  743W        W 4794   1.542   7.932  10.905
  744W        W 4795   2.195   1.255   1.003
  745W        W 4796   5.682   5.526   2.715
  746W        W 4797  10.011   8.166   1.076
  747W        W 4798   3.269  10.814   0.846
  748W        W 4799  10.830   8.695   8.841
  749W        W 4800   6.679   3.197   8.934
  750W        W 4801   2.740   4.213  11.205
  751W        W 4802  10.319   5.594   1.886
  752W        W 4803  11.452   4.537   1.675
  753W        W 4804   5.002   2.039   9.549
  754W        W 4805   8.556   7.210  11.173
  755W        W 4806  10.935   4.677   1.673
  756W        W 4807   4.810   2.676  10.975
  757W        W 4808   0.951   9.011   9.190
  758W        W 4809   7.134   4.260  10.002
  759W        W 4810   9.046   0.006   9.538
  760W        W 4811  11.439   5.690  10.757
  761W        W 4812   5.696   1.125   1.810
  762W        W 4813   0.689   0.325  10.957
  763W        W 4814  10.870   7.018   1.683
  764W        W 4815  10.131   4.487   9.872
  765W        W 4816   6.671   9.095  11.656
  766W        W 4817   2.069   6.841   3.638
  767W        W 4818   7.608   0.710   2.045
  768W        W 4819  10.025   5.683  10.649
  769W        W 4820   2.611   1.800   1.742
  770W        W 4821   4.157   1.739   3.081
  771W        W 4822   6.787   5.153   0.451
  772W        W 4823   1.954   0.681   0.196
  773W        W 4824   8.560   8.930   2.737
  774W        W 4825   5.068   6.697  10.333
  775W        W 4826   7.074   1.000   3.573
  776W        W 4827   9.742   4.963   3.898
  777W        W 4828   6.269   5.718   1.219
  778W        W 4829   0.837   5.073   1.702
  779W        W 4830   7.787   4.626  10.740
  780W        W 4831   0.050   8.588   9.462
  781W        W 4832   5.935  10.098  10.485
  782W        W 4833   4.804   5.678   2.084
  783W        W 4834  10.809   0.887   1.322
  784W        W 4835   6.670   2.607   9.358
  785W        W 4836   6.008   2.070   2.199
  786W        W 4837  10.295   0.224  10.719
  787W        W 4838  10.510   5.616  10.456
  788W        W 4839   9.276   7.603   3.403
  789W        W 4840   2.825   8.605   2.705
  790W        W 4841   1.209   9.670   1.749
  791W        W 4842   5.804  10.051   0.349
  792W        W 4843   6.594   3.182  11.164
  793W        W 4844   7.440   7.629   1.255
  794W        W 4845   5.557   1.839   3.448
  795W        W 4846   6.376  10.607  11.188
  796W        W 4847   7.424   7.719   2.296
  797W        W 4848   7.554   6.727  11.432
  798W        W 4849  10.565   6.576  10.365
  799W        W 4850   8.621   9.880   8.733
  800W        W 4851   9.129   8.964  11.150
  801W        W 4852  11.464   5.597   1.862
  802W        W 4853   0.878  10.080   0.364
  803W        W 4854   2.714   6.601  10.952
  804W        W 4855  10.356   5.096   3.138
  805W        W 4856   9.980   1.704  10.271
  806W        W 4857   6.425   3.773   9.597
  807W        W 4858   1.342   5.473   3.194
  808W        W 4859   0.064  11.358  10.680
  809W        W 4860   9.570   0.219   0.539
  810W        W 4861   5.079   0.464   0.781
  811W        W 4862   3.638   2.356   1.202
  812W        W 4863  10.021   0.255   0.285
  813W        W 4864   4.562   2.200   0.972
  814W        W 4865   2.538   8.336   0.789
  815W        W 4866   0.584   9.203   0.784
  816W        W 4867   5.918   7.824  11.971
  817W        W 4868   6.465   5.064   1.848
  818W        W 4869   4.776   8.316   1.530
  819W        W 4870   3.197   1.407   2.032
  820W        W 4871  10.425   0.597   9.421
  821W        W 4872   3.855   0.384   9.688
  822W        W 4873   6.366   7.208   9.507
  823W        W 4874   2.207   5.253   9.504
  824W        W 4875   5.459   0.800   9.863
  825W        W 4876   0.908   8.355   3.521
  826W        W 4877   5.634   9.922  11.822
  827W        W 4878   2.166   3.395   2.797
  828W        W 4879  11.394   7.014  10.514
  829W        W 4880   2.720   4.494   0.951
  830W        W 4881   1.451   9.899   9.379
  831W        W 4882   7.059   4.830   0.750
  832W        W 4883   1.821   8.145   1.372
  833W        W 4884   7.852   4.189   8.702
  834W        W 4885  10.955   2.086   2.236
  835W        W 4886  11.310   9.912   0.777
  836W        W 4887   1.091   0.535   2.926
  837W        W 4888   7.801  10.672   0.802
  838W        W 4889   0.722   8.883   2.806
  839W        W 4890  10.012   5.647   0.949
  840W        W 4891   8.092  10.756   1.234
  841W        W 4892   6.317   9.176   3.155
  842W        W 4893   1.522   6.248   9.887
  843W        W 4894   6.441   0.296  11.660
  844W        W 4895   0.960   8.402   9.858
  845W        W 4896   6.659   9.407   1.076
  846W        W 4897  10.833   2.163   1.742
  847W        W 4898   4.205  10.789   2.466
  848W        W 4899   2.666   3.677   2.059
  849W        W 4900   7.860   0.397   2.690
  850W        W 4901   6.522   8.108  11.353
  851W        W 4902   0.670   2.159   1.739
  852W        W 4903   0.792   0.823   0.730
  853W        W 4904   1.309   3.140  11.575
  854W        W 4905  11.321   4.011   3.515
  855W        W 4906   2.369   2.465   0.459
  856W        W 4907   8.376   7.495   2.313
  857W        W 4908   1.202   9.409   9.462
  858W        W 4909   4.283  11.273  11.384
  859W        W 4910   1.755   5.085   1.673
  860W        W 4911   3.821   9.265   0.439
  861W        W 4912   3.475  11.373  11.990
  862W        W 4913   7.507   5.008   0.941
  863W        W 4914   2.539   4.634  11.770
  864W        W 4915   7.738   1.419   0.558
  865W        W 4916   7.903   1.926   0.707
  866W        W 4917   0.918   2.690   8.435
  867W        W 4918   3.153   7.496   1.073
  868W        W 4919   2.713   4.092   1.266
  869W        W 4920   6.980   0.321   2.768
  870W        W 4921   2.527   8.052   8.196
  871W        W 4922   4.908   2.893   4.005
  872W        W 4923   4.293   3.362  11.471
  873W        W 4924   2.258   3.791   1.319
  874W        W 4925  11.154   7.718   0.747
  875W        W 4926   1.001   8.914   0.411
  876W        W 4927   8.496   1.737   3.173
  877W        W 4928   1.341  10.040  11.748
  878W        W 4929   9.927   8.969   9.373
  879W        W 4930   0.351   2.730   0.056
  880W        W 4931   9.809   7.442   8.516
  881W        W 4932   3.962   2.141   2.801
  882W        W 4933   6.955   5.847  10.360
  883W        W 4934   4.214   2.166   3.366
  884W        W 4935   4.325   0.826   2.201
  885W        W 4936   7.734  10.184   0.602
  886W        W 4937   0.487   6.274   1.653
  887W        W 4938   0.290   1.897  10.297
  888W        W 4939  11.451   4.696  10.531
  889W        W 4940   3.630   0.463   2.708
  890W        W 4941   5.703   1.325   0.774
  891W        W 4942   1.141  10.462   9.511
  892W        W 4943  10.849  10.412   9.268
  893W        W 4944   6.275  10.228   0.212
  894W        W 4945   4.528  11.151   9.203
  895W        W 4946   4.192   4.716   2.821
  896W        W 4947   6.641   9.493  10.482
  897W        W 4948  11.315   7.638   9.149
  898W        W 4949  10.300   9.558  10.557
  899W        W 4950   3.913   6.163  10.646
  900W        W 4951   4.107   4.140   9.311
  901W        W 4952   1.678   9.519   8.609
  902W        W 4953   1.325   8.672   1.063
  903W        W 4954   0.846   6.359   2.939
  904W        W 4955   3.604  11.440   9.550
  905W        W 4956   4.851   8.402   2.842
  906W        W 4957   8.337  10.237   2.762
  907W        W 4958   5.558  10.612   2.959
  908W        W 4959   7.578   8.446  10.363
  909W        W 4960   0.124   1.539  11.928
  910W        W 4961   5.977   3.150   0.085
  911W        W 4962   0.656   7.047   9.505
  912W        W 4963   3.406   8.864   1.970
  913W        W 4964  11.272   8.026   3.060
  914W        W 4965   1.711   7.354   2.922
  915W        W 4966   3.043   5.324   8.291
  916W        W 4967   8.142   2.816  11.299
  917W        W 4968   9.325   0.327   2.731
  918W        W 4969   8.636   1.051   2.580
  919W        W 4970   9.367   2.157   0.278
  920W        W 4971  10.959  10.580   0.779
  921W        W 4972   2.273   9.095   9.991
  922W        W 4973   6.652   2.009   1.477
  923W        W 4974   5.761   1.645   1.914
  924W        W 4975   4.285   0.719  11.373
  925W        W 4976   6.139   3.822   0.393
  926W        W 4977   4.745   6.281  10.313
  927W        W 4978   0.308   2.261  10.870
  928W        W 4979   8.017   7.997   1.355
  929W        W 4980   6.591  10.451  10.750
  930W        W 4981   2.127   4.300   0.518
  931W        W 4982   3.163   5.530  10.500
  932W        W 4983   4.488   8.846   9.334
  933W        W 4984  10.387   2.412  10.931
  934W        W 4985   9.711   4.130   1.856
  935W        W 4986   1.498   6.332   3.508
  936W        W 4987   5.105   2.026   3.621
  937W        W 4988   3.331  10.165   2.733
  938W        W 4989   8.564   3.350   3.068
  939W        W 4990   6.179   1.372   2.694
  940W        W 4991  11.017   3.639   1.421
  941W        W 4992   8.551   6.121   9.216
  942W        W 4993  11.118   8.089   3.543
  943W        W 4994   8.044  11.449   8.950
  944W        W 4995   5.956  10.421   2.633
  945W        W 4996   3.573   6.371   2.692
  946W        W 4997   3.674   3.727   3.048
  947W        W 4998   9.403  10.507  10.313
  948W        W 4999   0.433   7.025   2.546
  949W        W 5000   2.134  10.026   2.828
  950W        W 5001   9.768   3.276  11.850
  951W        W 5002   7.606   2.233  10.915
  952W        W 5003   9.019  11.079   0.398
  953W        W 5004   9.297   5.102   1.454
  954W        W 5005   6.743   8.899   9.210
  955W        W 5006   8.272   9.172  11.758
  956W        W 5007   5.714   3.781   1.627
  957W        W 5008   1.319   3.837   2.824
  958W        W 5009   5.246   8.013   9.702
  959W        W 5010   0.989   1.689   1.472
  960W        W 5011   0.294   9.503   1.481
  961W        W 5012  10.394   3.235   2.185
  962W        W 5013   2.617  10.920   8.954
  963W        W 5014   5.777   7.201  11.262
  964W        W 5015   1.340   0.490   3.429
  965W        W 5016   8.604   5.904  10.973
  966W        W 5017   5.164   4.639  11.751
  967W        W 5018   1.037   0.625   1.726
  968W        W 5019   5.565   7.548  10.948
  969W        W 5020   2.084   5.967  10.962
  970W        W 5021   9.486   5.192   3.430
  971W        W 5022   3.753   8.030   8.915
  972W        W 5023   4.142   7.669   9.043
  973W        W 5024   7.158   2.307   3.012
  974W        W 5025   8.732   4.953  10.782
  975W        W 5026   0.796   0.207   1.878
  976W        W 5027   4.365   1.316   1.368
  977W        W 5028   6.992   2.757   8.995
  978W        W 5029   7.653   3.854   3.284
  979W        W 5030   0.013   4.259   0.131
  980W        W 5031   2.667   8.509   1.707
  981W        W 5032  10.885  10.369   0.321
  982W        W 5033   3.137   2.906   9.159
  983W        W 5034   1.435   2.763  10.979
  984W        W 5035   3.272   9.867   8.848
  985W        W 5036   5.045   5.873  11.368
  986W        W 5037   5.102   9.623   8.090
  987W        W 5038  10.939   8.110   2.667
  988W        W 5039   6.484   9.114   1.859
  989W        W 5040   5.640  10.147   8.555
  990W        W 5041   7.041   8.404   9.082
  991W        W 5042   5.999   5.523   9.671
  992W        W 5043   8.873   5.511  10.579
  993W        W 5044   7.458   3.599   0.770
  994W        W 5045   6.291   2.639   2.873
  995W        W 5046   8.097   5.524   0.687
  996W        W 5047   1.429   6.274   9.011
  997W        W 5048   6.681   0.062  10.846
  998W        W 5049   8.093   6.443   0.289
  999W        W 5050  10.601   4.502   9.659
 1000W        W 5051   9.593   3.566   2.650
 1001W        W 5052   4.161   2.831  10.034
 1002W        W 5053   0.369   4.543   9.810
 1003W        W 5054  10.002   9.079  11.538
 1004W        W 5055   2.609   6.575   2.931
 1005W        W 5056   3.326  10.459   3.174
 1006W        W 5057   9.871   1.686   3.476
 1007W        W 5058   9.445   5.553  11.757
 1008W        W 5059   7.987   9.972   3.295
 1009W        W 5060   1.235   4.533   9.854
 1010W        W 5061   9.031   9.373  11.474
 1011W        W 5062   3.606   0.399   0.026
 1012W        W 5063   3.052   3.079   8.419
 1013W        W 5064   0.242   9.119   0.060
 1014W        W 5065   8.174   8.971   0.569
 1015W        W 5066   9.716   6.691   0.514
 1016W        W 5067   9.316   9.388   9.929
 1017W        W 5068   5.245   1.934   0.732
 1018W        W 5069   3.162   2.370   2.162
 1019W        W 5070   9.312   5.911   1.936
 1020W        W 5071   0.937   1.537  11.088
 1021W        W 5072   2.872   1.631  10.507
 1022W        W 5073   3.785   0.277   9.188
 1023W        W 5074   0.398   6.452   3.280
 1024W        W 5075   1.874   3.622   9.403
 1025W        W 5076   9.860   9.935   3.465
 1026W        W 5077   5.956   0.509   9.286
 1027W        W 5078  11.378   7.021   1.695
 1028W        W 5079   7.659   2.613  11.943
 1029W        W 5080   8.411   0.272   0.485
 1030W        W 5081   5.769  10.922   9.211
 1031W        W 5082   8.440   8.098   9.100
 1032W        W 5083   0.287   5.174   3.012
 1033W        W 5084   4.805   8.862   0.887
 1034W        W 5085   0.510   4.001  11.889
 1035W        W 5086   0.417   6.287   9.781
 1036W        W 5087   8.742   1.467  11.764
 1037W        W 5088  11.244  11.160  10.297
 1038W        W 5089   2.607   8.115   2.063
 1039W        W 5090   3.627   8.413   9.733
 1040W        W 5091   7.864   6.969   2.574
 1041W        W 5092   9.562   2.402  11.109
 1042W        W 5093   6.914   0.817   1.294
 1043W        W 5094   6.291   6.425   8.582
 1044W        W 5095   2.188   8.322  10.708
 1045W        W 5096   0.909   1.348   9.084
 1046W        W 5097   2.070   6.834   9.533
 1047W        W 5098   9.818  10.283   8.905
 1048W        W 5099  11.074   7.694  10.513
 1049W        W 5100   1.179   1.983   0.702
 1050W        W 5101   8.590   9.943   1.152
 1051W        W 5102   6.063   8.181   3.047
 1052W        W 5103  11.044   9.841   0.352
 1053W        W 5104   4.807   9.825   2.609
 1054W        W 5105   6.132   1.387   1.151
 1055W        W 5106   1.769  11.234  11.103
 1056W        W 5107   9.429   6.651   0.097
 1057W        W 5108   8.258   0.258   3.029
 1058W        W 5109   2.445   0.703   0.313
 1059W        W 5110   2.576   6.111  11.035
 1060W        W 5111   3.777   0.068   0.377
 1061W        W 5112   8.019   8.970   1.576
 1062W        W 5113   6.647   8.886   0.359
 1063W        W 5114   0.904   3.411  11.431
 1064W        W 5115   0.859   6.786  10.910
 1065W        W 5116   8.195   6.684   1.756
 1066W        W 5117   2.438   4.841   1.180
 1067W        W 5118   9.398   2.412  10.634
 1068W        W 5119   5.104   2.645   1.314
 1069W        W 5120   0.897   3.648  10.905
 1070W        W 5121   7.559   7.225   0.311
 1071W        W 5122  10.142   7.922   0.668
 1072W        W 5123   6.719   9.313  10.003
 1073W        W 5124   9.864  10.135   1.812
 1074W        W 5125   2.197   4.666   0.157
 1075W        W 5126   2.193   7.921   2.330
 1076W        W 5127  11.171   6.494  11.260
 1077W        W 5128  10.925   9.993  10.062
 1078W        W 5129   1.596   2.370   1.440
 1079W        W 5130   6.517   1.704   1.001
 1080W        W 5131   1.919   1.344   9.408
 1081W        W 5132  11.401   7.268   0.814
 1082W        W 5133   9.885  10.849   9.942
 1083W        W 5134   1.181   9.585   0.868
 1084W        W 5135   0.751   2.367  11.326
 1085W        W 5136   9.509  10.359   0.036
 1086W        W 5137   9.332   7.631   1.018
 1087W        W 5138  10.879   7.205   3.054
 1088W        W 5139   6.583   1.501   1.476
 1089W        W 5140   5.524   6.693   1.809
 1090W        W 5141   9.414   1.919  11.055
 1091W        W 5142   9.297   1.435  11.825
 1092W        W 5143   4.710   7.758   2.944
 1093W        W 5144   6.555   3.732  10.905
 1094W        W 5145   5.187   8.007   2.997
 1095W        W 5146   9.520   8.877  10.792
 1096W        W 5147   9.491   1.627   1.516
 1097W        W 5148   2.919   9.465   2.177
 1098W        W 5149  11.300   5.117   2.872
 1099W        W 5150   7.619   9.318  10.495
 1100W        W 5151   2.871   0.940  11.429
 1101W        W 5152   2.160   4.391   9.826
 1102W        W 5153   3.770   7.978  11.009
 1103W        W 5154   5.155   6.658  10.850
 1104W        W 5155   9.740   7.013   0.931
 1105W        W 5156   0.185   2.813   8.979
 1106W        W 5157   3.763  10.369   2.877
 1107W        W 5158   3.206  11.374  10.629
 1108W        W 5159  11.000  10.839   2.530
 1109W        W 5160  10.861   6.361   2.725
 1110W        W 5161  11.137  11.120  11.528
 1111W        W 5162   0.373   6.023  10.781
 1112W        W 5163   8.187   2.788   1.247
 1113W        W 5164   7.498   2.666   9.048
 1114W        W 5165   7.068   7.016   2.061
 1115W        W 5166   0.344   9.058   3.100
 1116W        W 5167   9.848   1.825   1.172
 1117W        W 5168   2.906   5.496   0.714
 1118W        W 5169   7.944   8.360  11.333
 1119W        W 5170   7.932   0.673   3.111
 1120W        W 5171   9.014   8.693   2.754
 1121W        W 5172   2.075   0.898   0.649
 1122W        W 5173   8.016   3.845  10.105
 1123W        W 5174   9.374   7.419   9.853
 1124W        W 5175   0.835   0.484   8.861
 1125W        W 5176   4.770   4.347   2.946
 1126W        W 5177   7.030   5.029  11.329
 1127W        W 5178  11.005   4.057   0.612
 1128W        W 5179   4.409   1.266   2.771
 1129W        W 5180   2.480   4.218  10.196
 1130W        W 5181   6.417   2.790   1.681
 1131W        W 5182   3.334   0.456   9.446
 1132W        W 5183   7.031   2.979   9.847
 1133W        W 5184   5.174   4.032   8.382
 1134W        W 5185   0.049   2.893  11.269
 1135W        W 5186   6.838  10.744   0.584
 1136W        W 5187   2.697  10.812   9.924
 1137W        W 5188   4.562   2.209  11.961
 1138W        W 5189   7.090   6.511  11.431
 1139W        W 5190  10.247   4.020  10.464
 1140W        W 5191   7.877   5.013   1.460
 1141W        W 5192   6.329   3.297   3.264
 1142W        W 5193   4.307   4.219   2.662
 1143W        W 5194  11.351   7.508   3.174
 1144W        W 5195   1.238   6.672   9.793
 1145W        W 5196   9.460   4.044   2.818
 1146W        W 5197   4.726   4.092   8.636
 1147W        W 5198  10.032   8.605   1.940
 1148W        W 5199   0.911   7.725  10.673
 1149W        W 5200   8.977   5.643   0.960
 1150W        W 5201   0.923   0.239  10.215
 1151W        W 5202   1.208  10.199   2.758
 1152W        W 5203  10.095   3.039  10.572
 1153W        W 5204  11.011   1.180   0.558
 1154W        W 5205   4.585   2.250   2.395
 1155W        W 5206   7.343   1.489   9.080
 1156W        W 5207   3.816   0.396  10.198
 1157W        W 5208   2.471   1.805   8.816
 1158W        W 5209   6.678  10.898   8.716
 1159W        W 5210   3.817   4.610  11.366
 1160W        W 5211   6.209   2.981  10.314
 1161W        W 5212   3.045   5.537   8.801
 1162W        W 5213   0.265   3.157  10.844
 1163W        W 5214   2.443   4.630  11.263
 1164W        W 5215   0.088   1.768   8.843
 1165W        W 5216   4.206   5.049   9.551
 1166W        W 5217  10.067   1.781   2.681
 1167W        W 5218   9.076   4.284   2.574
 1168W        W 5219  11.257   3.103  10.869
 1169W        W 5220   8.359   1.749   0.865
 1170W        W 5221   1.273   8.458  11.542
 1171W        W 5222   6.939   6.214   9.174
 1172W        W 5223  11.390   3.187   1.361
 1173W        W 5224  10.680   1.824   3.895
 1174W        W 5225   1.174  10.280  10.432
 1175W        W 5226   9.094   9.023   1.978
 1176W        W 5227   9.003   1.893  11.934
 1177W        W 5228   4.296   9.944   2.771
 1178W        W 5229   8.939   6.921   1.205
 1179W        W 5230   6.871   3.098   9.390
 1180W        W 5231   6.226   8.524  11.279
 1181W        W 5232   9.428   3.607   3.129
 1182W        W 5233   8.555   2.044   1.278
 1183W        W 5234   8.525   8.004   2.732
 1184W        W 5235   9.845   9.291  10.651
 1185W        W 5236   7.484   2.770   2.340
 1186W        W 5237   8.961   7.123  10.866
 1187W        W 5238  10.816   9.789   1.884
 1188W        W 5239   4.734   9.463   8.491
 1189W        W 5240   8.178   1.790   2.276
 1190W        W 5241   8.011   6.436  11.443
 1191W        W 5242   7.580   5.310  10.613
 1192W        W 5243   7.030   9.057   0.010
 1193W        W 5244   7.113  10.973   9.030
 1194W        W 5245   8.869   4.560   8.657
 1195W        W 5246   4.179   2.566   2.974
 1196W        W 5247   5.673   3.849   0.725
 1197W        W 5248   1.252   6.536  11.268
 1198W        W 5249   8.516   9.042   3.222
 1199W        W 5250   4.161   0.448   8.854
 1200W        W 5251   8.717  10.929   0.968
 1201W        W 5252   6.553   8.441   9.715
 1202W        W 5253   2.319   8.655  10.339
 1203W        W 5254   0.487   1.187  11.814
 1204W        W 5255   0.444   4.395   1.712
 1205W        W 5256   0.393   0.479   2.064
 1206W        W 5257  11.289  10.778   0.406
 1207W        W 5258  10.497   4.793  10.075
 1208W        W 5259   1.842   1.742  10.132
 1209W        W 5260   6.458   4.759   0.378
 1210W        W 5261   1.206   4.996   3.201
 1211W        W 5262  10.326   6.288  11.230
 1212W        W 5263   6.146   9.642  10.561
 1213W        W 5264  10.970   7.834   1.759
 1214W        W 5265   3.292   8.335   8.929
 1215W        W 5266   2.303   6.178   9.316
 1216W        W 5267   9.923   5.495   8.697
 1217W        W 5268  10.407   2.133   9.596
 1218W        W 5269   1.842   0.274   2.752
 1219W        W 5270   3.376   1.291   8.784
 1220W        W 5271   7.192   7.297  10.068
 1221W        W 5272   8.605  10.789   0.482
 1222W        W 5273   6.412   7.977   9.042
 1223W        W 5274   6.577   5.423   0.078
 1224W        W 5275   7.482   1.537   2.377
 1225W        W 5276   6.756   9.493   3.226
 1226W        W 5277   3.441   8.627  11.766
 1227W        W 5278   5.894   2.951   0.849
 1228W        W 5279  10.917   5.550  10.008
 1229W        W 5280   2.410   1.776  11.411
 1230W        W 5281   7.210  10.625   0.224
 1231W        W 5282   0.035  10.884   0.859
 1232W        W 5283   3.286   7.469   2.035
 1233W        W 5284   8.910   7.573  11.102
 1234W        W 5285   6.237  10.045  10.919
 1235W        W 5286   3.732  10.935  10.020
 1236W        W 5287  10.079   9.099   1.833
 1237W        W 5288   3.806   7.019   0.518
 1238W        W 5289   9.422   7.154   1.860
 1239W        W 5290   3.618   9.353   9.287
 1240W        W 5291   3.830   9.834   1.210
 1241W        W 5292   1.322   5.307   9.481
 1242W        W 5293  11.333   8.544   8.992
 1243W        W 5294   8.279   6.356   8.825
 1244W        W 5295   6.934  11.445   3.320
 1245W        W 5296   2.379   1.343   9.138
 1246W        W 5297   6.352   9.179  11.273
 1247W        W 5298   3.118   1.847   9.527
 1248W        W 5299   6.563   2.472  11.911
 1249W        W 5300   3.717   9.786   2.061
 1250W        W 5301   6.171  11.061  11.294
 1251W        W 5302   7.169   7.033   0.580
 1252W        W 5303   2.342   9.886   1.788
 1253W        W 5304   8.500   9.413  11.063
 1254W        W 5305   5.518   5.655   9.572
 1255W        W 5306   7.645   7.994  10.135
 1256W        W 5307   1.148   0.308  11.207
 1257W        W 5308   1.321   8.126   1.932
 1258W        W 5309   7.547  10.861  11.447
 1259W        W 5310   1.679   4.540   9.576
 1260W        W 5311   8.930   1.615   2.897
 1261W        W 5312   5.149   8.638   0.300
 1262W        W 5313   5.621   9.998   1.461
 1263W        W 5314   9.853  10.263  10.351
 1264W        W 5315   9.040   3.694   8.663
 1265W        W 5316   5.654   8.671   0.455
 1266W        W 5317   2.016  11.293  11.926
 1267W        W 5318   7.444   4.000  11.933
 1268W        W 5319   4.570   6.735   2.893
 1269W        W 5320   5.330   5.046   2.576
 1270W        W 5321   9.499   3.031   2.485
 1271W        W 5322   9.158   1.234  10.039
 1272W        W 5323   0.634   0.564  10.507
 1273W        W 5324   4.533  10.356   8.545
 1274W        W 5325   1.243   3.540   9.842
 1275W        W 5326   0.741   0.062  11.408
 1276W        W 5327   0.649   7.149   1.291
 1277W        W 5328  10.443  10.817  11.023
 1278W        W 5329   1.922   5.055   2.631
 1279W        W 5330   1.479   9.743   1.278
 1280W        W 5331   3.657   2.327   0.698
 1281W        W 5332   6.719   6.839   2.378
 1282W        W 5333   8.450   7.092   0.327
 1283W        W 5334   5.264   3.292   2.235
 1284W        W 5335   0.230   2.296   9.111
 1285W        W 5336   1.747   6.880   2.725
 1286W        W 5337   5.278   0.155   0.403
 1287W        W 5338   0.082  10.300   2.342
 1288W        W 5339   6.739  10.005  11.001
 1289W        W 5340   6.018   8.495  11.796
 1290W        W 5341   8.037   7.248  11.126
 1291W        W 5342   9.830   9.412   0.684
 1292W        W 5343   2.396  11.332   0.276
 1293W        W 5344   2.369   9.436   0.414
 1294W        W 5345   8.544   5.612   3.564
 1295W        W 5346   4.233   3.554   0.926
 1296W        W 5347   6.972   2.359  10.999
 1297W        W 5348   8.426   3.263   9.506
 1298W        W 5349   9.190  10.099   0.399
 1299W        W 5350  10.163   8.598  11.581
 1300W        W 5351  11.382   8.634   9.934
 1301W        W 5352   6.522   0.638   0.058
 1302W        W 5353   6.125  11.057   3.422
 1303W        W 5354   0.150   7.189   9.814
 1304W        W 5355   2.939   7.539   3.006
 1305W        W 5356   0.414   9.026   1.730
 1306W        W 5357  10.521   8.477  11.933
 1307W        W 5358   7.210   5.659   1.080
 1308W        W 5359   3.385   5.306   9.159
 1309W        W 5360   9.904   8.132   2.817
 1310W        W 5361   2.911   5.477   1.739
 1311W        W 5362   2.415   3.284   1.168
 1312W        W 5363   3.884   1.285   8.625
 1313W        W 5364   8.697   6.668  10.842
 1314W        W 5365  10.411   1.497  10.443
 1315W        W 5366   7.141   6.513   3.134
 1316W        W 5367  11.470   6.136   0.013
 1317W        W 5368   0.157   1.083   0.249
 1318W        W 5369  11.462   3.385  10.453
 1319W        W 5370   8.882   3.204   8.602
 1320W        W 5371   0.075   6.103   1.921
 1321W        W 5372   5.986   4.099   9.479
 1322W        W 5373   9.890   3.698   0.660
 1323W        W 5374   4.660   8.532   0.467
 1324W        W 5375  10.800   3.487   2.379
 1325W        W 5376   0.494  10.014   2.218
 1326W        W 5377   5.047  11.455   0.845
 1327W        W 5378   7.276   6.199  10.621
 1328W        W 5379   3.790  11.144  11.410
 1329W        W 5380   2.665   9.291  11.962
 1330W        W 5381  10.622   7.860   0.521
 1331W        W 5382   1.705   4.874  11.046
 1332W        W 5383   6.897  11.369   9.481
 1333W        W 5384   1.872   8.838   0.273
 1334W        W 5385   8.569   2.324   2.342
 1335W        W 5386   3.677   2.845   0.726
 1336W        W 5387  10.683  11.425   0.685
 1337W        W 5388   2.876   4.195   2.648
 1338W        W 5389   3.145   0.304   1.524
 1339W        W 5390   0.247   5.531   9.874
 1340W        W 5391   6.299  10.445  10.318
 1341W        W 5392   4.923   0.657   1.666
 1342W        W 5393   0.245   3.131   0.395
 1343W        W 5394   2.967   0.134  10.178
 1344W        W 5395   0.487   3.097  11.430
 1345W        W 5396   1.988   8.113  11.876
 1346W        W 5397   4.642   7.609  11.569
 1347W        W 5398   7.343   0.544   8.908
 1348W        W 5399   6.586   7.884   2.319
 1349W        W 5400   7.552   2.288   0.775
 1350W        W 5401   3.731   5.173   0.244
 1351W        W 5402   3.714   4.494   1.903
 1352W        W 5403   8.139   4.654   8.686
 1353W        W 5404   7.855   8.463  11.932
 1354W        W 5405   5.486   8.999   8.637
 1355W        W 5406   0.936   9.224   3.141
 1356W        W 5407   2.806   2.117  10.371
 1357W        W 5408   0.510   1.311   2.639
 1358W        W 5409   5.362  11.365   1.781
 1359W        W 5410  10.286   9.463  11.342
 1360W        W 5411  10.740  10.409   1.304
 1361W        W 5412   2.781   2.401   0.785
 1362W        W 5413   8.052   6.007   4.128
 1363W        W 5414   2.313  10.887  11.795
 1364W        W 5415   6.949   1.519   0.717
 1365W        W 5416   0.057   9.980   8.854
 1366W        W 5417   0.504   3.065   9.771
 1367W        W 5418  10.637   3.934   0.272
 1368W        W 5419   2.812   3.784   9.466
 1369W        W 5420   4.581   9.504  10.690
 1370W        W 5421   5.649   1.729   2.944
 1371W        W 5422   3.398   1.399   2.874
 1372W        W 5423   5.268   9.481   8.566
 1373W        W 5424   0.213   0.347  10.762
 1374W        W 5425  10.886  10.121  11.322
 1375W        W 5426   4.608  10.068   2.202
 1376W        W 5427   4.955   0.775   9.771
 1377W        W 5428   4.048   4.688   3.519
 1378W        W 5429  10.541   7.230  11.545
 1379W        W 5430   6.775   3.639   9.206
 1380W        W 5431   4.526   4.465   9.544
 1381W        W 5432   3.846   0.423  11.575
 1382W        W 5433  10.875   4.184   1.119
 1383W        W 5434   5.211   9.928   3.621
 1384W        W 5435   4.354   1.416   9.961
 1385W        W 5436   7.511   0.827   3.356
 1386W        W 5437   9.064   0.727   2.469
 1387W        W 5438   8.537   7.581   9.270
 1388W        W 5439   3.685   2.638   9.271
 1389W        W 5440   8.555   7.504   2.817
 1390W        W 5441   9.054   4.616   1.296
 1391W        W 5442   8.596   2.572   0.531
 1392W        W 5443   6.127   3.283   1.158
 1393W        W 5444   2.744   7.894   2.639
 1394W        W 5445   3.208  10.304   0.089
 1395W        W 5446  10.619   9.827  10.907
 1396W        W 5447   7.587   4.371   1.460
 1397W        W 5448   2.396   7.857  10.700
 1398W        W 5449   8.650   6.350  11.738
 1399W        W 5450   8.965   9.630  11.024
 1400W        W 5451   5.763   0.382   0.515
 1401W        W 5452   6.066   8.112   8.634
 1402W        W 5453   6.034   7.325   3.991
 1403W        W 5454   4.076  10.950   9.073
 1404W        W 5455   0.848   3.918  11.348
 1405W        W 5456   4.323   8.822   0.741
 1406W        W 5457   2.798   2.479  11.852
 1407W        W 5458   7.772   6.653   9.987
 1408W        W 5459   9.570   2.892   9.456
 1409W        W 5460  10.064   8.983   9.868
 1410W        W 5461   3.684   0.789   8.967
 1411W        W 5462   4.761   9.097  11.454
 1412W        W 5463   8.765  10.844   2.365
 1413W        W 5464   3.897   5.275  10.576
 1414W        W 5465   6.686   3.738   0.237
 1415W        W 5466   8.035   9.614   9.866
 1416W        W 5467   9.102   5.728   2.784
 1417W        W 5468   7.656   4.153  11.038
 1418W        W 5469  10.714   9.791  11.777
 1419W        W 5470   3.144   9.081  10.151
 1420W        W 5471   5.818   5.212  11.620
 1421W        W 5472   3.397   6.078  10.689
 1422W        W 5473   6.497   6.675   1.664
 1423W        W 5474   9.543   6.154  10.806
 1424W        W 5475   6.940  10.872  10.663
 1425W        W 5476   8.149   8.997   1.076
 1426W        W 5477   3.318   8.076  10.237
 1427W        W 5478   4.253   2.316  10.439
 1428W        W 5479  10.848   2.774   9.198
 1429W        W 5480   0.510  10.955   1.167
 1430W        W 5481   0.978  11.329   1.397
 1431W        W 5482   8.920   7.351   9.548
 1432W        W 5483   2.153   3.402   1.891
 1433W        W 5484   9.185   7.084  11.946
 1434W        W 5485   2.921   7.865  11.924
 1435W        W 5486   2.422   0.549   1.997
 1436W        W 5487   1.189   9.665   2.915
 1437W        W 5488   8.837   0.745  11.471
 1438W        W 5489   2.904   3.069   3.188
 1439W        W 5490   4.274   2.809   0.353
 1440W        W 5491   4.648   4.268   9.100
 1441W        W 5492   4.723   2.967   1.433
 1442W        W 5493   5.206   5.615  10.956
 1443W        W 5494   5.722  11.097   3.051
 1444W        W 5495  11.066   6.063   9.909
 1445W        W 5496   1.260   4.801   9.414
 1446W        W 5497   2.358   4.348   8.447
 1447W        W 5498   2.395   2.688  11.579
 1448W        W 5499   5.793   7.122  10.413
 1449W        W 5500   1.262   1.107  11.134
 1450W        W 5501   8.716   4.271   9.184
 1451W        W 5502   7.378   5.200   1.837
 1452W        W 5503   5.135   1.702  11.251
 1453W        W 5504   6.613   6.123  10.034
 1454W        W 5505   6.601   4.497   2.521
 1455W        W 5506   1.183   5.654   1.319
 1456W        W 5507  10.312   0.644   0.102
 1457W        W 5508   3.063   8.911   2.359
 1458W        W 5509   3.423  10.751  10.871
 1459W        W 5510   8.115   4.098   3.144
 1460W        W 5511   3.160   3.539   2.755
 1461W        W 5512   4.705  10.947   9.684
 1462W        W 5513   9.864   0.273  10.385
 1463W        W 5514   5.692   3.404   8.955
 1464W        W 5515   9.076   4.603  10.953
 1465W        W 5516  10.642   1.775   0.884
 1466W        W 5517   5.239   3.736   1.353
 1467W        W 5518   9.107   4.169   8.884
 1468W        W 5519   9.735   5.289   1.224
 1469W        W 5520   9.930   8.141   0.274
 1470W        W 5521  10.385  10.951   3.192
 1471W        W 5522  10.125   2.391   2.829
 1472W        W 5523   1.275   2.362   1.049
 1473W        W 5524   7.090   0.309   1.324
 1474W        W 5525   2.167   2.051  10.997
 1475W        W 5526   7.381   7.215   2.433
 1476W        W 5527   0.036   9.569   2.766
 1477W        W 5528   9.141   6.615   9.116
 1478W        W 5529   3.141   8.955   9.154
 1479W        W 5530   4.109   9.559  10.417
 1480W        W 5531   1.915   2.225   0.439
 1481W        W 5532   4.822  10.574   1.299
 1482W        W 5533   6.218   6.229   3.025
 1483W        W 5534   3.708   5.395  11.774
 1484W        W 5535   0.142   8.893   2.142
 1485W        W 5536   6.043   6.246  11.961
 1486W        W 5537   0.898   6.447   1.915
 1487W        W 5538   5.198   3.620  10.990
 1488W        W 5539   9.273   6.304  11.293
 1489W        W 5540   8.985   3.236  10.521
 1490W        W 5541   4.584   0.261  11.975
 1491W        W 5542   1.753   9.208  11.349
 1492W        W 5543   9.704   0.586   9.495
 1493W        W 5544   9.752   0.774  11.452
 1494W        W 5545  10.366  11.365   1.908
 1495W        W 5546  10.799   1.324  11.073
 1496W        W 5547   3.753   3.361  10.908
 1497W        W 5548   0.451   3.853   2.307
 1498W        W 5549   4.590   0.746   0.758
 1499W        W 5550   9.029   8.104  10.173
 1500W        W 5551  10.818   0.317   1.016
 1501W        W 5552  10.153  10.386   9.967
 1502W        W 5553   8.546  11.231   0.182
 1503W        W 5554   1.031  10.572   2.434
 1504W        W 5555   4.962  11.304   2.646
 1505W        W 5556   5.434   4.032   3.569
 1506W        W 5557   1.985   9.889   9.390
 1507W        W 5558   4.913   1.194   2.623
 1508W        W 5559   6.642   2.672  10.387
 1509W        W 5560   5.178   3.945   4.001
 1510W        W 5561   9.117   6.368   8.664
 1511W        W 5562   8.909   7.420   1.230
 1512W        W 5563  10.546   4.288  10.131
 1513W        W 5564   2.184   9.130  11.980
 1514W        W 5565   8.071   5.041   4.037
 1515W        W 5566   7.638   7.147   1.250
 1516W        W 5567   1.658   6.933   3.229
 1517W        W 5568   0.066   5.986   9.975
 1518W        W 5569   4.435  10.416  11.383
 1519W        W 5570   9.515   9.876   1.247
 1520W        W 5571   5.530   9.644  11.344
 1521W        W 5572   2.622   1.071   1.282
 1522W        W 5573   3.361   2.228   9.260
 1523W        W 5574  11.055   9.427  11.733
 1524W        W 5575   2.303   2.221   0.896
 1525W        W 5576   9.052   6.783   1.981
 1526W        W 5577   7.801   5.720   9.862
 1527W        W 5578  11.124   4.476  10.870
 1528W        W 5579   8.010   4.694   2.184
 1529W        W 5580   7.353   4.715  11.035
 1530W        W 5581   4.259  11.374   2.638
 1531W        W 5582   3.693   6.574   0.293
 1532W        W 5583   5.930   0.949   8.526
 1533W        W 5584  10.848   8.201   0.219
 1534W        W 5585  10.783   1.830  10.470
 1535W        W 5586   9.397   2.614   2.011
 1536W        W 5587   1.615   1.361   9.830
 1537W        W 5588   0.510  10.563   2.297
 1538W        W 5589   9.341  11.372  11.224
 1539W        W 5590   9.973  11.404   9.535
 1540W        W 5591   2.909   5.356   0.210
 1541W        W 5592   3.392   2.538  10.666
 1542W        W 5593   4.433   3.874  11.250
 1543W        W 5594   6.566   2.220   0.954
 1544W        W 5595   2.130   1.782   9.203
 1545W        W 5596   2.183  11.417  11.433
 1546W        W 5597   4.365   0.810   0.301
 1547W        W 5598   9.572   8.066  10.082
 1548W        W 5599   4.892   8.602  10.910
 1549W        W 5600   0.583   5.915   0.703
 1550W        W 5601   3.224   4.303  11.312
 1551W        W 5602   2.323   8.644   2.945
 1552W        W 5603   1.833   0.262   9.497
 1553W        W 5604   6.385   4.021  10.464
 1554W        W 5605   4.114  11.247  10.844
 1555W        W 5606   6.035   6.167   0.873
 1556W        W 5607   0.284   1.694   9.826
 1557W        W 5608   1.507  10.242   1.383
 1558W        W 5609   3.748   6.612   9.383
 1559W        W 5610   1.128   1.821   9.006
 1560W        W 5611   7.948   0.421   1.777
 1561W        W 5612   6.279   8.806   9.998
 1562W        W 5613   7.996   4.169  11.424
 1563W        W 5614   8.603   8.410   1.989
 1564W        W 5615   8.216   6.542   3.242
 1565W        W 5616   9.645   6.950   2.292
 1566W        W 5617   0.694  11.398   0.994
 1567W        W 5618   8.801   8.761   3.756
 1568W        W 5619  11.441   9.140  10.757
 1569W        W 5620   1.293   5.972   0.048
 1570W        W 5621   8.890   6.115   0.535
 1571W        W 5622   8.520   3.413   8.913
 1572W        W 5623   4.698   8.123  11.621
 1573W        W 5624  11.284   9.668   1.731
 1574W        W 5625   6.773   8.065   9.429
 1575W        W 5626   7.148  10.457   9.219
 1576W        W 5627  10.969  10.629  11.460
 1577W        W 5628   5.486   6.168   2.305
 1578W        W 5629   6.377   6.155   2.536
 1579W        W 5630   3.279   8.578  10.406
 1580W        W 5631   2.706   5.554   2.786
 1581W        W 5632   0.275   9.463  11.324
 1582W        W 5633   3.131   6.241   3.373
 1583W        W 5634   0.556   1.467   3.651
 1584W        W 5635   0.301   7.073  11.779
 1585W        W 5636   3.692   3.854  11.814
 1586W        W 5637   9.836   0.011   1.829
 1587W        W 5638  10.392   1.279  11.358
 1588W        W 5639   6.261   7.901   0.356
 1589W        W 5640  11.006  10.016   1.470
 1590W        W 5641  10.830   1.353   9.629
 1591W        W 5642  10.446   6.497  11.998
 1592W        W 5643   0.664   1.228   3.155
 1593W        W 5644   0.898   3.787   2.548
 1594W        W 5645   9.729   2.151   2.601
 1595W        W 5646   3.155   2.075  10.752
 1596W        W 5647   4.534   0.955  10.113
 1597W        W 5648   1.360   2.333   1.910
 1598W        W 5649   8.857   4.593   2.215
 1599W        W 5650   5.803   9.021   9.957
 1600W        W 5651  11.027   9.863   2.337
 1601W        W 5652   8.858   1.712   1.008
 1602W        W 5653   8.013   7.486   1.318
 1603W        W 5654   9.029   7.673   2.907
 1604W        W 5655  10.026   7.007   9.004
 1605W        W 5656   3.383   3.387   1.405
 1606W        W 5657   9.170   7.586  11.946
 1607W        W 5658  10.623   3.608   9.656
 1608W        W 5659   8.089  10.309  11.878
 1609W        W 5660  10.117   8.806   8.920
 1610W        W 5661   6.967   4.615  11.743
 1611W        W 5662   6.556   1.131   9.581
 1612W        W 5663   6.248   8.973   2.683
 1613W        W 5664  10.008   8.955  11.024
 1614W        W 5665   8.321   6.822   0.762
 1615W        W 5666   2.828  11.411   8.829
 1616W        W 5667   2.507   0.071  10.373
 1617W        W 5668   6.643  10.922   1.364
 1618W        W 5669   4.579   9.058  11.923
 1619W        W 5670   9.405   2.868   0.892
 1620W        W 5671   4.996   2.815   3.158
 1621W        W 5672   0.177  10.336   1.418
 1622W        W 5673   9.830   4.804   2.296
 1623W        W 5674  10.084   0.348   9.756
 1624W        W 5675   3.301   9.938   1.326
 1625W        W 5676  10.956   6.477   1.322
 1626W        W 5677   6.089   3.647   1.988
 1627W        W 5678   4.113   4.265  11.174
 1628W        W 5679   0.734  10.789   3.372
 1629W        W 5680   9.390   8.044   1.832
 1630W        W 5681   0.429   6.194  11.775
 1631W        W 5682   4.263  10.112   3.303
 1632W        W 5683   9.483   3.931   2.283
 1633W        W 5684   2.906   2.592  10.509
 1634W        W 5685   0.766   4.210   0.708
 1635W        W 5686   1.805   0.931   8.660
 1636W        W 5687   3.852   3.620  11.358
 1637W        W 5688   2.171   5.725   9.108
 1638W        W 5689   8.108   5.852  10.990
 1639W        W 5690   4.974   9.511   8.973
 1640W        W 5691   3.776   7.532   3.251
 1641W        W 5692   5.601   3.659   2.094
 1642W        W 5693   5.066   3.533   2.770
 1643W        W 5694   0.058   6.714   2.419
 1644W        W 5695  10.470   3.229   2.701
 1645W        W 5696   5.659   7.631   1.938
 1646W        W 5697   7.382   0.962   8.475
 1647W        W 5698   7.963   4.992  10.424
 1648W        W 5699   4.436   1.073  11.048
 1649W        W 5700   2.665   3.301   0.220
 1650W        W 5701   0.415   0.237   3.406
 1651W        W 5702   3.154   3.652  10.597
 1652W        W 5703   3.184   6.051   9.812
 1653W        W 5704   9.880   2.839   1.120
 1654W        W 5705   0.391   8.615  10.051
 1655W        W 5706   7.084   2.823   0.480
 1656W        W 5707   8.069  10.066   2.367
 1657W        W 5708   0.838   8.367  11.278
 1658W        W 5709   6.188   5.293   2.401
 1659W        W 5710   1.895   2.304   1.841
 1660W        W 5711   3.213   5.325   2.481
 1661W        W 5712   5.821   5.062   0.400
 1662W        W 5713   5.144   9.753  11.703
 1663W        W 5714   1.374   5.743   1.779
 1664W        W 5715   2.156   9.056   8.905
 1665W        W 5716  10.529   6.991   9.074
 1666W        W 5717   5.533   7.979   8.712
 1667W        W 5718   4.763   0.973   3.647
 1668W        W 5719   6.411   2.125   9.307
 1669W        W 5720   1.238   7.675   9.015
 1670W        W 5721  11.222   2.803   1.721
 1671W        W 5722   3.468   2.213   2.975
 1672W        W 5723  10.873   3.656   0.931
 1673W        W 5724  11.015   6.159   0.543
 1674W        W 5725   0.860   8.643  10.284
 1675W        W 5726   2.664   0.529  11.238
 1676W        W 5727  11.464   8.078   2.575
 1677W        W 5728   7.292  10.782   2.137
 1678W        W 5729  10.400   0.435   8.939
 1679W        W 5730   5.490   6.663   0.374
 1680W        W 5731   2.693   0.244   0.238
 1681W        W 5732   3.520   4.009   2.011
 1682W        W 5733   9.696   2.953  11.091
 1683W        W 5734   4.626   9.357   9.394
 1684W        W 5735   8.715   5.115   0.343
 1685W        W 5736   5.039   4.008   0.074
 1686W        W 5737   1.688   9.485   9.613
 1687W        W 5738   4.780   1.469  11.533
 1688W        W 5739   5.696   9.371  11.741
 1689W        W 5740   1.803   0.467   1.199
 1690W        W 5741   2.730   3.589   3.082
 1691W        W 5742  10.001   4.864   1.306
 1692W        W 5743   9.023   4.815   2.666
 1693W        W 5744   0.110   9.470   3.287
 1694W        W 5745   4.543   4.824   0.461
 1695W        W 5746  10.782   5.748   3.560
 1696W        W 5747   7.065   9.853   2.250
 1697W        W 5748   6.126   4.875  10.395
 1698W        W 5749  10.972   0.773   0.852
 1699W        W 5750   8.468  10.033  10.347
 1700W        W 5751   2.703   3.659   1.551
 1701W        W 5752   3.833  10.257   0.672
 1702W        W 5753  11.144   0.044  11.806
 1703W        W 5754   4.452   9.309   1.272
 1704W        W 5755   4.662  10.803   1.746
 1705W        W 5756   9.067  11.369  10.555
 1706W        W 5757   4.230   7.764  10.939
 1707W        W 5758   5.476  10.759   1.176
 1708W        W 5759   7.906   3.206  11.629
 1709W        W 5760   5.523   6.808  10.054
 1710W        W 5761  10.142   5.174  10.508
 1711W        W 5762   6.245   3.165   2.135
 1712W        W 5763   8.447   5.189   3.322
 1713W        W 5764  10.804   0.761   0.351
 1714W        W 5765  10.107   6.308  11.683
 1715W        W 5766   8.921   3.557   9.969
 1716W        W 5767   4.841   6.969   2.480
 1717W        W 5768   3.365   8.122  11.798
 1718W        W 5769   1.089   7.938  11.105
 1719W        W 5770   2.191   0.993   3.112
 1720W        W 5771   4.209   8.418   9.476
 1721W        W 5772   8.133   7.836   3.036
 1722W        W 5773   7.865  11.483  10.380
 1723W        W 5774   1.452   3.768   1.199
 1724W        W 5775   7.279   4.449   8.238
 1725W        W 5776   6.190  11.213   9.098
 1726W        W 5777   7.859   5.464   1.736
 1727W        W 5778   5.568   1.698   8.968
 1728W        W 5779   2.777   2.671   2.003
 1729W        W 5780   0.425   4.083   0.374
 1730W        W 5781   2.407   8.580   8.814
 1731W        W 5782   3.862  11.129   8.637
 1732W        W 5783   8.406  10.929  11.788
 1733W        W 5784   9.527   0.107   9.377
 1734W        W 5785   5.462   8.011   3.600
 1735W        W 5786   8.984   9.984   2.996
 1736W        W 5787   0.403   0.340   1.028
 1737W        W 5788   6.318   8.031   0.869
 1738W        W 5789   6.205   4.050   8.159
 1739W        W 5790   5.185   2.572  11.777
 1740W        W 5791   3.145   8.299   2.973
 1741W        W 5792   3.062   5.565   1.224
 1742W        W 5793   0.740  10.457  10.643
 1743W        W 5794   5.323   6.945   3.538
 1744W        W 5795   5.989   4.153   3.612
 1745W        W 5796   8.875   5.065   1.129
 1746W        W 5797   6.211   4.329   0.997
 1747W        W 5798   4.712   3.766  10.777
 1748W        W 5799   6.600   7.978   8.565
 1749W        W 5800   0.914   2.948   0.752
 1750W        W 5801   1.663   3.261   1.931
 1751W        W 5802  10.970   5.538   2.171
 1752W        W 5803   9.421   4.252  10.901
 1753W        W 5804   3.652   6.187   9.652
 1754W        W 5805   3.611   3.514   9.872
 1755W        W 5806   6.315   5.369  10.441
 1756W        W 5807   9.890   4.695   8.899
 1757W        W 5808  10.798   7.660   9.024
 1758W        W 5809   4.246   5.595  10.860
 1759W        W 5810   5.683  10.515   8.911
 1760W        W 5811   5.920   3.806   2.863
 1761W        W 5812   7.197  10.138   0.440
 1762W        W 5813   3.332   9.616   3.619
 1763W        W 5814  11.455   8.048   1.881
 1764W        W 5815   5.709   4.114   0.274
 1765W        W 5816   4.210   6.630   0.356
 1766W        W 5817   6.905   0.757  10.306
 1767W        W 5818  10.461  10.534   0.575
 1768W        W 5819   2.918   2.967  11.916
 1769W        W 5820  10.026   2.542  11.293
 1770W        W 5821   4.415   6.683   3.567
 1771W        W 5822   1.362   8.931   2.380
 1772W        W 5823   2.189   3.307  10.488
 1773W        W 5824   7.939   9.160   9.667
 1774W        W 5825   3.296   4.020   2.861
 1775W        W 5826  11.160   9.485   9.534
 1776W        W 5827   2.746   3.738   8.961
 1777W        W 5828   9.099   8.048   2.288
 1778W        W 5829   7.831   2.822   2.798
 1779W        W 5830   7.495   3.150  10.907
 1780W        W 5831   8.496   0.614   1.206
 1781W        W 5832   6.548   0.793  11.553
 1782W        W 5833   6.439   2.238   2.436
 1783W        W 5834   9.662   8.684  11.325
 1784W        W 5835   3.270   9.778   2.375
 1785W        W 5836   4.587   0.349   1.423
 1786W        W 5837   6.714   1.099  11.960
 1787W        W 5838   5.238   1.035   3.494
 1788W        W 5839   4.475   5.382  10.428
 1789W        W 5840   0.980   8.526   9.369
 1790W        W 5841  10.785   8.461  10.894
 1791W        W 5842   7.068   9.728   1.205
 1792W        W 5843   1.953   2.217   9.978
 1793W        W 5844   6.518   8.357   0.245
 1794W        W 5845   3.365   9.106  11.525
 1795W        W 5846   5.978   7.871  11.032
 1796W        W 5847   6.236   6.473   9.838
 1797W        W 5848   1.232   0.992   0.907
 1798W        W 5849   1.449   3.087   9.903
 1799W        W 5850   1.705   4.556   3.311
 1800W        W 5851   4.036   6.742   2.847
 1801W        W 5852   6.024   1.840   9.506
 1802W        W 5853  10.810   9.126   2.955
 1803W        W 5854   9.782   8.436   9.003
 1804W        W 5855   1.493   8.021   0.021
 1805W        W 5856   9.364   6.678   1.018
 1806W        W 5857   9.427   4.705   3.584
 1807W        W 5858   0.665   6.719  11.806
 1808W        W 5859   2.603  10.553  11.455
 1809W        W 5860   3.807   2.169   9.025
 1810W        W 5861  10.896  10.904   9.982
 1811W        W 5862  10.921   6.680   3.149
 1812W        W 5863   8.029  10.067  10.085
 1813W        W 5864   4.728  10.864   3.329
 1814W        W 5865   1.484   9.657   0.061
 1815W        W 5866   9.503   2.656   1.475
 1816W        W 5867   4.295  10.813  10.623
 1817W        W 5868   9.240   5.168  10.713
 1818W        W 5869   3.215   3.847  11.544
 1819W        W 5870   5.721   4.224   9.929
 1820W        W 5871   4.053  10.063  10.250
 1821W        W 5872   1.328   9.147   2.843
 1822W        W 5873   2.603  10.078   2.986
 1823W        W 5874   6.642   9.441   9.256
 1824W        W 5875   1.632   5.529   0.465
 1825W        W 5876   8.865   4.185   9.666
 1826W        W 5877   9.968   7.143   2.660
 1827W        W 5878   2.508   5.341   1.013
 1828W        W 5879   4.191   3.063  11.053
 1829W        W 5880   1.389   5.793   9.652
 1830W        W 5881   1.089   2.928   3.485
 1831W        W 5882   1.718   6.616  10.998
 1832W        W 5883   1.129  10.977   9.372
 1833W        W 5884   4.129   5.220  11.560
 1834W        W 5885   0.562  10.206   8.883
 1835W        W 5886   5.015   5.833   9.592
 1836W        W 5887   1.363   3.811   1.819
 1837W        W 5888   0.269   3.525   9.871
 1838W        W 5889   9.940   0.476   8.713
 1839W        W 5890   9.539   1.946   9.014
 1840W        W 5891   4.625   3.227   0.244
 1841W        W 5892   9.202   0.490   9.516
 1842W        W 5893   3.591   4.221   3.258
 1843W        W 5894   8.521   5.385  10.950
 1844W        W 5895   5.669   8.711   1.851
 1845W        W 5896  10.018   2.681   9.329
 1846W        W 5897  10.218   3.413  10.895
 1847W        W 5898   7.934   9.409   8.800
 1848W        W 5899   0.800   8.265   2.298
 1849W        W 5900   0.736   8.079   9.256
 1850W        W 5901   9.096   6.676   2.910
 1851W        W 5902   8.531  10.385   0.170
 1852W        W 5903   6.578   2.655  11.191
 1853W        W 5904   0.253   5.867   1.467
 1854W        W 5905   1.823   2.800   1.201
 1855W        W 5906   3.456   8.429   1.631
 1856W        W 5907   3.840   4.808  10.890
 1857W        W 5908   8.094   2.666   8.477
 1858W        W 5909   1.539  11.016   0.865
 1859W        W 5910   6.715   9.907   0.360
 1860W        W 5911   5.837   6.234  11.483
 1861W        W 5912   4.621  11.268   3.018
 1862W        W 5913   7.156   9.393   1.963
 1863W        W 5914  10.663  11.406  11.789
 1864W        W 5915   1.993   6.273  11.872
 1865W        W 5916   7.472   3.323   1.577
 1866W        W 5917   5.730   4.136   3.177
 1867W        W 5918   8.063  10.840   1.738
 1868W        W 5919   2.478  10.880  10.905
 1869W        W 5920  11.270   4.272   3.007
 1870W        W 5921   7.162   2.645   9.485
 1871W        W 5922   9.255   0.675   1.779
 1872W        W 5923   7.162   3.263   3.043
 1873W        W 5924   2.210   3.713   3.268
 1874W        W 5925  10.321   3.376   9.986
 1875W        W 5926   1.317   9.198   1.940
 1876W        W 5927   3.746   2.099   8.467
 1877W        W 5928  10.275   3.891   9.951
 1878W        W 5929   6.884   5.332   2.020
 1879W        W 5930   4.537   2.742   0.986
 1880W        W 5931   6.201   3.683   1.485
 1881W        W 5932   8.404  10.799   9.544
 1882W        W 5933   4.738   5.249   0.759
 1883W        W 5934   7.107   4.513   1.701
 1884W        W 5935  11.013  11.353   0.272
 1885W        W 5936   9.742   5.956  11.715
 1886W        W 5937   6.708  10.453   9.477
 1887W        W 5938   5.308  10.949   8.979
 1888W        W 5939   6.309   2.369   1.378
 1889W        W 5940   4.687   0.672   2.551
 1890W        W 5941   0.511   2.790  10.572
 1891W        W 5942  10.915   2.016   2.728
 1892W        W 5943   6.540   6.117   0.955
 1893W        W 5944   1.963  10.193   1.980
 1894W        W 5945   1.152   0.852   9.128
 1895W        W 5946   3.484   9.624   9.699
 1896W        W 5947  10.304   2.800   2.475
 1897W        W 5948   1.230   8.039   9.405
 1898W        W 5949   0.357   0.852   2.423
 1899W        W 5950   1.712   5.557   1.429
 1900W        W 5951   3.191   8.871   3.098
 1901W        W 5952  10.034   4.993  10.029
 1902W        W 5953   2.093   1.834   1.739
 1903W        W 5954   8.452   3.264  10.438
 1904W        W 5955   3.795   3.097  11.366
 1905W        W 5956   9.052   6.104   9.090
 1906W        W 5957  11.177   5.735  11.225
 1907W        W 5958   1.754   4.598   1.484
 1908W        W 5959   8.770   2.495   2.808
 1909W        W 5960  11.351  10.569  11.117
 1910W        W 5961  10.048   2.612  10.316
 1911W        W 5962   8.244   0.904  10.390
 1912W        W 5963   5.476   2.076   2.576
 1913W        W 5964   5.625   0.386   9.638
 1914W        W 5965  10.949   5.208  11.498
 1915W        W 5966  10.115   3.613   9.538
 1916W        W 5967   0.257   7.277   2.958
 1917W        W 5968   3.310  11.333   1.419
 1918W        W 5969   6.720   6.150   8.712
 1919W        W 5970   1.435   7.082   8.424
 1920W        W 5971  11.495   5.557   9.162
 1921W        W 5972  10.125   6.042   2.201
 1922W        W 5973   5.045  10.316   2.303
 1923W        W 5974   0.469   9.836   3.433
 1924W        W 5975   9.171   9.574   0.330
 1925W        W 5976   9.015  10.447   2.192
 1926W        W 5977   1.779   8.936   1.789
 1927W        W 5978   2.240   2.803  10.059
 1928W        W 5979   4.105   4.244   1.533
 1929W        W 5980   2.211   1.999   3.770
 1930W        W 5981   4.100   3.350  10.041
 1931W        W 5982   0.191   1.479   1.696
 1932W        W 5983   8.447  10.760   2.777
 1933W        W 5984   4.653   3.855   2.813
 1934W        W 5985   6.640   8.446  10.256
 1935W        W 5986   2.998  10.439  10.108
 1936W        W 5987   3.193   1.782   9.009
 1937W        W 5988   9.569  10.759   1.011
 1938W        W 5989   3.487   8.002   0.920
 1939W        W 5990   5.394   7.835   9.209
 1940W        W 5991   4.019   2.599   2.492
 1941W        W 5992   7.698  11.041   0.468
 1942W        W 5993   3.610   2.079   0.256
 1943W        W 5994   6.603   1.284   9.055
 1944W        W 5995   8.104   8.322   2.754
 1945W        W 5996   0.860   0.391   2.410
 1946W        W 5997   6.900   3.314   0.574
 1947W        W 5998   4.185   9.062   1.681
 1948W        W 5999   3.495   0.467   3.736
 1949W        W 6000   3.681   3.576   1.772
 1950W        W 6001   9.899   4.768  10.768
 1951W        W 6002   7.245   1.877   2.674
 1952W        W 6003   8.671   3.699  11.308
 1953W        W 6004  11.422   9.912   9.341
 1954W        W 6005   9.821   0.080   0.984
 1955W        W 6006   1.465   5.113   2.118
 1956W        W 6007   2.415   6.112   8.798
 1957W        W 6008   3.368   9.483   0.406
 1958W        W 6009   8.620   5.259  11.850
 1959W        W 6010   5.982   6.063  10.987
 1960W        W 6011  10.487   3.450   0.269
 1961W        W 6012   3.110  11.340  11.132
 1962W        W 6013   8.620   8.799   1.213
 1963W        W 6014   1.785   5.981   2.206
 1964W        W 6015   1.634  10.809   9.300
 1965W        W 6016  11.295   9.758  11.372
 1966W        W 6017   5.281   8.954   0.682
 1967W        W 6018  10.591  11.323  10.951
 1968W        W 6019  11.429   7.556   1.706
 1969W        W 6020   9.913   5.601   0.021
 1970W        W 6021   1.419   1.390   3.136
 1971W        W 6022   4.779   1.709  11.986
 1972W        W 6023   6.531   7.580   0.984
 1973W        W 6024   4.959   6.568   3.643
 1974W        W 6025   3.848   3.176   1.476
 1975W        W 6026   7.131   8.849  11.057
 1976W        W 6027   3.265   2.687   1.754
 1977W        W 6028   2.243   7.930   1.172
 1978W        W 6029   3.673   0.274   3.188
 1979W        W 6030   4.159  11.189  10.296
 1980W        W 6031  10.410   5.171  11.478
 1981W        W 6032   2.837   8.791   0.795
 1982W        W 6033  10.896   3.283   9.334
 1983W        W 6034   3.931   7.135   9.262
 1984W        W 6035   3.842   3.375  11.806
 1985W        W 6036  11.424   3.128   9.996
 1986W        W 6037   2.208   8.922  11.313
 1987W        W 6038   6.211  10.814  10.728
 1988W        W 6039   2.196   2.221  11.484
 1989W        W 6040   3.262   9.063  10.642
 1990W        W 6041   1.292   5.274   1.637
 1991W        W 6042   9.753   4.585  10.210
 1992W        W 6043   3.895   8.201   8.362
 1993W        W 6044   8.092  10.458   2.050
 1994W        W 6045   6.954   8.432   0.549
 1995W        W 6046   5.535   2.365   9.750
 1996W        W 6047   0.700   5.978   1.218
 1997W        W 6048   1.673   6.700  11.978
 1998W        W 6049   6.079   8.931   1.637
 1999W        W 6050   0.620   1.844   9.021
 2000W        W 6051   2.755   1.128  10.443
 2001W        W 6052   6.046   0.420   2.247
 2002W        W 6053   8.588   9.718   1.631
 2003W        W 6054  11.418   0.907  11.850
 2004W        W 6055   7.214   7.833   9.937
 2005W        W 6056   8.632  10.013  11.098
 2006W        W 6057   3.351   2.240   9.780
 2007W        W 6058   1.796   6.447   1.934
 2008W        W 6059   3.642   8.907   9.045
 2009W        W 6060   2.259   3.686  11.276
 2010W        W 6061  10.069   0.192   1.430
 2011W        W 6062   8.270   1.555  11.300
 2012W        W 6063   2.889   1.851  11.225
 2013W        W 6064   8.368   9.609   0.015
 2014W        W 6065   0.317   7.913   9.577
 2015W        W 6066   2.679   3.456   8.536
 2016W        W 6067   1.332   9.281   3.515
 2017W        W 6068  10.837   7.020  10.821
 2018W        W 6069   3.844   7.478   0.242
 2019W        W 6070   1.987   7.712   3.167
 2020W        W 6071   1.846   1.416   2.016
 2021W        W 6072   9.391   9.349  11.880
 2022W        W 6073   1.623  10.553   1.786
 2023W        W 6074   7.984  11.404   0.927
 2024W        W 6075   8.602   0.563   2.306
 2025W        W 6076   4.267   4.600  11.680
 2026W        W 6077   2.421   7.480   4.065
 2027W        W 6078   9.541   9.847   9.015
 2028W        W 6079   8.057   5.323   3.610
 2029W        W 6080   9.650  10.971  11.295
 2030W        W 6081   8.898   3.619  10.850
 2031W        W 6082   6.139   9.485   0.781
 2032W        W 6083   2.621  10.885   0.200
 2033W        W 6084  10.478   0.519   3.139
 2034W        W 6085   1.560   2.428   0.100
 2035W        W 6086  10.869   1.211   8.621
 2036W        W 6087   9.062  11.227   2.205
 2037W        W 6088   8.168   7.541   1.833
 2038W        W 6089   3.109   1.417   3.325
 2039W        W 6090   2.205   4.944   3.783
 2040W        W 6091   0.111   6.745  10.130
 2041W        W 6092  10.357   7.009  11.975
 2042W        W 6093  10.815   6.115  11.198
 2043W        W 6094   1.695   2.713   3.277
 2044W        W 6095  10.154   2.796   8.833
 2045W        W 6096   4.811  10.063   1.363
 2046W        W 6097   5.693  11.347   8.939
 2047W        W 6098   2.780   4.568   1.462
 2048W        W 6099   4.488  11.264  11.944
 2049W        W 6100   8.958   9.497  10.288
 2050W        W 6101   3.034   7.799   0.694
 2051W        W 6102   5.684   8.176   1.826
 2052W        W 6103   6.410   3.322   9.366
 2053W        W 6104   1.111   2.203   1.497
 2054W        W 6105   5.555   5.707   0.458
 2055W        W 6106   8.913   5.929  11.417
 2056W        W 6107  11.485   6.753   0.871
 2057W        W 6108   6.738  10.415   1.491
 2058W        W 6109   4.370   6.550   0.982
 2059W        W 6110  10.765   5.162   1.381
 2060W        W 6111   0.419  10.322   9.927
 2061W        W 6112   6.963   3.743   2.261
 2062W        W 6113   4.017   7.928   0.962
 2063W        W 6114   5.500   3.308   1.711
 2064W        W 6115  11.260   0.409  11.078
 2065W        W 6116   1.805  10.431   2.768
 2066W        W 6117   1.013   9.970   1.346
 2067W        W 6118  10.453   8.950  11.295
 2068W        W 6119   9.653   8.155   9.576
 2069W        W 6120   1.910   2.528  11.757
 2070W        W 6121   5.979   6.185   8.918
 2071W        W 6122   0.660   1.653   1.887
 2072W        W 6123   2.226  11.327  10.925
 2073W        W 6124   4.188  10.285   2.390
 2074W        W 6125   5.223   9.785   4.140
 2075W        W 6126   2.937   8.383   8.118
 2076W        W 6127   2.869   2.938  10.902
 2077W        W 6128   7.382   3.002  11.761
 2078W        W 6129   5.456   4.663   0.370
 2079W        W 6130   1.855   0.317   3.276
 2080W        W 6131  10.901   5.978   2.406
 2081W        W 6132   6.948   9.919  11.479
 2082W        W 6133   5.735   4.765  10.065
 2083W        W 6134  11.465   5.072   1.838
 2084W        W 6135   8.144   2.891   8.967
 2085W        W 6136   4.103   3.047   2.732
 2086W        W 6137   3.610  11.054   0.405
 2087W        W 6138   2.229   9.039   3.328
 2088W        W 6139   1.669   1.878   0.774
 2089W        W 6140   0.299  10.071  10.641
 2090W        W 6141  10.454   5.474   9.469
 2091W        W 6142  10.786   9.661  10.431
 2092W        W 6143   1.384   1.776  11.290
 2093W        W 6144   9.257   3.917   1.784
 2094W        W 6145   2.604   3.188   1.791
 2095W        W 6146   8.609   1.809   9.565
 2096W        W 6147   8.194  11.096  10.460
 2097W        W 6148   8.230   5.064   0.472
 2098W        W 6149   2.409   5.331   0.024
 2099W        W 6150   3.155   7.966   1.309
 2100W        W 6151   3.655   7.580   9.217
 2101W        W 6152   1.320   9.429   2.397
 2102W        W 6153   7.630  10.373   8.988
 2103W        W 6154   0.083   0.510   9.822
 2104W        W 6155  10.385   2.433   0.312
 2105W        W 6156  11.039   5.990  11.647
 2106W        W 6157   1.930   3.166   9.152
 2107W        W 6158  10.014   6.166   9.908
 2108W        W 6159   6.141  10.836   2.891
 2109W        W 6160  11.433   2.729   2.198
 2110W        W 6161   7.150   7.020  11.539
 2111W        W 6162   0.049   3.380  11.410
 2112W        W 6163   5.729   0.818   2.206
 2113W        W 6164   0.200   3.173  11.865
 2114W        W 6165   3.890   1.046  11.386
 2115W        W 6166   1.893   0.232  10.879
 2116W        W 6167   6.022   4.384  10.306
 2117W        W 6168   9.338   7.576   8.800
 2118W        W 6169   3.307   5.135   9.656
 2119W        W 6170   3.398   3.253   3.147
 2120W        W 6171   3.589   9.330  10.239
 2121W        W 6172  10.185   0.255   2.825
 2122W        W 6173   3.993   8.900   9.440
 2123W        W 6174   5.556   8.294   4.022
 2124W        W 6175   2.184   8.409   2.099
 2125W        W 6176  10.406   6.491   2.412
 2126W        W 6177   8.102   9.977   0.267
 2127W        W 6178  11.321   3.915   1.018
 2128W        W 6179   0.842   7.426   1.737
 2129W        W 6180  10.568   6.803   1.307
 2130W        W 6181   1.942   9.691  11.318
 2131W        W 6182   3.302   2.222  10.279
 2132W        W 6183   8.555   2.648   3.611
 2133W        W 6184   4.606   2.397   9.576
 2134W        W 6185   3.168   9.415  11.925
 2135W        W 6186   2.115   5.602   0.338
 2136W        W 6187  10.054   1.256   2.607
 2137W        W 6188   1.019   3.648   1.484
 2138W        W 6189   9.609   9.794  10.818
 2139W        W 6190   0.832   6.092  10.421
 2140W        W 6191  10.028   0.801   9.145
 2141W        W 6192   9.170   1.214   3.192
 2142W        W 6193   9.252   8.345  11.472
 2143W        W 6194   1.885   1.934   1.270
 2144W        W 6195   4.362   4.399   0.160
 2145W        W 6196   8.657   1.744   0.440
 2146W        W 6197   9.750   6.715   1.842
 2147W        W 6198   1.662   9.410   1.622
 2148W        W 6199   4.493   8.374  10.066
 2149W        W 6200   3.760   9.665   8.873
 2150W        W 6201   3.630   0.262   2.243
 2151W        W 6202   0.486   8.833   9.299
 2152W        W 6203   2.388   3.223   3.216
 2153W        W 6204   5.041   2.964  10.018
 2154W        W 6205   5.233   8.650   3.081
 2155W        W 6206   1.441   1.745  11.792
 2156W        W 6207   9.991  10.502  11.822
 2157W        W 6208   4.548   4.175   3.393
 2158W        W 6209   4.117   2.549   0.766
 2159W        W 6210   8.286   3.695   1.849
 2160W        W 6211   0.549  10.344   1.824
 2161W        W 6212   7.871   4.095   9.333
 2162W        W 6213   0.781   3.694   9.075
 2163W        W 6214   7.052   3.376  11.062
 2164W        W 6215   1.617  10.540  10.377
 2165W        W 6216   6.629   4.543   0.819
 2166W        W 6217   5.255   1.157   9.563
 2167W        W 6218   0.134   7.090   1.250
 2168W        W 6219   2.143  11.297   2.344
 2169W        W 6220   7.064   0.389   9.435
 2170W        W 6221   2.755   5.642  11.770
 2171W        W 6222   5.568   9.434   2.327
 2172W        W 6223   0.856   4.807  10.923
 2173W        W 6224   1.752   8.069  10.069
 2174W        W 6225   2.482   9.036   1.548
 2175W        W 6226   9.638   8.445   1.635
 2176W        W 6227   8.449   2.328   3.191
 2177W        W 6228   7.023   9.740   0.716
 2178W        W 6229   9.583   7.462  11.640
 2179W        W 6230  11.267   6.078   1.480
 2180W        W 6231  10.589   6.110   2.033
 2181W        W 6232   7.718   0.676   9.286
 2182W        W 6233   1.515   9.504  10.999
 2183W        W 6234  10.003   1.778   2.151
 2184W        W 6235   3.214   6.064   1.265
 2185W        W 6236   3.790   9.278  11.266
 2186W        W 6237   5.098   5.574   0.256
 2187W        W 6238   8.646   3.747  10.396
 2188W        W 6239   0.915   9.769  11.418
 2189W        W 6240   9.891   8.862   2.357
 2190W        W 6241  11.062   3.161   0.975
 2191W        W 6242   9.796   7.511   9.036
 2192W        W 6243  10.816   7.525  10.917
 2193W        W 6244   5.457   4.072   9.539
 2194W        W 6245   7.110   7.455  11.271
 2195W        W 6246   1.759   0.510   1.725
 2196W        W 6247   9.244   0.760  10.734
 2197W        W 6248   3.722   3.280   0.995
 2198W        W 6249   8.376   6.312   0.754
 2199W        W 6250   1.786   9.028   9.806
 2200W        W 6251   3.130   0.254   0.001
 2201W        W 6252   1.355   7.092   0.077
 2202W        W 6253   2.857   7.912  10.937
 2203W        W 6254  10.531  11.463   3.096
 2204W        W 6255   0.782   9.911  10.042
 2205W        W 6256   6.450   9.973   1.827
 2206W        W 6257   6.550   0.877   3.362
 2207W        W 6258   7.656   6.356   1.176
 2208W        W 6259   7.907   5.571   0.202
 2209W        W 6260   9.399   3.752  10.828
 2210W        W 6261  10.460   6.956   2.662
 2211W        W 6262   2.268   8.449   0.190
 2212W        W 6263   5.113   7.026   1.864
 2213W        W 6264   8.465  11.326  11.209
 2214W        W 6265   5.580  10.251   3.415
 2215W        W 6266  10.458   2.755  11.891
 2216W        W 6267   6.650   0.925  11.046
 2217W        W 6268  11.035   1.353   2.912
 2218W        W 6269   7.598   3.044   3.207
 2219W        W 6270   8.903   4.233  11.639
 2220W        W 6271   1.590  10.241   0.167
 2221W        W 6272  10.643   3.539   1.824
 2222W        W 6273  11.124   9.955  10.908
 2223W        W 6274   7.530   6.248  11.533
 2224W        W 6275   4.584   9.299   0.738
 2225W        W 6276  10.296  11.106   9.295
 2226W        W 6277   5.435   3.734   3.061
 2227W        W 6278   5.628   4.851   0.825
 2228W        W 6279   0.506   0.747  10.032
 2229W        W 6280   1.462   8.693   0.554
 2230W        W 6281   7.385   5.762  11.522
 2231W        W 6282   0.466   3.555  11.654
 2232W        W 6283  10.231   3.667   3.336
 2233W        W 6284   1.421   3.518   8.973
 2234W        W 6285  10.658   7.486  10.311
 2235W        W 6286  10.802   9.081   9.598
 2236W        W 6287   3.525   4.652   0.142
 2237W        W 6288  10.599  10.550   2.305
 2238W        W 6289   6.614   6.327   9.541
 2239W        W 6290   6.217   0.632   0.471
 2240W        W 6291   6.488   7.510  10.528
 2241W        W 6292   5.135   3.536   9.162
 2242W        W 6293   4.637   2.468   1.401
 2243W        W 6294   4.033   4.760   0.296
 2244W        W 6295  10.924   6.904  11.484
 2245W        W 6296   8.090   5.911   1.563
 2246W        W 6297  10.463   4.134  11.409
 2247W        W 6298   6.735   9.808  10.078
 2248W        W 6299   8.406   3.503   9.986
 2249W        W 6300   3.312   9.311   1.310
 2250W        W 6301   8.248   1.185   9.968
 2251W        W 6302   9.754   6.036  10.345
 2252W        W 6303   2.646   1.169   3.260
 2253W        W 6304   4.235   7.158   0.213
 2254W        W 6305   3.726   1.814  10.985
 2255W        W 6306   1.763   3.725   2.581
 2256W        W 6307   7.927   9.791   0.875
 2257W        W 6308  11.278   7.280  10.951
 2258W        W 6309  10.493   7.845   2.680
 2259W        W 6310   9.402   8.497  10.424
 2260W        W 6311   6.682  10.300   9.993
 2261W        W 6312   7.105   5.162  11.801
 2262W        W 6313   2.409   9.498   2.113
 2263W        W 6314   4.363   8.587   2.904
 2264W        W 6315  10.408   7.981   0.066
 2265W        W 6316   5.559   7.127   2.172
 2266W        W 6317   2.906   7.267  10.290
 2267W        W 6318   3.807   4.567   9.075
 2268W        W 6319   0.359   1.015  10.504
 2269W        W 6320  11.221   3.692   9.985
 2270W        W 6321   6.205   3.125   2.752
 2271W        W 6322   1.184   8.763  11.936
 2272W        W 6323   3.571   8.450   2.221
 2273W        W 6324   0.079  10.104  11.107
 2274W        W 6325   0.381   6.366   9.285
 2275W        W 6326   3.721  10.496   2.394
 2276W        W 6327   1.944   4.314  11.910
 2277W        W 6328   7.964   1.427   2.600
 2278W        W 6329   2.226  10.790  10.105
 2279W        W 6330   1.230  10.938  11.846
 2280W        W 6331   7.565   4.509   0.977
 2281W        W 6332   4.601   0.690   8.958
 2282W        W 6333   7.721   8.472  10.858
 2283W        W 6334   3.400   1.744  10.433
 2284W        W 6335   8.540   8.177  10.435
 2285W        W 6336   3.369   0.292   8.383
 2286W        W 6337   6.218   7.000  11.398
 2287W        W 6338   0.451   8.152   1.719
 2288W        W 6339   4.460   0.374   3.308
 2289W        W 6340   6.319   6.975   2.658
 2290W        W 6341   2.458   6.621   0.177
 2291W        W 6342   2.934   5.109  10.019
 2292W        W 6343   5.932  10.919   0.961
 2293W        W 6344   8.979   9.088   0.037
 2294W        W 6345   0.566  11.485   2.297
 2295W        W 6346   8.715   0.360   3.235
 2296W        W 6347   4.567  10.404  10.860
 2297W        W 6348   4.265   7.624   2.689
 2298W        W 6349   1.680   9.013   8.729
 2299W        W 6350   5.497   0.183   0.909
 2300W        W 6351   5.319   6.880  11.287
 2301W        W 6352  10.299   9.893   2.662
 2302W        W 6353   2.578   8.524  11.494
 2303W        W 6354  10.929   4.339  11.334
 2304W        W 6355   1.399   2.845   0.895
 2305W        W 6356   3.134  11.359   9.710
 2306W        W 6357   7.545   7.527   9.380
 2307W        W 6358   6.629   1.970   0.042
 2308W        W 6359   8.382   5.521   1.674
 2309W        W 6360   2.179   9.998  10.362
 2310W        W 6361   2.805   7.029   0.152
 2311W        W 6362   2.313   7.638   2.758
 2312W        W 6363  11.382   7.697   2.224
 2313W        W 6364   2.739   6.027   9.555
 2314W        W 6365   6.127   0.888   2.514
 2315W        W 6366   0.055   2.700   1.315
 2316W        W 6367   7.321   0.348  11.970
 2317W        W 6368   4.541  10.459   9.830
 2318W        W 6369   9.483   5.570   1.587
 2319W        W 6370   5.609   9.922  10.005
 2320W        W 6371  10.877   0.226   8.910
 2321W        W 6372   6.197   8.454   2.625
 2322W        W 6373   6.948   6.014   1.706
 2323W        W 6374   8.406   9.492   9.011
 2324W        W 6375   6.774   8.956   8.307
 2325W        W 6376   8.374  11.212   1.208
 2326W        W 6377   6.508   3.651   0.708
 2327W        W 6378   5.576   6.928   3.085
 2328W        W 6379   8.037   6.599   2.242
 2329W        W 6380   9.487  11.491   2.283
 2330W        W 6381   1.971   4.606  11.451
 2331W        W 6382   6.478   2.807   1.160
 2332W        W 6383   1.943   7.608   1.442
 2333W        W 6384   4.495   8.260  11.153
 2334W        W 6385  10.618   9.210   1.019
 2335W        W 6386   6.419   4.335  11.422
 2336W        W 6387   3.198   1.828   0.430
 2337W        W 6388   9.066   6.695   3.808
 2338W        W 6389   1.740   8.653   1.357
 2339W        W 6390   7.481   4.667   0.505
 2340W        W 6391   3.001   0.454   1.999
 2341W        W 6392   0.724   6.753   3.495
 2342W        W 6393   8.010   5.091   0.950
 2343W        W 6394   3.694   3.053  10.113
 2344W        W 6395   9.712   6.206   0.707
 2345W        W 6396   7.773   3.755   8.965
 2346W        W 6397   2.975   9.723   9.608
 2347W        W 6398   8.151  10.882   0.239
 2348W        W 6399  10.404   5.818   1.240
 2349W        W 6400   6.108   0.408   0.923
 2350W        W 6401   0.043   2.304   0.976
 2351W        W 6402   5.700   0.894   0.010
 2352W        W 6403   9.791   4.257   0.009
 2353W        W 6404   0.253   6.779   2.942
 2354W        W 6405   0.184  10.948   9.491
 2355W        W 6406   5.465   3.219  10.767
 2356W        W 6407   2.145   6.828  11.266
 2357W        W 6408   4.083   0.452   2.948
 2358W        W 6409   2.780   5.573   2.268
 2359W        W 6410  10.880   6.488   2.230
 2360W        W 6411   8.379   2.414  10.600
 2361W        W 6412   6.294   5.225   0.542
 2362W        W 6413   8.977   7.942   1.281
 2363W        W 6414  10.860   7.253  11.959
 2364W        W 6415   5.091   2.262   8.627
 2365W        W 6416   5.878   6.737  11.992
 2366W        W 6417   3.623   5.588   1.178
 2367W        W 6418   2.875  10.098   2.523
 2368W        W 6419   7.668   9.953   1.337
 2369W        W 6420   8.133   5.784   2.073
 2370W        W 6421   7.632   2.904  10.429
 2371W        W 6422   9.097   4.094   1.311
 2372W        W 6423   6.185   4.093  10.985
 2373W        W 6424   7.797   3.455   2.934
 2374W        W 6425   6.052   9.620  11.344
 2375W        W 6426  10.376   1.153  10.833
 2376W        W 6427   7.751   4.391   3.365
 2377W        W 6428   6.253   6.463   1.248
 2378W        W 6429  10.988   2.825   3.032
 2379W        W 6430   7.252   6.588  11.895
 2380W        W 6431   7.969   2.104   3.423
 2381W        W 6432   0.390   3.189  10.266
 2382W        W 6433   0.079  11.322   2.351
 2383W        W 6434   1.630   1.766   8.516
 2384W        W 6435   4.096   3.948   0.136
 2385W        W 6436   8.505   4.678   1.864
 2386W        W 6437   9.802   2.018   3.092
 2387W        W 6438   0.891   5.546   0.925
 2388W        W 6439   7.945   3.252  10.654
 2389W        W 6440   3.264   7.865   2.716
 2390W        W 6441   1.796   5.526   1.956
 2391W        W 6442   2.880  10.524   2.245
 2392W        W 6443   5.436   3.747   9.986
 2393W        W 6444   0.083   6.981   0.414
 2394W        W 6445   1.547   7.560   8.616
 2395W        W 6446   6.659   2.406   3.187
 2396W        W 6447   8.500   1.286   0.210
 2397W        W 6448   1.844   2.797   1.715
 2398W        W 6449   3.611   1.793   0.853
 2399W        W 6450   4.565  11.329   1.891
 2400W        W 6451   0.943   5.514   1.940
 2401W        W 6452   5.315   7.097   2.644
 2402W        W 6453   7.098  10.846  11.696
 2403W        W 6454  10.749   8.511  11.411
 2404W        W 6455   9.826   7.081  11.069
 2405W        W 6456   4.662   1.688  11.080
 2406W        W 6457  10.012   6.563   0.914
 2407W        W 6458   2.934   5.105   9.104
 2408W        W 6459  10.774   4.616  10.494
 2409W        W 6460   0.363   6.281  10.290
 2410W        W 6461   3.289   6.914   0.314
 2411W        W 6462   6.181   1.449   0.646
 2412W        W 6463   1.840   7.144  11.788
 2413W        W 6464   0.770   9.376   1.691
 2414W        W 6465   4.011   1.755   9.759
 2415W        W 6466   7.402  10.804  10.919
 2416W        W 6467   0.654   0.431   0.356
 2417W        W 6468  11.167   6.895   2.158
 2418W        W 6469   5.251   2.634  11.281
 2419W        W 6470   6.537  10.489  11.749
 2420W        W 6471   9.905   6.914   8.488
 2421W        W 6472   3.343   3.628   0.943
 2422W        W 6473   7.892   1.803   9.614
 2423W        W 6474   1.312   9.922   2.353
 2424W        W 6475   9.882   7.111   9.964
 2425W        W 6476   5.385   1.197   0.310
 2426W        W 6477   6.981  10.844  11.183
 2427W        W 6478   5.484   4.342  10.387
 2428W        W 6479   1.819   7.060  10.782
 2429W        W 6480   2.219   8.068   3.474
 2430W        W 6481   5.365   2.261   0.335
 2431W        W 6482   9.036   0.085   0.508
 2432W        W 6483   8.991   5.555  11.076
 2433W        W 6484   1.822   1.210   2.844
 2434W        W 6485   2.802   5.947   0.954
 2435W        W 6486   4.332   3.916   1.860
 2436W        W 6487  10.545   9.310  10.931
 2437W        W 6488  10.103   1.442   3.087
 2438W        W 6489   8.853  10.801   9.974
 2439W        W 6490  10.921   9.944   9.530
 2440W        W 6491  10.092   4.765   1.845
 2441W        W 6492   0.574   0.421   2.852
 2442W        W 6493   8.180   9.742   2.753
 2443W        W 6494   2.233   6.675  10.051
 2444W        W 6495   0.929  10.839   1.451
 2445W        W 6496   2.703   1.454  10.000
 2446W        W 6497   9.976   9.206   8.638
 2447W        W 6498   6.503   7.841   1.431
 2448W        W 6499   0.264   4.758   3.321
 2449W        W 6500   8.360   9.183  10.617
 2450W        W 6501   3.212   3.144   0.904
 2451W        W 6502  10.924  11.465  10.022
 2452W        W 6503   8.582   5.525   9.567
 2453W        W 6504  10.559   9.011  10.024
 2454W        W 6505   1.276   1.500   0.905
 2455W        W 6506   8.511  10.388   2.325
 2456W        W 6507  11.165   5.614   3.188
 2457W        W 6508   6.004   6.703  10.220
 2458W        W 6509   7.321   3.220   1.075
 2459W        W 6510   9.535   4.656   9.261
 2460W        W 6511   3.596   5.058  11.388
 2461W        W 6512   2.942  10.555   0.453
 2462W        W 6513   6.202   1.053  11.276
 2463W        W 6514   5.698   8.803   3.258
 2464W        W 6515   2.744   0.458   0.700
 2465W        W 6516   8.492   7.651   1.421
 2466W        W 6517   3.166   4.268   1.711
 2467W        W 6518   0.067   0.382   3.013
 2468W        W 6519   8.324   5.500   4.022
 2469W        W 6520   1.668   9.527   2.747
 2470W        W 6521  10.690   1.253   0.146
 2471W        W 6522   6.591   5.032   0.909
 2472W        W 6523   2.214   9.484   9.676
 2473W        W 6524   1.304   6.157   2.991
 2474W        W 6525   1.946   4.615   2.872
 2475W        W 6526   8.956   5.904   9.849
 2476W        W 6527   2.203   6.664   2.638
 2477W        W 6528  11.050   8.728   3.174
 2478W        W 6529   8.491   4.172  11.319
 2479W        W 6530   3.146   5.002   3.007
 2480W        W 6531   3.596   9.846  10.225
 2481W        W 6532   7.777   0.273  11.783
 2482W        W 6533   6.194  10.820   9.483
 2483W        W 6534  10.537   8.202   2.318
 2484W        W 6535   5.187   0.012   2.238
 2485W        W 6536   0.530   5.026   0.244
 2486W        W 6537   3.340   4.227  11.855
 2487W        W 6538   3.879   1.688  10.275
 2488W        W 6539   3.674   0.242   0.849
 2489W        W 6540   3.233   9.760   0.848
 2490W        W 6541   7.475   8.919   9.679
 2491W        W 6542   5.246   8.767   1.154
 2492W        W 6543   2.275  11.473   2.818
 2493W        W 6544   9.038   3.145   2.282
 2494W        W 6545   1.408   0.759   1.388
 2495W        W 6546  10.876   0.029  11.333
 2496W        W 6547   8.031   1.771   2.985
 2497W        W 6548  11.277  11.221   9.271
 2498W        W 6549   9.909   5.254   0.384
 2499W        W 6550   5.527   5.378   0.032
 2500W        W 6551   3.154   9.229   9.631
 2501W        W 6552   3.643   4.946   2.243
 2502W        W 6553   1.769   7.675   9.121
 2503W        W 6554   9.308   8.467   9.888
 2504W        W 6555   8.990   6.380   0.119
 2505W        W 6556  10.623   8.959   1.915
 2506W        W 6557   3.272  11.436   0.493
 2507W        W 6558   1.119   9.383   1.334
 2508W        W 6559   5.289   0.498   3.549
 2509W        W 6560   7.113  10.821   2.631
 2510W        W 6561   2.077   7.232   3.305
 2511W        W 6562   1.713   5.050   3.094
 2512W        W 6563   5.692   5.675  10.069
 2513W        W 6564   0.120   3.566   2.044
 2514W        W 6565   0.893   7.185  11.857
 2515W        W 6566   9.688   7.990  10.923
 2516W        W 6567   1.333   3.633  11.211
 2517W        W 6568   8.268  10.904   2.298
 2518W        W 6569   1.758   4.731  10.561
 2519W        W 6570   9.815   5.667   1.980
 2520W        W 6571   3.455   8.041   9.339
 2521W        W 6572   2.618   4.086   3.085
 2522W        W 6573   6.261   1.153   9.989
 2523W        W 6574   5.513   3.743   2.566
 2524W        W 6575   3.069   8.646  11.425
 2525W        W 6576   9.517   5.757   1.115
 2526W        W 6577   8.349   4.173   9.525
 2527W        W 6578   2.251   0.267  11.974
 2528W        W 6579   6.532   4.043   3.655
 2529W        W 6580   4.712   9.723   0.984
 2530W        W 6581   2.753   6.223   1.408
 2531W        W 6582  11.008   6.524  10.710
 2532W        W 6583   1.704   4.086   0.357
 2533W        W 6584   2.920   0.310  10.709
 2534W        W 6585  10.449   9.442   1.885
 2535W        W 6586   2.749   7.577  11.325
 2536W        W 6587   0.404   3.097   1.380
 2537W        W 6588   4.702  10.369   3.158
 2538W        W 6589   0.043   9.637  10.875
 2539W        W 6590   5.639   6.203   1.815
 2540W        W 6591   6.223   8.087   9.501
 2541W        W 6592   2.638   5.117  11.268
 2542W        W 6593   6.059   2.018  11.375
 2543W        W 6594   1.366   4.187   0.000
 2544W        W 6595   6.589   7.602   1.889
 2545W        W 6596   3.766   9.422   3.838
 2546W        W 6597   0.920   7.194   9.089
 2547W        W 6598   7.556   2.272   2.194
 2548W        W 6599  11.333   6.986   3.125
 2549W        W 6600   7.125  10.514   9.878
 2550W        W 6601   8.922   9.211  10.721
 2551W        W 6602  10.327   2.776   0.839
 2552W        W 6603   8.747   6.840  11.951
 2553W        W 6604  11.085   8.990   1.019
 2554W        W 6605  10.537   0.792   9.897
 2555W        W 6606  10.408   3.699   0.718
 2556W        W 6607   1.863   5.865   9.855
 2557W        W 6608   9.807  10.522   2.721
 2558W        W 6609   9.760   0.927  11.942
 2559W        W 6610  10.870   3.494  10.814
 2560W        W 6611   8.800   5.673   9.122
 2561W        W 6612   5.765   3.673   3.432
 2562W        W 6613   3.753   9.857   8.363
 2563W        W 6614   7.483   9.201   0.240
 2564W        W 6615  10.296   5.302   3.914
 2565W        W 6616   0.181   5.647   3.258
 2566W        W 6617   1.692   5.110  11.504
 2567W        W 6618  10.406   8.108  11.474
 2568W        W 6619   6.822   7.201   3.573
 2569W        W 6620   9.662   5.053  10.380
 2570W        W 6621   0.245   1.925   0.344
 2571W        W 6622   7.066   9.489   0.281
 2572W        W 6623   3.016   4.702   9.649
 2573W        W 6624   6.463   4.773  10.036
 2574W        W 6625   4.766   0.488   9.405
 2575W        W 6626   4.908   4.383  10.353
 2576W        W 6627   7.070   1.781   3.142
 2577W        W 6628   8.933   6.323   9.546
 2578W        W 6629   9.871   9.626   2.629
 2579W        W 6630   4.612   8.356  10.564
 2580W        W 6631   4.840   5.705   1.558
 2581W        W 6632   2.241   2.090   9.586
 2582W        W 6633  11.182   5.118   9.045
 2583W        W 6634   6.474   2.698   2.191
 2584W        W 6635   9.363   8.518   0.760
 2585W        W 6636  10.312   3.107   3.703
 2586W        W 6637   2.915   2.457   9.986
 2587W        W 6638  10.598   3.669   2.960
 2588W        W 6639   3.592   7.566  10.254
 2589W        W 6640   1.750   8.429  10.478
 2590W        W 6641   4.993   3.515   0.930
 2591W        W 6642   0.983   2.640   1.744
 2592W        W 6643   3.809  10.941   9.504
 2593W        W 6644  11.384   2.146   3.447
 2594W        W 6645   8.929   5.096   9.809
 2595W        W 6646  11.489   5.566   3.760
 2596W        W 6647   7.338   6.438   0.758
 2597W        W 6648   1.165   0.942   3.239
 2598W        W 6649   3.121   0.185   2.419
 2599W        W 6650   2.737   6.897   9.915
 2600W        W 6651   8.045   3.815  11.049
 2601W        W 6652   9.703   5.224   2.544
 2602W        W 6653   7.248  10.028   8.935
 2603W        W 6654   2.281   5.753   9.599
 2604W        W 6655   3.595   1.771   9.366
 2605W        W 6656  10.974   4.816   9.419
 2606W        W 6657   8.530  11.242   3.787
 2607W        W 6658   3.895   9.311   1.331
 2608W        W 6659   8.045   9.195  10.183
 2609W        W 6660   0.919   5.342   9.117
 2610W        W 6661   0.352   7.692   1.988
 2611W        W 6662   1.640  11.390   2.456
 2612W        W 6663   9.324  10.360   1.351
 2613W        W 6664   0.856   4.825   9.078
 2614W        W 6665   3.284  10.290   0.843
 2615W        W 6666   7.213   2.256   9.166
 2616W        W 6667   9.513   1.487  10.328
 2617W        W 6668   3.784   5.075   1.227
 2618W        W 6669  10.346   7.908  10.306
 2619W        W 6670  11.001   9.325   2.062
 2620W        W 6671   1.822   0.432   0.680
 2621W        W 6672   2.851   9.923  11.960
 2622W        W 6673   0.488   3.151   2.730
 2623W        W 6674   3.899   5.607   1.598
 2624W        W 6675   9.226  10.615  11.702
 2625W        W 6676   2.166   1.737   0.860
 2626W        W 6677   2.236   6.179   2.458
 2627W        W 6678  10.952   7.525   3.481
 2628W        W 6679   7.258   5.667  10.741
 2629W        W 6680   2.743   9.052   2.912
 2630W        W 6681   1.336   5.480  11.129
 2631W        W 6682   5.628   0.726   8.927
 2632W        W 6683   0.387  11.018   2.099
 2633W        W 6684   9.376  10.612   9.455
 2634W        W 6685  10.330   2.293   1.672
 2635W        W 6686   3.130   1.652   0.931
 2636W        W 6687   4.535   3.646   9.893
 2637W        W 6688   7.933   7.116   1.659
 2638W        W 6689   2.046   4.247   8.844
 2639W        W 6690   0.413   4.778  10.266
 2640W        W 6691  10.748   8.625   0.905
 2641W        W 6692   5.391   2.820   1.909
 2642W        W 6693   3.128   7.453  11.010
 2643W        W 6694   5.582   4.104   1.209
 2644W        W 6695   4.571  11.313  10.584
 2645W        W 6696   0.977   9.749  11.956
 2646W        W 6697   3.936  10.619   1.522
 2647W        W 6698   5.071  10.328  10.976
 2648W        W 6699   4.172  10.628   3.423
 2649W        W 6700   4.738   4.298  10.823
 2650W        W 6701  10.810   1.187   2.073
 2651W        W 6702   2.473   7.582   3.269
 2652W        W 6703  10.318  10.337   9.185
 2653W        W 6704   4.699   8.848   1.397
 2654W        W 6705   4.736   3.916   1.519
 2655W        W 6706   7.724   3.975   2.794
 2656W        W 6707   7.002   3.802   0.764
 2657W        W 6708   4.248   3.294   2.298
 2658W        W 6709   5.761   7.144   0.690
 2659W        W 6710   9.498  10.563   0.502
 2660W        W 6711   9.508   1.015   0.805
 2661W        W 6712  10.338   8.357  10.596
 2662W        W 6713   0.436   6.939  11.239
 2663W        W 6714   7.965   1.716  10.101
 2664W        W 6715   8.398   5.077   8.673
 2665W        W 6716   9.839   7.650   9.927
 2666W        W 6717   1.513  10.454   3.202
 2667W        W 6718   0.859   1.002  10.312
 2668W        W 6719  10.313  11.301   3.548
 2669W        W 6720   6.208   9.922  10.064
 2670W        W 6721   9.099   8.902   1.046
 2671W        W 6722   9.817  10.343   1.235
 2672W        W 6723   6.131   2.955  11.220
 2673W        W 6724   8.899   1.027  11.008
 2674W        W 6725  11.245   0.228   2.229
 2675W        W 6726   2.796   5.081   2.676
 2676W        W 6727   8.334  11.286   2.810
 2677W        W 6728   3.207  10.976   1.777
 2678W        W 6729   1.474   3.306   9.453
 2679W        W 6730   9.512   3.689  11.660
 2680W        W 6731   9.816   2.152  10.500
 2681W        W 6732   7.342   8.972   2.163
 2682W        W 6733   7.593  11.209   8.995
 2683W        W 6734   5.784   7.792   3.259
 2684W        W 6735   7.985   0.474  10.472
 2685W        W 6736   6.950   0.469   2.275
 2686W        W 6737   0.998   9.235  11.867
 2687W        W 6738   4.741   0.977  11.466
 2688W        W 6739   7.439   0.072   2.626
 2689W        W 6740   6.948   6.700   0.909
 2690W        W 6741   6.083   7.442   2.684
 2691W        W 6742   6.611   2.662   0.667
 2692W        W 6743   6.682   3.046   2.990
 2693W        W 6744   7.181   8.959   2.642
 2694W        W 6745   6.564   8.351   1.389
 2695W        W 6746   4.775   2.896   8.705
 2696W        W 6747   8.488   6.070   0.212
 2697W        W 6748   3.802   9.873  10.711
 2698W        W 6749  10.425   1.575   1.368
 2699W        W 6750   2.367   6.067  10.498
 2700W        W 6751   0.443   4.618   8.814
 2701W        W 6752   8.440   7.127  11.656
 2702W        W 6753   1.466  10.081   1.892
 2703W        W 6754   5.625   1.464   9.405
 2704W        W 6755   3.744   0.848   9.478
 2705W        W 6756   9.775  11.256   1.372
 2706W        W 6757  10.562   2.632   9.601
 2707W        W 6758   8.108   0.531   0.864
 2708W        W 6759   8.678   3.159   3.520
 2709W        W 6760   9.921   2.365   1.333
 2710W        W 6761   7.623   9.823  10.284
 2711W        W 6762   3.331   0.688   2.309
 2712W        W 6763   6.222   1.826   1.789
 2713W        W 6764   3.331   7.837   3.214
 2714W        W 6765   5.043   9.141  10.281
 2715W        W 6766   2.428   5.157   9.069
 2716W        W 6767   7.784   5.566   3.974
 2717W        W 6768   4.086   5.738  10.407
 2718W        W 6769   2.226   4.669  10.801
 2719W        W 6770   0.606  10.233   9.432
 2720W        W 6771   8.183   6.801   9.067
 2721W        W 6772   6.111   9.611   9.258
 2722W        W 6773   5.861   3.889  10.271
 2723W        W 6774   9.001   8.181   2.779
 2724W        W 6775   0.200   6.044   2.661
 2725W        W 6776  11.140   8.819  10.493
 2726W        W 6777   5.393   0.373   1.868
 2727W        W 6778   0.429   7.854  10.501
 2728W        W 6779  10.974   9.628   3.596
 2729W        W 6780   0.440   3.906   1.798
 2730W        W 6781  11.350   9.857   9.841
 2731W        W 6782   0.712   5.515   1.465
 2732W        W 6783   0.513   8.400   9.598
 2733W        W 6784   0.630   1.903  10.662
 2734W        W 6785   7.194  10.059  10.100
 2735W        W 6786   4.550   5.815  10.152
 2736W        W 6787   7.849  10.891  10.161
 2737W        W 6788  10.073   6.555   3.291
 2738W        W 6789   7.390   0.844   1.120
 2739W        W 6790   5.575   5.155   9.729
 2740W        W 6791   9.914   3.981   2.565
 2741W        W 6792   5.607   8.476  10.480
 2742W        W 6793   8.471  10.166   1.864
 2743W        W 6794   5.210   4.952  11.137
 2744W        W 6795  10.919   8.179   9.100
 2745W        W 6796   7.485   3.479  11.915
 2746W        W 6797   7.136   5.153  10.850
 2747W        W 6798  11.340  10.264  11.535
 2748W        W 6799   0.984   1.140   1.822
 2749W        W 6800   2.215   6.456  10.917
 2750W        W 6801   5.213   4.119  10.771
 2751W        W 6802   8.887   2.326  10.506
 2752W        W 6803   2.890   7.046   2.279
 2753W        W 6804   7.803   3.087   0.103
 2754W        W 6805   8.103  11.358   0.433
 2755W        W 6806   7.528   1.208   9.490
 2756W        W 6807   4.322   8.272   2.034
 2757W        W 6808   2.632   6.723   1.396
 2758W        W 6809   6.500   3.267   1.505
 2759W        W 6810   2.423   4.714   8.818
 2760W        W 6811   7.082   9.917   0.001
 2761W        W 6812  11.132   5.706   0.723
 2762W        W 6813   5.932  10.073   1.861
 2763W        W 6814   9.604   7.952   2.368
 2764W        W 6815   5.238   4.764  10.212
 2765W        W 6816  10.024   1.323   9.031
 2766W        W 6817   5.599   0.386   0.005
 2767W        W 6818   4.835  10.375   0.348
 2768W        W 6819   7.596   8.168   1.108
 2769W        W 6820   2.229   6.117   0.339
 2770W        W 6821   2.798   9.033   1.938
 2771W        W 6822   2.233   0.433   1.518
 2772W        W 6823   2.177   4.677   2.372
 2773W        W 6824   4.027   2.037  11.905
 2774W        W 6825  10.559   1.209   2.708
 2775W        W 6826  10.185   5.116   9.090
 2776W        W 6827   7.747   4.497   2.856
 2777W        W 6828   2.135   5.065  11.223
 2778W        W 6829   3.951  10.676   0.338
 2779W        W 6830   8.662   7.883   3.207
 2780W        W 6831   2.904   9.606   1.227
 2781W        W 6832   5.518   1.244   2.418
 2782W        W 6833   7.678   4.666   8.491
 2783W        W 6834   2.544   4.236   9.476
 2784W        W 6835   7.022   7.583   0.809
 2785W        W 6836  10.260   4.550   0.994
 2786W        W 6837  10.384   8.692   2.296
 2787W        W 6838   4.615   2.764  11.884
 2788W        W 6839   6.502   2.197  10.223
 2789W        W 6840   8.316   3.163  11.961
 2790W        W 6841   8.197  10.493   8.901
 2791W        W 6842   5.790   9.809  10.917
 2792W        W 6843   8.505   9.167   0.234
 2793W        W 6844   5.309   2.271   1.787
 2794W        W 6845   8.532   4.621   1.362
 2795W        W 6846   5.540   8.921   2.341
 2796W        W 6847   5.890   1.194  10.792
 2797W        W 6848   9.765   4.498  11.196
 2798W        W 6849   6.520   0.600   2.771
 2799W        W 6850   2.910   3.248   1.324
 2800W        W 6851   7.239   9.397   3.405
 2801W        W 6852   3.221   6.272  10.267
 2802W        W 6853   5.058   6.500   1.776
 2803W        W 6854   4.459   7.968   9.354
 2804W        W 6855   5.686   7.502   9.461
 2805W        W 6856   9.430   3.361   9.742
 2806W        W 6857   9.524   1.193  11.306
 2807W        W 6858   3.729   4.615   2.606
 2808W        W 6859   5.466   3.691  10.525
 2809W        W 6860  10.118   7.630  11.772
 2810W        W 6861   0.797   6.923   1.754
 2811W        W 6862   0.414   7.933   0.748
 2812W        W 6863   5.673   0.761  11.488
 2813W        W 6864  11.072   8.293  10.181
 2814W        W 6865   9.921   0.243   2.262
 2815W        W 6866   9.802  11.253   9.072
 2816W        W 6867   8.607   9.283   1.909
 2817W        W 6868   7.175   1.890   8.800
 2818W        W 6869   4.708   9.074   8.943
 2819W        W 6870  10.061   4.693   9.390
 2820W        W 6871   1.370   4.207   1.470
 2821W        W 6872   7.184   0.438   3.422
 2822W        W 6873   2.444   0.995   2.207
 2823W        W 6874   1.324  11.467   3.544
 2824W        W 6875   2.965   7.097   8.120
 2825W        W 6876   8.491   0.198   9.042
 2826W        W 6877   0.604   5.759   9.081
 2827W        W 6878   9.995   9.788   8.770
 2828W        W 6879   6.642   1.263   2.429
 2829W        W 6880   4.555   1.820   9.062
 2830W        W 6881   0.273  11.289  11.630
 2831W        W 6882   9.034   6.845   0.393
 2832W        W 6883   6.260   8.989   0.783
 2833W        W 6884  10.667   7.009   2.179
 2834W        W 6885   8.964   9.995   1.940
 2835W        W 6886   3.705   0.629  11.148
 2836W        W 6887   7.873   1.648  11.938
 2837W        W 6888   3.115   1.097   2.540
 2838W        W 6889  11.369   1.261   8.804
 2839W        W 6890  10.206   6.128   2.704
 2840W        W 6891   0.449   3.550  11.139
 2841W        W 6892   8.587  10.207   3.888
 2842W        W 6893   5.210  10.602   1.874
 2843W        W 6894   6.616  10.937  11.520
 2844W        W 6895  10.967   6.849   2.644
 2845W        W 6896   7.496  10.498  11.819
 2846W        W 6897   5.613   6.131   9.366
 2847W        W 6898   1.794   6.018   2.733
 2848W        W 6899   2.378   7.046   2.321
 2849W        W 6900   0.269   9.924  11.568
 2850W        W 6901   2.194   3.901   2.797
 2851W        W 6902  11.449   8.446   3.301
 2852W        W 6903   7.123   6.455   9.644
 2853W        W 6904  10.462  10.566  11.539
 2854W        W 6905   1.068   7.448   2.218
 2855W        W 6906   3.975   3.708   2.170
 2856W        W 6907   8.960   6.351  10.480
 2857W        W 6908   6.569   8.526  11.663
 2858W        W 6909  10.474   1.952   2.379
 2859W        W 6910   1.301   3.338  10.337
 2860W        W 6911   6.064   7.142   2.229
 2861W        W 6912   4.544   3.945   9.491
 2862W        W 6913   0.874  10.716   1.969
 2863W        W 6914   0.409   8.853   0.458
 2864W        W 6915   3.786   2.158  10.086
 2865W        W 6916   7.098   0.423   9.964
 2866W        W 6917  11.062   3.808   1.924
 2867W        W 6918   7.127   0.351  11.005
 2868W        W 6919   7.550   6.694   3.833
 2869W        W 6920   9.622   7.802   0.042
 2870W        W 6921   5.002   8.193  11.189
 2871W        W 6922   4.904   7.993   2.537
 2872W        W 6923   1.582   5.745   8.442
 2873W        W 6924   6.123   9.637   2.051
 2874W        W 6925   1.766   4.171   1.801
 2875W        W 6926   1.038   7.361   8.597
 2876W        W 6927   5.353  10.287   0.415
 2877W        W 6928   0.503   9.942   0.031
 2878W        W 6929   8.349   8.681  11.938
 2879W        W 6930   8.675   5.618   3.072
 2880W        W 6931   5.579   4.715  11.448
 2881W        W 6932   0.753   1.870   0.455
 2882W        W 6933  10.091   4.300   0.425
 2883W        W 6934   6.639   1.913   0.549
 2884W        W 6935   5.334   7.402  11.408
 2885W        W 6936   5.476   9.136   9.496
 2886W        W 6937   5.639   0.840   3.246
 2887W        W 6938  10.360   4.232   2.537
 2888W        W 6939   2.064   8.788  10.838
 2889W        W 6940   6.049   7.104   1.308
 2890W        W 6941   4.802   3.819   3.681
 2891W        W 6942   5.924   2.332   2.656
 2892W        W 6943   9.353   3.775   9.069
 2893W        W 6944   1.734   4.666   1.983
 2894W        W 6945   4.778   2.274   9.103
 2895W        W 6946   2.184   6.628   1.142
 2896W        W 6947   0.050   7.524  10.575
 2897W        W 6948   3.988   9.295   2.895
 2898W        W 6949   1.993   4.161   2.374
 2899W        W 6950   5.044   2.303   4.061
 2900W        W 6951  10.072   2.203  10.039
 2901W        W 6952   3.320  10.252   2.205
 2902W        W 6953   3.726  10.806   3.123
 2903W        W 6954   7.045   9.132  10.566
 2904W        W 6955   8.001   2.806   2.279
 2905W        W 6956   7.076   3.812  10.808
 2906W        W 6957  10.851   2.642   0.240
 2907W        W 6958   7.174   9.573  10.346
 2908W        W 6959   2.312   9.990   2.326
 2909W        W 6960   4.076   6.488   1.991
 2910W        W 6961   7.582   4.721   1.870
 2911W        W 6962   0.373   1.392   9.056
 2912W        W 6963   0.891   3.742   2.011
 2913W        W 6964  11.322   6.275   2.363
 2914W        W 6965   6.807   8.925   2.229
 2915W        W 6966   2.094   0.721  10.845
 2916W        W 6967   2.923   4.666   8.705
 2917W        W 6968  11.043  10.404   9.791
 2918W        W 6969   7.583   3.605   9.944
 2919W        W 6970   0.721   3.112  11.886
 2920W        W 6971   7.651  10.350   3.247
 2921W        W 6972   4.192   3.385   1.782
 2922W        W 6973  10.799   9.502   9.917
 2923W        W 6974   9.575   8.379   3.146
 2924W        W 6975  11.026   4.535   8.961
 2925W        W 6976   8.334   9.505   1.004
 2926W        W 6977   0.979   0.140   9.709
 2927W        W 6978   9.060   4.759   0.273
 2928W        W 6979   6.704   3.790   1.429
 2929W        W 6980   5.169   5.995   1.896
 2930W        W 6981   0.857   3.046   3.064
 2931W        W 6982  10.306   5.848   8.547
 2932W        W 6983   1.006   7.949   0.112
 2933W        W 6984   7.558   3.650  10.963
 2934W        W 6985  11.244   0.258  10.554
 2935W        W 6986   1.925   8.412   2.666
 2936W        W 6987   1.812   3.702   1.574
 2937W        W 6988   8.435   4.782   0.028
 2938W        W 6989   4.766  11.200  11.158
 2939W        W 6990   0.913   3.119   1.513
 2940W        W 6991   7.316  10.012   2.778
 2941W        W 6992   6.912   4.144  11.513
 2942W        W 6993   3.312   2.722   9.617
 2943W        W 6994   1.125   1.932  10.850
 2944W        W 6995   0.662   9.301   9.490
 2945W        W 6996   1.790   8.316   0.347
 2946W        W 6997   7.382   4.849   1.410
 2947W        W 6998   5.418   7.032  11.762
 2948W        W 6999   4.683   3.461   1.326
 2949W        W 7000   0.832   5.070  10.435
 2950W        W 7001   9.944   3.222   3.345
 2951W        W 7002   1.735   8.154   9.350
 2952W        W 7003   3.019   4.757   3.425
 2953W        W 7004   9.648   2.003   0.685
 2954W        W 7005   0.779  10.104   0.887
 2955W        W 7006   2.752   8.367   9.627
 2956W        W 7007   3.741   7.966   9.952
 2957W        W 7008   8.734   3.015   2.706
 2958W        W 7009  10.602   8.212   9.978
 2959W        W 7010   0.437   1.733   3.254
 2960W        W 7011   1.729   9.943   9.828
 2961W        W 7012   2.705   4.794   3.849
 2962W        W 7013   9.948   9.908   9.860
 2963W        W 7014   0.013   0.190   1.344
 2964W        W 7015   6.644   4.533   1.949
 2965W        W 7016   1.706   0.007  11.556
 2966W        W 7017   5.009   4.306   9.477
 2967W        W 7018   5.117   9.013   3.520
 2968W        W 7019   8.203   3.051   3.657
 2969W        W 7020   7.704   6.568   8.959
 2970W        W 7021   7.164   7.593   2.747
 2971W        W 7022  10.289  10.393   2.758
 2972W        W 7023   7.169   4.235  11.052
 2973W        W 7024   9.749   3.696   3.502
 2974W        W 7025   2.772   0.743   1.654
 2975W        W 7026   8.640   9.050   0.786
 2976W        W 7027   5.015   3.155   1.818
 2977W        W 7028   3.112   0.730   1.266
 2978W        W 7029   4.839  10.685  11.227
 2979W        W 7030   2.254   5.237   4.214
 2980W        W 7031   7.118   0.505   0.798
 2981W        W 7032   2.802   6.106  11.496
 2982W        W 7033   2.127   0.747   9.960
 2983W        W 7034   1.824   9.975   8.878
 2984W        W 7035  10.707   8.620  10.359
 2985W        W 7036   0.180   5.094   8.567
 2986W        W 7037   4.149   2.662   9.520
 2987W        W 7038   7.189   6.350   3.956
 2988W        W 7039   7.507   9.086   1.622
 2989W        W 7040   3.213   6.575  10.744
 2990W        W 7041   0.999   4.406  11.203
 2991W        W 7042   2.252   3.747  10.236
 2992W        W 7043  11.322  10.951   3.320
 2993W        W 7044   9.888  10.856   3.089
 2994W        W 7045   5.954   0.927  10.322
 2995W        W 7046   1.264   7.659   0.867
 2996W        W 7047   6.886   7.027   1.556
 2997W        W 7048  10.782   6.066  10.324
 2998W        W 7049   8.679   0.452   9.473
 2999W        W 7050   4.731   4.791  10.996
 3000W        W 7051   9.675   3.613   1.680
 3001W        W 7052   9.398   6.435   2.087
 3002W        W 7053   5.781   9.918   2.368
 3003W        W 7054   8.485   7.825  10.978
 3004W        W 7055   4.688   3.645   0.527
 3005W        W 7056   3.582   3.480  10.388
 3006W        W 7057   9.140   2.749  10.331
 3007W        W 7058   4.250   7.779   0.393
 3008W        W 7059   0.675   1.571   9.486
 3009W        W 7060  10.480   0.389   0.533
 3010W        W 7061   0.270   5.883   9.487
 3011W        W 7062   1.139   8.240   8.943
 3012W        W 7063   9.088   1.728  11.447
 3013W        W 7064   8.920   9.098   1.497
 3014W        W 7065   4.609   0.246   0.902
 3015W        W 7066   1.350   3.702   0.207
 3016W        W 7067   9.278   5.630   3.258
 3017W        W 7068   8.427   9.019   9.868
 3018W        W 7069   4.006   7.449   0.728
 3019W        W 7070   9.028   2.230   1.166
 3020W        W 7071   8.391   4.354   2.234
 3021W        W 7072   6.032  10.488   0.667
 3022W        W 7073  11.283   1.810   1.653
 3023W        W 7074   7.093   4.823   2.105
 3024W        W 7075   2.143   4.260   3.173
 3025W        W 7076   3.298  10.817  10.370
 3026W        W 7077   0.853   5.345  11.374
 3027W        W 7078   5.522   2.794  10.002
 3028W        W 7079   1.787   1.721   3.017
 3029W        W 7080   4.470   7.554   0.903
 3030W        W 7081   1.747   6.050   9.390
 3031W        W 7082   4.199   7.583  11.851
 3032W        W 7083  11.199   9.186   3.379
 3033W        W 7084   4.016   6.662  10.375
 3034W        W 7085   6.185   7.926   2.633
 3035W        W 7086   5.429   1.885   8.517
 3036W        W 7087   0.560   3.423   1.749
 3037W        W 7088   3.603   1.259   3.311
 3038W        W 7089  11.038   1.073   2.495
 3039W        W 7090   4.641   8.069   0.194
 3040W        W 7091   7.447   4.011   9.682
 3041W        W 7092   7.078   6.742   3.598
 3042W        W 7093   8.706   6.458   3.151
 3043W        W 7094   5.979   5.967   0.377
 3044W        W 7095  10.452  10.784   1.873
 3045W        W 7096   4.788   1.987  11.515
 3046W        W 7097   1.480  10.327   9.100
 3047W        W 7098   8.039   3.280   1.592
 3048W        W 7099   6.312  10.711   2.325
 3049W        W 7100   5.497   8.374   9.109
 3050W        W 7101   3.363   9.603   4.132
 3051W        W 7102   2.120   5.567   3.858
 3052W        W 7103   3.987  11.030   1.200
 3053W        W 7104   7.008   3.241   0.069
 3054W        W 7105   7.867   0.760  10.063
 3055W        W 7106  10.194  10.539   8.598
 3056W        W 7107  11.493   4.099   1.979
 3057W        W 7108  10.060   3.484   2.893
 3058W        W 7109   6.751   7.327  11.914
 3059W        W 7110   2.627   0.891   9.054
 3060W        W 7111   2.626   9.651   2.570
 3061W        W 7112   0.854   6.813   2.747
 3062W        W 7113   1.406   1.230  11.928
 3063W        W 7114  11.355   1.327  11.554
 3064W        W 7115   2.024   4.872   9.849
 3065W        W 7116   3.244   5.074   8.700
 3066W        W 7117   5.023   3.895  10.336
 3067W        W 7118   1.214   1.238   1.360
 3068W        W 7119   9.984   2.250   9.027
 3069W        W 7120   7.487   4.967   9.660
 3070W        W 7121   8.990   9.157   2.982
 3071W        W 7122   2.236   9.980   9.846
 3072W        W 7123   4.594  11.099   2.354
 3073W        W 7124   6.690   7.797   0.084
 3074W        W 7125   1.714   8.693  11.384
 3075W        W 7126   8.547  10.694   1.920
 3076W        W 7127   9.967   1.455   1.635
 3077W        W 7128   7.864   3.673   2.405
 3078W        W 7129  10.820   3.127   0.048
 3079W        W 7130   1.575   7.417   3.434
 3080W        W 7131   7.570   6.558   2.453
 3081W        W 7132   9.596   6.583   3.082
 3082W        W 7133   8.422   0.630   1.718
 3083W        W 7134   8.345   0.131  10.375
 3084W        W 7135  11.395   8.046   8.798
 3085W        W 7136   3.047   7.029   2.838
 3086W        W 7137   9.850   0.952   2.974
 3087W        W 7138   2.107   1.281   9.996
 3088W        W 7139   1.679   4.554   2.462
 3089W        W 7140   3.749  10.074   9.779
 3090W        W 7141   0.754  10.563   0.587
 3091W        W 7142   5.217  11.050   3.448
 3092W        W 7143   0.065   8.532   1.773
 3093W        W 7144   7.975   1.948   1.238
 3094W        W 7145   1.194   3.222   0.075
 3095W        W 7146   7.558  11.489   0.663
 3096W        W 7147  11.204   2.246   1.365
 3097W        W 7148   6.786   8.650  10.722
 3098W        W 7149   3.802   3.727   0.729
 3099W        W 7150   8.712   1.386   9.263
 3100W        W 7151  10.936   5.092   3.225
 3101W        W 7152   9.377   8.409  10.966
 3102W        W 7153   4.733   1.650   2.884
 3103W        W 7154   6.292   7.254   3.558
 3104W        W 7155   5.995   6.226   2.213
 3105W        W 7156   0.313   8.812   8.777
 3106W        W 7157   2.968  10.928  10.771
 3107W        W 7158   6.852   2.341   0.336
 3108W        W 7159  11.198   0.736   3.639
 3109W        W 7160   4.067   7.054  11.677
 3110W        W 7161   9.767   1.441  11.987
 3111W        W 7162   1.478   7.794   3.087
 3112W        W 7163   3.868   2.727  10.859
 3113W        W 7164   3.308   4.732   9.091
 3114W        W 7165   2.252  10.502   3.026
 3115W        W 7166   5.547   3.563   3.886
 3116W        W 7167   9.537   3.348   9.243
 3117W        W 7168   6.190  10.706   8.978
 3118W        W 7169   1.323   3.605   2.313
 3119W        W 7170   1.013   3.230   9.177
 3120W        W 7171   6.272   8.781  10.839
 3121W        W 7172   5.479   5.560  11.408
 3122W        W 7173   1.844   2.840   2.247
 3123W        W 7174   1.010   8.468   0.721
 3124W        W 7175   3.834   9.459   2.447
 3125W        W 7176   5.199   2.549  10.291
 3126W        W 7177  10.612   4.438   0.246
 3127W        W 7178   3.978   4.916   8.213
 3128W        W 7179   2.777   4.629   9.201
 3129W        W 7180   1.633   5.175  10.324
 3130W        W 7181   8.890   9.618  11.914
 3131W        W 7182   9.979   0.761  10.568
 3132W        W 7183   2.908  10.863   2.596
 3133W        W 7184   8.902  10.990  10.876
 3134W        W 7185   7.101   8.458   2.841
 3135W        W 7186   4.350   8.046   1.386
 3136W        W 7187   4.200   9.775   2.279
 3137W        W 7188   0.967   9.331   9.928
 3138W        W 7189   1.230   8.784   8.789
 3139W        W 7190   9.832   3.592   9.958
 3140W        W 7191   4.205   3.604   9.238
 3141W        W 7192   9.362   9.999  10.396
 3142W        W 7193   8.845   9.404   8.689
 3143W        W 7194   7.666   8.139   2.516
 3144W        W 7195   1.350   8.359   1.485
 3145W        W 7196   8.644   2.624  11.044
 3146W        W 7197  11.338   9.350   1.290
 3147W        W 7198  10.735   6.131   0.979
 3148W        W 7199   1.907   7.905  10.535
 3149W        W 7200   1.946   0.868   2.087
 3150W        W 7201  10.405   9.395   2.765
 3151W        W 7202   2.770  11.284   9.345
 3152W        W 7203   4.188   0.929  11.826
 3153W        W 7204  10.249   8.601   1.000
 3154W        W 7205   6.635   7.673   2.770
 3155W        W 7206   3.579   0.490   1.313
 3156W        W 7207  10.739   4.818  11.240
 3157W        W 7208   3.181   6.407   0.298
 3158W        W 7209   6.714  11.418  11.343
 3159W        W 7210   1.139   1.616   8.418
 3160W        W 7211   3.798   8.802  11.454
 3161W        W 7212  10.476   4.705   1.435
 3162W        W 7213   5.404   6.519  11.814
 3163W        W 7214   5.164   0.761  11.267
 3164W        W 7215   1.303  11.034   0.381
 3165W        W 7216   3.199   3.876   1.363
 3166W        W 7217  11.285   5.884   8.597
 3167W        W 7218  10.498   3.128   9.023
 3168W        W 7219   1.400   0.133   3.046
 3169W        W 7220   6.277   7.674   3.138
 3170W        W 7221   7.841   4.151   0.702
 3171W        W 7222   6.740   3.642   3.233
 3172W        W 7223   3.855   6.564  11.798
 3173W        W 7224  10.680   5.664  11.437
 3174W        W 7225   4.758   9.897   9.714
 3175W        W 7226   4.055   0.924   1.205
 3176W        W 7227   9.601   4.299   3.296
 3177W        W 7228   8.507   8.691  10.555
 3178W        W 7229   0.063   8.985  10.251
 3179W        W 7230   0.757   6.365   0.873
 3180W        W 7231   4.250   9.003   3.219
 3181W        W 7232   6.271   0.125   0.513
 3182W        W 7233   5.848   3.343   3.052
 3183W        W 7234   2.264   5.297   2.962
 3184W        W 7235   6.450   5.867  10.548
 3185W        W 7236  10.391   7.207   9.964
 3186W        W 7237   9.817   5.769   0.494
 3187W        W 7238   3.524   8.466   0.640
 3188W        W 7239   8.371  10.015   0.705
 3189W        W 7240   9.187   6.480   3.361
 3190W        W 7241   9.221   8.034   8.559
 3191W        W 7242   1.981   2.724   0.211
 3192W        W 7243   1.666  10.007  10.338
 3193W        W 7244   4.481  10.938   1.263
 3194W        W 7245   6.225   5.728  10.090
 3195W        W 7246  10.544   3.691  11.800
 3196W        W 7247  10.027   1.783   8.766
 3197W        W 7248   9.960   6.141   3.577
 3198W        W 7249   6.968   1.319  10.970
 3199W        W 7250   0.365   2.898   3.179
 3200W        W 7251   8.498   5.825   0.678
 3201W        W 7252   8.860   5.461   1.441
 3202W        W 7253   3.317   2.715  10.183
 3203W        W 7254   4.648   6.735   9.133
 3204W        W 7255   8.482   7.455   9.789
 3205W        W 7256   3.699  10.171   8.983
 3206W        W 7257  10.704   9.489   9.327
 3207W        W 7258  11.324   8.361   0.256
 3208W        W 7259  10.914   7.016  10.306
 3209W        W 7260   3.571   1.368  11.176
 3210W        W 7261   2.082   4.456   3.640
 3211W        W 7262   3.150  10.356  11.140
 3212W        W 7263  11.244   9.382   0.211
 3213W        W 7264   8.081   7.969   0.368
 3214W        W 7265   5.796   0.555  10.654
 3215W        W 7266   0.447   8.170   1.193
 3216W        W 7267   1.300   4.331   1.958
 3217W        W 7268   2.074   5.124   8.121
 3218W        W 7269   4.023   7.939   2.329
 3219W        W 7270   7.004  10.818   1.714
 3220W        W 7271   9.439   9.844   1.760
 3221W        W 7272   3.389   4.290   2.431
 3222W        W 7273   1.648   0.545   9.094
 3223W        W 7274   0.312   3.481   8.888
 3224W        W 7275   8.072   7.668   9.994
 3225W        W 7276   9.183   1.460  11.023
 3226W        W 7277   0.791   1.262   1.038
 3227W        W 7278   3.759  10.997   2.573
 3228W        W 7279   7.365   2.439  11.334
 3229W        W 7280   4.121   4.694   2.305
 3230W        W 7281   2.871  10.291   3.397
 3231W        W 7282  10.946   9.631   1.124
 3232W        W 7283   3.088  10.444  10.644
 3233W        W 7284   5.808   1.676   2.461
 3234W        W 7285   2.853  10.091   1.054
 3235W        W 7286   9.766   4.795   3.210
 3236W        W 7287  10.819  11.308   2.673
 3237W        W 7288   6.713   1.262  11.442
 3238W        W 7289  11.088  10.382   2.335
 3239W        W 7290   0.998  11.281  10.463
 3240W        W 7291   9.281  11.305   1.393
 3241W        W 7292   0.927   6.993  11.382
 3242W        W 7293   9.344   1.919  10.535
 3243W        W 7294   5.451   1.417  10.970
 3244W        W 7295   1.721   2.084   2.669
 3245W        W 7296   7.823  10.110   2.818
 3246W        W 7297   3.218   7.310   9.072
 3247W        W 7298   4.846   8.222   2.084
 3248W        W 7299   2.832  10.587   0.946
 3249W        W 7300   8.651   2.122   1.807
 3250W        W 7301   5.700   5.123  11.090
 3251W        W 7302   0.636   3.305   0.982
 3252W        W 7303   6.575   1.251   1.927
 3253W        W 7304   0.785   4.016   9.498
 3254W        W 7305   6.996   9.992  10.566
 3255W        W 7306  10.876   8.579   2.221
 3256W        W 7307   3.605   7.538  10.779
 3257W        W 7308   0.270   2.634   0.551
 3258W        W 7309   8.992   1.834   1.479
 3259W        W 7310   0.479   9.482   9.928
 3260W        W 7311   0.703   5.794  11.592
 3261W        W 7312   1.461   1.969   0.273
 3262W        W 7313   9.498   2.862  11.999
 3263W        W 7314   4.888   9.559   1.440
 3264W        W 7315   2.495   7.561  10.215
 3265W        W 7316   6.536   6.700  10.776
 3266W        W 7317   0.415   4.783   9.357
 3267W        W 7318   8.920  10.012  10.649
 3268W        W 7319   2.895   7.198   1.421
 3269W        W 7320   7.068   3.574   1.764
 3270W        W 7321   0.975   0.974  11.784
 3271W        W 7322   9.946   1.249  11.575
 3272W        W 7323   1.677   5.705  10.819
 3273W        W 7324   5.416  11.309  10.350
 3274W        W 7325  10.538   4.611   9.166
 3275W        W 7326   0.325   7.156  10.798
 3276W        W 7327   5.429  10.398   9.781
 3277W        W 7328   1.401   0.814  11.535
 3278W        W 7329   9.795   9.323  10.128
 3279W        W 7330   2.672   2.647   9.165
 3280W        W 7331   4.965   5.362  11.320
 3281W        W 7332   1.701   4.770  11.895
 3282W        W 7333   8.892   2.913   0.793
 3283W        W 7334   4.519   7.842   2.217
 3284W        W 7335   0.008   0.746   1.386
 3285W        W 7336   6.702   7.971  10.489
 3286W        W 7337  11.284   1.572   9.790
 3287W        W 7338   4.869   9.350   9.859
 3288W        W 7339   1.796   8.958   2.677
 3289W        W 7340   8.221   8.500   1.377
 3290W        W 7341   4.143   4.712   1.298
 3291W        W 7342   0.828   9.779   9.545
 3292W        W 7343   0.940   6.425   2.412
 3293W        W 7344  10.378   8.352   2.791
 3294W        W 7345  10.913   5.694   1.197
 3295W        W 7346  10.089   5.232   2.180
 3296W        W 7347   5.747   1.220   2.901
 3297W        W 7348   9.600   8.871  11.827
 3298W        W 7349   1.201   6.727   9.227
 3299W        W 7350   5.201   5.096   0.984
 3300W        W 7351   1.248   2.458   3.359
 3301W        W 7352   5.285   2.545   2.787
 3302W        W 7353   2.327   4.773   0.656
 3303W        W 7354   1.986  10.876  10.771
 3304W        W 7355   2.197  11.276   0.747
 3305W        W 7356   0.288   9.010   9.744
 3306W        W 7357   1.219  11.276  10.005
 3307W        W 7358  11.268   6.330   8.874
 3308W        W 7359   3.639   1.762   3.194
 3309W        W 7360   3.224   8.488   9.405
 3310W        W 7361   0.087   2.932   9.511
 3311W        W 7362   6.389   3.338   0.311
 3312W        W 7363   5.044  10.813   2.456
 3313W        W 7364   2.820   0.239   9.584
 3314W        W 7365   0.816   5.815   0.087
 3315W        W 7366   2.023   7.990  11.038
 3316W        W 7367   8.826   0.803   9.821
 3317W        W 7368   2.313   1.459   2.952
 3318W        W 7369   9.500   7.137   0.355
 3319W        W 7370   7.443   8.931   8.398
 3320W        W 7371   0.083  10.543   1.893
 3321W        W 7372   1.794  10.313  10.782
 3322W        W 7373   0.790   7.317  10.991
 3323W        W 7374   8.149   4.245   2.658
 3324W        W 7375   0.475   2.725   2.326
 3325W        W 7376   8.270   6.686  11.875
 3326W        W 7377   6.919   2.685   1.761
 3327W        W 7378   5.709   5.619  10.943
 3328W        W 7379  11.275   0.685   8.865
 3329W        W 7380   4.752   7.983   9.787
 3330W        W 7381   4.387  10.858  11.110
 3331W        W 7382   3.234   0.949   9.595
 3332W        W 7383   2.443   2.825   0.051
 3333W        W 7384  10.449   3.132   9.544
 3334W        W 7385   3.395   4.669  11.632
 3335W        W 7386   3.918   8.869  10.963
 3336W        W 7387   2.649   7.280   2.674
 3337W        W 7388   3.553   5.530   8.729
 3338W        W 7389   9.477   8.017   9.073
 3339W        W 7390   8.026   0.842  10.860
 3340W        W 7391   8.240  10.487  10.339
 3341W        W 7392   5.151  11.466   8.976
 3342W        W 7393   9.110  10.898  10.403
 3343W        W 7394  10.810   7.961  11.202
 3344W        W 7395   0.735   2.593   9.775
 3345W        W 7396   1.899  10.609   1.318
 3346W        W 7397  11.004   4.405   3.659
 3347W        W 7398  11.387   3.131   3.140
 3348W        W 7399   2.428   7.162   8.984
 3349W        W 7400   6.496   4.291   9.587
 3350W        W 7401   1.902   3.835   0.846
 3351W        W 7402   9.568   4.590   1.357
 3352W        W 7403   7.922   9.818  11.775
 3353W        W 7404   7.513   7.725   0.463
 3354W        W 7405   5.017   6.494   0.263
 3355W        W 7406   6.409   4.119   8.645
 3356W        W 7407  10.221   9.067  10.384
 3357W        W 7408  11.291   6.542   0.316
 3358W        W 7409   6.528  10.924  10.336
 3359W        W 7410   5.064  11.343  10.760
 3360W        W 7411   4.743   4.123   9.929
 3361W        W 7412   4.657   9.218   1.777
 3362W        W 7413   8.869   6.577   0.809
 3363W        W 7414   2.502   3.230  11.723
 3364W        W 7415   8.767   7.994   9.482
 3365W        W 7416   6.478   2.717   8.874
 3366W        W 7417   3.731   5.693  10.816
 3367W        W 7418   3.183   1.416   9.792
 3368W        W 7419  10.120   7.874   2.347
 3369W        W 7420   9.872   7.008   3.133
 3370W        W 7421   7.414   5.732   1.761
 3371W        W 7422   2.684  10.432  10.952
 3372W        W 7423   2.190  10.484  11.071
 3373W        W 7424   5.185  10.204  11.942
 3374W        W 7425   8.990   6.571   2.428
 3375W        W 7426   1.742   8.971   3.570
 3376W        W 7427   9.527   2.676  11.524
 3377W        W 7428  11.451  10.259  10.123
 3378W        W 7429   3.152   1.812   2.999
 3379W        W 7430   4.907   5.707  10.526
 3380W        W 7431   4.685   3.424   9.458
 3381W        W 7432   8.048   1.076  11.323
 3382W        W 7433   0.794   9.289  11.382
 3383W        W 7434   7.387   3.577   2.665
 3384W        W 7435   1.716   6.721   8.949
 3385W        W 7436   3.781   9.803  11.239
 3386W        W 7437   5.270   0.675   9.375
 3387W        W 7438   5.665   5.027   9.231
 3388W        W 7439   7.512   9.425   9.514
 3389W        W 7440   3.023  10.360   1.798
 3390W        W 7441   9.809   0.406  10.888
 3391W        W 7442   3.668   3.345   2.716
 3392W        W 7443   8.171   5.840   9.448
 3393W        W 7444   6.933   6.414  10.970
 3394W        W 7445   2.557   8.784  11.930
 3395W        W 7446   3.728   5.053   8.857
 3396W        W 7447   2.259   1.376   0.497
 3397W        W 7448  11.103   0.853   1.755
 3398W        W 7449   7.928   0.783   0.463
 3399W        W 7450   9.443   5.511   0.263
 3400W        W 7451   5.765   7.666  11.475
 3401W        W 7452   6.842   9.449   8.038
 3402W        W 7453   4.468   8.113   0.738
 3403W        W 7454   8.853   6.179   2.745
 3404W        W 7455   0.435   4.536   0.136
 3405W        W 7456   6.271  10.243   9.247
 3406W        W 7457   8.415   7.051   2.561
 3407W        W 7458   2.665   9.218  10.405
 3408W        W 7459   1.929   7.080  10.252
 3409W        W 7460   3.595   3.807   2.501
 3410W        W 7461   3.371   5.448   0.458
 3411W        W 7462   6.071   5.406   1.920
 3412W        W 7463   3.858   0.873   1.661
 3413W        W 7464   7.406   2.146   3.450
 3414W        W 7465   5.748  10.928  10.972
 3415W        W 7466  11.430   8.125   9.839
 3416W        W 7467   0.717   5.997   2.611
 3417W        W 7468   5.794   8.487   2.294
 3418W        W 7469   0.659   3.358   2.247
 3419W        W 7470   7.454   3.342  11.387
 3420W        W 7471   5.983   0.015   3.165
 3421W        W 7472   5.197   1.212  10.585
 3422W        W 7473   7.416   8.501   0.274
 3423W        W 7474   1.900  10.098   1.090
 3424W        W 7475   3.747   7.007   3.235
 3425W        W 7476  11.134   8.475   1.197
 3426W        W 7477   4.643   6.229  11.747
 3427W        W 7478   1.647   4.310   0.823
 3428W        W 7479   8.038   4.613   1.175
 3429W        W 7480   6.827   4.020   2.683
 3430W        W 7481   9.054   3.212   1.414
 3431W        W 7482  10.673   7.973  10.699
 3432W        W 7483   0.049   1.004   9.960
 3433W        W 7484   9.279  10.306   9.030
 3434W        W 7485   7.954   8.221   9.266
 3435W        W 7486   8.022   0.922   1.813
 3436W        W 7487   6.158   6.762   3.095
 3437W        W 7488   4.529   1.265   0.868
 3438W        W 7489  11.443  10.746   9.982
 3439W        W 7490  11.330   6.512   2.846
 3440W        W 7491   4.534   1.605   8.570
 3441W        W 7492   2.288   3.875   9.167
 3442W        W 7493   8.962   9.903  11.486
 3443W        W 7494   1.911   5.910   0.691
 3444W        W 7495   2.927   9.058   0.345
 3445W        W 7496   2.319   1.047   9.560
 3446W        W 7497   5.055   0.795   1.173
 3447W        W 7498   9.276   1.329   1.171
 3448W        W 7499   8.347  10.885  10.919
 3449W        W 7500   0.309   5.744   0.078
 3450W        W 7501   6.673   4.218  10.951
 3451W        W 7502   2.338  11.398   1.435
 3452W        W 7503   3.709   1.397  10.668
 3453W        W 7504   3.979   1.536   3.555
 3454W        W 7505   8.909   9.956  10.097
 3455W        W 7506   7.145   2.389   8.649
 3456W        W 7507   1.017   2.692   9.327
 3457W        W 7508   9.396   4.405   8.543
 3458W        W 7509   3.786   1.279   9.142
 3459W        W 7510   4.662   3.333   3.655
 3460W        W 7511   8.418  10.298   9.435
 3461W        W 7512   0.714   7.108   3.140
 3462W        W 7513   4.488   0.116  11.026
 3463W        W 7514   4.357   6.614   2.427
 3464W        W 7515   5.639   8.016   1.161
 3465W        W 7516   4.971   3.916   3.211
 3466W        W 7517   6.215  10.194   2.254
 3467W        W 7518   5.626   3.081   1.267
 3468W        W 7519   0.436   2.184   2.446
 3469W        W 7520  10.865   2.153   0.391
 3470W        W 7521   6.984   6.545   1.738
 3471W        W 7522   4.649   0.943  10.613
 3472W        W 7523   5.204   2.080  10.042
 3473W        W 7524   8.099   7.866  11.313
 3474W        W 7525   6.407   7.685   4.065
 3475W        W 7526   8.139   6.179  11.855
 3476W        W 7527   8.777   4.771   3.482
 3477W        W 7528   1.888   1.695   0.349
 3478W        W 7529  11.202   3.346   1.820
 3479W        W 7530  11.048  10.838   9.012
 3480W        W 7531   3.697   7.913   1.424
 3481W        W 7532   9.147   1.641   2.431
 3482W        W 7533   0.248   1.853   9.357
 3483W        W 7534   0.385  10.888  11.287
 3484W        W 7535   5.548  10.666   0.674
 3485W        W 7536   8.811   4.062   2.167
 3486W        W 7537   1.996   6.091   8.468
 3487W        W 7538   9.589   1.481   8.762
 3488W        W 7539   0.518   5.583   2.838
 3489W        W 7540   2.457  10.850   2.285
 3490W        W 7541   8.771   5.810   1.839
 3491W        W 7542  10.505   4.658   2.792
 3492W        W 7543   1.353   6.120   2.470
 3493W        W 7544  10.379   1.344   9.905
 3494W        W 7545   7.633   8.060   0.119
 3495W        W 7546   6.569   8.971  10.382
 3496W        W 7547   8.016   7.715   9.145
 3497W        W 7548  10.420   9.788   9.629
 3498W        W 7549   6.466   1.934   9.784
 3499W        W 7550   8.837   0.744   2.926
 3500W        W 7551   7.161   2.089  10.028
 3501W        W 7552   8.288   0.197   8.531
 3502W        W 7553   3.246   7.052   9.995
 3503W        W 7554   0.976   3.748  10.396
 3504W        W 7555   5.776   6.546   8.615
 3505W        W 7556   8.950   6.017   3.222
 3506W        W 7557   6.505   6.685   0.674
 3507W        W 7558   9.377   4.384   0.930
 3508W        W 7559   6.696   0.397   0.495
 3509W        W 7560   2.407   3.701   0.823
 3510W        W 7561  11.461   0.424  11.648
 3511W        W 7562   7.630   7.518   1.767
 3512W        W 7563   1.650   1.343  10.367
 3513W        W 7564  11.035   9.454  10.855
 3514W        W 7565   6.414   9.840   8.898
 3515W        W 7566   4.190  10.509   1.036
 3516W        W 7567   2.743  10.460  11.964
 3517W        W 7568   5.612   2.236   3.070
 3518W        W 7569   5.646   0.674   1.005
 3519W        W 7570   5.300   1.347   3.098
 3520W        W 7571   3.318   8.065  10.733
 3521W        W 7572   4.332   5.080  10.802
 3522W        W 7573   2.241   2.450   3.303
 3523W        W 7574   7.282   4.549   3.513
 3524W        W 7575   1.945   9.873   0.270
 3525W        W 7576   6.075   3.688   9.170
 3526W        W 7577   7.231   7.487  11.788
 3527W        W 7578   3.724   2.596   0.272
 3528W        W 7579   5.960   8.239   3.547
 3529W        W 7580   9.556   0.523   0.956
 3530W        W 7581   5.657   3.175   3.530
 3531W        W 7582   9.448   7.012  10.212
 3532W        W 7583   3.763   4.117   9.700
 3533W        W 7584   1.686   3.120   0.402
 3534W        W 7585   3.324   6.004   8.716
 3535W        W 7586  10.732   9.052   2.431
 3536W        W 7587   1.950   1.655  10.636
 3537W        W 7588  11.325  10.396   9.086
 3538W        W 7589   4.386   4.407  10.324
 3539W        W 7590   3.344   2.879  11.566
 3540W        W 7591   4.104   7.451  11.343
 3541W        W 7592   3.864   4.485  10.065
 3542W        W 7593   1.633   0.418  11.276
 3543W        W 7594   4.812  11.352   1.334
 3544W        W 7595   9.318   9.086   8.457
 3545W        W 7596   1.970   2.046   8.790
 3546W        W 7597   3.023   4.085   0.831
 3547W        W 7598   2.851   3.657   1.045
 3548W        W 7599   6.170   9.937   2.707
 3549W        W 7600   2.148  10.839   9.185
 3550W        W 7601  10.881   6.961   9.455
 3551W        W 7602   5.223   8.504   9.535
 3552W        W 7603  11.150   3.783  10.492
 3553W        W 7604  11.206   8.276  11.183
 3554W        W 7605   0.256   7.544  11.995
 3555W        W 7606   0.403   8.112  10.052
 3556W        W 7607   4.316   5.123   2.091
 3557W        W 7608   6.077   3.651  11.918
 3558W        W 7609   6.566   2.083  11.532
 3559W        W 7610   7.161   3.166   2.478
 3560W        W 7611  10.037   4.372   1.514
 3561W        W 7612  10.214   6.581   0.439
 3562W        W 7613   8.507   3.831  11.956
 3563W        W 7614   4.927   8.380   0.885
 3564W        W 7615   9.961   1.337  11.070
 3565W        W 7616   3.531   6.189   0.001
 3566W        W 7617   2.583   7.074   3.133
 3567W        W 7618   1.505   1.245   8.379
 3568W        W 7619   0.401   5.573   1.046
 3569W        W 7620   5.988   8.424   0.792
 3570W        W 7621  10.324   4.761   2.320
 3571W        W 7622   7.718   6.666   1.569
 3572W        W 7623   6.434   8.581   3.575
 3573W        W 7624   1.695   8.355   0.897
 3574W        W 7625   0.584   7.086   8.706
 3575W        W 7626   1.381   1.405   8.843
 3576W        W 7627   9.540   6.108   8.573
 3577W        W 7628  11.362   1.537   9.251
 3578W        W 7629   5.851   5.028   2.676
 3579W        W 7630   7.592  11.456   0.158
 3580W        W 7631   1.415  10.749   1.336
 3581W        W 7632   7.940   1.496   1.005
 3582W        W 7633   2.382  10.456   3.514
 3583W        W 7634   0.401   8.423   3.561
 3584W        W 7635  11.162  11.298   8.788
 3585W        W 7636   6.142   7.644   2.186
 3586W        W 7637  11.035   2.278   0.872
 3587W        W 7638   9.466  11.177   1.853
 3588W        W 7639   9.664   6.671   3.589
 3589W        W 7640   3.364   0.431   0.483
 3590W        W 7641   6.570   5.307   1.341
 3591W        W 7642  10.162   6.912   2.241
 3592W        W 7643   6.761   1.192  10.063
 3593W        W 7644   4.464   9.527   8.931
 3594W        W 7645   3.278   0.029   3.433
 3595W        W 7646   2.861   6.711   0.544
 3596W        W 7647   1.303   1.616   2.284
 3597W        W 7648   0.865   7.099  10.008
 3598W        W 7649   2.951   7.021  10.779
 3599W        W 7650   3.800   2.588  11.362
 3600W        W 7651   8.875  10.492   9.481
 3601W        W 7652   0.315   3.404   3.138
 3602W        W 7653   2.109   8.581   0.645
 3603W        W 7654   5.228   9.848   1.148
 3604W        W 7655   3.752   8.414  10.248
 3605W        W 7656   5.330  11.328   1.268
 3606W        W 7657   3.390   9.950   3.235
 3607W        W 7658   3.845   4.362  11.823
 3608W        W 7659   2.447   7.998  11.323
 3609W        W 7660   5.474   7.000   9.563
 3610W        W 7661   6.271   5.904   8.600
 3611W        W 7662  10.283   9.421   9.013
 3612W        W 7663   4.679   6.446  10.814
 3613W        W 7664   2.922   5.269  10.875
 3614W        W 7665   3.048   2.226   3.257
 3615W        W 7666  10.042   5.675   9.691
 3616W        W 7667   3.594   4.331  10.956
 3617W        W 7668   6.560   1.207   0.901
 3618W        W 7669  10.300   1.078   1.305
 3619W        W 7670   2.104   8.114   9.000
 3620W        W 7671   2.171   7.152   2.800
 3621W        W 7672   0.724   4.663   2.437
 3622W        W 7673   3.193   5.781  11.500
 3623W        W 7674   7.560   1.526   2.889
 3624W        W 7675   3.774   7.760   2.767
 3625W        W 7676   6.234   0.061  11.264
 3626W        W 7677   1.945   6.316  11.355
 3627W        W 7678   5.238   4.232   0.487
 3628W        W 7679   5.450   3.327   0.847
 3629W        W 7680   4.087   0.697   3.410
 3630W        W 7681   7.689   6.992   2.089
 3631W        W 7682   2.674   9.353   9.407
 3632W        W 7683   2.704   3.774  11.488
 3633W        W 7684   8.420   5.338   9.103
 3634W        W 7685   5.749   6.529   9.680
 3635W        W 7686   8.398   4.186   1.767
 3636W        W 7687   8.096   8.145  10.883
 3637W        W 7688   2.342   8.631   9.796
 3638W        W 7689   4.829   1.731   0.954
 3639W        W 7690   5.345   9.878   8.918
 3640W        W 7691   3.688  10.118   1.645
 3641W        W 7692   5.470  10.197   2.046
 3642W        W 7693   9.719   6.091   2.558
 3643W        W 7694   6.903   9.358   1.524
 3644W        W 7695   0.287   4.119   0.877
 3645W        W 7696  10.687   6.630  11.114
 3646W        W 7697   6.466   1.984   8.013
 3647W        W 7698   1.918   1.415   8.871
 3648W        W 7699   7.434   3.977   2.364
 3649W        W 7700   3.163  10.034  10.383
 3650W        W 7701   4.837   2.004   0.418
 3651W        W 7702  10.153   5.688   2.973
 3652W        W 7703   4.135   0.483   0.899
 3653W        W 7704   7.868   6.272   1.869
 3654W        W 7705  11.007   6.617   8.516
 3655W        W 7706   0.655   9.303   0.270
 3656W        W 7707   6.155   3.211   9.848
 3657W        W 7708   0.919   0.195   3.288
 3658W        W 7709   2.105   2.396   1.379
 3659W        W 7710  10.818   0.306  10.824
 3660W        W 7711   8.559   4.114   1.295
 3661W        W 7712  10.557   4.968   0.931
 3662W        W 7713   5.880   7.979   9.092
 3663W        W 7714   1.747   7.366   1.890
 3664W        W 7715   1.141   3.302   1.932
 3665W        W 7716   3.569   1.365   2.385
 3666W        W 7717   8.190   2.193  10.141
 3667W        W 7718   4.601   4.830   1.508
 3668W        W 7719   0.285  10.571  10.377
 3669W        W 7720   0.985   3.269   2.616
 3670W        W 7721   9.906   7.686  11.290
 3671W        W 7722   8.600  10.430   3.157
 3672W        W 7723   6.494   4.829  11.503
 3673W        W 7724   8.143   3.591   3.312
 3674W        W 7725  10.611   2.707   3.489
 3675W        W 7726   5.544   6.164   0.164
 3676W        W 7727   1.927   6.215  10.225
 3677W        W 7728   7.324  11.038   0.852
 3678W        W 7729   1.891   9.820  10.820
 3679W        W 7730   5.194   8.874  11.247
 3680W        W 7731   3.889   9.927  11.739
 3681W        W 7732   6.996   4.312   3.898
 3682W        W 7733   2.530   1.682  10.888
 3683W        W 7734   6.870  11.331  10.441
 3684W        W 7735  11.243  10.334   1.144
 3685W        W 7736   5.463   4.033  11.210
 3686W        W 7737   7.112   9.666   9.334
 3687W        W 7738   4.409   4.311   2.162
 3688W        W 7739  10.271   5.295   2.663
 3689W        W 7740   2.263   0.718  11.717
 3690W        W 7741   8.080   9.632  10.446
 3691W        W 7742   1.784   2.232   3.159
 3692W        W 7743   6.006   3.226   1.665
 3693W        W 7744  10.883   1.732   9.277
 3694W        W 7745   2.242   6.152   1.451
 3695W        W 7746   0.190  11.346   1.000
 3696W        W 7747   9.578   5.394   0.756
 3697W        W 7748   4.224   1.875  11.215
 3698W        W 7749  10.134   3.854   1.630
 3699W        W 7750   3.197  10.437   1.327
 3700W        W 7751   4.914   8.615   9.130
 3701W        W 7752   8.782   8.314   3.495
 3702W        W 7753   3.064   3.123  10.446
 3703W        W 7754   5.371  11.149   0.310
 3704W        W 7755   8.420   6.731  11.322
 3705W        W 7756   6.746   7.153   0.809
 3706W        W 7757   6.087   1.611   9.945
 3707W        W 7758  10.132   8.467   1.473
 3708W        W 7759   7.967   0.986   9.597
 3709W        W 7760   1.147   1.475  10.332
 3710W        W 7761   5.908   9.446   1.623
 3711W        W 7762  11.407   0.012  11.352
 3712W        W 7763   1.123   4.304   2.672
 3713W        W 7764   3.138   1.302   0.547
 3714W        W 7765   9.449   3.879   0.918
 3715W        W 7766   3.088   8.453   1.983
 3716W        W 7767   3.759   4.711   3.103
 3717W        W 7768   6.203   0.801  10.826
 3718W        W 7769   4.411   1.850   2.093
 3719W        W 7770   1.329   6.585   2.695
 3720W        W 7771  10.980  10.768   2.013
 3721W        W 7772   3.019   4.641  11.984
 3722W        W 7773   6.454   9.588  10.985
 3723W        W 7774   4.073   8.653   9.908
 3724W        W 7775  10.284   3.235  11.871
 3725W        W 7776  10.145   0.001  11.833
 3726W        W 7777   4.193   8.327   0.369
 3727W        W 7778   9.926   2.201   0.302
 3728W        W 7779   1.169   4.036   9.832
 3729W        W 7780   9.454   6.764  11.254
 3730W        W 7781   1.277   7.104   1.870
 3731W        W 7782   2.934   2.361   9.486
 3732W        W 7783   3.016   0.571   9.923
 3733W        W 7784   4.251   7.233  10.862
 3734W        W 7785   0.847  10.880   2.869
 3735W        W 7786   5.517   6.585   2.669
 3736W        W 7787   6.052   4.644  11.727
 3737W        W 7788   7.179   3.688   0.293
 3738W        W 7789  10.208   6.695   9.993
 3739W        W 7790   9.041   9.579   2.702
 3740W        W 7791   0.301   2.466   1.936
 3741W        W 7792   3.780   9.983   2.530
 3742W        W 7793   0.017   5.109   9.422
 3743W        W 7794  11.471   5.292   1.008
 3744W        W 7795   4.969   5.221  10.319
 3745W        W 7796   7.134   2.882  10.332
 3746W        W 7797   9.789   0.554   2.644
 3747W        W 7798   3.514   1.323  11.702
 3748W        W 7799  11.041   8.590  11.872
 3749W        W 7800   4.151   2.346   1.280
 3750W        W 7801   9.958   6.549   9.552
 3751W        W 7802   0.192   1.251   3.363
 3752W        W 7803   4.126   3.079   0.749
 3753W        W 7804   9.943   6.691   0.003
 3754W        W 7805   1.688   1.454   1.260
 3755W        W 7806  10.695   4.037   1.617
 3756W        W 7807   0.367   7.502   1.023
 3757W        W 7808  11.446   0.453   1.801
 3758W        W 7809   0.175   3.051   0.914
 3759W        W 7810   3.713  11.126   1.660
 3760W        W 7811   2.027   6.866   0.299
 3761W        W 7812  11.423   3.927   9.544
 3762W        W 7813  10.273   6.071  10.351
 3763W        W 7814   1.453   7.807   1.375
 3764W        W 7815  11.103   1.688  11.265
 3765W        W 7816   2.252   8.120   1.663
 3766W        W 7817   3.677   7.446   2.387
 3767W        W 7818   8.025  10.253   1.050
 3768W        W 7819   1.365   5.609   2.259
 3769W        W 7820   7.360   8.583   0.872
 3770W        W 7821   5.273   9.040   2.764
 3771W        W 7822   6.036   3.082   8.131
 3772W        W 7823   6.763   3.661  10.429
 3773W        W 7824   5.989   4.207   8.967
 3774W        W 7825   9.517   1.889  11.886
 3775W        W 7826   6.408   8.127   3.811
 3776W        W 7827   9.154   3.341   0.931
 3777W        W 7828   4.222   9.281   2.155
 3778W        W 7829   4.790  10.882  10.765
 3779W        W 7830   0.843   4.624   1.456
 3780W        W 7831   4.290   2.284  11.522
 3781W        W 7832  10.031   6.388   8.546
 3782W        W 7833   1.023   7.511  11.404
 3783W        W 7834  10.151   9.720   2.203
 3784W        W 7835   6.770   6.429   1.296
 3785W        W 7836   6.141   6.526  11.191
 3786W        W 7837   2.428   9.380   1.159
 3787W        W 7838   5.527   9.385  10.794
 3788W        W 7839   1.836   0.813   9.528
 3789W        W 7840   5.715   8.852  10.843
 3790W        W 7841   6.206   0.956   9.134
 3791W        W 7842   6.987   9.573  10.851
 3792W        W 7843   5.655   1.819  10.570
 3793W        W 7844   1.815   3.573   9.928
 3794W        W 7845   4.729   1.134   1.687
 3795W        W 7846   7.474  10.199   8.508
 3796W        W 7847   4.722   7.066   1.046
 3797W        W 7848   6.533   2.881   9.903
 3798W        W 7849   9.950   6.665  11.332
 3799W        W 7850  10.815   4.647   2.321
 3800W        W 7851   5.466   4.606   1.400
 3801W        W 7852   0.162   6.022   8.971
 3802W        W 7853   7.534  10.802   9.306
 3803W        W 7854   7.957   9.499   2.357
 3804W        W 7855   2.263  10.929   3.336
 3805W        W 7856   3.656   4.154   0.240
 3806W        W 7857   0.365   8.842  10.643
 3807W        W 7858   8.605   2.706   0.030
 3808W        W 7859   9.776   6.620   1.348
 3809W        W 7860   5.146   0.179   9.517
 3810W        W 7861  11.484   8.169   1.406
 3811W        W 7862   9.995   7.092   1.382
 3812W        W 7863   7.732   5.885  10.640
 3813W        W 7864   6.291   3.554   8.235
 3814W        W 7865   5.093   6.759   2.949
 3815W        W 7866   0.636   1.309   1.507
 3816W        W 7867   4.247  10.472   2.917
 3817W        W 7868  10.938   7.726   0.113
 3818W        W 7869   1.856   1.483  11.891
 3819W        W 7870   7.231   1.252  10.462
 3820W        W 7871  10.081   8.394   3.221
 3821W        W 7872   7.946  11.450   9.503
 3822W        W 7873  10.319   8.477  11.108
 3823W        W 7874   2.399   8.932   0.408
 3824W        W 7875   1.240   4.615   3.506
 3825W        W 7876   5.468   0.835  10.383
 3826W        W 7877   1.962  10.274   0.593
 3827W        W 7878   9.249   7.159   0.811
 3828W        W 7879   2.388   1.947   1.316
 3829W        W 7880   2.685  10.461   1.412
 3830W        W 7881   2.293   7.648   9.061
 3831W        W 7882   4.830   9.021   0.378
 3832W        W 7883   1.670   3.139  10.653
 3833W        W 7884   6.028   9.268  10.887
 3834W        W 7885   8.374   2.951   1.784
 3835W        W 7886   3.436   3.412   2.221
 3836W        W 7887   0.898   0.509  11.927
 3837W        W 7888  10.766   4.517   3.214
 3838W        W 7889   1.765   7.886   1.828
 3839W        W 7890   4.610   9.814   1.769
 3840W        W 7891  11.141   5.102   0.041
 3841W        W 7892   1.629   1.756   9.128
 3842W        W 7893   5.018   2.492   9.835
 3843W        W 7894  10.391   0.991   8.820
 3844W        W 7895   2.729   1.407   2.301
 3845W        W 7896   4.743   3.274  11.746
 3846W        W 7897   5.104   8.174  10.673
 3847W        W 7898   7.737   4.299   0.240
 3848W        W 7899   8.973   8.372   0.363
 3849W        W 7900   9.564   0.272   9.875
 3850W        W 7901   4.252   7.313   1.709
 3851W        W 7902   8.745   8.543   9.046
 3852W        W 7903   3.838   7.068  10.632
 3853W        W 7904   5.119   6.036   0.495
 3854W        W 7905   6.762   8.048   9.958
 3855W        W 7906   9.710   7.650   1.829
 3856W        W 7907   6.529   1.896   3.242
 3857W        W 7908  11.070   9.403   2.594
 3858W        W 7909   2.372   1.469  10.402
 3859W        W 7910   0.893   1.387   0.568
 3860W        W 7911   4.164  11.491   3.137
 3861W        W 7912   0.128   8.891   3.527
 3862W        W 7913   0.472   6.478   2.613
 3863W        W 7914   5.654   1.354  10.357
 3864W        W 7915   3.189   3.731   3.267
 3865W        W 7916   7.127   3.575   9.587
 3866W        W 7917   8.684   1.820   2.280
 3867W        W 7918   1.731   2.610   2.744
 3868W        W 7919   3.242   1.007   1.690
 3869W        W 7920   2.591   2.718   2.939
 3870W        W 7921  10.360   6.981   1.748
 3871W        W 7922  10.034   4.345   2.166
 3872W        W 7923   0.958   5.955   2.174
 3873W        W 7924   0.838   1.048   9.518
 3874W        W 7925   5.624   5.105   1.270
 3875W        W 7926   6.841   2.469   1.309
 3876W        W 7927   7.045   6.685  10.545
 3877W        W 7928   0.082   7.202   2.137
 3878W        W 7929   2.663   9.679   0.789
 3879W        W 7930   4.210   5.202   0.053
 3880W        W 7931  11.049   2.837  11.269
 3881W        W 7932   1.202   5.659  11.603
 3882W        W 7933   5.109   7.725  11.080
 3883W        W 7934   4.422   2.096   1.643
 3884W        W 7935   5.722   8.592   2.792
 3885W        W 7936   9.421   5.660  10.841
 3886W        W 7937   4.090   7.095   9.755
 3887W        W 7938  11.324   3.467   8.647
 3888W        W 7939   8.685   2.818  10.547
 3889W        W 7940   8.510   8.600   8.569
 3890W        W 7941   4.921   2.493   0.210
 3891W        W 7942   3.937   7.984   9.427
 3892W        W 7943   3.235   2.881   2.222
 3893W        W 7944  10.822  10.154  10.534
 3894W        W 7945   2.892  10.030   9.184
 3895W        W 7946   1.202   6.620   3.206
 3896W        W 7947   7.732   0.250   3.374
 3897W        W 7948   3.386   6.628  11.220
 3898W        W 7949  10.921   1.794   3.183
 3899W        W 7950   4.076   1.269   2.347
 3900W        W 7951   6.593   2.156   8.495
 3901W        W 7952   3.790   7.262   1.488
 3902W        W 7953   1.137   6.968   1.367
 3903W        W 7954   3.719  11.463  10.514
 3904W        W 7955   2.188   4.629  10.283
 3905W        W 7956   3.853   1.371   1.418
 3906W        W 7957   7.874   8.582   0.914
 3907W        W 7958   5.426   1.147   1.160
 3908W        W 7959   0.027   3.658   1.559
 3909W        W 7960   0.454   5.401   9.432
 3910W        W 7961   5.231  10.962  11.066
 3911W        W 7962   7.020   9.480  11.734
 3912W        W 7963   1.833   0.330   2.220
 3913W        W 7964  11.291   2.535   9.309
 3914W        W 7965   0.814   1.772   0.982
 3915W        W 7966   7.095   2.134  11.878
 3916W        W 7967   5.323   5.154   0.475
 3917W        W 7968   1.828   3.872  10.967
 3918W        W 7969   0.260   1.274   9.536
 3919W        W 7970   5.813   9.657   1.143
 3920W        W 7971   5.049   3.034   2.702
 3921W        W 7972   1.234   2.307  11.185
 3922W        W 7973   7.970   4.658   0.670
 3923W        W 7974   9.642   2.381  11.915
 3924W        W 7975  11.389   6.573   3.465
 3925W        W 7976   2.769   0.745   9.512
 3926W        W 7977  10.894   3.581   8.920
 3927W        W 7978   8.581   3.852   3.170
 3928W        W 7979   5.266   2.752   0.491
 3929W        W 7980   2.183   1.301  11.549
 3930W        W 7981   2.444   8.312   2.537
 3931W        W 7982   0.323   0.772  11.564
 3932W        W 7983  11.102   1.582  10.751
 3933W        W 7984   1.480   1.849  10.471
 3934W        W 7985   2.889   6.911   9.062
 3935W        W 7986   3.128   8.279   2.455
 3936W        W 7987  10.604   7.909   3.470
 3937W        W 7988   3.501  10.567   1.798
 3938W        W 7989   2.403   9.878   1.233
 3939W        W 7990   0.774   1.159  10.797
 3940W        W 7991  11.214  10.591  11.940
 3941W        W 7992  11.236   7.863  11.482
 3942W        W 7993   5.337  10.019   2.622
 3943W        W 7994   6.128   4.773   0.750
 3944W        W 7995  11.454   4.905   1.324
 3945W        W 7996   6.552   0.863   8.747
 3946W        W 7997   3.555   6.128   0.496
 3947W        W 7998   8.480   4.007   9.978
 3948W        W 7999   2.851   9.097   1.216
 3949W        W 8000   9.915   2.942   8.400
 3950W        W 8001   8.407   4.314  11.806
 3951W        W 8002   8.936   2.652   2.250
 3952W        W 8003   7.596   0.738  11.129
 3953W        W 8004   8.226   6.448  10.097
 3954W        W 8005   9.146   1.292   9.004
 3955W        W 8006   8.307   6.979  10.783
 3956W        W 8007   8.961   6.885   8.183
 3957W        W 8008   2.828   0.324   3.491
 3958W        W 8009   9.528   6.265   9.086
 3959W        W 8010  10.311   9.435   1.402
 3960W        W 8011   8.968   8.096   9.001
 3961W        W 8012   4.988   4.705   1.208
 3962W        W 8013   2.817   5.906  10.195
 3963W        W 8014   6.272   4.297   0.489
 3964W        W 8015   5.607   3.881   9.090
 3965W        W 8016   3.659   2.550   2.077
 3966W        W 8017   2.588   9.521   3.064
 3967W        W 8018   0.523   9.835  11.058
 3968W        W 8019   7.869   2.427  10.497
 3969W        W 8020   4.201   9.975   8.872
 3970W        W 8021   2.683   0.581  10.331
 3971W        W 8022   3.463  10.143  11.492
 3972W        W 8023   9.452   1.631   0.336
 3973W        W 8024   7.735   1.250  10.008
 3974W        W 8025   3.624  10.287  10.978
 3975W        W 8026   7.723  11.085  10.657
 3976W        W 8027   4.189   3.468   0.404
 3977W        W 8028   7.523  10.368   9.582
 3978W        W 8029   1.602  10.495  11.698
 3979W        W 8030   7.648   6.112   3.777
 3980W        W 8031   9.859   2.814   2.194
 3981W        W 8032   6.643   9.916   1.358
 3982W        W 8033   6.675   3.367   9.799
 3983W        W 8034  11.298   9.006   9.592
 3984W        W 8035   2.799   9.982   1.554
 3985W        W 8036   7.193   8.520   2.350
 3986W        W 8037   9.165   5.485  10.105
 3987W        W 8038  10.705   2.342   1.268
 3988W        W 8039   5.622   4.876  11.945
 3989W        W 8040   6.128   2.258   3.182
 3990W        W 8041   0.620   5.865   9.960
 3991W        W 8042   4.651   6.858   0.194
 3992W        W 8043   2.224   3.906   1.837
 3993W        W 8044   4.509  10.786   8.839
 3994W        W 8045   0.969   6.626  10.380
 3995W        W 8046   9.252   9.012  10.334
 3996W        W 8047   0.429   0.045   0.586
 3997W        W 8048   8.576   7.959   2.229
 3998W        W 8049   1.456   9.350  10.074
 3999W        W 8050   4.335  10.397   0.533
 4000W        W 8051   4.566   0.860   1.246
 4001W        W 8052   0.308   0.669   8.713
 4002W        W 8053   7.613   9.023   1.084
 4003W        W 8054   5.435   0.386   3.067
 4004W        W 8055   0.052   5.278   2.318
 4005W        W 8056   0.818   6.269  10.907
 4006W        W 8057   9.696   9.600   0.230
 4007W        W 8058   5.250  11.412  11.290
 4008W        W 8059   0.832   4.629   1.955
 4009W        W 8060   7.651   7.563  10.410
 4010W        W 8061   8.283   0.233   3.549
 4011W        W 8062   4.443   7.153   9.352
 4012W        W 8063   4.162  10.072   1.864
 4013W        W 8064   3.118   3.600  10.085
 4014W        W 8065   9.457   0.779   3.457
 4015W        W 8066   3.359  11.005  11.655
 4016W        W 8067   1.041   5.123   0.300
 4017W        W 8068   7.849   2.411  11.491
 4018W        W 8069  10.860   4.985   0.467
 4019W        W 8070   4.980   0.477   2.157
 4020W        W 8071   6.312  11.262   1.143
 4021W        W 8072   1.913  10.864   9.725
 4022W        W 8073   3.752   4.995   1.741
 4023W        W 8074   8.818  10.642   3.561
 4024W        W 8075   6.042  10.001   0.827
 4025W        W 8076   3.550  10.647  11.350
 4026W        W 8077   5.021   3.416  10.568
 4027W        W 8078  10.840   7.729   3.030
 4028W        W 8079   3.109   7.390   0.364
 4029W        W 8080   9.534   4.916   4.365
 4030W        W 8081   4.802   7.967  10.298
 4031W        W 8082   3.310   2.721   3.247
 4032W        W 8083   0.566   0.847   1.678
 4033W        W 8084   7.502   9.817   3.209
 4034W        W 8085   2.897   4.523  10.312
 4035W        W 8086   5.131   8.956   2.026
 4036W        W 8087   5.225   3.198   8.773
 4037W        W 8088  10.293   6.942   9.537
 4038W        W 8089   9.122   3.708   9.515
 4039W        W 8090   8.784   1.306   1.293
 4040W        W 8091   2.786   1.273   9.493
 4041W        W 8092   2.108   2.853   3.004
 4042W        W 8093   5.813  10.593  10.492
 4043W        W 8094   3.742   2.608   9.845
 4044W        W 8095  10.894   3.280   9.925
 4045W        W 8096  11.094   5.077   2.399
 4046W        W 8097   8.009   1.059   3.483
 4047W        W 8098  11.024   3.124  10.407
 4048W        W 8099  11.374   2.329   0.417
 4049W        W 8100   3.331   9.347  11.064
 4050W        W 8101   5.127   1.594   9.262
 4051W        W 8102   9.549   7.499  10.336
 4052W        W 8103   4.210   2.833  11.542
 4053W        W 8104   6.578   0.430   1.370
 4054W        W 8105   0.129   8.565   1.080
 4055W        W 8106   0.049   2.354  10.409
 4056W        W 8107   0.499   3.847   3.374
 4057W        W 8108   2.603   6.174   3.314
 4058W        W 8109   2.872   2.026   1.205
 4059W        W 8110   2.585   3.020   3.622
 4060W        W 8111   8.837   0.374   1.859
 4061W        W 8112   0.577   9.320   3.473
 4062W        W 8113   8.940   5.119   2.246
 4063W        W 8114   6.151   3.109   3.717
 4064W        W 8115  11.311   5.678   9.651
 4065W        W 8116   9.160   8.087  11.935
 4066W        W 8117   7.652  11.250  11.133
 4067W        W 8118   1.838   2.450  10.885
 4068W        W 8119   2.402   0.173   3.269
 4069W        W 8120   3.313   9.645  11.476
 4070W        W 8121   6.671   7.021   0.314
 4071W        W 8122   1.303   7.628   1.813
 4072W        W 8123   9.529   8.625   8.572
 4073W        W 8124  10.041   4.863   2.767
 4074W        W 8125  10.157  11.406   0.654
 4075W        W 8126   9.623   4.067   1.360
 4076W        W 8127   4.607   2.120   8.640
 4077W        W 8128   6.730   0.410   3.223
 4078W        W 8129   9.665   1.502   0.805
 4079W        W 8130   4.655  11.494   9.556
 4080W        W 8131   6.017   1.282   2.194
 4081W        W 8132   9.831   7.491  10.789
 4082W        W 8133   7.920   5.005  11.529
 4083W        W 8134   7.897   9.481   0.177
 4084W        W 8135   5.631   5.693   1.909
 4085W        W 8136   8.215   2.274   0.919
 4086W        W 8137   2.878   9.774   3.411
 4087W        W 8138   6.766   8.959   0.847
 4088W        W 8139   6.465   9.905   3.147
 4089W        W 8140   5.441   5.889   1.477
 4090W        W 8141   8.482   8.249   0.191
 4091W        W 8142   6.381   2.300   1.884
 4092W        W 8143   0.755   3.302   0.395
 4093W        W 8144   9.583   8.948   8.967
 4094W        W 8145   8.298   3.009   9.941
 4095W        W 8146  11.094   2.905   9.630
 4096W        W 8147   4.653   2.983  11.344
 4097W        W 8148   6.593  11.334  11.838
 4098W        W 8149   9.769   2.493   8.622
 4099W        W 8150  10.449   0.382  11.681
 4100W        W 8151   0.769   4.321  10.006
 4101W        W 8152  11.307   4.842   0.805
 4102W        W 8153   8.443   2.048   2.751
 4103W        W 8154   5.576   9.739   3.310
 4104W        W 8155  10.523  10.871   1.376
 4105W        W 8156   9.002   8.682  10.731
 4106W        W 8157  11.325   8.732  11.365
 4107W        W 8158   7.072  10.089   9.605
 4108W        W 8159   0.165   0.707   3.403
 4109W        W 8160   4.915   1.853   8.301
 4110W        W 8161   7.830   1.170   2.194
 4111W        W 8162   8.042  11.299  11.924
 4112W        W 8163   6.465   6.457   9.057
 4113W        W 8164  10.621   9.533   3.229
 4114W        W 8165  11.031   4.692   2.799
 4115W        W 8166   0.022   9.820   2.253
 4116W        W 8167   8.991   2.176   9.563
 4117W        W 8168   4.596  11.005   0.402
 4118W        W 8169   7.125   2.322   2.490
 4119W        W 8170   5.744   1.250  11.345
 4120W        W 8171  10.456   0.654   3.651
 4121W        W 8172   0.026   6.145   3.149
 4122W        W 8173   5.232   5.500   1.267
 4123W        W 8174   2.666   6.963   1.838
 4124W        W 8175   5.090   7.587  10.080
 4125W        W 8176  10.792   5.611   8.555
 4126W        W 8177   0.784   5.582  10.441
 4127W        W 8178   5.594   9.600   2.801
 4128W        W 8179   3.084   8.469  10.934
 4129W        W 8180   5.555  10.173   0.897
 4130W        W 8181   1.382   1.890   1.205
 4131W        W 8182   4.133   7.587   1.305
 4132W        W 8183   3.803   0.004   1.285
 4133W        W 8184   6.109   0.867   3.013
 4134W        W 8185  11.159  10.527   1.605
 4135W        W 8186   0.900   0.576   3.726
 4136W        W 8187   9.981   3.310   0.321
 4137W        W 8188   4.280   9.096  11.243
 4138W        W 8189  11.125   3.928   0.113
 4139W        W 8190   3.814   3.108   0.299
 4140W        W 8191   0.131   3.090   1.816
 4141W        W 8192   6.498   7.357   2.382
 4142W        W 8193   4.795   6.933   3.327
 4143W        W 8194   4.501  10.323  10.341
 4144W        W 8195   9.576   2.470  10.174
 4145W        W 8196   0.717   8.791   3.336
 4146W        W 8197   9.450   6.237   1.479
 4147W        W 8198   6.963   1.797   9.264
 4148W        W 8199  11.232   3.067  11.686
 4149W        W 8200   8.107   8.132   0.852
 4150W        W 8201   6.600   1.593   2.852
 4151W        W 8202   9.074   2.232   9.060
 4152W        W 8203   8.756   4.615  11.330
 4153W        W 8204   2.321   1.827  10.038
 4154W        W 8205   1.893   5.355   9.912
 4155W        W 8206   1.079   2.343   0.239
 4156W        W 8207  11.213   6.905   9.844
 4157W        W 8208   2.121  10.927  11.303
 4158W        W 8209   7.926   4.047   1.672
 4159W        W 8210   0.938   8.420   2.785
 4160W        W 8211   8.602   1.896  11.492
 4161W        W 8212   6.950   4.680  10.250
 4162W        W 8213   7.006   1.293   9.419
 4163W        W 8214  11.252   1.329   1.897
 4164W        W 8215   4.341   5.606   1.878
 4165W        W 8216   9.137   8.515   1.779
 4166W        W 8217   5.099   9.521   2.880
 4167W        W 8218   6.015   2.899   3.239
 4168W        W 8219   2.191   7.464   0.494
 4169W        W 8220   8.309   2.674   2.694
 4170W        W 8221   8.813  11.227   2.692
 4171W        W 8222   2.567   8.997   8.545
 4172W        W 8223   4.925   2.921  10.524
 4173W        W 8224   8.846   9.517   9.760
 4174W        W 8225   5.212   7.497   9.606
 4175W        W 8226   9.236   6.079  11.772
 4176W        W 8227   8.018   8.723   9.977
 4177W        W 8228   5.489   8.050   0.223
 4178W        W 8229   9.555   1.522   9.809
 4179W        W 8230   6.125   3.825   0.990
 4180W        W 8231   1.119   7.451   3.142
 4181W        W 8232   3.695   8.994   3.229
 4182W        W 8233   4.880   1.003   0.397
 4183W        W 8234   2.467   8.004   9.379
 4184W        W 8235   2.155   8.442   1.132
 4185W        W 8236   2.045   4.282   9.349
 4186W        W 8237   4.671   5.291   0.254
 4187W        W 8238   1.423   8.636   2.812
 4188W        W 8239   4.420   9.456   2.632
 4189W        W 8240  11.291   7.792  10.978
 4190W        W 8241   6.096   5.899   1.831
 4191W        W 8242   0.361   8.054  11.778
 4192W        W 8243  10.888   8.130  11.721
 4193W        W 8244  10.852   1.486  10.119
 4194W        W 8245   8.391   9.405   9.538
 4195W        W 8246  11.416   4.372   0.624
 4196W        W 8247   5.923   4.589   9.296
 4197W        W 8248  10.455   5.106   1.780
 4198W        W 8249   5.191   3.967   0.907
 4199W        W 8250   4.694   6.970  10.857
 4200W        W 8251   1.195  10.548   3.593
 4201W        W 8252   5.405  10.329  10.286
 4202W        W 8253   7.672   2.714   9.536
 4203W        W 8254   6.645   0.924   0.468
 4204W        W 8255   8.149   8.693   1.983
 4205W        W 8256   0.766   1.082  11.315
 4206W        W 8257   1.560   0.837   0.556
 4207W        W 8258   8.562   5.577  11.415
 4208W        W 8259   4.540   7.538  10.561
 4209W        W 8260   1.460   3.006   9.059
 4210W        W 8261   2.546   8.621  10.998
 4211W        W 8262   6.342   2.324   0.372
 4212W        W 8263   9.280   4.201   9.376
 4213W        W 8264  11.220   5.370   1.459
 4214W        W 8265   4.347   6.679   9.970
 4215W        W 8266   9.631   1.032   1.725
 4216W        W 8267   9.127   8.064   0.795
 4217W        W 8268  10.453  10.304  11.052
 4218W        W 8269   9.821   9.554  11.661
 4219W        W 8270  10.475   8.478   9.145
 4220W        W 8271   2.996  10.906   1.313
 4221W        W 8272   0.727   3.822   9.967
 4222W        W 8273  10.199   7.669   1.117
 4223W        W 8274   9.117   1.754   8.764
 4224W        W 8275   9.517   8.429   2.150
 4225W        W 8276   7.413   7.568  10.866
 4226W        W 8277   0.882   9.580   2.161
 4227W        W 8278   1.965   9.587   1.204
 4228W        W 8279   4.157   6.265   9.731
 4229W        W 8280   0.535   2.614   1.504
 4230W        W 8281   5.917   5.737   2.313
 4231W        W 8282   5.072   0.480   8.941
 4232W        W 8283   7.731  10.571   0.261
 4233W        W 8284   7.693   9.051   2.567
 4234W        W 8285   7.424   2.761   0.898
 4235W        W 8286   8.233   1.324  11.750
 4236W        W 8287   2.335   8.493   9.305
 4237W        W 8288   7.955  11.286   2.474
 4238W        W 8289   4.265   7.086   1.246
 4239W        W 8290   8.528   0.163   1.491
 4240W        W 8291   9.293   4.483  11.409
 4241W        W 8292  11.308   1.235  11.038
 4242W        W 8293   3.674   1.334   9.643
 4243W        W 8294   9.118   5.794   8.674
 4244W        W 8295  10.001  10.574  11.307
 4245W        W 8296   2.282   7.254  11.536
 4246W        W 8297   4.838   2.109   1.937
 4247W        W 8298   5.228   1.189  10.076
 4248W        W 8299   0.003  10.470   3.315
 4249W        W 8300   1.762   8.397   1.810
 4250W        W 8301   6.058   3.688   3.842
 4251W        W 8302   4.094   4.742   8.678
 4252W        W 8303   8.118   9.443   1.796
 4253W        W 8304   5.867   8.958   0.036
 4254W        W 8305  11.177   4.291  10.378
 4255W        W 8306   4.052   1.487   0.943
 4256W        W 8307  11.422   7.671   1.199
 4257W        W 8308   5.271   8.451  11.525
 4258W        W 8309   4.727   4.336  11.792
 4259W        W 8310   9.957   1.688   0.372
 4260W        W 8311   8.410  10.351   1.400
 4261W        W 8312  10.547  10.756   8.996
 4262W        W 8313   0.534   9.548   2.982
 4263W        W 8314   7.386   4.050   9.176
 4264W        W 8315   1.689   5.967   3.237
 4265W        W 8316   4.312   0.276   0.446
 4266W        W 8317   6.221   7.494  11.282
 4267W        W 8318   7.177   9.132  10.069
 4268W        W 8319   2.937   0.954   2.096
 4269W        W 8320   9.421   9.001   3.534
 4270W        W 8321   2.279   2.796   2.526
 4271W        W 8322  11.232   0.043   0.897
 4272W        W 8323   6.582   3.622   1.889
 4273W        W 8324   6.138   2.501   0.839
 4274W        W 8325   2.019  10.749   0.832
 4275W        W 8326   7.988   4.035  11.905
 4276W        W 8327   7.450  10.894   9.851
 4277W        W 8328  10.952   1.225   9.139
 4278W        W 8329  10.696   6.545   1.757
 4279W        W 8330  10.350   6.046   9.507
 4280W        W 8331   8.351   2.365  11.462
 4281W        W 8332   8.460   1.531   2.683
 4282W        W 8333   3.103   2.109   2.598
 4283W        W 8334   7.597   2.531   3.174
 4284W        W 8335   7.896  10.479   8.481
 4285W        W 8336   4.960   8.968   9.522
 4286W        W 8337   5.049   8.841  11.831
 4287W        W 8338   2.646   2.204   2.947
 4288W        W 8339   6.442   5.922  11.980
 4289W        W 8340   7.592   6.866   0.837
 4290W        W 8341   5.345   0.356  11.520
 4291W        W 8342   9.185   2.790   2.808
 4292W        W 8343   1.796  11.311   2.967
 4293W        W 8344   4.218   9.529  11.988
 4294W        W 8345   8.985   4.109  11.161
 4295W        W 8346   1.797   9.213   2.232
 4296W        W 8347   6.881   9.407   2.460
 4297W        W 8348   8.340   1.578   1.359
 4298W        W 8349   6.983   6.949  11.024
 4299W        W 8350   9.054   3.075   3.195
 4300W        W 8351   3.562   9.333   0.885
 4301W        W 8352   8.362   1.091   2.154
 4302W        W 8353   6.943   4.652   1.223
 4303W        W 8354   1.795   8.867   0.901
 4304W        W 8355   3.623   1.748   1.726
 4305W        W 8356   5.618   1.737  11.456
 4306W        W 8357   4.247   3.173   9.552
 4307W        W 8358   8.565   2.799   8.662
 4308W        W 8359  10.688   2.305  10.546
 4309W        W 8360   6.449  10.493   8.412
 4310W        W 8361   9.362  10.826   9.918
 4311W        W 8362   1.716  10.881   0.020
 4312W        W 8363   2.766   5.643  11.256
 4313W        W 8364   0.162   2.430   9.632
 4314W        W 8365   4.382   8.685  10.917
 4315W        W 8366   9.080   2.400   1.668
 4316W        W 8367   0.596   2.940   1.886
 4317W        W 8368   2.478   2.540   9.660
 4318W        W 8369   2.851  11.450   3.147
 4319W        W 8370   3.629   0.753   0.838
 4320W        W 8371   1.874  10.014  11.767
 4321W        W 8372   1.799  10.658   8.808
 4322W        W 8373   1.013   0.662   9.886
 4323W        W 8374   8.569   5.333   0.799
 4324W        W 8375   6.741   7.482   8.696
 4325W        W 8376  10.404   5.537  11.875
 4326W        W 8377   5.136   7.378   2.258
 4327W        W 8378   1.232   2.636   9.878
 4328W        W 8379  10.028   6.716   4.347
 4329W        W 8380  10.685   5.121   9.110
 4330W        W 8381   4.110   6.474   4.190
 4331W        W 8382   0.586  10.995   8.609
 4332W        W 8383   5.585   8.010  10.715
 4333W        W 8384   8.702   7.124   2.132
 4334W        W 8385  10.950   0.828  10.938
 4335W        W 8386   6.843   6.117   0.245
 4336W        W 8387  10.371  11.491  11.370
 4337W        W 8388   8.468   1.649  10.046
 4338W        W 8389   3.220   3.035   2.712
 4339W        W 8390   3.533   9.047   0.054
 4340W        W 8391   8.590   9.632  10.624
 4341W        W 8392   9.997  11.309  10.534
 4342W        W 8393  10.866   5.053   9.857
 4343W        W 8394   7.149  11.418   9.922
 4344W        W 8395  10.510   6.580   0.850
 4345W        W 8396   5.483  10.942   2.124
 4346W        W 8397   9.936   9.196   0.042
 4347W        W 8398  10.200   7.994  10.939
 4348W        W 8399   0.853  10.605   9.049
 4349W        W 8400  11.445   2.215   2.351
 4350W        W 8401   5.164   1.753   1.725
 4351W        W 8402   0.379   8.499  11.034
 4352W        W 8403   0.494   8.139   2.697
 4353W        W 8404   8.452   7.214   8.900
 4354W        W 8405   8.393   5.137   1.332
 4355W        W 8406   0.323   7.470   0.503
 4356W        W 8407  10.124   7.009   3.569
 4357W        W 8408   3.073   2.552   2.828
 4358W        W 8409   5.644   7.137   0.202
 4359W        W 8410   2.269  10.951   2.768
 4360W        W 8411  11.354   9.090   2.909
 4361W        W 8412   9.319   9.361   1.260
 4362W        W 8413   0.012   4.101  10.730
 4363W        W 8414   0.988   7.967   1.501
 4364W        W 8415   1.580   9.630   3.266
 4365W        W 8416   6.543   3.428  11.819
 4366W        W 8417   4.272   0.368   9.373
 4367W        W 8418   4.126   0.030   1.713
 4368W        W 8419   8.372   4.199  10.438
 4369W        W 8420   7.603   8.594   2.793
 4370W        W 8421  10.342   1.015  10.304
 4371W        W 8422   7.580   6.705   2.943
 4372W        W 8423   6.031   4.542  10.785
 4373W        W 8424  11.446   2.156   2.881
 4374W        W 8425   9.285   6.428   0.545
 4375W        W 8426   9.872   7.872  10.465
 4376W        W 8427  10.631   1.741  11.412
 4377W        W 8428   6.275   6.585  11.674
 4378W        W 8429   6.183   1.399  10.438
 4379W        W 8430   4.568  10.894  11.594
 4380W        W 8431   9.884   8.119   1.971
 4381W        W 8432   6.076   9.199   1.204
 4382W        W 8433   5.550   7.030  10.853
 4383W        W 8434   0.534   7.386  11.444
 4384W        W 8435   0.612   4.232   2.669
 4385W        W 8436   2.041   5.622   8.631
 4386W        W 8437   3.529   1.770   9.888
 4387W        W 8438   5.434   5.661  10.507
 4388W        W 8439   6.400   9.495   1.523
 4389W        W 8440   0.846   4.637   0.963
 4390W        W 8441  10.455   7.441   3.695
 4391W        W 8442   6.309   4.105   2.718
 4392W        W 8443   2.472   2.644  11.065
 4393W        W 8444   1.703   7.388   0.745
 4394W        W 8445   1.648   3.303   0.993
 4395W        W 8446   0.052  10.949   8.913
 4396W        W 8447   7.380  10.038   0.924
 4397W        W 8448   9.276   1.057   2.137
 4398W        W 8449   1.234   4.254   0.496
 4399W        W 8450   5.603   4.368  11.837
 4400W        W 8451   8.472   2.326   9.587
 4401W        W 8452   1.816   1.045   1.565
 4402W        W 8453   8.691   2.131   0.780
 4403W        W 8454   4.517   2.167  10.909
 4404W        W 8455   1.500  11.242   9.032
 4405W        W 8456   9.946   9.151   2.776
 4406W        W 8457   8.453   4.839   0.904
 4407W        W 8458   0.458   0.285  11.764
 4408W        W 8459   5.171   7.751   1.334
 4409W        W 8460  10.536   1.690   2.845
 4410W        W 8461   7.887   6.464   0.748
 4411W        W 8462   5.972   5.234  10.078
 4412W        W 8463   4.631   5.307  11.733
 4413W        W 8464   8.691   2.107   9.991
 4414W        W 8465   1.708  11.315   9.888
 4415W        W 8466   0.034  10.349   9.592
 4416W        W 8467   2.870  11.141  10.306
 4417W        W 8468   4.503   0.359   1.952
 4418W        W 8469   5.749   9.417  10.327
 4419W        W 8470   5.594   0.265   1.402
 4420W        W 8471   7.838   0.997   0.935
 4421W        W 8472   7.775   9.909   8.804
 4422W        W 8473   1.823  11.015   1.630
 4423W        W 8474   1.270   7.995   9.905
 4424W        W 8475   4.548   9.305   3.574
 4425W        W 8476   6.043   6.713   0.876
 4426W        W 8477   8.191   7.069   2.104
 4427W        W 8478   0.329   4.846   2.149
 4428W        W 8479   4.617   9.812  10.248
 4429W        W 8480   0.410   0.250  10.129
 4430W        W 8481  11.261   0.840  11.369
 4431W        W 8482   7.588   9.895   2.354
 4432W        W 8483   5.170   9.999   8.434
 4433W        W 8484   4.047   9.246   9.001
 4434W        W 8485   5.053   2.977   0.070
 4435W        W 8486   3.458   6.004   3.049
 4436W        W 8487  10.361  10.075   0.769
 4437W        W 8488   3.128   5.268  11.366
 4438W        W 8489   0.439  10.842   9.917
 4439W        W 8490   2.322   5.538  11.066
 4440W        W 8491   6.652   0.544  10.691
 4441W        W 8492   1.166   0.503   0.414
 4442W        W 8493   3.321   7.964   1.805
 4443W        W 8494   0.958   2.922   2.226
 4444W        W 8495   2.713   5.563   9.797
 4445W        W 8496   3.479   0.586   1.836
 4446W        W 8497  10.408   1.752   3.405
 4447W        W 8498   7.621   0.418   0.939
 4448W        W 8499  10.749   2.986  10.878
 4449W        W 8500   8.299   1.466   8.966
 4450W        W 8501   7.941   8.696   9.468
 4451W        W 8502   3.372  10.003   9.365
 4452W        W 8503  10.901  10.904  10.582
 4453W        W 8504   0.222   1.959   1.899
 4454W        W 8505   0.506   9.340  10.871
 4455W        W 8506  10.679   2.648   8.718
 4456W        W 8507   6.942  10.381   2.882
 4457W        W 8508   4.565   4.813   0.978
 4458W        W 8509   8.509   3.953  10.864
 4459W        W 8510   8.335   2.139   0.402
 4460W        W 8511   0.846   7.313   2.665
 4461W        W 8512   8.173   3.749   8.649
 4462W        W 8513   3.508   7.623   0.587
 4463W        W 8514   1.619   1.055   9.128
 4464W        W 8515   6.124  10.254   8.744
 4465W        W 8516  11.303   3.790   2.368
 4466W        W 8517  10.405  11.499  10.244
 4467W        W 8518   8.500   8.097   1.159
 4468W        W 8519   0.048   9.508  11.790
 4469W        W 8520   5.256  10.342   1.394
 4470W        W 8521   5.595  10.442  11.731
 4471W        W 8522   2.873   9.577   0.339
 4472W        W 8523   8.150   2.760   0.318
 4473W        W 8524   1.413   4.677   2.873
 4474W        W 8525   2.830   6.395   9.971
 4475W        W 8526  10.834  10.922  11.887
 4476W        W 8527   8.339   9.497   8.508
 4477W        W 8528   9.462   5.345  11.256
 4478W        W 8529   8.956   5.230   3.291
 4479W        W 8530   3.424   2.219   1.721
 4480W        W 8531  10.538  10.833   2.720
 4481W        W 8532  10.420  11.278   9.773
 4482W        W 8533   1.275   4.778  10.314
 4483W        W 8534   2.657   0.048  11.278
 4484W        W 8535   8.131   2.739  11.790
 4485W        W 8536   1.362   6.996  11.083
 4486W        W 8537   1.481   6.293  11.680
 4487W        W 8538   2.182   5.784  11.887
 4488W        W 8539  11.351   9.009  11.782
 4489W        W 8540  10.053   2.976   2.884
 4490W        W 8541   4.501   2.949   3.072
 4491W        W 8542  10.018   3.184   9.266
 4492W        W 8543  10.891   3.143   1.489
 4493W        W 8544   9.194   3.649  11.272
 4494W        W 8545   3.498   2.274  11.085
 4495W        W 8546   7.982   0.283   9.925
 4496W        W 8547   2.108   0.874   9.101
 4497W        W 8548   1.925   3.118   9.662
 4498W        W 8549  10.256  11.254   1.164
 4499W        W 8550   6.654  11.330   1.989
 4500W        W 8551   4.058   2.952   9.097
 4501W        W 8552   3.968   0.969  10.836
 4502W        W 8553   1.701   2.234  11.369
 4503W        W 8554   3.189   0.724  11.819
 4504W        W 8555   3.333   6.559   9.853
 4505W        W 8556   8.721   9.054  10.276
 4506W        W 8557   5.672   4.035   8.210
 4507W        W 8558   5.876  10.991   0.460
 4508W        W 8559   0.158   0.367   2.504
 4509W        W 8560   5.583   9.697   0.672
 4510W        W 8561   1.231   3.791   3.352
 4511W        W 8562   9.028  10.579   0.244
 4512W        W 8563   2.874   1.367   8.986
 4513W        W 8564   9.519   0.975  10.342
 4514W        W 8565   6.991   1.858   1.118
 4515W        W 8566   1.204   0.201   9.120
 4516W        W 8567   8.959   7.169   1.664
 4517W        W 8568  11.220   9.386  10.382
 4518W        W 8569   9.171   9.551   3.239
 4519W        W 8570   3.902   6.963   2.414
 4520W        W 8571   3.751   7.104  10.125
 4521W        W 8572   4.585   6.406   3.978
 4522W        W 8573   4.706   7.537   9.550
 4523W        W 8574   7.041   8.735  11.583
 4524W        W 8575   1.299  10.482  10.886
 4525W        W 8576   5.689   8.494   8.636
 4526W        W 8577   9.376   1.098   0.250
 4527W        W 8578   2.013   6.986   0.810
 4528W        W 8579   1.154   7.119   9.561
 4529W        W 8580   5.823   5.298  10.571
 4530W        W 8581   6.891   8.519   1.051
 4531W        W 8582   4.034   7.534  10.522
 4532W        W 8583   6.017   2.784   1.346
 4533W        W 8584  11.451   5.153  11.609
 4534W        W 8585   6.682   9.547   1.971
 4535W        W 8586   6.871   8.145  11.764
 4536W        W 8587   4.271   6.969   2.067
 4537W        W 8588   6.072   7.392   1.742
 4538W        W 8589   6.215   0.477  10.340
 4539W        W 8590   9.637   8.000   0.795
 4540W        W 8591   9.915   3.812  10.817
 4541W        W 8592  11.188   1.320   0.078
 4542W        W 8593   6.010   2.625   9.062
 4543W        W 8594  11.375   2.484  11.551
 4544W        W 8595   3.104   6.632   2.017
 4545W        W 8596   6.271   9.071   9.099
 4546W        W 8597   6.827   0.250   0.009
 4547W        W 8598   2.285   0.953  10.394
 4548W        W 8599   7.121   0.290  10.492
 4549W        W 8600   8.081   8.429  10.439
 4550W        W 8601   7.956   3.314  10.159
 4551W        W 8602   9.624  10.450   3.289
 4552W        W 8603   2.602   8.100   8.883
 4553W        W 8604   7.905   3.199   9.648
 4554W        W 8605   9.884   6.122   1.191
 4555W        W 8606   2.485   6.541   9.625
 4556W        W 8607   4.595   9.522  11.214
 4557W        W 8608   5.969   4.374   8.476
 4558W        W 8609   7.749   7.938   9.637
 4559W        W 8610   1.210  11.462   0.959
 4560W        W 8611   6.597  10.822   9.814
 4561W        W 8612   4.593   6.318   8.829
 4562W        W 8613   8.580   9.450   2.880
 4563W        W 8614   5.047  11.054  11.578
 4564W        W 8615   4.589  11.235   0.859
 4565W        W 8616   0.043   9.970   3.153
 4566W        W 8617   4.528   3.362   2.761
 4567W        W 8618   3.368   7.169   0.759
 4568W        W 8619   3.014   9.802   2.910
 4569W        W 8620  10.732  10.320   1.833
 4570W        W 8621   7.496   7.210   2.922
 4571W        W 8622  10.487   6.517   9.327
 4572W        W 8623  11.462   6.808  10.985
 4573W        W 8624   1.281   8.768  10.567
 4574W        W 8625   3.413   9.301   8.786
 4575W        W 8626   8.805   3.051  10.065
 4576W        W 8627   9.594   5.761   9.918
 4577W        W 8628   9.470   6.073   3.428
 4578W        W 8629   2.689   2.296  11.380
 4579W        W 8630   1.478   2.671  11.487
 4580W        W 8631   9.892   8.352  10.354
 4581W        W 8632   9.677   4.760   9.737
 4582W        W 8633   8.121   2.263  11.946
 4583W        W 8634   9.821   4.108  10.045
 4584W        W 8635   2.365  10.150  11.879
 4585W        W 8636   1.295   5.545  10.516
 4586W        W 8637   7.472   1.190  10.928
 4587W        W 8638  10.071   2.673   3.309
 4588W        W 8639   2.147   6.748  11.780
 4589W        W 8640   1.728   4.024   3.353
 4590W        W 8641   5.969   9.136   2.109
 4591W        W 8642  10.496   2.719   2.971
 4592W        W 8643  10.862   8.663   0.387
 4593W        W 8644   6.453  10.665   3.283
 4594W        W 8645   9.384   0.840   1.310
 4595W        W 8646   9.305   3.955   3.546
 4596W        W 8647   4.546  10.821  10.184
 4597W        W 8648   6.423  10.740   0.939
 4598W        W 8649   9.644  11.300   8.254
 4599W        W 8650  10.873   4.014   3.266
 4600W        W 8651   0.766   8.606   8.907
 4601W        W 8652   0.404   5.664   2.352
 4602W        W 8653   4.646   3.192  10.859
 4603W        W 8654  10.297  10.081  10.581
 4604W        W 8655  11.367   4.422   1.135
 4605W        W 8656   7.979   9.946   1.877
 4606W        W 8657   9.921   4.389   2.887
 4607W        W 8658   2.213   4.849   1.676
 4608W        W 8659   6.515   0.701   9.984
 4609W        W 8660   8.624   6.628   9.257
 4610W        W 8661   5.879   3.377  10.282
 4611W        W 8662   7.177   6.156   1.178
 4612W        W 8663   4.241   6.700   9.462
 4613W        W 8664   8.625   2.055   3.575
 4614W        W 8665   7.447   4.269  11.499
 4615W        W 8666   4.243   0.543  10.889
 4616W        W 8667   9.279   3.369   0.010
 4617W        W 8668   0.334   2.686  10.083
 4618W        W 8669   3.822   2.197   9.551
 4619W        W 8670   7.421  11.278   9.480
 4620W        W 8671   0.151   2.258  11.956
 4621W        W 8672   7.990  11.298   1.974
 4622W        W 8673   1.457   8.436   9.707
 4623W        W 8674   2.328   7.653   9.714
 4624W        W 8675   4.959   2.840   2.243
 4625W        W 8676   5.557   7.132   1.163
 4626W        W 8677   5.646   4.227   2.689
 4627W        W 8678   8.831   9.474   1.143
 4628W        W 8679   8.279   0.200   2.496
 4629W        W 8680   2.795   4.749  10.877
 4630W        W 8681   5.226   9.275  11.561
 4631W        W 8682   6.050   0.377   2.763
 4632W        W 8683   4.175   7.548   9.537
 4633W        W 8684   2.369   3.493   9.490
 4634W        W 8685  11.284  11.244   1.324
 4635W        W 8686   8.382  10.870   3.352
 4636W        W 8687   1.226   2.622   8.847
 4637W        W 8688   2.649   8.634   2.207
 4638W        W 8689  10.110   9.785   0.446
 4639W        W 8690   1.866   2.034  11.935
 4640W        W 8691   5.800   1.215   8.974
 4641W        W 8692   1.832   3.665  10.496
 4642W        W 8693   4.567   3.156   9.970
 4643W        W 8694   5.700   3.635  10.985
 4644W        W 8695   6.454   8.282  10.862
 4645W        W 8696   9.378  10.939   3.072
 4646W        W 8697   1.169   3.127   8.672
 4647W        W 8698   7.719   8.595   2.280
 4648W        W 8699  10.962   8.648   9.351
 4649W        W 8700   3.121   0.805   0.748
 4650W        W 8701   4.708   9.083  10.950
 4651W        W 8702   3.161   0.873   9.098
 4652W        W 8703   6.351   8.858  11.952
 4653W        W 8704   5.167  10.537   3.331
 4654W        W 8705  11.335   2.617  10.022
 4655W        W 8706   8.092   0.987   9.087
 4656W        W 8707   6.750   7.695  11.546
 4657W        W 8708   2.175   9.814   0.756
 4658W        W 8709   0.384  10.963   2.622
 4659W        W 8710  11.077   2.615  10.494
 4660W        W 8711   7.556   5.995   0.833
 4661W        W 8712   3.175   4.360   1.214
 4662W        W 8713   2.341   4.153  11.589
 4663W        W 8714  10.046  10.232   2.318
 4664W        W 8715   7.164  10.345   2.415
 4665W        W 8716   8.343   8.573   3.402
 4666W        W 8717   1.317   9.276   8.971
 4667W        W 8718  10.911   0.872  11.869
 4668W        W 8719   6.491   0.107   2.889
 4669W        W 8720  10.394   8.962   0.097
 4670W        W 8721   2.695   1.154   0.343
 4671W        W 8722   7.814   7.732   0.891
 4672W        W 8723   7.519   4.623  10.049
 4673W        W 8724   5.695   3.584   0.266
 4674W        W 8725  10.492   3.608   1.315
 4675W        W 8726   8.263   2.465   1.952
 4676W        W 8727   0.016   9.023   9.142
 4677W        W 8728   3.245   3.366   9.475
 4678W        W 8729   1.672  10.679   0.466
 4679W        W 8730   2.287   4.373   1.453
 4680W        W 8731   0.551   7.059   0.239
 4681W        W 8732  11.010   7.197   9.014
 4682W        W 8733  10.119   9.093   0.961
 4683W        W 8734   1.383   3.340   3.478
 4684W        W 8735   4.817   0.477  11.528
 4685W        W 8736   0.830  10.910   0.211
 4686W        W 8737   9.509   2.378   1.017
 4687W        W 8738   2.881  10.937   8.493
 4688W        W 8739   5.002   9.518   3.372
 4689W        W 8740   8.069   8.495   0.408
 4690W        W 8741   0.566   2.315   0.281
 4691W        W 8742   0.819   7.411   3.562
 4692W        W 8743   8.066   2.092   8.575
 4693W        W 8744   8.560   8.455   2.499
 4694W        W 8745   6.178   6.209  10.274
 4695W        W 8746   0.335   5.272  10.306
 4696W        W 8747   9.836   9.441  11.138
 4697W        W 8748  10.266   0.771   2.730
 4698W        W 8749   2.886   5.059   2.182
 4699W        W 8750   4.977  11.060  10.325
 4700W        W 8751   4.039  10.585  10.251
 4701W        W 8752   9.613  10.989  10.357
 4702W        W 8753   2.963   4.976   1.695
 4703W        W 8754  10.132   3.770  11.274
 4704W        W 8755   5.101  10.956   1.526
 4705W        W 8756   7.524   0.590  10.653
 4706W        W 8757   6.727   6.283  10.524
 4707W        W 8758   6.255   7.166   0.843
 4708W        W 8759   0.118   4.112   2.637
 4709W        W 8760   7.035   1.432   2.126
 4710W        W 8761   2.981   6.890   1.005
 4711W        W 8762  10.600   0.799   1.823
 4712W        W 8763   9.611   1.658  11.453
 4713W        W 8764   2.453   7.023   0.535
 4714W        W 8765   3.150   9.590  10.087
 4715W        W 8766  10.501   8.989   9.205
 4716W        W 8767   5.125  10.559  11.603
 4717W        W 8768   4.765   5.246   1.270
 4718W        W 8769   8.100   0.638   2.241
 4719W        W 8770   0.594   8.701   0.923
 4720W        W 8771   3.506   4.652   3.551
 4721W        W 8772   6.106   5.206   1.046
 4722W        W 8773   2.018   9.077   1.323
 4723W        W 8774   4.843   0.989   9.311
 4724W        W 8775   0.898   2.438   0.709
 4725W        W 8776   8.625   4.634   9.525
 4726W        W 8777   7.256   9.970  11.077
 4727W        W 8778   4.261   7.140  10.274
 4728W        W 8779   7.383   0.828  10.218
 4729W        W 8780   2.600   4.292  10.704
 4730W        W 8781   0.456  10.814   1.648
 4731W        W 8782   9.741   6.616  10.855
 4732W        W 8783   5.872   6.892   3.512
 4733W        W 8784   5.634   4.528   3.487
 4734W        W 8785  10.805   9.559  11.312
 4735W        W 8786   1.565   6.897   0.531
 4736W        W 8787  10.333   3.687   2.492
 4737W        W 8788   8.847  10.909   3.097
 4738W        W 8789   6.376   0.653   9.513
 4739W        W 8790   9.883   0.444  11.828
 4740W        W 8791   6.020   2.671   9.951
 4741W        W 8792   3.189   0.989   3.073
 4742W        W 8793   1.618   0.674   9.962
 4743W        W 8794   4.731   5.240   1.791
 4744W        W 8795   1.818   0.467  11.748
 4745W        W 8796   1.695   3.372  11.936
 4746W        W 8797  11.394   6.161  10.949
 4747W        W 8798   0.713   9.586   1.090
 4748W        W 8799   6.102   7.898   1.745
 4749W        W 8800   1.245   8.275  10.708
 4750W        W 8801   2.695   0.380  11.733
 4751W        W 8802   5.555   6.703   0.889
 4752W        W 8803   0.265   6.184   1.027
 4753W        W 8804   1.728   9.536   9.112
 4754W        W 8805   7.767   6.569  11.892
 4755W        W 8806   9.974   7.991   9.204
 4756W        W 8807   1.908   7.217   8.919
 4757W        W 8808   7.369  11.297  10.366
 4758W        W 8809   4.870  10.835   0.013
 4759W        W 8810   1.357  10.700   2.795
 4760W        W 8811   8.481   9.923   3.122
 4761W        W 8812   8.039  11.289   3.378
 4762W        W 8813   8.032   0.231   1.310
 4763W        W 8814   4.693   2.203  10.075
 4764W        W 8815   2.261   5.703   2.217
 4765W        W 8816   4.319   1.883  10.156
 4766W        W 8817   9.462  10.102   9.460
 4767W        W 8818   1.386   1.477   0.391
 4768W        W 8819  10.476   5.574   8.961
 4769W        W 8820   5.690  11.385   2.269
 4770W        W 8821  10.282   5.311   1.296
 4771W        W 8822   3.641   8.241   2.696
 4772W        W 8823   2.600   9.134   2.424
 4773W        W 8824   5.010   6.165   1.411
 4774W        W 8825  11.453   4.743  10.021
 4775W        W 8826   2.486   7.178   3.639
 4776W        W 8827   0.713   7.565  10.225
 4777W        W 8828   8.051   0.477   8.924
 4778W        W 8829   2.034  11.373   3.433
 4779W        W 8830   1.073  10.507   1.039
 4780W        W 8831   0.185   9.353   0.491
 4781W        W 8832   9.084   3.447   1.859
 4782W        W 8833   9.673   3.698   0.129
 4783W        W 8834   5.969   1.684  11.813
 4784W        W 8835   9.945   5.234   1.688
 4785W        W 8836   6.087   6.405   1.744
 4786W        W 8837  10.426   5.818  10.986
 4787W        W 8838   6.602   4.324   1.449
 4788W        W 8839   8.215   3.720   2.805
 4789W        W 8840   0.863  11.218   3.611
 4790W        W 8841   3.877   9.837   3.556
 4791W        W 8842  11.285   1.201  10.426
 4792W        W 8843   5.348  10.687   0.095
 4793W        W 8844   6.254   1.542  11.409
 4794W        W 8845   3.240   7.194  11.889
 4795W        W 8846   5.889  11.085  10.414
 4796W        W 8847  11.104  11.227   2.205
 4797W        W 8848   6.061   7.603   0.719
 4798W        W 8849   6.530   9.845   0.847
 4799W        W 8850   1.923   3.309   2.359
 4800W        W 8851   2.901   2.261   1.713
 4801W        W 8852  10.038   9.906   1.363
 4802W        W 8853   2.026  10.473   0.082
 4803W        W 8854   6.181   8.686   9.473
 4804W        W 8855   0.822   2.742   2.684
 4805W        W 8856  10.840   2.241   9.282
 4806W        W 8857   4.286   1.079   3.679
 4807W        W 8858   2.298   3.112  11.264
 4808W        W 8859  10.748   0.094   2.243
 4809W        W 8860   2.542  11.367  11.789
 4810W        W 8861   1.016   1.354   2.806
 4811W        W 8862   1.321   1.047  10.107
 4812W        W 8863   3.103   1.184   0.025
 4813W        W 8864   8.546   3.576   0.402
 4814W        W 8865  11.481   3.867   0.487
 4815W        W 8866  10.442   5.303   9.979
 4816W        W 8867   2.230   5.161   8.605
 4817W        W 8868   2.647   5.046   3.206
 4818W        W 8869   6.543   3.959  11.812
 4819W        W 8870   8.436   9.315   2.409
 4820W        W 8871   8.199   2.344   1.458
 4821W        W 8872   0.205   9.521   0.969
 4822W        W 8873   3.218   1.600  10.908
 4823W        W 8874   1.998  11.464  10.456
 4824W        W 8875   7.098   9.304   8.468
 4825W        W 8876   7.279   4.268   2.760
 4826W        W 8877   9.978  11.437  11.040
 4827W        W 8878   8.378   0.823  11.690
 4828W        W 8879   4.663   3.745   9.045
 4829W        W 8880   6.027   9.597   3.064
 4830W        W 8881   9.066   1.725   9.805
 4831W        W 8882   5.750   6.438   3.099
 4832W        W 8883   6.932   2.198  10.492
 4833W        W 8884   5.461   4.507   8.333
 4834W        W 8885   2.751   7.090   8.594
 4835W        W 8886   4.674   4.827  10.485
 4836W        W 8887   7.924   6.210   9.763
 4837W        W 8888   3.556  11.263   2.144
 4838W        W 8889  11.280   2.022   9.483
 4839W        W 8890  10.284   0.500  10.227
 4840W        W 8891  10.402   8.346   0.480
 4841W        W 8892   4.525   2.385   0.504
 4842W        W 8893   7.019   8.910   1.751
 4843W        W 8894   5.145   2.629   8.989
 4844W        W 8895   6.976   2.747   2.261
 4845W        W 8896   2.575   0.922   0.793
 4846W        W 8897  10.554   3.478  11.269
 4847W        W 8898   9.628   4.066   0.464
 4848W        W 8899   6.096   8.163   1.304
 4849W        W 8900   3.104  11.290   0.963
 4850W        W 8901   0.274  10.027   0.907
 4851W        W 8902   5.688  10.477   1.641
 4852W        W 8903   6.933   2.918   0.979
 4853W        W 8904  10.408   4.863  10.849
 4854W        W 8905   3.512  10.841   1.296
 4855W        W 8906   8.051   2.306   2.407
 4856W        W 8907   8.350   0.196   1.985
 4857W        W 8908   2.426   5.140  10.789
 4858W        W 8909   1.912   9.679   2.044
 4859W        W 8910   2.254  10.499   9.624
 4860W        W 8911   3.056   9.361   2.655
 4861W        W 8912   6.779   2.615   2.719
 4862W        W 8913  10.661   5.502   3.109
 4863W        W 8914   6.814   8.010   1.064
 4864W        W 8915   3.900   8.764   0.445
 4865W        W 8916   8.550  10.831   9.067
 4866W        W 8917   9.953  10.939  10.886
 4867W        W 8918   0.280  11.409   8.806
 4868W        W 8919   9.384   7.508   2.575
 4869W        W 8920  11.463   6.548   1.344
 4870W        W 8921  10.480   3.193   3.213
 4871W        W 8922   4.848   1.790   2.363
 4872W        W 8923  10.350   4.656  11.854
 4873W        W 8924   7.593   2.020   3.018
 4874W        W 8925   6.118   8.435   1.736
 4875W        W 8926  10.841   0.644   2.297
 4876W        W 8927   3.894   1.402   2.798
 4877W        W 8928   1.455   6.093   0.559
 4878W        W 8929   6.176   5.050   0.014
 4879W        W 8930   7.041   5.165   1.148
 4880W        W 8931   2.221  10.274   1.492
 4881W        W 8932   8.829   1.328   2.199
 4882W        W 8933   8.571  10.380   9.923
 4883W        W 8934   0.771   0.581  11.418
 4884W        W 8935   1.473   4.089   2.363
 4885W        W 8936   4.078   6.345   8.085
 4886W        W 8937   8.881   2.067   3.119
 4887W        W 8938   2.171   2.347   2.279
 4888W        W 8939  10.585   0.281   9.819
 4889W        W 8940   0.767   9.487  10.393
 4890W        W 8941   3.586   7.441  11.268
 4891W        W 8942   7.731   5.067  11.042
 4892W        W 8943   3.115   6.723   8.455
 4893W        W 8944   0.913   7.967   0.597
 4894W        W 8945   6.017   2.554   3.599
 4895W        W 8946   3.176   7.620  10.539
 4896W        W 8947   8.363  10.867  10.034
 4897W        W 8948   9.555  10.772   8.981
 4898W        W 8949   3.500   8.885   9.529
 4899W        W 8950   7.794   3.613   1.889
 4900W        W 8951   2.956   1.149  10.930
 4901W        W 8952   2.318   7.462  11.066
 4902W        W 8953   7.953   5.505  10.316
 4903W        W 8954   5.198   8.607   1.644
 4904W        W 8955  11.462   2.089   9.953
 4905W        W 8956   6.602   1.434   0.356
 4906W        W 8957   2.606   5.769   0.243
 4907W        W 8958   0.865   3.614  11.963
 4908W        W 8959   3.663   6.293   9.006
 4909W        W 8960   0.891   9.550   9.083
 4910W        W 8961  10.142   6.568   3.835
 4911W        W 8962   4.653   7.470  11.068
 4912W        W 8963   7.127   8.055   0.224
 4913W        W 8964   9.965   5.182   9.551
 4914W        W 8965   0.329   1.658   2.288
 4915W        W 8966   2.880   1.392   2.865
 4916W        W 8967   1.529  10.447   2.310
 4917W        W 8968  11.416   7.006  11.453
 4918W        W 8969   9.513   3.436   2.160
 4919W        W 8970   8.955   0.893   9.324
 4920W        W 8971   3.686  10.336   1.169
 4921W        W 8972  10.920   2.194  11.451
 4922W        W 8973  10.440   0.094   9.352
 4923W        W 8974   9.234   6.091   2.423
 4924W        W 8975   6.878   7.500   3.170
 4925W        W 8976   6.266  11.318   1.653
 4926W        W 8977   6.381   5.875   9.622
 4927W        W 8978   7.285   2.747   1.381
 4928W        W 8979  10.219   6.499   1.911
 4929W        W 8980   0.762   5.762  11.052
 4930W        W 8981   5.449   2.825   2.407
 4931W        W 8982   7.517   0.463   0.436
 4932W        W 8983   1.138   6.021   0.948
 4933W        W 8984   3.571   8.507   3.150
 4934W        W 8985  10.201   1.150   0.043
 4935W        W 8986   2.743   1.905   0.708
 4936W        W 8987   3.186  10.466   9.582
 4937W        W 8988   3.920   6.971  11.162
 4938W        W 8989   7.433   1.958  10.510
 4939W        W 8990   4.230   2.421   8.818
 4940W        W 8991   3.401   9.868  11.931
 4941W        W 8992   8.764   3.834   1.699
 4942W        W 8993   8.024   6.501   2.766
 4943W        W 8994   1.150  10.451   0.001
 4944W        W 8995  10.451   7.478   0.162
 4945W        W 8996  10.871   1.574   2.442
 4946W        W 8997   9.933   8.942   0.489
 4947W        W 8998   9.628   4.219   8.998
 4948W        W 8999   2.615   1.350  11.254
 4949W        W 9000   4.205  11.024   1.694
 4950W        W 9001   7.001   0.828   3.107
 4951W        W 9002   8.537   8.824   1.700
 4952W        W 9003   1.720   3.125   2.802
 4953W        W 9004   0.012   2.877  10.456
 4954W        W 9005   8.880   7.823  10.621
 4955W        W 9006   5.902  10.432   1.179
 4956W        W 9007   2.756  11.332   2.634
 4957W        W 9008   2.598   2.433   1.291
 4958W        W 9009  10.334   7.400   2.384
 4959W        W 9010   9.333   4.803   2.277
 4960W        W 9011   2.919   5.059   1.207
 4961W        W 9012  10.366   1.654  10.955
 4962W        W 9013  10.887   6.153   3.220
 4963W        W 9014   1.245   4.277   9.390
 4964W        W 9015   1.353   0.380   2.044
 4965W        W 9016   7.225   7.913  11.481
 4966W        W 9017   3.824   8.149   1.883
 4967W        W 9018   1.723   8.147   2.273
 4968W        W 9019   5.889   7.251  11.760
 4969W        W 9020   0.641   3.215   3.481
 4970W        W 9021   2.157   5.838   3.290
 4971W        W 9022  10.308  11.457   2.424
 4972W        W 9023   6.452   0.947  10.424
 4973W        W 9024   6.502   6.216   2.018
 4974W        W 9025  10.135   5.112  11.934
 4975W        W 9026  11.012   4.973  10.814
 4976W        W 9027   8.739   6.404   8.309
 4977W        W 9028   1.751   4.962   0.766
 4978W        W 9029   6.477   5.725   0.466
 4979W        W 9030   6.680   4.949  11.973
 4980W        W 9031   6.227  10.416   1.624
 4981W        W 9032  11.067   0.492   9.892
 4982W        W 9033  10.144   3.816   0.255
 4983W        W 9034   5.238   6.709   2.253
 4984W        W 9035   9.333   5.963   9.494
 4985W        W 9036   0.395   9.030  11.598
 4986W        W 9037   2.313   3.745   0.322
 4987W        W 9038   4.934   9.960   9.229
 4988W        W 9039   9.092   5.512   9.566
 4989W        W 9040   1.742   6.739   9.906
 4990W        W 9041   4.770  11.481  11.571
 4991W        W 9042   7.035   5.541  11.208
 4992W        W 9043   2.502   4.137   2.275
 4993W        W 9044   6.667  11.058   3.542
 4994W        W 9045   7.898   5.915  11.449
 4995W        W 9046   6.735   7.968   0.565
 4996W        W 9047   3.519   7.929   2.277
 4997W        W 9048   8.385   6.056  11.413
 4998W        W 9049  11.413   6.425   9.785
 4999W        W 9050   2.024   2.642   9.436
 5000W        W 9051   7.390   9.696   8.559
 5001W        W 9052   5.798   6.671   1.372
 5002W        W 9053  11.239   2.117   8.982
 5003W        W 9054   8.261  10.572  11.435
 5004W        W 9055   0.178   8.061  11.288
 5005W        W 9056   9.997   5.163   3.503
 5006W        W 9057   0.944   9.048   3.740
 5007W        W 9058   2.876   6.536  11.915
 5008W        W 9059   7.295  10.441  11.340
 5009W        W 9060   3.970   0.228   3.579
 5010W        W 9061   8.046   6.841   1.212
 5011W        W 9062   8.624   4.036   2.688
 5012W        W 9063   3.610  11.226   0.892
 5013W        W 9064   0.695   7.751   2.440
 5014W        W 9065   5.386   9.444   3.687
 5015W        W 9066   0.991   9.614  10.891
 5016W        W 9067   7.388   2.602   9.946
 5017W        W 9068   4.158   6.061   1.671
 5018W        W 9069   7.548  11.065   2.685
 5019W        W 9070   8.575   7.409  10.700
 5020W        W 9071   6.555   6.138   8.219
 5021W        W 9072   2.672   6.468   0.953
 5022W        W 9073   3.276   2.627  11.989
 5023W        W 9074   6.529   8.445   9.187
 5024W        W 9075   2.604  11.127   1.076
 5025W        W 9076   6.664  10.303   2.462
 5026W        W 9077   3.073   1.184   1.068
 5027W        W 9078   8.729  10.301   9.025
 5028W        W 9079   5.443   3.124   9.261
 5029W        W 9080   5.937   5.808  10.512
 5030W        W 9081  10.031   3.711  11.760
 5031W        W 9082  10.019   5.603   9.191
 5032W        W 9083   8.521   2.584  10.113
 5033W        W 9084   5.291   2.143  11.488
 5034W        W 9085   0.557   2.323  10.384
 5035W        W 9086   1.355   9.508  11.573
 5036W        W 9087   6.681   8.382   2.272
 5037W        W 9088   8.191   9.498   3.242
 5038W        W 9089   9.891   8.647   2.819
 5039W        W 9090   2.525   6.672   3.449
 5040W        W 9091   1.387   1.446   1.797
 5041W        W 9092   9.790   9.338   2.194
 5042W        W 9093   5.309   5.120  11.608
 5043W        W 9094   6.716  11.437   1.430
 5044W        W 9095   8.876   8.254   8.158
 5045W        W 9096   2.726   7.914   9.866
 5046W        W 9097   1.737   1.587   2.532
 5047W        W 9098   5.784   9.160   0.556
 5048W        W 9099  10.928   5.549  11.880
 5049W        W 9100   1.518   4.530   9.042
 5050W        W 9101   5.587   6.149  10.674
 5051W        W 9102  11.224  10.749   9.479
 5052W        W 9103   9.349   1.836   1.068
 5053W        W 9104   5.247   1.390   8.593
 5054W        W 9105   9.629   3.798   9.514
 5055W        W 9106   2.512   2.921  10.524
 5056W        W 9107   3.746   8.454   9.238
 5057W        W 9108  11.115   1.498   0.967
 5058W        W 9109   8.618  10.820  10.481
 5059W        W 9110   5.599   7.638   8.324
 5060W        W 9111   1.399   5.699   2.751
 5061W        W 9112   7.597  10.930   1.265
 5062W        W 9113   0.474   1.474   0.286
 5063W        W 9114   4.514   1.279  11.985
 5064W        W 9115   0.260   7.512   2.503
 5065W        W 9116   2.472   5.294   0.515
 5066W        W 9117   7.801   5.500  11.709
 5067W        W 9118   7.605   8.909  10.179
 5068W        W 9119   3.064   1.825  10.058
 5069W        W 9120   3.997   0.467   1.941
 5070W        W 9121   7.490   0.672  11.611
 5071W        W 9122   4.075   4.825   0.808
 5072W        W 9123   9.582   1.378   2.904
 5073W        W 9124   6.645   7.534   9.192
 5074W        W 9125   3.260   7.806   8.918
 5075W        W 9126  11.467   0.805  10.804
 5076W        W 9127   1.429   5.086   9.008
 5077W        W 9128   7.169  10.406   3.324
 5078W        W 9129   1.331   2.303   2.891
 5079W        W 9130   8.781   3.128  11.007
 5080W        W 9131   1.777   7.637  11.867
 5081W        W 9132   4.051   2.172   2.252
 5082W        W 9133  10.113   1.716  11.403
 5083W        W 9134   3.381   8.669   2.667
 5084W        W 9135   7.815   7.444   3.246
 5085W        W 9136   4.585   4.396  11.307
 5086W        W 9137  11.291   9.255  11.276
 5087W        W 9138   8.559   7.190  10.235
 5088W        W 9139   3.444   7.052  10.970
 5089W        W 9140   1.946   0.257   9.998
 5090W        W 9141   2.922  10.059   0.530
 5091W        W 9142   0.525  11.035   9.110
 5092W        W 9143   1.777   6.446   2.448
 5093W        W 9144   3.603   8.860  10.018
 5094W        W 9145   8.545   2.833   3.140
 5095W        W 9146   6.998   0.709  11.781
 5096W        W 9147   9.346  11.169  11.703
 5097W        W 9148   9.344  11.127   9.307
 5098W        W 9149   2.654   5.569   9.269
 5099W        W 9150   1.384   7.894  10.409
 5100W        W 9151   4.344   9.087   8.583
 5101W        W 9152  11.141   9.596   3.087
 5102W        W 9153   0.794   6.606   0.292
 5103W        W 9154   3.803   8.032   0.509
 5104W        W 9155   2.461   9.621  11.134
 5105W        W 9156   8.991   6.290   1.801
 5106W        W 9157   4.354   7.111   2.591
 5107W        W 9158  10.799   8.253   3.138
 5108W        W 9159   6.634   9.400   0.561
 5109W        W 9160   1.358   0.480   0.920
 5110W        W 9161   4.546   3.015   1.932
 5111W        W 9162   8.598   3.614   8.405
 5112W        W 9163   4.473   6.000  10.647
 5113W        W 9164   4.476   1.462   3.349
 5114W        W 9165   3.512   9.145   2.766
 5115W        W 9166   0.801   5.287   3.130
 5116W        W 9167   0.354  11.049   3.620
 5117W        W 9168   0.245   9.430  10.427
 5118W        W 9169   1.780  10.924   2.608
 5119W        W 9170   1.862   3.208   3.281
 5120W        W 9171  11.466  10.805   2.325
 5121W        W 9172   0.384   5.412  11.667
 5122W        W 9173   1.724  11.398   1.957
 5123W        W 9174   3.746   7.629   1.884
 5124W        W 9175   7.990   6.938  11.527
 5125W        W 9176   4.585   4.366   1.699
 5126W        W 9177  10.999   1.007  10.013
 5127W        W 9178  10.625   2.249  11.878
 5128W        W 9179   5.473   5.221  10.216
 5129W        W 9180   7.447   8.853  10.667
 5130W        W 9181   4.038   3.092  10.512
 5131W        W 9182   0.776   4.303   9.073
 5132W        W 9183   3.234   6.667   9.367
 5133W        W 9184   4.500   3.767   2.326
 5134W        W 9185  10.855   2.139   3.542
 5135W        W 9186   6.518   9.805   2.356
 5136W        W 9187   0.976   1.579   3.348
 5137W        W 9188   0.947   1.910  11.503
 5138W        W 9189   1.380   9.919  11.261
 5139W        W 9190   2.654   3.803   9.947
 5140W        W 9191   3.389   3.201  11.982
 5141W        W 9192   1.007   7.922   2.871
 5142W        W 9193   8.170   4.625   3.145
 5143W        W 9194   6.014   2.801   8.569
 5144W        W 9195  10.411   6.966   3.166
 5145W        W 9196   6.198   1.793   0.268
 5146W        W 9197  11.461   9.218   1.783
 5147W        W 9198   0.442   9.562   2.467
 5148W        W 9199   5.001   4.303   3.592
 5149W        W 9200   1.573   1.910   1.695
 5150W        W 9201   2.197   0.786   1.161
 5151W        W 9202   5.233   1.256   1.622
 5152W        W 9203   3.030   5.369   3.366
 5153W        W 9204   6.040   7.426  10.781
 5154W        W 9205  10.847   2.781  10.058
 5155W        W 9206   6.172   2.143  11.869
 5156W        W 9207   4.602   4.846  11.961
 5157W        W 9208  10.650   1.363   3.230
 5158W        W 9209   0.896   8.431   1.249
 5159W        W 9210   5.706   0.948   9.404
 5160W        W 9211   6.885   4.062   1.835
 5161W        W 9212   3.571   5.205   8.335
 5162W        W 9213   8.842  11.401   1.157
 5163W        W 9214   3.713   7.442  11.751
 5164W        W 9215   9.057   2.292  10.998
 5165W        W 9216   9.994   9.860   9.313
 5166W        W 9217   4.214   5.172   1.587
 5167W        W 9218   2.490  10.422   2.583
 5168W        W 9219   1.295   4.728   0.694
 5169W        W 9220   1.246   8.133   1.041
 5170W        W 9221   1.890   4.070  10.123
 5171W        W 9222   2.696   4.641   2.443
 5172W        W 9223   7.903   8.810  11.575
 5173W        W 9224   8.557   5.755   2.592
 5174W        W 9225  10.259   7.023   0.939
 5175W        W 9226   0.929   4.181   3.525
 5176W        W 9227   0.929   5.514   2.527
 5177W        W 9228   8.760   6.103   1.015
 5178W        W 9229   1.720   4.167   2.840
 5179W        W 9230   2.070   9.581   3.074
 5180W        W 9231   5.135   7.009   0.223
 5181W        W 9232  10.729   2.673   1.661
 5182W        W 9233   9.508   5.750   9.004
 5183W        W 9234  10.884  10.428   8.739
 5184W        W 9235   3.606   4.201   1.464
 5185W        W 9236   0.409   5.483  10.792
 5186W        W 9237   6.085   7.631   1.233
 5187W        W 9238   9.653   1.229   3.377
 5188W        W 9239   3.382   4.293   9.965
 5189W        W 9240  10.794   0.909   3.371
 5190W        W 9241   8.105   1.923   9.130
 5191W        W 9242   6.068   0.822   3.533
 5192W        W 9243   0.715  10.867  10.339
 5193W        W 9244   6.957   9.614   8.860
 5194W        W 9245  11.119   2.491   2.628
 5195W        W 9246   9.197   5.360   9.093
 5196W        W 9247   0.966   4.144  10.750
 5197W        W 9248   9.519  10.355   2.340
 5198W        W 9249   3.852   6.460  11.298
 5199W        W 9250   1.834   7.542  10.940
 5200W        W 9251   3.708   6.115   2.002
 5201W        W 9252   2.667   1.778   9.295
 5202W        W 9253   8.933   4.135  10.160
 5203W        W 9254   4.941   3.061   9.175
 5204W        W 9255   6.402   6.220   0.483
 5205W        W 9256   8.638   1.896   9.056
 5206W        W 9257   9.398  10.830   2.206
 5207W        W 9258   9.118   5.204   0.023
 5208W        W 9259   4.643   9.490   0.267
 5209W        W 9260   3.389   7.042   2.300
 5210W        W 9261   2.012   6.343   9.716
 5211W        W 9262   6.785  11.129   0.918
 5212W        W 9263   3.994   1.000   9.938
 5213W        W 9264   6.135   0.547   8.810
 5214W        W 9265   9.126   6.610  11.680
 5215W        W 9266   9.547   1.463   1.981
 5216W        W 9267   9.011   8.497   8.591
 5217W        W 9268   6.554   6.790   3.433
 5218W        W 9269  10.408   5.210   0.406
 5219W        W 9270   0.807   7.121  10.520
 5220W        W 9271   2.223   5.590  10.587
 5221W        W 9272   1.514   4.964   9.858
 5222W        W 9273   0.282   2.133  11.478
 5223W        W 9274   9.295  11.317   2.721
 5224W        W 9275   7.979   1.190   0.164
 5225W        W 9276   3.372   7.075   1.268
 5226W        W 9277   3.545   8.458   1.133
 5227W        W 9278   8.939   7.308  11.546
 5228W        W 9279   2.466   4.229   0.094
 5229W        W 9280   0.861   0.314   1.317
 5230W        W 9281   5.301   1.125   9.059
 5231W        W 9282   7.951   9.350  10.890
 5232W        W 9283   1.249   8.658  11.080
 5233W        W 9284   2.646   0.099   2.197
 5234W        W 9285   3.206  10.851   0.122
 5235W        W 9286   0.638   5.482   0.437
 5236W        W 9287   1.112   1.832   9.525
 5237W        W 9288   2.092   2.906  10.826
 5238W        W 9289   8.475   4.927   2.317
 5239W        W 9290   6.641   0.425  11.202
 5240W        W 9291   9.368   9.848  11.953
 5241W        W 9292   9.696   8.554   1.144
 5242W        W 9293  11.143   8.197  10.672
 5243W        W 9294  11.044   3.974  10.964
 5244W        W 9295   9.317   2.181  11.510
 5245W        W 9296   3.201   4.790   2.513
 5246W        W 9297  11.222   0.478   0.085
 5247W        W 9298   1.516   2.700   9.453
 5248W        W 9299   9.815   2.129  11.491
 5249W        W 9300   7.600   4.124  10.169
 5250W        W 9301   0.655   7.606   3.039
 5251W        W 9302   0.973   2.821  11.342
 5252W        W 9303   6.102   2.041  10.842
 5253W        W 9304   7.243   1.505  11.336
 5254W        W 9305   1.797   8.190   3.106
 5255W        W 9306   3.932   2.799   1.154
 5256W        W 9307   8.541  10.030  11.803
 5257W        W 9308  10.405   1.281   1.797
 5258W        W 9309   1.727   0.009   0.942
 5259W        W 9310   9.264   7.609   1.558
 5260W        W 9311   9.531   8.941   9.875
 5261W        W 9312   9.118   5.411   1.881
 5262W        W 9313   3.726   3.077   9.597
 5263W        W 9314   1.707   0.752   3.065
 5264W        W 9315   7.085   6.321  10.155
 5265W        W 9316   5.118   0.742  10.753
 5266W        W 9317   2.838   2.802   1.526
 5267W        W 9318   1.326   8.916   9.538
 5268W        W 9319   4.403   9.970  11.676
 5269W        W 9320   9.364   3.841   9.955
 5270W        W 9321   2.781   0.076   1.220
 5271W        W 9322  10.788   5.400  11.011
 5272W        W 9323   1.335   7.561   0.372
 5273W        W 9324   0.044   4.792  11.013
 5274W        W 9325  11.049   3.534  11.783
 5275W        W 9326   1.219   4.686   2.319
 5276W        W 9327   4.954  10.380   9.547
 5277W        W 9328   4.282   7.068   3.174
 5278W        W 9329   3.420   6.671   0.733
 5279W        W 9330   5.727   8.528  11.339
 5280W        W 9331   9.634   5.121  11.953
 5281W        W 9332   3.405   0.235  10.957
 5282W        W 9333   6.465   3.574   2.374
 5283W        W 9334   9.117   2.440  11.909
 5284W        W 9335   2.727  10.275   9.634
 5285W        W 9336   4.848  10.108  11.441
 5286W        W 9337   8.910   2.934   1.814
 5287W        W 9338   2.873   9.434  10.872
 5288W        W 9339  11.182   1.246   3.397
 5289W        W 9340   3.435   8.831  11.081
 5290W        W 9341   0.382   4.472  10.716
 5291W        W 9342   6.187   8.668   1.202
 5292W        W 9343   2.281   5.653  10.097
 5293W        W 9344   0.480   1.791   1.393
 5294W        W 9345   0.799   6.560   9.545
 5295W        W 9346   0.912   1.292   2.308
 5296W        W 9347  10.781   4.170  11.821
 5297W        W 9348   1.210   9.753  10.333
 5298W        W 9349   4.343   6.544  11.339
 5299W        W 9350   9.165   7.112   2.345
 5300W        W 9351   1.219   6.253   9.476
 5301W        W 9352   3.363  11.285  10.162
 5302W        W 9353   5.131   0.305  11.007
 5303W        W 9354  11.425   1.696   3.183
 5304W        W 9355   1.423   3.115   2.394
 5305W        W 9356  10.838   7.411   0.501
 5306W        W 9357  10.753   6.573   0.411
 5307W        W 9358   5.160   9.932   1.703
 5308W        W 9359   9.477   4.881  11.068
 5309W        W 9360   7.007   0.995   0.809
 5310W        W 9361   2.072   1.520  11.102
 5311W        W 9362   6.186   0.889   1.912
 5312W        W 9363   7.953   1.384  10.911
 5313W        W 9364   1.606   4.172  10.554
 5314W        W 9365  10.825   8.623   2.727
 5315W        W 9366   5.292   0.677   0.293
 5316W        W 9367   3.596   9.613   1.603
 5317W        W 9368   3.355   6.674  11.862
 5318W        W 9369   8.392   1.676  10.832
 5319W        W 9370   1.494   4.513  11.308
 5320W        W 9371  10.401   1.555  11.825
 5321W        W 9372   5.243   0.351   9.997
 5322W        W 9373   9.886   2.670   9.823
 5323W        W 9374   6.641   4.060   1.003
 5324W        W 9375   1.367   6.067  10.360
 5325W        W 9376   7.675   2.160  10.091
 5326W        W 9377  10.608  11.071   2.263
 5327W        W 9378   9.753   5.267  10.835
 5328W        W 9379   0.016   5.568   2.777
 5329W        W 9380   5.828   6.079   2.697
 5330W        W 9381   6.810   9.770   3.659
 5331W        W 9382   3.912   4.210   2.298
 5332W        W 9383   9.768   0.003   2.710
 5333W        W 9384   4.687   7.347   1.981
 5334W        W 9385   3.879   0.578   0.436
 5335W        W 9386   8.693   7.394  11.988
 5336W        W 9387   5.123   3.493   0.015
 5337W        W 9388   1.417   7.542   9.483
 5338W        W 9389  11.378   5.574  10.238
 5339W        W 9390   2.378   3.002   9.403
 5340W        W 9391   8.988   1.452   0.214
 5341W        W 9392   8.028   7.443  11.586
 5342W        W 9393   8.095   8.774   2.995
 5343W        W 9394   7.684   1.523  10.497
 5344W        W 9395   5.698   2.367  11.280
 5345W        W 9396   7.984   1.896  11.069
 5346W        W 9397   1.404   0.048   0.496
 5347W        W 9398   6.644   4.994  10.565
 5348W        W 9399   1.010   1.970  10.348
 5349W        W 9400   1.727   3.626   3.061
 5350W        W 9401   0.056   8.999   0.814
 5351W        W 9402  10.138   4.225  11.005
 5352W        W 9403   3.002   7.875   8.028
 5353W        W 9404   2.036   5.097   0.347
 5354W        W 9405  10.402   1.469   2.277
 5355W        W 9406   1.359   0.305   2.557
 5356W        W 9407  11.243   5.374   8.629
 5357W        W 9408   2.698   0.886  11.898
 5358W        W 9409   2.745   0.604   2.411
 5359W        W 9410   4.699   7.929  10.830
 5360W        W 9411   0.465   4.526  11.218
 5361W        W 9412   0.966   5.782   3.007
 5362W        W 9413   9.042  10.862   1.823
 5363W        W 9414   3.760  11.464   2.783
 5364W        W 9415   6.434   1.512  11.886
 5365W        W 9416   6.629  10.441   8.935
 5366W        W 9417   4.302   4.684   9.149
 5367W        W 9418   7.189   3.361  10.561
 5368W        W 9419   9.410  10.233   0.870
 5369W        W 9420   9.050  10.768   9.067
 5370W        W 9421   1.905  11.256   9.391
 5371W        W 9422  10.244   9.625  11.975
 5372W        W 9423   0.386   4.612   0.684
 5373W        W 9424   6.066   4.557   2.671
 5374W        W 9425   8.016  10.032   9.568
 5375W        W 9426  11.412   0.113  10.103
 5376W        W 9427   4.417   2.771  10.636
 5377W        W 9428   2.825  10.789   9.428
 5378W        W 9429   5.514   4.601   9.629
 5379W        W 9430  10.341   2.871   9.995
 5380W        W 9431   5.083   0.343  11.956
 5381W        W 9432   7.502   4.011   1.071
 5382W        W 9433   6.803   7.115  10.398
 5383W        W 9434   4.609   4.640   2.525
 5384W        W 9435   7.124   5.292  10.353
 5385W        W 9436   6.231   3.857  11.439
 5386W        W 9437   2.927   6.611  11.413
 5387W        W 9438   9.940   9.602   1.754
 5388W        W 9439   9.045   8.945   8.872
 5389W        W 9440   8.964  11.476  11.971
 5390W        W 9441   7.518   9.696   0.499
 5391W        W 9442   2.664   1.421   0.834
 5392W        W 9443   1.203   8.385   0.249
 5393W        W 9444   8.098   2.382  11.018
 5394W        W 9445   1.141   9.150  11.035
 5395W        W 9446   5.708   1.463   1.423
 5396W        W 9447   6.229   3.819   3.299
 5397W        W 9448   4.144   8.241  10.736
 5398W        W 9449   8.089   6.776   9.582
 5399W        W 9450   3.863   8.669   1.835
 5400W        W 9451   9.012  11.430   3.132
 5401W        W 9452   4.162   8.851   1.228
 5402W        W 9453   6.110   1.903  10.365
 5403W        W 9454   8.684   9.534   3.371
 5404W        W 9455   3.638   7.509   9.730
 5405W        W 9456   3.581   0.963   2.683
 5406W        W 9457   1.220  10.837  10.305
 5407W        W 9458   8.872  10.384   1.124
 5408W        W 9459  11.323   4.684   2.152
 5409W        W 9460   5.231   2.742   8.491
 5410W        W 9461   4.267   5.210   1.079
 5411W        W 9462   1.719   6.456   3.030
 5412W        W 9463   0.242  11.425   9.320
 5413W        W 9464   3.241   1.270  10.516
 5414W        W 9465  10.006   8.614   0.081
 5415W        W 9466   3.417  11.002   8.401
 5416W        W 9467   5.419   9.506   1.462
 5417W        W 9468   5.510   8.968  10.372
 5418W        W 9469   6.088   4.529   9.780
 5419W        W 9470   2.935   8.125  11.456
 5420W        W 9471   8.471  11.245   8.757
 5421W        W 9472   0.834   2.357  10.818
 5422W        W 9473   9.478   4.528   0.436
 5423W        W 9474   2.438   3.228   2.290
 5424W        W 9475  10.119   2.327   2.298
 5425W        W 9476   7.329   6.177   8.826
 5426W        W 9477  10.698   0.303   2.724
 5427W        W 9478   7.566   0.465   1.442
 5428W        W 9479   7.593   9.948   9.293
 5429W        W 9480   3.618   2.694   2.817
 5430W        W 9481  10.394   6.085   9.005
 5431W        W 9482   0.356   3.714   9.380
 5432W        W 9483   8.730   6.347  10.026
 5433W        W 9484  10.966   4.574  10.000
 5434W        W 9485   5.018   4.776   0.653
 5435W        W 9486   3.870   9.901   3.040
 5436W        W 9487   9.017   3.795   2.885
 5437W        W 9488   2.139   0.879   2.598
 5438W        W 9489   7.028   5.482   1.550
 5439W        W 9490   0.037   6.132   0.546
 5440W        W 9491   4.676   9.833   3.112
 5441W        W 9492  10.696   3.096  11.558
 5442W        W 9493   9.897   2.232   9.547
 5443W        W 9494   3.160   4.249   8.895
 5444W        W 9495  10.044   0.365  11.351
 5445W        W 9496   8.073   2.636   3.345
 5446W        W 9497   3.950   5.257  11.088
 5447W        W 9498   1.186   4.255  10.296
 5448W        W 9499   0.468   1.216   2.064
 5449W        W 9500   4.328   0.249  11.530
 5450W        W 9501   3.362   0.335  10.427
 5451W        W 9502   5.857   0.556   1.747
 5452W        W 9503   5.279   7.892   2.207
 5453W        W 9504   4.639   8.540  11.944
 5454W        W 9505   8.435   7.185   1.151
 5455W        W 9506   9.478   6.543   2.587
 5456W        W 9507   8.301   3.823   9.148
 5457W        W 9508   3.304   7.892  11.197
 5458W        W 9509   8.253   3.200   8.511
 5459W        W 9510   7.457   6.098   2.134
 5460W        W 9511  10.999   5.681   9.040
 5461W        W 9512   5.986   9.169   9.505
 5462W        W 9513   5.738  11.010  11.963
 5463W        W 9514   8.967  10.001   9.589
 5464W        W 9515   5.258   1.620   9.767
 5465W        W 9516   8.988   6.433   1.314
 5466W        W 9517   4.774   9.926   0.038
 5467W        W 9518   7.715   7.576  11.971
 5468W        W 9519   0.703   2.229   1.202
 5469W        W 9520  11.010   4.306   9.420
 5470W        W 9521  10.760  11.008   8.594
 5471W        W 9522   1.288   5.238   0.748
 5472W        W 9523   6.998   9.846   1.725
 5473W        W 9524   8.094   5.426  11.296
 5474W        W 9525   1.182   5.248  10.101
 5475W        W 9526   2.729   3.272   0.738
 5476W        W 9527   7.470  10.547   1.680
 5477W        W 9528  10.024  10.433  10.822
 5478W        W 9529   6.285   6.664   2.178
 5479W        W 9530  10.262   9.202   2.312
 5480W        W 9531   2.405   2.293   1.803
 5481W        W 9532   8.850   7.635   0.789
 5482W        W 9533  10.960   4.739   1.175
 5483W        W 9534   9.814  10.979  11.790
 5484W        W 9535  11.129   2.262  11.961
 5485W        W 9536   3.900   1.588  11.486
 5486W        W 9537   0.015   4.342   8.619
 5487W        W 9538   7.583   7.079  11.813
 5488W        W 9539   5.940   2.754   1.879
 5489W        W 9540   1.819  10.922   2.118
 5490W        W 9541   6.099  10.520   3.654
 5491W        W 9542   8.715   8.966  11.552
 5492W        W 9543  10.527   4.084   3.640
 5493W        W 9544   4.609   0.451  10.456
 5494W        W 9545   5.228   0.808   2.457
 5495W        W 9546   7.356   7.651   3.211
 5496W        W 9547   9.678   2.643   2.801
 5497W        W 9548   1.807   0.430   8.515
 5498W        W 9549   8.054   6.835  10.380
 5499W        W 9550   9.318   1.101   8.550
 5500W        W 9551   6.904   2.482  11.533
 5501W        W 9552   8.637   0.760  10.669
 5502W        W 9553   0.715   7.633   8.905
 5503W        W 9554   2.208   3.655  11.806
 5504W        W 9555   9.440  10.832  10.824
 5505W        W 9556   8.882   4.344   1.715
 5506W        W 9557   4.843   7.177   8.952
 5507W        W 9558   5.351   8.282   2.592
 5508W        W 9559   0.490   3.186   9.266
 5509W        W 9560  10.528   6.133   0.358
 5510W        W 9561  10.922   6.662   9.046
 5511W        W 9562   0.964   6.149   0.443
 5512W        W 9563   5.862   1.378   0.236
 5513W        W 9564   1.332   8.944   1.492
 5514W        W 9565   7.749   2.478   1.254
 5515W        W 9566   2.712   3.020   8.820
 5516W        W 9567   9.477   9.157   0.361
 5517W        W 9568   3.682   0.859  11.828
 5518W        W 9569  10.084   5.144   0.847
 5519W        W 9570  11.065   7.366   2.024
 5520W        W 9571   1.609   8.060   8.796
 5521W        W 9572   1.575   2.894  11.940
 5522W        W 9573   4.158   1.267   9.507
 5523W        W 9574   6.063   3.264  11.598
 5524W        W 9575   6.185   6.747   9.388
 5525W        W 9576  11.354   8.887   0.308
 5526W        W 9577   4.094   9.272   0.873
 5527W        W 9578   8.050   5.231   2.346
 5528W        W 9579   6.880   1.669  11.699
 5529W        W 9580   5.289   7.158  10.424
 5530W        W 9581   9.170   8.080   3.263
 5531W        W 9582   7.225   3.796  11.328
 5532W        W 9583   7.121   8.956   1.241
 5533W        W 9584   0.350   5.039   9.813
 5534W        W 9585   9.599   8.880   1.936
 5535W        W 9586   8.436   0.294  10.870
 5536W        W 9587   3.675   4.582   1.083
 5537W        W 9588   6.143   0.307   9.835
 5538W        W 9589   1.526   5.650   0.943
 5539W        W 9590   4.441   0.841   9.615
 5540W        W 9591   3.709   3.607   0.250
 5541W        W 9592   8.784  10.319   0.620
 5542W        W 9593   0.625   4.896   8.404
 5543W        W 9594   2.648   6.437   1.868
 5544W        W 9595   0.741   6.579   8.577
 5545W        W 9596   3.148  11.479   1.919
 5546W        W 9597   9.448   9.737   0.727
 5547W        W 9598   4.499   4.343   1.212
 5548W        W 9599   8.220   3.204   2.644
 5549W        W 9600   7.831   9.078   2.063
 5550W        W 9601   8.584   8.693   0.412
 5551W        W 9602   0.819   8.349  11.824
 5552W        W 9603   9.588   5.540  10.388
 5553W        W 9604   1.282   8.284   3.177
 5554W        W 9605   5.552  10.816  10.102
 5555W        W 9606   5.063   7.623  10.584
 5556W        W 9607   2.018   2.503   8.538
 5557W        W 9608   7.713   8.605   1.383
 5558W        W 9609   5.101  10.428   2.814
 5559W        W 9610  11.004   6.639   0.837
 5560W        W 9611   2.326   2.286  11.982
 5561W        W 9612   9.969   7.637   2.774
 5562W        W 9613   3.681   1.703   8.860
 5563W        W 9614  10.361   7.121  11.064
 5564W        W 9615   2.309   0.961   1.688
 5565W        W 9616   2.597  11.068  11.355
 5566W        W 9617   5.563   0.876  10.987
 5567W        W 9618   4.415   9.835   9.332
 5568W        W 9619   6.443   6.586   0.150
 5569W        W 9620  10.827   3.058   2.003
 5570W        W 9621  10.442   1.115   9.344
 5571W        W 9622   5.968   5.777   9.239
 5572W        W 9623   2.176   2.356   2.801
 5573W        W 9624   8.087   7.844   2.524
 5574W        W 9625   7.501  10.981  11.993
 5575W        W 9626  11.375   8.547   2.788
 5576W        W 9627   4.924   3.988  11.202
 5577W        W 9628   5.597   1.942   1.505
 5578W        W 9629   0.289   2.600   2.769
 5579W        W 9630   7.660  11.351   9.936
 5580W        W 9631   7.742   8.925  11.092
 5581W        W 9632   5.960   3.980   2.363
 5582W        W 9633   5.217   7.445   0.485
 5583W        W 9634   8.181   1.927   1.743
 5584W        W 9635   8.660   8.097   8.607
 5585W        W 9636   5.045   9.355   0.020
 5586W        W 9637   7.018   4.077   3.444
 5587W        W 9638   6.484   7.327   1.450
 5588W        W 9639   6.237   0.443   3.242
 5589W        W 9640   0.377   3.587   0.172
 5590W        W 9641   7.776   7.128  10.707
 5591W        W 9642   0.077   9.782   0.262
 5592W        W 9643   9.059   2.779   0.315
 5593W        W 9644   8.155   1.642   0.379
 5594W        W 9645   2.186   3.900   9.721
 5595W        W 9646   9.582   9.518   8.584
 5596W        W 9647   3.366   8.318   8.420
 5597W        W 9648   5.456   4.392   9.152
 5598W        W 9649   0.782  10.583  11.148
 5599W        W 9650   8.939   8.601  10.225
 5600W        W 9651   5.633   7.594   1.436
 5601W        W 9652   4.284   4.063  10.741
 5602W        W 9653   4.808   1.729   9.982
 5603W        W 9654   8.558   6.707  10.363
 5604W        W 9655   4.046   9.107  10.167
 5605W        W 9656   3.805   5.283   0.765
 5606W        W 9657   8.826  10.088   3.462
 5607W        W 9658   3.696   5.890  11.646
 5608W        W 9659  10.972   3.125   3.455
 5609W        W 9660   4.760   2.587   2.754
 5610W        W 9661   4.080   0.872   2.668
 5611W        W 9662  10.314  10.497   1.056
 5612W        W 9663   3.843   4.886  11.818
 5613W        W 9664   8.608   4.456  10.857
 5614W        W 9665  10.872   0.380   1.857
 5615W        W 9666   3.702   9.448  11.762
 5616W        W 9667  10.252  10.699   9.578
 5617W        W 9668   7.857   5.125   8.687
 5618W        W 9669   9.546   1.177  10.805
 5619W        W 9670   0.355  11.386  11.107
 5620W        W 9671   9.558   0.255   1.393
 5621W        W 9672  11.396   8.118   9.321
 5622W        W 9673   6.020   8.961  10.435
 5623W        W 9674   0.420   0.865   1.118
 5624W        W 9675   6.896   1.647   9.806
 5625W        W 9676   1.311   4.081  11.514
 5626W        W 9677   9.818   7.502   0.800
 5627W        W 9678   7.887   2.706  10.007
 5628W        W 9679   2.686   8.297  10.635
 5629W        W 9680   9.380   6.595   8.273
 5630W        W 9681  11.306   0.012   2.721
 5631W        W 9682   3.724  11.283   3.299
 5632W        W 9683   3.014   7.854   2.206
 5633W        W 9684   3.705   2.979   2.384
 5634W        W 9685   3.625   6.225   3.518
 5635W        W 9686  11.462   9.866   1.286
 5636W        W 9687   7.711   5.173   0.485
 5637W        W 9688   3.144   2.440   1.308
 5638W        W 9689   0.786   7.942   9.763
 5639W        W 9690   0.518   5.798   1.881
 5640W        W 9691   9.553   3.167   1.335
 5641W        W 9692   5.943   8.276   0.250
 5642W        W 9693   2.256   9.002   2.006
 5643W        W 9694   4.577  10.306   9.073
 5644W        W 9695   7.853  11.461   2.937
 5645W        W 9696   9.427   8.157   0.364
 5646W        W 9697   4.193   6.118  11.072
 5647W        W 9698   1.332   6.986  10.572
 5648W        W 9699   8.448   6.238  10.537
 5649W        W 9700   9.335   4.975  11.576
 5650W        W 9701   0.929   3.743   0.952
 5651W        W 9702   8.027   9.056   3.430
 5652W        W 9703   0.452   9.276   9.019
 5653W        W 9704   8.670   1.219   3.078
 5654W        W 9705   8.539   4.743   9.031
 5655W        W 9706   6.462   6.212  10.971
 5656W        W 9707   2.927   4.709  11.425
 5657W        W 9708   2.283   0.547   9.507
 5658W        W 9709   6.562  11.221   2.504
 5659W        W 9710   5.622   5.153   1.772
 5660W        W 9711   6.025   6.212   8.206
 5661W        W 9712   9.827  10.615   2.002
 5662W        W 9713   3.224   3.779   9.153
 5663W        W 9714   1.142   3.278   1.086
 5664W        W 9715   9.089  11.264   9.994
 5665W        W 9716   9.597   2.882  10.512
 5666W        W 9717   5.075   3.246   0.496
 5667W        W 9718   3.398   9.288   2.274
 5668W        W 9719   5.070   7.779   0.116
 5669W        W 9720   3.092   4.146  10.815
 5670W        W 9721   3.648   1.263   0.689
 5671W        W 9722   6.607   4.134   3.137
 5672W        W 9723   7.544   0.328  10.191
 5673W        W 9724   3.600  10.552  11.842
 5674W        W 9725   9.055   2.731   1.254
 5675W        W 9726   3.845  10.851   2.064
 5676W        W 9727   6.133   9.939   1.408
 5677W        W 9728   5.225   7.935   0.852
 5678W        W 9729   7.848   1.461   9.203
 5679W        W 9730   3.392   7.680   0.069
 5680W        W 9731   7.699   1.144  11.722
 5681W        W 9732   9.911  10.734   0.273
 5682W        W 9733   7.278   7.997   9.421
 5683W        W 9734   7.607   9.747  10.782
 5684W        W 9735   3.331   5.250   1.968
 5685W        W 9736   8.421   4.709  10.439
 5686W        W 9737   3.135   0.592   2.753
 5687W        W 9738  10.613   2.405   2.571
 5688W        W 9739  10.089   0.877   9.674
 5689W        W 9740  10.263   9.317   9.528
 5690W        W 9741   9.455   2.724   3.303
 5691W        W 9742   7.387   9.076  11.442
 5692W        W 9743   8.052   3.368   9.172
 5693W        W 9744   5.837   5.545   1.451
 5694W        W 9745   2.115   5.320   3.430
 5695W        W 9746   0.717   5.703   3.437
 5696W        W 9747   4.076   1.431  11.027
 5697W        W 9748   2.662   4.153   1.774
 5698W        W 9749   5.580   8.285   3.184
 5699W        W 9750   6.586  10.032   8.163
 5700W        W 9751   3.366   1.931   1.302
 5701W        W 9752   0.995  10.984   0.882
 5702W        W 9753   6.682   6.722   2.925
 5703W        W 9754   3.869   4.371   0.639
 5704W        W 9755   2.314   0.041   9.552
 5705W        W 9756   0.089  11.373   3.233
 5706W        W 9757   9.153   6.634   9.990
 5707W        W 9758   7.914   4.149   2.185
 5708W        W 9759   9.107   4.261   3.123
 5709W        W 9760   3.226   9.861   1.852
 5710W        W 9761   2.671   6.596   2.407
 5711W        W 9762  10.413   7.059  10.498
 5712W        W 9763   6.751   2.085   2.812
 5713W        W 9764   2.697   9.040  11.487
 5714W        W 9765   4.451   6.777   8.635
 5715W        W 9766   2.108   8.623  11.735
 5716W        W 9767   7.700   3.767  11.526
 5717W        W 9768  10.413   7.624  11.242
 5718W        W 9769   4.365   0.764   1.690
 5719W        W 9770   3.901   4.404  10.565
 5720W        W 9771  10.251  10.411   1.562
 5721W        W 9772   0.100   0.962   1.838
 5722W        W 9773   2.166   7.462   0.999
 5723W        W 9774   1.142   0.234  10.688
 5724W        W 9775  11.319   1.229   1.394
 5725W        W 9776   3.492   9.648   2.810
 5726W        W 9777   3.573   2.296   2.488
 5727W        W 9778   7.649   0.195   9.165
 5728W        W 9779   1.920   1.360   3.357
 5729W        W 9780   3.201   5.701  10.984
 5730W        W 9781   6.952   4.619   0.292
 5731W        W 9782  11.074  11.462   3.163
 5732W        W 9783   4.300   8.640  11.522
 5733W        W 9784   1.225   0.626  10.371
 5734W        W 9785  10.025   1.885  11.894
 5735W        W 9786   5.634   3.249   9.831
 5736W        W 9787   2.498   8.543   8.316
 5737W        W 9788   1.290   1.069  10.622
 5738W        W 9789  10.974   3.302   2.845
 5739W        W 9790   3.950   8.364   1.393
 5740W        W 9791   8.680   7.896  11.906
 5741W        W 9792   9.385   1.845   2.829
 5742W        W 9793   9.433   4.934   0.976
 5743W        W 9794   1.918   3.641   8.881
 5744W        W 9795  11.399   8.858   1.426
 5745W        W 9796   4.212   9.977   0.865
 5746W        W 9797   2.752   1.654   0.220
 5747W        W 9798   7.220   3.843  10.308
 5748W        W 9799   7.727   7.995  11.633
 5749W        W 9800   3.150   3.687   1.838
 5750W        W 9801   5.205   9.041   9.073
 5751W        W 9802  10.648   7.691  11.697
 5752W        W 9803   2.737  10.261   8.746
 5753W        W 9804   0.049   7.492  11.337
 5754W        W 9805   0.251   1.165  11.263
 5755W        W 9806  10.789  11.173   3.457
 5756W        W 9807   5.754   1.472   8.542
 5757W        W 9808   3.288   1.361   9.293
 5758W        W 9809   6.046   6.541   2.644
 5759W        W 9810  10.942   6.254   0.057
 5760W        W 9811   3.862   3.876  10.922
 5761W        W 9812  11.358   7.172   9.395
 5762W        W 9813   0.184   1.412  10.224
 5763W        W 9814   0.771   0.812   2.141
 5764W        W 9815   1.049   6.079  11.344
 5765W        W 9816   3.173   4.954   0.394
 5766W        W 9817   0.685   8.410   0.325
 5767W        W 9818   6.705  11.361   0.367
 5768W        W 9819   8.986   0.939   0.956
 5769W        W 9820  11.285   1.115   9.532
 5770W        W 9821   0.880   4.201   2.228
 5771W        W 9822   8.106   9.239   2.805
 5772W        W 9823   9.470   2.136   1.477
 5773W        W 9824   1.258   7.563  11.869
 5774W        W 9825   2.220   6.134   1.950
 5775W        W 9826   9.521   9.322   1.724
 5776W        W 9827  10.566   6.253  10.760
 5777W        W 9828   9.371   7.017   3.290
 5778W        W 9829   8.586   6.141   1.476
 5779W        W 9830   7.088   6.216   8.356
 5780W        W 9831   0.913   5.316  10.868
 5781W        W 9832   8.841   9.591   2.229
 5782W        W 9833  11.328   7.429   0.304
 5783W        W 9834   8.736   0.254   2.737
 5784W        W 9835   6.721   3.170  10.273
 5785W        W 9836   6.021   9.991   3.419
 5786W        W 9837   5.957   4.589   0.228
 5787W        W 9838   5.715   7.384   3.570
 5788W        W 9839   6.346   8.087  11.849
 5789W        W 9840  11.387   5.778   2.335
 5790W        W 9841  10.803  10.883   0.385
 5791W        W 9842   7.014   3.706  11.804
 5792W        W 9843   6.835   2.270   2.087
 5793W        W 9844   8.162  10.446   0.506
 5794W        W 9845   2.778   1.276   1.743
 5795W        W 9846   8.521   6.615   1.179
 5796W        W 9847   7.990  10.559   2.571
 5797W        W 9848   5.611  10.970   1.615
 5798W        W 9849  11.439   4.595   9.524
 5799W        W 9850   2.883   0.406   9.110
 5800W        W 9851  10.748   4.093  10.553
 5801W        W 9852   3.100   7.114  11.395
 5802W        W 9853   4.643  10.303   2.649
 5803W        W 9854   1.310  10.071   0.934
 5804W        W 9855   5.485   3.651   8.568
 5805W        W 9856   2.318   7.195   0.048
 5806W        W 9857   6.132   9.797  11.857
 5807W        W 9858   4.053   7.546  10.026
 5808W        W 9859   5.231   8.729   4.075
 5809W        W 9860   7.416   0.970   2.857
 5810W        W 9861   0.261   1.359   1.170
 5811W        W 9862   7.142   9.608   9.839
 5812W        W 9863  10.528   2.771  10.470
 5813W        W 9864  11.347   0.737   2.214
 5814W        W 9865   1.223  10.948   3.252
 5815W        W 9866   2.488  10.843   0.685
 5816W        W 9867   0.924   9.598   8.577
 5817W        W 9868   6.754   2.276   8.969
 5818W        W 9869   2.631   0.769  10.797
 5819W        W 9870   4.571   6.202   0.287
 5820W        W 9871   3.432   0.910   0.320
 5821W        W 9872   0.554   9.494  11.786
 5822W        W 9873   5.903   2.268   1.724
 5823W        W 9874   2.784   3.353   9.770
 5824W        W 9875   2.856  10.081  11.458
 5825W        W 9876   5.138   3.266   9.628
 5826W        W 9877   0.346   4.013   8.930
 5827W        W 9878   8.208   3.707  11.542
 5828W        W 9879   6.600   0.137   0.933
 5829W        W 9880   1.766   1.370   0.743
 5830W        W 9881  11.458  10.753   3.776
 5831W        W 9882   0.122   3.836  10.276
 5832W        W 9883  10.257   4.608   3.242
 5833W        W 9884  10.423   7.999   8.959
 5834W        W 9885   5.317   8.020  10.241
 5835W        W 9886   6.973   6.601   0.361
 5836W        W 9887  10.397   6.745  11.534
 5837W        W 9888   6.166   4.578   1.704
 5838W        W 9889  10.557   7.839   1.436
 5839W        W 9890   6.281   7.946  10.054
 5840W        W 9891   4.026   6.418   1.320
 5841W        W 9892   6.741   5.520   0.852
 5842W        W 9893   0.356   0.882   2.954
 5843W        W 9894   3.087   6.206  11.088
 5844W        W 9895   7.294   4.165   0.433
 5845W        W 9896  10.133  10.272   0.285
 5846W        W 9897   6.889   2.185   9.582
 5847W        W 9898  11.080   3.815   2.812
 5848W        W 9899   6.676   0.275  10.239
 5849W        W 9900   1.821   4.391  10.955
 5850W        W 9901  10.858   1.892   9.766
 5851W        W 9902   9.128   7.700   9.264
 5852W        W 9903   0.084   0.079   0.048
 5853W        W 9904   8.263   5.687  11.808
 5854W        W 9905   0.333   9.061   1.226
 5855W        W 9906   4.370   1.752  11.687
 5856W        W 9907   4.191   8.652  10.419
 5857W        W 9908   0.798   4.842  11.448
 5858W        W 9909   6.481   7.184  10.950
 5859W        W 9910   1.724   5.218   8.513
 5860W        W 9911   7.560   0.957   1.591
 5861W        W 9912   7.136   0.136   0.402
 5862W        W 9913   3.521  10.481   9.979
 5863W        W 9914   2.361   0.355   9.047
 5864W        W 9915   9.897  10.078   2.952
 5865W        W 9916   8.233   7.666  11.978
 5866W        W 9917   4.727   6.709   0.664
 5867W        W 9918   9.458   9.299   2.670
 5868W        W 9919  11.106   4.995  10.299
 5869W        W 9920   2.880   4.249   9.867
 5870W        W 9921   3.531   3.017  10.598
 5871W        W 9922  10.927   2.661  11.733
 5872W        W 9923   7.562   1.853   0.319
 5873W        W 9924   7.558   6.679  10.477
 5874W        W 9925   1.897   5.253  10.790
 5875W        W 9926   4.665   9.530  11.721
 5876W        W 9927   7.035   4.306   2.265
 5877W        W 9928   7.118   3.418  10.068
 5878W        W 9929   5.667   5.818   1.017
 5879W        W 9930   2.845   2.886   9.586
 5880W        W 9931  10.611   7.442   1.828
 5881W        W 9932  10.452   4.976   9.561
 5882W        W 9933   7.622  10.408  10.082
 5883W        W 9934   6.312   7.563  11.777
 5884W        W 9935   5.565   8.087  11.724
 5885W        W 9936   9.131   4.175   0.505
 5886W        W 9937  11.390   3.204   9.114
 5887W        W 9938   2.839   8.349  10.146
 5888W        W 9939   7.170   9.264   0.805
 5889W        W 9940   4.219   2.315   9.891
 5890W        W 9941   3.840   6.656   9.883
 5891W        W 9942  11.044   2.721   1.230
 5892W        W 9943   0.202   7.787   2.924
 5893W        W 9944   4.010   1.486  11.972
 5894W        W 9945   5.144   4.662  10.711
 5895W        W 9946   0.282  10.708   0.338
 5896W        W 9947   7.041   7.922  10.928
 5897W        W 9948   1.804   1.802   9.625
 5898W        W 9949  10.094   1.198   3.594
 5899W        W 9950  10.848   9.144   0.549
 5900W        W 9951   8.132   1.573   3.490
 5901W        W 9952   3.564   4.683   8.557
 5902W        W 9953   7.939  10.106  10.585
 5903W        W 9954   5.195   8.068   1.737
 5904W        W 9955   1.803  10.006   2.442
 5905W        W 9956   2.336   1.934   0.402
 5906W        W 9957   6.604   8.193   2.781
 5907W        W 9958   9.768   1.209   1.244
 5908W        W 9959   2.657   3.214   2.756
 5909W        W 9960   8.932   6.852  11.286
 5910W        W 9961   6.135   0.557  11.269
 5911W        W 9962   2.908  10.467   2.896
 5912W        W 9963   9.953  11.021   8.620
 5913W        W 9964   4.628   3.891   0.993
 5914W        W 9965   9.414   9.885   9.911
 5915W        W 9966   5.236   3.720   0.466
 5916W        W 9967   3.295   2.900   0.407
 5917W        W 9968   3.306   1.101   3.718
 5918W        W 9969   0.800  11.202   1.862
 5919W        W 9970   3.701   8.396   0.153
 5920W        W 9971   4.792   8.595  11.428
 5921W        W 9972   9.951  11.381  10.037
 5922W        W 9973   3.772   0.157   8.682
 5923W        W 9974   2.176   9.430   1.655
 5924W        W 9975   9.940   3.735   2.123
 5925W        W 9976  10.866   4.041   9.826
 5926W        W 9977   5.184   7.263   3.156
 5927W        W 9978   5.096   9.453   1.891
 5928W        W 9979   9.071   3.657   2.357
 5929W        W 9980   1.107  10.395   1.650
 5930W        W 9981   1.345   1.414   9.366
 5931W        W 9982   3.308   6.645   3.648
 5932W        W 9983  10.568   7.365   9.446
 5933W        W 9984   6.213   5.579  10.898
 5934W        W 9985  11.329   6.981  11.979
 5935W        W 9986   6.065   5.639   0.752
 5936W        W 9987   4.210   7.949  11.435
 5937W        W 9988   1.277  10.887  11.232
 5938W        W 9989   0.825   3.270  10.542
 5939W        W 9990   4.210   7.810   1.811
 5940W        W 9991   2.946   8.964  11.045
 5941W        W 9992  10.890   1.649   0.441
 5942W        W 9993   4.186   0.173  10.507
 5943W        W 9994   6.382   3.606   2.863
 5944W        W 9995   0.799   7.828   1.062
 5945W        W 9996   1.702   8.948  10.330
 5946W        W 9997   7.304   6.044  11.105
 5947W        W 9998   6.842   7.200   2.720
 5948W        W 9999   8.865   2.217   0.308
 5949W        W10000   2.514   7.800   0.729
 5950W        W10001   6.764   5.479  10.679
 5951W        W10002   9.006   8.075  11.061
 5952W        W10003   3.378   1.829  11.372
 5953W        W10004   8.195   5.400   9.885
 5954W        W10005   0.834  10.689  11.650
 5955W        W10006   2.588   7.551   2.246
 5956W        W10007   2.121   2.872   3.551
 5957W        W10008   1.540   1.161   2.333
 5958W        W10009   4.687   1.938   3.326
 5959W        W10010   5.942   4.688   1.227
 5960W        W10011   8.561  10.389  10.747
 5961W        W10012   2.762   7.388  11.791
 5962W        W10013   8.647   2.806   9.630
 5963W        W10014   7.576   9.887   9.791
 5964W        W10015   4.620   4.238   3.931
 5965W        W10016   4.768   8.819   9.991
 5966W        W10017  11.184   4.305   2.476
 5967W        W10018   8.068  10.504   9.840
 5968W        W10019   1.633  10.000   2.945
 5969W        W10020   1.399  11.423   9.509
 5970W        W10021   2.593   4.119   0.576
 5971W        W10022   9.990   2.080  11.008
 5972W        W10023   4.123  11.206   0.302
 5973W        W10024   8.519   7.619  11.498
 5974W        W10025   7.691   9.597   2.791
 5975W        W10026   3.766   2.446   3.307
 5976W        W10027   7.768   1.517  11.391
 5977W        W10028   7.705   3.103   1.978
 5978W        W10029   9.904   5.396  11.554
 5979W        W10030   2.784   5.281   4.148
 5980W        W10031   8.884   0.510  11.030
 5981W        W10032   4.745   9.924   8.742
 5982W        W10033   6.320   7.042  11.916
 5983W        W10034   9.656   3.319   0.871
 5984W        W10035   0.263   6.966   9.155
 5985W        W10036   9.320   0.171   1.839
 5986W        W10037   8.523   4.708   8.320
 5987W        W10038   9.549   8.639   9.438
 5988W        W10039   2.435   0.676   3.426
 5989W        W10040   2.342   1.421   1.957
 5990W        W10041   6.982   5.627   0.323
 5991W        W10042  10.864   1.679   1.935
 5992W        W10043   0.361   4.268   9.383
 5993W        W10044   5.007  11.341   0.008
 5994W        W10045   6.206   5.256  11.310
 5995W        W10046   5.117  10.445   0.888
 5996W        W10047   9.359   7.997  10.549
 5997W        W10048   0.834  11.073  11.318
 5998W        W10049   6.038   6.927  10.904
 5999W        W10050   8.908   1.833  10.796
 6000W        W10051   8.136   9.097   9.187
 6001W        W10052   7.175   2.219   1.706
 6002W        W10053   0.039   3.840   3.080
 6003W        W10054   8.971   2.077   2.622
 6004W        W10055   3.256   6.204   2.284
 6005W        W10056   8.004   1.934  10.564
 6006W        W10057   8.417   0.766   3.274
 6007W        W10058   5.510   8.044  11.221
 6008W        W10059   3.354   4.477  10.525
 6009W        W10060   4.939   0.142   1.760
 6010W        W10061   8.078   4.957   9.105
 6011W        W10062   6.719   1.346  10.547
 6012W        W10063   6.589   8.957   1.365
 6013W        W10064   0.262   6.553   8.835
 6014W        W10065   7.760   7.055   9.208
 6015W        W10066   8.825   8.487   9.720
 6016W        W10067  10.045  10.742   9.054
 6017W        W10068   6.074   4.160  11.896
 6018W        W10069   7.978   6.853   3.582
 6019W        W10070   9.187   4.788   3.147
 6020W        W10071   9.080   2.873   3.675
 6021W        W10072   5.088   9.948   0.675
 6022W        W10073   3.609   6.588   2.232
 6023W        W10074   3.247   7.137   3.300
 6024W        W10075  10.963  10.957  11.070
 6025W        W10076   1.694  10.386   9.577
 6026W        W10077  10.935   0.428   3.310
 6027W        W10078   6.557   7.491   0.479
 6028W        W10079   5.098  10.905   2.969
 6029W        W10080   5.126   2.356   2.298
 6030W        W10081  10.672   4.109   9.038
 6031W        W10082   2.286   2.802   1.998
 6032W        W10083   9.601   6.947  11.690
 6033W        W10084   3.527   6.866   8.983
 6034W        W10085  11.278  11.173   9.780
 6035W        W10086   3.770   8.871   0.920
 6036W        W10087   6.244   6.837   3.864
 6037W        W10088   5.992   3.414   0.666
 6038W        W10089   7.884   0.837   8.585
 6039W        W10090   3.475   6.565   3.156
 6040W        W10091   2.156   9.142  10.477
 6041W        W10092   5.001   2.419   0.785
 6042W        W10093   8.947   6.183   3.700
 6043W        W10094   1.984   9.436   3.579
 6044W        W10095   6.689  11.355   9.010
 6045W        W10096   1.105   7.881   8.564
 6046W        W10097   7.675   8.216   0.603
 6047W        W10098   4.885  10.719   9.179
 6048W        W10099  10.865   4.547   0.719
 6049W        W10100   6.490   9.063   9.610
 6050W        W10101   7.269   6.671   1.311
 6051W        W10102   2.117   8.269   8.510
 6052W        W10103   0.913   4.548   3.086
 6053W        W10104   4.239   9.117  10.660
 6054W        W10105   0.891   8.754   2.342
 6055W        W10106   1.982   4.739   9.066
 6056W        W10107   2.962   4.313   2.161
 6057W        W10108  11.219   8.912   2.444
 6058W        W10109   3.902   1.065   0.244
 6059W        W10110   2.295   2.729   0.989
 6060W        W10111   7.196  11.266  11.392
 6061W        W10112   8.998   4.941   8.303
 6062W        W10113   9.323   5.841   0.625
 6063W        W10114   9.344   6.165   2.928
 6064W        W10115   6.524  10.320   0.643
 6065W        W10116  10.609   4.394  10.944
 6066W        W10117   1.378  10.281   9.967
 6067W        W10118   5.763   0.894   0.511
 6068W        W10119   8.025  10.955   9.139
 6069W        W10120   8.066   9.528  11.370
 6070W        W10121   9.934   2.861   1.635
 6071W        W10122   0.295  10.870   3.130
 6072W        W10123   8.114   3.103   3.137
 6073W        W10124  10.301   7.475   9.026
 6074W        W10125   6.987   8.006   1.545
 6075W        W10126  11.427   8.332  11.666
 6076W        W10127   5.530   6.985   8.800
 6077W        W10128   7.023  10.349  11.769
 6078W        W10129   4.246   7.988   9.831
 6079W        W10130   8.379   6.111   2.930
 6080W        W10131   4.262   8.971   2.576
 6081W        W10132  11.338   4.250   9.900
 6082W        W10133   0.770   1.740   9.972
 6083W        W10134   7.141   8.369   9.896
 6084W        W10135   6.144   7.591   9.264
 6085W        W10136   1.401   0.234  10.006
 6086W        W10137   5.009  11.182   9.365
 6087W        W10138   7.456   5.695  10.256
 6088W        W10139   6.195   1.903   2.780
 6089W        W10140   2.584   2.120   3.456
 6090W        W10141   7.092   8.256   8.589
 6091W        W10142   4.134   1.687   1.697
 6092W        W10143   1.566   9.255   1.135
 6093W        W10144   8.511   5.429   2.175
 6094W        W10145   0.331   8.387   9.085
 6095W        W10146   8.769   0.440  11.860
 6096W        W10147  10.439   3.632   9.151
 6097W        W10148   6.440   0.009   3.408
 6098W        W10149   1.233   3.760   9.386
 6099W        W10150   5.966   3.477   2.471
 6100W        W10151   9.540   9.524   3.587
 6101W        W10152   4.634   5.749   0.014
 6102W        W10153   8.994   3.741  11.722
 6103W        W10154   8.986   7.104   9.983
 6104W        W10155   9.155   9.995   2.435
 6105W        W10156   6.112   2.467  10.449
 6106W        W10157   2.898   8.509   8.626
 6107W        W10158   9.023   9.839   9.067
 6108W        W10159   8.056   5.969   1.012
 6109W        W10160   5.554   2.820   0.025
 6110W        W10161   0.454   2.185   3.001
 6111W        W10162   6.474   9.516   2.792
 6112W        W10163   5.578   3.322  11.817
 6113W        W10164   3.521   1.451   0.210
 6114W        W10165   8.762   6.142   2.240
 6115W        W10166   4.580   8.541   2.416
 6116W        W10167   0.809   9.983   3.067
 6117W        W10168   5.521   9.286   0.988
 6118W        W10169   3.691   6.177   4.023
 6119W        W10170  10.138  10.763   2.388
 6120W        W10171   0.247  11.344   9.825
 6121W        W10172   6.066   7.524   9.781
 6122W        W10173   2.732   5.138   8.647
 6123W        W10174   2.412   5.751   0.715
 6124W        W10175   5.644   1.818  10.035
 6125W        W10176   6.522   0.732   2.258
 6126W        W10177   1.270   9.226   8.466
 6127W        W10178   8.181   8.651  10.958
 6128W        W10179   3.665   4.845  10.414
 6129W        W10180  11.069   6.979   0.445
 6130W        W10181   2.522   5.232   1.496
 6131W        W10182   4.635   2.288   3.719
 6132W        W10183   9.465   3.114   0.433
 6133W        W10184   7.402   9.570   1.535
 6134W        W10185  10.446   4.051   9.491
 6135W        W10186   8.483   5.700   1.187
 6136W        W10187   4.669   9.550   2.190
 6137W        W10188   8.903  11.281  11.484
 6138W        W10189   6.601   9.997  11.865
 6139W        W10190   2.463   5.270   1.981
 6140W        W10191   7.452   1.675  10.075
 6141W        W10192   9.565   5.193   2.029
 6142W        W10193   7.131  11.347  11.903
 6143W        W10194   7.858   2.322   0.370
 6144W        W10195   0.383   2.622  11.572
 6145W        W10196   8.582   6.579   0.365
 6146W        W10197   0.787   1.787   2.891
 6147W        W10198   0.892   8.086  10.286
 6148W        W10199   1.831   0.983  11.786
 6149W        W10200   4.110   9.399   9.479
 6150W        W10201   4.337   9.836   1.342
 6151W        W10202   6.189  11.414   2.182
 6152W        W10203   1.712  10.658  11.163
 6153W        W10204  10.557   9.974   0.277
 6154W        W10205   3.981   6.558   3.321
 6155W        W10206  11.129   3.045   0.444
 6156W        W10207   1.717   6.206  10.703
 6157W        W10208  10.881   8.637   9.863
 6158W        W10209  10.654  10.512   3.117
 6159W        W10210   5.323   2.201   1.163
 6160W        W10211   4.371   4.422   0.713
 6161W        W10212   6.886   2.953  10.782
 6162W        W10213   9.661  10.991   2.629
 6163W        W10214   6.821   3.837   9.946
 6164W        W10215   9.873   3.914   3.067
 6165W        W10216   6.004   2.776   2.396
 6166W        W10217   4.799   0.495   0.366
 6167W        W10218   1.806   1.171   0.277
 6168W        W10219   9.094   4.808   1.816
 6169W        W10220  10.265   0.378   1.869
 6170W        W10221   7.991   7.224   0.867
 6171W        W10222   6.945  10.852   3.144
 6172W        W10223   6.195   7.937  10.583
 6173W        W10224   9.431   9.491  10.438
 6174W        W10225   3.865   9.822   9.351
 6175W        W10226   8.575   8.049   9.937
 6176W        W10227   3.378   0.933  11.390
 6177W        W10228   3.909   5.908   8.776
 6178W        W10229   8.536   9.014   8.876
 6179W        W10230   7.086   4.149   1.352
 6180W        W10231  11.428  11.038   1.831
 6181W        W10232   3.871   8.759   2.816
 6182W        W10233   0.855   0.526   9.386
 6183W        W10234   8.878   0.819   1.460
 6184W        W10235   4.162   1.849  10.681
 6185W        W10236   6.385  10.280   1.129
 6186W        W10237   0.963  10.192   2.106
 6187W        W10238   6.963  10.465  10.369
 6188W        W10239   7.791   2.270   1.749
 6189W        W10240   4.658   1.637   1.683
 6190W        W10241   0.904   8.904   1.840
 6191W        W10242   5.046   3.757   2.321
 6192W        W10243   4.644   0.145   9.051
 6193W        W10244   8.172   3.692  10.550
 6194W        W10245  10.773   6.421  11.595
 6195W        W10246  10.805   6.112   8.675
 6196W        W10247   1.861   9.372   0.297
 6197W        W10248   7.306  10.532   0.737
 6198W        W10249   7.417   6.596   1.975
 6199W        W10250  11.376   3.432   0.163
 6200W        W10251   9.176  10.762   2.655
 6201W        W10252   7.399   9.579  11.394
 6202W        W10253   2.327   8.087  10.222
 6203W        W10254  11.477   4.318  11.214
 6204W        W10255   4.495   3.671   3.267
 6205W        W10256   8.838   4.268   0.907
 6206W        W10257   9.086   1.745   9.278
 6207W        W10258   1.375   2.347  10.683
 6208W        W10259   3.088   0.803   4.067
 6209W        W10260  11.078   5.992   1.938
 6210W        W10261   8.039   4.557   1.683
 6211W        W10262   6.795  10.029   9.170
 6212W        W10263   2.170   0.458  10.410
 6213W        W10264   2.322   2.859   1.485
 6214W        W10265   3.330   9.874  11.007
 6215W        W10266   5.066  10.324   8.845
 6216W        W10267   5.602   7.440   2.924
 6217W        W10268  11.121   4.025   8.819
 6218W        W10269   8.908   7.088   9.090
 6219W        W10270   1.532   7.299   1.424
 6220W        W10271   9.470   0.523   2.233
 6221W        W10272  10.977   5.249   0.917
 6222W        W10273   7.469   4.104   3.713
 6223W        W10274   5.074   9.536  10.594
 6224W        W10275   9.555   7.110   8.826
 6225W        W10276   9.390   8.867   2.419
 6226W        W10277  10.136   7.629   9.511
 6227W        W10278   4.647  10.712   0.816
 6228W        W10279  11.332   1.747   2.161
 6229W        W10280   7.273   6.789  10.053
 6230W        W10281   5.489   1.969  11.020
 6231W        W10282   6.600   9.497   0.040
 6232W        W10283   8.143   8.805   2.479
 6233W        W10284   7.106   7.478   1.791
 6234W        W10285   4.192   6.148   0.663
 6235W        W10286  10.802   3.989   2.356
 6236W        W10287   4.775   3.483  11.261
 6237W        W10288   9.356   5.081   9.488
 6238W        W10289  11.055   8.366   1.711
 6239W        W10290   7.899   8.308   1.769
 6240W        W10291   2.985   6.708   3.241
 6241W        W10292   0.971   9.651   3.425
 6242W        W10293  10.773   9.763   2.792
 6243W        W10294   2.231   5.753   2.749
 6244W        W10295   1.247   3.329   0.585
 6245W        W10296   3.425   2.883   1.291
 6246W        W10297   9.588   6.607   8.736
 6247W        W10298   7.416   6.234   1.618
 6248W        W10299  10.416   9.940  11.391
 6249W        W10300   2.531  10.443   9.184
 6250W        W10301   0.652   7.890  11.372
 6251W        W10302  11.367  10.332  10.662
 6252W        W10303   8.908  10.964  11.903
 6253W        W10304   4.709   6.738   2.040
 6254W        W10305   3.617   0.118   1.744
 6255W        W10306   8.976   3.560   3.364
 6256W        W10307   7.064   1.189   0.328
 6257W        W10308   4.647   9.307   3.068
 6258W        W10309   3.199  10.882   9.881
 6259W        W10310   3.946   5.833   9.931
 6260W        W10311   5.844   4.184   1.913
 6261W        W10312   5.486   9.828  10.487
 6262W        W10313   3.614   8.895   1.445
 6263W        W10314  11.389   0.204   9.065
 6264W        W10315   2.818   7.899  10.373
 6265W        W10316  11.044   1.665   8.803
 6266W        W10317   2.192   4.403   1.951
 6267W        W10318   9.378   7.216   8.339
 6268W        W10319   4.249   4.197   9.846
 6269W        W10320   1.386   9.959  10.765
 6270W        W10321   7.673   3.774   0.340
 6271W        W10322   9.368   6.191  10.007
 6272W        W10323  11.162   8.842   1.912
 6273W        W10324   8.658  10.862  11.329
 6274W        W10325   4.810   1.255   9.795
 6275W        W10326   7.544   4.496   2.358
 6276W        W10327   4.941   4.547   0.208
 6277W        W10328   9.161   1.301   9.530
 6278W        W10329  10.751   9.153  10.481
 6279W        W10330   0.601   7.868   3.650
 6280W        W10331   0.677   3.254   8.589
 6281W        W10332   2.135   8.422  11.254
 6282W        W10333  11.433  10.840  10.653
 6283W        W10334   4.981   3.476  10.059
 6284W        W10335   7.682   5.968  11.948
 6285W        W10336   4.314  11.445   1.248
 6286W        W10337   0.372   7.654  10.978
 6287W        W10338   1.655   7.445  10.485
 6288W        W10339   6.217   7.622   8.739
 6289W        W10340   7.115   8.675  10.321
 6290W        W10341   5.629  11.476   9.923
 6291W        W10342   8.532   1.954  10.449
 6292W        W10343   3.028  11.403  11.630
 6293W        W10344  11.029   2.188  10.189
 6294W        W10345   1.725   6.894   1.700
 6295W        W10346   3.406   0.241   9.917
 6296W        W10347  10.991   3.091   8.823
 6297W        W10348   8.394   1.786  11.964
 6298W        W10349   1.918   8.594   8.969
 6299W        W10350   4.166   7.447   2.209
 6300W        W10351   7.234   1.235   9.906
 6301W        W10352   4.217  11.035   9.807
 6302W        W10353   5.774   6.744  11.495
 6303W        W10354   5.160   5.548   0.753
 6304W        W10355   6.766   3.405   1.078
 6305W        W10356   0.516   5.159   2.532
 6306W        W10357  10.867  11.366   9.538
 6307W        W10358   7.468   9.614  11.939
 6308W        W10359   8.884   6.886   3.362
 6309W        W10360   9.606   1.021   2.514
 6310W        W10361   2.178   7.110   1.860
 6311W        W10362  10.964   5.128   1.884
 6312W        W10363   4.463   0.800   3.012
 6313W        W10364   0.303  10.559   9.168
 6314W        W10365   2.975   6.745  10.335
 6315W        W10366   1.974   4.721   8.534
 6316W        W10367   1.005  10.456   3.130
 6317W        W10368   9.791  10.919   9.456
 6318W        W10369   1.918   9.552  10.085
 6319W        W10370  11.341   2.730   0.066
 6320W        W10371   8.409   6.365   9.635
 6321W        W10372   8.022  10.986   8.628
 6322W        W10373   8.351   8.032   1.754
 6323W        W10374   2.136   6.751   3.129
 6324W        W10375   1.160   5.820   9.185
 6325W        W10376   2.704   5.096   9.545
 6326W        W10377   3.121   0.376  11.443
 6327W        W10378   1.772   5.933   0.184
 6328W        W10379   6.230  11.229   0.176
 6329W        W10380   0.489   9.949   1.347
 6330W        W10381   1.201  10.398  11.397
 6331W        W10382   0.435   5.272   3.495
 6332W        W10383   6.245   1.064   0.197
 6333W        W10384   0.052   1.303   2.877
 6334W        W10385   3.130  11.000   8.938
 6335W        W10386   5.560  11.415  10.832
 6336W        W10387   3.758  10.730   0.838
 6337W        W10388   5.073   5.055   0.047
 6338W        W10389   0.903   6.273   9.049
 6339W        W10390   0.826  10.186   3.555
 6340W        W10391   9.170   2.149  10.111
 6341W        W10392   0.201   5.653  11.238
 6342W        W10393   9.889   2.910   0.624
 6343W        W10394   8.615   8.457   3.001
 6344W        W10395  10.405   1.478   0.510
 6345W        W10396   6.141   6.935   0.398
 6346W        W10397   4.638  10.603   2.235
 6347W        W10398   1.797   7.244   9.784
 6348W        W10399  10.273   9.144   3.202
 6349W        W10400   9.968   1.798   9.276
 6350W        W10401   4.622  11.309  10.048
 6351W        W10402   7.053   1.083   8.883
 6352W        W10403   8.833   5.295   2.710
 6353W        W10404   2.689   1.722   3.178
 6354W        W10405   3.117   3.354   8.870
 6355W        W10406   0.840   4.830   9.988
 6356W        W10407   9.860   5.688  11.124
 6357W        W10408   2.679   9.605   8.952
 6358W        W10409   2.720   7.552   8.323
 6359W        W10410   3.136   6.273   0.790
 6360W        W10411   4.036   5.141   2.537
 6361W        W10412  10.377   7.924   1.904
 6362W        W10413   9.018   4.721   0.775
 6363W        W10414   7.077  10.326   1.913
 6364W        W10415   5.212   1.676   0.269
 6365W        W10416   7.036   2.428   0.822
 6366W        W10417   4.414   9.565   9.844
 6367W        W10418   5.714   3.587   1.175
 6368W        W10419   3.221   2.138   0.862
 6369W        W10420   2.335   8.937   0.924
 6370W        W10421  10.865   1.784  11.902
 6371W        W10422   7.930   8.897   8.711
 6372W        W10423   4.148   6.148  11.609
 6373W        W10424   2.028   9.326  10.954
 6374W        W10425   0.675   8.839   0.017
 6375W        W10426   7.370   5.549  11.986
 6376W        W10427   3.319   5.790   0.838
 6377W        W10428   0.499   6.203   2.190
 6378W        W10429   0.459   6.105  11.274
 6379W        W10430   1.782   6.033   1.165
 6380W        W10431   8.616   3.731   9.568
 6381W        W10432   9.592   5.251   9.914
 6382W        W10433   0.334   7.483   3.405
 6383W        W10434  10.514   0.469  11.179
 6384W        W10435  11.134   6.961   1.234
 6385W        W10436   3.417  10.000   0.438
 6386W        W10437   0.467   2.172   0.756
 6387W        W10438   3.504   5.260  10.195
 6388W        W10439   1.831   1.919   2.174
 6389W        W10440  10.755   7.044   3.535
 6390W        W10441   6.338   3.595  10.147
 6391W        W10442   0.847  10.547   8.537
 6392W        W10443   7.234   8.445   1.409
 6393W        W10444   3.339   4.400   0.557
 6394W        W10445   4.533   6.736  10.432
 6395W        W10446   6.477   4.690  10.991
 6396W        W10447   9.353  11.463   8.908
 6397W        W10448   8.316   7.390   3.254
 6398W        W10449  10.801   0.799   2.864
 6399W        W10450   9.511   9.172  11.413
 6400W        W10451   9.955   5.693   1.465
 6401W        W10452  10.714   7.624   0.984
 6402W        W10453   8.950  10.404  11.299
 6403W        W10454   5.227   1.649  10.294
 6404W        W10455   6.827   3.185   3.475
 6405W        W10456   0.233   5.588   8.693
 6406W        W10457   1.691   5.813  11.698
 6407W        W10458   9.026   0.229   2.309
 6408W        W10459   2.147   5.689   1.175
 6409W        W10460   1.462   2.398   0.592
 6410W        W10461  10.463   8.073   9.478
 6411W        W10462   0.465   0.780  10.989
 6412W        W10463  11.072  11.087   0.766
 6413W        W10464   1.880   2.755   0.695
 6414W        W10465   7.142  11.292  10.885
 6415W        W10466  10.254   9.596   0.926
 6416W        W10467   7.849   2.786  10.869
 6417W        W10468   5.567   6.209   0.677
 6418W        W10469   9.450   3.074   1.815
 6419W        W10470   6.026   8.460   9.042
 6420W        W10471  11.491   6.112  11.466
 6421W        W10472  10.951   0.463  11.570
 6422W        W10473   9.182   9.310   0.767
 6423W        W10474   5.112   9.432   0.547
 6424W        W10475   6.201   8.668   3.107
 6425W        W10476   5.558   4.507  10.985
 6426W        W10477   5.442   0.752   1.499
 6427W        W10478   9.319   2.321   2.983
 6428W        W10479   1.288   8.427   2.356
 6429W        W10480   4.232   3.108  11.956
 6430W        W10481   1.017   2.182   9.879
 6431W        W10482   1.807   7.794   0.381
 6432W        W10483   4.076   2.217   0.377
 6433W        W10484   2.813   8.515   9.128
 6434W        W10485   8.608  10.817   1.441
 6435W        W10486   7.939   8.897  10.585
 6436W        W10487   8.599   8.086   0.657
 6437W        W10488   7.009   7.924   2.042
 6438W        W10489   7.213   1.905   2.118
 6439W        W10490  11.217   3.226   2.312
 6440W        W10491   8.504   2.926   2.268
 6441W        W10492   4.226   9.577   3.252
 6442W        W10493   3.079   4.251   9.396
 6443W        W10494  10.425   1.629   9.476
 6444W        W10495   9.915   2.581  10.794
 6445W        W10496   2.804   9.695  10.456
 6446W        W10497   0.673   8.123   8.747
 6447W        W10498   3.705   8.703   8.227
 6448W        W10499   2.308   5.936  11.428
 6449W        W10500  11.453   7.977  10.328
 6450W        W10501  10.565   2.633  11.368
 6451W        W10502   3.929   9.597   9.933
 6452W        W10503   2.379   4.355   2.722
 6453W        W10504  11.273   6.525  11.755
 6454W        W10505  10.771  10.251   2.697
 6455W        W10506   9.322   5.247   2.905
 6456W        W10507   0.264   6.964   3.438
 6457W        W10508   5.516   0.275   9.155
 6458W        W10509   3.186   7.627   9.493
 6459W        W10510  11.488  10.762  11.561
 6460W        W10511   8.179  10.021   8.509
 6461W        W10512   1.095   1.908   1.927
 6462W        W10513   5.180   4.145  11.611
 6463W        W10514   5.668   5.278   2.257
 6464W        W10515   1.273   2.620   2.478
 6465W        W10516   9.962   1.269  10.541
 6466W        W10517   9.828   0.682  10.063
 6467W        W10518   4.054   8.460   2.442
 6468W        W10519   8.817   0.523   0.351
 6469W        W10520   8.938   4.574  10.469
 6470W        W10521   4.977   2.112   2.741
 6471W        W10522   8.224  10.035  11.416
 6472W        W10523  10.710   9.482   0.180
 6473W        W10524   1.540   0.675  10.847
 6474W        W10525   7.400   6.610  10.958
 6475W        W10526   8.579   6.549   3.638
 6476W        W10527   3.857   2.964   3.180
 6477W        W10528   9.430   0.177  11.803
 6478W        W10529   8.384   8.592  11.432
 6479W        W10530   4.772   5.712   1.052
 6480W        W10531   0.686  10.368   2.733
 6481W        W10532  10.491   6.538   8.785
 6482W        W10533   0.453   3.667   0.676
 6483W        W10534   0.697   2.157   9.447
 6484W        W10535   1.214   0.765   2.350
 6485W        W10536  10.550   9.281  11.726
 6486W        W10537   4.966   8.300   3.351
 6487W        W10538   7.612   7.518   9.892
 6488W        W10539   1.665   1.972  10.928
 6489W        W10540   4.624   7.526   0.132
 6490W        W10541   0.797  10.183  11.671
 6491W        W10542   2.084   3.315   0.724
 6492W        W10543   0.463  11.383   1.460
 6493W        W10544   1.862   5.551  11.284
 6494W        W10545   4.920   4.104   1.965
 6495W        W10546   3.816   7.026   1.019
 6496W        W10547  10.643   5.910   2.832
 6497W        W10548   8.225   4.381   0.289
 6498W        W10549   0.797   8.868   9.738
 6499W        W10550   7.395  11.380   3.118
 6500W        W10551   9.120   1.897   0.620
 6501W        W10552   9.515  11.416   3.194
 6502W        W10553   2.697   7.659   1.184
 6503W        W10554   6.917   4.984   1.622
 6504W        W10555  11.391   3.413   0.679
 6505W        W10556   2.484   7.067   1.061
 6506W        W10557   0.300   0.684   0.635
 6507W        W10558   5.251   9.951   9.646
 6508W        W10559   3.599   3.056   1.889
 6509W        W10560   5.645   5.353   0.822
 6510W        W10561   7.389   9.427   2.416
 6511W        W10562   1.490   2.299  10.195
 6512W        W10563   3.591   6.530   8.564
 6513W        W10564   2.027   7.418   2.357
 6514W        W10565  11.293  10.054   2.717
 6515W        W10566   4.558   1.384   2.254
 6516W        W10567   6.968   4.174   0.026
 6517W        W10568   0.713   5.349   9.982
 6518W        W10569   6.684   1.711  11.185
 6519W        W10570   8.539  11.359   3.277
 6520W        W10571   7.159   1.978   0.627
 6521W        W10572   1.454   0.714   0.041
 6522W        W10573   7.763   9.910  11.235
 6523W        W10574   4.118   0.455  12.000
 6524W        W10575   8.086   8.195   9.965
 6525W        W10576   0.349   6.487   3.778
 6526W        W10577   4.548   5.760  11.502
 6527W        W10578   4.029  10.534   9.752
 6528W        W10579   5.690   2.344  10.747
 6529W        W10580   8.846   9.300   9.260
 6530W        W10581   1.852   6.925   2.215
 6531W        W10582   0.394  10.832  11.846
 6532W        W10583   3.050  10.845  11.263
 6533W        W10584   0.788   9.959  10.563
 6534W        W10585   2.535   5.415   8.257
 6535W        W10586   6.623   6.678  11.300
 6536W        W10587   3.219   3.302  10.944
 6537W        W10588  10.837  10.281  11.815
 6538W        W10589   1.286  11.201   2.779
 6539W        W10590   3.776  10.939  10.540
 6540W        W10591   7.579   1.981  11.386
 6541W        W10592   3.988  11.475  11.831
 6542W        W10593   0.903   0.825   1.275
 6543W        W10594   1.890   8.623   9.501
 6544W        W10595   3.636   6.175   0.985
 6545W        W10596   9.765   1.691  10.751
 6546W        W10597   3.282   5.614  11.971
 6547W        W10598   0.596   7.277   2.153
 6548W        W10599   5.812   7.013   2.650
 6549W        W10600   9.775  11.420  11.511
 6550W        W10601   5.275   6.742   1.357
 6551W        W10602   6.232   4.122   4.080
 6552W        W10603   1.555   6.002  11.229
 6553W        W10604   6.532   6.886   1.185
 6554W        W10605   7.143   7.659  10.432
 6555W        W10606   6.529   7.760  10.969
 6556W        W10607   4.174  10.986   2.966
 6557W        W10608   7.094   0.839  10.782
 6558W        W10609   5.944   0.002   9.465
 6559W        W10610   5.879   9.529   9.846
 6560W        W10611   3.795   8.930   2.328
 6561W        W10612   4.136   6.252   3.717
 6562W        W10613   1.281   2.814   0.376
 6563W        W10614  10.554   2.366  10.051
 6564W        W10615   0.331  11.460   2.781
 6565W        W10616   0.353   7.261   1.697
 6566W        W10617   3.184   2.122  11.970
 6567W        W10618   2.863   2.796  11.417
 6568W        W10619   5.438   9.260   3.194
 6569W        W10620   9.998   8.369   2.394
 6570W        W10621  10.835  11.151   1.690
 6571W        W10622   1.756   9.187   3.125
 6572W        W10623   2.360  11.099  10.470
 6573W        W10624   7.458   0.946   0.579
 6574W        W10625   1.630   1.330  11.438
 6575W        W10626   6.646   3.094   2.477
 6576W        W10627   2.152   6.571   8.625
 6577W        W10628   2.859   6.218  10.615
 6578W        W10629   4.266   3.537  10.934
 6579W        W10630   6.427   3.111   8.500
 6580W        W10631   2.296   2.463  10.615
 6581W        W10632   1.630   7.055   9.354
 6582W        W10633  11.226   7.641   2.700
 6583W        W10634   9.237   0.642   0.591
 6584W        W10635   1.768   8.671   2.243
 6585W        W10636   5.131  11.282   9.871
 6586W        W10637   2.229   9.480   9.177
 6587W        W10638   9.963   3.270   1.915
 6588W        W10639   8.769   3.362  11.975
 6589W        W10640   4.257   0.086   9.848
 6590W        W10641   9.845   2.414   1.856
 6591W        W10642  10.958   8.193   0.724
 6592W        W10643   9.710   0.695   0.390
 6593W        W10644   5.190   5.979   0.990
 6594W        W10645   7.755   4.553   9.044
 6595W        W10646   3.239   2.641   0.857
 6596W        W10647   5.218   6.097  10.329
 6597W        W10648  10.019   8.142  11.788
 6598W        W10649   6.113   0.943   0.885
 6599W        W10650   1.993   3.397  10.952
 6600W        W10651  10.231   6.096   0.783
 6601W        W10652   8.998   7.842  11.530
 6602W        W10653   1.360   1.942   3.280
 6603W        W10654   6.582   8.634   1.807
 6604W        W10655   6.308   7.176   8.986
 6605W        W10656  10.793   0.741   9.045
 6606W        W10657   2.780   8.866   9.546
 6607W        W10658  11.259   8.596   0.717
 6608W        W10659   3.541   4.106   0.954
 6609W        W10660   4.042   6.172   0.135
 6610W        W10661   4.410   1.770   0.695
 6611W        W10662   6.210   0.290  10.814
 6612W        W10663   4.094  11.440   0.787
 6613W        W10664   7.667   8.851   0.550
 6614W        W10665   2.013   3.037  11.698
 6615W        W10666   8.158   2.843  10.408
 6616W        W10667   1.305   3.622  11.713
 6617W        W10668   4.531   3.405  10.406
 6618W        W10669   4.896   7.160  11.396
 6619W        W10670   5.687   6.299  10.183
 6620W        W10671   7.463   3.859   1.583
 6621W        W10672   0.151   5.633   0.596
 6622W        W10673  10.271   8.583  10.110
 6623W        W10674   7.206   3.082   1.950
 6624W        W10675   5.992   2.364   9.493
 6625W        W10676   4.618   1.447   9.381
 6626W        W10677   4.500   4.678   3.244
 6627W        W10678  10.093   7.436  10.310
 6628W        W10679  10.050  10.912   0.806
 6629W        W10680  11.335   5.260  11.121
 6630W        W10681   4.793   1.350  10.311
 6631W        W10682   0.790   3.504   9.562
 6632W        W10683   5.787   4.371   0.704
 6633W        W10684  10.167   7.517   1.622
 6634W        W10685   8.714   1.306   9.770
 6635W        W10686   3.242   8.618   0.240
 6636W        W10687   5.908   1.632  11.039
 6637W        W10688   4.907   1.788   4.033
 6638W        W10689   6.976   1.339   1.197
 6639W        W10690   7.886   5.254   9.505
 6640W        W10691   0.460   3.755   2.809
 6641W        W10692   8.078  11.385  10.876
 6642W        W10693   1.923   5.274   9.005
 6643W        W10694   1.389   2.822  10.345
 6644W        W10695   8.162  11.312   9.979
 6645W        W10696   9.234   0.370   3.258
 6646W        W10697   0.416  11.218   0.182
 6647W        W10698   8.649  11.258  10.226
 6648W        W10699   2.682   6.564   8.730
 6649W        W10700  10.522   0.693  10.664
 6650W        W10701   5.721   7.764   3.985
 6651W        W10702   3.380   3.378  11.429
 6652W        W10703   4.060  10.364  10.727
 6653W        W10704   9.042   3.333   9.079
 6654W        W10705   6.200   5.707   2.740
 6655W        W10706   4.961   8.116   9.290
 6656W        W10707   9.248   5.918  10.423
 6657W        W10708  10.366   4.126   3.086
 6658W        W10709   3.430   7.394   2.890
 6659W        W10710   7.637   2.118  11.883
 6660W        W10711   3.104   1.389  11.383
 6661W        W10712  10.732  11.248   9.066
 6662W        W10713  10.324   0.993   3.181
 6663W        W10714   4.109   1.231  10.387
 6664W        W10715   5.872  10.918   2.466
 6665W        W10716   2.008  10.355   9.180
 6666W        W10717   1.377   3.709  10.705
 6667W        W10718   1.734   4.602   0.395
 6668W        W10719   4.223   1.219   1.861
 6669W        W10720   8.997   8.982   9.845
 6670W        W10721   1.310   4.562  10.795
 6671W        W10722   4.258   2.775   1.565
 6672W        W10723   0.707   4.178   1.216
 6673W        W10724   9.265  10.407   3.757
 6674W        W10725  10.740   6.073   1.534
 6675W        W10726   2.128  10.650   1.824
 6676W        W10727  11.242   0.798   3.138
 6677W        W10728   0.599   1.941  11.143
 6678W        W10729   1.860   9.905   1.580
 6679W        W10730   7.602   6.214  10.211
 6680W        W10731   4.359   6.649  11.840
 6681W        W10732   0.099   1.696  11.284
 6682W        W10733   7.617  10.321  10.969
 6683W        W10734   7.574   8.013  10.641
 6684W        W10735   3.729   4.984   9.363
 6685W        W10736   5.093   0.294   1.279
 6686W        W10737   1.211   5.942  10.844
 6687W        W10738   9.853   8.853   3.297
 6688W        W10739   7.653   5.496   0.902
 6689W        W10740   2.227   8.783   2.464
 6690W        W10741   7.590   1.924   9.235
 6691W        W10742   9.296   4.823  10.088
 6692W        W10743   7.138   7.430   9.067
 6693W        W10744  10.916  10.957   3.028
 6694W        W10745   7.967   2.312   9.687
 6695W        W10746   3.715   6.604  10.815
 6696W        W10747   7.894  10.764   3.485
 6697W        W10748   3.940  10.293  11.365
 6698W        W10749   5.389   8.479  10.959
 6699W        W10750   0.574   9.063  10.189
 6700W        W10751   0.206   3.152   2.321
 6701W        W10752   6.097   2.508  11.003
 6702W        W10753  10.643   8.386   1.362
 6703W        W10754   3.215  11.493   9.212
 6704W        W10755  10.132   4.239   9.131
 6705W        W10756   6.815   1.778   2.426
 6706W        W10757   0.824   4.558  10.471
 6707W        W10758   5.741   2.807   2.831
 6708W        W10759   9.967   2.712   0.168
 6709W        W10760   3.924   7.264   2.826
 6710W        W10761  10.159   0.268   3.420
 6711W        W10762   7.367   1.057   2.359
 6712W        W10763   7.938   3.307  11.146
 6713W        W10764   0.821   7.378   0.810
 6714W        W10765   1.852   3.122  10.180
 6715W        W10766   1.807   6.411   0.370
 6716W        W10767   5.562   1.904  11.987
 6717W        W10768   2.342   9.585  10.646
 6718W        W10769   6.179   2.517  11.514
 6719W        W10770   4.507   6.120   1.285
 6720W        W10771   4.746  11.493   0.423
 6721W        W10772   9.036   7.366  10.416
 6722W        W10773   1.663  11.005  11.547
 6723W        W10774   4.163   9.556  11.483
 6724W        W10775   6.279   8.736   2.202
 6725W        W10776   3.660   0.884  10.415
 6726W        W10777   0.937   6.268  11.824
 6727W        W10778   8.821   7.620   8.842
 6728W        W10779   5.339   4.461   0.930
 6729W        W10780   9.978   3.299   8.777
 6730W        W10781   8.069   1.936  11.568
 6731W        W10782   9.652   9.330   3.143
 6732W        W10783   5.557   4.625   1.900
 6733W        W10784   5.851   7.097   9.215
 6734W        W10785   3.411   1.911   2.165
 6735W        W10786   8.428   5.917   9.895
 6736W        W10787   8.357   8.395   9.549
 6737W        W10788   0.208   4.096   1.373
 6738W        W10789   6.112   1.602   9.066
 6739W        W10790   4.767   7.946   1.116
 6740W        W10791   8.986   9.229   3.626
 6741W        W10792  10.004   7.969   1.520
 6742W        W10793   6.798  10.858   2.218
 6743W        W10794   9.443   3.361   8.737
 6744W        W10795   8.818   0.126   3.656
 6745W        W10796   2.962   0.691   0.280
 6746W        W10797   6.026   2.151   9.942
 6747W        W10798   4.911   2.619   1.798
 6748W        W10799   7.053   8.670   9.513
 6749W        W10800   7.803  10.376  11.441
 6750W        W10801   5.671   0.735   2.727
 6751W        W10802  11.342   5.217   9.884
 6752W        W10803   7.438  10.031  11.621
 6753W        W10804   7.138  11.171   1.326
 6754W        W10805  11.358   3.841  11.357
 6755W        W10806   9.862   9.996  11.932
 6756W        W10807   7.149   8.889   0.476
 6757W        W10808   2.158   4.984  11.747
 6758W        W10809   4.750   8.926   2.756
 6759W        W10810   2.709   9.490   1.689
 6760W        W10811  10.732   7.722   2.240
 6761W        W10812   1.753   2.676   9.906
 6762W        W10813   5.395   9.365   9.941
 6763W        W10814   2.327  10.063  11.374
 6764W        W10815  11.436   8.119   0.907
 6765W        W10816   8.197   1.192   0.628
 6766W        W10817   9.985   7.604   0.320
 6767W        W10818   5.110   7.239  10.932
 6768W        W10819   3.542   6.899   2.772
 6769W        W10820   8.623   3.027   1.235
 6770W        W10821   7.754   3.581   1.244
 6771W        W10822   1.375   7.174  11.566
 6772W        W10823   0.903   3.808   0.434
 6773W        W10824   2.791   2.850   1.020
 6774W        W10825  10.319  11.018  11.867
 6775W        W10826   6.516   2.341  10.760
 6776W        W10827   9.461   6.947   9.696
 6777W        W10828   4.765   9.917  10.956
 6778W        W10829   6.687   0.938   3.863
 6779W        W10830  10.509   7.299   1.325
 6780W        W10831  11.332   0.135   9.584
 6781W        W10832   5.184   9.004  10.759
 6782W        W10833   2.350   1.966  10.516
 6783W        W10834   5.076   9.329   2.400
 6784W        W10835   3.120   5.104   3.785
 6785W        W10836  11.297   5.264   0.507
 6786W        W10837   8.212   6.012   8.448
 6787W        W10838   9.751   0.511   1.788
 6788W        W10839  10.503   3.864  10.931
 6789W        W10840   1.231   6.694   8.709
 6790W        W10841   2.097   7.606   3.669
 6791W        W10842   4.473   1.438  10.685
 6792W        W10843   6.040   7.548  10.277
 6793W        W10844   2.705   7.519   9.333
 6794W        W10845   4.385  10.687   9.384
 6795W        W10846   4.792   7.171  10.337
 6796W        W10847   7.927  10.351   1.563
 6797W        W10848   7.952   1.242   1.429
 6798W        W10849   7.157   6.803   2.673
 6799W        W10850   9.194   8.426   1.255
 6800W        W10851   5.758   2.634   0.463
 6801W        W10852   1.888   2.149  10.483
 6802W        W10853   3.033   2.484  11.040
 6803W        W10854  10.410   7.413   2.926
 6804W        W10855  11.086   0.450   1.411
 6805W        W10856   5.889   4.273  11.387
 6806W        W10857   7.502   5.350   1.364
 6807W        W10858   7.171   9.499   2.893
 6808W        W10859   9.374   8.869   1.475
 6809W        W10860   5.664  10.770   3.445
 6810W        W10861   7.921   2.401   9.184
 6811W        W10862   3.710   7.017   0.030
 6812W        W10863   2.304  11.120   1.872
 6813W        W10864  11.406   0.520   0.945
 6814W        W10865   3.279   8.886   1.036
 6815W        W10866   7.352   6.972   8.870
 6816W        W10867   8.910   7.624   9.998
 6817W        W10868  10.498   9.079   8.699
 6818W        W10869   4.831   6.675  11.265
 6819W        W10870   0.383   4.881   1.625
 6820W        W10871   2.435   6.454  11.456
 6821W        W10872   9.472   9.784   2.903
 6822W        W10873   8.789   5.763  11.895
 6823W        W10874  10.890   0.354   9.403
 6824W        W10875   5.000   7.478   0.948
 6825W        W10876   2.363  10.336   0.950
 6826W        W10877  10.348   6.342   1.276
 6827W        W10878   5.310   9.784   0.217
 6828W        W10879  11.253   4.699   3.295
 6829W        W10880   5.238   0.805  11.780
 6830W        W10881   5.086   2.570   3.629
 6831W        W10882   5.744   4.090  10.741
 6832W        W10883   9.375  10.280   2.825
 6833W        W10884   1.836   7.811   2.687
 6834W        W10885  10.769   7.102   0.907
 6835W        W10886   9.892   4.741   0.207
 6836W        W10887   9.976   1.239   2.102
 6837W        W10888   3.193   4.742   0.901
 6838W        W10889   2.980   3.428  11.748
 6839W        W10890   0.651  10.448   0.084
 6840W        W10891   6.671   8.688   2.664
 6841W        W10892   8.469   9.489  10.130
 6842W        W10893   1.823   5.539   3.002
 6843W        W10894  11.391   2.921   2.684
 6844W        W10895   5.482  11.314   9.412
 6845W        W10896   8.982   9.894   0.837
 6846W        W10897   8.402   3.462  10.931
 6847W        W10898   6.536   1.649  10.182
 6848W        W10899   0.828   5.333  11.894
 6849W        W10900   2.673   8.161   1.293
 6850W        W10901   9.380   4.211  10.377
 6851W        W10902   7.497   6.699   0.333
 6852W        W10903   9.973   3.743   1.151
 6853W        W10904   2.168   7.408  10.577
 6854W        W10905   9.231   7.902   9.737
 6855W        W10906   8.467   9.895   9.814
 6856W        W10907   2.706   3.780  11.997
 6857W        W10908   1.009   0.713  10.881
 6858W        W10909  10.544  10.278   9.650
 6859W        W10910   6.255   1.316   8.663
 6860W        W10911   0.510   6.010   3.089
 6861W        W10912   0.821   4.538   9.539
 6862W        W10913   7.466   1.415   1.378
 6863W        W10914   9.407   5.833  11.326
 6864W        W10915  10.851   1.333  11.632
 6865W        W10916   8.898   4.781  11.787
 6866W        W10917   2.533   3.324  10.853
 6867W        W10918   6.377   1.376  10.924
 6868W        W10919   7.487   7.361   0.806
 6869W        W10920   1.344  10.965   2.314
 6870W        W10921   8.827   7.378   3.263
 6871W        W10922   5.482  10.534   2.457
 6872W        W10923   4.127  10.373  11.836
 6873W        W10924   1.358   1.804   9.974
 6874W        W10925   3.800   4.159   2.795
 6875W        W10926   5.046   6.046  11.998
 6876W        W10927   9.456   8.403   2.649
 6877W        W10928   7.655   5.568   2.194
 6878W        W10929   1.271  10.039   3.322
 6879W        W10930   5.562   7.567   0.904
 6880W        W10931  10.455  10.026   3.129
 6881W        W10932   4.258   5.237   0.555
 6882W        W10933   4.258   2.203   9.272
 6883W        W10934   8.930   7.151   2.802
 6884W        W10935   5.762   3.690  11.487
 6885W        W10936   7.919   2.755   1.680
 6886W        W10937   3.205   2.357  11.514
 6887W        W10938   7.477  10.022   1.825
 6888W        W10939   2.321   6.657   9.116
 6889W        W10940   9.046   9.517   1.746
 6890W        W10941   4.118  10.260   9.315
 6891W        W10942   3.152   6.174   1.770
 6892W        W10943   1.692   8.148  11.442
 6893W        W10944   6.111   0.234   1.399
 6894W        W10945   2.944   3.316   2.318
 6895W        W10946   4.180  11.440   8.917
 6896W        W10947   8.959   8.751   3.270
 6897W        W10948   7.155   8.156  10.353
 6898W        W10949   7.302   2.247   1.218
 6899W        W10950  10.101   8.095   9.867
 6900W        W10951   5.680   1.771   0.494
 6901W        W10952   0.820  11.354  10.921
 6902W        W10953   0.667  10.725   9.492
 6903W        W10954   3.283  11.214   2.582
 6904W        W10955   0.298   7.890   9.072
 6905W        W10956   2.012   7.603  10.121
 6906W        W10957   4.697   1.887  10.495
 6907W        W10958   7.570  10.436   1.183
 6908W        W10959   5.287   8.852   9.914
 6909W        W10960   7.203   5.334   0.691
 6910W        W10961   8.002   7.467   0.422
 6911W        W10962   5.607   3.119   0.428
 6912W        W10963  10.957   8.949  10.981
 6913W        W10964   3.655  10.448   9.418
 6914W        W10965   8.051   6.338   9.278
 6915W        W10966  10.291   1.994  10.572
 6916W        W10967   2.816   5.747   3.693
 6917W        W10968   6.118   0.266   0.056
 6918W        W10969   2.357   0.916  11.252
 6919W        W10970   8.128  10.323  11.004
 6920W        W10971   2.670  10.178  10.493
 6921W        W10972   1.430   1.509  10.846
 6922W        W10973   9.542   0.327  11.320
 6923W        W10974   7.145   9.196   9.110
 6924W        W10975   3.321   5.233   0.922
 6925W        W10976   9.878   7.226   0.006
 6926W        W10977   7.502   1.811   1.004
 6927W        W10978   6.907   7.424  10.811
 6928W        W10979  11.224   4.749  11.392
 6929W        W10980   9.251   7.594   2.075
 6930W        W10981   2.836   9.946  10.928
 6931W        W10982   7.495  10.078   3.649
 6932W        W10983  10.818   5.506   0.377
 6933W        W10984  10.457   8.835  10.772
 6934W        W10985   0.866  11.494   2.754
 6935W        W10986  11.061   3.369  11.276
 6936W        W10987  10.732   5.109   2.760
 6937W        W10988   4.247  10.010   0.174
 6938W        W10989   8.074  11.076  11.416
 6939W        W10990   0.271   6.744   9.620
 6940W        W10991   9.766   9.466   9.633
 6941W        W10992   7.368   2.440  10.412
 6942W        W10993   5.266   4.341   3.162
 6943W        W10994   2.667  11.341   9.882
 6944W        W10995   3.459   0.984  10.873
 6945W        W10996   1.660   5.756   8.972
 6946W        W10997   1.653   4.015   9.144
 6947W        W10998   8.432   9.255   1.427
 6948W        W10999   3.391   4.710   1.507
 6949W        W11000   1.634   6.878   1.151
 6950W        W11001   6.807   8.815   9.935
 6951W        W11002   9.824   9.456   1.209
 6952W        W11003   9.028   9.931   1.415
 6953W        W11004   3.108   3.840   2.330
 6954W        W11005   7.344   2.677  10.851
 6955W        W11006   8.420   5.226  10.465
 6956W        W11007   8.365   8.562   0.850
 6957W        W11008   7.486   5.683   0.453
 6958W        W11009  11.381   0.276   3.499
 6959W        W11010   8.008   0.736   1.342
 6960W        W11011   0.501   4.021  10.928
 6961W        W11012  10.917   2.456  10.976
 6962W        W11013   6.521   7.692   9.657
 6963W        W11014   4.294   1.350   8.973
 6964W        W11015   6.046   5.005   9.610
 6965W        W11016   5.260   1.658   1.223
 6966W        W11017   5.810  10.034   9.106
 6967W        W11018   6.358  11.418  10.445
 6968W        W11019   4.378   5.614   1.372
 6969W        W11020   8.834   0.978  11.934
 6970W        W11021   3.331   2.214   8.744
 6971W        W11022   9.926   5.995   8.872
 6972W        W11023   7.530   1.702  10.952
 6973W        W11024   3.818  11.430  10.003
 6974W        W11025  10.253   5.341  10.997
 6975W        W11026   7.481   1.377   1.884
 6976W        W11027   9.805   7.467   2.299
 6977W        W11028   5.537   8.517  11.991
 6978W        W11029   5.784  11.033   9.705
 6979W        W11030   6.213   4.061   9.955
 6980W        W11031   5.485  11.420  11.774
 6981W        W11032   8.528   0.787   0.714
 6982W        W11033   5.733   8.893   9.103
 6983W        W11034   9.538  11.267   9.763
 6984W        W11035   2.768   0.703   3.071
 6985W        W11036   4.531   9.271  10.240
 6986W        W11037   6.636   5.179  11.059
 6987W        W11038   4.767   3.307   2.320
 6988W        W11039   2.423   5.175   9.956
 6989W        W11040  11.223   6.500   1.814
 6990W        W11041   2.883   1.921   2.164
 6991W        W11042   3.723   6.248  10.168
 6992W        W11043  11.288   7.367  10.150
 6993W        W11044   4.666  11.460   3.499
 6994W        W11045  10.307   2.043   1.217
 6995W        W11046   9.512   0.475   9.025
 6996W        W11047   8.310   0.680   9.830
 6997W        W11048   4.076  10.247   3.789
 6998W        W11049   1.200   4.558  11.689
 6999W        W11050   5.109   7.090   9.937
 7000W        W11051   6.337  11.139   0.656
 7001W        W11052   2.668   1.390  11.764
 7002W        W11053  10.348   9.528   8.479
 7003W        W11054   9.121   2.838   8.907
 7004W        W11055   1.898   0.092   8.986
 7005W        W11056   7.587   1.056   8.956
 7006W        W11057   3.773   2.865  11.836
 7007W        W11058   6.945   4.053   9.485
 7008W        W11059   2.748   2.937  10.080
 7009W        W11060   0.310   4.046   9.842
 7010W        W11061  10.170   1.936   0.738
 7011W        W11062   1.830  10.825   3.096
 7012W        W11063   8.959   4.112  10.668
 7013W        W11064   2.061   6.346   3.456
 7014W        W11065   2.783  11.239   1.632
 7015W        W11066  10.297   5.694   0.374
 7016W        W11067  10.849   1.341   1.549
 7017W        W11068   9.862   1.188   0.434
 7018W        W11069   1.028   7.042   0.466
 7019W        W11070   0.966   4.977   2.746
 7020W        W11071   7.286   7.146  10.580
 7021W        W11072  11.435   1.045   0.904
 7022W        W11073   2.931  11.297   0.122
 7023W        W11074   5.778   6.679   2.236
 7024W        W11075   1.852   0.881  11.282
 7025W        W11076   3.997   8.403  11.187
 7026W        W11077   7.353   2.335   0.288
 7027W        W11078   0.841   4.655   0.450
 7028W        W11079   1.326   9.788   8.880
 7029W        W11080   8.660   2.966   9.145
 7030W        W11081   6.748   9.006   3.420
 7031W        W11082   4.312   5.661   0.849
 7032W        W11083   6.078   3.678  10.667
 7033W        W11084   5.503   6.304   1.197
 7034W        W11085   4.981   3.642   8.674
 7035W        W11086   5.978   9.987   9.609
 7036W        W11087   6.453  10.879   1.831
 7037W        W11088  11.309   1.704   2.661
 7038W        W11089   7.597   2.764   0.427
 7039W        W11090   0.318   8.149   2.216
 7040W        W11091   9.041   4.653   9.120
 7041W        W11092   1.307  10.774   8.914
 7042W        W11093   7.807   0.214   2.223
 7043W        W11094   3.405   8.977   0.552
 7044W        W11095   7.963   3.655   0.785
 7045W        W11096   5.113   9.745  10.113
 7046W        W11097   8.813   0.884   1.964
 7047W        W11098  10.141  11.132   2.749
 7048W        W11099   5.707   1.333   3.430
 7049W        W11100   6.008   8.921  11.524
 7050W        W11101   5.623   4.652   2.400
 7051W        W11102   8.383   0.770   0.206
 7052W        W11103   8.091   5.830   3.658
 7053W        W11104   0.621   0.902   9.075
 7054W        W11105   2.851   4.219  11.714
 7055W        W11106  11.198   5.985   2.811
 7056W        W11107   7.514   8.013   1.593
 7057W        W11108   5.364   0.317  10.520
 7058W        W11109   5.736   6.596   9.154
 7059W        W11110   7.866   7.883   2.056
 7060W        W11111   8.883  10.414  10.330
 7061W        W11112   7.919  10.779  11.792
 7062W        W11113  10.996   0.325   0.535
 7063W        W11114   3.561   3.995  10.531
 7064W        W11115  10.158   1.462   0.955
 7065W        W11116   9.992   6.497  10.411
 7066W        W11117   4.192   2.675   3.476
 7067W        W11118   6.574   1.791   8.911
 7068W        W11119   5.707   8.168   9.531
 7069W        W11120   3.215   9.315   1.796
 7070W        W11121   7.543  11.471   1.199
 7071W        W11122   1.834   8.691   3.132
 7072W        W11123   7.348   8.334  11.779
 7073W        W11124   6.798  10.388  11.318
 7074W        W11125   0.841   8.545  10.783
 7075W        W11126   5.768  11.451   0.247
 7076W        W11127   6.719   6.319  11.781
 7077W        W11128   9.744   8.252   3.648
 7078W        W11129   5.749   8.833   0.954
 7079W        W11130  10.523   5.507   0.836
 7080W        W11131   9.119  10.473   3.205
 7081W        W11132   7.918  10.962   9.649
 7082W        W11133   6.628  10.901   9.238
 7083W        W11134   2.459   7.051  10.335
 7084W        W11135  10.751   0.327   0.076
 7085W        W11136   6.646   9.134  10.863
 7086W        W11137   4.065   2.873   2.032
 7087W        W11138   8.157   9.863   1.394
 7088W        W11139   5.103   4.527   2.217
 7089W        W11140   0.900   4.144   1.691
 7090W        W11141   6.886   2.508   9.982
 7091W        W11142   2.610   4.918  10.384
 7092W        W11143   8.269   0.354  11.858
 7093W        W11144   7.638   9.046   9.195
 7094W        W11145   3.734   5.732   0.183
 7095W        W11146  10.356   6.083   3.233
 7096W        W11147   0.030  10.808   1.363
 7097W        W11148   4.721   0.344   9.932
 7098W        W11149   5.984   3.347   8.568
 7099W        W11150   8.429  10.523   0.920
 7100W        W11151   4.705   4.139   0.430
 7101W        W11152  11.495   1.813   1.185
 7102W        W11153  10.825   7.341   2.563
 7103W        W11154   5.563   9.399   9.002
 7104W        W11155   1.425   9.141   0.150
 7105W        W11156   9.388   0.458  10.350
 7106W        W11157   2.635   7.064  11.199
 7107W        W11158   2.854  10.927  11.755
 7108W        W11159   2.106   7.323   9.391
 7109W        W11160   1.678   9.697   0.784
 7110W        W11161   0.955  10.120  11.024
 7111W        W11162   9.981   2.850  11.683
 7112W        W11163   2.344   1.558   9.619
 7113W        W11164   8.597   3.365   1.606
 7114W        W11165   0.170  10.507   2.793
 7115W        W11166  11.399   8.466   2.252
 7116W        W11167   8.472   7.091   9.416
 7117W        W11168   5.223   1.609   2.668
 7118W        W11169   9.850   6.123   3.070
 7119W        W11170   7.980   6.979   3.085
 7120W        W11171   6.994   6.581   8.807
 7121W        W11172   1.761   6.461   0.873
 7122W        W11173   6.553   1.827  10.666
 7123W        W11174   2.721   5.729  10.737
 7124W        W11175   6.073  11.302  10.851
 7125W        W11176   1.100   5.752  10.065
 7126W        W11177   1.256   8.872  10.039
 7127W        W11178   5.050   2.961   0.922
 7128W        W11179   0.743   6.512  11.357
 7129W        W11180   8.455   1.130   1.632
 7130W        W11181   7.856   7.428   2.304
 7131W        W11182   2.745   2.602   3.409
 7132W        W11183   5.561   1.346  11.830
 7133W        W11184   2.020   7.684  11.429
 7134W        W11185   8.425   0.738  11.151
 7135W        W11186   0.468   6.732  10.530
 7136W        W11187   1.973  11.126   1.172
 7137W        W11188   0.254  11.110  10.292
 7138W        W11189   4.004   4.571   9.564
 7139W        W11190  10.900   9.038   0.038
 7140W        W11191   5.092   5.567  11.766
 7141W        W11192   9.851   5.269   3.028
 7142W        W11193   6.624   9.593   8.478
 7143W        W11194  10.028   1.776   9.776
 7144W        W11195   4.704   5.735   0.535
 7145W        W11196   1.329   8.391  10.212
 7146W        W11197   8.390  11.270   9.295
 7147W        W11198   3.121   1.027  10.095
 7148W        W11199   8.694   5.839   8.256
 7149W        W11200   3.563   4.150   9.237
 7150W        W11201   2.334  10.054  10.856
 7151W        W11202   1.755   5.024   9.420
 7152W        W11203   8.063   5.992  10.241
 7153W        W11204   6.958   0.941   2.106
 7154W        W11205   5.213   0.860   2.955
 7155W        W11206   4.606   3.224   0.810
 7156W        W11207   3.503   0.047  11.454
 7157W        W11208   8.054   0.076  11.399
 7158W        W11209   4.611   0.314   8.558
 7159W        W11210   8.503   7.625   0.410
 7160W        W11211  10.324   2.691   1.348
 7161W        W11212   8.565   1.171  11.373
 7162W        W11213   5.283  11.365   3.033
 7163W        W11214   4.885   0.667   3.281
 7164W        W11215  10.049   8.450   9.437
 7165W        W11216   4.143   1.877   8.768
 7166W        W11217   5.215   8.260   1.272
 7167W        W11218   3.324  10.804   2.242
 7168W        W11219   5.120   9.100   1.525
 7169W        W11220   6.761  10.907   0.079
 7170W        W11221   1.611   9.006  10.877
 7171W        W11222  11.344   1.905  11.670
 7172W        W11223   2.607   5.727   1.366
 7173W        W11224   8.616   4.082   0.475
 7174W        W11225   3.355   5.221   1.456
 7175W        W11226   6.874   4.573  11.258
 7176W        W11227  10.817   2.736   0.749
 7177W        W11228   6.514  11.139   3.058
 7178W        W11229   5.099   3.097  11.082
 7179W        W11230   9.425  10.873   0.112
 7180W        W11231   3.773   7.973  10.495
 7181W        W11232   7.140   7.042   0.074
 7182W        W11233   1.462   8.561   9.192
 7183W        W11234   3.875   1.887   1.305
 7184W        W11235   1.185   6.727  11.746
 7185W        W11236   5.190   1.423   0.751
 7186W        W11237   4.734   8.682   1.904
 7187W        W11238   3.325   8.805   8.641
 7188W        W11239   1.273   4.658   0.179
 7189W        W11240   7.227   8.394  10.804
 7190W        W11241   0.646   1.473  10.409
 7191W        W11242   2.596   8.656   1.233
 7192W        W11243   7.013   1.705  10.339
 7193W        W11244   5.065  10.806   0.521
 7194W        W11245   2.661   2.324   2.430
 7195W        W11246  10.790   4.229   2.802
 7196W        W11247   4.664   6.116   1.809
 7197W        W11248   8.803   3.648   1.223
 7198W        W11249   5.544   3.252   2.653
 7199W        W11250   1.794   5.544   9.435
 7200W        W11251   4.473   2.116   2.882
 7201W        W11252   6.154   3.118   8.978
 7202W        W11253   6.541   5.632   1.728
 7203W        W11254   3.594  11.237  10.956
 7204W        W11255   3.360   7.152  10.483
 7205W        W11256   3.811   2.607  10.362
 7206W        W11257  11.431   4.250   9.135
 7207W        W11258   9.469   5.019   0.426
 7208W        W11259   6.536   5.683  11.267
 7209W        W11260   8.692   6.661   8.761
 7210W        W11261   0.587   1.251   9.932
 7211W        W11262   4.309   4.574  10.807
 7212W        W11263   1.066   7.871   3.418
 7213W        W11264   4.143   2.530  11.954
 7214W        W11265   5.732   7.513   8.919
 7215W        W11266   8.095   3.704   9.616
 7216W        W11267   0.379   4.899  11.751
 7217W        W11268   0.840   9.034  10.624
 7218W        W11269   6.952   0.862   2.609
 7219W        W11270   0.214   7.640  10.073
 7220W        W11271   3.819   2.082  11.431
 7221W        W11272   7.012  11.456   2.335
 7222W        W11273   9.145   3.322   2.756
 7223W        W11274   4.083   1.720   9.255
 7224W        W11275   9.435   2.418   9.694
 7225W        W11276   5.225   6.758   9.160
 7226W        W11277   6.117   6.251   9.392
 7227W        W11278   0.230   6.613   0.055
 7228W        W11279   2.253   0.220   1.034
 7229W        W11280   5.524  10.254  10.771
 7230W        W11281   4.940   0.196   3.145
 7231W        W11282   2.215   1.936   3.173
 7232W        W11283   0.765  11.210  11.797
 7233W        W11284   7.970  10.958   2.958
 7234W        W11285   8.660   1.319   0.762
 7235W        W11286   0.551   9.719   0.580
 7236W        W11287   7.017   7.555   9.564
 7237W        W11288   0.114   5.278   0.097
 7238W        W11289   4.682   6.182  11.236
 7239W        W11290   3.837  10.991  11.925
 7240W        W11291   4.558   7.579  10.051
 7241W        W11292   8.355   9.837   3.618
 7242W        W11293   3.579   1.301  10.137
 7243W        W11294   2.769   9.931   2.065
 7244W        W11295   2.133   5.135  10.355
 7245W        W11296   1.789   3.572  11.453
 7246W        W11297   8.545   8.869   9.397
 7247W        W11298   6.507   7.098   1.940
 7248W        W11299   2.616   0.942   9.968
 7249W        W11300   2.672   1.800   2.637
 7250W        W11301   0.219   0.010   1.892
 7251W        W11302   4.061   3.599  10.492
 7252W        W11303   3.715   6.084   8.346
 7253W        W11304   3.312   4.775  10.060
 7254W        W11305   0.426   6.667   1.136
 7255W        W11306   0.753   3.148  11.013
 7256W        W11307   8.621   8.913  11.008
 7257W        W11308   1.735   8.984  11.797
 7258W        W11309   8.337   1.099   1.114
 7259W        W11310   2.535   5.601   8.756
 7260W        W11311   7.443   0.455   2.988
 7261W        W11312   2.717   8.834  10.061
 7262W        W11313   4.771   2.491  11.461
 7263W        W11314  10.836   2.916   2.518
 7264W        W11315   3.470  10.549   0.442
 7265W        W11316   6.228   5.518  11.741
 7266W        W11317   7.565   8.062  11.137
 7267W        W11318   8.857   8.496   0.857
 7268W        W11319   8.126   6.362   1.362
 7269W        W11320   9.983   0.278   9.193
 7270W        W11321   9.742   7.885   3.289
 7271W        W11322   5.080   8.261  11.946
 7272W        W11323   1.758   2.606   8.978
 7273W        W11324  10.368   8.876   2.762
 7274W        W11325   3.681   4.206   8.734
 7275W        W11326  10.363   2.164  11.393
 7276W        W11327   6.265  10.396   9.744
 7277W        W11328   2.334   3.846   8.634
 7278W        W11329   3.798   9.713   0.204
 7279W        W11330   4.186   0.371   2.433
 7280W        W11331  10.392   1.806   1.829
 7281W        W11332  10.939   2.576   2.129
 7282W        W11333   1.842   7.751   9.645
 7283W        W11334   0.415   0.391   1.556
 7284W        W11335   9.081   2.808  11.322
 7285W        W11336  10.858   6.173   9.176
 7286W        W11337   2.195   6.641   1.647
 7287W        W11338  10.248   7.912   3.121
 7288W        W11339  10.885   4.673  11.775
 7289W        W11340   6.774   5.812   1.271
 7290W        W11341   0.832   2.885  10.180
 7291W        W11342   2.756   9.941  10.016
 7292W        W11343  11.310   9.515   9.033
 7293W        W11344   8.958   2.549   3.292
 7294W        W11345   1.010   2.818  10.700
 7295W        W11346   7.496  11.290   2.202
 7296W        W11347   5.704   4.036   4.024
 7297W        W11348   0.906  11.354   0.524
 7298W        W11349   1.181   4.196   1.003
 7299W        W11350   8.466   0.968   9.453
 7300W        W11351  11.149   1.694   3.647
 7301W        W11352   3.691   1.279   1.903
 7302W        W11353   2.292   9.364  11.533
 7303W        W11354   7.072   2.005  11.363
 7304W        W11355   1.744   7.836   0.965
 7305W        W11356   9.107  10.826   1.299
 7306W        W11357  10.135  11.054  11.381
 7307W        W11358   1.387   4.108  11.021
 7308W        W11359   4.193   4.690   1.807
 7309W        W11360  10.524   8.439   1.853
 7310W        W11361   2.110   3.400   3.679
 7311W        W11362   6.770   1.347   3.278
 7312W        W11363   1.588  10.488   0.925
 7313W        W11364   5.451   8.407   0.836
 7314W        W11365   0.374  10.405  11.426
 7315W        W11366   4.997  11.082   2.023
 7316W        W11367   1.065   7.468   1.292
 7317W        W11368   2.048   5.167   1.254
 7318W        W11369   0.488   2.656   1.000
 7319W        W11370   5.655   4.646   2.976
 7320W        W11371   4.493   3.236   9.008
 7321W        W11372   9.884   4.199   0.909
 7322W        W11373   3.856   8.344  11.671
 7323W        W11374   4.240  10.564   1.942
 7324W        W11375   8.854   2.362  11.453
 7325W        W11376   6.226   9.229   0.299
 7326W        W11377   0.289   5.138   0.666
 7327W        W11378   5.691   2.807  10.486
 7328W        W11379   0.455  11.001  10.769
 7329W        W11380   0.486   2.165   9.910
 7330W        W11381   0.495   6.723   2.130
 7331W        W11382  10.429   1.968   9.088
 7332W        W11383   6.881   6.041  11.387
 7333W        W11384   9.047   0.320   1.388
 7334W        W11385   2.706   6.224   0.481
 7335W        W11386  11.365  10.234   0.260
 7336W        W11387   9.053   2.162   2.125
 7337W        W11388   1.169   7.927   2.370
 7338W        W11389   3.310   5.093  11.909
 7339W        W11390   6.488   4.513  10.516
 7340W        W11391   9.267   0.581   0.085
 7341W        W11392   1.746   9.047   9.253
 7342W        W11393   3.356   1.763   8.472
 7343W        W11394  10.018   0.976   0.874
 7344W        W11395   9.974   2.411   0.789
 7345W        W11396   0.684  11.243   9.549
 7346W        W11397   8.691   6.074   8.714
 7347W        W11398   7.920   4.254   9.810
 7348W        W11399   9.004  10.183  11.926
 7349W        W11400   6.947   0.837   9.720
 7350W        W11401   7.963   4.494  10.276
 7351W        W11402   9.656   2.912   8.945
 7352W        W11403  10.401   0.962   2.271
 7353W        W11404  11.323   6.117   9.376
 7354W        W11405   5.838   2.291   1.203
 7355W        W11406   6.526   0.227   2.389
 7356W        W11407   8.256   7.888   9.566
 7357W        W11408   8.053   7.157   0.005
 7358W        W11409   7.947  11.247   1.456
 7359W        W11410   2.787   4.984   0.732
 7360W        W11411   4.943   7.069   9.453
 7361W        W11412   4.679   4.762   2.025
 7362W        W11413   1.801   2.334   0.965
 7363W        W11414   0.319   5.773  10.359
 7364W        W11415   2.870   3.701   0.494
 7365W        W11416   4.986   1.784   8.795
 7366W        W11417  10.700   6.800   9.899
 7367W        W11418   2.262   0.262   0.514
 7368W        W11419   4.159   4.866  10.385
 7369W        W11420   2.017   5.394   0.789
 7370W        W11421   6.052   6.471  10.683
 7371W        W11422   8.741   9.503   0.599
 7372W        W11423   9.970   5.655   2.485
 7373W        W11424  10.344   7.449   0.674
 7374W        W11425   1.487  11.384  10.446
 7375W        W11426  10.695   9.637   0.674
 7376W        W11427   8.620   2.550   1.047
 7377W        W11428   4.291   9.970  11.172
 7378W        W11429   8.755   5.917  10.307
 7379W        W11430   8.431   3.828   0.878
 7380W        W11431   2.091   8.084   0.709
 7381W        W11432  11.148   3.570   3.253
 7382W        W11433   7.508  10.517   2.761
 7383W        W11434   9.014   8.559   2.268
 7384W        W11435   0.956   6.930   2.259
 7385W        W11436   7.627  11.324  11.640
 7386W        W11437  10.382   8.918   1.415
 7387W        W11438   3.763   7.117   1.963
 7388W        W11439   0.550   3.706   1.324
 7389W        W11440   3.534   0.739   9.942
 7390W        W11441   0.601   9.139   2.203
 7391W        W11442  11.410   8.629  10.874
 7392W        W11443   7.280   2.790   2.811
 7393W        W11444   8.731   8.389   1.491
 7394W        W11445   3.687   3.650   9.376
 7395W        W11446   4.712   5.726  11.009
 7396W        W11447   5.323   7.284   9.158
 7397W        W11448   7.406   0.566   2.492
 7398W        W11449   3.222   3.131   9.923
 7399W        W11450   9.743   0.368   3.099
 7400W        W11451   2.351   9.885   3.377
 7401W        W11452   7.822  10.597  10.593
 7402W        W11453   7.274   1.289   3.218
 7403W        W11454   1.373   0.248   1.392
 7404W        W11455   4.481   8.467   1.117
 7405W        W11456   5.737   2.822  11.548
 7406W        W11457   1.143   1.015   0.328
 7407W        W11458   6.565   8.121   1.850
 7408W        W11459   2.825   2.709   0.368
 7409W        W11460   9.481   1.940   9.527
 7410W        W11461   3.576   6.990  11.530
 7411W        W11462   0.756   6.051   9.487
 7412W        W11463  10.262   2.918  11.043
 7413W        W11464   3.577   3.185   9.114
 7414W        W11465   1.975   0.858   3.573
 7415W        W11466   5.485   7.559  11.899
 7416W        W11467  11.320   2.717   0.788
 7417W        W11468   6.543   6.650  10.229
 7418W        W11469   7.430  10.247  10.517
 7419W        W11470   6.069   5.074   1.538
 7420W        W11471   3.591   1.812  11.832
 7421W        W11472   1.821   3.603   0.384
 7422W        W11473   5.067   4.231   1.323
 7423W        W11474   3.252   4.704   2.010
 7424W        W11475   6.103   7.737   3.645
 7425W        W11476   7.561   4.479   9.519
 7426W        W11477   5.409   9.068   0.191
 7427W        W11478  10.795   5.587   1.691
 7428W        W11479   8.597   8.872   2.211
 7429W        W11480   9.311   3.634   1.337
 7430W        W11481   8.226   8.152  11.750
 7431W        W11482   2.424   7.387   1.504
 7432W        W11483   9.092   2.683   9.399
 7433W        W11484   2.337   9.993   8.990
 7434W        W11485   6.765   4.173   0.494
 7435W        W11486   8.903   1.009   0.441
 7436W        W11487   9.912  11.252   0.216
 7437W        W11488   5.934  10.645  11.428
 7438W        W11489   4.275   1.348   0.429
 7439W        W11490   9.870  10.397   9.417
 7440W        W11491   2.855   4.548   0.475
 7441W        W11492   8.629   2.584   1.549
 7442W        W11493   8.694   7.566   1.893
 7443W        W11494   3.807   8.055   3.182
 7444W        W11495   9.960   3.273   2.439
 7445W        W11496   0.419   5.144   9.002
 7446W        W11497   0.382   8.597   2.500
 7447W        W11498   9.381  10.369   1.850
 7448W        W11499  11.102   4.563   0.254
 7449W        W11500   2.147   3.247   0.168
 7450W        W11501   5.238   1.231  11.449
 7451W        W11502   9.724   2.314   3.522
 7452W        W11503   4.665  10.399  11.843
 7453W        W11504   5.640   4.808  10.568
 7454W        W11505   7.177   3.835   3.031
 7455W        W11506   4.324   4.729   9.932
 7456W        W11507   0.510   2.667   9.338
 7457W        W11508   9.615   5.695   2.868
 7458W        W11509  10.056   7.467   3.322
 7459W        W11510   2.057   8.777   8.478
 7460W        W11511   1.768   6.462   1.419
 7461W        W11512   4.030   5.925   1.175
 7462W        W11513   5.134   7.844  11.592
 7463W        W11514   2.191  11.294  10.010
 7464W        W11515   1.982   2.691  11.289
 7465W        W11516   8.603   1.596   1.807
 7466W        W11517   0.162   9.430   9.449
 7467W        W11518  10.034   6.148   0.179
 7468W        W11519   3.655   8.445  10.785
 7469W        W11520   6.348  10.730   0.334
 7470W        W11521  10.348   9.945   1.772
 7471W        W11522   7.615   0.034   1.709
 7472W        W11523   5.114   8.625  10.417
 7473W        W11524   8.158   3.890   0.374
 7474W        W11525   8.904   3.279  11.478
 7475W        W11526   7.647   5.612  11.082
 7476W        W11527   6.713   3.671  11.381
 7477W        W11528   8.158   0.418   9.421
 7478W        W11529   4.622   2.456   3.235
 7479W        W11530  10.054   6.170  10.810
 7480W        W11531   2.362   3.381   8.969
 7481W        W11532   8.470   4.989  10.015
 7482W        W11533  11.258   4.795   8.589
 7483W        W11534   8.577   8.331  10.915
 7484W        W11535   0.761   4.869   3.472
 7485W        W11536  10.194   5.833  11.479
 7486W        W11537   0.491   4.728   2.870
 7487W        W11538   0.376   8.534   3.022
 7488W        W11539   8.430  11.205   1.742
 7489W        W11540   9.003   5.055  11.194
 7490W        W11541   7.849   4.524  11.760
 7491W        W11542   7.515   6.983   3.384
 7492W        W11543   8.955   9.138   2.463
 7493W        W11544   5.111   4.025   9.027
 7494W        W11545   8.959   5.657   2.297
 7495W        W11546  11.236  10.135   1.927
 7496W        W11547   5.013  10.050  10.530
 7497W        W11548   4.670   6.997   1.578
 7498W        W11549   1.698   3.110  11.245
 7499W        W11550   0.893  10.440  10.037
 7500W        W11551   5.989   4.905   2.078
 7501W        W11552   2.266   1.145   0.036
 7502W        W11553   2.676   5.420  10.340
 7503W        W11554  10.991  10.094   3.160
 7504W        W11555   7.188   8.397   3.346
 7505W        W11556  11.498   0.286   0.500
 7506W        W11557   6.389   0.207   9.258
 7507W        W11558   3.764   2.651   1.603
 7508W        W11559   6.963   7.995   3.079
 7509W        W11560   9.830   0.999   8.677
 7510W        W11561   5.234   3.601  11.503
 7511W        W11562   6.426   0.995   1.360
 7512W        W11563   2.002   5.094   2.128
 7513W        W11564   4.450   6.534   1.608
 7514W        W11565   0.852   2.084   3.323
 7515W        W11566   2.783   6.430   9.230
 7516W        W11567   5.024   1.241  11.946
 7517W        W11568   6.906   5.680  11.765
 7518W        W11569   9.997   1.346   9.533
 7519W        W11570   0.861   2.386   2.187
 7520W        W11571   6.499   8.117   3.305
 7521W        W11572   5.054   3.428   3.966
 7522W        W11573   8.320   2.973  10.865
 7523W        W11574   9.413   7.641   0.494
 7524W        W11575   7.476  10.842   3.167
 7525W        W11576   6.452   6.102   1.526
 7526W        W11577   6.100   0.688  11.774
 7527W        W11578   8.133   3.285   0.454
 7528W        W11579   8.530   6.570   2.682
 7529W        W11580  11.317   2.301   1.863
 7530W        W11581   9.087   5.226   0.681
 7531W        W11582   5.533  10.953  11.500
 7532W        W11583   0.243   8.562   0.040
 7533W        W11584   9.530   8.656   0.301
 7534W        W11585   6.445   5.953   9.109
 7535W        W11586   5.257   7.478   8.686
 7536W        W11587   4.235   6.221  10.239
 7537W        W11588   5.136   3.080   3.574
 7538W        W11589   8.276   3.693   1.353
 7539W        W11590   8.377   9.740   2.130
 7540W        W11591   6.198  10.846  11.831
 7541W        W11592   4.289   9.112   0.328
 7542W        W11593   1.254  11.458   1.789
 7543W        W11594   1.710   3.198   8.648
 7544W        W11595   3.756   9.234   1.903
 7545W        W11596   3.103   4.064  10.300
 7546W        W11597   2.633   8.990   9.059
 7547W        W11598   4.098  11.370   9.415
 7548W        W11599   6.377  10.079  11.406
 7549W        W11600   4.672   0.109   2.353
 7550W        W11601   1.280   7.050   2.899
 7551W        W11602   7.642   9.549   1.970
 7552W        W11603   7.386  10.766  10.388
 7553W        W11604  10.373   0.455   2.355
 7554W        W11605   0.034   4.670   2.635
 7555W        W11606   5.419   6.016  11.669
 7556W        W11607   7.351   1.673   9.587
 7557W        W11608   8.162   3.282   1.086
 7558W        W11609   6.138   1.338   1.669
 7559W        W11610   5.284   0.926   0.731
 7560W        W11611   2.551   7.029   9.455
 7561W        W11612   2.969   5.836   3.132
 7562W        W11613   2.671  10.687  10.436
 7563W        W11614   6.242   2.849   9.471
 7564W        W11615   0.478   6.186   0.275
 7565W        W11616   5.013   8.365  10.000
 7566W        W11617   5.791   9.541   0.209
 7567W        W11618   7.917   7.660  10.860
 7568W        W11619   2.585   4.234   8.929
 7569W        W11620   8.614  11.315   0.672
 7570W        W11621   3.091   5.882   0.404
 7571W        W11622   2.478  10.343   1.996
 7572W        W11623   9.975   4.198  11.537
 7573W        W11624   6.723   8.561   3.156
 7574W        W11625  11.283   1.737  10.291
 7575W        W11626   0.829  11.042   2.379
 7576W        W11627   7.000  10.953  10.114
 7577W        W11628   6.632   4.294  10.079
 7578W        W11629  10.239   4.559  10.448
 7579W        W11630   8.140   4.801   2.676
 7580W        W11631   1.305   7.546   2.678
 7581W        W11632   9.827   4.273  10.601
 7582W        W11633   2.815   3.736  10.983
 7583W        W11634   0.488   5.062   1.149
 7584W        W11635   9.031   6.852  10.447
 7585W        W11636   8.968   3.199   9.573
 7586W        W11637   9.306   4.090  11.997
 7587W        W11638  11.264   4.230  11.690
 7588W        W11639   5.029   3.790   9.627
 7589W        W11640   4.050   2.055   0.869
 7590W        W11641   8.961   7.862   0.342
 7591W        W11642   3.457   5.234  10.871
 7592W        W11643   7.407   3.243   0.399
 7593W        W11644   2.213   7.640   1.899
 7594W        W11645   3.914   1.710   0.453
 7595W        W11646   4.226   6.697  10.855
 7596W        W11647   3.579   6.577   1.730
 7597W        W11648  10.629   9.558   2.342
 7598W        W11649   9.609   6.440  11.666
 7599W        W11650   6.157   4.398   3.159
 7600W        W11651   9.463   7.021   2.776
 7601W        W11652   0.371  10.211   0.448
 7602W        W11653   2.285   7.940   0.269
 7603W        W11654   9.140   6.882   8.663
 7604W        W11655  10.775   1.970  10.970
 7605W        W11656   2.809   3.297  11.286
 7606W        W11657   5.993  10.444   3.171
 7607W        W11658   2.270   8.101   2.955
 7608W        W11659   1.304   1.784   2.788
 7609W        W11660   2.869   5.973   9.006
 7610W        W11661  10.962   3.556   0.430
 7611W        W11662   9.531   4.791   2.763
 7612W        W11663  11.011   4.350   8.444
 7613W        W11664   2.708  11.353  10.792
 7614W        W11665   4.709   8.465   9.596
 7615W        W11666   1.670   6.749  11.483
 7616W        W11667   9.795   5.663   3.368
 7617W        W11668   6.646   2.895   0.191
 7618W        W11669   7.389   4.573   0.010
 7619W        W11670  10.093   3.535  10.404
 7620W        W11671   6.099  10.871   1.440
 7621W        W11672   8.828   5.088   9.315
 7622W        W11673   9.946   0.747   2.206
 7623W        W11674  11.224   9.905  11.875
 7624W        W11675   7.703   3.203   2.485
 7625W        W11676   8.890   8.018   1.800
 7626W        W11677   8.236   8.603   9.044
 7627W        W11678   6.899  10.215   0.980
 7628W        W11679  10.293   4.154  11.925
 7629W        W11680   3.413   2.845  11.075
 7630W        W11681  11.014   9.967   9.014
 7631W        W11682   3.678  11.269   9.088
 7632W        W11683   8.503   5.072  11.370
 7633W        W11684   3.350   7.522   1.535
 7634W        W11685   5.067   8.685   2.448
 7635W        W11686   9.283   9.621   9.458
 7636W        W11687   2.480   9.115  10.888
 7637W        W11688   4.266   4.837  11.241
 7638W        W11689  11.333   7.198   3.597
 7639W        W11690   2.850   2.173   9.008
 7640W        W11691   0.289   0.360  11.269
 7641W        W11692  11.336   3.416   9.570
 7642W        W11693   5.591   2.359   8.724
 7643W        W11694  10.345   7.545  10.731
 7644W        W11695   1.306  10.957   1.796
 7645W        W11696   7.628   3.599   9.427
 7646W        W11697  11.020  10.562   3.470
 7647W        W11698   5.905   0.956   1.370
 7648W        W11699  11.307   9.876  10.428
 7649W        W11700   5.164   4.047   2.754
 7650W        W11701   6.575   0.678   0.915
 7651W        W11702   9.312   0.266  10.855
 7652W        W11703   6.131   1.882   1.296
 7653W        W11704   3.327   4.523   2.922
 7654W        W11705   7.614   7.579  11.339
 7655W        W11706  10.728  10.875   9.481
 7656W        W11707   4.380   9.064   9.776
 7657W        W11708   5.390   3.226  10.271
 7658W        W11709   4.380   1.801   1.226
 7659W        W11710  11.336   1.903   0.700
 7660W        W11711   1.278   8.825   3.277
 7661W        W11712   8.825   4.615   9.995
 7662W        W11713   0.506   7.924   0.248
 7663W        W11714   7.637   5.852   1.318
 7664W        W11715   5.153   7.579   2.724
 7665W        W11716   3.836   7.928   0.001
 7666W        W11717   3.144   4.977  10.509
 7667W        W11718   4.673   3.536   1.870
 7668W        W11719   0.091   3.579   3.551
 7669W        W11720   5.373   4.153   1.715
 7670W        W11721   5.679   7.605   0.381
 7671W        W11722   7.048  10.882   9.536
 7672W        W11723   1.632   8.501  11.901
 7673W        W11724  10.443   8.639   8.442
 7674W        W11725   8.355   5.054   9.528
 7675W        W11726   7.178   6.088  11.859
 7676W        W11727   6.191   4.427   2.198
 7677W        W11728   6.957   3.252  11.560
 7678W        W11729   0.491   0.253   9.629
 7679W        W11730   8.087   4.973   8.259
 7680W        W11731   3.211   7.603  11.589
 7681W        W11732   4.986   0.746  10.264
 7682W        W11733   1.784   5.681  10.323
 7683W        W11734   8.897   5.070   8.796
 7684W        W11735  11.403  11.013   2.810
 7685W        W11736   4.409   8.119   2.656
 7686W        W11737   1.401   3.813   0.699
 7687W        W11738   7.880  10.763  11.076
 7688W        W11739   5.515   5.142   3.059
 7689W        W11740   1.392   7.159   8.927
 7690W        W11741   9.840   6.050   9.412
 7691W        W11742   7.352   4.349   8.754
 7692W        W11743   5.576   3.113   8.406
 7693W        W11744   0.854   2.472   3.700
 7694W        W11745   4.989   1.524   3.486
 7695W        W11746   6.555   4.061   2.253
 7696W        W11747   8.349   2.926   0.787
 7697W        W11748   3.169   9.388   3.163
 7698W        W11749   8.644   4.885   2.993
 7699W        W11750   4.102   3.706   2.682
 7700W        W11751  11.088  10.545  10.302
 7701W        W11752   8.184   9.809  10.929
 7702W        W11753   2.431  10.433   0.396
 7703W        W11754   7.937   8.955   0.107
 7704W        W11755   4.077   3.730   9.709
 7705W        W11756   1.173   7.428  10.358
 7706W        W11757   2.641   0.553   1.195
 7707W        W11758   9.951   4.997  11.239
 7708W        W11759   6.117  11.324   9.996
 7709W        W11760   7.454   2.215   9.620
 7710W        W11761   7.177   0.655   1.732
 7711W        W11762  11.457  11.065  11.111
 7712W        W11763   5.648   0.054   2.748
 7713W        W11764   5.172   5.045   1.528
 7714W        W11765   6.064   2.637   0.006
 7715W        W11766   0.537  -0.000  10.540
 7716W        W11767   3.121   0.769  10.536
 7717W        W11768   7.094  10.673   1.196
 7718W        W11769   4.272   4.083  11.677
 7719W        W11770  11.477   9.378   9.937
 7720W        W11771   0.231   8.392   0.583
 7721W        W11772   2.383   2.959   0.537
 7722W        W11773   4.791   2.397  10.550
 7723W        W11774   0.367   4.349   2.225
 7724W        W11775   7.051   8.043   2.539
 7725W        W11776   5.729  10.073   2.946
 7726W        W11777   6.504   1.613   9.415
 7727W        W11778   1.431  10.789   9.828
 7728W        W11779   1.262   2.112   2.389
 7729W        W11780   0.969   6.258   9.948
 7730W        W11781  10.867   3.840  11.425
 7731W        W11782   4.744   8.781   3.242
 7732W        W11783   6.429   2.235   3.613
 7733W        W11784  10.641   1.232   0.930
 7734W        W11785   6.446   3.142   0.782
 7735W        W11786   5.575   7.314   9.973
 7736W        W11787   4.137   8.679   0.003
 7737W        W11788   2.217  10.481  10.534
 7738W        W11789  10.527   3.119   1.157
 7739W        W11790   1.093   2.721  11.864
 7740W        W11791  10.296   5.583   3.461
 7741W        W11792   5.171   5.639  10.059
 7742W        W11793   9.871   3.099  10.110
 7743W        W11794   5.255   2.094   9.075
 7744W        W11795   0.113   0.956   9.142
 7745W        W11796  10.021   6.474   9.053
 7746W        W11797  11.369   6.642   9.309
 7747W        W11798   2.551   4.535   3.387
 7748W        W11799   9.909   0.680   1.293
 7749W        W11800   6.933   7.905   8.966
 7750W        W11801   2.623   3.536   3.584
 7751W        W11802   2.021   9.308   0.783
 7752W        W11803   0.183   4.335  10.258
 7753W        W11804   0.613  11.275   3.170
 7754W        W11805   0.768   2.565   3.178
 7755W        W11806   5.283   0.875   1.964
 7756W        W11807   8.097  10.497   3.096
 7757W        W11808   5.170   7.544   1.790
 7758W        W11809  10.390  10.862  10.063
 7759W        W11810   1.810   0.190   0.215
 7760W        W11811   5.020   7.349  11.847
 7761W        W11812  10.848   9.266   8.388
 7762W        W11813   1.288   4.776   1.718
 7763W        W11814   8.340   4.501   9.937
 7764W        W11815   1.845   5.369  11.947
 7765W        W11816  11.001   5.532   2.684
 7766W        W11817   8.564  11.320  10.711
 7767W        W11818   2.281   0.364   2.462
 7768W        W11819   9.875   8.483  10.843
 7769W        W11820   8.331   7.651   0.908
 7770W        W11821   5.533   9.203   1.871
 7771W        W11822  10.235   6.051   1.675
 7772W        W11823   9.767   8.848  10.326
 7773W        W11824   0.434   3.600  10.616
 7774W        W11825   0.364   6.566   0.592
 7775W        W11826   5.525   0.380   2.369
 7776W        W11827  10.884   7.313   9.850
 7777W        W11828   4.470   2.838   2.414
 7778W        W11829   2.256   6.550   0.637
 7779W        W11830   5.830   8.069  10.266
 7780W        W11831   1.955   3.234   1.438
 7781W        W11832   6.911   2.077   3.537
 7782W        W11833   3.111   1.798   1.720
 7783W        W11834   6.506   3.527   3.682
 7784W        W11835   1.699   8.412  10.971
 7785W        W11836   4.064   5.695  11.331
 7786W        W11837   2.204   1.383   2.451
 7787W        W11838   8.253   1.437   9.517
 7788W        W11839  11.072   9.060  10.044
 7789W        W11840  10.637  10.419  10.123
 7790W        W11841  10.969   3.807   9.359
 7791W        W11842  11.408   3.714   9.094
 7792W        W11843   2.784   7.343   0.754
 7793W        W11844   7.457   8.107   2.981
 7794W        W11845   3.252  11.086   3.097
 7795W        W11846   0.419   7.048   0.791
 7796W        W11847   0.878   0.322   0.799
 7797W        W11848   9.650  10.371   9.877
 7798W        W11849   8.653   3.521   2.608
 7799W        W11850   0.488   8.358  10.492
 7800W        W11851   5.642   9.160  11.244
 7801W        W11852   3.114   1.646  11.824
 7802W        W11853   9.688  10.078   0.426
 7803W        W11854   3.508   6.694  10.327
 7804W        W11855   6.913   4.078   8.937
 7805W        W11856   1.335   5.474   0.055
 7806W        W11857   5.857   0.276  11.585
 7807W        W11858   9.564  10.773   1.556
 7808W        W11859   5.231   2.750   9.489
 7809W        W11860   8.464   8.536  10.070
 7810W        W11861   7.736   4.890   3.578
 7811W        W11862   1.376   2.840   1.455
 7812W        W11863  10.635  11.050  11.434
 7813W        W11864  10.256  11.415   8.900
 7814W        W11865   8.027   7.388   9.540
 7815W        W11866  11.285   1.831   0.186
 7816W        W11867   8.021   5.497   1.255
 7817W        W11868   9.592   7.439   3.045
 7818W        W11869   5.481  11.156   0.810
 7819W        W11870   7.423   4.781  11.547
 7820W        W11871   7.637   2.868  11.328
 7821W        W11872   3.956   8.962   3.667
 7822W        W11873   4.736   2.884   9.597
 7823W        W11874   8.973   3.777   0.224
 7824W        W11875   0.840   4.782  11.948
 7825W        W11876   6.240   1.287   3.271
 7826W        W11877  10.524   2.295   0.786
 7827W        W11878  10.147  10.434   3.265
 7828W        W11879   0.691  11.310  10.058
 7829W        W11880   4.798   4.183   2.450
 7830W        W11881  10.308   9.325   0.470
 7831W        W11882   8.098   6.348   3.708
 7832W        W11883   6.771   9.114   2.897
 7833W        W11884   1.477  11.247   1.340
 7834W        W11885   5.327   5.186  10.704
 7835W        W11886   0.011   1.251   2.350
 7836W        W11887   8.500   7.691  10.285
 7837W        W11888   3.380   3.789  11.060
 7838W        W11889   0.700   5.363   8.624
 7839W        W11890   6.824   9.886   2.743
 7840W        W11891   0.639   8.087  10.901
 7841W        W11892   5.927   6.078   1.381
 7842W        W11893   8.587   4.058   8.734
 7843W        W11894   9.652   9.870   2.229
 7844W        W11895   8.659   5.474  10.078
 7845W        W11896   9.124   2.786  10.826
 7846W        W11897   8.045   5.375  10.793
 7847W        W11898  10.429   2.481   9.130
 7848W        W11899   2.700   2.021   9.778
 7849W        W11900   1.102   1.416  11.555
 7850W        W11901   3.599  10.753   9.001
 7851W        W11902   6.355   0.312   1.856
 7852W        W11903   7.084  10.408  10.872
 7853W        W11904   0.751   2.304  11.818
 7854W        W11905   7.947   6.917   0.441
 7855W        W11906  10.018   0.491   0.739
 7856W        W11907   7.056   7.019   3.147
 7857W        W11908   0.362   6.502  10.976
 7858W        W11909   4.052   6.718   8.974
 7859W        W11910   3.357   0.391   8.909
 7860W        W11911   8.178   5.619   3.188
 7861W        W11912   0.016   7.905   0.443
 7862W        W11913   2.302   3.311   9.967
 7863W        W11914   7.472   0.761   9.735
 7864W        W11915   9.140   1.229   1.671
 7865W        W11916  11.355   2.137  11.159
 7866W        W11917   5.650   6.528  11.035
 7867W        W11918   4.943   6.779  11.768
 7868W        W11919   5.625   9.016   1.414
 7869W        W11920   6.986   8.336  11.265
 7870W        W11921   0.579   4.070  10.415
 7871W        W11922   2.578   4.684   9.915
 7872W        W11923   8.587   1.155   3.572
 7873W        W11924   3.721   8.872  10.503
 7874W        W11925   9.015   0.310   9.995
 7875W        W11926   5.870   2.189   0.268
 7876W        W11927   2.498   6.563  10.478
 7877W        W11928   5.865   0.087  10.443
 7878W        W11929   0.325   9.885   9.666
 7879W        W11930   0.822   2.331   8.984
 7880W        W11931  11.450   3.599  10.917
 7881W        W11932   5.642   2.420   2.173
 7882W        W11933   5.963   3.164  10.761
 7883W        W11934   9.411  10.148  11.565
 7884W        W11935   9.912   8.235  11.302
 7885W        W11936   0.402   0.769   9.525
 7886W        W11937   4.677   9.041   2.268
 7887W        W11938   2.295   3.765  10.762
 7888W        W11939   7.753   1.034  10.493
 7889W        W11940  10.907  10.477  10.908
 7890W        W11941   0.199   9.969   1.777
 7891W        W11942   7.961   5.993   0.494
 7892W        W11943   3.093  10.500   9.077
 7893W        W11944  10.161   3.278   0.842
 7894W        W11945   3.318  10.986   9.398
 7895W        W11946   4.486   1.894   9.621
 7896W        W11947  10.951   5.889  10.774
 7897W        W11948   5.369   8.545   3.589
 7898W        W11949   0.489   2.712  11.067
 7899W        W11950   5.601   2.862   8.867
 7900W        W11951  10.239   0.834  11.612
 7901W        W11952  10.532   1.478   8.959
 7902W        W11953   8.187   5.079   1.870
 7903W        W11954   6.010   8.104  11.472
 7904W        W11955   7.598   9.398  10.001
 7905W        W11956   6.714   3.128   1.958
 7906W        W11957  10.690   3.585   3.496
 7907W        W11958   9.621   1.972  10.030
 7908W        W11959   8.898   0.012  11.025
 7909W        W11960   9.566   3.130   2.994
 7910W        W11961   4.136   9.559   8.546
 7911W        W11962   4.353   1.806   0.207
 7912W        W11963  10.428  11.064  10.542
 7913W        W11964   7.664   7.679   2.770
 7914W        W11965   6.341   6.109  11.479
 7915W        W11966   7.628   7.053   9.698
 7916W        W11967   3.569   6.613   1.220
 7917W        W11968  10.928   7.715   9.507
 7918W        W11969   8.609   2.816  11.533
 7919W        W11970   8.874  11.289   9.092
 7920W        W11971  10.274   4.610  11.336
 7921W        W11972   5.348   3.214   3.115
 7922W        W11973   8.908  11.375   1.723
 7923W        W11974   4.026   6.833   1.620
 7924W        W11975   9.798   6.184  11.256
 7925W        W11976   4.097   1.150   3.186
 7926W        W11977   4.095   9.106  11.731
 7927W        W11978   3.765   9.749   0.710
 7928W        W11979  10.998   2.394   9.728
 7929W        W11980   9.285   8.514   9.004
 7930W        W11981  10.041   7.165  11.523
 7931W        W11982   5.273   9.852  10.959
 7932W        W11983   2.637   4.915   0.215
 7933W        W11984   9.543  10.315  10.751
 7934W        W11985   6.567   7.205   4.013
 7935W        W11986   5.925   8.365  10.882
 7936W        W11987   1.317   4.249   3.154
 7937W        W11988   1.684   0.704   2.528
 7938W        W11989   8.661   1.204  10.289
 7939W        W11990   4.294   6.047   2.170
 7940W        W11991   3.301   9.580  10.588
 7941W        W11992  11.008   4.297   1.986
 7942W        W11993   8.949   0.807   3.419
 7943W        W11994   9.680   5.171   9.088
 7944W        W11995   6.701   1.784   1.937
 7945W        W11996   9.132   1.192   2.673
 7946W        W11997   2.768   8.073   0.362
 7947W        W11998   1.282   7.150   0.907
 7948W        W11999   4.938  10.722   8.553
 7949W        W12000  11.288   5.707   0.225
 7950W        W12001   1.282   2.241  11.714
 7951W        W12002   5.303   8.055   8.183
 7952W        W12003   5.782   9.114   2.825
 7953W        W12004   9.333   7.247  11.218
 7954W        W12005   3.497   4.568   9.551
 7955W        W12006  10.985   5.344   9.462
 7956W        W12007  11.358   6.870   8.830
 7957W        W12008   9.160  10.885  11.285
 7958W        W12009  10.573  10.941   0.864
 7959W        W12010  10.562   6.307   9.910
 7960W        W12011  10.423   8.851   0.595
 7961W        W12012   6.596   7.672   3.560
 7962W        W12013   5.030  10.971   1.018
 7963W        W12014   2.288   4.184   0.983
 7964W        W12015   8.142   3.299   2.143
 7965W        W12016  10.138   2.373  11.811
 7966W        W12017   9.096   1.245  10.563
 7967W        W12018   9.001   0.302   9.091
 7968W        W12019   4.705   7.476   2.486
 7969W        W12020   3.373  10.699   2.737
 7970W        W12021   7.547   1.894   1.523
 7971W        W12022   5.759  11.364  11.296
 7972W        W12023   5.646   2.301  10.249
 7973W        W12024   9.894   6.999  10.508
 7974W        W12025   5.913   3.270   9.404
 7975W        W12026   8.876   7.557   2.417
 7976W        W12027   9.398   7.168   1.310
 7977W        W12028   2.243   0.523   2.951
 7978W        W12029   2.810   1.551   1.326
 7979W        W12030   2.331   4.735   9.446
 7980W        W12031   9.179   8.283   9.423
 7981W        W12032   4.120   4.320   3.151
 7982W        W12033   9.549  11.324  10.763
 7983W        W12034   7.969   4.882   9.894
 7984W        W12035   1.274   6.472  10.763
 7985W        W12036   7.905   4.781   0.188
 7986W        W12037   2.045   7.088   1.351
 7987W        W12038   1.030   2.462  10.326
 7988W        W12039   0.814   0.887   2.682
 7989W        W12040   6.130   1.978   0.752
 7990W        W12041   2.736   6.101   2.297
 7991W        W12042  10.479   5.687   2.380
 7992W        W12043   9.930  10.424   0.731
 7993W        W12044   7.467   8.555  11.328
 7994W        W12045   4.422   2.492   1.974
 7995W        W12046  11.205   0.006   1.756
 7996W        W12047   9.540   0.986   9.115
 7997W        W12048   8.882   0.415   0.895
 7998W        W12049   1.365   6.124   1.438
 7999W        W12050   2.254   9.011   9.441
 8000W        W12051  10.513   8.108   0.966
 8001W        W12052   9.408  11.367   0.211
 8002W        W12053   6.594  10.430   1.986
 8003W        W12054   0.341   3.989  11.405
 8004W        W12055  10.159   5.477   8.149
 8005W        W12056  11.326   0.618   9.391
 8006W        W12057   1.808   7.205  11.291
 8007W        W12058   8.695   5.131   1.786
 8008W        W12059  10.039   5.548  10.166
 8009W        W12060   2.217   5.652   1.691
 8010W        W12061   4.179   4.515   3.992
 8011W        W12062   0.728   9.873   1.777
 8012W        W12063   9.311   6.732   1.557
 8013W        W12064   8.141   4.333  10.963
 8014W        W12065   6.013   5.337   3.065
 8015W        W12066   9.863   8.967   1.395
 8016W        W12067  10.118   0.807  11.088
 8017W        W12068   2.395   6.130   9.963
 8018W        W12069   6.070  10.290  11.762
 8019W        W12070   7.658   7.107  10.206
 8020W        W12071   9.362   0.797   2.940
 8021W        W12072   6.426   2.423   9.754
 8022W        W12073   7.617  10.374   2.189
 8023W        W12074   9.055   8.795   9.370
 8024W        W12075   8.627   3.351   0.842
 8025W        W12076   3.586   6.049  11.165
 8026W        W12077   7.040   2.757   3.261
 8027W        W12078   7.908   9.412   1.314
 8028W        W12079   0.331  10.001   2.723
 8029W        W12080   8.226  10.360   3.568
 8030W        W12081   1.803   1.155  10.841
 8031W        W12082   1.779   0.853  10.415
 8032W        W12083   5.121   4.447   8.737
 8033W        W12084   8.850  10.380   2.705
 8034W        W12085   0.862   6.235   3.424
 8035W        W12086   7.477   8.827  11.878
 8036W        W12087   5.963   2.031   3.711
 8037W        W12088   4.253  10.042   9.775
 8038W        W12089  11.319   0.776   0.474
 8039W        W12090   1.806   5.996   1.684
 8040W        W12091   6.376   2.852  10.775
 8041W        W12092   1.729   0.961   1.044
 8042W        W12093   0.355   7.185  10.279
 8043W        W12094   0.840   9.880   2.573
 8044W        W12095   8.416   5.525   0.269
 8045W        W12096   0.790   5.082   0.733
 8046W        W12097   6.408  10.342   2.894
 8047W        W12098   1.712   5.019   3.602
 8048W        W12099  11.130   2.632   3.565
 8049W        W12100   7.878   4.098  10.591
 8050W        W12101   9.419   5.335   8.650
 8051W        W12102   1.182   4.010   8.936
 8052W        W12103   9.462   5.631   2.361
 8053W        W12104   6.070  11.342  11.716
 8054W        W12105   0.872   6.852   0.937
 8055W        W12106   6.052   1.188  11.748
 8056W        W12107   8.191   1.412  10.441
 8057W        W12108   4.766   1.493   0.451
 8058W        W12109   3.708   2.133  10.586
 8059W        W12110   6.988   3.147   1.476
 8060W        W12111  11.013   2.330   3.113
 8061W        W12112   1.322   0.318  11.712
 8062W        W12113   0.876   4.259   0.131
 8063W        W12114   7.517   3.095   9.974
 8064W        W12115   9.850   7.201   9.457
 8065W        W12116  10.540   3.289  10.463
 8066W        W12117   0.820   7.502   0.302
 8067W        W12118   6.863   0.264   1.806
 8068W        W12119  11.052   8.106   2.180
 8069W        W12120   4.841   4.636   9.909
 8070W        W12121   4.315   1.290  11.490
 8071W        W12122  10.451   1.850  10.068
 8072W        W12123   1.175   7.057   3.446
 8073W        W12124   9.852   4.715  11.674
 8074W        W12125   3.127  10.510  11.633
 8075W        W12126   0.041   3.803  11.833
 8076W        W12127   3.804   6.643   3.798
 8077W        W12128   8.616   4.614   0.489
 8078W        W12129   1.891   1.784  11.486
 8079W        W12130  11.497  11.258   0.495
 8080W        W12131   1.237   3.242  10.894
 8081W        W12132   7.919   0.735  11.939
 8082W        W12133   9.605   7.668   9.467
 8083W        W12134   9.262   4.337   2.067
 8084W        W12135   6.090   1.300   9.505
 8085W        W12136   8.745   7.110   0.756
 8086W        W12137   4.933   1.219  11.028
 8087W        W12138   8.229   4.318   9.043
 8088W        W12139   8.901   0.338  10.544
 8089W        W12140   1.945  10.367  10.035
 8090W        W12141   5.488  10.544  11.196
 8091W        W12142   9.004   7.350   0.382
 8092W        W12143   8.251   9.542   0.515
 8093W        W12144   8.946   1.670  10.294
 8094W        W12145   0.382   5.120  11.238
 8095W        W12146   6.626  10.766   2.729
 8096W        W12147   6.023   5.496   0.220
 8097W        W12148   2.305   1.451   1.454
 8098W        W12149   0.785   2.781   0.292
 8099W        W12150   5.930   3.675   9.783
 8100W        W12151   3.580   5.072   2.766
 8101W        W12152   9.536   2.448   9.189
 8102W        W12153  11.381   7.153   2.624
 8103W        W12154   7.541   0.092  10.765
 8104W        W12155   0.289   1.766   2.774
 8105W        W12156   8.904   1.599   3.439
 8106W        W12157   7.049   1.164   1.664
 8107W        W12158   8.286   6.182   2.424
 8108W        W12159   6.952   8.559   0.056
 8109W        W12160  10.498  10.557  10.588
 8110W        W12161   9.144  10.363   9.891
 8111W        W12162   1.529   5.131   1.199
 8112W        W12163   6.854   5.921  10.885
 8113W        W12164   6.897   4.185  10.493
 8114W        W12165   1.865   2.659  10.411
 8115W        W12166   4.634   2.688  10.154
 8116W        W12167   6.500  10.007  10.488
 8117W        W12168   2.466   0.343   9.944
 8118W        W12169   3.774  10.305   3.377
 8119W        W12170   3.039   9.295   0.786
 8120W        W12171  11.081   0.735  10.450
 8121W        W12172   0.448   5.302   1.962
 8122W        W12173   3.577   5.771  10.305
 8123W        W12174   1.689   5.571   3.554
 8124W        W12175   5.234   2.120  10.568
 8125W        W12176   0.208   8.977  11.138
 8126W        W12177   8.123   7.372  10.434
 8127W        W12178   5.840   0.043   1.809
 8128W        W12179   5.972   0.784   9.805
 8129W        W12180   2.356   1.198  10.830
 8130W        W12181   1.736   3.863  11.881
 8131W        W12182   4.606   9.933   0.523
 8132W        W12183   9.422   3.317  10.253
 8133W        W12184   3.662   6.106   1.497
 8134W        W12185   2.935  11.047   0.558
 8135W        W12186   2.690   7.450  10.712
 8136W        W12187   6.037   1.753   3.273
 8137W        W12188   6.145   1.835   8.591
 8138W        W12189   2.059  10.526   2.342
 8139W        W12190   9.344  10.015   3.402
 8140W        W12191  10.496   9.882   9.095
 8141W        W12192   5.678   2.360  11.797
 8142W        W12193   6.764  10.390   0.201
 8143W        W12194   3.063   4.261   3.277
 8144W        W12195  10.007  11.024   1.762
 8145W        W12196   7.335   0.265   2.048
 8146W        W12197   7.763   6.234  11.044
 8147W        W12198   4.267   8.173  11.887
 8148W        W12199   6.401  11.279   9.555
 8149W        W12200   3.179   5.575   9.983
 8150W        W12201   5.371  10.287   9.263
 8151W        W12202   5.748   8.008   0.666
 8152W        W12203   0.607   6.676  10.024
 8153W        W12204   2.779   7.585   8.835
 8154W        W12205   2.094  10.483  11.574
 8155W        W12206   1.517   2.228   9.704
 8156W        W12207   1.450   3.825  10.201
 8157W        W12208   3.770   4.940   9.872
 8158W        W12209   8.001   3.551   0.008
 8159W        W12210   5.432  11.092   2.622
 8160W        W12211   7.910   6.739  11.026
 8161W        W12212   6.640  11.314   9.993
 8162W        W12213   8.374   6.221   1.915
 8163W        W12214  10.592   3.102   8.517
 8164W        W12215  10.818   5.825   9.543
 8165W        W12216  10.411   3.107   1.670
 8166W        W12217   7.755   3.161   0.776
 8167W        W12218   5.164   7.006   0.770
 8168W        W12219   0.437   9.788   9.177
 8169W        W12220   5.087   0.328   2.660
 8170W        W12221   1.804   1.856   3.520
 8171W        W12222   6.040   4.763  11.242
 8172W        W12223   3.735   9.327  10.738
 8173W        W12224   1.241   4.972  11.244
 8174W        W12225   9.904  11.197   2.233
 8175W        W12226   5.333  10.799   9.487
 8176W        W12227   9.878   9.940   0.886
 8177W        W12228   7.570  11.033   1.763
 8178W        W12229   3.798   0.860   2.206
 8179W        W12230   4.121   9.576   1.740
 8180W        W12231   4.093  10.486   8.848
 8181W        W12232   5.834  11.310   1.308
 8182W        W12233  10.110   0.872   1.735
 8183W        W12234   1.040   0.044   0.074
 8184W        W12235  11.465  10.406   0.708
 8185W        W12236   2.328   5.427  11.546
 8186W        W12237  10.419   9.941  10.117
 8187W        W12238   0.982  10.890  10.795
 8188W        W12239  10.445   8.687   9.625
 8189W        W12240   4.290   3.160   1.233
 8190W        W12241   9.066   6.051  10.898
 8191W        W12242   9.375   4.851   8.799
 8192W        W12243  11.018   7.809  10.008
 8193W        W12244   8.965   4.124   8.382
 8194W        W12245   1.315   6.598   1.655
 8195W        W12246   6.035   8.376   9.886
 8196W        W12247   9.133   4.655   9.605
 8197W        W12248   8.173   2.773   9.475
 8198W        W12249   7.734   3.005   1.266
 8199W        W12250   3.325   1.439   1.436
 8200W        W12251   6.999   9.184   9.587
 8201W        W12252   0.819   9.094   8.692
 8202W        W12253   6.155   8.709   0.386
 8203W        W12254   1.489  10.946  10.740
 8204W        W12255   1.789   3.744   2.084
 8205W        W12256   4.857   3.321   3.183
 8206W        W12257  11.469   9.336   2.287
 8207W        W12258   2.678  11.463   0.696
 8208W        W12259   1.416   8.053   0.569
 8209W        W12260   6.860   3.510   2.722
 8210W        W12261   5.666   2.226   0.742
 8211W        W12262   9.783   4.282   9.534
 8212W        W12263   3.308   6.267  11.556
 8213W        W12264   4.004   2.256  10.973
 8214W        W12265   9.371   3.608   0.511
 8215W        W12266   7.482   7.118  11.120
 8216W        W12267   2.116   9.556   2.528
 8217W        W12268   2.950   7.998   8.528
 8218W        W12269   6.660   5.293  11.570
 8219W        W12270  10.911   8.988  11.511
 8220W        W12271   2.670   3.716   2.588
 8221W        W12272   5.021   9.293   1.039
 8222W        W12273   4.552   6.391   8.310
 8223W        W12274  10.094   3.262  11.397
 8224W        W12275   7.920   2.666   0.803
 8225W        W12276   9.427   9.684  11.341
 8226W        W12277  10.425   1.914   0.237
 8227W        W12278   9.650   3.781  10.390
 8228W        W12279   8.392   3.253  11.401
 8229W        W12280  10.876   1.834   1.338
 8230W        W12281   2.514   6.170  11.911
 8231W        W12282   4.267   8.782   2.100
 8232W        W12283   0.362   4.564   1.207
 8233W        W12284   0.725   7.667  11.819
 8234W        W12285   4.548   0.258   2.823
 8235W        W12286   9.069   5.917   1.413
 8236W        W12287   0.479  10.349   3.195
 8237W        W12288   0.748   2.857   8.916
 8238W        W12289   9.105   0.759   8.862
 8239W        W12290   5.321   8.421   2.101
 8240W        W12291  10.315   2.710   1.972
 8241W        W12292  10.481  10.582   0.067
 8242W        W12293   4.961   6.712   8.711
 8243W        W12294   1.262   9.292  10.553
 8244W        W12295   2.636   6.066   2.798
 8245W        W12296   6.344   4.076   1.807
 8246W        W12297   1.658   0.362  10.435
 8247W        W12298   9.599   4.660   1.859
 8248W        W12299   5.733   0.464  10.139
 8249W        W12300   7.110   0.010   0.908
 8250W        W12301   1.487   6.568  10.303
 8251W        W12302   5.916   2.091   9.051
 8252W        W12303   9.028   2.938  11.825
 8253W        W12304   4.335   8.567   1.622
 8254W        W12305  10.365   0.970   0.500
 8255W        W12306   2.937   0.811   3.544
 8256W        W12307   4.387   3.595  11.933
 8257W        W12308   3.680   4.105  11.393
 8258W        W12309   0.191  10.351  11.900
 8259W        W12310   8.488  11.427  11.716
 8260W        W12311   6.462   4.803   1.346
 8261W        W12312   2.415   0.297  10.843
 8262W        W12313  10.551   6.560   3.479
 8263W        W12314   1.540   5.067   0.292
 8264W        W12315  11.006   7.983   1.227
 8265W        W12316   2.610   1.014   2.700
 8266W        W12317   6.572   1.083   2.895
 8267W        W12318   5.555   7.598  10.411
 8268W        W12319   8.362   5.719  10.557
 8269W        W12320   9.419   9.141   9.420
 8270W        W12321   5.221   4.266   9.955
 8271W        W12322   4.097   0.972   0.713
 8272W        W12323  10.636   5.112  10.448
 8273W        W12324  10.447  11.458   0.237
 8274W        W12325   9.003   0.808  10.300
 8275W        W12326   2.265   6.158   0.954
 8276W        W12327   1.834   4.105  11.423
 8277W        W12328   6.963   7.486   2.290
 8278W        W12329   1.067   7.529   9.859
 8279W        W12330   2.619   6.907  11.690
 8280W        W12331   3.073   6.313   2.879
 8281W        W12332  11.019  10.830   1.215
 8282W        W12333   9.880   3.728   9.066
 8283W        W12334   8.768   6.361  11.224
 8284W        W12335   6.027   4.165   1.429
 8285W        W12336   0.326   6.005   3.601
 8286W        W12337   5.013   2.190  11.045
 8287W        W12338  10.767   0.372  10.306
 8288W        W12339   8.304   5.798   8.909
 8289W        W12340   4.795   4.878  11.485
 8290W        W12341   4.651   7.482   1.379
 8291W        W12342   2.250   4.173  11.082
 8292W        W12343   7.246   5.052   0.273
 8293W        W12344   9.362   7.243   9.284
 8294W        W12345   6.822  10.060   8.633
 8295W        W12346   7.107   2.884  11.254
 8296W        W12347   1.860   0.048   1.485
 8297W        W12348   9.646  11.201   0.660
 8298W        W12349   4.420   7.038  11.299
 8299W        W12350   8.913   5.609   0.390
 8300W        W12351  11.256   6.226   0.983
 8301W        W12352   5.524   8.885  11.659
 8302W        W12353   7.459   5.271  11.424
 8303W        W12354   7.398   9.291  10.960
 8304W        W12355   1.072   9.079   0.898
 8305W        W12356   0.157   3.535   1.083
 8306W        W12357   8.129   5.188  11.964
 8307W        W12358  10.320   4.740   0.526
 8308W        W12359   5.920  11.417   0.801
 8309W        W12360   5.696   4.666   8.801
 8310W        W12361   5.497   3.851  11.885
 8311W        W12362   2.827   8.776  10.572
 8312W        W12363   5.201   4.559   2.709
 8313W        W12364  10.381   2.954   0.356
 8314W        W12365   3.866   5.386   2.065
 8315W        W12366  10.344  10.138  11.842
 8316W        W12367   3.355   3.889   0.517
 8317W        W12368   6.650   0.259   9.719
 8318W        W12369  10.970   8.202   9.620
 8319W        W12370   2.379  11.030   9.588
 8320W        W12371   6.486   8.516   0.744
 8321W        W12372   5.069   6.108  10.854
 8322W        W12373   8.227   4.879  10.938
 8323W        W12374   9.268   6.178   0.990
 8324W        W12375   7.536  10.787   8.717
 8325W        W12376   3.317   5.493   2.958
 8326W        W12377   9.894   1.209  10.039
 8327W        W12378   2.798   2.824   2.477
 8328W        W12379   4.393  10.355   1.485
 8329W        W12380   9.524   8.032   1.312
 8330W        W12381   3.909   6.569   0.781
 8331W        W12382   3.359   5.713   8.288
 8332W        W12383   7.018   5.980   0.716
 8333W        W12384   0.829   5.069   9.544
 8334W        W12385   9.777   6.180   1.859
 8335W        W12386   1.362   0.465   9.537
 8336W        W12387   5.060   8.177   0.451
 8337W        W12388  10.504   4.456   1.913
 8338W        W12389   9.477  11.461  10.264
 8339W        W12390   8.887  10.407   1.639
 8340W        W12391   1.966   6.642  10.512
 8341W        W12392   8.984   2.562   9.898
 8342W        W12393   8.587   9.827   9.324
 8343W        W12394  10.702   3.708  10.193
 8344W        W12395   3.238   0.515   3.255
 8345W        W12396   0.871   2.247   2.704
 8346W        W12397   9.295   8.499   3.553
 8347W        W12398   6.202   9.310  11.774
 8348W        W12399   1.118  11.448   2.280
 8349W        W12400   5.222   3.568   3.491
 8350W        W12401   0.278   9.093   2.606
 8351W        W12402   5.714   1.249   9.863
 8352W        W12403   1.694   4.534  10.096
 8353W        W12404   5.779   0.396   3.473
 8354W        W12405   4.526   2.721   9.151
 8355W        W12406   1.738   9.435  10.535
 8356W        W12407   7.673   6.479   3.388
 8357W        W12408   9.281   9.388   8.983
 8358W        W12409   5.054   4.578   1.714
 8359W        W12410   3.251   6.153   9.307
 8360W        W12411   7.792   4.598  11.246
 8361W        W12412   3.832   5.774   0.707
 8362W        W12413   1.230   5.879   3.484
 8363W        W12414   7.075   2.662  11.986
 8364W        W12415   1.793   7.231   3.860
 8365W        W12416   4.665   8.857  10.500
 8366W        W12417   9.097   1.686   1.936
 8367W        W12418   8.330   4.333   0.838
 8368W        W12419   2.664   0.224   1.693
 8369W        W12420  10.527   8.683   3.210
 8370W        W12421   1.425   7.132   2.401
 8371W        W12422   2.381   4.845   2.810
 8372W        W12423  10.471   5.808   9.953
 8373W        W12424   4.210   4.260   8.822
 8374W        W12425   2.005   4.609   1.041
 8375W        W12426   5.106   7.228   1.385
 8376W        W12427   2.369   1.877   2.194
 8377W        W12428   8.899   5.065  10.314
 8378W        W12429   4.059   5.311  10.090
 8379W        W12430   8.344   3.842   2.319
 8380W        W12431   9.380   9.349  10.931
 8381W        W12432   4.801   7.756   0.571
 8382W        W12433   1.314   4.656   1.207
 8383W        W12434   8.548   9.587  11.531
 8384W        W12435   2.378   1.557   3.546
 8385W        W12436   3.269   0.114   2.910
 8386W        W12437   7.495   8.470   9.348
 8387W        W12438   1.390   7.085  10.057
 8388W        W12439   8.536   0.313  11.393
 8389W        W12440   7.140  11.322   1.821
 8390W        W12441   0.014   4.746   9.033
 8391W        W12442   0.276   9.874  10.176
 8392W        W12443   5.063   1.676  10.764
 8393W        W12444   1.940   6.235   8.961
 8394W        W12445   7.178   0.020   9.076
 8395W        W12446   7.385   4.329  10.590
 8396W        W12447   2.785   3.294   9.255
 8397W        W12448   6.201   2.862   0.444
 8398W        W12449   8.436   0.165   0.983
 8399W        W12450   2.156   0.421  11.299
 8400W        W12451   3.291   3.869   9.666
 8401W        W12452   6.433   3.327  10.645
 8402W        W12453   0.355   9.524   1.976
 8403W        W12454   0.935   5.990   1.665
 8404W        W12455   1.348   0.967   9.600
 8405W        W12456   1.346   5.078  10.738
 8406W        W12457   7.518   0.259   9.661
 8407W        W12458   3.744   8.521   8.723
 8408W        W12459   4.199  10.932   0.729
 8409W        W12460   9.165   1.385   0.687
 8410W        W12461   2.367   5.269   2.474
 8411W        W12462   2.745   8.022   3.149
 8412W        W12463   6.162   3.463  11.130
 8413W        W12464   4.162   0.870   9.172
 8414W        W12465   5.992   7.240   3.149
 8415W        W12466  10.539   6.021  11.823
 8416W        W12467   3.349  11.398   8.725
 8417W        W12468   7.486   8.625   1.829
 8418W        W12469   1.239  10.421   0.533
 8419W        W12470   6.552   9.596  11.514
 8420W        W12471   9.102   2.444   0.706
 8421W        W12472   3.109   0.664  11.034
 8422W        W12473   8.561   0.706   9.020
 8423W        W12474   1.576   7.649   2.264
 8424W        W12475   0.002   6.505  10.574
 8425W        W12476   7.730   1.814   2.011
 8426W        W12477   7.172   1.208  11.760
 8427W        W12478   4.666   2.843   3.555
 8428W        W12479   6.805   0.380   8.975
 8429W        W12480   2.758   7.393   9.816
 8430W        W12481   0.419   4.982  10.733
 8431W        W12482  10.833  11.403  10.509
 8432W        W12483   1.300   3.347   2.991
 8433W        W12484  10.868   0.846   9.530
 8434W        W12485   8.444   2.475   9.090
 8435W        W12486   1.356   6.199   1.966
 8436W        W12487   7.853   6.063   8.883
 8437W        W12488   9.920   7.186   1.896
 8438W        W12489   9.529   3.885   8.604
 8439W        W12490   6.340   2.041   4.088
 8440W        W12491   2.939   8.410  11.889
 8441W        W12492   9.393   1.668   3.307
 8442W        W12493  10.852  10.094   0.890
 8443W        W12494   3.164   6.650   2.522
 8444W        W12495   4.803  10.312   1.807
 8445W        W12496   3.247  10.054   9.876
 8446W        W12497   5.976  11.013   1.962
 8447W        W12498   3.176   0.312   0.970
 8448ION    NA+12499   2.189   0.109   1.913
 8449ION    NA+12500   3.653   7.526   1.080
 8450ION    NA+12501   9.644   3.946  11.242
 8451ION    NA+12502   3.095   8.825   1.574
 8452ION    NA+12503   9.422   4.674  10.593
 8453ION    NA+12504   2.236   6.598   2.141
 8454ION    NA+12505   4.772   3.812  11.669
 8455ION    NA+12506   7.511   1.243   3.655
 8456ION    NA+12507   0.013   8.480  10.398
 8457ION    NA+12508   6.176   8.186   2.180
 8458ION    NA+12509   9.573   8.361  11.879
 8459ION    NA+12510   9.514   6.100   0.204
 8460ION    NA+12511   3.373   5.704   1.643
 8461ION    NA+12512   9.304   0.928  11.712
 8462ION    NA+12513   5.206   4.998   2.050
 8463ION    NA+12514  11.455   5.196  10.629
 8464ION    NA+12515   7.401   3.498   2.163
 8465ION    NA+12516   7.960  10.501   9.351
 8466ION    NA+12517   0.224   7.424   8.922
 8467ION    NA+12518   9.433   6.455   9.563
 8468ION    NA+12519   2.128   8.175   9.723
 8469ION    NA+12520   7.608   2.190   8.819
 8470ION    NA+12521   8.092   2.574   3.866
 8471ION    NA+12522   8.898  10.989   9.508
 8472ION    NA+12523   5.237   6.360  11.313
 8473ION    NA+12524   0.566   7.473   9.761
 8474ION    NA+12525   9.106  10.697   0.773
 8475ION    NA+12526   4.026   4.024  10.250
 8476ION    NA+12527   9.387   7.753  11.247
 8477ION    NA+12528   3.932   2.184   1.743
 8478ION    NA+12529   4.827   0.969   2.152
 8479ION    NA+12530   1.255   5.054  11.784
 8480ION    NA+12531   0.972  11.201   8.917
 8481ION    NA+12532   8.786   8.389  11.731
 8482ION    NA+12533   0.873   4.007   3.038
 8483ION    NA+12534   7.050   1.386   2.780
 8484ION    NA+12535   5.079   2.104  11.947
 8485ION    NA+12536   4.164   0.722  10.411
 8486ION    NA+12537  10.591   0.108   1.505
 8487ION    NA+12538   5.611   7.572   2.439
 8488ION    NA+12539  11.168   0.494   2.677
 8489ION    NA+12540   4.251   3.951   0.617
 8490ION    NA+12541   6.041   9.460   2.531
 8491ION    NA+12542   3.219   2.375   0.420
 8492ION    NA+12543   1.475   2.183   8.894
 8493ION    NA+12544   3.037   8.922  11.868
 8494ION    NA+12545   4.263   1.734   2.573
 8495ION    NA+12546   8.550   6.823   9.853
 8496ION    NA+12547   7.508   9.553   1.029
 8497ION    NA+12548   7.420   0.854   0.082
 8498ION    NA+12549   1.850   4.131   1.275
 8499ION    NA+12550   7.953   6.370  10.584
 8500ION    NA+12551   3.098   5.847   2.625
 8501ION    NA+12552   5.341   1.723   2.194
 8502ION    NA+12553   0.242   4.400  11.673
 8503ION    NA+12554   3.038   8.285   0.866
 8504ION    NA+12555   7.085   1.684   1.621
 8505ION    NA+12556   3.075  11.031   8.009
 8506ION    NA+12557   8.209   1.082   2.913
 8507ION    NA+12558   4.028   8.425   0.858
 8508ION    NA+12559   9.294   0.072   0.957
 8509ION    NA+12560   3.413   2.056   3.595
 8510ION    NA+12561   5.358  10.114  11.409
 8511ION    NA+12562   7.959   5.108   3.153
 8512ION    NA+12563  11.383   7.924  11.964
 8513ION    NA+12564   9.336   0.745   9.922
 8514ION    NA+12565  11.417  11.081  11.987
 8515ION    NA+12566  11.070   6.514  10.180
 8516ION    NA+12567   5.741   2.813   9.540
 8517ION    NA+12568   6.705   9.165   8.793
 8518ION    NA+12569   1.009   5.105   1.211
 8519ION    NA+12570   7.544   0.232  11.309
 8520ION    NA+12571   0.404   0.386   9.146
 8521ION    NA+12572   2.315   7.782   8.580
 8522ION    NA+12573   8.981   3.295   0.445
 8523ION    NA+12574   9.649   1.587   2.455
 8524ION    NA+12575  10.517   7.707   9.853
 8525ION    NA+12576  10.503   4.193   0.712
 8526ION    NA+12577   7.458   8.686   8.880
 8527ION    NA+12578   0.557   1.539  11.429
 8528ION    NA+12579   9.767  10.134  11.173
 8529ION    NA+12580  10.324  10.995   0.388
 8530ION    NA+12581   9.562   1.484   9.278
 8531ION    NA+12582   0.069   1.806  10.753
 8532ION    NA+12583   8.600   4.530   2.647
 8533ION    NA+12584   1.800  11.206   0.429
 8534ION    NA+12585   2.669   3.417  10.319
 8535ION    NA+12586   8.493   0.184   9.872
 8536ION    NA+12587   5.131   3.361   8.280
 8537ION    CL-12588   2.815   4.606   2.949
 8538ION    CL-12589   4.689   3.243   8.308
 8539ION    CL-12590   0.378   2.351   3.477
 8540ION    CL-12591   1.217  11.346  11.525
 8541ION    CL-12592  10.046   4.121   3.503
 8542ION    CL-12593  11.129  11.410  10.919
 8543ION    CL-12594   5.802  10.113  11.346
 8544ION    CL-12595   9.143   3.729  10.396
 8545ION    CL-12596   9.485  10.492  11.219
 8546ION    CL-12597   0.085   0.603  10.327
 8547ION    CL-12598   2.802   5.104  11.758
 8548ION    CL-12599   5.082   1.349   2.141
 8549ION    CL-12600   3.514  10.705   3.577
 8550ION    CL-12601  11.223   4.103   1.517
 8551ION    CL-12602   1.510   7.656  11.366
 8552ION    CL-12603   0.409   1.526  10.944
 8553ION    CL-12604   6.404   9.293   2.329
 8554ION    CL-12605   0.308  10.527  10.908
 8555ION    CL-12606   4.457   3.909  10.304
 8556ION    CL-12607   6.236   9.325  10.156
 8557ION    CL-12608   0.705   0.040   9.115
 8558ION    CL-12609   2.658   2.187  10.867
 8559ION    CL-12610   7.727   1.747   8.790
 8560ION    CL-12611   9.509   1.929   2.200
 8561ION    CL-12612   9.054   1.199  11.461
 8562ION    CL-12613   0.855   8.795  11.551
 8563ION    CL-12614   8.319   0.682   2.743
 8564ION    CL-12615   9.372  10.864   3.559
 8565ION    CL-12616  11.439   0.845   2.691
 8566ION    CL-12617   8.259   4.625  11.428
 8567ION    CL-12618   2.505   9.840   9.446
 8568ION    CL-12619   8.605   3.068   0.379
 8569ION    CL-12620   9.402   2.884   9.928
 8570ION    CL-12621   4.737   7.231   2.920
 8571ION    CL-12622   9.164   8.591  11.931
 8572ION    CL-12623   8.599   8.124  11.401
 8573ION    CL-12624   6.117   7.408   0.226
 8574ION    CL-12625  10.521   2.160   3.055
 8575ION    CL-12626  11.232   9.412   0.746
 8576ION    CL-12627   1.803   4.960   4.111
 8577ION    CL-12628   0.559   1.779  11.818
 8578ION    CL-12629   8.631  11.277   9.729
 8579ION    CL-12630   1.948  10.211   3.330
 8580ION    CL-12631   8.546   2.125  11.024
 8581ION    CL-12632  11.453   1.441   0.538
 8582ION    CL-12633   2.713  10.979   3.044
 8583ION    CL-12634   8.061   7.914  10.434
 8584ION    CL-12635  10.092   9.865  10.999
 8585ION    CL-12636   4.169   0.050   8.387
 8586ION    CL-12637   0.326   6.758   1.635
 8587ION    CL-12638   5.792   7.971   2.301
 8588ION    CL-12639   7.388   7.048   1.671
 8589ION    CL-12640   1.258   2.252   9.279
 8590ION    CL-12641   9.695   3.504  11.199
 8591ION    CL-12642   5.864  10.359  10.036
 8592ION    CL-12643   2.094  11.077   8.728
 8593ION    CL-12644   4.086   4.076   1.014
 8594ION    CL-12645   0.397  10.518   0.941
 8595ION    CL-12646   3.065   8.491   1.270
 8596ION    CL-12647   9.190  11.134   0.881
 8597ION    CL-12648  10.394   3.961   2.058
 8598ION    CL-12649  10.795   1.174  10.552
 8599ION    CL-12650   4.728   7.839   1.736
 8600ION    CL-12651   5.589   3.242  11.288
 8601ION    CL-12652  10.523   7.013   0.459
 8602ION    CL-12653   2.698   3.834  10.475
 8603ION    CL-12654   4.830   1.316   8.914
 8604ION    CL-12655   0.006   7.519   8.512
 8605ION    CL-12656   6.933   9.287  11.265
 8606ION    CL-12657   9.815   8.528   9.886
 8607ION    CL-12658   5.952   7.006   9.781
 8608ION    CL-12659   4.254   0.555  10.008
 8609ION    CL-12660   9.572   7.991  11.588
 8610ION    CL-12661   0.357   7.443   9.362
 8611ION    CL-12662   8.072   7.381   2.780
 8612ION    CL-12663   1.637   6.547   9.434
 8613ION    CL-12664   7.042   8.849   8.766
 8614ION    CL-12665   2.120  10.910   0.336
 8615ION    CL-12666   9.588   4.390   2.465
 8616ION    CL-12667   5.491   6.027  11.159
 8617ION    CL-12668   4.826   5.260  10.817
 8618ION    CL-12669   7.069   0.676   0.292
 8619ION    CL-12670   0.603   8.087   3.183
 8620ION    CL-12671  11.210   2.086  10.674
 8621ION    CL-12672   4.212   9.605   0.505
 8622ION    CL-12673   1.005  10.086   9.150
 8623ION    CL-12674   6.505   4.458  11.955
 8624ION    CL-12675   0.470   8.602   1.468
 8625ION    CL-12676   6.753   7.561  10.096
  11.50000  11.50000  12.00000
