Protein in INSANE! Membrane UpperLeaflet>POPC=1.0 LowerLeaflet>POPC=1.0
12914
    1AU     AUC    1   1.259   8.573   6.900 -0.0077 -0.0622 -0.1470
    1AU     AUC    2   1.169   8.418   6.607 -0.0177  0.0357 -0.0408
    1AU     AUC    3   1.074   8.287   6.908  0.0503 -0.0023  0.0089
    1AU     AUC    4   1.417   8.814   6.898 -0.0914  0.0621 -0.0831
    1AU     AUC    5   1.385   8.638   7.193 -0.0111  0.0916  0.0495
    1AU     AUC    6   1.582   8.520   6.968 -0.0572 -0.0402 -0.0910
    1AU     AUC    7   1.410   8.271   6.768 -0.0941 -0.0111 -0.0251
    1AU     AUC    8   1.100   8.828   7.021 -0.0218  0.0355 -0.0600
    1AU     AUC    9   0.937   8.577   6.845  0.1198  0.0470 -0.0539
    1AU     AUC   10   1.039   8.503   7.144 -0.0470 -0.0432 -0.0006
    1AU     AUC   11   1.378   8.320   7.111 -0.0549 -0.0546 -0.0212
    1AU     AUC   12   1.181   8.788   6.680  0.0672 -0.0215 -0.0463
    1AU     AUC   13   1.466   8.590   6.657 -0.1165  0.0612 -0.0497
    1AU     AUC   14   1.072   8.310   6.292 -0.0474 -0.0193  0.0049
    1AU     AUC   15   0.945   8.132   6.603 -0.0022  0.1030  0.0138
    1AU     AUC   16   0.867   7.999   6.909 -0.0242  0.0883 -0.0768
    1AU     AUC   17   1.593   9.139   6.918 -0.0620 -0.1094 -0.0841
    1AU     AUC   18   1.551   8.962   7.264  0.0091  0.0251  0.0812
    1AU     AUC   19   1.513   8.719   7.516  0.0122 -0.1365  0.0747
    1AU     AUC   20   1.919   8.506   7.012 -0.0488  0.0682 -0.0873
    1AU     AUC   21   1.785   8.223   6.800 -0.0147  0.0222  0.0242
    1AU     AUC   22   1.578   8.005   6.657 -0.1530 -0.1494 -0.0004
    1AU     AUC   23   0.961   9.064   7.137 -0.0576 -0.0095 -0.0019
    1AU     AUC   24   0.753   8.868   6.929 -0.0306  0.1248  0.0615
    1AU     AUC   25   0.582   8.612   6.752  0.0066  0.0724  0.0077
    1AU     AUC   26   0.821   8.454   7.406 -0.0247 -0.0451 -0.1050
    1AU     AUC   27   1.150   8.252   7.419  0.0448  0.0980  0.0164
    1AU     AUC   28   1.431   8.050   7.322  0.0194 -0.1254 -0.1022
    1AU     AUC   29   1.096   8.990   6.439 -0.0116 -0.0496 -0.0009
    1AU     AUC   30   1.372   8.851   6.381  0.0408  0.0991  0.0237
    1AU     AUC   31   1.654   8.660   6.379 -0.0367 -0.0062  0.0673
    1AU     AUC   32   0.829   8.216   7.174 -0.0291  0.0484  0.0358
    1AU     AUC   33   1.143   8.020   7.126  0.1075 -0.0217  0.0206
    1AU     AUC   34   1.068   8.655   6.319  0.0255  0.0595  0.0148
    1AU     AUC   35   1.375   8.446   6.326 -0.0816  0.0460 -0.0158
    1AU     AUC   36   1.182   8.573   7.516  0.1386 -0.0599 -0.0289
    1AU     AUC   37   1.515   8.377   7.446  0.0439  0.0615  0.0585
    1AU     AUC   38   1.333   9.098   6.694  0.0238  0.0202  0.0460
    1AU     AUC   39   1.624   8.964   6.645  0.1585 -0.0303  0.0247
    1AU     AUC   40   1.304   8.116   6.469  0.0488 -0.0207  0.0084
    1AU     AUC   41   1.237   7.986   6.801 -0.0071 -0.0245 -0.0048
    1AU     AUC   42   1.769   8.837   7.000 -0.0233  0.0162  0.0432
    1AU     AUC   43   1.745   8.625   7.300 -0.1426 -0.0506 -0.0870
    1AU     AUC   44   0.811   8.471   6.503  0.1274 -0.0323 -0.0691
    1AU     AUC   45   0.703   8.308   6.824  0.0503  0.0605  0.0101
    1AU     AUC   46   1.266   9.133   7.069  0.0110 -0.0263 -0.1414
    1AU     AUC   47   1.219   8.881   7.347  0.0015 -0.0263  0.0079
    1AU     AUC   48   1.743   8.246   7.156  0.0448  0.0844  0.0293
    1AU     AUC   49   1.542   8.020   6.995 -0.0111 -0.0791 -0.0244
    1AU     AUC   50   0.879   8.787   7.301 -0.0262  0.0039 -0.0170
    1AU     AUC   51   0.679   8.578   7.082 -0.0700  0.0095  0.0832
    1AU     AUC   52   1.773   8.590   6.698 -0.1112 -0.0724  0.0148
    1AU     AUC   53   1.647   8.333   6.486  0.0919 -0.0164  0.0606
    1AU     AUC   54   1.016   9.066   6.793  0.0468 -0.0018 -0.0659
    1AU     AUC   55   0.841   8.801   6.569  0.0413 -0.0254  0.0430
    1AU    AUSL   56   0.772   7.896   7.225 -0.1816  0.0616 -0.0455
    1AU    AUSL   57   0.509   8.266   7.331  0.0382 -0.0550  0.0693
    1AU     AUL   58   0.391   7.894   7.270  0.1139  0.0082 -0.0682
    1AU       S   59   0.058   8.180   7.208  0.0364 -0.1216  0.1722
    1AU     LIG   60  -0.434   8.132   7.175 -0.2694  0.1165 -0.0705
    1AU     LIG   61  -0.677   8.389   7.291  0.5268 -0.1010 -0.2826
    1AU     LIG   62  -1.044   8.671   7.300 -0.0977 -0.3025  0.0632
    1AU     LIG   63  -1.483   8.846   7.491 -0.1122 -0.2940  0.1273
    1AU     LIG   64  -1.707   9.072   7.836  0.1714  0.0712  0.2405
    1AU       S   65   0.596   7.710   7.657 -0.1368  0.2165  0.1138
    1AU     LIG   66   0.476   7.234   7.549 -0.2025  0.2975 -0.3213
    1AU     LIG   67   0.236   6.818   7.532 -0.0731 -0.1642  0.0736
    1AU     LIG   68  -0.206   6.622   7.397 -0.4262 -0.0762  0.2856
    1AU     LIG   69  -0.113   6.284   7.172 -0.0572  0.1461  0.4358
    1AU     LIG   70   0.148   5.972   6.904 -0.2222  0.0265 -0.1254
    1AU    AUSL   71   0.837   8.132   7.590  0.0791 -0.0106  0.0041
    1AU    AUSL   72   1.281   8.100   7.712 -0.0096  0.0007 -0.0479
    1AU     AUL   73   1.026   7.870   7.752 -0.0710  0.0266  0.0830
    1AU       S   74   0.615   8.064   7.765  0.0284  0.0799 -0.1196
    1AU     LIG   75   0.215   8.036   7.731 -0.4399 -0.2269  0.0314
    1AU     LIG   76  -0.236   7.915   7.851 -0.2610  0.0532  0.0923
    1AU     LIG   77  -0.588   7.890   7.568  0.2004 -0.0131  0.1822
    1AU     LIG   78  -0.996   7.612   7.500  0.1924 -0.0190 -0.0478
    1AU     LIG   79  -1.279   7.594   7.807  0.4177 -0.1570  0.3300
    1AU       S   80   1.118   8.223   8.037 -0.1332  0.1929 -0.1113
    1AU     LIG   81   1.181   7.792   8.184 -0.0212  0.5602  0.2486
    1AU     LIG   82   1.285   7.352   8.181  0.0254  0.2603  0.2477
    1AU     LIG   83   1.355   6.938   8.040  0.0446  0.0559 -0.0383
    1AU     LIG   84   1.118   6.824   7.685 -0.3016 -0.1852  0.0471
    1AU     LIG   85   1.136   6.570   7.346  0.0452  0.2121 -0.1229
    1AU    AUSL   86   1.173   7.991   7.331  0.0465 -0.0195  0.0192
    1AU    AUSL   87   1.060   7.643   7.029 -0.0343  0.0757 -0.0385
    1AU     AUL   88   0.935   7.618   7.346  0.0369 -0.0419 -0.0095
    1AU       S   89   1.502   7.666   7.729  0.1257  0.0709 -0.0143
    1AU     LIG   90   1.701   7.724   8.054  0.3753  0.2239 -0.0647
    1AU     LIG   91   2.060   7.985   8.294  0.1336  0.4287  0.1212
    1AU     LIG   92   2.350   8.382   8.246  0.0675 -0.1656  0.1340
    1AU     LIG   93   2.515   8.437   7.832 -0.0737 -0.1052 -0.2693
    1AU     LIG   94   2.710   8.390   7.432  0.1597  0.1786  0.0424
    1AU       S   95   1.090   7.294   7.051 -0.3681 -0.1119  0.1442
    1AU     LIG   96   0.854   7.100   7.191  0.2766 -0.1800  0.2764
    1AU     LIG   97   0.745   6.904   7.389 -0.0400  0.0444  0.1757
    1AU     LIG   98   0.626   6.491   7.564  0.1966 -0.3348  0.0133
    1AU     LIG   99   0.730   6.059   7.765  0.0334  0.0191  0.3220
    1AU     LIG  100   0.746   5.786   8.091  0.0786  0.2456  0.0930
    1AU    AUSL  101   1.219   8.475   6.089  0.0812  0.0278 -0.0698
    1AU    AUSL  102   1.653   8.345   6.106  0.0579 -0.0460  0.0351
    1AU     AUL  103   1.415   8.333   5.766 -0.0043  0.0548 -0.0010
    1AU       S  104   1.533   8.737   5.677  0.0704 -0.5936  0.0657
    1AU     LIG  105   1.890   8.450   5.635 -0.3196  0.2799 -0.1472
    1AU     LIG  106   2.165   8.166   5.691 -0.1232 -0.0910 -0.0959
    1AU     LIG  107   2.198   7.761   5.715  0.1884  0.0921 -0.0379
    1AU     LIG  108   2.127   7.555   6.115  0.2304 -0.1147 -0.0261
    1AU     LIG  109   2.007   7.064   6.130 -0.2141 -0.1795  0.0779
    1AU       S  110   1.734   7.970   5.878  0.1889 -0.1341  0.2498
    1AU     LIG  111   1.285   7.786   5.616  0.1545  0.0456  0.2702
    1AU     LIG  112   0.903   8.066   5.565 -0.5132  0.2642 -0.3710
    1AU     LIG  113   0.506   8.146   5.671 -0.1024 -0.1273  0.0867
    1AU     LIG  114   0.137   8.311   5.796 -0.1315 -0.1278 -0.1341
    1AU     LIG  115  -0.025   8.525   6.179  0.0915 -0.0902 -0.0438
    1AU    AUSL  116   1.175   8.888   5.976  0.0884  0.0296 -0.0479
    1AU    AUSL  117   0.804   8.479   6.027 -0.0026 -0.0152 -0.0348
    1AU     AUL  118   1.000   8.577   5.791 -0.0101  0.0885  0.0041
    1AU       S  119   0.532   8.683   5.814  0.2122 -0.0668 -0.2502
    1AU     LIG  120   0.664   8.573   5.415 -0.1077  0.0766 -0.2629
    1AU     LIG  121   1.007   8.672   5.272  0.0654 -0.0651  0.2161
    1AU     LIG  122   1.397   8.856   5.188  0.0662  0.2136 -0.1780
    1AU     LIG  123   1.718   9.033   5.116  0.1420  0.0779 -0.0920
    1AU     LIG  124   1.833   9.370   5.224 -0.0833  0.1088 -0.3988
    1AU       S  125   1.346   8.825   5.659 -0.2853 -0.1238  0.2676
    1AU     LIG  126   1.013   9.079   5.524 -0.1037  0.0130 -0.0646
    1AU     LIG  127   0.748   9.353   5.545  0.0556  0.1928 -0.1067
    1AU     LIG  128   0.375   9.415   5.839 -0.5048 -0.0140  0.0704
    1AU     LIG  129  -0.141   9.370   5.711  0.0873 -0.3476 -0.0763
    1AU     LIG  130  -0.428   9.114   5.535 -0.3233  0.3288 -0.3528
    1AU    AUSL  131   1.538   8.743   6.189 -0.0736  0.0051 -0.0781
    1AU    AUSL  132   1.290   9.122   6.311 -0.0995  0.0472  0.0514
    1AU     AUL  133   1.337   9.138   5.997  0.0990  0.0561 -0.1058
    1AU       S  134   1.584   9.548   6.069 -0.1196 -0.0958 -0.3193
    1AU     LIG  135   1.184   9.594   5.781 -0.2286 -0.3576 -0.0031
    1AU     LIG  136   0.807   9.817   5.825 -0.2824  0.2734 -0.1887
    1AU     LIG  137   0.373   9.891   6.089  0.1928 -0.0226 -0.2273
    1AU     LIG  138   0.024   9.861   6.470 -0.1913 -0.3577  0.0544
    1AU     LIG  139  -0.134  10.086   6.769 -0.0438 -0.1608 -0.1698
    1AU       S  140   1.665   8.791   5.914  0.2218  0.3712  0.5828
    1AU     LIG  141   2.169   8.795   5.988 -0.0322  0.1468 -0.3541
    1AU     LIG  142   2.521   8.647   5.833  0.0630 -0.0929 -0.1617
    1AU     LIG  143   2.640   8.424   5.424  0.2016 -0.3900 -0.1442
    1AU     LIG  144   3.028   8.561   5.259  0.2950 -0.0499  0.3060
    1AU     LIG  145   3.289   8.544   4.984 -0.1202  0.0645  0.0266
    1AU    AUSL  146   1.456   8.502   7.786  0.0583  0.0962 -0.0427
    1AU    AUSL  147   1.642   8.174   7.515  0.0423  0.0756 -0.0203
    1AU     AUL  148   1.579   8.167   7.899 -0.0422  0.0450 -0.0301
    1AU       S  149   1.113   8.393   8.056  0.0666 -0.2460  0.1039
    1AU     LIG  150   1.127   8.727   8.483  0.1987  0.0401  0.0147
    1AU     LIG  151   0.927   9.097   8.665 -0.0750 -0.1870  0.1583
    1AU     LIG  152   0.833   9.486   8.672 -0.1209  0.5447 -0.4134
    1AU     LIG  153   0.841   9.917   8.671 -0.0410 -0.0808  0.1546
    1AU     LIG  154   0.865  10.333   8.904  0.3172 -0.0174  0.0894
    1AU       S  155   2.085   8.197   7.753  0.1232  0.0826 -0.0804
    1AU     LIG  156   2.172   7.731   7.806  0.0837 -0.1714  0.2857
    1AU     LIG  157   2.021   7.376   7.794 -0.0662  0.0591  0.1490
    1AU     LIG  158   1.657   7.147   7.645 -0.1041 -0.0972 -0.0764
    1AU     LIG  159   1.643   6.699   7.604  0.0454 -0.0660 -0.3754
    1AU     LIG  160   1.568   6.331   7.341  0.1007 -0.4267  0.0964
    1AU    AUSL  161   1.089   8.465   7.584  0.1257 -0.0896 -0.0106
    1AU    AUSL  162   1.184   8.835   7.808  0.1009  0.0739  0.0511
    1AU     AUL  163   1.353   8.768   7.960 -0.0646  0.0200 -0.0626
    1AU       S  164   0.928   8.911   8.081 -0.0522 -0.3665  0.0913
    1AU     LIG  165   1.202   9.187   8.274  0.1142 -0.3378 -0.0419
    1AU     LIG  166   1.267   9.534   8.262 -0.4839 -0.1881  0.0956
    1AU     LIG  167   1.509   9.911   8.061 -0.0918  0.2058  0.1558
    1AU     LIG  168   1.718  10.218   7.908  0.1573 -0.1660 -0.0510
    1AU     LIG  169   1.734  10.628   7.652  0.0630 -0.0917  0.0761
    1AU       S  170   0.978   8.366   7.974 -0.0776 -0.0557 -0.1098
    1AU     LIG  171   0.582   8.387   8.172 -0.1366 -0.1267 -0.0167
    1AU     LIG  172   0.243   8.022   8.261 -0.4380 -0.1987 -0.1422
    1AU     LIG  173   0.212   7.671   8.085 -0.0014 -0.2317 -0.0927
    1AU     LIG  174   0.093   7.532   7.759  0.0002  0.0550 -0.0745
    1AU     LIG  175  -0.434   7.455   7.611 -0.2832 -0.0198 -0.1490
    1AU    AUSL  176   1.554   9.363   6.553 -0.0330  0.0128  0.0799
    1AU    AUSL  177   1.115   9.318   6.645 -0.0343  0.0330 -0.0748
    1AU     AUL  178   1.222   9.443   6.331 -0.0205 -0.0454  0.0804
    1AU       S  179   1.623   9.645   6.386  0.2595 -0.2669  0.0263
    1AU     LIG  180   1.891   9.898   6.669 -0.0311 -0.2177  0.4158
    1AU     LIG  181   1.862  10.377   6.822 -0.2175  0.1347 -0.0841
    1AU     LIG  182   1.866  10.836   6.762 -0.1700 -0.2151 -0.2022
    1AU     LIG  183   1.939  11.256   6.744 -0.6264 -0.2106 -0.0279
    1AU     LIG  184   2.149  11.471   6.539  0.1689 -0.1147  0.1960
    1AU       S  185   1.175   9.766   6.638  0.3876 -0.0290 -0.0476
    1AU     LIG  186   1.306   9.981   6.270 -0.0739 -0.2191  0.1247
    1AU     LIG  187   1.477  10.346   6.491  0.0616 -0.4414 -0.0162
    1AU     LIG  188   1.501  10.820   6.464  0.0361 -0.3540 -0.1351
    1AU     LIG  189   1.812  11.140   6.290 -0.0451 -0.0007  0.1534
    1AU     LIG  190   2.245  11.182   6.124  0.2269  0.0398 -0.5039
    1AU    AUSL  191   1.739   9.109   6.247  0.0345 -0.0023  0.0334
    1AU    AUSL  192   1.899   9.202   6.784  0.0670  0.0337  0.0174
    1AU     AUL  193   1.963   9.289   6.470 -0.0204  0.1160 -0.0512
    1AU       S  194   2.231   9.443   6.807 -0.3068  0.0002  0.1491
    1AU     LIG  195   2.446   9.801   6.999  0.2419  0.4130  0.4320
    1AU     LIG  196   2.647  10.201   7.007 -0.2355 -0.4601  0.5115
    1AU     LIG  197   2.774  10.640   6.811 -0.2111 -0.0548  0.0611
    1AU     LIG  198   2.710  11.096   6.997 -0.3196 -0.1542 -0.0565
    1AU     LIG  199   2.744  11.493   6.727 -0.2270 -0.0352  0.2837
    1AU       S  200   1.742   9.377   6.058  0.1702 -0.1058 -0.2552
    1AU     LIG  201   2.100   9.665   6.292  0.0281 -0.1923  0.3617
    1AU     LIG  202   2.263  10.077   6.293 -0.3956  0.3091 -0.0794
    1AU     LIG  203   2.436  10.427   6.584  0.3432  0.1205  0.1438
    1AU     LIG  204   2.923  10.519   6.357 -0.0364  0.2266 -0.3507
    1AU     LIG  205   3.299  10.507   6.451  0.0784 -0.2006  0.0990
    1AU    AUSL  206   1.321   7.732   6.470 -0.0351  0.0676 -0.0496
    1AU    AUSL  207   1.301   8.060   6.129  0.0017  0.0352  0.0205
    1AU     AUL  208   1.296   7.658   6.098  0.0475  0.0008  0.0354
    1AU       S  209   1.607   7.911   5.947 -0.1349  0.0276  0.3974
    1AU     LIG  210   1.651   7.433   5.902 -0.2768  0.3574  0.1545
    1AU     LIG  211   1.485   7.191   6.153  0.0241 -0.0634 -0.3324
    1AU     LIG  212   1.248   7.054   6.550 -0.1799  0.3630  0.4688
    1AU     LIG  213   1.068   6.829   6.877  0.1677  0.2367 -0.0516
    1AU     LIG  214   0.876   6.403   6.971 -0.1537  0.2214  0.3042
    1AU       S  215   0.965   7.415   6.411 -0.1046 -0.2900 -0.2412
    1AU     LIG  216   0.670   7.068   6.639 -0.2456  0.0403  0.0934
    1AU     LIG  217   0.550   6.747   6.899 -0.1300 -0.1761  0.6633
    1AU     LIG  218   0.336   6.418   7.066 -0.1757  0.5993 -0.1600
    1AU     LIG  219   0.637   6.103   7.253 -0.0990  0.1593 -0.3702
    1AU     LIG  220   1.048   6.047   7.341  0.0753  0.2714  0.0677
    1AU    AUSL  221   0.955   7.913   6.281  0.1058 -0.0222 -0.0086
    1AU    AUSL  222   0.595   7.941   6.554  0.0119  0.0557 -0.0416
    1AU     AUL  223   0.668   7.919   6.136 -0.0571  0.0642  0.0243
    1AU       S  224   0.860   7.573   6.360 -0.0867  0.0019 -0.0693
    1AU     LIG  225   0.443   7.364   6.272 -0.2967 -0.1787  0.0794
    1AU     LIG  226   0.178   7.063   6.530 -0.1055 -0.3594  0.0291
    1AU     LIG  227   0.094   6.932   7.011 -0.1276 -0.0340 -0.3450
    1AU     LIG  228  -0.356   7.036   7.172 -0.3161  0.2749  0.0073
    1AU     LIG  229  -0.762   7.088   7.247  0.3538  0.2962 -0.0314
    1AU       S  230   0.276   7.861   6.376  0.3730 -0.2063  0.3604
    1AU     LIG  231   0.180   7.510   6.673 -0.1611 -0.0317 -0.1503
    1AU     LIG  232  -0.195   7.323   6.740  0.1506 -0.0313 -0.0833
    1AU     LIG  233  -0.729   7.238   6.707  0.0714  0.1160  0.0952
    1AU     LIG  234  -1.099   7.306   6.823 -0.1727 -0.0197 -0.0451
    1AU     LIG  235  -1.443   6.956   6.856  0.1886 -0.2575 -0.0896
    1AU    AUSL  236   0.968   7.878   6.705  0.0187  0.0685  0.0193
    1AU    AUSL  237   1.429   7.819   6.868  0.0804  0.0928 -0.0024
    1AU     AUL  238   1.293   7.553   6.715 -0.0404  0.0134 -0.0554
    1AU       S  239   1.341   7.272   7.104  0.1766  0.0233  0.2372
    1AU     LIG  240   1.524   6.894   7.129  0.2324  0.2519 -0.1110
    1AU     LIG  241   1.918   6.623   7.126 -0.0265 -0.2810  0.4964
    1AU     LIG  242   2.064   6.324   7.432  0.1260  0.0694  0.0803
    1AU     LIG  243   2.502   6.183   7.390 -0.6656  0.2282  0.1050
    1AU     LIG  244   2.779   6.098   7.606 -0.0538  0.3325 -0.2245
    1AU       S  245   0.850   7.555   6.623 -0.0943  0.2862 -0.4810
    1AU     LIG  246   0.498   7.458   7.031 -0.3675  0.0065  0.0238
    1AU     LIG  247   0.116   7.412   7.194  0.2012 -0.2369  0.0946
    1AU     LIG  248  -0.229   7.669   7.189  0.0054 -0.1597 -0.2215
    1AU     LIG  249  -0.552   7.646   6.985  0.1507 -0.3739 -0.3281
    1AU     LIG  250  -0.943   7.766   7.030 -0.2826  0.1176 -0.1182
    1AU    AUSL  251   2.040   8.725   7.249 -0.0247 -0.0497  0.0118
    1AU    AUSL  252   1.825   8.546   7.581  0.0310 -0.0632 -0.0060
    1AU     AUL  253   2.216   8.741   7.597  0.0369 -0.0494  0.0600
    1AU       S  254   1.945   8.485   7.844  0.3540 -0.4734  0.3094
    1AU     LIG  255   1.762   8.610   8.165  0.0074  0.2543 -0.1427
    1AU     LIG  256   1.490   8.414   8.320  0.3365  0.0801  0.0516
    1AU     LIG  257   1.556   7.942   8.486  0.1580  0.1770  0.2096
    1AU     LIG  258   1.618   7.540   8.552  0.1261 -0.0114 -0.1100
    1AU     LIG  259   1.774   7.234   8.688 -0.2838  0.2345  0.4009
    1AU       S  260   2.374   8.544   7.171  0.1859 -0.1530  0.0200
    1AU     LIG  261   2.666   8.925   7.305  0.0040  0.0841 -0.0300
    1AU     LIG  262   2.707   9.273   7.492 -0.0254 -0.0010  0.1584
    1AU     LIG  263   2.901   9.597   7.379  0.1269  0.0114 -0.4345
    1AU     LIG  264   3.009   9.984   7.291 -0.1707 -0.0645 -0.2253
    1AU     LIG  265   3.178  10.387   7.220  0.1002  0.1854  0.2136
    1AU    AUSL  266   1.772   9.054   7.137  0.0259 -0.0090  0.0571
    1AU    AUSL  267   2.135   8.837   6.857  0.0091  0.0188  0.0492
    1AU     AUL  268   2.140   9.098   7.123 -0.0264 -0.0323  0.0731
    1AU       S  269   1.853   9.582   7.028 -0.1918  0.3272  0.2214
    1AU     LIG  270   2.020   9.998   7.193 -0.1598 -0.0101 -0.3012
    1AU     LIG  271   2.222  10.405   7.331 -0.2791 -0.3132 -0.3452
    1AU     LIG  272   2.352  10.631   7.025  0.0078 -0.4980 -0.0218
    1AU     LIG  273   2.377  10.902   6.603  0.2589  0.3331  0.0559
    1AU     LIG  274   2.461  10.750   6.172 -0.2048  0.0447 -0.0864
    1AU       S  275   2.471   8.979   6.796  0.2825 -0.0768  0.3788
    1AU     LIG  276   2.723   9.335   7.005  0.2355  0.1314 -0.0053
    1AU     LIG  277   2.954   9.651   6.890  0.1696  0.1730 -0.0900
    1AU     LIG  278   3.439   9.554   6.736 -0.2978 -0.1089 -0.2519
    1AU     LIG  279   3.708   9.574   6.470 -0.0177  0.0207  0.3513
    1AU     LIG  280   4.119   9.714   6.614  0.5665  0.1623  0.1768
    1AU    AUSL  281   1.824   8.973   7.555  0.0264 -0.0183 -0.0466
    1AU    AUSL  282   1.574   9.343   7.347  0.0092 -0.0118  0.0193
    1AU     AUL  283   1.899   9.325   7.452 -0.0048  0.0842 -0.0003
    1AU       S  284   1.493   9.376   7.729  0.0896 -0.1430 -0.1480
    1AU     LIG  285   1.703   9.835   7.583 -0.1862 -0.3582 -0.0171
    1AU     LIG  286   1.491  10.253   7.463 -0.3777 -0.3627  0.3245
    1AU     LIG  287   1.279  10.481   7.642  0.0391  0.3153 -0.2635
    1AU     LIG  288   1.030  10.281   7.844 -0.3018 -0.2234  0.0059
    1AU     LIG  289   0.716  10.091   7.681 -0.3044  0.3711  0.1887
    1AU       S  290   1.893   8.948   7.827 -0.1732 -0.7119 -0.1751
    1AU     LIG  291   2.271   9.169   7.781 -0.2264 -0.0428  0.0924
    1AU     LIG  292   2.333   9.550   7.622 -0.0288  0.2651  0.1046
    1AU     LIG  293   2.475   9.986   7.467 -0.0880 -0.2396 -0.1982
    1AU     LIG  294   2.689  10.352   7.484 -0.3955  0.1843  0.1467
    1AU     LIG  295   2.776  10.730   7.316 -0.1802 -0.1953  0.5046
    1AU    AUSL  296   0.428   8.348   6.583 -0.0412 -0.0977 -0.0490
    1AU    AUSL  297   0.632   8.143   6.931  0.0728 -0.0302  0.0665
    1AU     AUL  298   0.404   7.910   6.806 -0.0206 -0.0997 -0.0201
    1AU       S  299   0.195   8.228   6.501 -0.0989  0.3923  0.2769
    1AU     LIG  300  -0.184   8.330   6.625 -0.1774  0.1647  0.0792
    1AU     LIG  301  -0.552   8.502   6.756 -0.0477 -0.0575 -0.0331
    1AU     LIG  302  -0.958   8.272   6.897  0.2424 -0.0861 -0.0506
    1AU     LIG  303  -1.384   8.250   6.813  0.2147 -0.2336 -0.1054
    1AU     LIG  304  -1.851   8.224   6.654 -0.0906 -0.4582 -0.1748
    1AU       S  305   0.070   8.144   6.990 -0.0799 -0.3475  0.1016
    1AU     LIG  306  -0.166   7.888   6.711 -0.1206  0.0557 -0.2409
    1AU     LIG  307  -0.445   7.687   6.430  0.3676  0.0780 -0.3105
    1AU     LIG  308  -0.838   7.577   6.327 -0.1434 -0.0211 -0.0941
    1AU     LIG  309  -1.231   7.720   6.609 -0.3488 -0.2232  0.3708
    1AU     LIG  310  -1.540   7.792   6.434  0.1122  0.5066  0.1922
    1AU    AUSL  311   0.801   8.289   6.391  0.0238  0.0212 -0.0711
    1AU    AUSL  312   0.497   8.647   6.307 -0.0389  0.0033 -0.0215
    1AU     AUL  313   0.495   8.377   6.189 -0.0307  0.0629  0.0788
    1AU       S  314   0.210   8.016   6.271  0.4585  0.3368 -0.2425
    1AU     LIG  315  -0.185   7.998   6.077 -0.0980 -0.3085 -0.0497
    1AU     LIG  316  -0.505   8.423   6.183  0.1638  0.2548 -0.1482
    1AU     LIG  317  -0.790   8.730   6.268 -0.0798 -0.2217 -0.1705
    1AU     LIG  318  -0.953   9.230   6.247 -0.3076  0.1301  0.0803
    1AU     LIG  319  -1.230   9.467   6.142  0.0997 -0.3582 -0.2460
    1AU       S  320   0.332   8.775   5.922  0.4760  0.0498 -0.1075
    1AU     LIG  321   0.093   9.102   6.174  0.0886  0.1599 -0.3364
    1AU     LIG  322  -0.138   9.350   6.476  0.0304 -0.3572  0.1450
    1AU     LIG  323  -0.442   9.758   6.580  0.3369  0.3278  0.1122
    1AU     LIG  324  -0.474  10.163   6.392  0.2579 -0.3578 -0.2691
    1AU     LIG  325  -0.342  10.563   6.500  0.2545 -0.1966 -0.3196
    1AU    AUSL  326   1.130   9.300   7.370 -0.1333  0.0022 -0.0308
    1AU    AUSL  327   1.407   9.374   6.955  0.0495 -0.0310  0.0747
    1AU     AUL  328   1.396   9.578   7.278  0.1045  0.0248  0.0242
    1AU       S  329   1.384   9.683   6.820 -0.2460  0.2234  0.0083
    1AU     LIG  330   1.461  10.137   6.982  0.7188  0.3660 -0.1489
    1AU     LIG  331   1.354  10.589   6.974 -0.3275 -0.2612  0.3022
    1AU     LIG  332   1.462  11.070   6.977  0.3960  0.0041 -0.0869
    1AU     LIG  333   1.710  11.128   7.423 -0.1600 -0.2157  0.1650
    1AU     LIG  334   1.726  11.035   7.844  0.0485  0.0351 -0.3091
    1AU       S  335   1.386   9.524   7.746 -0.0412  0.3750  0.1010
    1AU     LIG  336   1.167   9.842   7.598 -0.0436 -0.3417 -0.3960
    1AU     LIG  337   1.037  10.051   7.315 -0.0220  0.1355 -0.0982
    1AU     LIG  338   0.972  10.455   7.247 -0.1075 -0.2475  0.0269
    1AU     LIG  339   0.926  10.856   7.000  0.2208  0.1577  0.0071
    1AU     LIG  340   1.056  11.033   6.612 -0.2495  0.3332 -0.4943
    1AU    AUSL  341   1.402   8.971   7.487  0.1432 -0.0300 -0.1059
    1AU    AUSL  342   0.949   8.933   7.451  0.0414 -0.0042 -0.0532
    1AU     AUL  343   1.024   9.143   7.670 -0.1408 -0.0023 -0.0657
    1AU       S  344   0.720   9.055   8.037 -0.0307 -0.0199  0.0855
    1AU     LIG  345   0.654   9.368   7.882  0.0471 -0.2947  0.1415
    1AU     LIG  346   0.768   9.553   7.610 -0.0082  0.3159 -0.4185
    1AU     LIG  347   0.646   9.707   7.251  0.1875 -0.2240  0.3704
    1AU     LIG  348   0.486  10.073   7.174  0.3810  0.0988  0.0157
    1AU     LIG  349   0.402  10.467   7.380  0.2748 -0.4121  0.4194
    1AU       S  350   1.476   9.248   7.769  0.0534  0.4458 -0.3374
    1AU     LIG  351   1.670   9.222   8.184  0.0364  0.3186 -0.0130
    1AU     LIG  352   2.116   9.172   8.330 -0.2414 -0.2078  0.3075
    1AU     LIG  353   2.433   9.514   8.136 -0.1941  0.3910 -0.5222
    1AU     LIG  354   2.640   9.876   7.966 -0.2936 -0.1126 -0.1477
    1AU     LIG  355   2.745  10.260   8.066  0.2389 -0.1047  0.0147
    1AU    AUSL  356   1.768   7.944   7.179  0.0274  0.0009 -0.0292
    1AU    AUSL  357   1.990   8.294   7.289 -0.0812 -0.0499 -0.1264
    1AU     AUL  358   1.840   7.903   7.476  0.0137 -0.0983 -0.0401
    1AU       S  359   2.194   8.223   7.488  0.2136 -0.4256  0.1191
    1AU     LIG  360   2.562   7.925   7.527  0.4002 -0.2355  0.3214
    1AU     LIG  361   2.924   7.696   7.353  0.0704 -0.0242  0.2922
    1AU     LIG  362   3.094   7.328   7.079 -0.1482 -0.2670 -0.1035
    1AU     LIG  363   3.213   6.842   7.282 -0.1950 -0.1097 -0.0543
    1AU     LIG  364   3.116   6.437   7.589  0.0505 -0.2189 -0.0377
    1AU       S  365   2.111   7.664   7.204  0.1250  0.1794 -0.0872
    1AU     LIG  366   2.466   7.381   7.381 -0.0674  0.2822  0.1101
    1AU     LIG  367   2.709   7.097   7.405 -0.0551  0.0202  0.0489
    1AU     LIG  368   2.705   6.671   7.489 -0.0549  0.3424 -0.0771
    1AU     LIG  369   2.886   6.383   7.171 -0.4571  0.5175 -0.2416
    1AU     LIG  370   3.105   5.959   7.250  0.0147 -0.1295 -0.2141
    1AU    AUSL  371   2.112   8.087   6.949 -0.0613  0.0635 -0.1189
    1AU    AUSL  372   2.010   8.113   6.519 -0.0461 -0.0791 -0.0334
    1AU     AUL  373   2.313   7.898   6.620  0.1077 -0.0775 -0.1129
    1AU       S  374   2.225   7.943   7.086 -0.0765  0.0013  0.4778
    1AU     LIG  375   2.593   8.115   7.030 -0.3199  0.1287 -0.1472
    1AU     LIG  376   3.053   8.065   7.032 -0.4425  0.1765  0.3174
    1AU     LIG  377   3.362   7.742   7.112  0.1314 -0.0344  0.2724
    1AU     LIG  378   3.597   7.431   6.902 -0.0357 -0.3219  0.0701
    1AU     LIG  379   3.865   7.325   6.561  0.0455  0.0129 -0.0170
    1AU       S  380   2.380   8.355   6.542 -0.1038 -0.0362 -0.1050
    1AU     LIG  381   2.737   8.115   6.532  0.1898 -0.1517 -0.0082
    1AU     LIG  382   3.184   8.126   6.531 -0.2278  0.1473 -0.0239
    1AU     LIG  383   3.518   8.344   6.805  0.3335  0.0326  0.2703
    1AU     LIG  384   3.857   8.432   6.918  0.1571 -0.4027 -0.0993
    1AU     LIG  385   4.278   8.525   6.981  0.2855 -0.2218 -0.1856
    1AU    AUSL  386   1.836   7.790   6.757 -0.0109 -0.0983  0.0252
    1AU    AUSL  387   1.439   7.694   7.267  0.0199 -0.0455  0.0771
    1AU     AUL  388   1.652   7.585   7.018  0.0336 -0.0220  0.0092
    1AU       S  389   1.321   7.423   7.351 -0.6004  0.0252 -0.0675
    1AU     LIG  390   1.090   7.298   7.692  0.4886  0.0790  0.0412
    1AU     LIG  391   0.838   7.328   7.963  0.1886 -0.3203 -0.2128
    1AU     LIG  392   0.408   7.262   8.123 -0.0007 -0.5127  0.1128
    1AU     LIG  393   0.151   7.025   8.019 -0.3302  0.1133 -0.2643
    1AU     LIG  394  -0.145   7.079   7.638 -0.3662 -0.1524  0.2294
    1AU       S  395   2.126   7.620   6.948 -0.2553  0.2793  0.1795
    1AU     LIG  396   2.244   7.296   6.584 -0.1008  0.2412 -0.1164
    1AU     LIG  397   2.025   6.854   6.594 -0.1848 -0.1987 -0.2322
    1AU     LIG  398   1.654   6.679   6.622  0.3151  0.0896  0.0730
    1AU     LIG  399   1.291   6.596   6.338 -0.1634  0.0426  0.1566
    1AU     LIG  400   0.959   6.617   6.442 -0.2971  0.2351  0.2277
    1AU    AUSL  401   0.615   8.687   7.322  0.0314  0.0646  0.0207
    1AU    AUSL  402   0.381   8.497   6.974 -0.0340 -0.0841 -0.0103
    1AU     AUL  403   0.337   8.517   7.425  0.0986  0.0728  0.0516
    1AU       S  404   0.120   8.937   7.412  0.4536  0.0202  0.0627
    1AU     LIG  405  -0.202   9.218   7.658  0.2547  0.0235 -0.0862
    1AU     LIG  406  -0.539   9.460   7.525  0.1845 -0.0080  0.4031
    1AU     LIG  407  -0.951   9.355   7.559 -0.2364 -0.0655  0.2249
    1AU     LIG  408  -1.251   9.729   7.468  0.4210  0.0221  0.0331
    1AU     LIG  409  -1.562   9.849   7.299  0.3159  0.1458 -0.2883
    1AU       S  410   0.180   8.378   6.995  0.0687  0.0479  0.3901
    1AU     LIG  411  -0.195   8.639   7.045 -0.2443 -0.0691 -0.0512
    1AU     LIG  412  -0.522   8.849   7.230  0.4962  0.0352  0.3089
    1AU     LIG  413  -0.676   8.948   7.665 -0.1095  0.0126 -0.2291
    1AU     LIG  414  -0.768   9.135   8.102 -0.2636  0.0262  0.0561
    1AU     LIG  415  -0.577   9.296   8.541 -0.0064 -0.1988 -0.0654
    1AU    AUSL  416   0.629   9.136   7.311  0.0536  0.0021  0.0070
    1AU    AUSL  417   0.739   8.659   7.721  0.0867 -0.0346  0.0318
    1AU     AUL  418   0.564   8.944   7.584  0.1342  0.0753  0.0021
    1AU       S  419   0.188   9.106   7.374  0.0991  0.0129 -0.4120
    1AU     LIG  420   0.268   9.456   7.479  0.0268  0.3590 -0.2636
    1AU     LIG  421   0.236   9.879   7.531  0.1245  0.2140 -0.5497
    1AU     LIG  422   0.012  10.199   7.278  0.3135 -0.1765  0.1009
    1AU     LIG  423   0.036  10.525   6.900  0.0352  0.1514 -0.2591
    1AU     LIG  424   0.058  10.855   6.495 -0.0958  0.1772 -0.3057
    1AU       S  425   0.717   8.802   8.006  0.2844 -0.4350  0.2907
    1AU     LIG  426   0.272   8.657   7.889 -0.2253  0.0972  0.1459
    1AU     LIG  427  -0.161   8.580   7.627 -0.2330  0.3158 -0.1084
    1AU     LIG  428  -0.565   8.452   7.756 -0.2050  0.0381 -0.2200
    1AU     LIG  429  -0.960   8.545   7.828 -0.1164  0.2094 -0.0449
    1AU     LIG  430  -1.319   8.553   7.920 -0.1432 -0.2620  0.0327
    1AU    AUSL  431   0.400   8.898   7.018 -0.0541 -0.0115  0.0017
    1AU    AUSL  432   0.765   9.131   6.905  0.0518 -0.0412  0.0299
    1AU     AUL  433   0.533   9.278   7.079 -0.0227  0.0370  0.0229
    1AU       S  434   0.310   9.274   6.664 -0.1251  0.0242  0.3088
    1AU     LIG  435   0.162   9.559   7.026  0.0448 -0.1986  0.1966
    1AU     LIG  436  -0.163   9.624   7.247  0.1005 -0.0502 -0.0624
    1AU     LIG  437  -0.419  10.034   7.219 -0.2408  0.0009 -0.2211
    1AU     LIG  438  -0.562  10.283   7.013 -0.2975 -0.1805 -0.2006
    1AU     LIG  439  -0.781  10.591   7.194  0.1713 -0.1014  0.0337
    1AU       S  440   0.187   8.933   7.158 -0.1483  0.0925  0.1009
    1AU     LIG  441  -0.179   9.168   6.990  0.0431  0.1239  0.0445
    1AU     LIG  442  -0.553   9.317   7.073 -0.2928 -0.0844 -0.0378
    1AU     LIG  443  -0.773   9.692   7.091 -0.1086 -0.1262  0.1076
    1AU     LIG  444  -0.903   9.996   6.857 -0.1882 -0.2820 -0.0712
    1AU     LIG  445  -0.971   9.986   6.410  0.1512 -0.1430 -0.1256
    1AU    AUSL  446   1.969   8.506   6.340  0.0094 -0.0425  0.0787
    1AU    AUSL  447   1.609   8.035   6.431  0.0335  0.0148 -0.0724
    1AU     AUL  448   1.992   8.181   6.207  0.0062  0.0258  0.0061
    1AU       S  449   2.377   8.367   6.328 -0.3052 -0.2365 -0.3006
    1AU     LIG  450   2.643   8.753   6.377 -0.2247  0.0727  0.0329
    1AU     LIG  451   2.915   9.081   6.531  0.2914  0.0239 -0.0401
    1AU     LIG  452   3.232   9.137   6.869  0.0080  0.0048 -0.1604
    1AU     LIG  453   3.625   8.968   6.713  0.1494  0.1629  0.2430
    1AU     LIG  454   4.068   9.138   6.595  0.0887 -0.3223  0.2180
    1AU       S  455   1.720   7.828   6.184 -0.1296  0.0120  0.1028
    1AU     LIG  456   1.770   7.511   6.418 -0.3116  0.0180  0.1961
    1AU     LIG  457   1.685   7.304   6.622  0.4164  0.3620  0.2473
    1AU     LIG  458   1.959   7.191   7.001  0.0867 -0.0487  0.2782
    1AU     LIG  459   2.339   6.974   7.059  0.2314 -0.2283 -0.1923
    1AU     LIG  460   2.727   6.940   6.935  0.1848 -0.0148  0.0578
    1AU    AUSL  461   1.980   8.461   6.782  0.0502 -0.0204 -0.0265
    1AU    AUSL  462   1.837   8.834   6.557  0.0541  0.0270 -0.0163
    1AU     AUL  463   2.123   8.779   6.473  0.0129  0.0574  0.0593
    1AU       S  464   2.318   8.417   6.703 -0.2146 -0.1747 -0.1762
    1AU     LIG  465   2.745   8.526   6.849 -0.5961 -0.1254  0.3026
    1AU     LIG  466   3.130   8.578   7.147 -0.0801 -0.1234  0.0418
    1AU     LIG  467   3.522   8.761   7.210 -0.0246  0.0028 -0.1254
    1AU     LIG  468   3.954   8.839   7.199  0.0208  0.0688  0.2545
    1AU     LIG  469   4.234   8.703   7.459  0.1821 -0.0256 -0.0705
    1AU       S  470   2.377   9.174   6.632  0.1794 -0.0363  0.3362
    1AU     LIG  471   2.592   9.532   6.484  0.2069 -0.1385 -0.2143
    1AU     LIG  472   2.916   9.550   6.248 -0.2406 -0.1282 -0.5003
    1AU     LIG  473   3.312   9.360   6.293  0.1197 -0.0675  0.5378
    1AU     LIG  474   3.361   8.905   6.215  0.4949 -0.1499  0.1902
    1AU     LIG  475   3.119   8.638   6.588 -0.3225 -0.0728  0.4422
    1AU    AUSL  476   0.754   9.196   6.467  0.0062 -0.0225 -0.0398
    1AU    AUSL  477   0.976   9.477   7.015 -0.0175  0.0496 -0.1065
    1AU     AUL  478   0.777   9.456   6.720  0.0208 -0.0228 -0.0062
    1AU       S  479   1.094   9.735   6.928 -0.0157 -0.2150  0.0449
    1AU     LIG  480   0.930  10.109   6.835 -0.2934  0.1167  0.2304
    1AU     LIG  481   0.945  10.479   6.611 -0.1472  0.0270 -0.0105
    1AU     LIG  482   0.649  10.714   6.474 -0.0616 -0.2063  0.1012
    1AU     LIG  483   0.472  11.090   6.687  0.0680  0.1583 -0.0667
    1AU     LIG  484   0.486  11.574   6.514 -0.2858 -0.2421  0.0715
    1AU       S  485   0.378   9.380   6.453 -0.3030  0.1936 -0.1169
    1AU     LIG  486   0.467   9.798   6.694  0.0689 -0.0274  0.1810
    1AU     LIG  487   0.395  10.234   6.590 -0.0435 -0.0769  0.1921
    1AU     LIG  488   0.537  10.528   6.896 -0.1387  0.3022 -0.1048
    1AU     LIG  489   0.455  10.884   7.155 -0.0693  0.0626 -0.1341
    1AU     LIG  490   0.315  11.327   7.198 -0.0592 -0.3373 -0.0342
    1AU    AUSL  491   0.593   8.849   6.661  0.0507  0.0737  0.0300
    1AU    AUSL  492   0.900   8.847   6.279 -0.0343 -0.0105 -0.0784
    1AU     AUL  493   0.533   8.974   6.307 -0.0187  0.0056  0.0192
    1AU       S  494   0.293   9.098   6.644 -0.0073  0.2675  0.1656
    1AU     LIG  495   0.018   8.818   6.571 -0.3120  0.3972 -0.0864
    1AU     LIG  496  -0.350   8.918   6.525 -0.2100 -0.2693  0.2394
    1AU     LIG  497  -0.593   9.261   6.548  0.1482 -0.2849 -0.3741
    1AU     LIG  498  -0.987   9.547   6.669 -0.1124  0.1499  0.1826
    1AU     LIG  499  -1.289   9.591   6.926  0.1578 -0.1498 -0.0606
    1AU       S  500   0.677   8.952   5.871 -0.1420  0.0135  0.0120
    1AU     LIG  501   0.879   9.310   6.008 -0.1037 -0.2907  0.0033
    1AU     LIG  502   0.785   9.710   6.338  0.2629 -0.1909  0.2570
    1AU     LIG  503   0.808  10.117   6.282 -0.0552 -0.1720 -0.1315
    1AU     LIG  504   0.521  10.400   6.092 -0.0790  0.2257  0.0146
    1AU     LIG  505   0.186  10.445   5.748  0.3218 -0.1599  0.0059
    2POPC   NC3  506   2.782   4.510   9.351 -0.2352  0.1164 -0.1772
    2POPC   PO4  507   3.055   4.477   8.999 -0.1235  0.1457 -0.1923
    2POPC   GL1  508   3.153   4.680   8.627  0.4692  0.1038  0.0447
    2POPC   GL2  509   2.909   4.655   8.425 -0.0778 -0.0305 -0.1631
    2POPC   C1A  510   3.463   4.729   8.242  0.2130 -0.2012  0.0279
    2POPC   D2A  511   3.699   5.015   7.895 -0.0177  0.1750  0.1347
    2POPC   C3A  512   3.344   5.080   7.503  0.1534 -0.0546 -0.2167
    2POPC   C4A  513   3.448   5.342   7.194 -0.1590  0.0845  0.0207
    2POPC   C1B  514   2.798   5.019   8.209 -0.2904 -0.0032  0.0816
    2POPC   C2B  515   2.761   5.397   8.096 -0.2494 -0.0800  0.2213
    2POPC   C3B  516   2.654   5.592   7.667  0.2879 -0.3429  0.0415
    2POPC   C4B  517   2.598   5.713   7.180  0.1341 -0.1277 -0.0866
    3POPC   NC3  518   8.851   8.148   9.953 -0.2993  0.2909 -0.0676
    3POPC   PO4  519   8.989   8.509   9.602  0.0106 -0.0818  0.0598
    3POPC   GL1  520   8.918   8.551   9.149  0.4274 -0.1552  0.1355
    3POPC   GL2  521   8.985   8.281   9.099  0.1947  0.0022  0.3861
    3POPC   C1A  522   9.027   8.986   8.848  0.1311  0.2431 -0.1525
    3POPC   D2A  523   9.395   9.149   8.612  0.2113 -0.2924 -0.2315
    3POPC   C3A  524   9.229   9.390   8.264  0.0565 -0.0112 -0.1913
    3POPC   C4A  525   9.126   9.630   7.930  0.1264  0.3032 -0.2049
    3POPC   C1B  526   9.257   8.539   8.722  0.1210 -0.0403  0.0749
    3POPC   C2B  527   9.516   8.681   8.299  0.2945  0.0670 -0.0426
    3POPC   C3B  528   9.918   8.652   8.247 -0.0995  0.3187 -0.0972
    3POPC   C4B  529  10.334   8.360   8.114  0.2364  0.0258 -0.0578
    4POPC   NC3  530   1.437   6.162  10.071  0.2819  0.0029  0.0721
    4POPC   PO4  531   1.547   6.518  10.261  0.2669 -0.2290 -0.2430
    4POPC   GL1  532   1.499   6.679   9.883 -0.1227  0.5000 -0.0989
    4POPC   GL2  533   1.503   6.496   9.701  0.0968  0.0163  0.0310
    4POPC   C1A  534   1.170   6.861   9.612 -0.0289 -0.2074 -0.1305
    4POPC   D2A  535   1.086   7.010   9.201 -0.3750  0.1179 -0.3175
    4POPC   C3A  536   0.985   6.795   8.795  0.1131  0.3540 -0.1284
    4POPC   C4A  537   0.801   6.490   8.361 -0.2375  0.0555  0.2413
    4POPC   C1B  538   1.668   6.648   9.333 -0.0951  0.0714  0.0683
    4POPC   C2B  539   1.739   6.762   8.874 -0.3069  0.0150 -0.3140
    4POPC   C3B  540   1.721   6.798   8.420 -0.1514 -0.0969 -0.0734
    4POPC   C4B  541   1.743   7.235   8.206 -0.2079  0.1754  0.0266
    5POPC   NC3  542   2.718   1.864   9.360 -0.1638 -0.1151 -0.3040
    5POPC   PO4  543   2.778   2.224   9.173  0.3508 -0.0854 -0.1712
    5POPC   GL1  544   2.737   2.314   8.674 -0.1853  0.0518 -0.0632
    5POPC   GL2  545   2.988   2.131   8.585  0.1757 -0.0801  0.4962
    5POPC   C1A  546   2.657   2.361   8.198  0.0667 -0.0503 -0.0611
    5POPC   D2A  547   2.811   2.367   7.733  0.2564 -0.0770  0.1009
    5POPC   C3A  548   2.685   2.700   7.495 -0.0302 -0.1435 -0.1755
    5POPC   C4A  549   2.435   2.846   7.177  0.0908 -0.0059 -0.0789
    5POPC   C1B  550   2.940   1.936   8.198 -0.0695  0.1478 -0.2767
    5POPC   C2B  551   2.937   1.717   7.835 -0.0632 -0.3141 -0.0540
    5POPC   C3B  552   2.900   1.559   7.450  0.1156  0.1144 -0.2966
    5POPC   C4B  553   2.910   1.140   7.176 -0.2184  0.0623  0.0659
    6POPC   NC3  554   6.848   9.154   8.618 -0.0895 -0.3531  0.2130
    6POPC   PO4  555   6.461   9.092   8.434 -0.1838 -0.0906 -0.1496
    6POPC   GL1  556   6.437   8.652   8.197 -0.1469 -0.0916  0.1225
    6POPC   GL2  557   6.335   8.939   7.977  0.0802  0.0098  0.2237
    6POPC   C1A  558   6.525   8.437   7.896 -0.1489 -0.1005 -0.3887
    6POPC   D2A  559   6.752   8.415   7.446 -0.0926 -0.3844 -0.0106
    6POPC   C3A  560   6.696   8.123   7.149 -0.1795 -0.0731  0.2641
    6POPC   C4A  561   6.816   7.741   7.324 -0.0176 -0.1146  0.0133
    6POPC   C1B  562   6.626   8.901   7.754  0.6723 -0.1378 -0.2587
    6POPC   C2B  563   6.506   8.822   7.306  0.1111  0.1878 -0.0213
    6POPC   C3B  564   6.431   8.577   6.982  0.0473 -0.0859  0.5144
    6POPC   C4B  565   6.624   8.400   6.633  0.0082  0.3053 -0.3019
    7POPC   NC3  566   9.314   6.511   9.780 -0.1765  0.1920  0.1995
    7POPC   PO4  567   9.174   6.829   9.658  0.0810  0.1032  0.4619
    7POPC   GL1  568   9.418   6.854   9.332 -0.3764  0.1504 -0.0014
    7POPC   GL2  569   9.599   6.609   9.398  0.0040 -0.2134  0.1001
    7POPC   C1A  570   9.601   6.872   8.857  0.0556 -0.0627  0.1665
    7POPC   D2A  571   9.921   6.765   8.456 -0.1725 -0.0168  0.0178
    7POPC   C3A  572   9.895   7.029   8.083  0.1779 -0.0119 -0.1166
    7POPC   C4A  573   9.636   7.236   7.810  0.3328  0.1799  0.0885
    7POPC   C1B  574  10.065   6.744   9.265 -0.0903  0.1222  0.0184
    7POPC   C2B  575  10.268   6.981   8.843 -0.0392  0.2357  0.4043
    7POPC   C3B  576  10.555   7.229   8.615  0.0902  0.1474  0.1684
    7POPC   C4B  577  10.647   7.646   8.729  0.1906  0.0765  0.0453
    8POPC   NC3  578   3.988   1.147   8.417  0.0343 -0.1992  0.0444
    8POPC   PO4  579   4.260   1.495   8.554  0.0660  0.2005  0.2683
    8POPC   GL1  580   4.120   1.631   8.162  0.0882  0.2023  0.2405
    8POPC   GL2  581   4.327   1.535   7.920  0.1163 -0.1637 -0.0615
    8POPC   C1A  582   4.164   2.026   7.895  0.0579  0.0777  0.0834
    8POPC   D2A  583   4.517   2.029   7.606  0.3398 -0.1761  0.0142
    8POPC   C3A  584   4.458   1.630   7.405  0.0849  0.1024 -0.0395
    8POPC   C4A  585   4.277   1.130   7.376  0.2653 -0.0976  0.1477
    8POPC   C1B  586   3.981   1.456   7.682  0.0232  0.1790  0.0516
    8POPC   C2B  587   3.841   1.543   7.327  0.1478  0.3930  0.1044
    8POPC   C3B  588   3.855   1.212   6.902 -0.0961 -0.0789 -0.2040
    8POPC   C4B  589   3.731   0.827   7.050  0.1523  0.2779 -0.0868
    9POPC   NC3  590   6.142   4.030   9.013 -0.1263  0.2919 -0.3060
    9POPC   PO4  591   6.394   4.478   8.989  0.3735 -0.0396  0.2324
    9POPC   GL1  592   6.252   4.255   8.601 -0.1363  0.2263 -0.0305
    9POPC   GL2  593   6.275   4.402   8.312  0.1526 -0.1155  0.3170
    9POPC   C1A  594   5.797   4.209   8.481  0.2134 -0.1728  0.2480
    9POPC   D2A  595   5.369   4.340   8.315  0.0886 -0.4513 -0.0986
    9POPC   C3A  596   5.076   4.699   8.325 -0.2854  0.0987  0.0283
    9POPC   C4A  597   4.802   4.823   8.016 -0.1675  0.1458  0.0965
    9POPC   C1B  598   6.317   4.633   7.875  0.1393 -0.0249 -0.0008
    9POPC   C2B  599   6.387   4.872   7.468 -0.2015  0.0913 -0.1261
    9POPC   C3B  600   6.468   5.155   7.129 -0.0874 -0.1928 -0.1825
    9POPC   C4B  601   6.885   5.256   6.951  0.0009 -0.2150  0.0892
   10POPC   NC3  602   0.773   3.872   8.683  0.1401 -0.0785  0.3769
   10POPC   PO4  603   0.327   3.771   8.822 -0.2097 -0.2156 -0.0449
   10POPC   GL1  604   0.368   3.911   8.345  0.2498 -0.2368 -0.1101
   10POPC   GL2  605   0.613   3.649   8.201  0.0931 -0.0102 -0.1663
   10POPC   C1A  606   0.203   4.274   7.975  0.2661 -0.1108 -0.2105
   10POPC   D2A  607   0.348   4.513   7.640 -0.3108  0.0056  0.1981
   10POPC   C3A  608   0.368   4.791   7.299  0.0017 -0.0560  0.0881
   10POPC   C4A  609   0.466   5.196   7.202  0.0669 -0.3013 -0.1726
   10POPC   C1B  610   0.580   3.449   7.866 -0.4683 -0.0195  0.0945
   10POPC   C2B  611   0.613   3.103   7.510 -0.4258  0.1611  0.0967
   10POPC   C3B  612   0.446   2.919   7.249  0.1787  0.3435  0.0530
   10POPC   C4B  613   0.521   2.848   6.814  0.0712  0.3049  0.3279
   11POPC   NC3  614   7.009   6.644   8.536 -0.2490  0.1940  0.4146
   11POPC   PO4  615   6.625   6.948   8.711 -0.0731  0.2386 -0.3741
   11POPC   GL1  616   6.562   6.961   8.275 -0.3692  0.3280  0.2021
   11POPC   GL2  617   6.800   6.987   8.197  0.0414 -0.3757  0.4468
   11POPC   C1A  618   6.276   7.012   7.845  0.2995  0.0983 -0.1638
   11POPC   D2A  619   6.259   7.247   7.530  0.0800 -0.1478 -0.2490
   11POPC   C3A  620   6.657   7.286   7.316  0.0624 -0.4841 -0.1286
   11POPC   C4A  621   6.883   7.394   6.927 -0.1361  0.2568  0.1934
   11POPC   C1B  622   7.241   6.886   7.982 -0.0641  0.1772 -0.0646
   11POPC   C2B  623   7.650   6.856   7.865 -0.2600  0.0377  0.1515
   11POPC   C3B  624   7.798   6.962   7.424 -0.2199  0.4945 -0.1803
   11POPC   C4B  625   8.008   7.095   7.037  0.2082 -0.2366  0.0852
   12POPC   NC3  626   8.956   3.860   9.027 -0.0936 -0.2014 -0.0204
   12POPC   PO4  627   9.256   4.156   8.962 -0.2078  0.0664  0.2625
   12POPC   GL1  628   9.104   4.003   8.550 -0.0441 -0.2209 -0.2289
   12POPC   GL2  629   9.436   3.898   8.442  0.1871  0.1665 -0.1438
   12POPC   C1A  630   8.859   3.789   8.338 -0.1289  0.0506  0.0665
   12POPC   D2A  631   8.984   3.510   8.068 -0.0878 -0.0452 -0.0332
   12POPC   C3A  632   9.454   3.533   7.873  0.1751 -0.0487  0.2543
   12POPC   C4A  633   9.722   3.756   7.587  0.1646  0.0808  0.2726
   12POPC   C1B  634   9.490   4.191   8.176  0.1470 -0.0993  0.0445
   12POPC   C2B  635   9.739   4.231   7.806  0.3340 -0.2556  0.1970
   12POPC   C3B  636   9.809   4.564   7.590  0.1375  0.0942  0.1730
   12POPC   C4B  637   9.944   4.693   7.189 -0.0424  0.1849 -0.2183
   13POPC   NC3  638   5.894   3.655   9.352  0.2615  0.2435  0.0091
   13POPC   PO4  639   5.983   3.507   8.981  0.2541  0.0549  0.4659
   13POPC   GL1  640   5.984   3.478   8.578 -0.4033  0.0590  0.3597
   13POPC   GL2  641   6.063   3.797   8.554 -0.0941 -0.0127 -0.2881
   13POPC   C1A  642   5.673   3.720   8.294  0.2160  0.0195 -0.0335
   13POPC   D2A  643   5.612   4.043   8.000 -0.0574  0.0121  0.0279
   13POPC   C3A  644   5.674   3.937   7.582  0.0096 -0.2109 -0.2145
   13POPC   C4A  645   5.862   3.879   7.168  0.0005  0.2363 -0.0515
   13POPC   C1B  646   6.112   3.991   8.055 -0.0167  0.0124 -0.4001
   13POPC   C2B  647   6.136   4.177   7.690  0.2690  0.0869 -0.1461
   13POPC   C3B  648   6.163   4.402   7.339  0.1092 -0.0358 -0.1174
   13POPC   C4B  649   6.217   4.181   6.916  0.0593 -0.0480 -0.0296
   14POPC   NC3  650   3.332   3.757   9.563  0.0996 -0.0569 -0.0488
   14POPC   PO4  651   3.235   3.887   9.083  0.1142  0.0496 -0.3772
   14POPC   GL1  652   3.063   3.990   8.672  0.0740  0.1386  0.1254
   14POPC   GL2  653   3.119   4.207   8.507 -0.0854  0.2185 -0.2078
   14POPC   C1A  654   2.973   3.861   8.213  0.0068  0.2122  0.1712
   14POPC   D2A  655   2.929   3.944   7.832  0.2178 -0.1020 -0.1161
   14POPC   C3A  656   2.753   3.528   7.772  0.4119  0.2679 -0.2421
   14POPC   C4A  657   2.644   3.169   7.763 -0.4116 -0.1123 -0.0783
   14POPC   C1B  658   3.266   4.352   8.046  0.2018 -0.1449 -0.2026
   14POPC   C2B  659   3.527   4.460   7.704  0.0642 -0.2963  0.2591
   14POPC   C3B  660   3.784   4.724   7.546  0.1373  0.3277  0.0060
   14POPC   C4B  661   3.851   5.082   7.356  0.1545 -0.0618 -0.2206
   15POPC   NC3  662   1.935   5.618   8.745 -0.0534 -0.0269  0.1031
   15POPC   PO4  663   1.835   5.308   8.938  0.1803 -0.1150  0.2840
   15POPC   GL1  664   1.753   5.252   8.484  0.1072 -0.0198 -0.1882
   15POPC   GL2  665   1.389   5.016   8.523  0.1159 -0.0288  0.1001
   15POPC   C1A  666   1.924   5.086   8.034  0.0126  0.1175 -0.0093
   15POPC   D2A  667   2.164   4.802   7.733  0.1160 -0.2058  0.1787
   15POPC   C3A  668   2.192   4.859   7.307 -0.1455  0.3345  0.1726
   15POPC   C4A  669   2.278   4.858   6.909 -0.1203 -0.0194 -0.2084
   15POPC   C1B  670   1.381   5.224   8.120 -0.2921 -0.4099 -0.1369
   15POPC   C2B  671   1.478   5.246   7.688  0.0607 -0.0899  0.2835
   15POPC   C3B  672   1.303   4.934   7.356  0.6007 -0.1567  0.0584
   15POPC   C4B  673   1.321   4.653   7.100  0.1934  0.0047 -0.0140
   16POPC   NC3  674   1.094   1.777   9.117 -0.1118 -0.0090 -0.1575
   16POPC   PO4  675   0.791   2.123   8.968 -0.3479  0.1394  0.1351
   16POPC   GL1  676   0.990   1.891   8.597  0.0261  0.1615  0.2179
   16POPC   GL2  677   0.940   2.202   8.483  0.0289 -0.1761 -0.0091
   16POPC   C1A  678   1.321   1.626   8.325  0.1060 -0.3070 -0.0556
   16POPC   D2A  679   1.335   1.491   7.841  0.1508  0.2128 -0.0745
   16POPC   C3A  680   1.534   1.385   7.439 -0.1244 -0.0136 -0.0911
   16POPC   C4A  681   1.662   1.090   7.125 -0.0474 -0.2015  0.2533
   16POPC   C1B  682   1.134   2.090   8.150 -0.2506 -0.3837 -0.0675
   16POPC   C2B  683   1.304   2.341   7.881 -0.1801  0.2382 -0.0645
   16POPC   C3B  684   1.548   2.456   7.624  0.3622 -0.2567 -0.0671
   16POPC   C4B  685   1.524   2.884   7.367 -0.1553 -0.1952  0.0066
   17POPC   NC3  686   8.600   6.338   9.204 -0.1088 -0.0186 -0.3317
   17POPC   PO4  687   8.296   6.417   8.808  0.0591  0.1683  0.0411
   17POPC   GL1  688   8.689   6.580   8.772 -0.0337 -0.0390  0.2621
   17POPC   GL2  689   8.591   6.767   8.511 -0.2207 -0.2980 -0.0381
   17POPC   C1A  690   9.146   6.581   8.646 -0.1086  0.3181 -0.1428
   17POPC   D2A  691   9.372   6.707   8.360  0.1013  0.1162  0.0082
   17POPC   C3A  692   9.527   6.697   8.003  0.0650 -0.4904 -0.1591
   17POPC   C4A  693   9.722   6.790   7.621  0.1554 -0.1885  0.0699
   17POPC   C1B  694   8.922   7.009   8.255  0.3025 -0.4066 -0.0983
   17POPC   C2B  695   9.079   7.098   7.825 -0.2874  0.1720 -0.1091
   17POPC   C3B  696   9.283   6.910   7.460 -0.0224 -0.0222  0.0672
   17POPC   C4B  697   9.415   6.656   7.131 -0.3576 -0.1220  0.0413
   18POPC   NC3  698   7.390   5.892   8.881  0.0638  0.1827  0.0175
   18POPC   PO4  699   7.541   5.757   8.499 -0.0664 -0.0630 -0.2975
   18POPC   GL1  700   7.601   5.952   8.241  0.0995  0.1470  0.0690
   18POPC   GL2  701   8.012   6.017   8.091 -0.2400 -0.1349 -0.0446
   18POPC   C1A  702   7.676   5.901   7.790  0.3043 -0.0817 -0.0326
   18POPC   D2A  703   7.771   6.215   7.380 -0.0951  0.0485 -0.2471
   18POPC   C3A  704   7.606   5.909   7.050  0.0176 -0.0423  0.1256
   18POPC   C4A  705   7.818   5.529   6.918  0.0879 -0.2123  0.3301
   18POPC   C1B  706   8.161   5.992   7.602  0.2020 -0.3974 -0.2304
   18POPC   C2B  707   7.915   5.716   7.377  0.0894 -0.2265 -0.2091
   18POPC   C3B  708   8.021   5.254   7.279 -0.1554  0.0191 -0.0956
   18POPC   C4B  709   7.912   4.840   7.382  0.0261  0.0415  0.0000
   19POPC   NC3  710   8.916   7.229   9.761 -0.0456  0.0053 -0.0517
   19POPC   PO4  711   8.630   6.910   9.546 -0.0438 -0.1142 -0.0350
   19POPC   GL1  712   8.955   7.010   9.202  0.0919  0.2188  0.2007
   19POPC   GL2  713   9.044   6.973   8.838  0.2706 -0.0745 -0.2032
   19POPC   C1A  714   9.277   7.328   9.106  0.1471 -0.0147  0.0667
   19POPC   D2A  715   9.583   7.527   8.872 -0.1621  0.2963 -0.3872
   19POPC   C3A  716   9.627   7.697   8.456  0.0286  0.0413 -0.2266
   19POPC   C4A  717   9.812   7.627   8.091  0.2807 -0.2331 -0.0304
   19POPC   C1B  718   9.282   7.254   8.510 -0.0592  0.1154  0.0821
   19POPC   C2B  719   9.188   7.584   8.308  0.2325 -0.1758 -0.1401
   19POPC   C3B  720   8.811   7.599   8.133 -0.1446  0.0253 -0.1009
   19POPC   C4B  721   8.560   7.407   7.863 -0.1238  0.0202 -0.0365
   20POPC   NC3  722   7.771   0.210   9.105  0.1434 -0.4746 -0.0998
   20POPC   PO4  723   7.446   0.366   8.894 -0.0586  0.2092  0.1485
   20POPC   GL1  724   7.390   0.305   8.410 -0.3522 -0.2507 -0.0944
   20POPC   GL2  725   7.475   0.034   8.332  0.3653  0.2226  0.0924
   20POPC   C1A  726   7.507   0.598   8.000 -0.0096 -0.1104  0.1857
   20POPC   D2A  727   7.420   0.616   7.687  0.5810 -0.0226 -0.3301
   20POPC   C3A  728   7.408   0.969   7.370 -0.2112  0.2333  0.1995
   20POPC   C4A  729   7.588   1.313   7.063  0.0155  0.1653  0.0296
   20POPC   C1B  730   7.476  -0.046   7.946 -0.0363  0.1054  0.2865
   20POPC   C2B  731   7.247  -0.261   7.722  0.1530 -0.1753 -0.1454
   20POPC   C3B  732   7.290  -0.631   7.455 -0.0062  0.0334 -0.3689
   20POPC   C4B  733   7.461  -0.937   7.264 -0.0557  0.0168  0.0187
   21POPC   NC3  734   3.733   2.840   8.418  0.0807 -0.1343 -0.2791
   21POPC   PO4  735   4.112   2.779   8.573 -0.1177  0.1762 -0.0759
   21POPC   GL1  736   4.040   2.583   8.151 -0.0533 -0.1778  0.1935
   21POPC   GL2  737   4.244   2.456   7.944  0.1440  0.0725 -0.0207
   21POPC   C1A  738   3.792   2.351   7.938 -0.0444  0.5753  0.0695
   21POPC   D2A  739   3.769   2.004   7.649 -0.0404  0.1496  0.0278
   21POPC   C3A  740   3.556   1.959   7.200 -0.0924 -0.0048  0.1061
   21POPC   C4A  741   3.573   1.677   6.856  0.1934 -0.0477  0.0009
   21POPC   C1B  742   4.220   2.478   7.537 -0.1122  0.0157 -0.0897
   21POPC   C2B  743   4.419   2.587   7.076 -0.0641 -0.4176 -0.0339
   21POPC   C3B  744   4.392   2.878   6.707 -0.1738 -0.1431  0.0911
   21POPC   C4B  745   4.257   3.177   6.665 -0.1179 -0.2884  0.1204
   22POPC   NC3  746  10.135   3.599   8.721  0.3026 -0.2829  0.2407
   22POPC   PO4  747  10.401   3.980   8.600 -0.0540  0.1492  0.1637
   22POPC   GL1  748  10.323   3.937   8.153  0.1284 -0.3609  0.1637
   22POPC   GL2  749  10.640   3.766   7.877 -0.3447  0.1908  0.0100
   22POPC   C1A  750  10.321   4.105   7.621 -0.2618 -0.0195 -0.1999
   22POPC   D2A  751  10.353   4.510   7.420  0.0609  0.2437 -0.0237
   22POPC   C3A  752  10.381   4.556   6.994 -0.0459  0.2320 -0.0196
   22POPC   C4A  753  10.498   4.718   6.684  0.1148  0.2116  0.0651
   22POPC   C1B  754  10.797   3.745   7.521 -0.0437  0.0524  0.1152
   22POPC   C2B  755  10.815   3.821   7.146 -0.0844 -0.1108 -0.2446
   22POPC   C3B  756  11.197   3.928   6.974  0.0465 -0.0953 -0.2313
   22POPC   C4B  757  11.692   3.740   7.020 -0.1801  0.1405  0.0286
   23POPC   NC3  758   7.375   1.613   9.188 -0.0802 -0.1004 -0.1508
   23POPC   PO4  759   7.381   1.969   8.910  0.2854 -0.4296  0.0418
   23POPC   GL1  760   7.219   1.985   8.538 -0.2635 -0.1941 -0.1456
   23POPC   GL2  761   7.314   2.268   8.305  0.2357  0.1922 -0.3595
   23POPC   C1A  762   7.426   1.849   8.080  0.0972  0.0778  0.1568
   23POPC   D2A  763   7.383   1.920   7.629  0.0287  0.1232  0.0001
   23POPC   C3A  764   7.227   1.796   7.295  0.0711  0.0850 -0.1597
   23POPC   C4A  765   6.959   1.697   6.838 -0.1750 -0.0304  0.3171
   23POPC   C1B  766   7.638   2.573   8.306 -0.0665 -0.0400 -0.0957
   23POPC   C2B  767   7.971   2.663   8.215 -0.0667  0.2504 -0.1737
   23POPC   C3B  768   8.097   2.645   7.827  0.1980  0.0211 -0.1248
   23POPC   C4B  769   8.301   2.489   7.393 -0.0752  0.0489  0.2004
   24POPC   NC3  770   6.183   4.913   8.835 -0.1808  0.2015 -0.0743
   24POPC   PO4  771   5.780   4.983   8.900  0.3053  0.2138  0.4026
   24POPC   GL1  772   5.638   4.994   8.563 -0.0194  0.1766 -0.3376
   24POPC   GL2  773   5.840   4.713   8.504  0.0140 -0.2591  0.2858
   24POPC   C1A  774   5.481   4.990   8.188 -0.0253 -0.1053 -0.1012
   24POPC   D2A  775   5.425   5.207   7.836 -0.1598 -0.1578  0.2477
   24POPC   C3A  776   5.472   4.975   7.490 -0.0624 -0.2502  0.0921
   24POPC   C4A  777   5.411   4.778   7.045 -0.0300  0.0828 -0.0918
   24POPC   C1B  778   5.781   4.499   8.050 -0.0704  0.1382 -0.1394
   24POPC   C2B  779   5.699   4.495   7.601  0.0648  0.1061  0.1647
   24POPC   C3B  780   5.638   4.358   7.281  0.0554 -0.0840 -0.0071
   24POPC   C4B  781   5.680   4.192   6.788 -0.3337  0.0503 -0.1788
   25POPC   NC3  782   8.832   2.315   9.097 -0.2780 -0.1173  0.1145
   25POPC   PO4  783   9.171   2.017   8.875 -0.0703 -0.1785 -0.1737
   25POPC   GL1  784   9.091   2.145   8.433 -0.0978  0.3308 -0.1427
   25POPC   GL2  785   9.440   2.081   8.179 -0.0514 -0.0163  0.0754
   25POPC   C1A  786   8.906   2.382   8.174 -0.2247 -0.0394 -0.3007
   25POPC   D2A  787   8.641   2.403   7.822  0.4347 -0.2154  0.4079
   25POPC   C3A  788   8.620   1.987   7.526  0.0846  0.2276 -0.2994
   25POPC   C4A  789   8.890   1.689   7.538 -0.0823 -0.1053 -0.0782
   25POPC   C1B  790   9.550   2.247   7.779  0.1415  0.3196 -0.1838
   25POPC   C2B  791   9.646   2.260   7.260  0.3647 -0.1126 -0.1135
   25POPC   C3B  792   9.680   1.995   6.948 -0.0725 -0.1399 -0.1585
   25POPC   C4B  793   9.558   1.593   6.871  0.1554  0.1173 -0.1727
   26POPC   NC3  794   0.440   4.249   8.873 -0.2842 -0.1244  0.2221
   26POPC   PO4  795   0.850   4.296   8.935 -0.0048 -0.0396  0.0537
   26POPC   GL1  796   0.773   4.308   8.418  0.0110 -0.0080 -0.1548
   26POPC   GL2  797   0.740   4.584   8.030 -0.2311 -0.3858  0.0397
   26POPC   C1A  798   0.641   4.104   7.968 -0.2093 -0.5449 -0.0850
   26POPC   D2A  799   0.648   4.153   7.467 -0.2981  0.0954 -0.0832
   26POPC   C3A  800   0.871   4.640   7.531 -0.2873  0.2962  0.4979
   26POPC   C4A  801   1.103   4.884   7.837 -0.0305 -0.2449 -0.1646
   26POPC   C1B  802   0.784   5.022   8.202  0.0029  0.2723  0.0233
   26POPC   C2B  803   0.874   5.275   7.975  0.0301  0.2017 -0.2696
   26POPC   C3B  804   1.085   5.506   7.736 -0.0084  0.2963 -0.0664
   26POPC   C4B  805   1.258   5.605   7.322  0.2814  0.4477 -0.1776
   27POPC   NC3  806   1.851   0.048  10.045  0.0590 -0.0679  0.1066
   27POPC   PO4  807   2.011  -0.246   9.718  0.2224 -0.5042 -0.1007
   27POPC   GL1  808   2.202  -0.449   9.425  0.3256  0.1055  0.3983
   27POPC   GL2  809   2.504  -0.337   9.233  0.1347 -0.0061  0.2700
   27POPC   C1A  810   2.295  -0.829   9.122  0.2648  0.1576 -0.1683
   27POPC   D2A  811   2.418  -1.175   9.231 -0.3421 -0.0880  0.1716
   27POPC   C3A  812   2.447  -1.588   9.107 -0.0620 -0.2848  0.0020
   27POPC   C4A  813   2.238  -1.952   9.160  0.1508  0.2564  0.2549
   27POPC   C1B  814   2.258  -0.211   8.957  0.2395 -0.3242 -0.1400
   27POPC   C2B  815   1.895  -0.423   8.829 -0.0667  0.0086  0.3064
   27POPC   C3B  816   1.768  -0.813   9.053  0.1060 -0.0408 -0.2079
   27POPC   C4B  817   1.631  -1.161   9.236  0.1205  0.2205  0.1494
   28POPC   NC3  818   9.210   3.241   9.507  0.1065 -0.1582 -0.1615
   28POPC   PO4  819   9.224   3.030   9.053 -0.2365  0.0468  0.1522
   28POPC   GL1  820   9.183   2.986   8.697 -0.0861 -0.1155 -0.0991
   28POPC   GL2  821   9.423   2.815   8.539  0.2466  0.1524  0.0566
   28POPC   C1A  822   8.976   2.916   8.356 -0.0532  0.1542  0.3058
   28POPC   D2A  823   8.746   3.085   8.034 -0.1062  0.1506 -0.0479
   28POPC   C3A  824   8.491   2.890   7.718 -0.2272 -0.0006 -0.0296
   28POPC   C4A  825   8.259   2.975   7.327  0.1354  0.0224 -0.1651
   28POPC   C1B  826   9.515   2.772   8.097 -0.0614  0.1285 -0.0372
   28POPC   C2B  827   9.541   2.748   7.660  0.2732 -0.2257 -0.0542
   28POPC   C3B  828   9.793   2.712   7.378 -0.3836  0.1364  0.0791
   28POPC   C4B  829  10.048   2.833   6.968 -0.1274 -0.4252 -0.0662
   29POPC   NC3  830   8.678   0.787   8.792  0.0820  0.4175 -0.1183
   29POPC   PO4  831   8.806   1.193   8.935 -0.0799 -0.2345  0.1972
   29POPC   GL1  832   8.830   1.309   8.571 -0.3570 -0.2317 -0.0510
   29POPC   GL2  833   9.032   1.620   8.539 -0.1343  0.1774 -0.0909
   29POPC   C1A  834   8.706   1.392   8.168  0.0926  0.1056 -0.1113
   29POPC   D2A  835   8.440   1.512   7.743  0.1960  0.0711 -0.3122
   29POPC   C3A  836   8.085   1.349   7.596 -0.2192 -0.0663 -0.0290
   29POPC   C4A  837   7.771   1.019   7.764  0.0972  0.2256  0.2026
   29POPC   C1B  838   9.156   1.599   8.126 -0.0583  0.1164 -0.1579
   29POPC   C2B  839   9.463   1.737   7.723 -0.1374  0.3520 -0.0677
   29POPC   C3B  840   9.438   1.807   7.336 -0.0866  0.1307  0.0321
   29POPC   C4B  841   9.099   1.528   7.126 -0.0632 -0.0898 -0.2285
   30POPC   NC3  842   9.194   8.992   9.875 -0.0257  0.0708 -0.1902
   30POPC   PO4  843   9.548   8.761  10.073  0.2391  0.0131  0.0293
   30POPC   GL1  844   9.546   8.688   9.687  0.1670 -0.2566  0.0370
   30POPC   GL2  845   9.773   8.409   9.618 -0.0967 -0.1015  0.0063
   30POPC   C1A  846   9.605   8.678   9.245  0.0973  0.3309 -0.1618
   30POPC   D2A  847   9.788   8.795   8.784 -0.1151 -0.0757  0.0363
   30POPC   C3A  848  10.185   8.923   8.512 -0.2478 -0.0036  0.1685
   30POPC   C4A  849  10.262   8.965   8.040 -0.2703  0.0794 -0.1216
   30POPC   C1B  850   9.560   8.167   9.450 -0.2127 -0.0113  0.0535
   30POPC   C2B  851   9.398   7.976   9.080  0.0876 -0.2235  0.2892
   30POPC   C3B  852   9.259   7.989   8.709 -0.0408 -0.0411 -0.1263
   30POPC   C4B  853   9.372   8.194   8.350 -0.1223  0.1393 -0.2019
   31POPC   NC3  854   0.128   0.888   9.878  0.0851  0.1520  0.1596
   31POPC   PO4  855   0.398   0.867   9.519 -0.1995 -0.2792  0.1265
   31POPC   GL1  856   0.449   0.807   9.081  0.1507  0.2588  0.1216
   31POPC   GL2  857   0.735   0.864   9.073 -0.2463 -0.0509  0.0035
   31POPC   C1A  858   0.337   0.680   8.658  0.2205  0.1420 -0.0297
   31POPC   D2A  859   0.293   0.822   8.227  0.0160  0.0636  0.1328
   31POPC   C3A  860   0.197   0.869   7.799  0.0944 -0.2329  0.0268
   31POPC   C4A  861  -0.186   1.029   7.518 -0.0392  0.1953  0.1864
   31POPC   C1B  862   0.760   0.830   8.620 -0.2015 -0.1293 -0.2074
   31POPC   C2B  863   0.779   0.814   8.147  0.0794  0.0776 -0.0377
   31POPC   C3B  864   0.719   0.649   7.806  0.0972 -0.1990 -0.1284
   31POPC   C4B  865   0.827   0.255   7.690 -0.1017  0.1549 -0.2317
   32POPC   NC3  866   5.123   9.564   8.643 -0.0765 -0.2310 -0.2259
   32POPC   PO4  867   4.805   9.757   8.837 -0.0677 -0.0975 -0.3511
   32POPC   GL1  868   4.465   9.638   8.528  0.0772 -0.1494  0.0812
   32POPC   GL2  869   4.448   9.280   8.491  0.1582 -0.1538  0.0884
   32POPC   C1A  870   4.136   9.575   8.195  0.1922 -0.0466  0.0966
   32POPC   D2A  871   4.091   9.353   7.836  0.3331 -0.2703  0.2003
   32POPC   C3A  872   4.375   9.144   7.664  0.1650  0.1108  0.0069
   32POPC   C4A  873   4.685   8.869   7.533  0.2006  0.2493  0.0662
   32POPC   C1B  874   4.541   9.111   8.119 -0.2092  0.1494  0.2793
   32POPC   C2B  875   4.488   8.699   8.096 -0.2134  0.0170 -0.1943
   32POPC   C3B  876   4.729   8.426   7.785  0.1420 -0.0597  0.0714
   32POPC   C4B  877   4.584   8.316   7.405 -0.0157 -0.1341  0.1112
   33POPC   NC3  878   4.002   3.325   8.818  0.4412  0.1250  0.2131
   33POPC   PO4  879   4.122   3.680   8.623 -0.0309 -0.0314 -0.1115
   33POPC   GL1  880   4.369   3.794   8.237  0.1670 -0.2575  0.2057
   33POPC   GL2  881   4.499   4.059   8.321 -0.4816  0.2134 -0.1532
   33POPC   C1A  882   4.577   3.825   7.829  0.2305  0.4228 -0.2328
   33POPC   D2A  883   4.798   4.027   7.418  0.3800  0.0605  0.2016
   33POPC   C3A  884   4.791   4.472   7.268 -0.1659  0.1376 -0.3692
   33POPC   C4A  885   4.991   4.816   7.440 -0.0170 -0.0979 -0.5232
   33POPC   C1B  886   4.491   4.528   8.338  0.2979  0.3579 -0.0631
   33POPC   C2B  887   4.531   4.986   8.378 -0.2024 -0.0441  0.0103
   33POPC   C3B  888   4.256   5.402   8.292 -0.0641 -0.1013  0.0750
   33POPC   C4B  889   4.006   5.744   8.538  0.0170 -0.1725 -0.0121
   34POPC   NC3  890   6.653   2.346   9.105 -0.1746  0.1337 -0.3528
   34POPC   PO4  891   6.325   2.469   8.726 -0.2167 -0.0556 -0.0878
   34POPC   GL1  892   6.516   2.389   8.314  0.0120  0.1630  0.1232
   34POPC   GL2  893   6.601   2.696   8.304 -0.0602  0.3341  0.0300
   34POPC   C1A  894   6.348   2.280   7.924 -0.1519 -0.3498  0.1439
   34POPC   D2A  895   6.158   2.461   7.483  0.2052  0.4012 -0.2856
   34POPC   C3A  896   6.475   2.716   7.206 -0.1007 -0.1678 -0.1886
   34POPC   C4A  897   6.577   3.035   6.847 -0.0215  0.0327 -0.2945
   34POPC   C1B  898   6.191   2.736   8.027  0.0471  0.2378  0.0968
   34POPC   C2B  899   6.225   2.956   7.608 -0.1231 -0.0145  0.0846
   34POPC   C3B  900   6.536   3.265   7.462  0.0359  0.2675 -0.3767
   34POPC   C4B  901   6.834   3.171   7.253  0.1632  0.1407 -0.3091
   35POPC   NC3  902   4.773   5.872   9.269  0.0846  0.2847  0.0934
   35POPC   PO4  903   4.539   5.414   9.229  0.3244 -0.2912 -0.4414
   35POPC   GL1  904   4.616   5.444   8.764  0.0405 -0.0588  0.0942
   35POPC   GL2  905   4.513   5.748   8.702  0.0487  0.1613  0.2949
   35POPC   C1A  906   4.738   5.385   8.290  0.0518 -0.0838 -0.1749
   35POPC   D2A  907   4.574   5.505   7.844 -0.1985  0.1264 -0.0510
   35POPC   C3A  908   4.759   5.183   7.627  0.2981 -0.0244  0.2061
   35POPC   C4A  909   4.870   5.193   7.187 -0.0030  0.1778 -0.0660
   35POPC   C1B  910   4.549   5.825   8.264 -0.1890 -0.2670  0.1128
   35POPC   C2B  911   4.273   5.935   7.923  0.0736 -0.0361  0.0723
   35POPC   C3B  912   4.139   5.842   7.533 -0.0698 -0.0143 -0.0475
   35POPC   C4B  913   3.909   5.571   7.256 -0.1508  0.3163 -0.3278
   36POPC   NC3  914   6.179   6.743   8.561  0.3884  0.2579 -0.2538
   36POPC   PO4  915   5.783   7.015   8.604 -0.0763  0.0587  0.0217
   36POPC   GL1  916   5.750   7.179   8.180  0.0604 -0.0938  0.0855
   36POPC   GL2  917   5.812   6.900   8.128 -0.1549  0.3938  0.2237
   36POPC   C1A  918   5.836   7.354   7.711  0.2356  0.1652 -0.2582
   36POPC   D2A  919   5.839   7.214   7.286 -0.2320 -0.0124 -0.1163
   36POPC   C3A  920   6.147   7.260   7.022  0.0462  0.0623 -0.2858
   36POPC   C4A  921   6.277   7.332   6.588 -0.1806 -0.1536 -0.0756
   36POPC   C1B  922   5.840   6.755   7.671  0.0491  0.1472  0.1717
   36POPC   C2B  923   6.126   6.785   7.429  0.0956  0.1525 -0.1444
   36POPC   C3B  924   6.162   6.731   7.011 -0.0295  0.2271  0.0464
   36POPC   C4B  925   5.981   6.416   6.721  0.0082 -0.2996  0.3204
   37POPC   NC3  926   6.969   0.566   8.662 -0.1052 -0.0974 -0.0301
   37POPC   PO4  927   7.377   0.810   8.558 -0.1278 -0.1019  0.2730
   37POPC   GL1  928   7.081   0.685   8.188 -0.1782  0.3533  0.0201
   37POPC   GL2  929   6.916   0.994   8.059 -0.0071 -0.2773  0.0090
   37POPC   C1A  930   6.797   0.501   7.984 -0.0048  0.1204  0.1106
   37POPC   D2A  931   6.569   0.471   7.634 -0.1359 -0.0995  0.0244
   37POPC   C3A  932   6.430   0.537   7.243  0.0732 -0.0963 -0.0535
   37POPC   C4A  933   6.540   0.679   6.844 -0.0839 -0.5295  0.1805
   37POPC   C1B  934   7.275   1.067   7.997  0.0533  0.0131  0.0518
   37POPC   C2B  935   7.376   1.407   7.586 -0.0242  0.0252 -0.2351
   37POPC   C3B  936   7.717   1.729   7.302 -0.0146 -0.1690 -0.0886
   37POPC   C4B  937   8.175   1.762   7.381 -0.0054 -0.1532 -0.1640
   38POPC   NC3  938   9.714   1.283   9.130 -0.2249  0.2455 -0.1791
   38POPC   PO4  939   9.560   1.344   8.761  0.1076 -0.2747 -0.3118
   38POPC   GL1  940   9.586   1.187   8.315 -0.3236  0.0308  0.2199
   38POPC   GL2  941   9.482   0.821   8.224 -0.0558 -0.0725 -0.1024
   38POPC   C1A  942   9.424   1.221   7.809 -0.1631  0.2059  0.1096
   38POPC   D2A  943   9.140   1.154   7.481 -0.1930  0.0050 -0.0880
   38POPC   C3A  944   8.922   1.037   7.079 -0.0209  0.0296  0.1289
   38POPC   C4A  945   8.694   1.183   6.873  0.2388  0.2096 -0.0323
   38POPC   C1B  946   9.081   0.967   8.059 -0.0458 -0.3710  0.5308
   38POPC   C2B  947   8.746   1.077   7.752 -0.5066  0.2258  0.0924
   38POPC   C3B  948   8.613   1.303   7.363  0.1278  0.5144 -0.0248
   38POPC   C4B  949   8.552   1.591   7.122 -0.0344 -0.0857  0.0789
   39POPC   NC3  950  10.321   6.688  10.328  0.1111  0.1749 -0.1606
   39POPC   PO4  951  10.297   6.823   9.936  0.0984  0.0116 -0.4790
   39POPC   GL1  952  10.664   6.893   9.663 -0.0290 -0.1378 -0.2060
   39POPC   GL2  953  10.867   6.713   9.610  0.1368  0.1686  0.0631
   39POPC   C1A  954  10.682   7.313   9.644 -0.2687  0.2144 -0.1569
   39POPC   D2A  955  10.875   7.578   9.307  0.0090 -0.2295 -0.1989
   39POPC   C3A  956  11.061   7.765   9.108  0.2536  0.2219 -0.1044
   39POPC   C4A  957  11.090   8.024   8.751  0.0395  0.0128 -0.1411
   39POPC   C1B  958  11.027   7.067   9.360  0.0587  0.0818 -0.1108
   39POPC   C2B  959  11.130   7.151   8.908 -0.1976  0.2262 -0.4601
   39POPC   C3B  960  11.145   7.515   8.673  0.1038  0.2296  0.1998
   39POPC   C4B  961  11.144   7.770   8.184  0.0878 -0.0645  0.1868
   40POPC   NC3  962   9.932   5.432   9.942  0.0025  0.0243 -0.1909
   40POPC   PO4  963   9.778   5.339   9.515  0.0131 -0.0591 -0.2716
   40POPC   GL1  964   9.920   5.632   9.179 -0.0892 -0.6515  0.0022
   40POPC   GL2  965   9.684   5.509   8.926  0.0335  0.1482  0.3038
   40POPC   C1A  966  10.015   5.908   8.876 -0.1635  0.2315 -0.0341
   40POPC   D2A  967  10.148   5.956   8.471 -0.1548  0.0019 -0.1879
   40POPC   C3A  968  10.332   6.319   8.182 -0.1565  0.1583 -0.0244
   40POPC   C4A  969  10.179   6.612   7.918 -0.0320  0.0588 -0.1245
   40POPC   C1B  970   9.766   5.611   8.511 -0.0178  0.0094  0.0237
   40POPC   C2B  971   9.725   5.793   8.108 -0.3535 -0.1961  0.2611
   40POPC   C3B  972   9.602   5.768   7.713 -0.1776 -0.1863  0.0518
   40POPC   C4B  973   9.616   5.747   7.339 -0.1857 -0.2534  0.0396
   41POPC   NC3  974   9.951  10.244   9.929  0.2994  0.2597 -0.1901
   41POPC   PO4  975   9.924  10.559   9.638  0.0709 -0.1242  0.1786
   41POPC   GL1  976   9.834  10.477   9.199 -0.0767  0.0213 -0.1087
   41POPC   GL2  977   9.670  10.726   9.027 -0.1048 -0.1186  0.2618
   41POPC   C1A  978   9.944  10.142   8.836 -0.1379  0.1491  0.1647
   41POPC   D2A  979  10.360   9.865   8.661 -0.3571 -0.2292 -0.2411
   41POPC   C3A  980  10.363   9.727   8.280 -0.0760 -0.0887 -0.2264
   41POPC   C4A  981  10.475   9.573   7.918  0.2029 -0.1300  0.1055
   41POPC   C1B  982   9.908  10.605   8.679  0.1588  0.0785 -0.0070
   41POPC   C2B  983   9.907  10.303   8.357  0.0923  0.2004  0.0650
   41POPC   C3B  984  10.092  10.067   8.088  0.0307  0.1458 -0.3135
   41POPC   C4B  985  10.145   9.842   7.711 -0.0032  0.2571  0.1747
   42POPC   NC3  986   4.932   5.215   9.051 -0.1830  0.1275 -0.0003
   42POPC   PO4  987   5.102   5.549   8.875 -0.1279 -0.0226 -0.0809
   42POPC   GL1  988   5.194   5.600   8.404  0.0003  0.0636  0.2155
   42POPC   GL2  989   5.491   5.613   8.217 -0.2138 -0.0383  0.1121
   42POPC   C1A  990   5.046   5.647   7.917  0.0655  0.0470 -0.1301
   42POPC   D2A  991   5.227   5.404   7.439  0.2971 -0.0114 -0.1751
   42POPC   C3A  992   5.550   5.317   7.132 -0.1759 -0.0798 -0.5200
   42POPC   C4A  993   5.723   5.125   6.704  0.1592  0.2492 -0.1498
   42POPC   C1B  994   5.695   5.639   7.812 -0.0629 -0.1997 -0.1812
   42POPC   C2B  995   5.759   5.751   7.302 -0.2489  0.2251  0.2043
   42POPC   C3B  996   5.642   5.816   6.909 -0.2715  0.3101  0.0083
   42POPC   C4B  997   5.477   5.529   6.509 -0.3077  0.0757 -0.1925
   43POPC   NC3  998   6.622   4.978   9.117  0.1005 -0.2008  0.0815
   43POPC   PO4  999   6.739   4.901   8.728  0.0848 -0.0680  0.1162
   43POPC   GL1 1000   6.502   4.882   8.310  0.2921 -0.1732  0.1402
   43POPC   GL2 1001   6.742   4.554   8.207  0.2816 -0.2099 -0.0977
   43POPC   C1A 1002   6.516   5.187   7.924 -0.1545  0.1735 -0.3121
   43POPC   D2A 1003   6.723   5.193   7.604  0.1487  0.1120  0.2604
   43POPC   C3A 1004   6.762   5.601   7.286  0.0052 -0.0218  0.0887
   43POPC   C4A 1005   6.731   6.011   7.068  0.0318 -0.0555 -0.0027
   43POPC   C1B 1006   6.878   4.755   7.735 -0.2629  0.2444 -0.0138
   43POPC   C2B 1007   6.823   4.753   7.236  0.0364 -0.1715  0.1048
   43POPC   C3B 1008   6.935   4.776   6.863  0.1076 -0.2891 -0.0915
   43POPC   C4B 1009   7.262   4.836   6.534 -0.0543  0.2401 -0.0996
   44POPC   NC3 1010   0.792   7.779  10.482  0.0722 -0.2191  0.1565
   44POPC   PO4 1011   1.290   7.900  10.378 -0.2512  0.1541 -0.1628
   44POPC   GL1 1012   1.330   7.905   9.941  0.1098  0.1455 -0.1924
   44POPC   GL2 1013   1.026   7.928   9.672 -0.0343 -0.3989 -0.2915
   44POPC   C1A 1014   1.403   7.559   9.550  0.1328 -0.4246  0.2752
   44POPC   D2A 1015   1.568   7.722   9.195  0.0418  0.2423  0.1427
   44POPC   C3A 1016   1.293   8.025   9.020  0.0551 -0.0463  0.0274
   44POPC   C4A 1017   0.889   8.167   9.140  0.1639  0.1818  0.0589
   44POPC   C1B 1018   0.602   8.053   9.589  0.1041  0.0326  0.0609
   44POPC   C2B 1019   0.266   8.061   9.399 -0.2835  0.0375  0.1828
   44POPC   C3B 1020  -0.041   7.982   9.044  0.0671 -0.0203  0.0844
   44POPC   C4B 1021  -0.194   8.230   8.689  0.3547  0.0871  0.1216
   45POPC   NC3 1022   3.646  10.392   9.119 -0.0954 -0.0810 -0.3148
   45POPC   PO4 1023   3.833  10.022   8.924  0.1089  0.4288 -0.2625
   45POPC   GL1 1024   3.776   9.879   8.550  0.0330  0.0875 -0.1556
   45POPC   GL2 1025   3.862  10.111   8.389 -0.1202 -0.5073 -0.1513
   45POPC   C1A 1026   3.683   9.702   8.084  0.0418  0.0379 -0.0164
   45POPC   D2A 1027   3.578   9.235   8.069 -0.0231  0.0967  0.0585
   45POPC   C3A 1028   3.281   9.156   7.807 -0.2426  0.1524 -0.3289
   45POPC   C4A 1029   2.922   8.744   7.749  0.0594  0.0108  0.2120
   45POPC   C1B 1030   3.701  10.269   8.022  0.0946 -0.1065  0.0501
   45POPC   C2B 1031   3.737  10.210   7.565 -0.0193 -0.1341  0.1803
   45POPC   C3B 1032   3.539  10.018   7.272 -0.1616  0.0055  0.0682
   45POPC   C4B 1033   3.246  10.108   6.834  0.1314 -0.0210 -0.1940
   46POPC   NC3 1034   4.004   1.788   8.835 -0.0529  0.0045  0.0706
   46POPC   PO4 1035   3.728   1.432   8.840  0.0873 -0.2254 -0.0447
   46POPC   GL1 1036   3.633   1.704   8.453  0.0030  0.1913  0.0347
   46POPC   GL2 1037   3.462   1.905   8.631 -0.0666 -0.1684 -0.0274
   46POPC   C1A 1038   3.680   1.697   8.002 -0.1215  0.2716 -0.0524
   46POPC   D2A 1039   3.432   1.589   7.663  0.1576 -0.1880 -0.0529
   46POPC   C3A 1040   3.186   1.165   7.633  0.0189  0.1706  0.0023
   46POPC   C4A 1041   3.025   0.727   7.366  0.3057 -0.0939 -0.0658
   46POPC   C1B 1042   3.420   2.110   8.247  0.2077  0.0034 -0.2586
   46POPC   C2B 1043   3.330   2.041   7.888  0.0851 -0.0445  0.4704
   46POPC   C3B 1044   3.201   2.087   7.486  0.1763 -0.3121 -0.1074
   46POPC   C4B 1045   2.825   2.053   7.367  0.2857  0.2445 -0.0703
   47POPC   NC3 1046   5.288   6.489   8.804 -0.0907  0.2719  0.0893
   47POPC   PO4 1047   5.316   6.005   8.814  0.3094  0.2460 -0.3091
   47POPC   GL1 1048   5.312   6.119   8.391 -0.0172 -0.1722 -0.2622
   47POPC   GL2 1049   5.618   6.148   8.224 -0.3352 -0.3120  0.2990
   47POPC   C1A 1050   5.127   6.144   8.050 -0.1363 -0.4214  0.0033
   47POPC   D2A 1051   4.738   6.080   7.809 -0.2225 -0.0771 -0.0335
   47POPC   C3A 1052   4.556   6.218   7.417  0.1754  0.0067 -0.0635
   47POPC   C4A 1053   4.729   6.008   7.073 -0.0363  0.0380 -0.0419
   47POPC   C1B 1054   5.492   6.536   8.012  0.2787  0.2193 -0.0348
   47POPC   C2B 1055   5.406   6.944   7.891 -0.1592 -0.0460 -0.2350
   47POPC   C3B 1056   5.369   7.209   7.531 -0.1849 -0.0005  0.0554
   47POPC   C4B 1057   5.396   7.257   7.094  0.1008 -0.0896 -0.0638
   48POPC   NC3 1058   5.746   3.080   8.849  0.4648  0.2526 -0.1021
   48POPC   PO4 1059   6.185   2.903   9.068  0.0708  0.0855  0.0037
   48POPC   GL1 1060   6.185   2.918   8.613  0.0128  0.0094  0.0059
   48POPC   GL2 1061   5.938   2.838   8.441  0.0684 -0.0380 -0.1401
   48POPC   C1A 1062   6.250   3.247   8.208  0.1547  0.0774 -0.2416
   48POPC   D2A 1063   6.403   3.587   8.160  0.0558 -0.0879  0.0744
   48POPC   C3A 1064   6.439   3.693   7.799  0.2802  0.3209  0.2355
   48POPC   C4A 1065   6.441   3.930   7.298 -0.1883  0.4068  0.3609
   48POPC   C1B 1066   5.761   3.159   8.198  0.0506 -0.1080  0.1104
   48POPC   C2B 1067   5.887   3.525   7.883  0.4419  0.0479 -0.1115
   48POPC   C3B 1068   6.072   3.461   7.408  0.2942  0.5186  0.0950
   48POPC   C4B 1069   6.428   3.501   7.015 -0.0543 -0.1969  0.0414
   49POPC   NC3 1070   9.961   4.438   9.255 -0.0356 -0.1445 -0.2561
   49POPC   PO4 1071  10.021   4.644   8.838  0.0925  0.1505  0.0598
   49POPC   GL1 1072   9.741   4.813   8.512  0.0477  0.1462  0.2347
   49POPC   GL2 1073   9.710   5.108   8.489 -0.4066  0.0817  0.0065
   49POPC   C1A 1074   9.772   4.799   8.037  0.1291  0.0964  0.1928
   49POPC   D2A 1075   9.528   4.950   7.755  0.1420  0.0023  0.2155
   49POPC   C3A 1076   9.415   4.729   7.298  0.3427 -0.1668 -0.2712
   49POPC   C4A 1077   9.489   4.267   7.361  0.1777 -0.1362 -0.0127
   49POPC   C1B 1078   9.790   5.298   8.060 -0.0507 -0.1194 -0.0108
   49POPC   C2B 1079  10.019   5.516   7.708 -0.1227  0.1832 -0.0089
   49POPC   C3B 1080  10.410   5.627   7.572  0.2258 -0.1546  0.0025
   49POPC   C4B 1081  10.701   5.874   7.411 -0.4041  0.1872 -0.2613
   50POPC   NC3 1082   2.807   5.276   8.838  0.1573 -0.0985  0.1143
   50POPC   PO4 1083   2.770   4.859   8.843 -0.1093  0.1993  0.0669
   50POPC   GL1 1084   2.470   4.846   8.508 -0.2559  0.1264  0.1041
   50POPC   GL2 1085   2.364   4.741   8.196  0.0664 -0.0032 -0.0239
   50POPC   C1A 1086   2.313   5.201   8.295 -0.1395  0.3717 -0.1496
   50POPC   D2A 1087   2.312   5.256   7.806 -0.2039  0.1192  0.4434
   50POPC   C3A 1088   1.953   5.423   7.563 -0.0397 -0.1113  0.1934
   50POPC   C4A 1089   1.728   5.575   7.173 -0.0515  0.2019 -0.3138
   50POPC   C1B 1090   2.700   4.605   7.867 -0.3901 -0.3175 -0.1874
   50POPC   C2B 1091   3.081   4.700   7.651  0.1612 -0.0837  0.1408
   50POPC   C3B 1092   3.202   4.587   7.252 -0.1286  0.1412  0.0835
   50POPC   C4B 1093   3.531   4.380   7.010 -0.2359 -0.1354 -0.0382
   51POPC   NC3 1094   5.725   0.650   8.842  0.0854 -0.1666  0.2318
   51POPC   PO4 1095   5.724   1.183   8.584  0.0060 -0.1573  0.0820
   51POPC   GL1 1096   5.864   1.148   8.117 -0.2158 -0.1316 -0.0378
   51POPC   GL2 1097   5.609   1.165   7.863  0.0275 -0.1897 -0.1598
   51POPC   C1A 1098   6.137   1.345   7.816 -0.0527 -0.0206 -0.1920
   51POPC   D2A 1099   6.333   1.308   7.545  0.0984 -0.0515 -0.1160
   51POPC   C3A 1100   6.598   1.006   7.373  0.1373  0.0926  0.0835
   51POPC   C4A 1101   6.963   0.838   7.604 -0.3306 -0.1092  0.0666
   51POPC   C1B 1102   5.321   1.433   7.523  0.2864  0.2293 -0.1711
   51POPC   C2B 1103   5.388   1.887   7.373  0.3329 -0.1526 -0.0577
   51POPC   C3B 1104   5.285   2.232   7.092 -0.1421 -0.0338  0.3286
   51POPC   C4B 1105   5.239   2.651   6.899 -0.0271 -0.2122  0.2521
   52POPC   NC3 1106   6.944   3.667   8.841 -0.0150  0.2109 -0.2114
   52POPC   PO4 1107   6.535   3.842   8.698  0.2086  0.0034 -0.0199
   52POPC   GL1 1108   6.826   3.819   8.309 -0.1790  0.1379 -0.4787
   52POPC   GL2 1109   6.840   4.086   8.300  0.2833 -0.0832 -0.3646
   52POPC   C1A 1110   6.947   3.650   7.990 -0.0428 -0.2506  0.3264
   52POPC   D2A 1111   6.940   3.831   7.661  0.0326  0.2199 -0.2337
   52POPC   C3A 1112   7.370   3.907   7.552 -0.0685 -0.1053 -0.2680
   52POPC   C4A 1113   7.608   4.215   7.345 -0.2106  0.2341  0.0687
   52POPC   C1B 1114   6.555   4.178   8.004 -0.2840  0.1610  0.3129
   52POPC   C2B 1115   6.692   4.267   7.769 -0.0559  0.1386  0.1159
   52POPC   C3B 1116   6.603   4.410   7.485  0.0452 -0.1334 -0.0042
   52POPC   C4B 1117   6.652   4.279   7.042 -0.1722 -0.0489  0.3684
   53POPC   NC3 1118   7.721   7.032   9.143  0.1111 -0.0452  0.0928
   53POPC   PO4 1119   7.596   7.262   8.760  0.1619 -0.0829 -0.1559
   53POPC   GL1 1120   7.531   7.233   8.192 -0.1292  0.1766 -0.0347
   53POPC   GL2 1121   7.866   7.468   8.153  0.0536  0.0426  0.2437
   53POPC   C1A 1122   7.467   7.404   7.803 -0.0277  0.1046 -0.0407
   53POPC   D2A 1123   7.774   7.436   7.439  0.0055  0.3579 -0.1706
   53POPC   C3A 1124   7.788   7.644   7.074 -0.2726 -0.3780 -0.2193
   53POPC   C4A 1125   7.984   7.525   6.609 -0.0039 -0.2490 -0.0215
   53POPC   C1B 1126   8.101   7.563   7.734 -0.1035  0.0771  0.2753
   53POPC   C2B 1127   8.320   7.675   7.471  0.0719 -0.1273 -0.2966
   53POPC   C3B 1128   8.438   7.459   7.068 -0.0895  0.0832 -0.2081
   53POPC   C4B 1129   8.406   7.252   6.762  0.0014 -0.1402 -0.4986
   54POPC   NC3 1130   5.305  10.315   8.526  0.0975  0.2347  0.0064
   54POPC   PO4 1131   5.705  10.306   8.470 -0.1875 -0.1508  0.0321
   54POPC   GL1 1132   5.331  10.279   8.059 -0.3255 -0.1475 -0.0645
   54POPC   GL2 1133   4.979  10.218   8.043 -0.0572 -0.2047 -0.2980
   54POPC   C1A 1134   5.253  10.482   7.690 -0.0819  0.1876  0.0403
   54POPC   D2A 1135   5.322  10.784   7.369  0.5376  0.0146  0.2201
   54POPC   C3A 1136   5.380  10.554   7.077  0.1859 -0.0076  0.1497
   54POPC   C4A 1137   5.697  10.593   6.924 -0.0290  0.0036 -0.2280
   54POPC   C1B 1138   4.689  10.173   7.719  0.1869 -0.2405  0.3059
   54POPC   C2B 1139   4.344  10.086   7.353 -0.2664 -0.2206  0.0478
   54POPC   C3B 1140   4.041   9.989   7.200  0.3150  0.0111  0.0879
   54POPC   C4B 1141   3.743  10.002   6.855 -0.0580 -0.0248  0.2335
   55POPC   NC3 1142   2.827  10.421   9.463  0.0591 -0.2059 -0.1423
   55POPC   PO4 1143   3.163  10.361   9.215  0.2523  0.1951  0.3568
   55POPC   GL1 1144   3.046  10.217   8.913 -0.2149  0.2201 -0.0006
   55POPC   GL2 1145   3.380  10.124   8.728 -0.2168  0.2679  0.3911
   55POPC   C1A 1146   2.856  10.236   8.537 -0.4645 -0.3184  0.0756
   55POPC   D2A 1147   2.452  10.107   8.455  0.0711 -0.2549 -0.1963
   55POPC   C3A 1148   2.252  10.440   8.425 -0.0330  0.1054  0.5086
   55POPC   C4A 1149   2.113  10.773   8.587 -0.2361  0.1892  0.0035
   55POPC   C1B 1150   3.319  10.222   8.378 -0.0133 -0.0810  0.2629
   55POPC   C2B 1151   3.189   9.878   8.215 -0.2347  0.1698 -0.2477
   55POPC   C3B 1152   2.972   9.496   8.060  0.0780  0.2105 -0.3466
   55POPC   C4B 1153   2.828   9.143   7.971 -0.0163  0.0028 -0.0520
   56POPC   NC3 1154   8.872   0.375   8.859 -0.0586 -0.2095  0.2145
   56POPC   PO4 1155   9.240   0.522   8.908  0.0623 -0.2180  0.1554
   56POPC   GL1 1156   9.207   0.448   8.537 -0.0325  0.1376  0.1094
   56POPC   GL2 1157   9.543   0.380   8.450  0.1801 -0.1110 -0.0900
   56POPC   C1A 1158   9.056   0.420   8.159  0.1941 -0.1554 -0.3328
   56POPC   D2A 1159   9.156   0.391   7.751 -0.2656  0.1919 -0.0708
   56POPC   C3A 1160   9.336   0.030   7.621  0.1523 -0.1702 -0.2571
   56POPC   C4A 1161   9.572  -0.319   7.359  0.0636  0.2778 -0.1569
   56POPC   C1B 1162   9.777   0.327   8.182 -0.3306 -0.0514  0.3751
   56POPC   C2B 1163   9.700   0.414   7.727 -0.1600  0.2109  0.0938
   56POPC   C3B 1164   9.888   0.527   7.328 -0.2395 -0.1259  0.2034
   56POPC   C4B 1165  10.009   0.376   6.917 -0.3281 -0.0271  0.1614
   57POPC   NC3 1166   3.423   1.107   8.622  0.3196  0.2029 -0.3502
   57POPC   PO4 1167   3.402   0.787   8.788  0.0274  0.1499  0.2274
   57POPC   GL1 1168   3.709   0.628   8.451 -0.1231 -0.1079  0.0094
   57POPC   GL2 1169   3.929   0.684   8.177 -0.1676 -0.1956  0.2939
   57POPC   C1A 1170   3.461   0.403   8.121 -0.3068  0.3255  0.1849
   57POPC   D2A 1171   3.236   0.026   7.913  0.1559 -0.1244 -0.1435
   57POPC   C3A 1172   3.170  -0.400   7.761 -0.0457 -0.0516  0.2380
   57POPC   C4A 1173   3.300  -0.831   7.660  0.1517 -0.0960 -0.1319
   57POPC   C1B 1174   3.983   0.849   7.736 -0.3167 -0.2876 -0.4965
   57POPC   C2B 1175   3.696   1.059   7.463 -0.2268  0.2179  0.2302
   57POPC   C3B 1176   3.384   1.237   7.116  0.0635 -0.1682  0.0319
   57POPC   C4B 1177   3.126   1.712   7.039 -0.0002 -0.2491 -0.1469
   58POPC   NC3 1178   2.677   7.675  10.603  0.0517 -0.1445 -0.0353
   58POPC   PO4 1179   2.557   7.780  10.149 -0.1046 -0.2490 -0.4642
   58POPC   GL1 1180   2.601   7.883   9.734 -0.1013  0.1013  0.1378
   58POPC   GL2 1181   2.944   7.904   9.485 -0.1090 -0.0708 -0.2059
   58POPC   C1A 1182   2.483   7.937   9.328 -0.3973  0.1968  0.2907
   58POPC   D2A 1183   2.502   8.110   9.015 -0.0251  0.0672  0.2010
   58POPC   C3A 1184   2.173   8.303   8.752 -0.1909  0.1358  0.0250
   58POPC   C4A 1185   1.828   8.364   8.879  0.2277 -0.0082  0.2112
   58POPC   C1B 1186   3.051   7.986   9.073 -0.1626 -0.1277 -0.0117
   58POPC   C2B 1187   2.889   8.164   8.705 -0.1326  0.2319  0.2856
   58POPC   C3B 1188   2.538   7.974   8.486 -0.1926 -0.1326 -0.1449
   58POPC   C4B 1189   2.555   7.954   8.060 -0.0131 -0.1233  0.1328
   59POPC   NC3 1190   3.388   1.588   9.262  0.1991  0.1680  0.0348
   59POPC   PO4 1191   3.068   1.739   8.972  0.1750 -0.2564 -0.1626
   59POPC   GL1 1192   2.988   1.595   8.577  0.0775 -0.0059  0.2134
   59POPC   GL2 1193   2.866   1.271   8.542 -0.2049 -0.0681  0.2713
   59POPC   C1A 1194   3.257   1.574   8.194  0.1194  0.1230 -0.2628
   59POPC   D2A 1195   3.556   1.228   8.109  0.0237 -0.0145  0.0351
   59POPC   C3A 1196   3.478   0.961   7.959  0.1296  0.1311  0.2031
   59POPC   C4A 1197   3.509   0.608   7.582 -0.1196  0.0887 -0.3004
   59POPC   C1B 1198   2.976   1.134   8.100  0.0345  0.1885 -0.1108
   59POPC   C2B 1199   2.862   0.879   7.859  0.3248  0.4165  0.0612
   59POPC   C3B 1200   2.535   0.827   7.430  0.6121 -0.0367 -0.0440
   59POPC   C4B 1201   2.139   0.779   7.177  0.2400 -0.0626 -0.0136
   60POPC   NC3 1202   8.172   5.275   9.204  0.0878  0.1129  0.0490
   60POPC   PO4 1203   8.306   4.989   8.855 -0.1685 -0.0491 -0.0333
   60POPC   GL1 1204   8.327   5.160   8.481  0.1125 -0.2843 -0.2432
   60POPC   GL2 1205   8.471   5.248   8.225 -0.0566 -0.0462 -0.0121
   60POPC   C1A 1206   8.046   5.079   8.159 -0.0719 -0.0122  0.0814
   60POPC   D2A 1207   7.807   5.089   7.820 -0.0115  0.0719  0.2179
   60POPC   C3A 1208   7.606   5.413   7.683 -0.3026 -0.2252  0.0366
   60POPC   C4A 1209   7.153   5.505   7.680 -0.1819 -0.0772 -0.0831
   60POPC   C1B 1210   8.860   5.171   7.960  0.3673 -0.1794 -0.1573
   60POPC   C2B 1211   8.985   4.912   7.530 -0.0748 -0.0256 -0.0177
   60POPC   C3B 1212   8.960   4.971   7.069  0.1781 -0.0348  0.0922
   60POPC   C4B 1213   9.144   4.916   6.582  0.1777  0.1269  0.1648
   61POPC   NC3 1214   3.456   6.803   9.114 -0.1420  0.0450 -0.0387
   61POPC   PO4 1215   3.506   6.378   9.174 -0.0391  0.0841  0.0726
   61POPC   GL1 1216   3.267   6.452   8.823 -0.1278  0.4509  0.1560
   61POPC   GL2 1217   2.960   6.219   8.712 -0.0186  0.3333 -0.0562
   61POPC   C1A 1218   3.196   6.634   8.450  0.3376  0.2577 -0.1167
   61POPC   D2A 1219   3.156   6.787   8.004 -0.1227  0.0241 -0.2821
   61POPC   C3A 1220   2.850   7.031   7.896 -0.0922 -0.1502  0.0720
   61POPC   C4A 1221   2.399   7.079   7.818 -0.1316 -0.1544  0.2104
   61POPC   C1B 1222   2.574   6.239   8.525 -0.0726  0.0441 -0.0014
   61POPC   C2B 1223   2.149   6.063   8.359  0.2798 -0.0951  0.1674
   61POPC   C3B 1224   2.035   6.243   7.986  0.1507 -0.1856  0.1889
   61POPC   C4B 1225   2.372   6.409   7.791 -0.3183 -0.0314  0.0323
   62POPC   NC3 1226   3.838   5.599   9.406 -0.0297  0.0774  0.1468
   62POPC   PO4 1227   3.615   5.851   9.212  0.1253  0.0569  0.2547
   62POPC   GL1 1228   3.523   5.958   8.823  0.2276  0.1732 -0.2384
   62POPC   GL2 1229   3.788   6.143   8.781  0.0102 -0.1598  0.0566
   62POPC   C1A 1230   3.351   5.970   8.541 -0.0960 -0.0673  0.1727
   62POPC   D2A 1231   3.278   6.178   8.206  0.0939  0.0313 -0.0332
   62POPC   C3A 1232   2.922   6.269   8.047 -0.0811  0.0440  0.2317
   62POPC   C4A 1233   2.545   6.025   8.021 -0.1154 -0.0866  0.1489
   62POPC   C1B 1234   3.662   6.392   8.481  0.0759  0.0438 -0.0380
   62POPC   C2B 1235   3.586   6.784   8.195 -0.1790  0.1330 -0.3603
   62POPC   C3B 1236   3.675   6.915   7.727 -0.2117 -0.2416 -0.2939
   62POPC   C4B 1237   3.690   7.122   7.303 -0.1289 -0.0394  0.0587
   63POPC   NC3 1238   5.530   9.769   9.306 -0.0913 -0.1940  0.1335
   63POPC   PO4 1239   5.635   9.698   8.788  0.3362 -0.0592 -0.1854
   63POPC   GL1 1240   5.568   9.818   8.305  0.2886  0.2307 -0.0084
   63POPC   GL2 1241   5.218   9.775   8.172  0.0398  0.0845  0.1311
   63POPC   C1A 1242   5.481   9.485   7.875 -0.0195 -0.1430 -0.0293
   63POPC   D2A 1243   5.670   9.418   7.483  0.3439  0.0730 -0.0365
   63POPC   C3A 1244   5.427   9.398   7.055 -0.3139  0.4991  0.2589
   63POPC   C4A 1245   5.054   9.686   6.953  0.2252  0.0839  0.1389
   63POPC   C1B 1246   5.141   9.954   7.736 -0.1678  0.2347  0.1627
   63POPC   C2B 1247   5.123  10.076   7.323  0.2187  0.0997  0.0383
   63POPC   C3B 1248   4.788  10.190   6.917  0.4642  0.2264 -0.1989
   63POPC   C4B 1249   4.714  10.334   6.551  0.3762 -0.0171  0.4491
   64POPC   NC3 1250   8.327   8.756   8.805 -0.0235 -0.0367 -0.0619
   64POPC   PO4 1251   7.953   8.506   8.778  0.3275 -0.0328 -0.0955
   64POPC   GL1 1252   8.114   8.547   8.389  0.3091  0.0795 -0.0987
   64POPC   GL2 1253   8.272   8.325   8.413  0.2413 -0.0763  0.0319
   64POPC   C1A 1254   8.247   8.818   8.088 -0.0292  0.0585  0.0579
   64POPC   D2A 1255   8.207   9.033   7.793  0.2096  0.2058 -0.0248
   64POPC   C3A 1256   8.476   9.086   7.374  0.2657 -0.0458  0.2413
   64POPC   C4A 1257   8.668   9.389   6.977 -0.0280 -0.1031 -0.2958
   64POPC   C1B 1258   8.496   8.414   8.057  0.0957 -0.1938 -0.1710
   64POPC   C2B 1259   8.653   8.546   7.733 -0.1814  0.3099 -0.0992
   64POPC   C3B 1260   9.057   8.334   7.545  0.3506 -0.2037  0.0525
   64POPC   C4B 1261   9.275   8.075   7.338  0.3322 -0.4304  0.2863
   65POPC   NC3 1262   2.873   2.873   9.156 -0.0202  0.2434 -0.3447
   65POPC   PO4 1263   2.467   2.909   8.957  0.0663  0.0165  0.0527
   65POPC   GL1 1264   2.392   3.161   8.476 -0.2118 -0.0873  0.2923
   65POPC   GL2 1265   2.715   3.268   8.303  0.2725 -0.2500 -0.3047
   65POPC   C1A 1266   2.259   3.288   8.053  0.1225  0.0096  0.0271
   65POPC   D2A 1267   2.176   3.125   7.681 -0.2780 -0.0036  0.0701
   65POPC   C3A 1268   1.846   3.241   7.420 -0.1338 -0.1694  0.1126
   65POPC   C4A 1269   1.689   3.501   6.995  0.0637 -0.0346  0.4108
   65POPC   C1B 1270   2.650   2.832   8.136 -0.0876 -0.2226 -0.2132
   65POPC   C2B 1271   2.319   2.568   7.884  0.1401 -0.0918 -0.1155
   65POPC   C3B 1272   2.042   2.652   7.545 -0.1615  0.2188  0.3406
   65POPC   C4B 1273   1.853   2.370   7.211  0.0119  0.0432 -0.1352
   66POPC   NC3 1274   1.112   3.267   8.969  0.3859  0.0004  0.2199
   66POPC   PO4 1275   1.532   3.193   8.844  0.2555 -0.0634 -0.0903
   66POPC   GL1 1276   1.662   2.711   8.591  0.2510  0.0296 -0.2098
   66POPC   GL2 1277   1.753   2.419   8.612  0.4327 -0.0479 -0.1778
   66POPC   C1A 1278   1.763   2.445   8.065  0.1074  0.0989  0.1348
   66POPC   D2A 1279   2.009   2.166   7.776  0.0875 -0.0027  0.0678
   66POPC   C3A 1280   2.281   2.265   7.496 -0.1551  0.2061 -0.0556
   66POPC   C4A 1281   2.457   2.370   7.078 -0.3533  0.0479  0.0544
   66POPC   C1B 1282   1.685   2.094   8.358 -0.0731  0.1902 -0.0983
   66POPC   C2B 1283   1.557   1.944   7.882  0.0639  0.2448  0.0149
   66POPC   C3B 1284   1.271   1.842   7.478  0.2582  0.0525 -0.0905
   66POPC   C4B 1285   1.030   1.794   7.087  0.1293  0.0313 -0.1752
   67POPC   NC3 1286   3.001   0.729   9.248  0.0222 -0.5114  0.0223
   67POPC   PO4 1287   2.576   0.582   9.466 -0.1628  0.2323  0.1271
   67POPC   GL1 1288   2.504   0.460   9.060  0.0338  0.1869  0.0225
   67POPC   GL2 1289   2.574   0.120   8.974  0.0435 -0.0744 -0.2846
   67POPC   C1A 1290   2.356   0.767   8.723  0.0392  0.0112  0.0470
   67POPC   D2A 1291   2.575   0.861   8.295 -0.1620 -0.4227  0.2174
   67POPC   C3A 1292   2.986   0.584   8.240  0.0227  0.0074  0.1286
   67POPC   C4A 1293   3.075   0.197   8.309  0.0642  0.0880 -0.2389
   67POPC   C1B 1294   2.716   0.253   8.642  0.3475 -0.0526 -0.2713
   67POPC   C2B 1295   2.583   0.266   8.219 -0.3656 -0.1488 -0.1590
   67POPC   C3B 1296   2.686   0.427   7.762  0.1202 -0.0976 -0.0841
   67POPC   C4B 1297   3.062   0.430   7.755  0.1689  0.0198  0.0273
   68POPC   NC3 1298   1.015   4.672   9.139  0.0264  0.0500 -0.0963
   68POPC   PO4 1299   0.607   4.924   9.108  0.1043 -0.0797 -0.0084
   68POPC   GL1 1300   0.869   5.025   8.806 -0.2152  0.2051  0.1028
   68POPC   GL2 1301   0.993   4.734   8.643 -0.0881  0.0795  0.0892
   68POPC   C1A 1302   0.769   5.362   8.483 -0.0378 -0.2304  0.4133
   68POPC   D2A 1303   1.130   5.615   8.304 -0.5655  0.0005  0.2781
   68POPC   C3A 1304   1.125   6.063   8.242 -0.6682 -0.4084  0.2358
   68POPC   C4A 1305   1.255   6.300   7.780 -0.0126 -0.1269 -0.0265
   68POPC   C1B 1306   1.224   4.485   8.221  0.4502 -0.0253 -0.2083
   68POPC   C2B 1307   1.089   4.324   7.823  0.2045 -0.0159  0.2168
   68POPC   C3B 1308   1.359   4.447   7.583  0.2984  0.4449 -0.0181
   68POPC   C4B 1309   1.527   4.222   7.264  0.1041 -0.0763 -0.0248
   69POPC   NC3 1310   0.952   5.824   9.346  0.0035  0.0977 -0.1912
   69POPC   PO4 1311   0.628   5.920   9.438  0.1742 -0.0032 -0.0794
   69POPC   GL1 1312   0.372   6.295   9.248 -0.0216  0.0585  0.0728
   69POPC   GL2 1313   0.114   6.049   9.310  0.0242  0.0168 -0.0434
   69POPC   C1A 1314   0.171   6.766   9.167 -0.0692  0.2808  0.1868
   69POPC   D2A 1315   0.176   7.242   9.074 -0.2435  0.3966  0.0979
   69POPC   C3A 1316  -0.108   7.548   9.298  0.1866 -0.2660  0.1922
   69POPC   C4A 1317   0.042   7.802   9.703  0.0521 -0.0603  0.1094
   69POPC   C1B 1318  -0.180   6.286   9.050  0.2476  0.0539  0.0212
   69POPC   C2B 1319  -0.229   6.519   8.720  0.2986 -0.1173 -0.5330
   69POPC   C3B 1320  -0.070   6.741   8.422  0.0819  0.1223  0.1074
   69POPC   C4B 1321   0.393   6.885   8.490 -0.4511 -0.0634 -0.1489
   70POPC   NC3 1322   6.751   4.372   8.712 -0.3292 -0.0307 -0.0354
   70POPC   PO4 1323   7.099   4.175   8.735 -0.3260 -0.1089  0.0255
   70POPC   GL1 1324   7.362   3.912   8.478  0.1021 -0.0489 -0.1347
   70POPC   GL2 1325   7.328   4.101   8.200  0.1669 -0.1854 -0.0153
   70POPC   C1A 1326   7.308   3.408   8.381  0.2355 -0.1841 -0.1547
   70POPC   D2A 1327   7.251   3.269   7.957 -0.3094 -0.2466  0.1120
   70POPC   C3A 1328   7.191   3.430   7.632 -0.0447  0.1458  0.0004
   70POPC   C4A 1329   7.256   3.379   7.235 -0.0554  0.0297 -0.3642
   70POPC   C1B 1330   7.435   3.755   8.005 -0.0585 -0.2138  0.1524
   70POPC   C2B 1331   7.651   3.435   7.752 -0.2606 -0.0235 -0.4911
   70POPC   C3B 1332   7.757   3.235   7.373  0.5073  0.1951  0.0436
   70POPC   C4B 1333   7.976   3.298   7.062  0.0771  0.1966  0.0620
   71POPC   NC3 1334   5.579   5.495   8.698  0.1658  0.1360 -0.2848
   71POPC   PO4 1335   5.997   5.447   8.844  0.0111 -0.0543  0.2700
   71POPC   GL1 1336   6.001   5.312   8.482  0.0182  0.0541 -0.4313
   71POPC   GL2 1337   5.989   5.703   8.349  0.3216 -0.1861  0.1483
   71POPC   C1A 1338   6.047   5.028   8.081 -0.4973  0.2613  0.0316
   71POPC   D2A 1339   5.949   5.112   7.559  0.2862  0.0341 -0.2598
   71POPC   C3A 1340   5.889   4.847   7.200 -0.2073  0.2651 -0.0661
   71POPC   C4A 1341   5.887   4.595   6.878 -0.3203  0.3151  0.2103
   71POPC   C1B 1342   6.429   5.563   8.291  0.0396 -0.1971  0.1323
   71POPC   C2B 1343   6.780   5.638   7.972  0.0243 -0.1703 -0.0964
   71POPC   C3B 1344   6.798   5.985   7.639 -0.1248 -0.2144  0.0123
   71POPC   C4B 1345   6.893   6.342   7.429 -0.4735 -0.2385  0.0029
   72POPC   NC3 1346   6.013   9.886   8.577  0.2123  0.1178  0.1141
   72POPC   PO4 1347   6.318   9.587   8.474 -0.0553  0.2902  0.2963
   72POPC   GL1 1348   5.962   9.534   8.211  0.2952  0.0371 -0.2615
   72POPC   GL2 1349   5.851   9.190   7.996  0.2772  0.0507 -0.0171
   72POPC   C1A 1350   5.926   9.696   7.838  0.2450 -0.0239 -0.1058
   72POPC   D2A 1351   6.132   9.716   7.422  0.1349  0.3433  0.2367
   72POPC   C3A 1352   5.976   9.571   6.973 -0.2272  0.3303 -0.0785
   72POPC   C4A 1353   5.848   9.129   6.840 -0.0613  0.1912 -0.3148
   72POPC   C1B 1354   5.549   8.949   7.815  0.0504 -0.0930 -0.0783
   72POPC   C2B 1355   5.283   9.096   7.462 -0.0940 -0.2703 -0.1219
   72POPC   C3B 1356   4.797   9.214   7.283 -0.0278 -0.1792 -0.1487
   72POPC   C4B 1357   4.437   9.237   7.077 -0.0087 -0.0962  0.1476
   73POPC   NC3 1358   7.064  10.082   8.377  0.2885  0.1135 -0.3397
   73POPC   PO4 1359   6.606  10.085   8.466  0.2935  0.0688  0.2911
   73POPC   GL1 1360   6.461  10.054   8.128  0.0918 -0.0410 -0.2124
   73POPC   GL2 1361   6.706   9.840   8.001 -0.0594 -0.1152 -0.2085
   73POPC   C1A 1362   6.206  10.117   7.750  0.1086 -0.2548  0.1693
   73POPC   D2A 1363   5.959  10.170   7.345 -0.0138  0.1248  0.1779
   73POPC   C3A 1364   6.194  10.038   7.028 -0.3186 -0.0771  0.2680
   73POPC   C4A 1365   6.344   9.814   6.640  0.0092 -0.1209  0.0306
   73POPC   C1B 1366   6.945   9.636   7.770  0.2570 -0.0278 -0.2272
   73POPC   C2B 1367   6.827   9.322   7.487 -0.2355 -0.0049  0.0714
   73POPC   C3B 1368   6.973   9.175   7.040  0.1729 -0.1471  0.0262
   73POPC   C4B 1369   7.237   9.327   6.793 -0.4505 -0.4727 -0.0071
   74POPC   NC3 1370   3.981   7.454   9.443  0.0347  0.2598 -0.0560
   74POPC   PO4 1371   4.264   7.557   9.058 -0.2560  0.2584 -0.1794
   74POPC   GL1 1372   4.121   7.529   8.623 -0.1509  0.1671 -0.1865
   74POPC   GL2 1373   4.315   7.622   8.395  0.2047 -0.2573 -0.0266
   74POPC   C1A 1374   3.745   7.714   8.492 -0.0256  0.0628  0.0690
   74POPC   D2A 1375   3.432   7.701   8.216 -0.0848  0.1496  0.1734
   74POPC   C3A 1376   3.341   7.302   7.936  0.1506 -0.4069  0.1701
   74POPC   C4A 1377   3.219   7.282   7.538 -0.1078  0.1051 -0.0626
   74POPC   C1B 1378   4.193   7.740   7.963 -0.1200 -0.0469 -0.1375
   74POPC   C2B 1379   4.202   8.090   7.565 -0.0598 -0.1030  0.3157
   74POPC   C3B 1380   4.139   8.092   7.245 -0.0515  0.1390 -0.2831
   74POPC   C4B 1381   3.843   7.884   6.939  0.3396 -0.1312 -0.3207
   75POPC   NC3 1382   7.894   1.234   8.649 -0.2165 -0.2066  0.1483
   75POPC   PO4 1383   8.155   0.884   8.725  0.2114 -0.1048  0.3176
   75POPC   GL1 1384   8.388   0.975   8.383 -0.1282  0.1974 -0.3172
   75POPC   GL2 1385   8.662   0.750   8.262 -0.0731  0.0046 -0.0617
   75POPC   C1A 1386   8.322   0.986   7.953 -0.1281  0.4435 -0.0927
   75POPC   D2A 1387   8.325   0.856   7.587  0.2248 -0.2566  0.1621
   75POPC   C3A 1388   7.947   0.744   7.395  0.0249  0.0256  0.0617
   75POPC   C4A 1389   7.820   0.746   7.066 -0.1828  0.0066 -0.0449
   75POPC   C1B 1390   8.642   0.574   7.845  0.2714 -0.2356 -0.1125
   75POPC   C2B 1391   8.836   0.630   7.480  0.1771 -0.0332  0.0992
   75POPC   C3B 1392   8.459   0.786   7.114  0.0632 -0.2382  0.1679
   75POPC   C4B 1393   8.182   1.156   7.049 -0.1489  0.0984 -0.0888
   76POPC   NC3 1394   1.901   4.862   8.737  0.0312 -0.1325  0.6000
   76POPC   PO4 1395   2.136   4.494   8.611  0.1256  0.4734  0.2010
   76POPC   GL1 1396   2.069   4.287   8.259  0.0099 -0.1003  0.0418
   76POPC   GL2 1397   2.139   3.969   8.229 -0.0153 -0.0954  0.3123
   76POPC   C1A 1398   2.063   4.284   7.785 -0.1078 -0.1051 -0.1940
   76POPC   D2A 1399   2.067   4.080   7.374  0.1945 -0.0793  0.2941
   76POPC   C3A 1400   1.755   3.747   7.408  0.1498 -0.0091  0.1009
   76POPC   C4A 1401   1.411   3.507   7.407 -0.0561 -0.2001  0.0393
   76POPC   C1B 1402   2.359   3.939   7.923 -0.0683 -0.0192  0.0828
   76POPC   C2B 1403   2.567   4.002   7.531  0.1637  0.0345 -0.3513
   76POPC   C3B 1404   2.820   4.285   7.359 -0.1593 -0.1152 -0.1435
   76POPC   C4B 1405   2.743   4.676   7.175  0.1653  0.1798 -0.0893
   77POPC   NC3 1406   6.414   9.381   8.942 -0.1651  0.0494  0.0603
   77POPC   PO4 1407   6.830   9.686   8.786  0.2407  0.0885  0.0092
   77POPC   GL1 1408   7.000   9.575   8.364  0.1262 -0.2734 -0.0185
   77POPC   GL2 1409   6.755   9.389   8.174 -0.1089  0.3485 -0.0565
   77POPC   C1A 1410   7.394   9.333   8.147 -0.1423  0.1295 -0.1566
   77POPC   D2A 1411   7.537   9.355   7.772 -0.1461 -0.0756  0.1212
   77POPC   C3A 1412   7.302   9.120   7.556 -0.0120  0.2934 -0.1436
   77POPC   C4A 1413   7.226   8.699   7.476 -0.1178  0.0945  0.2103
   77POPC   C1B 1414   6.365   9.462   7.835  0.0004  0.0052 -0.0467
   77POPC   C2B 1415   6.090   9.132   7.517 -0.1284  0.1585 -0.0902
   77POPC   C3B 1416   5.818   8.807   7.279 -0.0312  0.1758 -0.1101
   77POPC   C4B 1417   5.509   8.796   7.035 -0.0074  0.0632  0.2329
   78POPC   NC3 1418   0.969   9.450  10.591 -0.0029 -0.0030 -0.1403
   78POPC   PO4 1419   1.330   9.181  10.276  0.0656  0.0091 -0.1899
   78POPC   GL1 1420   1.193   9.012   9.961 -0.1376  0.0348 -0.0162
   78POPC   GL2 1421   1.498   8.887   9.819  0.1491 -0.0818 -0.0277
   78POPC   C1A 1422   0.806   9.070   9.660 -0.1309  0.1567 -0.1555
   78POPC   D2A 1423   0.427   8.951   9.580 -0.1310 -0.0476  0.1899
   78POPC   C3A 1424   0.324   8.548   9.389  0.0965  0.2224  0.0834
   78POPC   C4A 1425   0.334   8.345   9.001  0.1515  0.2708 -0.0416
   78POPC   C1B 1426   1.262   8.863   9.459  0.1712 -0.0683 -0.3028
   78POPC   C2B 1427   1.242   8.936   9.058 -0.1953 -0.0064  0.1195
   78POPC   C3B 1428   1.547   8.899   8.749  0.3229  0.0337 -0.1418
   78POPC   C4B 1429   2.011   8.791   8.635 -0.2542  0.0985 -0.2854
   79POPC   NC3 1430   9.744   7.351  10.031 -0.0710 -0.0826 -0.3283
   79POPC   PO4 1431  10.104   7.631  10.218  0.0187 -0.0912  0.1222
   79POPC   GL1 1432  10.030   7.805   9.839  0.1099  0.0347 -0.0521
   79POPC   GL2 1433   9.671   7.716   9.691 -0.1835 -0.1721  0.6426
   79POPC   C1A 1434  10.079   8.027   9.468 -0.0852 -0.0436  0.1555
   79POPC   D2A 1435   9.905   7.912   9.052 -0.0203  0.1723  0.1096
   79POPC   C3A 1436  10.054   7.810   8.669 -0.0231 -0.1799  0.1249
   79POPC   C4A 1437  10.215   7.765   8.336 -0.1716  0.4566  0.3108
   79POPC   C1B 1438   9.819   7.508   9.381  0.2948 -0.0642 -0.2864
   79POPC   C2B 1439  10.003   7.372   9.036  0.2916  0.0251  0.0104
   79POPC   C3B 1440  10.031   7.302   8.557  0.2751  0.0417 -0.0480
   79POPC   C4B 1441  10.285   7.331   8.119 -0.0479 -0.0761 -0.0533
   80POPC   NC3 1442   1.172   7.338  10.522 -0.0523 -0.2077  0.0840
   80POPC   PO4 1443   1.611   7.386  10.348  0.1123  0.1525 -0.1434
   80POPC   GL1 1444   1.922   7.449  10.000 -0.0314 -0.2655  0.1928
   80POPC   GL2 1445   2.193   7.531   9.918  0.1559 -0.1446 -0.1081
   80POPC   C1A 1446   1.962   7.481   9.464  0.0911  0.2702  0.0408
   80POPC   D2A 1447   1.969   7.093   9.167 -0.1593  0.2747 -0.0319
   80POPC   C3A 1448   2.299   7.114   8.839 -0.1118 -0.0024 -0.3655
   80POPC   C4A 1449   2.304   7.048   8.447  0.0516  0.0951 -0.0440
   80POPC   C1B 1450   2.404   7.318   9.594 -0.5350 -0.1026 -0.1607
   80POPC   C2B 1451   2.447   7.451   9.152 -0.1928 -0.0305 -0.1151
   80POPC   C3B 1452   2.527   7.482   8.607  0.1287 -0.1056 -0.0721
   80POPC   C4B 1453   2.488   7.432   8.172 -0.0047 -0.1305  0.1378
   81POPC   NC3 1454   9.796   1.872   8.525 -0.1184  0.0522 -0.2882
   81POPC   PO4 1455  10.031   2.163   8.406 -0.0459  0.0309 -0.1276
   81POPC   GL1 1456   9.937   1.843   8.017  0.1366 -0.1142 -0.3364
   81POPC   GL2 1457   9.957   1.512   8.140  0.0940  0.2648 -0.0410
   81POPC   C1A 1458  10.248   1.677   7.747  0.1978 -0.1163  0.0781
   81POPC   D2A 1459  10.640   1.366   7.460  0.1554 -0.0783 -0.0794
   81POPC   C3A 1460  10.976   1.433   7.239  0.0791  0.3819  0.1408
   81POPC   C4A 1461  11.440   1.311   7.227 -0.3096  0.2160  0.0638
   81POPC   C1B 1462   9.868   1.372   7.610 -0.0154  0.0864  0.0246
   81POPC   C2B 1463   9.698   1.315   7.234 -0.2788 -0.5157 -0.0840
   81POPC   C3B 1464   9.465   1.068   7.000 -0.0619 -0.1563  0.2726
   81POPC   C4B 1465   9.171   1.200   6.623  0.1054 -0.1878 -0.2363
   82POPC   NC3 1466   6.594   8.421   8.967  0.1080  0.4232 -0.0448
   82POPC   PO4 1467   6.678   8.682   8.658  0.1517 -0.2009  0.1107
   82POPC   GL1 1468   6.916   8.566   8.325  0.3488 -0.0518  0.0179
   82POPC   GL2 1469   6.896   8.859   8.173 -0.0968 -0.0587  0.4391
   82POPC   C1A 1470   7.008   8.314   7.940  0.0288  0.0912  0.1106
   82POPC   D2A 1471   7.190   8.171   7.573  0.1528 -0.2074 -0.1135
   82POPC   C3A 1472   7.200   8.319   7.098 -0.1127  0.0785 -0.0669
   82POPC   C4A 1473   6.961   8.638   6.979  0.2254  0.2383  0.2717
   82POPC   C1B 1474   7.241   8.851   7.963 -0.0796 -0.2428  0.1439
   82POPC   C2B 1475   7.677   8.881   7.781 -0.3025  0.2096  0.0799
   82POPC   C3B 1476   7.844   9.021   7.429 -0.2089  0.1639  0.0326
   82POPC   C4B 1477   8.023   8.799   6.980 -0.0971 -0.0342  0.1011
   83POPC   NC3 1478   3.967   6.189   9.298 -0.0474 -0.1060 -0.1970
   83POPC   PO4 1479   4.376   6.167   9.181 -0.1711 -0.1174  0.0316
   83POPC   GL1 1480   4.310   6.190   8.713 -0.4327  0.1960  0.0365
   83POPC   GL2 1481   4.327   6.586   8.544  0.1254 -0.0139  0.1798
   83POPC   C1A 1482   4.132   6.185   8.311 -0.0126  0.2249  0.5325
   83POPC   D2A 1483   3.786   6.040   8.072 -0.1067  0.0376 -0.0992
   83POPC   C3A 1484   3.587   6.411   7.800  0.1733  0.3372 -0.2496
   83POPC   C4A 1485   3.626   6.551   7.383 -0.0977  0.0002 -0.2672
   83POPC   C1B 1486   4.102   6.659   8.166  0.2720  0.0120 -0.2741
   83POPC   C2B 1487   4.073   6.492   7.796  0.0791  0.3386  0.1332
   83POPC   C3B 1488   4.053   6.282   7.366  0.0723 -0.1785 -0.1856
   83POPC   C4B 1489   4.075   6.456   6.912 -0.0807 -0.0046  0.0309
   84POPC   NC3 1490   8.082   5.969   8.676 -0.1703 -0.2306 -0.1398
   84POPC   PO4 1491   8.279   5.525   8.811  0.0433 -0.1571  0.2042
   84POPC   GL1 1492   8.559   5.744   8.489  0.1145 -0.0491  0.0805
   84POPC   GL2 1493   8.464   6.133   8.403 -0.0734  0.3578 -0.1530
   84POPC   C1A 1494   8.466   5.783   8.008 -0.2191  0.0310  0.0753
   84POPC   D2A 1495   8.642   5.799   7.649 -0.0883 -0.1516 -0.1154
   84POPC   C3A 1496   8.692   6.246   7.468  0.0963 -0.2478 -0.3760
   84POPC   C4A 1497   8.944   6.548   7.192  0.2165  0.1630  0.0410
   84POPC   C1B 1498   8.945   6.174   8.465  0.1071  0.1558  0.1394
   84POPC   C2B 1499   8.976   6.506   8.184  0.2060 -0.3540  0.0748
   84POPC   C3B 1500   9.036   6.581   7.762  0.2688  0.0754 -0.3763
   84POPC   C4B 1501   9.314   6.441   7.607 -0.2989  0.1971  0.1972
   85POPC   NC3 1502   8.672   9.881   8.529  0.4284  0.2133 -0.3290
   85POPC   PO4 1503   8.543  10.209   8.526  0.0178  0.2994 -0.0576
   85POPC   GL1 1504   8.606  10.191   8.008  0.1305  0.0258 -0.0285
   85POPC   GL2 1505   8.514   9.833   7.870  0.1906  0.4378 -0.1229
   85POPC   C1A 1506   8.318  10.537   7.689 -0.1487 -0.1879  0.0503
   85POPC   D2A 1507   8.290  10.834   7.421 -0.1715  0.1422  0.0342
   85POPC   C3A 1508   8.524  10.706   7.057 -0.1103 -0.1772  0.0886
   85POPC   C4A 1509   8.751  10.421   6.977 -0.0917  0.2698 -0.0288
   85POPC   C1B 1510   8.666   9.498   7.556  0.2314 -0.1325  0.0897
   85POPC   C2B 1511   9.090   9.287   7.319  0.1125  0.2951  0.1344
   85POPC   C3B 1512   9.440   9.129   7.078  0.4177 -0.0714 -0.2243
   85POPC   C4B 1513   9.383   8.731   6.761  0.1220 -0.0220  0.0310
   86POPC   NC3 1514   5.370   4.342   9.209  0.1576  0.1173 -0.2617
   86POPC   PO4 1515   4.923   4.409   9.077 -0.0437  0.2148 -0.1380
   86POPC   GL1 1516   4.992   4.144   8.697 -0.0173 -0.0245 -0.0589
   86POPC   GL2 1517   4.880   4.272   8.526 -0.0170  0.1881 -0.1504
   86POPC   C1A 1518   5.168   3.906   8.322 -0.2577 -0.1823 -0.0604
   86POPC   D2A 1519   5.104   3.857   7.831  0.2053 -0.0249 -0.1867
   86POPC   C3A 1520   5.225   4.247   7.658  0.1512  0.0162 -0.2447
   86POPC   C4A 1521   5.270   4.666   7.852  0.0820  0.0162 -0.1192
   86POPC   C1B 1522   4.889   4.276   8.053 -0.0971  0.1374 -0.2007
   86POPC   C2B 1523   4.590   4.439   7.782  0.3600  0.0735  0.2394
   86POPC   C3B 1524   4.223   4.400   7.723  0.0229  0.0256 -0.0617
   86POPC   C4B 1525   3.864   4.236   7.387 -0.0183 -0.0481  0.1456
   87POPC   NC3 1526   6.560   6.143   9.085 -0.1472  0.0939 -0.0712
   87POPC   PO4 1527   6.634   6.282   8.613  0.3773 -0.0789 -0.2245
   87POPC   GL1 1528   6.526   6.414   8.254  0.1336 -0.2694 -0.2829
   87POPC   GL2 1529   6.722   6.192   8.039  0.4590  0.0660 -0.3893
   87POPC   C1A 1530   6.368   6.426   7.718 -0.0937  0.2312 -0.0356
   87POPC   D2A 1531   6.345   6.308   7.277 -0.0260 -0.0792 -0.0200
   87POPC   C3A 1532   5.899   6.331   7.226 -0.0942 -0.2362  0.1365
   87POPC   C4A 1533   5.404   6.249   7.065 -0.1741  0.0527 -0.1433
   87POPC   C1B 1534   6.938   6.531   7.883  0.1558  0.1462  0.7254
   87POPC   C2B 1535   6.788   6.876   7.646 -0.0814  0.0988  0.0301
   87POPC   C3B 1536   6.614   6.715   7.283 -0.0491  0.0956 -0.0974
   87POPC   C4B 1537   6.577   6.438   6.837 -0.0296 -0.2508  0.0193
   88POPC   NC3 1538   7.683   8.878   8.815  0.2216  0.0286 -0.1917
   88POPC   PO4 1539   8.134   9.096   9.087  0.1364  0.0726  0.0668
   88POPC   GL1 1540   8.035   9.195   8.667  0.0920 -0.3865 -0.0783
   88POPC   GL2 1541   7.698   9.378   8.555 -0.2418  0.1041 -0.3045
   88POPC   C1A 1542   8.330   9.254   8.325  0.2926  0.1049  0.0695
   88POPC   D2A 1543   8.665   8.852   8.384 -0.0364  0.2820  0.2660
   88POPC   C3A 1544   9.061   8.938   8.299 -0.2601  0.0917  0.0368
   88POPC   C4A 1545   9.259   9.043   7.879 -0.0435 -0.4200 -0.0702
   88POPC   C1B 1546   7.866   9.413   8.164  0.1402 -0.0735  0.1009
   88POPC   C2B 1547   8.021   9.677   7.901  0.1394 -0.2009  0.0362
   88POPC   C3B 1548   7.997   9.490   7.475  0.2916 -0.0707 -0.0979
   88POPC   C4B 1549   8.098   9.292   7.154  0.0578  0.0324 -0.0234
   89POPC   NC3 1550   3.092   5.898   9.140  0.0557  0.0873 -0.0037
   89POPC   PO4 1551   3.192   5.463   9.084 -0.0594  0.0954  0.0284
   89POPC   GL1 1552   3.281   5.471   8.638 -0.0357  0.0795  0.1081
   89POPC   GL2 1553   3.202   5.207   8.395  0.2804  0.3068 -0.1760
   89POPC   C1A 1554   3.410   5.700   8.173 -0.1992  0.1609 -0.1409
   89POPC   D2A 1555   3.501   5.518   7.709  0.2050  0.1476  0.1506
   89POPC   C3A 1556   3.063   5.467   7.423 -0.0598 -0.0076  0.1595
   89POPC   C4A 1557   2.937   5.370   6.976  0.0426  0.0546 -0.2853
   89POPC   C1B 1558   3.204   5.188   7.980  0.0774  0.1442 -0.1037
   89POPC   C2B 1559   2.836   5.089   7.717  0.0070  0.0500  0.0360
   89POPC   C3B 1560   2.612   5.133   7.264 -0.0222 -0.3841  0.3411
   89POPC   C4B 1561   2.222   5.356   7.164  0.0147  0.0966 -0.1262
   90POPC   NC3 1562   8.237   8.273   9.138 -0.0407 -0.0606  0.0130
   90POPC   PO4 1563   8.040   7.990   8.952 -0.0176 -0.0612  0.1928
   90POPC   GL1 1564   8.138   7.877   8.524  0.2325 -0.2466  0.1096
   90POPC   GL2 1565   7.914   7.933   8.275 -0.1751  0.0679  0.1982
   90POPC   C1A 1566   8.355   7.792   8.163  0.1887 -0.2203  0.1011
   90POPC   D2A 1567   8.565   8.010   7.871 -0.3189  0.0543 -0.0156
   90POPC   C3A 1568   8.968   8.093   8.019  0.1737 -0.0150 -0.0252
   90POPC   C4A 1569   9.452   8.034   7.885  0.2266  0.0076  0.1197
   90POPC   C1B 1570   8.066   8.103   7.834  0.0132 -0.1342  0.0161
   90POPC   C2B 1571   8.127   8.110   7.440  0.2470 -0.0670  0.0016
   90POPC   C3B 1572   8.260   7.943   7.006  0.1712  0.1093  0.2068
   90POPC   C4B 1573   8.453   7.780   6.654  0.1332 -0.1565  0.2042
   91POPC   NC3 1574   0.256  10.124  10.373 -0.2813 -0.2437 -0.4418
   91POPC   PO4 1575   0.221   9.589  10.395  0.3181 -0.0609 -0.2365
   91POPC   GL1 1576   0.289   9.506  10.070  0.0008  0.1905  0.0469
   91POPC   GL2 1577   0.397   9.086  10.057  0.0383 -0.1192  0.1017
   91POPC   C1A 1578   0.131   9.346   9.628  0.1492  0.1033 -0.1415
   91POPC   D2A 1579   0.146   9.161   9.234 -0.1129 -0.0016 -0.1894
   91POPC   C3A 1580   0.478   9.000   8.905  0.1933  0.0241  0.2353
   91POPC   C4A 1581   0.464   8.930   8.462  0.1033 -0.2688 -0.1414
   91POPC   C1B 1582   0.522   8.574   9.901  0.2871 -0.1356 -0.2043
   91POPC   C2B 1583   0.838   8.536   9.608 -0.5260 -0.1397  0.1442
   91POPC   C3B 1584   0.825   8.639   9.158 -0.1743 -0.1315 -0.0454
   91POPC   C4B 1585   0.694   8.539   8.796 -0.4400 -0.1534 -0.2965
   92POPC   NC3 1586   2.001   0.788   9.544 -0.0379  0.1723 -0.2322
   92POPC   PO4 1587   1.765   0.883   9.294  0.0477  0.1199 -0.1065
   92POPC   GL1 1588   1.671   0.722   8.898 -0.1785  0.0725 -0.1045
   92POPC   GL2 1589   1.889   0.866   8.691 -0.1559 -0.0446  0.0781
   92POPC   C1A 1590   1.624   0.407   8.525  0.1096 -0.4436  0.0011
   92POPC   D2A 1591   1.531   0.176   8.118  0.0695  0.2078 -0.2850
   92POPC   C3A 1592   1.096   0.269   8.158 -0.1828 -0.4664 -0.0405
   92POPC   C4A 1593   0.727   0.321   8.162  0.2627 -0.0386  0.0690
   92POPC   C1B 1594   2.044   0.726   8.331  0.0704 -0.1487 -0.0992
   92POPC   C2B 1595   2.048   0.276   8.064  0.0179  0.2359 -0.1995
   92POPC   C3B 1596   2.308  -0.028   7.877 -0.4094 -0.3141 -0.0939
   92POPC   C4B 1597   2.174  -0.475   7.857 -0.1175  0.0504  0.3460
   93POPC   NC3 1598   3.210   2.416   8.972  0.0219  0.2957 -0.0950
   93POPC   PO4 1599   3.338   2.814   8.899 -0.0681  0.2375  0.1444
   93POPC   GL1 1600   3.154   2.615   8.529 -0.2049 -0.0123 -0.1511
   93POPC   GL2 1601   3.210   2.977   8.302  0.0092 -0.1957 -0.3264
   93POPC   C1A 1602   3.176   2.541   8.049  0.1618  0.0047  0.0601
   93POPC   D2A 1603   3.325   2.590   7.631  0.0482  0.0716 -0.1636
   93POPC   C3A 1604   3.029   2.511   7.223 -0.2209  0.0226  0.0190
   93POPC   C4A 1605   2.900   2.880   7.022  0.0225  0.0781  0.2724
   93POPC   C1B 1606   3.120   3.025   7.929  0.0422  0.0412  0.1020
   93POPC   C2B 1607   3.034   3.121   7.474 -0.0224  0.1420 -0.0864
   93POPC   C3B 1608   3.123   3.254   7.124  0.0647 -0.1447  0.1862
   93POPC   C4B 1609   2.988   3.406   6.803  0.1796  0.1256 -0.1735
   94POPC   NC3 1610   4.752  10.279   9.059 -0.1340  0.1223  0.0849
   94POPC   PO4 1611   4.498  10.497   8.599 -0.1116  0.4496  0.0226
   94POPC   GL1 1612   4.298  10.451   8.232  0.2245 -0.2240  0.1969
   94POPC   GL2 1613   4.383  10.178   8.167 -0.0580 -0.1886  0.0188
   94POPC   C1A 1614   4.189  10.402   7.814 -0.2889 -0.6434 -0.1216
   94POPC   D2A 1615   4.202  10.604   7.376 -0.0269  0.1449  0.0258
   94POPC   C3A 1616   4.255  10.471   7.055 -0.1511 -0.0117 -0.1016
   94POPC   C4A 1617   4.125  10.292   6.773 -0.1550 -0.0635 -0.2496
   94POPC   C1B 1618   4.080   9.917   7.798 -0.1113  0.0071 -0.1511
   94POPC   C2B 1619   3.782   9.658   7.556  0.1622 -0.4916 -0.0398
   94POPC   C3B 1620   3.443   9.492   7.224 -0.2856  0.2120 -0.0931
   94POPC   C4B 1621   3.170   9.158   7.338  0.0038 -0.0730 -0.0513
   95POPC   NC3 1622   9.697   9.741   9.365 -0.0958  0.1607  0.0347
   95POPC   PO4 1623  10.043  10.013   9.453  0.1183 -0.2418 -0.2338
   95POPC   GL1 1624  10.376  10.271   9.190  0.0793  0.1241  0.1093
   95POPC   GL2 1625  10.376  10.588   9.203 -0.1088  0.2087 -0.2783
   95POPC   C1A 1626  10.712  10.295   8.976 -0.2932  0.2199 -0.1050
   95POPC   D2A 1627  10.988  10.398   8.566  0.0166 -0.1554  0.1303
   95POPC   C3A 1628  11.178  10.247   8.205  0.4600 -0.0898 -0.1416
   95POPC   C4A 1629  11.408   9.830   8.076  0.1739 -0.1463  0.0763
   95POPC   C1B 1630  10.328  10.414   8.689 -0.3260  0.1816  0.2868
   95POPC   C2B 1631  10.540  10.247   8.213  0.1104  0.2108  0.2602
   95POPC   C3B 1632  10.638  10.311   7.785  0.1756 -0.1499  0.2494
   95POPC   C4B 1633  10.737  10.817   7.754 -0.1116  0.0051  0.3064
   96POPC   NC3 1634   8.521   2.492   9.401 -0.2043  0.3048  0.1071
   96POPC   PO4 1635   8.391   2.725   9.136  0.1246  0.3860  0.1619
   96POPC   GL1 1636   8.549   2.885   8.802  0.1013  0.3696  0.1231
   96POPC   GL2 1637   8.732   3.203   8.814  0.1815 -0.1198 -0.2647
   96POPC   C1A 1638   8.515   2.727   8.391 -0.1368 -0.1723 -0.2079
   96POPC   D2A 1639   8.258   3.035   8.211  0.0763 -0.2129 -0.0767
   96POPC   C3A 1640   8.081   3.221   7.798 -0.1157 -0.1192 -0.0265
   96POPC   C4A 1641   8.193   3.515   7.573 -0.2938  0.0032 -0.0162
   96POPC   C1B 1642   8.657   3.338   8.498  0.3795 -0.3923  0.1966
   96POPC   C2B 1643   8.471   3.483   8.076  0.2825 -0.0457  0.1096
   96POPC   C3B 1644   8.133   3.753   7.992  0.0029 -0.0564 -0.0681
   96POPC   C4B 1645   7.876   3.902   7.678  0.0930  0.1650  0.4474
   97POPC   NC3 1646   9.646   3.873   8.881  0.2561  0.0537  0.1408
   97POPC   PO4 1647   9.980   4.048   8.937  0.0721  0.1287  0.0759
   97POPC   GL1 1648   9.924   3.983   8.454 -0.2389  0.1383 -0.1684
   97POPC   GL2 1649  10.004   4.313   8.303 -0.1035  0.0299  0.0634
   97POPC   C1A 1650   9.880   3.810   8.101 -0.1324 -0.2113  0.1052
   97POPC   D2A 1651  10.114   3.495   7.857 -0.0603  0.0644 -0.0111
   97POPC   C3A 1652  10.236   3.689   7.341  0.0420 -0.1254  0.1371
   97POPC   C4A 1653  10.345   3.321   7.007 -0.0663  0.2423 -0.2486
   97POPC   C1B 1654  10.218   4.517   7.940  0.2233 -0.0098 -0.3059
   97POPC   C2B 1655  10.096   4.945   7.640 -0.0239 -0.1785 -0.2072
   97POPC   C3B 1656   9.783   5.248   7.393  0.1733 -0.0669  0.1284
   97POPC   C4B 1657   9.349   5.359   7.308 -0.1551 -0.2884  0.0246
   98POPC   NC3 1658   6.201  10.410   8.339 -0.0939 -0.0097 -0.1251
   98POPC   PO4 1659   6.258  10.836   8.253  0.1448 -0.1665  0.2631
   98POPC   GL1 1660   6.306  10.589   7.871 -0.0646  0.0741  0.0729
   98POPC   GL2 1661   6.560  10.509   7.954  0.3359 -0.0410 -0.3959
   98POPC   C1A 1662   6.299  10.536   7.445 -0.2382 -0.3102 -0.2764
   98POPC   D2A 1663   6.597  10.449   7.097 -0.0195 -0.0695  0.1855
   98POPC   C3A 1664   6.864  10.646   7.115  0.0002 -0.0685 -0.1639
   98POPC   C4A 1665   6.934  11.078   7.179 -0.0899  0.0996 -0.3902
   98POPC   C1B 1666   6.689  10.228   7.651 -0.2214  0.0932 -0.2985
   98POPC   C2B 1667   6.603   9.961   7.377  0.3353  0.1801 -0.4714
   98POPC   C3B 1668   6.537   9.577   7.051  0.0675  0.0431 -0.2961
   98POPC   C4B 1669   6.403   9.197   6.958  0.2765  0.0611 -0.0514
   99POPC   NC3 1670   7.919   3.483   9.321 -0.0241 -0.2574  0.0635
   99POPC   PO4 1671   7.654   3.196   8.973 -0.0989  0.2868 -0.2757
   99POPC   GL1 1672   7.712   3.192   8.617  0.1597  0.1555  0.1155
   99POPC   GL2 1673   7.966   3.238   8.550 -0.0373  0.0501  0.3735
   99POPC   C1A 1674   7.811   3.645   8.350  0.1201 -0.1873 -0.1293
   99POPC   D2A 1675   7.822   4.091   8.274  0.2002  0.2652  0.1769
   99POPC   C3A 1676   7.572   4.251   7.817 -0.0344  0.1408 -0.3687
   99POPC   C4A 1677   7.530   4.633   7.591  0.1348 -0.0751  0.1694
   99POPC   C1B 1678   7.739   3.097   8.157  0.0099  0.1753  0.1736
   99POPC   C2B 1679   7.606   2.849   7.824 -0.0184  0.1581  0.0068
   99POPC   C3B 1680   7.488   2.641   7.416  0.0090  0.1213 -0.1700
   99POPC   C4B 1681   7.224   2.295   7.316 -0.1718  0.1957 -0.1692
  100POPC   NC3 1682   0.252   6.144   9.755 -0.1568  0.1464 -0.1264
  100POPC   PO4 1683   0.609   6.188  10.031 -0.1047 -0.0903 -0.0950
  100POPC   GL1 1684   0.783   6.344   9.632 -0.0553 -0.1682  0.1228
  100POPC   GL2 1685   1.044   6.338   9.630 -0.1286  0.0349 -0.1081
  100POPC   C1A 1686   0.729   6.602   9.201 -0.2800  0.0588 -0.0021
  100POPC   D2A 1687   0.632   6.484   8.819  0.2221  0.4597  0.3443
  100POPC   C3A 1688   0.964   6.267   8.719  0.1326  0.1498 -0.2846
  100POPC   C4A 1689   1.398   6.023   8.801 -0.1953 -0.3947  0.0425
  100POPC   C1B 1690   1.191   6.454   9.297 -0.0256 -0.3149 -0.0676
  100POPC   C2B 1691   1.353   6.495   8.954  0.2628  0.1770  0.1235
  100POPC   C3B 1692   1.334   6.513   8.535 -0.0377  0.2237 -0.0592
  100POPC   C4B 1693   1.602   6.433   8.089  0.0034  0.1260  0.1941
  101POPC   NC3 1694   5.449   2.794   9.223  0.4203  0.2039 -0.2018
  101POPC   PO4 1695   5.249   3.093   8.906 -0.0334 -0.0028  0.0555
  101POPC   GL1 1696   5.291   3.139   8.477 -0.2467  0.0215 -0.1825
  101POPC   GL2 1697   5.458   2.809   8.456 -0.0413 -0.4244 -0.0989
  101POPC   C1A 1698   5.243   3.393   8.110  0.2440  0.2049 -0.2728
  101POPC   D2A 1699   5.386   3.374   7.719 -0.0839 -0.0424  0.0043
  101POPC   C3A 1700   5.236   3.774   7.386  0.3180  0.1135 -0.3059
  101POPC   C4A 1701   5.197   4.175   7.141  0.1128 -0.1016  0.1438
  101POPC   C1B 1702   5.398   2.918   8.027 -0.0422  0.2551  0.3671
  101POPC   C2B 1703   4.968   2.987   7.822  0.0115  0.0597 -0.1706
  101POPC   C3B 1704   4.549   3.056   7.575  0.1274  0.1361  0.0769
  101POPC   C4B 1705   4.220   2.993   7.349 -0.0299  0.0931 -0.1517
  102POPC   NC3 1706   2.619   1.866   8.809  0.1863  0.4274  0.2334
  102POPC   PO4 1707   2.171   1.542   8.916  0.1788 -0.3855 -0.0993
  102POPC   GL1 1708   2.345   1.324   8.640  0.0951 -0.0766 -0.0684
  102POPC   GL2 1709   2.123   1.360   8.368  0.0302  0.0368 -0.0438
  102POPC   C1A 1710   2.617   1.510   8.212  0.0908 -0.1548 -0.2812
  102POPC   D2A 1711   2.653   1.268   7.761 -0.1170  0.2123  0.0768
  102POPC   C3A 1712   2.469   1.346   7.373  0.0861 -0.1999  0.1537
  102POPC   C4A 1713   2.337   1.174   6.979 -0.0394  0.0714 -0.0770
  102POPC   C1B 1714   2.173   1.184   8.044  0.0899  0.0031  0.0003
  102POPC   C2B 1715   2.192   0.772   7.833  0.2930 -0.0226  0.1950
  102POPC   C3B 1716   2.147   0.416   7.540  0.0119 -0.0517  0.1208
  102POPC   C4B 1717   1.839   0.226   7.201 -0.0850  0.0524 -0.0248
  103POPC   NC3 1718   4.621   1.416   8.888 -0.0305 -0.0874 -0.0967
  103POPC   PO4 1719   4.981   1.471   8.635  0.2362  0.1489 -0.1168
  103POPC   GL1 1720   4.756   1.505   8.198 -0.2163 -0.0477 -0.0080
  103POPC   GL2 1721   4.791   1.146   8.022  0.0185 -0.1708 -0.1370
  103POPC   C1A 1722   4.899   1.599   7.774  0.0557 -0.0932 -0.4696
  103POPC   D2A 1723   4.898   1.925   7.319  0.3691  0.1139  0.4177
  103POPC   C3A 1724   4.567   1.871   6.969  0.1266  0.5914  0.3245
  103POPC   C4A 1725   4.162   1.578   6.912 -0.1586  0.2911 -0.1793
  103POPC   C1B 1726   4.787   1.114   7.565 -0.0894 -0.2509 -0.1031
  103POPC   C2B 1727   4.993   1.012   7.318 -0.2717 -0.1035 -0.1594
  103POPC   C3B 1728   4.985   0.814   6.991  0.1056 -0.0330 -0.0594
  103POPC   C4B 1729   4.817   0.801   6.610  0.1333  0.2545  0.2673
  104POPC   NC3 1730   1.052   8.323  10.275 -0.1733 -0.3678  0.1466
  104POPC   PO4 1731   1.430   8.416  10.477  0.0913 -0.2086 -0.1180
  104POPC   GL1 1732   1.522   8.369  10.023  0.0155  0.2276 -0.3026
  104POPC   GL2 1733   1.746   8.491   9.900 -0.0217  0.2830 -0.0685
  104POPC   C1A 1734   1.327   8.320   9.569 -0.1942 -0.3274 -0.2522
  104POPC   D2A 1735   1.476   8.473   9.195  0.1135 -0.1098  0.1334
  104POPC   C3A 1736   1.269   8.462   8.848  0.0264 -0.0335  0.2267
  104POPC   C4A 1737   1.029   8.222   8.498  0.1812  0.1438  0.0375
  104POPC   C1B 1738   1.862   8.557   9.496 -0.0715  0.1764 -0.1634
  104POPC   C2B 1739   1.856   8.833   9.148 -0.3050  0.0449  0.0191
  104POPC   C3B 1740   2.015   9.219   8.905  0.3095 -0.0760 -0.0420
  104POPC   C4B 1741   2.302   9.517   8.642 -0.3035  0.2252  0.0110
  105POPC   NC3 1742   0.695   2.622   8.932  0.1072 -0.0914 -0.3303
  105POPC   PO4 1743   0.734   3.006   8.831  0.0387  0.0749 -0.0985
  105POPC   GL1 1744   0.832   2.730   8.415  0.2506 -0.3317  0.0995
  105POPC   GL2 1745   0.854   2.983   8.187  0.0505 -0.0713  0.0303
  105POPC   C1A 1746   0.697   2.480   8.105  0.1297  0.4203  0.3956
  105POPC   D2A 1747   0.738   2.199   7.733  0.1288 -0.0559 -0.1508
  105POPC   C3A 1748   0.956   2.268   7.410  0.1830  0.0217  0.1912
  105POPC   C4A 1749   1.306   2.223   7.203  0.0327  0.3302 -0.1072
  105POPC   C1B 1750   0.520   2.924   7.999  0.0521 -0.0279 -0.0829
  105POPC   C2B 1751   0.411   2.628   7.704 -0.0378  0.2214 -0.0455
  105POPC   C3B 1752   0.080   2.408   7.450  0.1493  0.0559  0.0662
  105POPC   C4B 1753  -0.287   2.202   7.279 -0.1756 -0.0595 -0.0473
  106POPC   NC3 1754   5.092   7.983   9.004  0.1121  0.0503 -0.2606
  106POPC   PO4 1755   4.816   8.163   8.639 -0.2792 -0.0000  0.1788
  106POPC   GL1 1756   4.737   8.201   8.274  0.2059 -0.0585 -0.2856
  106POPC   GL2 1757   4.700   7.865   8.156 -0.1912  0.0385  0.2388
  106POPC   C1A 1758   4.326   8.204   8.038  0.2306 -0.2632 -0.0669
  106POPC   D2A 1759   4.000   8.440   7.854 -0.0870  0.1286 -0.1304
  106POPC   C3A 1760   3.809   8.437   7.504  0.3070  0.1370  0.0049
  106POPC   C4A 1761   3.438   8.194   7.359  0.1898  0.1847 -0.1749
  106POPC   C1B 1762   4.652   7.907   7.782 -0.3596  0.1377  0.1530
  106POPC   C2B 1763   5.076   8.154   7.551 -0.0289  0.1411  0.1444
  106POPC   C3B 1764   5.434   8.325   7.134 -0.4306  0.0619  0.5319
  106POPC   C4B 1765   5.328   8.461   6.709 -0.0464 -0.1990 -0.2001
  107POPC   NC3 1766   7.977   7.093   9.888 -0.0658 -0.2137  0.1847
  107POPC   PO4 1767   8.126   6.998   9.455 -0.0967 -0.1130  0.1710
  107POPC   GL1 1768   8.290   6.953   8.971 -0.1018  0.0889 -0.0228
  107POPC   GL2 1769   8.060   6.910   8.676  0.1136 -0.1005  0.0325
  107POPC   C1A 1770   8.679   7.221   8.805  0.0192 -0.1445  0.2986
  107POPC   D2A 1771   8.884   7.579   8.677 -0.0301  0.0352  0.2969
  107POPC   C3A 1772   8.781   7.988   8.462 -0.0693  0.1857  0.3536
  107POPC   C4A 1773   8.824   8.401   8.535 -0.2415  0.1876 -0.3153
  107POPC   C1B 1774   7.963   6.998   8.268 -0.0339  0.1181  0.0795
  107POPC   C2B 1775   8.154   7.098   7.868  0.1586  0.0061 -0.2082
  107POPC   C3B 1776   8.301   7.167   7.441  0.0990 -0.1768  0.0773
  107POPC   C4B 1777   8.473   6.904   7.122  0.5020  0.5324 -0.1668
  108POPC   NC3 1778   5.971   0.782   8.463 -0.1729 -0.1132  0.1182
  108POPC   PO4 1779   5.684   0.324   8.359  0.1506 -0.0350 -0.2672
  108POPC   GL1 1780   5.789   0.106   8.006 -0.1939  0.0070 -0.0424
  108POPC   GL2 1781   5.774  -0.281   7.981  0.1791  0.0831  0.4260
  108POPC   C1A 1782   5.793   0.105   7.616 -0.1972  0.1043  0.4784
  108POPC   D2A 1783   5.912   0.378   7.296  0.1550  0.3547  0.0291
  108POPC   C3A 1784   5.961   0.765   7.190 -0.0886 -0.1099 -0.0164
  108POPC   C4A 1785   5.879   1.172   7.398 -0.2238  0.2196  0.3580
  108POPC   C1B 1786   5.589  -0.476   7.587 -0.0959  0.0249  0.4421
  108POPC   C2B 1787   5.586  -0.605   7.174 -0.1148 -0.2122 -0.0220
  108POPC   C3B 1788   5.327  -0.403   6.831 -0.0012 -0.1316  0.0733
  108POPC   C4B 1789   5.196  -0.165   6.570  0.2586  0.0528  0.4261
  109POPC   NC3 1790   5.982   8.887   8.373  0.2393 -0.3955  0.0739
  109POPC   PO4 1791   5.776   8.483   8.457 -0.3031 -0.0100 -0.1754
  109POPC   GL1 1792   6.009   8.422   8.024  0.0651 -0.0295 -0.1839
  109POPC   GL2 1793   5.766   8.539   7.966  0.1571 -0.2417  0.0340
  109POPC   C1A 1794   5.888   8.254   7.603 -0.0392 -0.1758  0.2135
  109POPC   D2A 1795   6.158   8.331   7.298  0.1535  0.1304  0.0497
  109POPC   C3A 1796   6.191   8.120   6.971  0.0946  0.0748 -0.0169
  109POPC   C4A 1797   5.985   7.756   6.670 -0.0694 -0.0353 -0.1333
  109POPC   C1B 1798   5.392   8.517   7.617  0.3218 -0.0872 -0.1017
  109POPC   C2B 1799   5.085   8.709   7.255  0.3925  0.2641  0.1991
  109POPC   C3B 1800   4.996   8.791   6.855  0.1818 -0.1807 -0.2217
  109POPC   C4B 1801   4.780   9.001   6.542  0.0353  0.0917  0.0350
  110POPC   NC3 1802   1.840   3.924   9.119  0.3534  0.0893 -0.1613
  110POPC   PO4 1803   1.489   4.065   9.027 -0.2607 -0.1384  0.3198
  110POPC   GL1 1804   1.736   4.213   8.607 -0.2243  0.2118  0.1466
  110POPC   GL2 1805   1.643   4.425   8.430  0.0366 -0.0793  0.1082
  110POPC   C1A 1806   1.653   3.914   8.222  0.0212 -0.4061  0.2844
  110POPC   D2A 1807   1.573   4.115   7.872  0.0526  0.2539  0.2614
  110POPC   C3A 1808   1.262   3.950   7.552  0.2386  0.0522  0.0123
  110POPC   C4A 1809   0.811   3.618   7.417  0.1325 -0.1343 -0.1455
  110POPC   C1B 1810   1.688   4.611   7.991 -0.0186  0.1527  0.0194
  110POPC   C2B 1811   1.756   4.717   7.567  0.1276 -0.0855 -0.1449
  110POPC   C3B 1812   1.749   5.020   7.132 -0.1377  0.0623 -0.2488
  110POPC   C4B 1813   1.989   5.294   6.772 -0.1288 -0.0104  0.0874
  111POPC   NC3 1814  10.375  10.362   9.656 -0.2135 -0.3367  0.0417
  111POPC   PO4 1815  10.416  10.015   9.991  0.0228  0.3218  0.0458
  111POPC   GL1 1816  10.504   9.811   9.637 -0.3969 -0.1261  0.1098
  111POPC   GL2 1817  10.850   9.973   9.517  0.2575 -0.1084 -0.0341
  111POPC   C1A 1818  10.557   9.717   9.142  0.3200 -0.4872 -0.1295
  111POPC   D2A 1819  10.836   9.687   8.895  0.0661 -0.0495  0.1133
  111POPC   C3A 1820  10.791   9.873   8.430 -0.1829  0.4424 -0.2806
  111POPC   C4A 1821  10.893   9.851   8.017  0.2737 -0.0305 -0.0653
  111POPC   C1B 1822  11.044   9.923   9.250 -0.0799  0.1225  0.2040
  111POPC   C2B 1823  11.436   9.757   9.201 -0.0615 -0.2164  0.1719
  111POPC   C3B 1824  11.723   9.600   9.008 -0.1956  0.0474 -0.0235
  111POPC   C4B 1825  11.838   9.333   8.694 -0.0600 -0.0689  0.0008
  112POPC   NC3 1826   3.872   6.813   9.900 -0.2790  0.1261  0.2555
  112POPC   PO4 1827   3.664   7.144   9.593 -0.4583 -0.0663 -0.2281
  112POPC   GL1 1828   3.533   7.449   9.165  0.1841 -0.0629 -0.2421
  112POPC   GL2 1829   3.750   7.633   8.999  0.1374  0.3544 -0.0030
  112POPC   C1A 1830   3.301   7.600   8.773 -0.1283 -0.1283  0.0667
  112POPC   D2A 1831   3.014   7.712   8.501 -0.1358 -0.2030 -0.0678
  112POPC   C3A 1832   2.978   7.658   8.108 -0.0946  0.0498 -0.1255
  112POPC   C4A 1833   2.785   7.512   7.768  0.1588 -0.2494 -0.1214
  112POPC   C1B 1834   3.643   8.015   8.847 -0.0561 -0.3887 -0.0882
  112POPC   C2B 1835   3.433   8.131   8.491  0.0930  0.0933 -0.2809
  112POPC   C3B 1836   3.177   8.147   8.110 -0.0657  0.0578  0.0121
  112POPC   C4B 1837   3.041   8.092   7.675  0.4963 -0.1333  0.2568
  113POPC   NC3 1838   7.483   8.109   8.768  0.0144  0.1273  0.4391
  113POPC   PO4 1839   7.433   8.478   8.530  0.1191 -0.0384  0.2300
  113POPC   GL1 1840   7.480   8.368   8.059 -0.1382  0.0734 -0.0651
  113POPC   GL2 1841   7.772   8.368   8.048 -0.0398 -0.4225  0.4778
  113POPC   C1A 1842   7.604   8.428   7.589  0.0405  0.1261  0.0915
  113POPC   D2A 1843   7.609   8.102   7.253 -0.4461  0.0533 -0.0266
  113POPC   C3A 1844   7.575   7.994   6.758 -0.0058  0.0487  0.3044
  113POPC   C4A 1845   7.699   7.904   6.377  0.0415  0.0761 -0.2599
  113POPC   C1B 1846   8.074   8.580   7.680  0.2201 -0.1006 -0.1077
  113POPC   C2B 1847   8.390   8.543   7.338 -0.0109 -0.0174  0.0684
  113POPC   C3B 1848   8.599   8.145   7.252 -0.1207 -0.2237 -0.0177
  113POPC   C4B 1849   8.837   7.761   7.432 -0.0155  0.1695 -0.1157
  114POPC   NC3 1850   7.108   5.448   8.446 -0.0337 -0.0999 -0.0408
  114POPC   PO4 1851   6.847   5.851   8.715  0.0730 -0.1059  0.1784
  114POPC   GL1 1852   7.096   6.070   8.318 -0.2284 -0.0991  0.1748
  114POPC   GL2 1853   7.297   6.247   8.469 -0.1180  0.1171  0.0277
  114POPC   C1A 1854   7.212   6.078   7.837 -0.3724 -0.0419 -0.3617
  114POPC   D2A 1855   7.314   5.917   7.442  0.2611 -0.1041  0.0505
  114POPC   C3A 1856   7.190   6.200   7.056  0.1194  0.1595 -0.0593
  114POPC   C4A 1857   7.057   6.320   6.702 -0.0970  0.2000  0.1595
  114POPC   C1B 1858   7.486   6.400   8.071 -0.0058 -0.0955 -0.0598
  114POPC   C2B 1859   7.404   6.484   7.610 -0.0628 -0.3309  0.0719
  114POPC   C3B 1860   7.236   6.865   7.440  0.0564 -0.1513  0.0696
  114POPC   C4B 1861   7.390   7.194   7.166  0.3429 -0.1505 -0.0174
  115POPC   NC3 1862   1.569   9.605  10.158 -0.0827 -0.2338 -0.1028
  115POPC   PO4 1863   1.877   9.257   9.994 -0.0109  0.1760 -0.1268
  115POPC   GL1 1864   1.465   9.361   9.701  0.5273 -0.2992  0.2847
  115POPC   GL2 1865   1.441   9.683   9.650  0.0420  0.1734 -0.4593
  115POPC   C1A 1866   1.126   9.359   9.489 -0.2973  0.1053 -0.1775
  115POPC   D2A 1867   0.882   9.236   9.130 -0.0098 -0.1566  0.0940
  115POPC   C3A 1868   0.553   9.369   9.264 -0.0626  0.0770 -0.0885
  115POPC   C4A 1869   0.634   9.539   9.729 -0.2580  0.1333  0.0695
  115POPC   C1B 1870   1.277  10.041   9.371  0.0995 -0.0289  0.3821
  115POPC   C2B 1871   1.400  10.108   8.874 -0.0254 -0.1416  0.0344
  115POPC   C3B 1872   1.469   9.811   8.602 -0.2915  0.1167  0.0462
  115POPC   C4B 1873   1.804   9.510   8.574  0.0966  0.1046  0.1635
  116POPC   NC3 1874   6.369   1.371   9.107 -0.0161  0.1359  0.1520
  116POPC   PO4 1875   6.630   1.481   8.761  0.1673 -0.0037  0.2669
  116POPC   GL1 1876   6.830   1.606   8.385 -0.0115 -0.2405  0.1673
  116POPC   GL2 1877   6.801   1.895   8.244  0.1714 -0.2341  0.2734
  116POPC   C1A 1878   6.976   1.545   7.913 -0.1334  0.2960  0.1544
  116POPC   D2A 1879   6.863   1.466   7.462 -0.1351 -0.0484  0.0909
  116POPC   C3A 1880   7.047   1.226   7.226 -0.0388 -0.1565  0.0373
  116POPC   C4A 1881   6.877   1.085   6.886  0.2424  0.0810 -0.4201
  116POPC   C1B 1882   6.472   1.803   7.876  0.2398 -0.3170 -0.0008
  116POPC   C2B 1883   6.318   1.942   7.523  0.0183 -0.1359  0.1800
  116POPC   C3B 1884   6.439   2.101   7.134 -0.2309  0.0314 -0.0342
  116POPC   C4B 1885   6.857   2.110   6.986  0.2460  0.1880  0.2308
  117POPC   NC3 1886   5.354   1.284   8.289  0.1491 -0.3637  0.0511
  117POPC   PO4 1887   5.042   0.924   8.350  0.0587 -0.1683  0.0791
  117POPC   GL1 1888   5.153   0.877   7.865  0.0181  0.2002  0.1799
  117POPC   GL2 1889   5.243   0.486   7.881 -0.3129  0.2465  0.1856
  117POPC   C1A 1890   5.427   0.954   7.516  0.0594  0.1190 -0.1818
  117POPC   D2A 1891   5.458   1.014   7.082 -0.2487  0.2066  0.1261
  117POPC   C3A 1892   5.175   1.306   6.940 -0.1313 -0.0767  0.3700
  117POPC   C4A 1893   5.101   1.847   6.767  0.2973 -0.2759  0.1556
  117POPC   C1B 1894   4.921   0.560   7.564 -0.1991 -0.2000 -0.0968
  117POPC   C2B 1895   4.504   0.672   7.466  0.1159  0.1419 -0.0661
  117POPC   C3B 1896   4.095   0.648   7.304 -0.1425 -0.3965  0.0855
  117POPC   C4B 1897   4.036   0.410   6.886  0.0034  0.0689 -0.2552
  118POPC   NC3 1898   8.129   4.055   9.157 -0.1319  0.1092 -0.3426
  118POPC   PO4 1899   8.476   3.759   9.112  0.1029  0.2345  0.0559
  118POPC   GL1 1900   8.459   3.902   8.667  0.1518  0.0074 -0.1964
  118POPC   GL2 1901   8.342   3.895   8.419 -0.0517  0.1874 -0.1642
  118POPC   C1A 1902   8.715   4.249   8.356  0.1376 -0.1135  0.0800
  118POPC   D2A 1903   8.912   4.260   8.109 -0.0987 -0.1017 -0.3099
  118POPC   C3A 1904   8.782   3.910   7.818 -0.0385 -0.0917 -0.0458
  118POPC   C4A 1905   8.723   3.552   7.611 -0.1367  0.1734 -0.1443
  118POPC   C1B 1906   8.316   4.231   8.035  0.0307  0.2211 -0.0197
  118POPC   C2B 1907   8.543   4.330   7.595  0.4097  0.0364  0.0699
  118POPC   C3B 1908   8.875   4.008   7.327  0.1186 -0.3662 -0.2274
  118POPC   C4B 1909   9.151   4.070   7.061  0.1120 -0.0022 -0.0851
  119POPC   NC3 1910   1.003   0.925   9.607 -0.1780 -0.1973  0.1763
  119POPC   PO4 1911   0.881   1.334   9.313  0.0092 -0.2771 -0.0060
  119POPC   GL1 1912   0.956   1.261   8.974  0.2609 -0.0077 -0.1202
  119POPC   GL2 1913   1.248   1.406   8.848 -0.0403  0.0192 -0.3904
  119POPC   C1A 1914   0.845   1.374   8.530 -0.1092 -0.0571 -0.0500
  119POPC   D2A 1915   0.962   1.249   8.192  0.0592 -0.2173 -0.2286
  119POPC   C3A 1916   1.173   1.022   7.901  0.2017 -0.0129 -0.2572
  119POPC   C4A 1917   1.243   0.956   7.452 -0.1697  0.0169 -0.2940
  119POPC   C1B 1918   1.248   1.090   8.569 -0.2125 -0.2746  0.1505
  119POPC   C2B 1919   1.305   0.704   8.216  0.0392 -0.1185 -0.3516
  119POPC   C3B 1920   1.266   0.520   7.785 -0.0822  0.1088  0.0171
  119POPC   C4B 1921   1.174   0.497   7.402  0.0537 -0.0581 -0.0243
  120POPC   NC3 1922   7.505   2.733   9.110  0.2557 -0.0016 -0.2418
  120POPC   PO4 1923   7.184   2.461   9.050 -0.0961 -0.3555  0.0963
  120POPC   GL1 1924   7.248   2.808   8.702  0.0238 -0.1103  0.0038
  120POPC   GL2 1925   6.977   3.168   8.618 -0.1526  0.0026  0.3111
  120POPC   C1A 1926   7.239   2.900   8.271  0.0767 -0.0271  0.0998
  120POPC   D2A 1927   7.071   2.648   7.985 -0.1004  0.0721  0.2278
  120POPC   C3A 1928   7.026   2.252   7.885  0.1470 -0.2995  0.1451
  120POPC   C4A 1929   6.807   1.915   7.544 -0.2515  0.0249  0.0749
  120POPC   C1B 1930   6.775   3.247   8.309  0.0080  0.3042 -0.1759
  120POPC   C2B 1931   6.722   3.212   7.926  0.0128  0.1391 -0.1767
  120POPC   C3B 1932   6.649   2.770   7.773 -0.1897  0.0969 -0.0032
  120POPC   C4B 1933   6.693   2.402   7.534  0.1530  0.2213  0.1775
  121POPC   NC3 1934   1.868   2.054   8.918 -0.1595 -0.1691 -0.2954
  121POPC   PO4 1935   1.566   1.740   8.992  0.2844 -0.0121 -0.1285
  121POPC   GL1 1936   1.704   1.646   8.617 -0.0831 -0.0364  0.1739
  121POPC   GL2 1937   1.673   1.330   8.619 -0.2485  0.2431 -0.2292
  121POPC   C1A 1938   1.873   1.654   8.113  0.1922 -0.2425 -0.0046
  121POPC   D2A 1939   2.021   1.676   7.691  0.1094  0.0585 -0.0655
  121POPC   C3A 1940   1.753   1.964   7.415  0.1575 -0.0726  0.1575
  121POPC   C4A 1941   1.534   1.840   7.060 -0.2737  0.1774  0.1082
  121POPC   C1B 1942   1.664   1.052   8.216 -0.2492 -0.0293  0.2042
  121POPC   C2B 1943   1.704   1.064   7.877 -0.1442 -0.2013  0.0724
  121POPC   C3B 1944   1.937   1.073   7.520 -0.3525 -0.3784 -0.0880
  121POPC   C4B 1945   1.972   1.462   7.192 -0.0783  0.1798 -0.0142
  122POPC   NC3 1946   2.099   6.579  10.191  0.0081  0.0114 -0.2736
  122POPC   PO4 1947   1.983   6.436   9.838 -0.0310 -0.0309  0.0634
  122POPC   GL1 1948   2.027   6.390   9.481 -0.1613 -0.0244  0.3881
  122POPC   GL2 1949   2.209   6.430   9.208 -0.1630  0.1826 -0.1844
  122POPC   C1A 1950   1.779   6.295   9.000 -0.2073 -0.0511  0.0321
  122POPC   D2A 1951   1.796   6.281   8.577  0.0922 -0.1379 -0.2089
  122POPC   C3A 1952   1.651   6.016   8.276  0.1348  0.3834  0.2150
  122POPC   C4A 1953   1.757   5.581   8.056  0.0669 -0.2536 -0.0186
  122POPC   C1B 1954   2.310   6.563   8.793  0.2277  0.0426 -0.2455
  122POPC   C2B 1955   2.181   6.556   8.343 -0.1310  0.0819  0.0318
  122POPC   C3B 1956   2.069   6.755   8.008  0.2540 -0.0889 -0.1552
  122POPC   C4B 1957   2.117   6.826   7.519 -0.2173  0.0112  0.0706
  123POPC   NC3 1958   9.404   0.211   9.441  0.0053 -0.2484 -0.0696
  123POPC   PO4 1959   9.078   0.183   9.282 -0.1470  0.2603  0.1576
  123POPC   GL1 1960   9.258   0.028   8.822 -0.2485  0.1252 -0.1491
  123POPC   GL2 1961   8.990  -0.022   8.566  0.0689 -0.1699 -0.0919
  123POPC   C1A 1962   9.456  -0.302   8.593 -0.2415  0.0458 -0.2305
  123POPC   D2A 1963   9.208  -0.523   8.281 -0.2881  0.1175 -0.0495
  123POPC   C3A 1964   9.076  -0.316   7.858 -0.2057  0.0082  0.2395
  123POPC   C4A 1965   8.904  -0.002   7.423  0.1026  0.0460 -0.3133
  123POPC   C1B 1966   9.292   0.006   8.247 -0.0771 -0.0415 -0.2842
  123POPC   C2B 1967   9.622  -0.183   7.958 -0.0852  0.0858 -0.2502
  123POPC   C3B 1968   9.915  -0.049   7.713 -0.1509 -0.2768  0.0053
  123POPC   C4B 1969  10.158   0.087   7.441 -0.2616 -0.1163 -0.1674
  124POPC   NC3 1970   2.646   8.808  10.187 -0.0559 -0.0521  0.0282
  124POPC   PO4 1971   2.388   8.577  10.434 -0.1001  0.1400 -0.1181
  124POPC   GL1 1972   2.344   8.358  10.088 -0.1518  0.2591 -0.1021
  124POPC   GL2 1973   2.169   8.052   9.989  0.3645 -0.0048  0.1488
  124POPC   C1A 1974   2.402   8.385   9.650  0.1331  0.3595 -0.0401
  124POPC   D2A 1975   2.704   8.416   9.402 -0.2647  0.0372  0.0624
  124POPC   C3A 1976   2.828   8.484   9.079  0.1252 -0.4426 -0.3350
  124POPC   C4A 1977   2.610   8.606   8.692 -0.0481  0.2176 -0.0577
  124POPC   C1B 1978   1.764   8.039   9.639 -0.0210  0.0445  0.4859
  124POPC   C2B 1979   2.002   7.994   9.163 -0.0840 -0.2086  0.1964
  124POPC   C3B 1980   2.162   7.773   8.821 -0.0815  0.1858 -0.2557
  124POPC   C4B 1981   2.082   7.524   8.396  0.1544 -0.1658  0.0173
  125POPC   NC3 1982   4.688   6.792   9.559  0.1770  0.1878  0.5636
  125POPC   PO4 1983   4.905   6.521   9.162 -0.0842 -0.1277 -0.1339
  125POPC   GL1 1984   4.819   6.257   8.786  0.4692 -0.1315  0.1566
  125POPC   GL2 1985   4.820   6.632   8.659 -0.1746 -0.0504 -0.1748
  125POPC   C1A 1986   4.714   6.241   8.402  0.0922 -0.2690 -0.2455
  125POPC   D2A 1987   4.533   6.375   8.088  0.2477  0.1154  0.3097
  125POPC   C3A 1988   4.512   6.741   7.806  0.1766  0.2782 -0.0905
  125POPC   C4A 1989   4.513   6.752   7.410  0.0575 -0.0983  0.0236
  125POPC   C1B 1990   4.938   6.701   8.200 -0.0200  0.1258  0.0436
  125POPC   C2B 1991   4.986   6.522   7.758  0.0492 -0.0536  0.0897
  125POPC   C3B 1992   5.337   6.583   7.521  0.0973 -0.2144 -0.1190
  125POPC   C4B 1993   5.700   6.770   7.114  0.1737 -0.3098  0.0902
  126POPC   NC3 1994   9.755   9.293  10.783  0.0363 -0.0126  0.1307
  126POPC   PO4 1995   9.911   9.083  10.440 -0.5333  0.1335  0.5001
  126POPC   GL1 1996  10.067   9.084   9.935  0.0268 -0.0397  0.0737
  126POPC   GL2 1997  10.022   8.749   9.872 -0.1710  0.1749  0.1737
  126POPC   C1A 1998  10.149   9.053   9.481 -0.1164 -0.0335 -0.2129
  126POPC   D2A 1999  10.188   8.872   9.056 -0.1958 -0.2393  0.3343
  126POPC   C3A 2000  10.505   8.774   8.828 -0.0545  0.1550 -0.0054
  126POPC   C4A 2001  10.646   8.498   8.561  0.0736 -0.0625  0.0676
  126POPC   C1B 2002  10.194   8.520   9.401 -0.3149 -0.3333  0.1073
  126POPC   C2B 2003   9.961   8.394   9.036  0.0147 -0.1075 -0.0004
  126POPC   C3B 2004   9.753   8.254   8.663 -0.2064 -0.0485  0.1004
  126POPC   C4B 2005   9.823   8.161   8.186 -0.1178  0.0357  0.0245
  127POPC   NC3 2006   4.617   3.832   8.801 -0.1486 -0.2922  0.0742
  127POPC   PO4 2007   4.471   3.469   8.954 -0.2355  0.1515  0.1022
  127POPC   GL1 2008   4.423   3.314   8.475  0.1344 -0.0487 -0.1065
  127POPC   GL2 2009   4.142   3.269   8.263 -0.0759  0.0095  0.0335
  127POPC   C1A 2010   4.728   3.451   8.147  0.0736 -0.0648  0.1139
  127POPC   D2A 2011   4.891   3.494   7.722 -0.3136 -0.0464 -0.3189
  127POPC   C3A 2012   4.860   3.552   7.271  0.1039 -0.0887 -0.1051
  127POPC   C4A 2013   4.827   3.882   6.931 -0.3392  0.4044 -0.1717
  127POPC   C1B 2014   4.347   3.374   7.872 -0.1415 -0.0466  0.1616
  127POPC   C2B 2015   4.355   3.521   7.402 -0.0575 -0.0160 -0.0152
  127POPC   C3B 2016   4.037   3.477   7.089 -0.0579  0.1275 -0.0521
  127POPC   C4B 2017   3.621   3.483   6.792  0.0522 -0.1157  0.2299
  128POPC   NC3 2018   4.722   0.598   8.639  0.2770 -0.0183  0.1654
  128POPC   PO4 2019   4.233   0.490   8.534  0.1343  0.2329  0.1637
  128POPC   GL1 2020   4.562   0.456   8.216 -0.0336 -0.1852  0.4235
  128POPC   GL2 2021   4.675   0.638   7.997  0.3386 -0.2859  0.1575
  128POPC   C1A 2022   4.730   0.174   7.861 -0.1374  0.0252 -0.0120
  128POPC   D2A 2023   4.845   0.111   7.321  0.4757  0.1734  0.2688
  128POPC   C3A 2024   4.954   0.235   6.870  0.1450  0.0631  0.2593
  128POPC   C4A 2025   4.989   0.325   6.359 -0.0574  0.0001  0.1337
  128POPC   C1B 2026   4.241   0.436   7.823  0.0712  0.3324 -0.2651
  128POPC   C2B 2027   3.868   0.359   7.820  0.2007  0.1325 -0.1179
  128POPC   C3B 2028   3.692   0.253   7.319 -0.1120 -0.0021 -0.0726
  128POPC   C4B 2029   3.641   0.025   6.948 -0.1302 -0.0017 -0.1555
  129POPC   NC3 2030   3.547   9.962   9.897  0.1280  0.3810 -0.0917
  129POPC   PO4 2031   3.741   9.569   9.781  0.1661 -0.4253 -0.3399
  129POPC   GL1 2032   3.381   9.681   9.511 -0.2959 -0.2572  0.2707
  129POPC   GL2 2033   3.371   9.867   9.311  0.1562  0.0678  0.3524
  129POPC   C1A 2034   2.916   9.804   9.265  0.0145  0.2153  0.0707
  129POPC   D2A 2035   2.643   9.876   8.872  0.0079 -0.1398 -0.1967
  129POPC   C3A 2036   2.793   9.755   8.511  0.0188  0.1731  0.1377
  129POPC   C4A 2037   3.268   9.491   8.460  0.0126  0.1676  0.4180
  129POPC   C1B 2038   3.225   9.593   8.931 -0.1549 -0.0348 -0.0144
  129POPC   C2B 2039   2.863   9.334   8.855 -0.0605 -0.1629  0.4234
  129POPC   C3B 2040   2.731   9.063   8.582  0.3423  0.2311 -0.0457
  129POPC   C4B 2041   2.521   8.879   8.196 -0.0957  0.4646 -0.0301
  130POPC   NC3 2042   1.277   3.058   8.455 -0.2978 -0.3007  0.0655
  130POPC   PO4 2043   0.957   3.410   8.532 -0.0268  0.1402 -0.3319
  130POPC   GL1 2044   1.071   3.491   8.156 -0.3118 -0.0486 -0.1160
  130POPC   GL2 2045   1.126   3.859   8.112  0.0276  0.1277  0.0087
  130POPC   C1A 2046   1.082   3.264   7.773  0.1290  0.0474  0.1198
  130POPC   D2A 2047   1.077   3.130   7.339 -0.0597  0.2876 -0.1226
  130POPC   C3A 2048   1.012   2.760   7.215 -0.4142  0.4753 -0.0389
  130POPC   C4A 2049   1.002   2.459   6.865 -0.2496  0.2770 -0.1780
  130POPC   C1B 2050   1.535   3.606   7.877  0.0004  0.1141 -0.0032
  130POPC   C2B 2051   1.955   3.669   7.872  0.2997  0.0407 -0.2550
  130POPC   C3B 2052   2.236   3.627   7.565  0.1432  0.0406 -0.0112
  130POPC   C4B 2053   2.495   3.296   7.318 -0.0541  0.1317 -0.1545
  131POPC   NC3 2054   5.298   7.218   8.577 -0.2297 -0.2686  0.0815
  131POPC   PO4 2055   5.249   7.714   8.531  0.1457 -0.0231  0.4082
  131POPC   GL1 2056   4.992   7.531   8.264 -0.0380  0.0266  0.0390
  131POPC   GL2 2057   5.138   7.253   8.099 -0.1575 -0.1838 -0.0814
  131POPC   C1A 2058   4.672   7.349   8.014 -0.0036 -0.2894  0.1508
  131POPC   D2A 2059   4.310   7.182   8.074  0.0093 -0.1047  0.1990
  131POPC   C3A 2060   4.168   7.126   7.663 -0.0718  0.0122  0.0220
  131POPC   C4A 2061   4.055   6.837   7.378  0.0595 -0.2923 -0.1813
  131POPC   C1B 2062   4.919   7.097   7.654  0.0449  0.1707  0.0690
  131POPC   C2B 2063   4.848   7.118   7.252  0.3256  0.3951  0.3318
  131POPC   C3B 2064   4.525   7.216   7.069  0.0257  0.1295 -0.3525
  131POPC   C4B 2065   4.165   7.227   7.068 -0.0029 -0.1199  0.1036
  132POPC   NC3 2066   4.614   2.894   8.680  0.0573  0.0561 -0.0769
  132POPC   PO4 2067   4.961   2.732   8.586 -0.1524 -0.0438 -0.0921
  132POPC   GL1 2068   4.771   2.697   8.198 -0.0696 -0.3063  0.1019
  132POPC   GL2 2069   4.466   2.849   8.178 -0.1125 -0.0154 -0.0087
  132POPC   C1A 2070   4.739   2.377   7.898  0.2016  0.2652  0.1372
  132POPC   D2A 2071   4.732   2.474   7.460 -0.0392 -0.0658 -0.0354
  132POPC   C3A 2072   4.861   2.750   7.202 -0.2707 -0.2942 -0.0348
  132POPC   C4A 2073   4.704   3.114   7.066  0.0779 -0.1548  0.1804
  132POPC   C1B 2074   4.106   2.980   7.850 -0.3698 -0.2353 -0.0942
  132POPC   C2B 2075   3.825   2.791   7.617  0.0486 -0.0438  0.0987
  132POPC   C3B 2076   3.841   2.484   7.279 -0.0698 -0.0628  0.3588
  132POPC   C4B 2077   3.604   2.327   6.939 -0.2748  0.0317 -0.2522
  133POPC   NC3 2078   7.881   0.469   8.607  0.1619  0.3022  0.1414
  133POPC   PO4 2079   8.402   0.476   8.573  0.0667 -0.1295  0.2559
  133POPC   GL1 2080   8.142   0.587   8.201  0.1630 -0.1722  0.0102
  133POPC   GL2 2081   7.888   0.921   8.212  0.1313  0.0574 -0.0788
  133POPC   C1A 2082   7.987   0.468   7.826 -0.2736  0.3004 -0.0745
  133POPC   D2A 2083   7.851   0.143   7.570 -0.0351  0.1958  0.0267
  133POPC   C3A 2084   7.429   0.139   7.419  0.0753  0.1624 -0.5842
  133POPC   C4A 2085   7.023   0.197   7.657  0.1498 -0.4565 -0.1111
  133POPC   C1B 2086   7.879   1.413   8.089  0.2455  0.2144  0.1065
  133POPC   C2B 2087   7.897   1.781   7.884  0.2091 -0.2560 -0.2971
  133POPC   C3B 2088   8.243   2.120   7.838  0.0439 -0.0065 -0.0408
  133POPC   C4B 2089   8.377   2.296   8.232  0.0235  0.3779  0.2827
  134POPC   NC3 2090   9.357   5.623   9.308 -0.5056 -0.0957 -0.2917
  134POPC   PO4 2091   8.966   5.544   9.497  0.2869 -0.1319  0.0358
  134POPC   GL1 2092   9.014   5.357   9.106  0.3014  0.2212 -0.2344
  134POPC   GL2 2093   8.705   5.297   8.856 -0.4489  0.1603 -0.1423
  134POPC   C1A 2094   9.238   5.136   8.767  0.0476 -0.0489  0.1992
  134POPC   D2A 2095   9.246   5.067   8.285 -0.1333  0.2765  0.1520
  134POPC   C3A 2096   9.356   5.409   8.109 -0.0727 -0.0067 -0.3294
  134POPC   C4A 2097   9.105   5.465   7.667  0.0120 -0.1820  0.4908
  134POPC   C1B 2098   8.944   5.422   8.492  0.0301  0.0172  0.0702
  134POPC   C2B 2099   8.935   5.656   8.116  0.0999 -0.0867  0.0869
  134POPC   C3B 2100   8.832   6.091   8.004 -0.0265  0.1620 -0.1206
  134POPC   C4B 2101   8.425   6.300   7.908 -0.0180  0.4687 -0.1150
  135POPC   NC3 2102   4.929   2.209   8.478  0.0879 -0.0671  0.1559
  135POPC   PO4 2103   5.386   2.262   8.400  0.2492 -0.0983 -0.0888
  135POPC   GL1 2104   5.219   2.306   8.044  0.1768 -0.1181  0.3383
  135POPC   GL2 2105   5.021   2.044   7.809 -0.1071 -0.3799  0.0955
  135POPC   C1A 2106   5.210   2.443   7.597 -0.1808 -0.0623 -0.0034
  135POPC   D2A 2107   5.336   2.839   7.465 -0.1892  0.1616 -0.0109
  135POPC   C3A 2108   5.150   3.169   7.240  0.0181  0.1865  0.1908
  135POPC   C4A 2109   5.078   3.448   6.857  0.1045  0.1791  0.5412
  135POPC   C1B 2110   5.415   1.778   7.863 -0.1389 -0.1124  0.1448
  135POPC   C2B 2111   5.803   1.672   7.600  0.2206  0.0071 -0.3363
  135POPC   C3B 2112   6.128   1.578   7.199 -0.0148  0.0503  0.2899
  135POPC   C4B 2113   6.535   1.615   7.136 -0.0582  0.3065 -0.0177
  136POPC   NC3 2114   0.855   6.875  10.542 -0.1143 -0.3488  0.2228
  136POPC   PO4 2115   0.691   7.265  10.680 -0.0980  0.2702 -0.1499
  136POPC   GL1 2116   0.562   7.364  10.249 -0.0962 -0.0614  0.1658
  136POPC   GL2 2117   0.379   7.141  10.044 -0.1298 -0.0061 -0.1239
  136POPC   C1A 2118   0.529   7.667   9.925  0.2449  0.1419 -0.2157
  136POPC   D2A 2119   0.301   8.077   9.979  0.0008  0.2415  0.0663
  136POPC   C3A 2120  -0.023   8.368   9.832 -0.2359  0.3789  0.0608
  136POPC   C4A 2121   0.011   8.827   9.779  0.1895 -0.2503  0.3989
  136POPC   C1B 2122   0.729   7.269   9.747 -0.2380 -0.0584  0.0482
  136POPC   C2B 2123   0.882   7.503   9.406  0.2246  0.1585 -0.1127
  136POPC   C3B 2124   1.106   7.559   9.082  0.1314  0.1824 -0.0325
  136POPC   C4B 2125   1.154   7.734   8.696  0.0828  0.2647  0.1494
  137POPC   NC3 2126   4.373   7.120   8.807  0.0828 -0.1633 -0.2541
  137POPC   PO4 2127   3.933   7.183   9.029  0.2337  0.0011 -0.5826
  137POPC   GL1 2128   3.758   7.026   8.649 -0.3077  0.0668  0.0260
  137POPC   GL2 2129   3.947   7.045   8.427  0.0476  0.2456  0.2234
  137POPC   C1A 2130   3.390   7.184   8.427 -0.2816  0.1618  0.2766
  137POPC   D2A 2131   3.022   7.198   8.399 -0.2554  0.2652 -0.1774
  137POPC   C3A 2132   2.831   7.220   8.880  0.0924 -0.1523  0.1331
  137POPC   C4A 2133   2.914   7.535   9.142 -0.1547  0.4005 -0.3122
  137POPC   C1B 2134   3.795   7.334   8.150 -0.0923 -0.1273  0.0383
  137POPC   C2B 2135   3.751   7.450   7.700  0.0483  0.1884 -0.0412
  137POPC   C3B 2136   4.063   7.588   7.401  0.0644  0.3857 -0.0907
  137POPC   C4B 2137   4.531   7.445   7.505  0.0730  0.0384 -0.2006
  138POPC   NC3 2138   4.052   4.320   8.890  0.2647 -0.2241 -0.0577
  138POPC   PO4 2139   3.713   4.161   9.104 -0.2499  0.3757 -0.0239
  138POPC   GL1 2140   3.530   4.298   8.748  0.2224 -0.1760  0.0764
  138POPC   GL2 2141   3.603   4.563   8.707 -0.0218 -0.3052  0.3707
  138POPC   C1A 2142   3.554   4.094   8.315 -0.3524 -0.1293 -0.5005
  138POPC   D2A 2143   3.557   3.989   7.777 -0.1006 -0.3957  0.1610
  138POPC   C3A 2144   3.327   4.092   7.343 -0.0272  0.0840 -0.1713
  138POPC   C4A 2145   3.264   3.856   6.975  0.0346 -0.1787  0.1018
  138POPC   C1B 2146   3.660   5.056   8.542 -0.2967  0.2346  0.1605
  138POPC   C2B 2147   3.760   5.342   8.290 -0.0048  0.0301  0.0365
  138POPC   C3B 2148   3.932   5.602   7.953  0.0369  0.2424  0.1120
  138POPC   C4B 2149   4.128   5.356   7.702 -0.0702 -0.1175 -0.0579
  139POPC   NC3 2150   2.028   2.709   8.959  0.0355  0.2862  0.2105
  139POPC   PO4 2151   2.261   2.370   8.826  0.1220 -0.0736  0.2907
  139POPC   GL1 2152   2.204   2.604   8.454  0.0846 -0.0440 -0.2131
  139POPC   GL2 2153   2.181   2.322   8.317 -0.2114 -0.3863 -0.2856
  139POPC   C1A 2154   2.019   2.846   8.229  0.0281 -0.1286 -0.0473
  139POPC   D2A 2155   1.738   2.962   7.892 -0.0855 -0.1790  0.1868
  139POPC   C3A 2156   1.343   2.858   7.866 -0.0046 -0.1172  0.3377
  139POPC   C4A 2157   0.910   2.769   7.737 -0.3687  0.2769  0.2612
  139POPC   C1B 2158   2.396   1.926   8.057 -0.2445 -0.2028 -0.4784
  139POPC   C2B 2159   2.471   1.778   7.614 -0.3237 -0.0970  0.2067
  139POPC   C3B 2160   2.324   1.808   7.200 -0.2030 -0.0488  0.3085
  139POPC   C4B 2161   2.022   1.942   6.923  0.2229  0.1776  0.0158
  140POPC   NC3 2162   5.798   5.965   8.712 -0.1842 -0.2542 -0.1112
  140POPC   PO4 2163   5.733   6.496   8.622  0.0059 -0.0289 -0.0890
  140POPC   GL1 2164   6.058   6.266   8.336 -0.0753 -0.1756 -0.3775
  140POPC   GL2 2165   6.040   6.464   8.118 -0.0226 -0.0376 -0.0473
  140POPC   C1A 2166   6.257   5.993   8.099 -0.0106 -0.2952  0.1926
  140POPC   D2A 2167   6.287   5.895   7.634  0.2293 -0.0192  0.2708
  140POPC   C3A 2168   6.271   5.538   7.439  0.0425  0.0078 -0.2966
  140POPC   C4A 2169   6.078   5.421   7.047  0.2113  0.0543  0.0159
  140POPC   C1B 2170   5.904   6.300   7.844  0.1251 -0.3243  0.2020
  140POPC   C2B 2171   5.564   6.166   7.658 -0.1669 -0.0079  0.1214
  140POPC   C3B 2172   5.115   6.035   7.483  0.0767  0.1362  0.0173
  140POPC   C4B 2173   4.798   5.686   7.447 -0.0545 -0.0786  0.0493
  141POPC   NC3 2174   1.810   0.343   9.554  0.0335 -0.1164  0.0376
  141POPC   PO4 2175   1.311   0.424   9.739  0.2021  0.0529  0.0428
  141POPC   GL1 2176   1.329   0.566   9.373  0.0897 -0.2346 -0.0552
  141POPC   GL2 2177   1.506   0.296   9.186 -0.0706  0.2965  0.3753
  141POPC   C1A 2178   1.221   0.647   8.944  0.2454  0.1985 -0.1625
  141POPC   D2A 2179   0.947   0.344   8.666  0.1064 -0.1194 -0.0059
  141POPC   C3A 2180   1.279   0.057   8.623 -0.1109  0.1668  0.1078
  141POPC   C4A 2181   1.222  -0.227   8.275  0.1457 -0.1733  0.3809
  141POPC   C1B 2182   1.720   0.068   8.847 -0.0249  0.1004 -0.1898
  141POPC   C2B 2183   1.772  -0.152   8.432 -0.1207 -0.0835 -0.0172
  141POPC   C3B 2184   2.011  -0.568   8.351  0.0792  0.1566  0.0614
  141POPC   C4B 2185   1.969  -0.917   7.983 -0.0601 -0.1250  0.0015
  142POPC   NC3 2186   8.146   1.599   9.364 -0.1501 -0.0269  0.2747
  142POPC   PO4 2187   7.919   1.856   8.930  0.1367  0.1312 -0.2751
  142POPC   GL1 2188   8.145   1.893   8.604 -0.1643  0.1712  0.1070
  142POPC   GL2 2189   8.306   1.504   8.485  0.0404 -0.2217  0.1806
  142POPC   C1A 2190   7.858   2.060   8.265 -0.2906  0.0346  0.3022
  142POPC   D2A 2191   7.677   2.270   7.905 -0.1106 -0.1035 -0.2268
  142POPC   C3A 2192   7.864   2.202   7.516  0.4818  0.1241  0.2523
  142POPC   C4A 2193   7.884   2.175   7.074  0.2750 -0.1960  0.2429
  142POPC   C1B 2194   8.395   1.763   8.139 -0.1003 -0.1015  0.4785
  142POPC   C2B 2195   8.666   1.932   8.119 -0.0363 -0.0219 -0.1320
  142POPC   C3B 2196   9.048   2.019   7.883 -0.1646 -0.0752  0.0554
  142POPC   C4B 2197   9.101   2.229   7.481 -0.2265 -0.0344  0.1754
  143POPC   NC3 2198   3.976   9.152   9.452 -0.1985 -0.0662 -0.1742
  143POPC   PO4 2199   4.175   8.798   9.296 -0.0295  0.0680 -0.1573
  143POPC   GL1 2200   4.186   8.895   8.815 -0.1458 -0.3861  0.1920
  143POPC   GL2 2201   3.813   9.007   8.935 -0.2025 -0.0318  0.0587
  143POPC   C1A 2202   4.115   8.577   8.494  0.1056 -0.0200  0.1177
  143POPC   D2A 2203   3.871   8.190   8.291 -0.0121 -0.0777  0.0780
  143POPC   C3A 2204   3.726   8.010   7.839  0.0785 -0.0347  0.1366
  143POPC   C4A 2205   3.384   7.777   7.702  0.0295  0.1533  0.0024
  143POPC   C1B 2206   3.764   9.075   8.526 -0.0083  0.1451  0.0860
  143POPC   C2B 2207   4.056   9.048   8.207 -0.1102  0.1049  0.0362
  143POPC   C3B 2208   3.900   8.941   7.758  0.2797 -0.0100 -0.2112
  143POPC   C4B 2209   3.676   9.147   7.482 -0.0541 -0.1643 -0.0199
  144POPC   NC3 2210   7.395   4.610   8.929  0.0373 -0.2137  0.3553
  144POPC   PO4 2211   7.420   5.023   8.669  0.0564 -0.1515  0.3323
  144POPC   GL1 2212   7.553   5.140   8.227 -0.4485 -0.3154  0.1893
  144POPC   GL2 2213   7.690   5.479   8.125  0.1791  0.1469 -0.0788
  144POPC   C1A 2214   7.312   5.012   7.828 -0.0851 -0.0934  0.0919
  144POPC   D2A 2215   7.203   5.072   7.427  0.0521  0.0240 -0.0524
  144POPC   C3A 2216   7.438   4.982   6.989 -0.2139 -0.2263  0.3463
  144POPC   C4A 2217   7.855   5.003   6.843  0.0266 -0.3777  0.2363
  144POPC   C1B 2218   8.097   5.492   7.837 -0.0584 -0.1827 -0.2973
  144POPC   C2B 2219   8.433   5.295   7.667 -0.0878  0.0376 -0.4972
  144POPC   C3B 2220   8.598   5.303   7.285 -0.2924  0.1565  0.0318
  144POPC   C4B 2221   8.555   5.696   7.167 -0.3508  0.4724  0.0899
  145POPC   NC3 2222   3.520   8.652   9.805 -0.0713  0.1559  0.1527
  145POPC   PO4 2223   3.319   8.214   9.769 -0.1399  0.1839  0.0987
  145POPC   GL1 2224   3.223   8.527   9.388 -0.0391  0.0264  0.2090
  145POPC   GL2 2225   3.068   8.868   9.297 -0.0324  0.0680 -0.1327
  145POPC   C1A 2226   3.339   8.510   8.964 -0.0425 -0.0301  0.0982
  145POPC   D2A 2227   3.606   8.611   8.626  0.0808  0.0273 -0.1040
  145POPC   C3A 2228   3.672   8.629   8.148  0.2241  0.1672 -0.0693
  145POPC   C4A 2229   3.391   8.537   7.705  0.3952 -0.1354 -0.4753
  145POPC   C1B 2230   3.354   9.102   9.031  0.3187  0.0307  0.0896
  145POPC   C2B 2231   3.250   9.017   8.589  0.3642  0.1361  0.2960
  145POPC   C3B 2232   3.204   8.651   8.322 -0.0445  0.2407  0.0485
  145POPC   C4B 2233   2.838   8.443   8.292 -0.1657 -0.0980 -0.2378
  146POPC   NC3 2234   2.817   5.459   9.417  0.0142  0.0109 -0.1204
  146POPC   PO4 2235   2.634   5.676   9.065  0.1752 -0.3488  0.1306
  146POPC   GL1 2236   2.833   5.744   8.673  0.1792  0.1031 -0.0719
  146POPC   GL2 2237   2.509   5.684   8.521 -0.0728 -0.0461 -0.1630
  146POPC   C1A 2238   2.961   5.790   8.287  0.0298 -0.4584 -0.0204
  146POPC   D2A 2239   3.044   5.759   7.870  0.1449 -0.0486  0.1369
  146POPC   C3A 2240   3.273   5.986   7.734 -0.0749 -0.0181  0.0620
  146POPC   C4A 2241   3.595   5.976   7.443 -0.1284  0.0520  0.1112
  146POPC   C1B 2242   2.251   5.641   8.110 -0.0854  0.1504  0.0617
  146POPC   C2B 2243   2.197   5.887   7.673 -0.0546  0.1850 -0.0111
  146POPC   C3B 2244   1.788   5.919   7.590 -0.3634 -0.1511  0.1599
  146POPC   C4B 2245   1.400   5.849   7.854  0.2047  0.1645  0.2668
  147POPC   NC3 2246   9.961   2.654   8.529 -0.1360 -0.1259 -0.0193
  147POPC   PO4 2247  10.362   2.443   8.637  0.3355  0.1509  0.0749
  147POPC   GL1 2248  10.207   2.538   8.127 -0.0214 -0.1740  0.2077
  147POPC   GL2 2249   9.906   2.433   8.015  0.1234  0.1661 -0.4348
  147POPC   C1A 2250  10.309   2.698   7.766  0.1019 -0.0715 -0.0993
  147POPC   D2A 2251  10.378   2.865   7.330  0.0276  0.1941  0.2326
  147POPC   C3A 2252  10.514   2.617   6.989 -0.1194  0.3028 -0.0433
  147POPC   C4A 2253  10.538   2.189   6.903  0.1983 -0.1948 -0.0385
  147POPC   C1B 2254  10.035   2.273   7.720 -0.0665 -0.2620 -0.1345
  147POPC   C2B 2255   9.880   1.907   7.529 -0.0414 -0.3006  0.1249
  147POPC   C3B 2256  10.014   1.670   7.247  0.0530 -0.2876  0.3840
  147POPC   C4B 2257  10.224   1.407   7.159  0.1116  0.1126 -0.0645
  148POPC   NC3 2258   6.135   2.173   9.041  0.1804  0.1419 -0.3941
  148POPC   PO4 2259   6.370   1.927   9.055 -0.1240  0.0228  0.2732
  148POPC   GL1 2260   6.281   1.919   8.544 -0.1993  0.0663  0.1133
  148POPC   GL2 2261   6.320   1.613   8.319  0.0895 -0.1908  0.0023
  148POPC   C1A 2262   6.034   1.932   8.050 -0.2184  0.1773 -0.2188
  148POPC   D2A 2263   5.723   2.240   7.800  0.3684 -0.1156 -0.1188
  148POPC   C3A 2264   5.796   2.677   7.758  0.0343  0.0042  0.0858
  148POPC   C4A 2265   5.734   3.058   7.561  0.0066  0.2564  0.1094
  148POPC   C1B 2266   6.526   1.280   8.123 -0.4405 -0.2960 -0.1559
  148POPC   C2B 2267   6.427   0.924   7.942  0.0303 -0.2589 -0.1022
  148POPC   C3B 2268   6.131   0.806   7.710 -0.2153 -0.2417 -0.0980
  148POPC   C4B 2269   5.751   0.641   7.747  0.4043 -0.2552  0.2427
  149POPC   NC3 2270   9.703   2.802   8.966 -0.1347  0.0853  0.2075
  149POPC   PO4 2271   9.749   3.221   8.826  0.0360 -0.0102  0.1462
  149POPC   GL1 2272   9.706   3.234   8.498 -0.3390 -0.1934 -0.0924
  149POPC   GL2 2273   9.896   3.299   8.286  0.0849 -0.2467 -0.1534
  149POPC   C1A 2274   9.350   3.254   8.258 -0.1257 -0.2649 -0.0978
  149POPC   D2A 2275   9.154   3.147   7.818  0.0510  0.0000 -0.1976
  149POPC   C3A 2276   9.051   2.731   7.886  0.0889  0.0218  0.0124
  149POPC   C4A 2277   8.873   2.678   7.479  0.0610  0.2445 -0.1319
  149POPC   C1B 2278   9.936   2.994   7.867  0.1596  0.1634  0.0460
  149POPC   C2B 2279  10.013   3.156   7.442  0.0291  0.1586  0.0734
  149POPC   C3B 2280   9.858   3.403   7.099  0.1972  0.1352 -0.4727
  149POPC   C4B 2281   9.546   3.751   7.052 -0.2153 -0.1260 -0.0246
  150POPC   NC3 2282   7.754  10.108   9.269 -0.0985 -0.0582  0.1305
  150POPC   PO4 2283   7.698  10.330   8.759  0.0342 -0.0706 -0.1683
  150POPC   GL1 2284   7.855  10.113   8.433  0.1442 -0.0309 -0.1298
  150POPC   GL2 2285   7.553   9.897   8.411  0.0575 -0.0333 -0.0765
  150POPC   C1A 2286   8.017  10.202   7.994  0.0315  0.3330 -0.0544
  150POPC   D2A 2287   8.219  10.024   7.562  0.1666 -0.1252 -0.0503
  150POPC   C3A 2288   8.276  10.299   7.244  0.0256 -0.1987 -0.0143
  150POPC   C4A 2289   8.273  10.228   6.822 -0.0241  0.0457  0.0457
  150POPC   C1B 2290   7.525   9.832   7.968  0.1423 -0.0802  0.4972
  150POPC   C2B 2291   7.741  10.002   7.638  0.1713  0.1967  0.0470
  150POPC   C3B 2292   7.863   9.882   7.205  0.1062  0.0675 -0.0915
  150POPC   C4B 2293   7.788  10.050   6.821 -0.1446  0.0428  0.1935
  151POPC   NC3 2294   1.451   5.512   9.232  0.1096 -0.1956  0.3191
  151POPC   PO4 2295   0.992   5.370   9.189  0.1508 -0.1248 -0.0581
  151POPC   GL1 2296   0.846   5.553   8.919  0.1371 -0.1910 -0.0985
  151POPC   GL2 2297   0.462   5.810   9.000  0.0449  0.0439  0.1025
  151POPC   C1A 2298   0.614   5.937   8.600  0.4100  0.0038  0.1159
  151POPC   D2A 2299   0.268   6.294   8.522  0.3050 -0.2865  0.0384
  151POPC   C3A 2300   0.396   6.472   8.095 -0.1210 -0.1706  0.1673
  151POPC   C4A 2301   0.654   6.830   7.940  0.0469 -0.0862  0.2282
  151POPC   C1B 2302   0.119   5.803   8.764 -0.2677  0.3852 -0.2043
  151POPC   C2B 2303   0.252   5.845   8.307 -0.0846 -0.3490  0.1969
  151POPC   C3B 2304   0.201   5.991   7.879 -0.3878  0.2771  0.1699
  151POPC   C4B 2305   0.176   6.327   7.572  0.1626 -0.1471  0.1431
  152POPC   NC3 2306   4.243   5.090   9.490 -0.4306 -0.0085 -0.0022
  152POPC   PO4 2307   3.962   4.851   9.091 -0.5529 -0.0773  0.0006
  152POPC   GL1 2308   4.053   4.759   8.628  0.0074  0.1784  0.0284
  152POPC   GL2 2309   4.060   4.891   8.374 -0.0136  0.2280  0.4561
  152POPC   C1A 2310   3.913   4.445   8.292 -0.0557  0.0664 -0.0666
  152POPC   D2A 2311   3.969   4.116   8.052 -0.0417  0.3208  0.1800
  152POPC   C3A 2312   4.045   3.867   7.675 -0.2694 -0.0688  0.1305
  152POPC   C4A 2313   3.661   3.703   7.343  0.0743 -0.4419  0.4527
  152POPC   C1B 2314   4.176   4.889   7.852 -0.0746  0.0402  0.0399
  152POPC   C2B 2315   4.398   4.853   7.399  0.0881  0.3930 -0.0837
  152POPC   C3B 2316   4.571   4.849   7.065 -0.1160  0.4411  0.0696
  152POPC   C4B 2317   4.472   4.786   6.784  0.2110 -0.0701  0.1128
  153POPC   NC3 2318   0.211   5.051   9.470 -0.2793  0.2347  0.1121
  153POPC   PO4 2319   0.017   4.786   9.063 -0.0612 -0.2445  0.2501
  153POPC   GL1 2320  -0.092   4.985   8.633  0.1468 -0.1219  0.0997
  153POPC   GL2 2321   0.150   4.893   8.451 -0.0576  0.6116  0.0398
  153POPC   C1A 2322  -0.241   4.994   8.142 -0.1124  0.0342 -0.1021
  153POPC   D2A 2323   0.087   5.158   7.779 -0.1591  0.1149 -0.2405
  153POPC   C3A 2324  -0.028   5.062   7.297 -0.1187  0.1205 -0.0035
  153POPC   C4A 2325  -0.323   5.019   6.899 -0.1005  0.0694  0.3093
  153POPC   C1B 2326   0.303   4.813   8.083  0.1062 -0.0612  0.0055
  153POPC   C2B 2327   0.521   5.013   7.692 -0.2501  0.1645 -0.0141
  153POPC   C3B 2328   0.897   5.103   7.374  0.2237 -0.1415  0.0276
  153POPC   C4B 2329   0.962   5.227   6.985  0.1894 -0.0102 -0.1546
  154POPC   NC3 2330   7.513   7.655   8.441  0.1327 -0.2014 -0.1005
  154POPC   PO4 2331   7.185   7.719   8.757 -0.2056  0.0548 -0.1446
  154POPC   GL1 2332   7.080   7.510   8.316 -0.1121 -0.1401 -0.0356
  154POPC   GL2 2333   6.673   7.500   8.231  0.0351  0.0862  0.0728
  154POPC   C1A 2334   7.025   7.726   7.943  0.0003  0.0348 -0.0366
  154POPC   D2A 2335   6.654   7.935   7.851 -0.2411  0.3870  0.1553
  154POPC   C3A 2336   6.372   7.817   7.546 -0.0027 -0.1312 -0.2391
  154POPC   C4A 2337   5.998   7.831   7.337 -0.1529  0.1809 -0.2324
  154POPC   C1B 2338   6.643   7.410   7.823  0.0101 -0.1997 -0.1084
  154POPC   C2B 2339   7.056   7.387   7.553  0.1002 -0.1251 -0.0828
  154POPC   C3B 2340   7.370   7.728   7.403 -0.2457  0.2186 -0.0910
  154POPC   C4B 2341   7.609   7.958   7.751 -0.0424  0.1456 -0.1493
  155POPC   NC3 2342   8.600   9.876   9.175  0.3112 -0.0655  0.0230
  155POPC   PO4 2343   9.012   9.613   9.235 -0.0474 -0.2630  0.0267
  155POPC   GL1 2344   9.350   9.509   9.074  0.0559  0.1582 -0.0484
  155POPC   GL2 2345   9.637   9.361   9.007  0.0645  0.2163 -0.3856
  155POPC   C1A 2346   9.504   9.639   8.621 -0.3115  0.1484  0.1037
  155POPC   D2A 2347   9.865   9.804   8.469 -0.1676  0.1758 -0.1574
  155POPC   C3A 2348   9.892   9.620   8.081  0.0635 -0.3884  0.1950
  155POPC   C4A 2349   9.627   9.840   7.727 -0.1970 -0.0887 -0.4683
  155POPC   C1B 2350  10.101   9.400   8.998  0.4039 -0.1648 -0.2333
  155POPC   C2B 2351  10.425   9.306   8.697 -0.0098  0.3305 -0.0205
  155POPC   C3B 2352  10.713   9.376   8.417 -0.0415  0.2971  0.1494
  155POPC   C4B 2353  10.680   9.144   8.009 -0.0917 -0.4593  0.2573
  156POPC   NC3 2354   2.480   6.342   9.687 -0.2465  0.2379 -0.0482
  156POPC   PO4 2355   2.545   6.555  10.010 -0.1512 -0.2813  0.0266
  156POPC   GL1 2356   2.317   6.803   9.612  0.3879 -0.2294  0.0368
  156POPC   GL2 2357   1.999   6.890   9.690  0.1406 -0.2879  0.0639
  156POPC   C1A 2358   2.487   6.868   9.269  0.1425  0.1363  0.2097
  156POPC   D2A 2359   2.805   6.661   8.989  0.3195  0.1974 -0.1503
  156POPC   C3A 2360   2.740   6.775   8.503 -0.2824  0.1339 -0.2424
  156POPC   C4A 2361   2.604   6.685   8.098  0.3549 -0.1818 -0.0273
  156POPC   C1B 2362   1.627   7.081   9.575  0.2970 -0.2380  0.2507
  156POPC   C2B 2363   1.543   7.211   9.096  0.2072 -0.0503  0.1135
  156POPC   C3B 2364   1.240   7.208   8.750 -0.0820  0.0835 -0.2267
  156POPC   C4B 2365   0.960   7.128   8.467 -0.1153  0.0480 -0.1170
  157POPC   NC3 2366   4.775   9.240   8.933 -0.1847 -0.2009  0.0570
  157POPC   PO4 2367   5.018   9.014   8.653  0.0944 -0.1531  0.0367
  157POPC   GL1 2368   5.019   9.154   8.261  0.2073  0.2497  0.3851
  157POPC   GL2 2369   4.856   9.481   8.253  0.1838  0.0847  0.1496
  157POPC   C1A 2370   4.991   9.293   7.814  0.1086 -0.2264 -0.1342
  157POPC   D2A 2371   5.127   9.565   7.457 -0.0958 -0.1363  0.1825
  157POPC   C3A 2372   4.759   9.755   7.295  0.0828 -0.1664 -0.1225
  157POPC   C4A 2373   4.464   9.731   6.942  0.1911  0.2618 -0.0178
  157POPC   C1B 2374   4.692   9.816   8.015  0.1060  0.3245 -0.0973
  157POPC   C2B 2375   4.491   9.677   7.672  0.0605  0.0748 -0.0359
  157POPC   C3B 2376   4.194   9.577   7.350  0.2770 -0.0596  0.0403
  157POPC   C4B 2377   3.939   9.379   6.986  0.0966  0.0545  0.6262
  158POPC   NC3 2378   9.149   5.925   9.787 -0.1515  0.1663 -0.1643
  158POPC   PO4 2379   9.391   6.156   9.412  0.0620 -0.0604  0.0321
  158POPC   GL1 2380   9.478   5.979   8.997 -0.2565  0.0886  0.0223
  158POPC   GL2 2381   9.137   5.815   8.869  0.0432  0.1610 -0.0933
  158POPC   C1A 2382   9.583   6.180   8.547 -0.2620 -0.0049  0.1317
  158POPC   D2A 2383   9.852   6.316   8.171 -0.1075  0.0762  0.2644
  158POPC   C3A 2384   9.742   6.291   7.804 -0.2458  0.1146  0.2345
  158POPC   C4A 2385   9.818   6.263   7.329  0.1764 -0.2006 -0.1048
  158POPC   C1B 2386   9.276   5.809   8.443 -0.1894  0.1570  0.3488
  158POPC   C2B 2387   9.340   6.102   8.066  0.2399  0.3329  0.1843
  158POPC   C3B 2388   9.146   6.008   7.614  0.1720 -0.0225  0.1554
  158POPC   C4B 2389   9.027   5.723   7.256 -0.2162 -0.5027 -0.1224
  159POPC   NC3 2390   9.970   0.526   9.391  0.0978  0.0655 -0.3654
  159POPC   PO4 2391   9.981   0.846   9.066  0.1744 -0.0514  0.2048
  159POPC   GL1 2392  10.178   0.643   8.626  0.2436  0.1125 -0.0053
  159POPC   GL2 2393  10.010   0.787   8.376  0.1391 -0.0774  0.0807
  159POPC   C1A 2394  10.408   0.370   8.279  0.0534  0.0414  0.3634
  159POPC   D2A 2395  10.264   0.214   7.958 -0.1244 -0.1790  0.2667
  159POPC   C3A 2396  10.249   0.540   7.665 -0.1187  0.0033 -0.0912
  159POPC   C4A 2397  10.420   0.502   7.274  0.1400  0.1739 -0.1973
  159POPC   C1B 2398   9.883   0.929   7.888 -0.1850  0.1079  0.0556
  159POPC   C2B 2399   9.630   0.876   7.520  0.1991  0.3352  0.1449
  159POPC   C3B 2400   9.349   0.613   7.348 -0.4714  0.0943 -0.1494
  159POPC   C4B 2401   9.065   0.454   7.116  0.0916  0.4283  0.0003
  160POPC   NC3 2402   0.167   3.308   8.898 -0.1809 -0.1190 -0.2902
  160POPC   PO4 2403   0.201   2.809   8.855  0.0050  0.1895 -0.0843
  160POPC   GL1 2404   0.162   2.764   8.365  0.2586 -0.1710 -0.0010
  160POPC   GL2 2405  -0.035   3.046   8.169  0.2108 -0.0749 -0.1512
  160POPC   C1A 2406   0.213   2.335   8.089 -0.0592  0.0050  0.1919
  160POPC   D2A 2407   0.204   2.026   7.751  0.2053  0.1467  0.0987
  160POPC   C3A 2408   0.298   1.646   7.844  0.1375  0.1868 -0.4122
  160POPC   C4A 2409   0.023   1.315   7.955  0.0260  0.0214  0.1508
  160POPC   C1B 2410   0.086   3.176   7.785  0.1305 -0.0534  0.2282
  160POPC   C2B 2411   0.201   3.301   7.384 -0.0193  0.2791 -0.1507
  160POPC   C3B 2412   0.337   3.390   6.876 -0.0458 -0.1394 -0.0920
  160POPC   C4B 2413   0.322   3.250   6.537 -0.2254  0.2454  0.1858
  161POPC   NC3 2414   7.904   6.609   9.058 -0.0049  0.1752  0.1730
  161POPC   PO4 2415   7.732   6.354   8.717 -0.0207 -0.4071 -0.1189
  161POPC   GL1 2416   7.898   6.419   8.355  0.2039  0.0219  0.1165
  161POPC   GL2 2417   8.200   6.544   8.301  0.0645  0.0522 -0.2821
  161POPC   C1A 2418   7.917   6.476   7.894 -0.0821  0.2163 -0.1315
  161POPC   D2A 2419   8.132   6.580   7.490 -0.0353 -0.2663 -0.2190
  161POPC   C3A 2420   7.987   6.571   7.058  0.1469  0.0964  0.3198
  161POPC   C4A 2421   8.034   6.389   6.714  0.5728 -0.1733  0.3777
  161POPC   C1B 2422   8.399   6.761   8.048  0.1362  0.1730 -0.1450
  161POPC   C2B 2423   8.621   6.801   7.657  0.1320  0.0772  0.3726
  161POPC   C3B 2424   8.788   7.161   7.326  0.3474  0.0178 -0.1630
  161POPC   C4B 2425   9.067   7.317   7.273 -0.0159 -0.2421 -0.0395
  162POPC   NC3 2426   5.049   8.604   8.402  0.1686  0.3823  0.2548
  162POPC   PO4 2427   5.393   8.740   8.380 -0.0356 -0.1172 -0.0430
  162POPC   GL1 2428   5.273   8.305   8.047  0.0792 -0.1284  0.0079
  162POPC   GL2 2429   5.173   8.015   8.071 -0.0455 -0.2613 -0.1479
  162POPC   C1A 2430   5.532   7.992   7.795 -0.2411 -0.0099 -0.2065
  162POPC   D2A 2431   5.527   7.725   7.472  0.1038 -0.0363 -0.0698
  162POPC   C3A 2432   5.333   7.805   7.079 -0.0827 -0.1429 -0.1796
  162POPC   C4A 2433   5.046   8.078   7.050 -0.1653 -0.1872  0.1630
  162POPC   C1B 2434   5.069   7.639   7.714 -0.1727  0.2166  0.0035
  162POPC   C2B 2435   5.035   7.545   7.326 -0.0961  0.2867  0.1991
  162POPC   C3B 2436   4.909   7.445   6.845  0.2182  0.2028 -0.0795
  162POPC   C4B 2437   4.966   7.344   6.418 -0.1059 -0.2026  0.1634
  163POPC   NC3 2438   0.525   5.439   9.442 -0.0623  0.1075 -0.3036
  163POPC   PO4 2439   0.226   5.580   9.547  0.1382 -0.2509  0.1978
  163POPC   GL1 2440   0.027   5.576   9.206  0.0686  0.1048  0.1432
  163POPC   GL2 2441   0.274   5.298   9.026 -0.1273  0.0592  0.1566
  163POPC   C1A 2442  -0.217   5.461   8.828 -0.2612 -0.0659  0.1579
  163POPC   D2A 2443  -0.162   5.440   8.348 -0.0131  0.0743  0.0640
  163POPC   C3A 2444  -0.180   5.701   8.047 -0.4135 -0.0475  0.2009
  163POPC   C4A 2445  -0.307   6.013   7.782 -0.0754  0.2263  0.3186
  163POPC   C1B 2446   0.244   5.332   8.629 -0.2858 -0.0301 -0.1099
  163POPC   C2B 2447   0.331   5.351   8.190 -0.4481  0.0160  0.3982
  163POPC   C3B 2448   0.511   5.493   7.759 -0.0362  0.0792 -0.3155
  163POPC   C4B 2449   0.803   5.606   7.362  0.0345  0.1645  0.0826
  164POPC   NC3 2450   3.097   3.457   8.723  0.1623  0.1008  0.1594
  164POPC   PO4 2451   3.484   3.235   8.708 -0.1207  0.1629  0.0041
  164POPC   GL1 2452   3.618   3.391   8.449  0.3097 -0.2181  0.3288
  164POPC   GL2 2453   3.381   3.499   8.252 -0.0573 -0.1109 -0.1969
  164POPC   C1A 2454   3.826   3.633   8.052  0.0687 -0.0753  0.2853
  164POPC   D2A 2455   3.932   3.388   7.638 -0.2516  0.0136  0.1877
  164POPC   C3A 2456   3.648   3.172   7.318  0.0768 -0.1678  0.1961
  164POPC   C4A 2457   3.398   2.804   7.141 -0.1356  0.6111 -0.1130
  164POPC   C1B 2458   3.234   3.491   7.851 -0.1491  0.2395 -0.0335
  164POPC   C2B 2459   3.173   3.615   7.465  0.1509  0.0330  0.0745
  164POPC   C3B 2460   2.805   3.697   7.135  0.2009 -0.0202  0.1744
  164POPC   C4B 2461   2.771   4.037   6.901  0.0710 -0.2413  0.0873
  165POPC   NC3 2462   0.223   1.984   8.719 -0.1328  0.0004 -0.0962
  165POPC   PO4 2463   0.062   1.624   8.813  0.3517  0.2557 -0.2322
  165POPC   GL1 2464   0.368   1.595   8.403  0.0230 -0.0309 -0.2701
  165POPC   GL2 2465   0.527   1.908   8.322  0.1414 -0.4438  0.1493
  165POPC   C1A 2466   0.503   1.251   8.000 -0.0084  0.0316  0.0722
  165POPC   D2A 2467   0.650   1.109   7.633  0.0686 -0.3685  0.0806
  165POPC   C3A 2468   0.808   0.827   7.328  0.0103 -0.0605  0.1216
  165POPC   C4A 2469   0.819   0.934   6.939 -0.2420  0.2297 -0.2341
  165POPC   C1B 2470   0.788   1.704   8.040 -0.0817 -0.1968  0.0336
  165POPC   C2B 2471   0.757   1.636   7.582  0.3471 -0.1903 -0.3240
  165POPC   C3B 2472   0.545   1.931   7.342  0.2479  0.0876 -0.4424
  165POPC   C4B 2473   0.536   2.376   7.261 -0.0120  0.0347  0.0884
  166POPC   NC3 2474   8.133   4.295   8.723  0.0509  0.2552 -0.2943
  166POPC   PO4 2475   7.708   4.142   8.766  0.0033  0.0024  0.1128
  166POPC   GL1 2476   7.538   4.458   8.467 -0.2893 -0.0362  0.1001
  166POPC   GL2 2477   7.256   4.570   8.424 -0.0561  0.0128  0.2204
  166POPC   C1A 2478   7.681   4.634   8.072 -0.0315  0.0781 -0.0800
  166POPC   D2A 2479   8.041   4.574   7.825  0.0997 -0.3419  0.1292
  166POPC   C3A 2480   8.102   4.370   7.455 -0.1065  0.1691  0.0911
  166POPC   C4A 2481   8.405   4.427   7.126  0.0063  0.1180 -0.1912
  166POPC   C1B 2482   7.134   4.449   7.981 -0.0489  0.0503  0.0715
  166POPC   C2B 2483   7.092   4.322   7.516 -0.0597  0.2297 -0.1705
  166POPC   C3B 2484   7.239   4.410   7.055  0.2014 -0.0206  0.0188
  166POPC   C4B 2485   7.606   4.510   6.850  0.1826 -0.3859  0.0408
  167POPC   NC3 2486   8.713   4.907   9.226 -0.1810 -0.2138  0.1041
  167POPC   PO4 2487   9.002   4.585   9.323  0.1249  0.2850 -0.0443
  167POPC   GL1 2488   9.085   4.640   8.784  0.1803  0.0984 -0.0471
  167POPC   GL2 2489   8.879   4.864   8.599  0.2622 -0.3671 -0.0260
  167POPC   C1A 2490   9.312   4.602   8.438  0.0613  0.0756 -0.0372
  167POPC   D2A 2491   9.167   4.647   7.994 -0.0751  0.0532 -0.1195
  167POPC   C3A 2492   9.093   4.395   7.643 -0.0176 -0.0327  0.2188
  167POPC   C4A 2493   9.236   3.995   7.784  0.0942  0.0692 -0.0881
  167POPC   C1B 2494   8.703   4.793   8.266  0.0058  0.2063  0.4074
  167POPC   C2B 2495   8.639   4.738   7.805 -0.1958 -0.2632  0.0506
  167POPC   C3B 2496   8.535   4.833   7.391 -0.2080  0.0155 -0.0969
  167POPC   C4B 2497   8.366   4.908   7.078 -0.0356 -0.1143 -0.2619
  168POPC   NC3 2498   6.249  10.043   4.439  0.3628 -0.4694 -0.1596
  168POPC   PO4 2499   5.897   9.957   4.628  0.3189 -0.1213  0.1137
  168POPC   GL1 2500   5.689  10.134   5.043  0.1975 -0.0046  0.0273
  168POPC   GL2 2501   5.728  10.532   5.090 -0.2585  0.2493 -0.0171
  168POPC   C1A 2502   5.412   9.830   5.336 -0.1263  0.0414  0.2481
  168POPC   D2A 2503   5.506   9.781   5.697  0.0386 -0.1633 -0.2880
  168POPC   C3A 2504   5.546   9.458   6.068 -0.1371  0.1474  0.1650
  168POPC   C4A 2505   5.555   9.200   6.428 -0.0410 -0.0149  0.0548
  168POPC   C1B 2506   5.981  10.637   5.545 -0.0703  0.0933 -0.2766
  168POPC   C2B 2507   5.957  10.653   5.993  0.0289 -0.1888 -0.0609
  168POPC   C3B 2508   5.805  10.470   6.362 -0.0128 -0.6415  0.1742
  168POPC   C4B 2509   5.876  10.144   6.642  0.0041 -0.1781  0.0946
  169POPC   NC3 2510   6.726   1.732   5.097  0.2106 -0.3206  0.0603
  169POPC   PO4 2511   6.744   2.251   5.121  0.5742 -0.0836 -0.3699
  169POPC   GL1 2512   6.747   2.526   5.584  0.0417  0.0852 -0.1541
  169POPC   GL2 2513   6.478   2.662   5.810  0.3537  0.0684 -0.2831
  169POPC   C1A 2514   6.990   2.759   5.916 -0.2878 -0.2285 -0.1661
  169POPC   D2A 2515   7.152   2.589   6.275  0.5224  0.0606 -0.4252
  169POPC   C3A 2516   6.824   2.208   6.493  0.0148 -0.0625  0.0236
  169POPC   C4A 2517   6.602   1.883   6.596  0.1178 -0.0150 -0.0079
  169POPC   C1B 2518   6.602   2.564   6.230 -0.1088  0.3101 -0.2477
  169POPC   C2B 2519   6.801   2.655   6.739 -0.2728 -0.2562  0.0536
  169POPC   C3B 2520   7.017   2.680   7.173 -0.2362  0.0685 -0.1612
  169POPC   C4B 2521   7.085   2.918   7.546  0.2567 -0.0059  0.3123
  170POPC   NC3 2522   7.223  10.110   5.202 -0.0947 -0.0211  0.0050
  170POPC   PO4 2523   7.496  10.413   5.105  0.1357  0.0127 -0.1806
  170POPC   GL1 2524   7.744  10.108   5.371  0.2185 -0.0211 -0.1680
  170POPC   GL2 2525   7.566  10.371   5.630 -0.3346 -0.1718  0.3896
  170POPC   C1A 2526   7.850  10.017   5.747  0.2074  0.1569 -0.0439
  170POPC   D2A 2527   7.924  10.009   6.209 -0.3951 -0.0043  0.4645
  170POPC   C3A 2528   7.832   9.694   6.437  0.1409  0.1013  0.4601
  170POPC   C4A 2529   7.772   9.463   6.864 -0.2035 -0.0305  0.0726
  170POPC   C1B 2530   7.424  10.338   6.120 -0.0803 -0.3121  0.0747
  170POPC   C2B 2531   7.448  10.065   6.485 -0.1061  0.1696  0.1015
  170POPC   C3B 2532   7.354   9.828   6.870 -0.2484 -0.3970 -0.0921
  170POPC   C4B 2533   6.993   9.702   7.109 -0.0618  0.0424 -0.2365
  171POPC   NC3 2534   4.500   1.967   4.756 -0.2385  0.0876 -0.0378
  171POPC   PO4 2535   4.057   1.920   5.077 -0.0099  0.3215 -0.0165
  171POPC   GL1 2536   3.833   1.932   5.428  0.1159 -0.1105 -0.2985
  171POPC   GL2 2537   3.595   1.672   5.622  0.0148  0.0038 -0.2056
  171POPC   C1A 2538   3.578   2.191   5.759  0.2894 -0.1645  0.0726
  171POPC   D2A 2539   3.309   2.372   5.930 -0.1791 -0.0554 -0.2999
  171POPC   C3A 2540   3.252   2.177   6.337  0.0078  0.1391 -0.1535
  171POPC   C4A 2541   3.210   2.136   6.798 -0.2278 -0.1786 -0.0330
  171POPC   C1B 2542   3.596   1.767   6.040 -0.1969 -0.0761  0.0926
  171POPC   C2B 2543   3.389   1.599   6.390  0.1008 -0.0480  0.3278
  171POPC   C3B 2544   3.006   1.471   6.564 -0.0781 -0.0864 -0.1033
  171POPC   C4B 2545   2.696   1.513   6.967  0.3498 -0.0339 -0.4164
  172POPC   NC3 2546   9.438   5.993   4.930  0.2640  0.0375 -0.0806
  172POPC   PO4 2547   9.188   6.213   4.721 -0.2119 -0.2078 -0.0841
  172POPC   GL1 2548   9.216   6.479   5.011 -0.3116  0.0947  0.3050
  172POPC   GL2 2549   9.009   6.661   5.066 -0.0676 -0.0895 -0.0854
  172POPC   C1A 2550   9.329   6.558   5.471  0.1205 -0.1487  0.3109
  172POPC   D2A 2551   9.388   6.589   5.899 -0.0601 -0.1238  0.1959
  172POPC   C3A 2552   9.176   6.870   6.299  0.1193  0.0352 -0.0111
  172POPC   C4A 2553   9.146   7.334   6.323  0.2189 -0.0459 -0.1114
  172POPC   C1B 2554   8.924   6.797   5.541  0.1206 -0.0976 -0.2744
  172POPC   C2B 2555   8.884   6.559   5.986 -0.0252 -0.2590  0.2343
  172POPC   C3B 2556   9.102   6.286   6.159  0.1642  0.1490 -0.1129
  172POPC   C4B 2557   9.438   6.425   6.404 -0.1302  0.1215  0.0326
  173POPC   NC3 2558   4.059   3.086   5.166  0.1405  0.0800  0.2563
  173POPC   PO4 2559   4.265   2.666   5.153  0.0628  0.1346 -0.0507
  173POPC   GL1 2560   4.358   2.667   5.528 -0.1917  0.2128 -0.0759
  173POPC   GL2 2561   4.192   2.867   5.647 -0.0485 -0.0273  0.1943
  173POPC   C1A 2562   4.441   2.580   5.945 -0.1432  0.2896  0.1007
  173POPC   D2A 2563   4.160   2.640   6.304 -0.2627  0.0053  0.0049
  173POPC   C3A 2564   4.317   2.285   6.671  0.1110 -0.1416 -0.2807
  173POPC   C4A 2565   4.074   2.102   7.042  0.0620 -0.1799  0.2260
  173POPC   C1B 2566   3.910   2.550   5.899  0.1164  0.2108 -0.1067
  173POPC   C2B 2567   3.703   2.597   6.284 -0.2059 -0.2400  0.0376
  173POPC   C3B 2568   3.871   2.632   6.661 -0.0622 -0.0861  0.2748
  173POPC   C4B 2569   3.908   2.923   6.961  0.0366  0.2553  0.0635
  174POPC   NC3 2570   8.819   9.956   4.559 -0.1392  0.2158  0.1208
  174POPC   PO4 2571   9.219  10.126   4.715  0.4765  0.0981 -0.4116
  174POPC   GL1 2572   9.178   9.739   5.034 -0.2567 -0.0343  0.1141
  174POPC   GL2 2573   9.085   9.499   4.870 -0.2127 -0.1447  0.5254
  174POPC   C1A 2574   9.295   9.697   5.484  0.0603  0.0008  0.0964
  174POPC   D2A 2575   9.596   9.448   5.645 -0.4381 -0.2312  0.1545
  174POPC   C3A 2576   9.509   9.054   5.787  0.1540  0.1827  0.0867
  174POPC   C4A 2577   9.456   8.665   5.676  0.2660 -0.1405  0.0173
  174POPC   C1B 2578   9.271   9.270   5.221 -0.0481  0.0140 -0.5390
  174POPC   C2B 2579   9.558   9.045   5.291  0.0556 -0.0808  0.1059
  174POPC   C3B 2580   9.946   9.060   5.072  0.0420  0.0922 -0.1212
  174POPC   C4B 2581  10.007   8.884   4.707  0.1203 -0.2064  0.4226
  175POPC   NC3 2582   5.548   3.589   4.741 -0.1379  0.0145  0.1440
  175POPC   PO4 2583   5.507   3.362   5.136  0.3722 -0.0096 -0.1982
  175POPC   GL1 2584   5.581   3.037   5.462  0.1459  0.1556  0.4305
  175POPC   GL2 2585   5.438   2.829   5.711 -0.0592  0.1236 -0.0782
  175POPC   C1A 2586   5.677   3.215   5.926 -0.1814  0.1920 -0.2610
  175POPC   D2A 2587   5.740   3.151   6.322 -0.1704 -0.0834 -0.0721
  175POPC   C3A 2588   5.447   3.109   6.699  0.3465  0.0733 -0.0437
  175POPC   C4A 2589   5.607   2.990   7.020 -0.1401 -0.2744  0.3673
  175POPC   C1B 2590   5.612   2.733   6.083  0.1585 -0.2801  0.2072
  175POPC   C2B 2591   5.665   2.688   6.566 -0.2176 -0.0882  0.0630
  175POPC   C3B 2592   5.736   2.532   7.022 -0.0272 -0.2929  0.0054
  175POPC   C4B 2593   5.914   2.112   7.215  0.0217  0.0157  0.3723
  176POPC   NC3 2594  10.173   5.937   4.475  0.0059 -0.0252  0.1713
  176POPC   PO4 2595   9.955   6.007   4.915 -0.2990 -0.0410  0.2017
  176POPC   GL1 2596  10.017   6.197   5.305  0.0538 -0.2248 -0.0995
  176POPC   GL2 2597  10.318   5.999   5.330  0.1192 -0.3629  0.2083
  176POPC   C1A 2598  10.031   6.331   5.687 -0.2039  0.2234  0.0422
  176POPC   D2A 2599  10.289   6.515   5.955 -0.1736 -0.1694 -0.0500
  176POPC   C3A 2600  10.603   6.607   6.233  0.2583  0.3210 -0.0781
  176POPC   C4A 2601  10.903   6.533   6.494 -0.0351 -0.1230 -0.2199
  176POPC   C1B 2602   9.998   5.787   5.595 -0.0152 -0.0143  0.2119
  176POPC   C2B 2603  10.027   5.771   6.047  0.1683 -0.1249  0.3690
  176POPC   C3B 2604  10.249   5.742   6.375 -0.0935  0.0331 -0.3307
  176POPC   C4B 2605  10.124   5.898   6.689  0.2562  0.3744 -0.0561
  177POPC   NC3 2606   2.416   9.704   3.490 -0.3512  0.0620  0.0589
  177POPC   PO4 2607   2.531   9.887   3.830 -0.1645  0.0351  0.0808
  177POPC   GL1 2608   2.466   9.729   4.204  0.1045  0.0917  0.2802
  177POPC   GL2 2609   2.767   9.448   4.358  0.0249  0.2535  0.0867
  177POPC   C1A 2610   2.386   9.549   4.680 -0.1581 -0.2722 -0.0448
  177POPC   D2A 2611   2.406   9.346   5.057 -0.0400  0.2660  0.1016
  177POPC   C3A 2612   2.806   9.307   5.322 -0.1693  0.3717  0.0363
  177POPC   C4A 2613   2.799   8.945   5.545  0.1281  0.0217 -0.4242
  177POPC   C1B 2614   2.909   9.388   4.790  0.1820  0.0280  0.2481
  177POPC   C2B 2615   3.149   9.200   4.946  0.1083 -0.0568 -0.0922
  177POPC   C3B 2616   3.197   9.062   5.251 -0.0607 -0.1393 -0.1743
  177POPC   C4B 2617   3.299   8.759   5.601  0.1326  0.0505 -0.0567
  178POPC   NC3 2618   6.667   5.650   5.020 -0.1325  0.4621  0.0014
  178POPC   PO4 2619   6.968   5.884   5.005 -0.3022  0.2948  0.0124
  178POPC   GL1 2620   6.953   5.594   5.466 -0.0937  0.2540 -0.1555
  178POPC   GL2 2621   7.322   5.445   5.535  0.2177  0.0323  0.4087
  178POPC   C1A 2622   6.989   5.637   5.981 -0.0286  0.0311 -0.0350
  178POPC   D2A 2623   7.299   5.727   6.298  0.1126 -0.0642  0.0358
  178POPC   C3A 2624   7.447   6.143   6.209  0.2412 -0.2470  0.1736
  178POPC   C4A 2625   7.384   6.555   5.999  0.1983 -0.2453  0.2553
  178POPC   C1B 2626   7.201   5.077   5.801  0.0106 -0.1962 -0.0655
  178POPC   C2B 2627   7.158   5.196   6.197 -0.4088  0.1743  0.0385
  178POPC   C3B 2628   6.932   5.364   6.469 -0.1446 -0.0843 -0.0112
  178POPC   C4B 2629   6.535   5.566   6.796  0.1733 -0.1469  0.0508
  179POPC   NC3 2630   9.442   1.459   4.677  0.1110  0.0934  0.0314
  179POPC   PO4 2631   9.412   1.091   4.677  0.0949 -0.1083 -0.1984
  179POPC   GL1 2632   9.563   1.144   5.184  0.1589 -0.1160  0.0217
  179POPC   GL2 2633   9.366   1.009   5.365  0.2437 -0.0697 -0.3706
  179POPC   C1A 2634   9.771   0.757   5.500 -0.1460 -0.3140 -0.0759
  179POPC   D2A 2635   9.910   0.471   5.762 -0.0807 -0.0525 -0.1201
  179POPC   C3A 2636  10.270   0.223   6.039 -0.1246 -0.2606 -0.1517
  179POPC   C4A 2637  10.486  -0.150   6.252  0.4405 -0.1427  0.0558
  179POPC   C1B 2638   9.316   0.757   5.716  0.0571 -0.2364  0.0430
  179POPC   C2B 2639   9.203   0.801   6.188  0.0259  0.0817 -0.2086
  179POPC   C3B 2640   9.406   0.643   6.504  0.2442 -0.4301 -0.1146
  179POPC   C4B 2641   9.527   0.549   6.881  0.0039 -0.1247  0.2384
  180POPC   NC3 2642   7.287   7.064   4.510  0.1809  0.0608  0.1567
  180POPC   PO4 2643   7.242   7.329   4.955 -0.2285 -0.0548 -0.0481
  180POPC   GL1 2644   7.041   7.418   5.335 -0.3250  0.0385  0.1915
  180POPC   GL2 2645   6.782   7.674   5.425 -0.2963  0.1248 -0.1790
  180POPC   C1A 2646   7.089   7.290   5.764  0.2881 -0.0158 -0.3086
  180POPC   D2A 2647   7.060   7.116   6.120  0.0265 -0.0001  0.2046
  180POPC   C3A 2648   7.191   6.960   6.539  0.2185  0.0268 -0.0498
  180POPC   C4A 2649   7.027   6.838   6.940  0.3065  0.1226  0.1084
  180POPC   C1B 2650   6.705   8.151   5.763 -0.0245  0.1653 -0.0871
  180POPC   C2B 2651   6.802   8.087   6.212 -0.0029  0.1286 -0.0461
  180POPC   C3B 2652   6.623   7.899   6.653  0.0192  0.1226  0.2204
  180POPC   C4B 2653   6.427   7.676   6.990 -0.3866  0.1265  0.2284
  181POPC   NC3 2654   8.256   9.272   4.586  0.1992 -0.0681  0.1275
  181POPC   PO4 2655   8.439   9.629   4.668 -0.1201 -0.3624  0.0617
  181POPC   GL1 2656   8.628   9.681   5.080  0.0655  0.2724  0.0170
  181POPC   GL2 2657   8.691   9.921   5.082 -0.1709  0.0907 -0.0762
  181POPC   C1A 2658   8.709   9.295   5.358  0.0263 -0.0087 -0.0075
  181POPC   D2A 2659   8.991   9.396   5.692 -0.1693  0.3315  0.0579
  181POPC   C3A 2660   8.762   9.330   6.099  0.1378  0.2532 -0.2135
  181POPC   C4A 2661   8.603   9.176   6.516 -0.0215 -0.3070 -0.1841
  181POPC   C1B 2662   8.824   9.854   5.535  0.0452  0.1443  0.2741
  181POPC   C2B 2663   8.934   9.831   5.961 -0.1325 -0.0236 -0.0684
  181POPC   C3B 2664   8.937   9.716   6.447 -0.0166 -0.0492 -0.0107
  181POPC   C4B 2665   8.764   9.874   6.798  0.1716 -0.0202  0.0977
  182POPC   NC3 2666   7.651   5.213   5.267 -0.3664  0.2280 -0.1779
  182POPC   PO4 2667   7.895   4.774   5.267  0.1705  0.2829 -0.0672
  182POPC   GL1 2668   8.135   4.594   5.717  0.1380 -0.3850 -0.1507
  182POPC   GL2 2669   7.816   4.391   5.841 -0.2629 -0.1166 -0.2753
  182POPC   C1A 2670   8.383   4.759   6.193 -0.0804 -0.2263 -0.1255
  182POPC   D2A 2671   8.682   5.003   6.313  0.1831  0.3134  0.2345
  182POPC   C3A 2672   8.639   5.231   6.640 -0.1958  0.4106  0.3563
  182POPC   C4A 2673   8.275   5.362   6.844  0.0337  0.2302 -0.0284
  182POPC   C1B 2674   7.961   4.286   6.353  0.1176  0.0571  0.2912
  182POPC   C2B 2675   7.913   4.115   6.815 -0.0065 -0.3303 -0.0007
  182POPC   C3B 2676   8.141   3.927   7.180  0.1231  0.0559  0.0832
  182POPC   C4B 2677   8.417   3.893   7.472 -0.3213 -0.3253 -0.3586
  183POPC   NC3 2678   1.721   1.469   4.741  0.0970  0.1522 -0.2996
  183POPC   PO4 2679   1.384   1.293   4.600  0.1853 -0.0351  0.0250
  183POPC   GL1 2680   1.560   0.967   4.944  0.1291 -0.0722 -0.2844
  183POPC   GL2 2681   1.304   0.800   4.899  0.0863 -0.0604 -0.2670
  183POPC   C1A 2682   1.601   0.885   5.346 -0.2577 -0.2520 -0.1435
  183POPC   D2A 2683   1.543   0.635   5.837  0.1025 -0.1027 -0.0210
  183POPC   C3A 2684   1.296   0.810   6.236  0.0083  0.0128  0.1539
  183POPC   C4A 2685   0.970   0.979   6.384 -0.0606 -0.1419 -0.4835
  183POPC   C1B 2686   1.282   0.552   5.313 -0.0947  0.3144  0.3192
  183POPC   C2B 2687   1.023   0.117   5.271  0.1918 -0.1254 -0.1328
  183POPC   C3B 2688   1.222  -0.192   5.284 -0.5505  0.0145  0.0202
  183POPC   C4B 2689   1.144  -0.680   5.332 -0.2285 -0.4056 -0.0571
  184POPC   NC3 2690   0.563   9.751   3.525 -0.2096 -0.2106 -0.1480
  184POPC   PO4 2691   0.957  10.040   3.545 -0.0677  0.1451 -0.1070
  184POPC   GL1 2692   1.068  10.113   3.995 -0.4967 -0.1657  0.0200
  184POPC   GL2 2693   0.933  10.345   4.239  0.0211 -0.1017 -0.0673
  184POPC   C1A 2694   1.052   9.864   4.403 -0.2086 -0.1577  0.0940
  184POPC   D2A 2695   1.084   9.498   4.579 -0.2218 -0.0249 -0.0085
  184POPC   C3A 2696   1.476   9.329   4.659 -0.3401  0.0704  0.1697
  184POPC   C4A 2697   1.959   9.153   4.728  0.2027  0.0738  0.1280
  184POPC   C1B 2698   1.288  10.283   4.535 -0.4370  0.1837  0.0802
  184POPC   C2B 2699   1.728  10.312   4.837 -0.1005  0.0005  0.0383
  184POPC   C3B 2700   1.962  10.292   5.144 -0.0540 -0.3007 -0.1874
  184POPC   C4B 2701   1.846  10.305   5.504 -0.0286 -0.0962 -0.3797
  185POPC   NC3 2702   6.628   8.407   4.662  0.0743  0.0091 -0.0465
  185POPC   PO4 2703   6.684   8.068   5.120  0.0527 -0.1296  0.2141
  185POPC   GL1 2704   6.301   7.983   5.459  0.0965 -0.1828 -0.0571
  185POPC   GL2 2705   6.125   8.297   5.575 -0.4547 -0.0177  0.3970
  185POPC   C1A 2706   5.964   7.886   5.679 -0.0511 -0.0511  0.1009
  185POPC   D2A 2707   5.865   7.445   5.803  0.1768 -0.0042  0.0785
  185POPC   C3A 2708   6.173   7.222   6.061 -0.1198  0.1144 -0.2787
  185POPC   C4A 2709   6.569   7.143   6.141 -0.0245  0.0339 -0.0741
  185POPC   C1B 2710   5.956   8.689   5.665  0.1703  0.3193  0.1360
  185POPC   C2B 2711   6.014   8.968   5.910  0.2658 -0.2081 -0.2618
  185POPC   C3B 2712   6.028   9.364   6.114 -0.1663  0.1129 -0.0619
  185POPC   C4B 2713   6.119   9.419   6.478 -0.2517  0.0070 -0.2561
  186POPC   NC3 2714   9.139   0.729   4.958 -0.0620 -0.1183  0.2598
  186POPC   PO4 2715   9.066   0.245   4.932 -0.0988 -0.0076 -0.2143
  186POPC   GL1 2716   9.358  -0.031   5.103  0.0214 -0.0884 -0.1281
  186POPC   GL2 2717   9.152  -0.226   5.178 -0.1543 -0.2199 -0.1995
  186POPC   C1A 2718   9.646  -0.094   5.548  0.4708 -0.1291  0.0501
  186POPC   D2A 2719   9.719  -0.073   5.984 -0.2720 -0.1429 -0.1006
  186POPC   C3A 2720   9.716   0.360   6.215 -0.1802 -0.1455  0.1494
  186POPC   C4A 2721  10.007   0.618   6.450 -0.1496  0.1869 -0.2305
  186POPC   C1B 2722   9.204  -0.235   5.622 -0.0515 -0.2215  0.0724
  186POPC   C2B 2723   9.493  -0.519   5.906  0.0610 -0.1422  0.2906
  186POPC   C3B 2724   9.792  -0.871   6.147 -0.0565  0.1824 -0.1566
  186POPC   C4B 2725   9.941  -1.327   6.080  0.0102  0.0686  0.2787
  187POPC   NC3 2726   5.814   5.978   4.889 -0.2428  0.1283  0.0022
  187POPC   PO4 2727   6.256   6.011   5.167  0.4293  0.1068  0.1949
  187POPC   GL1 2728   6.179   6.085   5.482 -0.2199 -0.2731 -0.1679
  187POPC   GL2 2729   6.312   6.414   5.482  0.0727  0.0667  0.2831
  187POPC   C1A 2730   6.006   6.234   5.854 -0.0376 -0.0376  0.1485
  187POPC   D2A 2731   5.881   6.474   6.131  0.1866  0.2622 -0.0618
  187POPC   C3A 2732   5.467   6.622   5.946  0.1169  0.0396 -0.2023
  187POPC   C4A 2733   5.425   6.834   5.552 -0.3363 -0.0685  0.0361
  187POPC   C1B 2734   6.490   6.200   5.846  0.2287 -0.0486  0.1731
  187POPC   C2B 2735   6.370   6.275   6.332  0.1806  0.3651 -0.0808
  187POPC   C3B 2736   6.207   6.023   6.566 -0.0339 -0.2264  0.0803
  187POPC   C4B 2737   6.207   5.900   7.002 -0.2517 -0.1991 -0.0838
  188POPC   NC3 2738   5.845   8.003   4.735  0.2264 -0.0834 -0.1095
  188POPC   PO4 2739   5.797   8.477   4.843  0.0274 -0.0361 -0.0430
  188POPC   GL1 2740   5.619   8.547   5.246 -0.1211  0.2051 -0.1739
  188POPC   GL2 2741   5.430   8.256   5.481 -0.0418  0.0658 -0.1559
  188POPC   C1A 2742   5.387   8.868   5.541 -0.0597 -0.2209  0.0699
  188POPC   D2A 2743   5.440   8.966   5.923 -0.0777 -0.2087 -0.0852
  188POPC   C3A 2744   5.619   8.789   6.140  0.0470  0.0012 -0.1958
  188POPC   C4A 2745   5.667   8.750   6.519 -0.0104  0.1546 -0.1538
  188POPC   C1B 2746   5.575   8.356   5.785  0.1094  0.1862  0.2855
  188POPC   C2B 2747   5.907   8.425   6.127  0.1135  0.0800  0.0938
  188POPC   C3B 2748   6.039   8.415   6.509 -0.1459  0.3728  0.0303
  188POPC   C4B 2749   5.849   8.473   6.908 -0.1917 -0.0970  0.0307
  189POPC   NC3 2750   0.305   8.290   3.957  0.0435 -0.3086 -0.1284
  189POPC   PO4 2751   0.121   7.963   3.751 -0.2835 -0.1463  0.0470
  189POPC   GL1 2752   0.200   7.844   4.164  0.2702 -0.4138 -0.0800
  189POPC   GL2 2753   0.094   7.530   4.496 -0.2636 -0.0487  0.0694
  189POPC   C1A 2754   0.363   7.962   4.607 -0.2698 -0.2194 -0.1028
  189POPC   D2A 2755   0.266   8.261   4.966  0.1258  0.0228  0.2620
  189POPC   C3A 2756   0.158   8.577   5.302  0.0976  0.2433 -0.0630
  189POPC   C4A 2757  -0.087   8.755   5.674 -0.3568  0.0489 -0.0282
  189POPC   C1B 2758   0.347   7.528   4.897  0.0082  0.1374 -0.1654
  189POPC   C2B 2759   0.605   7.864   5.110 -0.0680 -0.2487  0.3884
  189POPC   C3B 2760   0.806   8.309   5.005 -0.1290  0.1781  0.0274
  189POPC   C4B 2761   1.191   8.508   4.760 -0.1862 -0.0677 -0.1464
  190POPC   NC3 2762   4.446   7.701   4.193 -0.1780 -0.0560 -0.1741
  190POPC   PO4 2763   3.970   7.884   4.237 -0.2297 -0.1472 -0.0131
  190POPC   GL1 2764   3.611   7.979   4.503 -0.0324  0.0097  0.2082
  190POPC   GL2 2765   3.602   7.684   4.771  0.1220 -0.1142 -0.3114
  190POPC   C1A 2766   3.345   8.346   4.499 -0.1867  0.2332 -0.1944
  190POPC   D2A 2767   3.533   8.703   4.459 -0.0156  0.0420  0.0650
  190POPC   C3A 2768   3.570   8.992   4.797  0.0353  0.2477  0.0331
  190POPC   C4A 2769   3.573   9.428   4.805  0.0775 -0.3625 -0.1235
  190POPC   C1B 2770   3.468   8.005   5.037  0.1160  0.0718 -0.1894
  190POPC   C2B 2771   3.039   8.058   5.289 -0.1255 -0.2744  0.0118
  190POPC   C3B 2772   3.090   8.228   5.615  0.3955 -0.3185  0.1226
  190POPC   C4B 2773   3.004   8.453   5.998  0.0496 -0.0583 -0.1940
  191POPC   NC3 2774   4.614   6.666   4.973 -0.1159 -0.3736  0.0354
  191POPC   PO4 2775   4.461   6.259   5.040 -0.2518  0.1363  0.3843
  191POPC   GL1 2776   4.670   6.316   5.433 -0.0909 -0.2089  0.3290
  191POPC   GL2 2777   4.678   5.993   5.389 -0.0075 -0.2069  0.1700
  191POPC   C1A 2778   4.358   6.456   5.791 -0.1222 -0.1845  0.1575
  191POPC   D2A 2779   4.333   6.397   6.214  0.1200 -0.1212  0.0583
  191POPC   C3A 2780   4.048   6.268   6.373 -0.2310 -0.0004 -0.0084
  191POPC   C4A 2781   3.682   6.126   6.635 -0.1355  0.2296 -0.0252
  191POPC   C1B 2782   4.586   5.871   5.828 -0.1818 -0.0066 -0.0762
  191POPC   C2B 2783   4.634   5.959   6.329 -0.3817 -0.1156  0.2810
  191POPC   C3B 2784   4.408   6.155   6.685  0.1379 -0.1982 -0.3047
  191POPC   C4B 2785   4.156   5.953   6.965  0.2372  0.1033 -0.2094
  192POPC   NC3 2786   7.212  10.244   4.722 -0.1426 -0.1621 -0.0243
  192POPC   PO4 2787   6.997   9.795   4.738  0.0996 -0.2223 -0.4178
  192POPC   GL1 2788   6.804   9.832   5.121  0.3913  0.0634 -0.1482
  192POPC   GL2 2789   6.655  10.090   5.184  0.1156 -0.5042  0.2723
  192POPC   C1A 2790   6.776   9.642   5.474  0.2501  0.0471  0.5435
  192POPC   D2A 2791   6.774   9.740   5.928  0.2270  0.2127 -0.1155
  192POPC   C3A 2792   6.586   9.738   6.254 -0.1096  0.3093 -0.0683
  192POPC   C4A 2793   6.663   9.410   6.560  0.1027  0.2857  0.2573
  192POPC   C1B 2794   6.468  10.396   5.489  0.2360 -0.1514  0.1137
  192POPC   C2B 2795   6.513  10.732   5.705 -0.2956  0.2993  0.1317
  192POPC   C3B 2796   6.592  10.664   6.180 -0.0920 -0.1867  0.2839
  192POPC   C4B 2797   6.734  10.633   6.655  0.0286  0.1299 -0.3994
  193POPC   NC3 2798   2.147   6.434   4.511 -0.2471 -0.1138  0.2501
  193POPC   PO4 2799   2.499   6.735   4.453  0.1136 -0.1812 -0.3468
  193POPC   GL1 2800   2.512   6.755   4.925 -0.0617  0.0629  0.1255
  193POPC   GL2 2801   2.698   6.537   5.135 -0.2611 -0.1558 -0.3013
  193POPC   C1A 2802   2.190   6.806   5.160 -0.1803 -0.3114 -0.1532
  193POPC   D2A 2803   2.238   7.036   5.625 -0.1197 -0.0934 -0.4566
  193POPC   C3A 2804   2.365   6.748   5.918  0.0591  0.2390 -0.0788
  193POPC   C4A 2805   2.443   6.727   6.253 -0.2044 -0.1832 -0.2090
  193POPC   C1B 2806   2.316   6.455   5.512 -0.1880 -0.3338  0.0157
  193POPC   C2B 2807   1.951   6.156   5.642 -0.4412 -0.0831 -0.0640
  193POPC   C3B 2808   1.664   5.750   5.803  0.0900  0.0116  0.1009
  193POPC   C4B 2809   1.821   5.305   5.876  0.2118 -0.3940  0.2818
  194POPC   NC3 2810   5.469   3.841   5.129 -0.4937 -0.0370  0.0481
  194POPC   PO4 2811   5.929   4.060   5.019 -0.2367 -0.1990  0.1494
  194POPC   GL1 2812   5.931   3.940   5.349 -0.1327  0.1975  0.2446
  194POPC   GL2 2813   6.228   3.879   5.470  0.2178 -0.0620 -0.1148
  194POPC   C1A 2814   5.920   3.784   5.812 -0.3290 -0.1744  0.1801
  194POPC   D2A 2815   6.099   3.489   6.028  0.0601  0.2078  0.0686
  194POPC   C3A 2816   6.489   3.585   6.195  0.0327  0.5094  0.2355
  194POPC   C4A 2817   6.694   3.512   6.503 -0.0276 -0.3593  0.0940
  194POPC   C1B 2818   6.387   3.942   5.850 -0.0896 -0.0038  0.2197
  194POPC   C2B 2819   6.544   4.177   6.194 -0.0791  0.2157 -0.0523
  194POPC   C3B 2820   6.388   4.531   6.520 -0.1361 -0.0621  0.0750
  194POPC   C4B 2821   6.404   4.708   6.939  0.0604 -0.1164  0.1013
  195POPC   NC3 2822   8.490   5.738   4.938  0.2035  0.1593  0.0475
  195POPC   PO4 2823   8.890   5.861   5.038 -0.0305 -0.3311 -0.0233
  195POPC   GL1 2824   9.121   5.920   5.428  0.2710 -0.1641 -0.1123
  195POPC   GL2 2825   8.925   5.808   5.648  0.2794  0.3887  0.1413
  195POPC   C1A 2826   9.439   6.118   5.692 -0.0581  0.1762  0.2972
  195POPC   D2A 2827   9.697   6.174   6.051  0.0317  0.2906 -0.3672
  195POPC   C3A 2828  10.008   6.301   6.341  0.2829 -0.1248  0.0324
  195POPC   C4A 2829   9.791   6.348   6.798  0.2966 -0.1940  0.2416
  195POPC   C1B 2830   9.207   5.727   5.950  0.0982  0.1092  0.3161
  195POPC   C2B 2831   9.422   5.902   6.419  0.2906 -0.0454  0.1198
  195POPC   C3B 2832   9.546   5.913   6.769 -0.3869 -0.1912  0.1509
  195POPC   C4B 2833   9.408   6.128   7.141  0.2036 -0.1312 -0.0442
  196POPC   NC3 2834   3.481   7.593   3.589  0.0045  0.0454 -0.1243
  196POPC   PO4 2835   3.237   7.394   3.974  0.3575 -0.3017 -0.1039
  196POPC   GL1 2836   3.028   7.564   4.333  0.0234  0.1801  0.0362
  196POPC   GL2 2837   2.755   7.497   4.557  0.3221 -0.0267  0.0613
  196POPC   C1A 2838   3.104   7.902   4.675 -0.0958 -0.1832  0.1163
  196POPC   D2A 2839   2.974   8.214   4.852  0.1176  0.0202  0.0340
  196POPC   C3A 2840   2.635   8.325   4.775  0.1102 -0.0420  0.2336
  196POPC   C4A 2841   2.363   8.032   4.478  0.3136  0.2758  0.1436
  196POPC   C1B 2842   2.571   7.763   4.904  0.0384 -0.0356 -0.0880
  196POPC   C2B 2843   2.557   7.970   5.284 -0.1784 -0.0103  0.2928
  196POPC   C3B 2844   2.626   8.068   5.705 -0.2060  0.1419 -0.2099
  196POPC   C4B 2845   2.567   7.890   6.008 -0.0508  0.0398 -0.2149
  197POPC   NC3 2846   0.372   6.320   4.312  0.0428 -0.2860 -0.1523
  197POPC   PO4 2847   0.067   6.233   4.567 -0.2361 -0.1095  0.4180
  197POPC   GL1 2848  -0.091   6.308   4.941  0.0477  0.3939 -0.0182
  197POPC   GL2 2849  -0.226   6.629   5.028  0.0915 -0.0035  0.0733
  197POPC   C1A 2850   0.025   6.477   5.407  0.0261 -0.0883  0.1132
  197POPC   D2A 2851  -0.144   6.827   5.492 -0.1532 -0.3857 -0.2185
  197POPC   C3A 2852  -0.107   7.021   5.964  0.2523 -0.1265 -0.1012
  197POPC   C4A 2853   0.014   7.452   6.188 -0.0716  0.3619  0.1898
  197POPC   C1B 2854  -0.642   6.679   5.369 -0.4302  0.1278  0.0106
  197POPC   C2B 2855  -0.604   6.786   5.814 -0.2629 -0.1351  0.0838
  197POPC   C3B 2856  -0.712   6.805   6.273 -0.0194  0.2091  0.0036
  197POPC   C4B 2857  -0.972   6.805   6.662  0.1696  0.0398 -0.1737
  198POPC   NC3 2858   1.203   4.952   4.880  0.0899 -0.3067 -0.0142
  198POPC   PO4 2859   1.066   5.356   4.830 -0.3525 -0.2834  0.0027
  198POPC   GL1 2860   0.995   5.679   5.190  0.1006  0.1991  0.1488
  198POPC   GL2 2861   1.131   5.722   5.484  0.0196 -0.1364  0.0131
  198POPC   C1A 2862   0.775   6.052   5.417  0.2810 -0.1513 -0.1636
  198POPC   D2A 2863   0.775   6.172   5.784 -0.1417  0.2839 -0.0437
  198POPC   C3A 2864   0.615   6.234   6.178 -0.1037  0.0862 -0.0164
  198POPC   C4A 2865   0.552   6.033   6.623  0.2678 -0.2627 -0.1481
  198POPC   C1B 2866   1.006   5.732   5.828 -0.0793 -0.0065 -0.0410
  198POPC   C2B 2867   1.186   5.897   6.234 -0.0171 -0.3124  0.2001
  198POPC   C3B 2868   1.103   6.177   6.549 -0.0804  0.1875  0.3248
  198POPC   C4B 2869   1.325   6.348   6.860 -0.0960  0.1078  0.0654
  199POPC   NC3 2870   8.653   7.835   4.452  0.0542  0.0517 -0.1687
  199POPC   PO4 2871   8.908   8.102   4.434 -0.1017  0.0919 -0.0900
  199POPC   GL1 2872   9.146   8.341   4.839 -0.1724 -0.0692  0.1496
  199POPC   GL2 2873   9.427   8.674   4.824 -0.3093  0.3491  0.0298
  199POPC   C1A 2874   9.293   8.288   5.291 -0.4319 -0.1368 -0.2618
  199POPC   D2A 2875   9.158   8.286   5.754  0.1305 -0.1163  0.4721
  199POPC   C3A 2876   9.545   8.271   5.947 -0.2236 -0.0713 -0.0432
  199POPC   C4A 2877   9.796   7.913   6.014  0.0554  0.2300  0.1758
  199POPC   C1B 2878   9.482   9.145   4.785 -0.3934 -0.2638  0.0804
  199POPC   C2B 2879   9.636   9.504   5.032 -0.2747 -0.2994 -0.2198
  199POPC   C3B 2880   9.659   9.911   5.183  0.1903 -0.0883 -0.2540
  199POPC   C4B 2881   9.867   9.882   5.541  0.2434 -0.0500 -0.1506
  200POPC   NC3 2882   7.037   3.985   4.549  0.3364  0.2206  0.2615
  200POPC   PO4 2883   6.818   4.267   4.824 -0.0564  0.0778  0.2019
  200POPC   GL1 2884   6.519   4.325   5.081  0.1625  0.1011 -0.1300
  200POPC   GL2 2885   6.410   4.694   5.155 -0.1334 -0.3022  0.0455
  200POPC   C1A 2886   6.591   4.364   5.521  0.0320 -0.0515 -0.2162
  200POPC   D2A 2887   6.901   4.281   5.854  0.1116 -0.3747 -0.1589
  200POPC   C3A 2888   6.902   4.603   6.061  0.0368  0.0116 -0.1884
  200POPC   C4A 2889   6.740   4.894   6.432  0.2591  0.2573 -0.2631
  200POPC   C1B 2890   6.352   4.910   5.585  0.2691 -0.0394 -0.1152
  200POPC   C2B 2891   6.185   5.197   5.809  0.1069 -0.1827  0.0263
  200POPC   C3B 2892   5.920   5.350   6.167 -0.0367  0.1153 -0.0488
  200POPC   C4B 2893   6.003   5.538   6.576  0.3147 -0.0647  0.2666
  201POPC   NC3 2894   4.705   2.744   5.223 -0.2975  0.0918  0.0168
  201POPC   PO4 2895   5.071   2.425   5.166  0.0796  0.2587 -0.0088
  201POPC   GL1 2896   5.170   2.426   5.517 -0.1415 -0.0715 -0.0387
  201POPC   GL2 2897   4.812   2.413   5.579  0.1990 -0.0754  0.2279
  201POPC   C1A 2898   5.061   2.155   5.931  0.0216 -0.2037  0.0943
  201POPC   D2A 2899   4.891   1.755   6.025  0.0577 -0.0404 -0.1080
  201POPC   C3A 2900   5.049   1.386   6.229  0.0434 -0.0301  0.0152
  201POPC   C4A 2901   4.905   1.282   6.533  0.2590  0.0313 -0.1195
  201POPC   C1B 2902   4.485   2.090   5.816 -0.1850 -0.0490  0.0900
  201POPC   C2B 2903   4.101   2.086   5.930  0.3522 -0.1086 -0.0179
  201POPC   C3B 2904   3.892   2.088   6.322 -0.1238 -0.1156 -0.3744
  201POPC   C4B 2905   3.662   2.067   6.552 -0.3162  0.3549  0.1732
  202POPC   NC3 2906   0.016   4.963   4.871 -0.0555  0.1732  0.1157
  202POPC   PO4 2907   0.212   4.998   5.214  0.3174  0.1295  0.1767
  202POPC   GL1 2908   0.099   4.861   5.671 -0.3642  0.0220  0.1593
  202POPC   GL2 2909   0.269   5.051   5.869 -0.0646 -0.1062  0.2498
  202POPC   C1A 2910   0.022   4.577   6.017 -0.0580  0.0668  0.0793
  202POPC   D2A 2911   0.100   4.307   6.368  0.0973 -0.2377 -0.0790
  202POPC   C3A 2912  -0.056   3.895   6.292  0.2341 -0.0018  0.1576
  202POPC   C4A 2913  -0.257   3.591   6.006  0.0794  0.1018 -0.2232
  202POPC   C1B 2914   0.040   5.013   6.284  0.2489 -0.3157 -0.3130
  202POPC   C2B 2915  -0.006   5.235   6.596  0.0201  0.3793  0.1364
  202POPC   C3B 2916  -0.157   5.505   6.960 -0.3017  0.0061  0.2813
  202POPC   C4B 2917  -0.367   5.833   7.200  0.0184  0.1943  0.0851
  203POPC   NC3 2918   1.771   4.251   5.142 -0.1959 -0.2624  0.0707
  203POPC   PO4 2919   2.131   4.521   5.130  0.1473 -0.1061  0.3911
  203POPC   GL1 2920   2.300   4.602   5.502  0.1451  0.1140 -0.0165
  203POPC   GL2 2921   2.663   4.388   5.633 -0.1372 -0.0629  0.0860
  203POPC   C1A 2922   2.102   4.829   5.916  0.2301  0.1146 -0.0958
  203POPC   D2A 2923   1.916   5.041   6.321 -0.1685  0.1168  0.2211
  203POPC   C3A 2924   1.687   5.458   6.327  0.1178 -0.2809 -0.1998
  203POPC   C4A 2925   1.577   5.685   6.691  0.1125  0.4710 -0.0431
  203POPC   C1B 2926   2.860   4.395   5.991  0.1306  0.0402 -0.1379
  203POPC   C2B 2927   2.726   4.562   6.397 -0.1336  0.0081 -0.1883
  203POPC   C3B 2928   2.557   4.455   6.766 -0.1339 -0.0177 -0.0538
  203POPC   C4B 2929   2.374   4.416   7.072  0.1770  0.1734 -0.2069
  204POPC   NC3 2930  10.255   8.285   3.941 -0.1494  0.4429 -0.2482
  204POPC   PO4 2931   9.850   8.567   4.093  0.1716 -0.1441  0.2585
  204POPC   GL1 2932  10.059   8.384   4.401 -0.0719  0.1626 -0.0927
  204POPC   GL2 2933  10.536   8.290   4.421  0.1890 -0.0474  0.0848
  204POPC   C1A 2934  10.226   8.300   4.851 -0.0019 -0.4716  0.0340
  204POPC   D2A 2935  10.139   8.046   5.192  0.1415 -0.2244  0.0062
  204POPC   C3A 2936  10.089   8.282   5.613 -0.0880 -0.0296  0.0075
  204POPC   C4A 2937   9.911   8.725   5.816 -0.0657 -0.1657 -0.0042
  204POPC   C1B 2938  11.007   8.449   4.576 -0.0646  0.0678  0.1029
  204POPC   C2B 2939  11.309   8.826   4.606  0.3241 -0.0768 -0.1467
  204POPC   C3B 2940  11.541   9.004   4.825  0.0979 -0.0362  0.3634
  204POPC   C4B 2941  11.674   9.326   5.086  0.2044  0.1450  0.2146
  205POPC   NC3 2942   1.210   1.744   4.708 -0.1889  0.1551 -0.1905
  205POPC   PO4 2943   1.467   1.824   4.958  0.1822 -0.0144  0.0427
  205POPC   GL1 2944   1.461   1.449   5.244  0.1255  0.1621  0.1553
  205POPC   GL2 2945   1.846   1.358   5.225  0.0537  0.1753 -0.0972
  205POPC   C1A 2946   1.511   1.298   5.657  0.1077  0.0706 -0.0531
  205POPC   D2A 2947   1.469   1.188   5.980  0.0082  0.3367 -0.2449
  205POPC   C3A 2948   1.791   1.239   6.327 -0.2683  0.3348  0.1426
  205POPC   C4A 2949   1.853   1.354   6.708  0.1718  0.1173  0.1177
  205POPC   C1B 2950   2.251   1.210   5.476 -0.1721  0.0499  0.1970
  205POPC   C2B 2951   2.519   0.965   5.694  0.0368 -0.0745  0.2436
  205POPC   C3B 2952   2.713   0.770   6.003 -0.0612 -0.2213  0.1799
  205POPC   C4B 2953   2.894   0.584   6.505  0.2353  0.1180 -0.1866
  206POPC   NC3 2954   3.562   4.229   5.045  0.1189  0.0050 -0.0418
  206POPC   PO4 2955   3.883   3.994   5.116 -0.0424 -0.0422 -0.1368
  206POPC   GL1 2956   3.697   4.124   5.500  0.0824 -0.2455 -0.0411
  206POPC   GL2 2957   3.837   4.431   5.625  0.0339 -0.2599  0.4682
  206POPC   C1A 2958   3.644   3.897   5.868 -0.2962 -0.2504 -0.1990
  206POPC   D2A 2959   3.685   3.568   6.167 -0.2629 -0.1466 -0.2133
  206POPC   C3A 2960   4.001   3.659   6.518 -0.0172 -0.2090 -0.0091
  206POPC   C4A 2961   4.419   3.673   6.816  0.1972 -0.0871  0.0525
  206POPC   C1B 2962   3.934   4.538   6.117  0.2039 -0.4105  0.4718
  206POPC   C2B 2963   4.134   4.577   6.566  0.1417 -0.0198  0.1362
  206POPC   C3B 2964   3.911   4.826   6.841 -0.0887  0.1188 -0.2272
  206POPC   C4B 2965   3.577   4.882   7.015  0.4549  0.1108 -0.1719
  207POPC   NC3 2966   1.530   9.917   2.852 -0.1988 -0.0716 -0.1619
  207POPC   PO4 2967   1.513   9.840   3.319 -0.1258 -0.3576 -0.2161
  207POPC   GL1 2968   1.220   9.455   3.322  0.0021  0.2601  0.0880
  207POPC   GL2 2969   0.950   9.502   3.605 -0.1002  0.1647 -0.2967
  207POPC   C1A 2970   1.308   9.229   3.748  0.2251  0.0734 -0.0385
  207POPC   D2A 2971   1.306   9.233   4.190 -0.3075 -0.3373 -0.0562
  207POPC   C3A 2972   1.243   8.888   4.373 -0.1380  0.1716  0.4510
  207POPC   C4A 2973   1.548   8.808   4.704 -0.1058  0.3976  0.0182
  207POPC   C1B 2974   1.148   9.667   4.007  0.0642  0.0537  0.2843
  207POPC   C2B 2975   1.514   9.811   4.128  0.1479  0.0116  0.3157
  207POPC   C3B 2976   1.491   9.836   4.574  0.1462  0.0937  0.2595
  207POPC   C4B 2977   1.149   9.927   4.897  0.1147 -0.1382 -0.0311
  208POPC   NC3 2978   7.577   3.213   4.958  0.2361 -0.0830  0.2546
  208POPC   PO4 2979   7.379   3.069   5.219  0.1993 -0.2693  0.2077
  208POPC   GL1 2980   7.313   3.109   5.640 -0.2572 -0.0720  0.0149
  208POPC   GL2 2981   7.026   3.345   5.621 -0.2013  0.5711 -0.0737
  208POPC   C1A 2982   7.386   2.975   6.070 -0.0682  0.0035  0.3466
  208POPC   D2A 2983   7.484   2.945   6.496  0.1224 -0.0438  0.1727
  208POPC   C3A 2984   7.841   2.902   6.616 -0.0878  0.0335 -0.0179
  208POPC   C4A 2985   7.953   2.776   6.997 -0.2135  0.1939  0.0887
  208POPC   C1B 2986   6.909   3.237   6.046 -0.2069 -0.0655  0.0207
  208POPC   C2B 2987   6.846   2.978   6.415  0.0174 -0.0315 -0.0393
  208POPC   C3B 2988   7.122   3.052   6.813  0.1615 -0.1311 -0.2351
  208POPC   C4B 2989   7.461   2.860   6.955 -0.1456  0.0390  0.0198
  209POPC   NC3 2990   2.190   3.385   4.753  0.3233 -0.1540 -0.0971
  209POPC   PO4 2991   2.207   2.863   4.941  0.1360 -0.1519 -0.4079
  209POPC   GL1 2992   1.934   2.749   5.347 -0.0909  0.1215 -0.0962
  209POPC   GL2 2993   2.165   2.518   5.352  0.1719 -0.3064 -0.3127
  209POPC   C1A 2994   1.592   2.561   5.662  0.1352 -0.0053  0.3011
  209POPC   D2A 2995   1.395   2.423   5.974  0.0851 -0.3422 -0.1409
  209POPC   C3A 2996   1.497   2.233   6.382 -0.1657 -0.0426 -0.0796
  209POPC   C4A 2997   1.652   2.173   6.729  0.2869 -0.0859 -0.0591
  209POPC   C1B 2998   2.227   2.641   5.775 -0.0837 -0.1391  0.2728
  209POPC   C2B 2999   2.265   2.646   6.192  0.5769  0.2674  0.1988
  209POPC   C3B 3000   2.490   2.796   6.478 -0.2351 -0.0516 -0.2965
  209POPC   C4B 3001   2.911   2.998   6.537 -0.0280 -0.0238  0.0598
  210POPC   NC3 3002  10.088  10.037   3.973  0.0985 -0.3999 -0.1965
  210POPC   PO4 3003  10.483  10.297   4.010  0.0157 -0.0692 -0.2308
  210POPC   GL1 3004  10.778  10.080   4.301 -0.4816  0.0127  0.0705
  210POPC   GL2 3005  10.861  10.332   4.452 -0.0924 -0.1983 -0.4220
  210POPC   C1A 3006  11.115   9.826   4.652  0.2242  0.1779 -0.0977
  210POPC   D2A 3007  11.226   9.541   5.058 -0.2752  0.0474  0.1700
  210POPC   C3A 3008  11.200   9.122   5.105 -0.0134  0.0707 -0.4429
  210POPC   C4A 3009  10.908   8.788   5.007 -0.1905  0.1452  0.5154
  210POPC   C1B 3010  10.760  10.154   4.856  0.2706 -0.1547 -0.1101
  210POPC   C2B 3011  10.674   9.770   5.061 -0.1472  0.2265 -0.1823
  210POPC   C3B 3012  10.667   9.413   5.346  0.2078 -0.1068  0.0576
  210POPC   C4B 3013  10.843   9.025   5.455  0.1247  0.0359 -0.1524
  211POPC   NC3 3014   4.976   0.683   4.754  0.0445  0.3376  0.2177
  211POPC   PO4 3015   5.233   0.336   4.762  0.1370 -0.2241 -0.0788
  211POPC   GL1 3016   5.172   0.016   5.068 -0.2545 -0.0268 -0.0854
  211POPC   GL2 3017   4.948  -0.253   5.080 -0.0218 -0.0762 -0.1077
  211POPC   C1A 3018   5.248  -0.151   5.553 -0.0557  0.0210  0.0335
  211POPC   D2A 3019   5.050  -0.209   5.981 -0.0394 -0.1107 -0.0549
  211POPC   C3A 3020   4.951  -0.491   6.278 -0.1417 -0.2151 -0.2698
  211POPC   C4A 3021   4.643  -0.574   6.533  0.0812  0.0451  0.4210
  211POPC   C1B 3022   4.661  -0.239   5.557  0.0827 -0.2384  0.2029
  211POPC   C2B 3023   4.492  -0.398   5.975  0.0012  0.2871 -0.3446
  211POPC   C3B 3024   4.096  -0.246   6.292 -0.0202  0.0493 -0.1426
  211POPC   C4B 3025   3.844   0.107   6.461  0.0408 -0.3179  0.0077
  212POPC   NC3 3026   1.184   6.400   3.909  0.1522  0.0100  0.2465
  212POPC   PO4 3027   1.159   6.471   4.393 -0.1502 -0.0091 -0.2234
  212POPC   GL1 3028   1.372   6.728   4.641  0.0113 -0.1679  0.1035
  212POPC   GL2 3029   1.672   6.591   4.675  0.2323 -0.0800 -0.2036
  212POPC   C1A 3030   1.349   6.488   5.092 -0.3968 -0.2319  0.2102
  212POPC   D2A 3031   1.073   6.417   5.456  0.1489 -0.0306 -0.0402
  212POPC   C3A 3032   0.931   6.668   5.922 -0.1254 -0.3287 -0.0988
  212POPC   C4A 3033   1.016   7.019   6.083  0.0408  0.0576 -0.2150
  212POPC   C1B 3034   1.918   6.974   4.799  0.1036 -0.4170 -0.2849
  212POPC   C2B 3035   1.907   7.184   5.196 -0.0132  0.0701 -0.1284
  212POPC   C3B 3036   1.750   7.078   5.584  0.0026  0.1636  0.2234
  212POPC   C4B 3037   1.424   6.775   5.843  0.0141 -0.0666  0.0335
  213POPC   NC3 3038   9.450   0.337   4.092  0.1574  0.3065 -0.0954
  213POPC   PO4 3039   9.827   0.427   4.295  0.0500  0.1547 -0.1163
  213POPC   GL1 3040   9.887   0.275   4.710 -0.1347 -0.1347  0.0401
  213POPC   GL2 3041  10.138   0.412   4.780 -0.0172  0.4810  0.1970
  213POPC   C1A 3042   9.834   0.106   5.102  0.3274  0.4151  0.2734
  213POPC   D2A 3043  10.116  -0.297   5.210 -0.1161 -0.0391  0.0825
  213POPC   C3A 3044  10.129  -0.663   4.985 -0.0096 -0.1126 -0.1520
  213POPC   C4A 3045  10.207  -1.015   5.138 -0.1152  0.0856  0.1707
  213POPC   C1B 3046  10.101   0.429   5.279 -0.0840  0.1029  0.0616
  213POPC   C2B 3047  10.117   0.066   5.603  0.1438 -0.1231 -0.2360
  213POPC   C3B 3048  10.128  -0.317   5.922  0.0557  0.0947 -0.0087
  213POPC   C4B 3049  10.263  -0.697   6.057  0.0296 -0.2873 -0.0938
  214POPC   NC3 3050   8.679   3.709   5.370 -0.1290  0.0346  0.2554
  214POPC   PO4 3051   8.334   3.799   5.225 -0.2032 -0.2534 -0.4677
  214POPC   GL1 3052   8.306   3.663   5.688  0.1800 -0.2610  0.1503
  214POPC   GL2 3053   8.672   3.750   5.865 -0.2200  0.1238  0.0262
  214POPC   C1A 3054   8.259   3.418   6.086  0.0289 -0.0825  0.1060
  214POPC   D2A 3055   8.295   3.332   6.515  0.1091  0.1968  0.0984
  214POPC   C3A 3056   8.344   2.985   6.808  0.3111  0.0038 -0.0097
  214POPC   C4A 3057   8.510   2.667   6.974 -0.1445  0.1662 -0.1278
  214POPC   C1B 3058   8.727   3.786   6.332 -0.0687  0.3207  0.0108
  214POPC   C2B 3059   8.837   3.535   6.634  0.2886 -0.1633  0.2618
  214POPC   C3B 3060   8.997   3.573   6.998 -0.0408  0.0935 -0.0087
  214POPC   C4B 3061   9.203   3.533   7.440 -0.0563 -0.1546  0.2863
  215POPC   NC3 3062   8.597   0.555   4.701 -0.1846 -0.0319  0.0464
  215POPC   PO4 3063   8.587   0.365   5.004  0.0120  0.1228 -0.2608
  215POPC   GL1 3064   8.844   0.117   5.362  0.1230 -0.0864  0.0398
  215POPC   GL2 3065   8.644  -0.162   5.399 -0.1493 -0.0662 -0.1525
  215POPC   C1A 3066   9.091   0.246   5.774 -0.0224 -0.0009  0.0841
  215POPC   D2A 3067   8.997   0.339   6.085  0.3758  0.1141 -0.1285
  215POPC   C3A 3068   9.278   0.066   6.239 -0.3030  0.0636 -0.0596
  215POPC   C4A 3069   9.540   0.098   6.614 -0.0118  0.1384 -0.1498
  215POPC   C1B 3070   8.750  -0.127   5.886 -0.2602  0.2801 -0.0137
  215POPC   C2B 3071   8.915  -0.249   6.271 -0.2504  0.0887 -0.0880
  215POPC   C3B 3072   9.075  -0.264   6.597 -0.1496  0.2978 -0.0199
  215POPC   C4B 3073   9.180  -0.246   7.058  0.3338 -0.1677  0.2366
  216POPC   NC3 3074   0.402   5.440   4.152  0.1020  0.1357 -0.0169
  216POPC   PO4 3075   0.418   5.839   4.476 -0.1442  0.3835 -0.0158
  216POPC   GL1 3076   0.497   6.120   4.777 -0.0633 -0.2726 -0.2167
  216POPC   GL2 3077   0.318   6.127   5.110 -0.1323 -0.1202  0.2386
  216POPC   C1A 3078   0.850   6.356   4.970  0.0121 -0.0579 -0.2042
  216POPC   D2A 3079   0.940   6.804   4.993 -0.3181 -0.2939  0.4342
  216POPC   C3A 3080   1.049   6.908   5.342 -0.1194 -0.1759 -0.0279
  216POPC   C4A 3081   0.773   7.015   5.624 -0.0616 -0.0509 -0.1075
  216POPC   C1B 3082   0.327   6.059   5.579 -0.1558 -0.1183  0.0667
  216POPC   C2B 3083   0.135   6.088   6.015  0.0421  0.0670  0.1939
  216POPC   C3B 3084   0.094   6.115   6.421 -0.1435 -0.2624  0.2220
  216POPC   C4B 3085  -0.013   6.485   6.733 -0.1470  0.2567  0.1424
  217POPC   NC3 3086   7.144   1.805   4.539  0.2036  0.0201  0.1481
  217POPC   PO4 3087   7.176   1.410   4.844  0.0932  0.1381 -0.0212
  217POPC   GL1 3088   7.414   1.221   5.242 -0.0869 -0.1154 -0.0053
  217POPC   GL2 3089   7.354   0.886   5.279  0.1404  0.1830  0.1636
  217POPC   C1A 3090   7.402   1.156   5.632  0.0359  0.0487 -0.1890
  217POPC   D2A 3091   7.067   1.089   5.899 -0.1153  0.0012  0.0562
  217POPC   C3A 3092   7.251   1.115   6.301 -0.0207  0.2385  0.1244
  217POPC   C4A 3093   7.357   1.422   6.662 -0.0493 -0.2596 -0.0492
  217POPC   C1B 3094   6.940   0.999   5.397  0.1180  0.5059  0.1931
  217POPC   C2B 3095   6.653   1.237   5.522  0.0364  0.2665  0.3018
  217POPC   C3B 3096   6.778   1.611   5.814  0.1681  0.0104 -0.0819
  217POPC   C4B 3097   6.919   2.006   5.820  0.1710 -0.0586  0.0538
  218POPC   NC3 3098   2.675   5.299   5.390  0.2128 -0.1230  0.2560
  218POPC   PO4 3099   2.783   4.793   5.272  0.0415  0.0861 -0.1040
  218POPC   GL1 3100   2.798   4.924   5.722 -0.0209 -0.5010  0.1785
  218POPC   GL2 3101   3.165   4.797   5.657  0.1459  0.0520  0.1638
  218POPC   C1A 3102   2.634   4.884   6.005  0.1117 -0.1023  0.0129
  218POPC   D2A 3103   2.397   4.919   6.445 -0.1740  0.1199  0.1985
  218POPC   C3A 3104   2.719   4.997   6.749 -0.4718 -0.3156 -0.1150
  218POPC   C4A 3105   3.140   4.952   6.811 -0.1219 -0.1441  0.3035
  218POPC   C1B 3106   3.516   4.872   6.001 -0.3425  0.0598 -0.1594
  218POPC   C2B 3107   3.505   5.190   6.359  0.1586 -0.0927 -0.0071
  218POPC   C3B 3108   3.156   5.388   6.532 -0.0214  0.0022 -0.2890
  218POPC   C4B 3109   3.014   5.805   6.750 -0.2567 -0.0195  0.3381
  219POPC   NC3 3110   2.597   5.931   5.006 -0.1735 -0.1329 -0.1467
  219POPC   PO4 3111   2.229   5.814   5.177 -0.0992 -0.0265 -0.0809
  219POPC   GL1 3112   2.586   5.796   5.554 -0.0446 -0.2175 -0.1789
  219POPC   GL2 3113   2.669   5.533   5.813  0.0905 -0.2038 -0.3288
  219POPC   C1A 3114   2.680   6.106   5.703 -0.1482 -0.1002  0.1164
  219POPC   D2A 3115   2.748   6.391   5.997  0.3027  0.0376 -0.2116
  219POPC   C3A 3116   2.761   6.320   6.413  0.1045 -0.3615  0.1587
  219POPC   C4A 3117   2.590   6.139   6.812  0.1102  0.1342 -0.0287
  219POPC   C1B 3118   2.695   5.332   6.311  0.0076 -0.0093 -0.1575
  219POPC   C2B 3119   2.539   5.437   6.702 -0.0085 -0.1384 -0.2551
  219POPC   C3B 3120   2.205   5.772   6.783  0.0249  0.2251 -0.0798
  219POPC   C4B 3121   2.128   5.955   7.116  0.1583  0.1885  0.2784
  220POPC   NC3 3122   5.720   9.041   5.022  0.0789  0.0268  0.1945
  220POPC   PO4 3123   5.576   9.413   4.686  0.1665  0.2953  0.1672
  220POPC   GL1 3124   5.340   9.405   5.020  0.3223 -0.1931  0.0898
  220POPC   GL2 3125   5.178   9.103   5.160 -0.4347  0.0315  0.0009
  220POPC   C1A 3126   5.384   9.359   5.503 -0.0409 -0.1489 -0.0026
  220POPC   D2A 3127   5.838   9.427   5.601  0.1900 -0.0145 -0.1047
  220POPC   C3A 3128   5.973   9.745   5.905 -0.2686 -0.0304 -0.0136
  220POPC   C4A 3129   6.018   9.858   6.299 -0.1788  0.1075 -0.1486
  220POPC   C1B 3130   4.927   9.127   5.407  0.1284 -0.0813 -0.0784
  220POPC   C2B 3131   4.768   9.142   5.741 -0.1778 -0.0216 -0.1513
  220POPC   C3B 3132   4.944   9.156   6.125 -0.0311  0.0055 -0.1370
  220POPC   C4B 3133   5.099   9.531   6.450  0.1231  0.0348  0.2580
  221POPC   NC3 3134   5.192   2.889   5.175 -0.1831  0.0991 -0.0056
  221POPC   PO4 3135   4.931   3.353   5.187 -0.2548 -0.0878  0.3495
  221POPC   GL1 3136   5.102   3.264   5.600 -0.0555  0.3144  0.1748
  221POPC   GL2 3137   5.394   3.522   5.617 -0.0243 -0.2609  0.3047
  221POPC   C1A 3138   5.165   3.181   6.037  0.0118  0.1535  0.0828
  221POPC   D2A 3139   5.203   3.356   6.392  0.0387 -0.0576  0.0096
  221POPC   C3A 3140   5.046   3.759   6.416 -0.1330  0.1148 -0.2500
  221POPC   C4A 3141   4.655   3.916   6.465  0.1234  0.3570 -0.0998
  221POPC   C1B 3142   5.521   3.666   6.089  0.0532 -0.1701 -0.0550
  221POPC   C2B 3143   5.757   3.658   6.485 -0.2755  0.0655  0.2387
  221POPC   C3B 3144   5.865   3.447   6.864  0.0622  0.0548  0.1321
  221POPC   C4B 3145   5.559   3.478   7.110  0.0500 -0.2041  0.3085
  222POPC   NC3 3146   4.832   6.312   4.334  0.3786 -0.0595  0.3633
  222POPC   PO4 3147   4.919   6.391   4.758 -0.0445 -0.0916 -0.0006
  222POPC   GL1 3148   5.092   6.535   5.094 -0.0535  0.1108  0.1092
  222POPC   GL2 3149   4.997   6.758   5.320  0.1426 -0.0370  0.1145
  222POPC   C1A 3150   5.202   6.298   5.507 -0.0293 -0.0790 -0.2467
  222POPC   D2A 3151   4.979   6.143   5.898  0.1784 -0.2742  0.1261
  222POPC   C3A 3152   5.062   6.411   6.244 -0.1585  0.0442  0.0027
  222POPC   C4A 3153   5.035   6.337   6.699 -0.1641 -0.1946  0.0042
  222POPC   C1B 3154   4.988   6.617   5.757  0.1664  0.1887 -0.3147
  222POPC   C2B 3155   4.867   6.867   6.194 -0.3328  0.1421  0.2476
  222POPC   C3B 3156   4.786   6.850   6.595  0.2050  0.1576 -0.3393
  222POPC   C4B 3157   4.557   6.570   6.948 -0.0243  0.1588  0.2341
  223POPC   NC3 3158   7.619   1.288   4.673  0.0585 -0.1343  0.2579
  223POPC   PO4 3159   7.797   1.417   5.015 -0.2892 -0.0873 -0.2077
  223POPC   GL1 3160   7.851   1.385   5.414 -0.1953  0.0637  0.1089
  223POPC   GL2 3161   7.660   1.562   5.580 -0.0778  0.1049 -0.0401
  223POPC   C1A 3162   8.082   1.305   5.721 -0.2324  0.0534  0.3663
  223POPC   D2A 3163   8.242   1.545   6.155  0.0280  0.0281 -0.1684
  223POPC   C3A 3164   8.615   1.928   6.129  0.0978 -0.0977 -0.2694
  223POPC   C4A 3165   9.007   2.038   6.301 -0.1604 -0.1605  0.3347
  223POPC   C1B 3166   7.318   1.666   5.880  0.0572  0.0477  0.2766
  223POPC   C2B 3167   7.064   1.559   6.262  0.2367  0.0112  0.0649
  223POPC   C3B 3168   6.692   1.285   6.276 -0.3404 -0.1721  0.1406
  223POPC   C4B 3169   6.303   0.971   6.473  0.0968 -0.0941 -0.0300
  224POPC   NC3 3170   6.078   0.372   4.815 -0.0580 -0.0427  0.0462
  224POPC   PO4 3171   6.190  -0.154   4.867 -0.1152 -0.0549 -0.1479
  224POPC   GL1 3172   6.139  -0.329   5.308  0.0754  0.1759  0.1201
  224POPC   GL2 3173   6.281  -0.603   5.379 -0.1226 -0.0514 -0.3612
  224POPC   C1A 3174   5.866  -0.341   5.589  0.0809 -0.1273  0.1065
  224POPC   D2A 3175   5.536  -0.158   5.914 -0.1344  0.0155  0.0049
  224POPC   C3A 3176   5.442  -0.421   6.245 -0.0544 -0.0704  0.1990
  224POPC   C4A 3177   5.621  -0.748   6.528  0.0072 -0.0759  0.0092
  224POPC   C1B 3178   6.361  -0.449   5.787 -0.2602  0.1093 -0.0123
  224POPC   C2B 3179   6.215  -0.160   6.067 -0.1152  0.2659 -0.0011
  224POPC   C3B 3180   6.334  -0.149   6.518  0.0676  0.2038  0.0780
  224POPC   C4B 3181   6.253   0.185   6.852 -0.0818 -0.3882  0.1544
  225POPC   NC3 3182   3.944  10.119   4.385 -0.0873 -0.0789 -0.0867
  225POPC   PO4 3183   3.567   9.884   4.296  0.4504  0.3165 -0.2065
  225POPC   GL1 3184   3.604  10.071   4.774 -0.1122 -0.1186  0.4214
  225POPC   GL2 3185   3.949  10.186   4.930  0.0825  0.3724  0.2137
  225POPC   C1A 3186   3.729   9.719   5.169  0.2441  0.0634  0.3660
  225POPC   D2A 3187   3.617   9.266   5.316 -0.0370 -0.0556 -0.1284
  225POPC   C3A 3188   3.312   9.254   5.752  0.2557  0.3020  0.0405
  225POPC   C4A 3189   2.928   9.016   5.998 -0.2379  0.1825 -0.1568
  225POPC   C1B 3190   4.064  10.307   5.362 -0.3211  0.1610 -0.0175
  225POPC   C2B 3191   4.283  10.470   5.788 -0.2571  0.1129  0.1825
  225POPC   C3B 3192   4.612  10.488   6.082  0.0567 -0.0930 -0.1015
  225POPC   C4B 3193   4.504  10.767   6.553  0.0855  0.2759 -0.0491
  226POPC   NC3 3194   0.140   0.307   4.471  0.0130  0.0523 -0.2439
  226POPC   PO4 3195   0.273   0.655   4.637  0.1516  0.1356  0.0014
  226POPC   GL1 3196   0.250   0.752   4.991  0.0753 -0.2187  0.0598
  226POPC   GL2 3197   0.100   0.573   5.162 -0.1475  0.0984 -0.1243
  226POPC   C1A 3198   0.206   1.004   5.253 -0.0299  0.0435 -0.1551
  226POPC   D2A 3199   0.236   0.972   5.781  0.0934 -0.0703  0.2136
  226POPC   C3A 3200  -0.085   1.190   5.968 -0.0887  0.1272  0.0629
  226POPC   C4A 3201  -0.382   1.232   6.291 -0.1610  0.1276 -0.0676
  226POPC   C1B 3202   0.093   0.471   5.615 -0.1644 -0.3204 -0.0071
  226POPC   C2B 3203   0.216   0.581   6.030 -0.1158 -0.0155  0.3912
  226POPC   C3B 3204   0.107   0.892   6.318 -0.2073  0.0490 -0.0059
  226POPC   C4B 3205  -0.079   0.859   6.678 -0.1357 -0.3340 -0.1017
  227POPC   NC3 3206   2.712   7.239   4.132 -0.1440 -0.1791  0.4606
  227POPC   PO4 3207   2.323   7.095   4.049  0.0131  0.0861 -0.0091
  227POPC   GL1 3208   2.313   7.203   4.463 -0.0726  0.0285  0.0970
  227POPC   GL2 3209   2.128   7.484   4.453 -0.0054 -0.1368 -0.2033
  227POPC   C1A 3210   2.404   7.290   4.918 -0.2734 -0.1264  0.0577
  227POPC   D2A 3211   2.396   7.505   5.318 -0.1238 -0.2321  0.2141
  227POPC   C3A 3212   2.098   7.910   5.274  0.3978 -0.0778  0.2493
  227POPC   C4A 3213   1.734   8.048   5.403 -0.1208  0.0553  0.2291
  227POPC   C1B 3214   2.056   7.778   4.818 -0.3087  0.1517 -0.0519
  227POPC   C2B 3215   2.167   8.213   4.880  0.0481  0.1923  0.1125
  227POPC   C3B 3216   2.183   8.387   5.254 -0.2599 -0.0419 -0.0772
  227POPC   C4B 3217   2.270   8.798   5.444  0.1364  0.1128  0.1266
  228POPC   NC3 3218   6.114   9.487   4.558  0.0263 -0.0393 -0.0369
  228POPC   PO4 3219   6.207   9.188   4.849  0.1356  0.1066 -0.1194
  228POPC   GL1 3220   6.475   8.991   5.332  0.2411 -0.2094 -0.0393
  228POPC   GL2 3221   6.219   9.190   5.404  0.0799 -0.7399  0.0189
  228POPC   C1A 3222   6.473   8.713   5.768 -0.0926 -0.1922 -0.0402
  228POPC   D2A 3223   6.438   8.445   6.130 -0.1963 -0.0534  0.1110
  228POPC   C3A 3224   6.294   8.052   6.088  0.0566  0.5442 -0.1022
  228POPC   C4A 3225   6.160   7.677   6.207  0.0614  0.1474  0.0590
  228POPC   C1B 3226   6.450   9.439   5.773 -0.0241 -0.1232  0.2606
  228POPC   C2B 3227   6.516   9.279   6.077  0.0421  0.2541 -0.0267
  228POPC   C3B 3228   6.352   8.963   6.322 -0.0026  0.2569 -0.0296
  228POPC   C4B 3229   6.187   8.858   6.675 -0.1382  0.0785  0.1862
  229POPC   NC3 3230   1.852   0.336   4.277  0.4099 -0.0609 -0.1631
  229POPC   PO4 3231   2.253   0.198   4.323 -0.2753 -0.3996  0.0464
  229POPC   GL1 3232   2.156  -0.196   4.506  0.1068 -0.0752  0.0731
  229POPC   GL2 3233   2.003  -0.612   4.369  0.1407 -0.3788 -0.3796
  229POPC   C1A 3234   2.299  -0.399   4.813  0.2085 -0.1609 -0.1633
  229POPC   D2A 3235   2.170  -0.654   5.229  0.4568  0.1123  0.4608
  229POPC   C3A 3236   2.102  -0.559   5.698  0.3987 -0.3144 -0.1025
  229POPC   C4A 3237   1.758  -0.400   6.102  0.0113  0.2860 -0.2414
  229POPC   C1B 3238   1.930  -0.764   4.785 -0.3845 -0.2098 -0.1034
  229POPC   C2B 3239   1.701  -0.641   5.081 -0.5219 -0.2441  0.0670
  229POPC   C3B 3240   1.688  -0.768   5.548  0.4451 -0.0495  0.0039
  229POPC   C4B 3241   1.452  -1.134   5.541 -0.3632  0.1678  0.1087
  230POPC   NC3 3242   3.257   5.048   5.164 -0.4905 -0.1440  0.1138
  230POPC   PO4 3243   3.519   4.697   5.238  0.2588 -0.0308  0.0430
  230POPC   GL1 3244   3.658   4.986   5.530  0.2950  0.5956  0.0302
  230POPC   GL2 3245   3.971   4.990   5.675 -0.2960 -0.2404 -0.1017
  230POPC   C1A 3246   3.567   5.329   5.863  0.1613  0.2416 -0.1129
  230POPC   D2A 3247   3.358   5.686   6.111  0.0309  0.0067 -0.0751
  230POPC   C3A 3248   2.987   5.793   6.233 -0.1603 -0.0584 -0.2450
  230POPC   C4A 3249   2.534   5.843   6.327 -0.1915  0.1547 -0.4911
  230POPC   C1B 3250   4.002   5.274   6.091  0.2547  0.1361 -0.1229
  230POPC   C2B 3251   3.792   5.615   6.418 -0.1879 -0.1138  0.1364
  230POPC   C3B 3252   3.628   5.561   6.750 -0.0902 -0.1638  0.0110
  230POPC   C4B 3253   3.476   5.836   6.969 -0.0114 -0.1347  0.0693
  231POPC   NC3 3254   3.357   2.702   4.970 -0.2178 -0.0630 -0.4453
  231POPC   PO4 3255   3.120   3.084   4.971 -0.1163 -0.0047  0.1144
  231POPC   GL1 3256   3.344   3.024   5.440  0.2615  0.0868 -0.3515
  231POPC   GL2 3257   3.703   2.965   5.495 -0.2029  0.0155 -0.0663
  231POPC   C1A 3258   3.280   2.989   5.853 -0.1648  0.0722  0.0398
  231POPC   D2A 3259   3.284   2.786   6.204  0.0651 -0.0490  0.1472
  231POPC   C3A 3260   2.885   2.522   6.150  0.2138 -0.0644 -0.1314
  231POPC   C4A 3261   2.845   2.485   6.581  0.0750  0.1879  0.0199
  231POPC   C1B 3262   3.794   3.033   5.974  0.0094 -0.0718  0.3564
  231POPC   C2B 3263   3.805   3.069   6.451  0.1795  0.0999 -0.0829
  231POPC   C3B 3264   3.471   2.985   6.665  0.1990 -0.0526 -0.0328
  231POPC   C4B 3265   3.306   2.595   6.708  0.0950 -0.2485  0.0433
  232POPC   NC3 3266  10.319   2.444   5.182 -0.1612  0.2290 -0.4099
  232POPC   PO4 3267  10.332   2.935   5.358 -0.1405 -0.1028  0.0764
  232POPC   GL1 3268  10.242   2.549   5.653  0.2376  0.0005 -0.1638
  232POPC   GL2 3269  10.025   2.301   5.647 -0.5334 -0.0546  0.1164
  232POPC   C1A 3270  10.252   2.599   6.071  0.1849  0.0545  0.2697
  232POPC   D2A 3271  10.457   2.529   6.514  0.0203  0.1719 -0.1906
  232POPC   C3A 3272  10.892   2.395   6.549 -0.1224  0.0450  0.2014
  232POPC   C4A 3273  11.118   2.086   6.826  0.0805  0.1821 -0.1668
  232POPC   C1B 3274   9.792   2.259   6.007  0.3472  0.1520  0.0564
  232POPC   C2B 3275   9.657   2.222   6.440  0.1843  0.1008  0.2092
  232POPC   C3B 3276   9.301   2.222   6.622 -0.3174 -0.0326 -0.3440
  232POPC   C4B 3277   9.195   2.135   6.968 -0.0259 -0.0402 -0.1442
  233POPC   NC3 3278   2.972   0.519   4.600 -0.1650 -0.0077 -0.0365
  233POPC   PO4 3279   3.102   0.879   4.807 -0.0227  0.0273  0.0069
  233POPC   GL1 3280   2.982   0.974   5.222 -0.2079  0.0370  0.0014
  233POPC   GL2 3281   2.689   0.913   5.258  0.3991 -0.0624  0.0747
  233POPC   C1A 3282   3.088   1.002   5.702  0.0786  0.0891  0.0913
  233POPC   D2A 3283   3.305   1.211   5.977 -0.0803 -0.1398  0.2748
  233POPC   C3A 3284   3.173   1.598   5.958  0.2678 -0.3731  0.2970
  233POPC   C4A 3285   3.025   2.002   5.709  0.1978 -0.0901 -0.2800
  233POPC   C1B 3286   2.812   0.561   5.545  0.1952  0.2359  0.1080
  233POPC   C2B 3287   2.859   0.245   5.872 -0.1606 -0.1947 -0.0329
  233POPC   C3B 3288   3.189   0.376   6.057 -0.0218 -0.0159 -0.1205
  233POPC   C4B 3289   3.200   0.786   6.191  0.0692 -0.1410  0.2478
  234POPC   NC3 3290   6.509   6.734   4.790  0.2764 -0.2676  0.0745
  234POPC   PO4 3291   6.805   7.127   4.799  0.1692  0.2267 -0.1202
  234POPC   GL1 3292   6.676   7.060   5.216  0.1972 -0.1869 -0.2157
  234POPC   GL2 3293   6.508   6.803   5.313  0.2198 -0.0921  0.1473
  234POPC   C1A 3294   6.888   6.877   5.601  0.1039 -0.1975  0.0876
  234POPC   D2A 3295   6.835   6.621   5.965 -0.2613 -0.0962  0.1359
  234POPC   C3A 3296   6.747   6.647   6.361  0.0730 -0.2503 -0.0104
  234POPC   C4A 3297   6.652   7.033   6.697  0.1035 -0.0433  0.0944
  234POPC   C1B 3298   6.388   6.940   5.662 -0.1447  0.0648  0.1054
  234POPC   C2B 3299   6.334   6.706   6.105 -0.1107  0.3202  0.3175
  234POPC   C3B 3300   6.247   6.816   6.504 -0.1216  0.1882 -0.0340
  234POPC   C4B 3301   5.816   6.899   6.678  0.2764  0.2256  0.1621
  235POPC   NC3 3302   7.391   6.270   5.070 -0.2369 -0.2202  0.3398
  235POPC   PO4 3303   7.779   6.276   5.264 -0.1902 -0.0540 -0.0793
  235POPC   GL1 3304   8.074   6.218   5.491  0.1318 -0.2210  0.1504
  235POPC   GL2 3305   8.055   5.936   5.611 -0.1104 -0.2319 -0.0325
  235POPC   C1A 3306   7.880   6.328   5.925 -0.0951 -0.1373  0.0151
  235POPC   D2A 3307   7.749   6.522   6.306  0.2284  0.0601 -0.0116
  235POPC   C3A 3308   7.536   6.505   6.740  0.1163 -0.0803 -0.0604
  235POPC   C4A 3309   7.527   6.708   7.074  0.2154 -0.2163 -0.0547
  235POPC   C1B 3310   8.345   5.636   5.902 -0.0868  0.1230 -0.1475
  235POPC   C2B 3311   8.503   5.510   6.256  0.1039  0.0885  0.0750
  235POPC   C3B 3312   8.538   5.786   6.594 -0.1454  0.1624 -0.3602
  235POPC   C4B 3313   8.141   5.963   6.918  0.1712  0.1951 -0.0296
  236POPC   NC3 3314   8.561   7.038   4.915  0.0189  0.1333 -0.1625
  236POPC   PO4 3315   8.184   7.116   4.842 -0.1126  0.1062  0.0033
  236POPC   GL1 3316   8.295   7.078   5.328 -0.0648  0.2297  0.0560
  236POPC   GL2 3317   8.567   7.126   5.530  0.0565  0.0900 -0.1523
  236POPC   C1A 3318   8.057   7.238   5.745 -0.1350 -0.0739  0.0548
  236POPC   D2A 3319   7.849   7.459   6.126  0.1869  0.3088  0.1200
  236POPC   C3A 3320   7.410   7.455   6.157  0.1461  0.0274  0.0200
  236POPC   C4A 3321   7.212   7.836   6.307  0.2198 -0.0295  0.0797
  236POPC   C1B 3322   8.902   7.054   5.976 -0.2086 -0.3369  0.0929
  236POPC   C2B 3323   8.645   6.831   6.422 -0.3261 -0.0497  0.0152
  236POPC   C3B 3324   8.516   6.610   6.716  0.0196 -0.1035 -0.4013
  236POPC   C4B 3325   8.597   6.207   6.918  0.1841  0.1610  0.3540
  237POPC   NC3 3326   3.763   7.224   4.803 -0.1647  0.1274  0.1518
  237POPC   PO4 3327   4.209   7.389   5.089 -0.1416  0.3443  0.1779
  237POPC   GL1 3328   4.209   7.290   5.482  0.2393 -0.2587 -0.2220
  237POPC   GL2 3329   4.007   7.022   5.704 -0.3627 -0.1613  0.0656
  237POPC   C1A 3330   4.248   7.474   5.945 -0.1105 -0.1404  0.2901
  237POPC   D2A 3331   4.210   7.574   6.338  0.2531  0.0918  0.0130
  237POPC   C3A 3332   4.458   7.562   6.719  0.0818  0.1547  0.0517
  237POPC   C4A 3333   4.563   7.839   7.071 -0.0705  0.1678 -0.3029
  237POPC   C1B 3334   3.836   7.063   6.135 -0.2524  0.2478  0.0524
  237POPC   C2B 3335   3.466   7.122   6.277 -0.0639  0.1887  0.0653
  237POPC   C3B 3336   3.253   6.995   6.612 -0.2107 -0.3358 -0.0714
  237POPC   C4B 3337   3.054   6.552   6.736 -0.0329 -0.1617  0.1139
  238POPC   NC3 3338   9.690   2.520   5.004 -0.0471  0.1741 -0.0156
  238POPC   PO4 3339   9.869   2.640   5.298 -0.0164 -0.0197 -0.1447
  238POPC   GL1 3340   9.800   2.881   5.627 -0.0256  0.2293 -0.1913
  238POPC   GL2 3341   9.460   2.951   5.657  0.2566  0.0721 -0.4307
  238POPC   C1A 3342   9.705   2.772   6.063 -0.1717 -0.2071 -0.4870
  238POPC   D2A 3343   9.948   2.691   6.465  0.6327 -0.1651 -0.1825
  238POPC   C3A 3344  10.256   2.993   6.575  0.2147  0.4746  0.2988
  238POPC   C4A 3345  10.314   3.365   6.518 -0.1947 -0.2302  0.0219
  238POPC   C1B 3346   9.323   3.137   6.122  0.1018 -0.2205 -0.2890
  238POPC   C2B 3347   9.211   3.137   6.576  0.0811 -0.0838 -0.0694
  238POPC   C3B 3348   9.327   3.092   6.990 -0.2729  0.2574 -0.0911
  238POPC   C4B 3349   9.521   3.136   7.365  0.4103  0.1547  0.0491
  239POPC   NC3 3350   8.903   3.549   4.889 -0.1851 -0.1897  0.1767
  239POPC   PO4 3351   9.159   3.635   5.313 -0.1799 -0.1281  0.2417
  239POPC   GL1 3352   9.215   3.820   5.664 -0.1277 -0.1796 -0.3473
  239POPC   GL2 3353   9.036   4.031   5.732  0.1177  0.0870  0.1587
  239POPC   C1A 3354   9.567   3.827   5.925 -0.0188  0.1439 -0.3730
  239POPC   D2A 3355   9.695   3.410   5.877 -0.0949 -0.1712 -0.2905
  239POPC   C3A 3356   9.928   3.152   6.207  0.1423  0.1622 -0.1950
  239POPC   C4A 3357   9.732   3.090   6.680 -0.0004 -0.1353  0.0235
  239POPC   C1B 3358   9.190   4.102   6.146  0.1385  0.1677  0.0521
  239POPC   C2B 3359   9.615   4.071   6.391  0.2236  0.2599 -0.0122
  239POPC   C3B 3360   9.755   4.187   6.796  0.0731 -0.3179 -0.2546
  239POPC   C4B 3361   9.945   4.202   7.248  0.1007  0.2715  0.1004
  240POPC   NC3 3362   7.488   8.921   4.934  0.1832  0.0673 -0.1418
  240POPC   PO4 3363   7.812   9.074   4.934 -0.2285  0.0707 -0.1145
  240POPC   GL1 3364   7.652   9.072   5.388  0.3157 -0.1311 -0.0068
  240POPC   GL2 3365   7.427   8.982   5.501 -0.1048 -0.0769  0.1471
  240POPC   C1A 3366   7.678   9.469   5.677  0.0940 -0.1911  0.0308
  240POPC   D2A 3367   7.993   9.561   5.940 -0.1973 -0.0819  0.0029
  240POPC   C3A 3368   8.138   9.288   6.182 -0.0077 -0.0262  0.1248
  240POPC   C4A 3369   8.090   9.186   6.588 -0.3288 -0.1617 -0.0572
  240POPC   C1B 3370   7.659   9.060   5.937  0.1303  0.1683  0.2222
  240POPC   C2B 3371   7.645   9.278   6.307 -0.0998 -0.0868  0.0415
  240POPC   C3B 3372   7.664   9.019   6.657 -0.0063 -0.1226 -0.3125
  240POPC   C4B 3373   7.547   8.679   7.104 -0.0963  0.3456 -0.0791
  241POPC   NC3 3374   5.259   0.648   4.205  0.2204  0.1533  0.0603
  241POPC   PO4 3375   5.465   0.838   4.562 -0.1952 -0.3014  0.2321
  241POPC   GL1 3376   5.546   0.712   4.987  0.1335  0.1308 -0.1465
  241POPC   GL2 3377   5.351   0.464   5.241 -0.0492 -0.2333 -0.3862
  241POPC   C1A 3378   5.666   0.916   5.377 -0.3910  0.1222 -0.2233
  241POPC   D2A 3379   5.577   0.741   5.797 -0.4179 -0.0324 -0.0649
  241POPC   C3A 3380   5.728   0.737   6.257 -0.0863  0.0885  0.0216
  241POPC   C4A 3381   5.820   0.694   6.665 -0.0258 -0.1306  0.0751
  241POPC   C1B 3382   5.455   0.308   5.604 -0.0317 -0.0532 -0.2519
  241POPC   C2B 3383   5.427   0.331   6.174 -0.2202 -0.2674 -0.0415
  241POPC   C3B 3384   5.407   0.390   6.615  0.3672  0.1037  0.0809
  241POPC   C4B 3385   5.517   0.581   7.016  0.1628 -0.1431 -0.1289
  242POPC   NC3 3386   7.177   8.213   4.596  0.2039  0.1083 -0.1349
  242POPC   PO4 3387   7.428   8.347   4.957  0.0389  0.0709  0.0414
  242POPC   GL1 3388   7.394   8.503   5.353 -0.1883 -0.1339  0.0456
  242POPC   GL2 3389   7.776   8.621   5.350 -0.0792 -0.1572  0.2196
  242POPC   C1A 3390   7.108   8.421   5.728 -0.2087  0.0860 -0.1669
  242POPC   D2A 3391   7.261   8.316   6.201 -0.2052 -0.2774  0.0162
  242POPC   C3A 3392   7.077   8.248   6.608 -0.0720 -0.0471  0.1223
  242POPC   C4A 3393   7.082   7.812   6.918  0.3309  0.2036 -0.0487
  242POPC   C1B 3394   7.621   8.550   5.782  0.5004  0.1918  0.2966
  242POPC   C2B 3395   7.203   8.763   6.018 -0.0064  0.0754 -0.2542
  242POPC   C3B 3396   6.842   8.696   6.267  0.2196 -0.1744 -0.2242
  242POPC   C4B 3397   6.763   8.898   6.648  0.1344  0.2520 -0.2643
  243POPC   NC3 3398   3.369   1.373   4.537  0.1138  0.1779 -0.2430
  243POPC   PO4 3399   3.226   1.361   5.047  0.0035 -0.1055  0.0010
  243POPC   GL1 3400   3.384   1.250   5.436  0.1322  0.1049  0.0331
  243POPC   GL2 3401   3.426   0.843   5.250  0.0413 -0.2539 -0.4853
  243POPC   C1A 3402   3.642   0.935   5.732 -0.1131  0.1488  0.0454
  243POPC   D2A 3403   3.641   0.583   6.007 -0.1185 -0.1472 -0.0952
  243POPC   C3A 3404   3.495   0.492   6.496 -0.2838 -0.0140 -0.1217
  243POPC   C4A 3405   3.314   0.389   6.978  0.2246 -0.0166  0.0508
  243POPC   C1B 3406   3.416   0.500   5.562  0.0759  0.1058 -0.0437
  243POPC   C2B 3407   3.696   0.097   5.751 -0.0286  0.0418 -0.2077
  243POPC   C3B 3408   3.605  -0.152   6.106 -0.2158 -0.0310  0.0795
  243POPC   C4B 3409   3.412  -0.472   6.377 -0.0661 -0.2345  0.2880
  244POPC   NC3 3410   0.510   3.719   4.801  0.0876  0.1069  0.0983
  244POPC   PO4 3411   0.392   3.400   4.744  0.0269  0.0852 -0.2239
  244POPC   GL1 3412   0.564   3.429   5.217  0.1127  0.0822  0.1928
  244POPC   GL2 3413   0.876   3.281   5.190 -0.0173 -0.4580 -0.1197
  244POPC   C1A 3414   0.662   3.607   5.622 -0.3294  0.2269 -0.1390
  244POPC   D2A 3415   0.725   3.592   6.115  0.3452  0.0233 -0.1967
  244POPC   C3A 3416   0.419   3.745   6.387  0.0606 -0.2178 -0.2766
  244POPC   C4A 3417   0.367   3.999   6.659  0.0102 -0.1095 -0.3107
  244POPC   C1B 3418   0.858   3.146   5.582 -0.0804 -0.1195 -0.2133
  244POPC   C2B 3419   0.616   3.160   5.929  0.0989 -0.1703 -0.0281
  244POPC   C3B 3420   0.739   3.152   6.304  0.1790 -0.0350 -0.0781
  244POPC   C4B 3421   1.006   3.050   6.672 -0.2625 -0.2711  0.1610
  245POPC   NC3 3422   9.113   5.074   4.875  0.1463  0.0769  0.0796
  245POPC   PO4 3423   9.348   5.533   4.911 -0.0233  0.1071 -0.2009
  245POPC   GL1 3424   9.376   5.427   5.332 -0.2079  0.0983 -0.2784
  245POPC   GL2 3425   8.996   5.459   5.270 -0.3047 -0.1641  0.0308
  245POPC   C1A 3426   9.615   5.508   5.769  0.2825  0.0019  0.0022
  245POPC   D2A 3427   9.619   5.493   6.187  0.1896 -0.3638  0.3389
  245POPC   C3A 3428   9.335   5.394   6.512 -0.2630 -0.0703 -0.2793
  245POPC   C4A 3429   9.030   5.383   6.846  0.4046  0.1022 -0.1849
  245POPC   C1B 3430   9.054   5.267   5.620 -0.0039  0.2112  0.0523
  245POPC   C2B 3431   8.915   5.352   6.046 -0.2922 -0.0767 -0.2724
  245POPC   C3B 3432   8.958   5.699   6.432 -0.0170 -0.3207  0.1762
  245POPC   C4B 3433   9.046   5.894   6.767  0.2111 -0.2949 -0.1415
  246POPC   NC3 3434   3.983   5.503   5.186  0.1261  0.2398  0.0921
  246POPC   PO4 3435   4.343   5.264   5.267 -0.0001 -0.2037  0.2478
  246POPC   GL1 3436   4.370   5.482   5.627  0.1224  0.2263  0.0155
  246POPC   GL2 3437   4.035   5.520   5.670 -0.1795  0.2479  0.0086
  246POPC   C1A 3438   4.434   5.512   6.061 -0.3761 -0.0086  0.1865
  246POPC   D2A 3439   4.586   5.203   6.512  0.1831  0.0020 -0.2088
  246POPC   C3A 3440   5.005   4.878   6.525  0.1449 -0.1469  0.0493
  246POPC   C4A 3441   4.964   4.608   6.823  0.0446 -0.0233 -0.0080
  246POPC   C1B 3442   3.807   5.791   5.888  0.1435  0.1952  0.0795
  246POPC   C2B 3443   4.117   5.874   6.150 -0.1517  0.0780 -0.1691
  246POPC   C3B 3444   4.291   5.675   6.595 -0.0928 -0.0269 -0.0753
  246POPC   C4B 3445   4.651   5.575   6.840 -0.0514  0.2096  0.0031
  247POPC   NC3 3446   4.711   4.154   5.166 -0.1087  0.0570 -0.0217
  247POPC   PO4 3447   4.296   4.244   5.382 -0.1392  0.3265  0.1345
  247POPC   GL1 3448   4.343   4.649   5.708 -0.1496 -0.0159  0.2064
  247POPC   GL2 3449   4.551   5.034   5.691 -0.0559  0.2296  0.0115
  247POPC   C1A 3450   4.382   4.844   6.179 -0.0253  0.0144 -0.2131
  247POPC   D2A 3451   4.114   5.100   6.524 -0.0950 -0.1385  0.0270
  247POPC   C3A 3452   4.207   5.333   6.905  0.2411 -0.0687  0.0714
  247POPC   C4A 3453   4.367   5.325   7.279  0.2641 -0.2188 -0.0628
  247POPC   C1B 3454   4.798   5.026   6.001  0.1401 -0.1493  0.5149
  247POPC   C2B 3455   5.252   4.919   5.816 -0.0242  0.1229 -0.2651
  247POPC   C3B 3456   5.461   4.596   6.061  0.2631  0.0484  0.2300
  247POPC   C4B 3457   5.512   4.131   6.305 -0.2629 -0.0149  0.1033
  248POPC   NC3 3458   8.628   2.526   4.713  0.2063  0.1643  0.5652
  248POPC   PO4 3459   8.310   2.346   4.788  0.6353 -0.0478 -0.0179
  248POPC   GL1 3460   8.263   2.397   5.224  0.1077 -0.0385  0.1932
  248POPC   GL2 3461   7.978   2.313   5.412 -0.1876 -0.0716  0.0993
  248POPC   C1A 3462   8.152   2.768   5.463  0.0385 -0.2203  0.2788
  248POPC   D2A 3463   7.828   2.978   5.734  0.0424 -0.0410 -0.1598
  248POPC   C3A 3464   7.896   3.083   6.095  0.3706  0.1281 -0.2308
  248POPC   C4A 3465   7.691   3.315   6.311  0.0238  0.0237 -0.3327
  248POPC   C1B 3466   8.122   2.434   5.883  0.2424 -0.5081  0.1733
  248POPC   C2B 3467   8.123   2.224   6.218  0.1433  0.1788  0.0662
  248POPC   C3B 3468   8.016   1.846   6.486 -0.0924 -0.0523 -0.3396
  248POPC   C4B 3469   7.908   1.617   6.857  0.1248 -0.0295  0.0328
  249POPC   NC3 3470   9.491   2.439   5.491 -0.0486  0.0693  0.0706
  249POPC   PO4 3471   9.424   2.137   5.266  0.0049  0.1889 -0.1018
  249POPC   GL1 3472   9.607   1.982   5.605  0.0392  0.3792 -0.3347
  249POPC   GL2 3473   9.374   1.770   5.833  0.0510 -0.4139  0.2371
  249POPC   C1A 3474   9.814   1.761   6.008 -0.1160 -0.1443 -0.2321
  249POPC   D2A 3475   9.892   1.708   6.510  0.1124 -0.0777  0.0706
  249POPC   C3A 3476   9.911   1.155   6.742 -0.0302  0.4586 -0.5307
  249POPC   C4A 3477   9.978   0.962   7.088 -0.3579 -0.0257  0.6022
  249POPC   C1B 3478   9.388   1.704   6.305  0.0544  0.3297 -0.0242
  249POPC   C2B 3479   9.103   1.733   6.704  0.0404 -0.1725  0.0949
  249POPC   C3B 3480   8.783   1.918   6.839 -0.0533 -0.2056  0.0203
  249POPC   C4B 3481   8.686   2.205   7.083  0.1441 -0.1258  0.1599
  250POPC   NC3 3482   1.519   2.780   4.994 -0.2259 -0.0025  0.0741
  250POPC   PO4 3483   1.272   3.187   4.756 -0.1190  0.3438 -0.0310
  250POPC   GL1 3484   1.431   3.360   5.071 -0.3025 -0.0081 -0.2030
  250POPC   GL2 3485   1.781   3.214   5.060 -0.1863 -0.3005 -0.1916
  250POPC   C1A 3486   1.308   3.438   5.507  0.0413  0.2003 -0.1359
  250POPC   D2A 3487   1.144   3.476   5.818  0.2241  0.1458  0.1168
  250POPC   C3A 3488   1.203   3.413   6.159  0.2840 -0.0397 -0.0795
  250POPC   C4A 3489   1.386   3.534   6.606  0.1987  0.2435  0.0063
  250POPC   C1B 3490   1.792   3.320   5.567 -0.4870  0.1466  0.0289
  250POPC   C2B 3491   1.672   3.430   6.066 -0.3966  0.2808  0.1931
  250POPC   C3B 3492   1.626   3.151   6.422 -0.1125 -0.0359  0.2355
  250POPC   C4B 3493   1.438   3.098   6.860  0.0626  0.0253  0.0044
  251POPC   NC3 3494   6.950   4.748   4.954 -0.2060  0.0110  0.3330
  251POPC   PO4 3495   7.374   4.731   5.043 -0.1287 -0.0371  0.0984
  251POPC   GL1 3496   7.392   4.747   5.493 -0.2998 -0.1791  0.0759
  251POPC   GL2 3497   7.670   4.887   5.676 -0.2656 -0.3618  0.0773
  251POPC   C1A 3498   7.356   4.533   5.902  0.1348 -0.3013  0.1602
  251POPC   D2A 3499   7.389   4.420   6.329  0.4245  0.1129 -0.3377
  251POPC   C3A 3500   6.919   4.385   6.482 -0.0072 -0.1000 -0.0266
  251POPC   C4A 3501   6.801   3.999   6.688 -0.3547  0.0133 -0.0681
  251POPC   C1B 3502   7.688   4.808   6.113  0.0225 -0.0459  0.1085
  251POPC   C2B 3503   7.775   4.731   6.413  0.1165  0.2219 -0.1678
  251POPC   C3B 3504   8.250   4.504   6.669 -0.0855 -0.1253 -0.1087
  251POPC   C4B 3505   8.699   4.664   6.748 -0.0382  0.0665  0.4214
  252POPC   NC3 3506   6.376   3.300   4.817  0.0636 -0.2542 -0.0379
  252POPC   PO4 3507   6.777   3.250   4.989 -0.3343 -0.0177 -0.2739
  252POPC   GL1 3508   6.596   3.452   5.308 -0.0752  0.0714  0.1209
  252POPC   GL2 3509   6.294   3.327   5.351  0.4039  0.0681  0.2599
  252POPC   C1A 3510   6.793   3.749   5.563  0.1395 -0.2053  0.2548
  252POPC   D2A 3511   6.912   3.703   6.063  0.2956 -0.0278 -0.0999
  252POPC   C3A 3512   7.130   3.952   6.300 -0.2396  0.1358 -0.3425
  252POPC   C4A 3513   7.344   3.976   5.981 -0.1453 -0.0932  0.1435
  252POPC   C1B 3514   6.440   3.267   5.762  0.1907 -0.2567 -0.4204
  252POPC   C2B 3515   6.425   3.107   6.193 -0.0801  0.1862  0.0359
  252POPC   C3B 3516   6.242   3.333   6.523  0.1131 -0.1340 -0.1915
  252POPC   C4B 3517   6.266   3.780   6.563  0.0739  0.0812 -0.2258
  253POPC   NC3 3518   5.837   1.173   4.430  0.0451 -0.2358 -0.0061
  253POPC   PO4 3519   6.230   1.319   4.753 -0.0509  0.1638  0.0575
  253POPC   GL1 3520   5.998   1.469   5.230  0.1948  0.1865 -0.0872
  253POPC   GL2 3521   6.351   1.569   5.308  0.1903  0.1899 -0.1230
  253POPC   C1A 3522   5.789   1.606   5.672 -0.1255 -0.2404  0.2805
  253POPC   D2A 3523   5.829   1.798   6.039 -0.4082  0.1909 -0.1017
  253POPC   C3A 3524   5.953   1.644   6.460 -0.0106  0.2272 -0.0314
  253POPC   C4A 3525   6.147   1.862   6.766  0.3219 -0.0569 -0.4010
  253POPC   C1B 3526   6.281   1.551   5.807 -0.3018  0.5751  0.1880
  253POPC   C2B 3527   6.344   1.646   6.194 -0.0482  0.0869 -0.2502
  253POPC   C3B 3528   6.374   1.461   6.621 -0.1328  0.0101  0.1496
  253POPC   C4B 3529   6.365   1.163   6.940  0.1053  0.2165 -0.0033
  254POPC   NC3 3530   5.877   2.524   5.047 -0.1044  0.2931  0.1013
  254POPC   PO4 3531   5.567   2.491   5.197 -0.1937  0.2218 -0.4071
  254POPC   GL1 3532   5.856   2.509   5.583 -0.1143  0.0323  0.0291
  254POPC   GL2 3533   6.035   2.824   5.595  0.1732 -0.2231 -0.0184
  254POPC   C1A 3534   5.929   2.371   5.998  0.0529 -0.1546 -0.1266
  254POPC   D2A 3535   5.849   2.264   6.482  0.1663 -0.1365 -0.1069
  254POPC   C3A 3536   5.674   2.087   6.745  0.2482 -0.0213 -0.0197
  254POPC   C4A 3537   5.639   1.770   6.946 -0.1972  0.0434 -0.1188
  254POPC   C1B 3538   6.037   2.906   5.998  0.1358  0.1092 -0.0080
  254POPC   C2B 3539   6.140   2.756   6.412  0.1031 -0.1017  0.1523
  254POPC   C3B 3540   6.049   2.920   6.787 -0.0687  0.2264 -0.1210
  254POPC   C4B 3541   6.101   3.103   7.077  0.0826  0.2386  0.1633
  255POPC   NC3 3542   3.651   0.110   4.763  0.0961 -0.1330  0.1193
  255POPC   PO4 3543   4.135   0.141   4.649 -0.1812  0.1488 -0.0952
  255POPC   GL1 3544   4.218   0.246   5.071  0.1180 -0.0286 -0.4200
  255POPC   GL2 3545   3.791   0.255   5.208  0.0640  0.0960  0.0841
  255POPC   C1A 3546   4.528   0.207   5.367 -0.0183  0.6294  0.1316
  255POPC   D2A 3547   4.854   0.258   5.596 -0.0620 -0.2505 -0.0715
  255POPC   C3A 3548   4.586   0.527   5.902 -0.1908 -0.1550 -0.1323
  255POPC   C4A 3549   4.697   1.003   6.117 -0.3848  0.1196  0.3392
  255POPC   C1B 3550   4.110   0.392   5.527 -0.1740  0.1058 -0.0208
  255POPC   C2B 3551   4.107   0.506   6.007  0.1344 -0.0459  0.1019
  255POPC   C3B 3552   3.958   0.720   6.495  0.0549 -0.0153  0.2573
  255POPC   C4B 3553   4.225   0.914   6.832  0.2112 -0.0536 -0.2377
  256POPC   NC3 3554   7.019   9.448   4.436 -0.4016 -0.0534  0.3561
  256POPC   PO4 3555   7.040   9.063   4.656 -0.3063  0.0046  0.0944
  256POPC   GL1 3556   7.081   9.186   5.102 -0.2680 -0.0146  0.0465
  256POPC   GL2 3557   6.961   8.956   5.263 -0.1033  0.2963 -0.0536
  256POPC   C1A 3558   7.240   9.427   5.414 -0.0808 -0.1715 -0.1842
  256POPC   D2A 3559   7.319   9.858   5.582 -0.2704 -0.2500  0.1156
  256POPC   C3A 3560   7.313   9.782   6.111 -0.2416 -0.0839  0.0937
  256POPC   C4A 3561   7.064   9.676   6.430 -0.4154 -0.1695  0.2292
  256POPC   C1B 3562   6.848   9.193   5.636  0.0502  0.1086 -0.0703
  256POPC   C2B 3563   7.042   9.270   5.933  0.0771 -0.1121  0.1736
  256POPC   C3B 3564   7.122   9.129   6.345 -0.0819 -0.0897  0.1838
  256POPC   C4B 3565   7.198   8.745   6.591 -0.1265 -0.1990 -0.0734
  257POPC   NC3 3566   3.357   1.806   5.218 -0.0437  0.1741 -0.2443
  257POPC   PO4 3567   3.166   2.154   4.896  0.0389  0.0759 -0.1999
  257POPC   GL1 3568   2.845   1.917   5.224 -0.0121 -0.1785 -0.0492
  257POPC   GL2 3569   2.940   1.611   5.355 -0.1906 -0.2598  0.1462
  257POPC   C1A 3570   2.409   1.725   5.402  0.0020  0.2676 -0.0967
  257POPC   D2A 3571   2.398   1.735   5.795 -0.3499 -0.0126 -0.1274
  257POPC   C3A 3572   2.155   1.824   6.150  0.1644 -0.1344  0.0774
  257POPC   C4A 3573   1.873   1.810   6.450 -0.1511 -0.0171  0.0796
  257POPC   C1B 3574   2.802   1.383   5.638 -0.1141 -0.1189 -0.2800
  257POPC   C2B 3575   2.768   1.308   6.046 -0.1272 -0.3223 -0.0717
  257POPC   C3B 3576   2.578   1.501   6.376  0.0178  0.2626  0.3576
  257POPC   C4B 3577   2.279   1.663   6.618  0.3182 -0.0231 -0.2401
  258POPC   NC3 3578  10.144   3.603   5.343 -0.3310 -0.0434  0.1616
  258POPC   PO4 3579  10.599   3.923   5.245 -0.1760  0.0628 -0.0151
  258POPC   GL1 3580  10.674   3.942   5.712 -0.0580  0.0437  0.1768
  258POPC   GL2 3581  11.013   4.148   5.706  0.0967  0.2388 -0.0689
  258POPC   C1A 3582  10.717   3.551   5.957 -0.2592 -0.4004  0.2574
  258POPC   D2A 3583  10.514   3.115   6.092 -0.1474  0.0170 -0.0244
  258POPC   C3A 3584  10.855   2.784   6.265 -0.2167  0.0190  0.0968
  258POPC   C4A 3585  11.284   2.678   6.454  0.0695  0.2503  0.1562
  258POPC   C1B 3586  11.047   4.210   6.172  0.1174 -0.0693  0.6210
  258POPC   C2B 3587  11.303   3.966   6.469 -0.0110  0.0608  0.1094
  258POPC   C3B 3588  11.347   3.588   6.587 -0.2544  0.1824  0.1996
  258POPC   C4B 3589  11.318   3.350   6.992  0.0049  0.0528 -0.0517
  259POPC   NC3 3590   2.684   4.264   5.111  0.2117  0.0206  0.1255
  259POPC   PO4 3591   2.260   3.968   5.125 -0.0099 -0.2948  0.4829
  259POPC   GL1 3592   2.236   4.090   5.511  0.1491 -0.2471  0.2127
  259POPC   GL2 3593   1.948   4.139   5.606 -0.0515  0.0807  0.0005
  259POPC   C1A 3594   2.417   4.097   5.937  0.0559 -0.1332  0.1779
  259POPC   D2A 3595   2.481   4.091   6.384 -0.0509  0.2277 -0.3751
  259POPC   C3A 3596   2.456   3.673   6.693 -0.1133 -0.0416  0.2894
  259POPC   C4A 3597   2.166   3.602   7.052  0.2816 -0.1705 -0.1248
  259POPC   C1B 3598   2.020   4.364   5.984  0.2012 -0.2354  0.0036
  259POPC   C2B 3599   2.251   4.480   6.254 -0.0790  0.0096  0.0379
  259POPC   C3B 3600   1.996   4.625   6.616  0.0549  0.0879 -0.1594
  259POPC   C4B 3601   1.881   4.485   6.987  0.0040  0.0654 -0.1243
  260POPC   NC3 3602   0.941   7.718   3.565  0.1097 -0.2987 -0.0448
  260POPC   PO4 3603   1.101   8.163   3.395 -0.0657  0.1443 -0.3162
  260POPC   GL1 3604   1.251   8.175   3.781 -0.0590 -0.0571  0.1196
  260POPC   GL2 3605   1.470   8.345   3.803  0.0632 -0.1367  0.0193
  260POPC   C1A 3606   1.375   7.936   4.193  0.0231 -0.1574 -0.0995
  260POPC   D2A 3607   1.347   8.058   4.672 -0.2152  0.0855 -0.3751
  260POPC   C3A 3608   1.635   7.765   5.018  0.1711 -0.0352 -0.1534
  260POPC   C4A 3609   1.767   7.583   5.453  0.1424  0.0883  0.1528
  260POPC   C1B 3610   1.868   8.405   3.997  0.0539 -0.0138  0.0911
  260POPC   C2B 3611   2.101   8.825   3.948  0.1080  0.0908 -0.0095
  260POPC   C3B 3612   2.299   9.213   4.242  0.0218 -0.1411  0.1481
  260POPC   C4B 3613   2.534   9.085   4.602  0.0986  0.0193 -0.0895
  261POPC   NC3 3614   8.691   6.296   4.889  0.0878  0.1745 -0.1816
  261POPC   PO4 3615   8.451   6.618   5.140 -0.1601  0.0531 -0.2605
  261POPC   GL1 3616   8.427   6.591   5.601  0.0312 -0.1581  0.1547
  261POPC   GL2 3617   8.408   6.381   5.876  0.1726 -0.0390  0.3077
  261POPC   C1A 3618   8.326   6.910   5.954 -0.1561  0.0106 -0.5072
  261POPC   D2A 3619   7.870   6.968   6.147  0.1071  0.0446  0.0409
  261POPC   C3A 3620   7.535   7.004   5.851 -0.2753 -0.1627  0.1276
  261POPC   C4A 3621   7.332   6.843   5.524  0.2223  0.1992  0.1588
  261POPC   C1B 3622   8.254   6.559   6.289  0.3322  0.1343 -0.0239
  261POPC   C2B 3623   8.108   6.894   6.581  0.1320 -0.3969  0.2155
  261POPC   C3B 3624   7.657   7.058   6.664  0.0441  0.0237  0.0071
  261POPC   C4B 3625   7.442   7.382   6.742 -0.3959  0.0788 -0.1575
  262POPC   NC3 3626   3.331   6.760   4.482 -0.0417  0.1045 -0.0542
  262POPC   PO4 3627   3.549   6.804   4.876  0.1652  0.1328  0.2520
  262POPC   GL1 3628   3.712   6.878   5.222  0.0446  0.0845  0.1410
  262POPC   GL2 3629   3.667   7.193   5.326 -0.1684  0.3191  0.0594
  262POPC   C1A 3630   3.486   6.777   5.638  0.0475  0.0198 -0.0990
  262POPC   D2A 3631   3.259   6.754   5.994 -0.1548 -0.0226 -0.0131
  262POPC   C3A 3632   2.873   6.885   6.041  0.0005  0.0004  0.2681
  262POPC   C4A 3633   2.787   6.944   6.424 -0.4929 -0.0419  0.0973
  262POPC   C1B 3634   3.590   7.396   5.741 -0.1171 -0.0329 -0.2079
  262POPC   C2B 3635   3.630   7.576   6.173  0.2162  0.4990  0.1072
  262POPC   C3B 3636   3.364   7.669   6.445  0.0799  0.2391  0.1233
  262POPC   C4B 3637   3.082   7.703   6.723  0.4510 -0.0325 -0.1725
  263POPC   NC3 3638   7.335   0.434   5.164 -0.1140  0.1870 -0.0055
  263POPC   PO4 3639   6.967   0.094   4.997  0.1126  0.1896 -0.3238
  263POPC   GL1 3640   6.940   0.092   5.462  0.0549 -0.4607 -0.1287
  263POPC   GL2 3641   6.945  -0.250   5.572  0.0460  0.4092  0.0456
  263POPC   C1A 3642   7.025   0.306   5.824 -0.0395 -0.0690  0.0321
  263POPC   D2A 3643   7.159   0.312   6.241 -0.3267 -0.0117  0.3164
  263POPC   C3A 3644   7.227   0.097   6.654  0.1122 -0.2357 -0.1759
  263POPC   C4A 3645   7.412  -0.092   6.931 -0.0059 -0.0619  0.0014
  263POPC   C1B 3646   6.901  -0.212   5.970 -0.0995 -0.2241 -0.0037
  263POPC   C2B 3647   6.782  -0.315   6.405 -0.1686  0.1565  0.0469
  263POPC   C3B 3648   6.859  -0.391   6.756 -0.3876  0.3928 -0.0903
  263POPC   C4B 3649   7.051  -0.292   7.182  0.3918  0.1950  0.0176
  264POPC   NC3 3650   9.801   8.998   3.875 -0.1186 -0.2732 -0.1855
  264POPC   PO4 3651  10.201   8.715   3.772  0.1286 -0.1119 -0.1081
  264POPC   GL1 3652  10.552   8.706   4.179  0.0518  0.2798 -0.3092
  264POPC   GL2 3653  10.709   9.058   4.157  0.1003  0.2228 -0.0370
  264POPC   C1A 3654  10.578   8.791   4.643 -0.3803 -0.3177  0.0765
  264POPC   D2A 3655  10.447   8.964   5.085 -0.0124 -0.1593 -0.1053
  264POPC   C3A 3656  10.153   8.658   5.233 -0.0506 -0.0201 -0.0439
  264POPC   C4A 3657   9.725   8.517   5.202 -0.4022 -0.2814 -0.1807
  264POPC   C1B 3658  10.768   9.549   4.328 -0.1037 -0.0150 -0.4564
  264POPC   C2B 3659  10.506   9.803   4.585 -0.2405 -0.0367  0.2854
  264POPC   C3B 3660  10.280  10.176   4.699 -0.1415 -0.0932 -0.0414
  264POPC   C4B 3661  10.419  10.515   5.068 -0.0223 -0.0487  0.0623
  265POPC   NC3 3662   6.602   0.931   4.590  0.0464 -0.1123  0.2965
  265POPC   PO4 3663   6.504   0.750   4.872  0.0712 -0.1547  0.2260
  265POPC   GL1 3664   6.176   0.893   5.160 -0.3891  0.0666  0.1983
  265POPC   GL2 3665   6.383   0.809   5.423  0.0563 -0.2951 -0.0962
  265POPC   C1A 3666   6.050   1.155   5.593  0.1613  0.0458 -0.2578
  265POPC   D2A 3667   6.320   1.054   5.978  0.1453 -0.1512 -0.0329
  265POPC   C3A 3668   6.224   0.627   6.146  0.0157  0.0680 -0.1093
  265POPC   C4A 3669   6.211   0.404   6.428  0.1293 -0.0540  0.0853
  265POPC   C1B 3670   6.745   0.700   5.764  0.1170 -0.1633  0.1124
  265POPC   C2B 3671   6.750   0.766   6.232  0.0150  0.1117  0.2646
  265POPC   C3B 3672   7.021   0.634   6.639  0.1247  0.0066  0.1710
  265POPC   C4B 3673   7.365   0.922   6.848  0.3741  0.1302  0.1763
  266POPC   NC3 3674   1.942   5.635   4.798 -0.3580  0.0089 -0.2013
  266POPC   PO4 3675   2.178   5.969   4.679  0.3675 -0.0388 -0.0201
  266POPC   GL1 3676   1.789   6.112   4.795  0.2127  0.0293 -0.0873
  266POPC   GL2 3677   1.589   6.092   4.618 -0.0356  0.0547 -0.0003
  266POPC   C1A 3678   1.823   6.374   5.112 -0.1011  0.0186 -0.0642
  266POPC   D2A 3679   1.703   6.635   5.374  0.3656 -0.0652  0.2688
  266POPC   C3A 3680   1.901   6.625   5.783  0.0477 -0.1588 -0.0440
  266POPC   C4A 3681   1.929   6.537   6.233  0.3623  0.1830 -0.0788
  266POPC   C1B 3682   1.390   5.964   5.045 -0.0043 -0.5201 -0.2260
  266POPC   C2B 3683   1.499   6.147   5.443  0.3058  0.1544  0.2789
  266POPC   C3B 3684   1.433   6.252   5.879  0.1789 -0.0360 -0.0151
  266POPC   C4B 3685   1.564   6.158   6.365  0.3175 -0.0710 -0.0020
  267POPC   NC3 3686   2.747   0.102   4.655  0.1245  0.3131  0.2191
  267POPC   PO4 3687   3.206  -0.053   4.609  0.1737  0.0785 -0.0321
  267POPC   GL1 3688   3.281  -0.102   5.035 -0.0508  0.1926 -0.3834
  267POPC   GL2 3689   2.951  -0.154   5.134  0.0466 -0.2039  0.0398
  267POPC   C1A 3690   3.539  -0.264   5.292 -0.0800  0.0226  0.2114
  267POPC   D2A 3691   3.706  -0.427   5.608  0.3563  0.0739 -0.2345
  267POPC   C3A 3692   4.186  -0.554   5.647  0.2835 -0.3493 -0.0779
  267POPC   C4A 3693   4.409  -0.860   5.690  0.0030  0.2806  0.2249
  267POPC   C1B 3694   2.996  -0.377   5.452 -0.1754  0.1566  0.1037
  267POPC   C2B 3695   3.184  -0.578   5.747  0.5460  0.4768 -0.1777
  267POPC   C3B 3696   3.456  -0.775   5.935 -0.1309 -0.1884 -0.1337
  267POPC   C4B 3697   3.851  -0.570   6.075  0.1771  0.0585  0.1668
  268POPC   NC3 3698   9.406   8.401   4.310  0.2363 -0.2394  0.0037
  268POPC   PO4 3699   9.048   8.681   4.429  0.2565  0.0404  0.3650
  268POPC   GL1 3700   9.026   8.915   4.821  0.1233  0.3320  0.1362
  268POPC   GL2 3701   8.731   8.635   4.960  0.0033 -0.1508 -0.0642
  268POPC   C1A 3702   9.118   8.783   5.235 -0.0094 -0.1437  0.0869
  268POPC   D2A 3703   8.987   8.830   5.667 -0.3080  0.3599 -0.0166
  268POPC   C3A 3704   9.069   8.914   6.127 -0.3173 -0.3459  0.0351
  268POPC   C4A 3705   9.136   9.140   6.574 -0.1043 -0.2283  0.0198
  268POPC   C1B 3706   8.848   8.373   5.363  0.5140  0.0836  0.0463
  268POPC   C2B 3707   8.622   8.443   5.768  0.2132  0.2389  0.0143
  268POPC   C3B 3708   8.355   8.347   6.144  0.1819  0.0954 -0.5002
  268POPC   C4B 3709   8.328   8.674   6.587 -0.2365  0.0764  0.1235
  269POPC   NC3 3710   7.311   3.616   5.130 -0.1107  0.2578  0.1764
  269POPC   PO4 3711   7.718   3.772   5.252  0.0557  0.0765 -0.1811
  269POPC   GL1 3712   7.566   3.568   5.552  0.3515 -0.2021  0.2212
  269POPC   GL2 3713   7.795   3.499   5.807 -0.0755 -0.0889  0.3094
  269POPC   C1A 3714   7.367   3.469   5.957 -0.2003 -0.0344  0.2598
  269POPC   D2A 3715   7.154   3.452   6.429  0.1936  0.0747  0.3455
  269POPC   C3A 3716   7.045   3.600   6.844  0.0585 -0.1734 -0.0163
  269POPC   C4A 3717   6.982   3.871   7.143  0.2151 -0.1087  0.0184
  269POPC   C1B 3718   7.819   3.765   6.082 -0.0379  0.0893  0.1058
  269POPC   C2B 3719   7.590   3.938   6.471 -0.0279  0.1495 -0.1984
  269POPC   C3B 3720   7.424   3.990   6.865 -0.1667  0.2957  0.1743
  269POPC   C4B 3721   7.669   3.722   7.178 -0.6532  0.2327  0.3287
  270POPC   NC3 3722   2.764   1.312   4.840  0.0039  0.2547 -0.0951
  270POPC   PO4 3723   2.417   1.232   4.485 -0.0068 -0.1377 -0.0990
  270POPC   GL1 3724   2.101   0.954   4.686 -0.0240 -0.0903 -0.1700
  270POPC   GL2 3725   2.130   0.578   4.688  0.0725 -0.2156  0.0661
  270POPC   C1A 3726   2.044   0.871   5.117 -0.3068 -0.2429 -0.1350
  270POPC   D2A 3727   2.306   0.637   5.389  0.0962  0.0589 -0.0612
  270POPC   C3A 3728   2.382   0.253   5.609  0.0728  0.2290 -0.2127
  270POPC   C4A 3729   2.112  -0.060   5.912  0.0865 -0.3112 -0.0742
  270POPC   C1B 3730   1.941   0.345   5.050  0.1280 -0.1347 -0.2236
  270POPC   C2B 3731   1.884   0.416   5.458  0.0853 -0.1946  0.0841
  270POPC   C3B 3732   1.954   0.900   5.799 -0.0091 -0.0580 -0.0057
  270POPC   C4B 3733   2.142   1.273   5.918 -0.1367  0.0698  0.1431
  271POPC   NC3 3734   9.813   4.320   4.919 -0.2291 -0.3017 -0.0344
  271POPC   PO4 3735   9.990   4.663   4.668  0.3293  0.0292 -0.1535
  271POPC   GL1 3736   9.913   4.777   5.167 -0.2987 -0.1502 -0.2406
  271POPC   GL2 3737  10.166   5.016   5.410 -0.2026  0.0390  0.0492
  271POPC   C1A 3738   9.673   5.064   5.550 -0.0840 -0.4424 -0.0743
  271POPC   D2A 3739   9.375   5.046   5.966  0.3540  0.0021 -0.0179
  271POPC   C3A 3740   9.639   4.996   6.349  0.0233  0.2684  0.0920
  271POPC   C4A 3741   9.537   5.044   6.850 -0.2586  0.1596  0.0764
  271POPC   C1B 3742  10.150   5.289   5.763  0.0600 -0.2210 -0.2224
  271POPC   C2B 3743  10.075   5.289   6.215  0.1434 -0.0043 -0.0148
  271POPC   C3B 3744   9.960   5.408   6.597 -0.1505 -0.0152 -0.2043
  271POPC   C4B 3745   9.757   5.480   6.907  0.0281  0.0237 -0.0863
  272POPC   NC3 3746   1.697   7.208   3.198 -0.0669  0.4097 -0.0350
  272POPC   PO4 3747   1.517   7.195   3.584 -0.0681  0.1755 -0.1702
  272POPC   GL1 3748   1.360   7.328   3.993 -0.1245 -0.1039 -0.1435
  272POPC   GL2 3749   1.019   7.475   3.992  0.1057 -0.0935 -0.0820
  272POPC   C1A 3750   1.485   7.201   4.403  0.2330  0.1902  0.1169
  272POPC   D2A 3751   1.472   7.143   4.975  0.3484 -0.0435 -0.1454
  272POPC   C3A 3752   1.286   7.437   5.233  0.0644  0.2028  0.2620
  272POPC   C4A 3753   1.247   7.287   5.628 -0.5197  0.0536  0.2880
  272POPC   C1B 3754   1.159   7.576   4.401 -0.2079  0.1323 -0.0028
  272POPC   C2B 3755   1.100   7.644   4.802  0.0296  0.0820 -0.2558
  272POPC   C3B 3756   1.113   7.878   5.134 -0.1190 -0.2705  0.2704
  272POPC   C4B 3757   1.320   8.298   5.190 -0.1613 -0.0104 -0.2248
  273POPC   NC3 3758   2.507   4.834   4.841 -0.3321  0.0929  0.0989
  273POPC   PO4 3759   2.314   4.975   5.148  0.0833  0.0419  0.1199
  273POPC   GL1 3760   2.280   5.122   5.571  0.1487 -0.2239  0.0027
  273POPC   GL2 3761   2.196   5.458   5.523  0.2769 -0.0821  0.2560
  273POPC   C1A 3762   2.325   5.283   5.974  0.2087  0.1689 -0.1537
  273POPC   D2A 3763   2.207   5.430   6.349  0.0736  0.3127 -0.0690
  273POPC   C3A 3764   2.034   5.897   6.347  0.3083  0.1176  0.0028
  273POPC   C4A 3765   1.812   6.163   6.788  0.0221  0.1402 -0.2504
  273POPC   C1B 3766   2.219   5.811   5.898 -0.2172 -0.1425 -0.0523
  273POPC   C2B 3767   2.286   6.207   5.998  0.2569  0.1688  0.1524
  273POPC   C3B 3768   2.281   6.323   6.486  0.1529  0.5134 -0.2412
  273POPC   C4B 3769   2.349   6.537   6.862 -0.0722 -0.0710  0.1596
  274POPC   NC3 3770   3.053   5.439   4.451  0.0079 -0.1640  0.0881
  274POPC   PO4 3771   2.980   5.657   4.937  0.0751  0.1969  0.1861
  274POPC   GL1 3772   3.065   5.598   5.352  0.3773  0.1382  0.0262
  274POPC   GL2 3773   3.145   5.357   5.577  0.0187  0.0372 -0.1360
  274POPC   C1A 3774   3.092   5.833   5.743 -0.0954 -0.4223 -0.3133
  274POPC   D2A 3775   3.248   6.220   5.980  0.1745 -0.1519  0.0633
  274POPC   C3A 3776   3.229   6.167   6.489 -0.1846 -0.0544 -0.0440
  274POPC   C4A 3777   3.369   6.307   6.978 -0.2137 -0.0615 -0.0375
  274POPC   C1B 3778   3.100   5.252   6.057  0.2769 -0.0616  0.1606
  274POPC   C2B 3779   3.112   4.866   6.312 -0.2713 -0.2123 -0.1043
  274POPC   C3B 3780   3.500   4.641   6.521  0.1718  0.1125  0.1761
  274POPC   C4B 3781   3.682   4.314   6.544 -0.0507 -0.1354  0.2329
  275POPC   NC3 3782   8.613   5.179   5.037  0.3486 -0.0973  0.1233
  275POPC   PO4 3783   8.216   5.433   5.200  0.2586  0.0215 -0.1264
  275POPC   GL1 3784   8.082   5.428   5.595 -0.0965  0.0054  0.3235
  275POPC   GL2 3785   7.780   5.501   5.647  0.0836 -0.1600  0.0531
  275POPC   C1A 3786   8.225   5.163   5.937  0.1004  0.1378  0.1486
  275POPC   D2A 3787   8.169   5.159   6.341 -0.4687 -0.5319  0.0870
  275POPC   C3A 3788   8.056   5.665   6.538 -0.3379 -0.1292 -0.0068
  275POPC   C4A 3789   7.706   5.900   6.588 -0.1800  0.1770 -0.0426
  275POPC   C1B 3790   7.740   5.303   5.968  0.0840 -0.0990 -0.1383
  275POPC   C2B 3791   7.648   5.209   6.365 -0.1746  0.0972 -0.0436
  275POPC   C3B 3792   7.431   5.368   6.653  0.0440  0.2074 -0.1944
  275POPC   C4B 3793   7.443   5.449   7.215 -0.1644 -0.1560  0.4073
  276POPC   NC3 3794   4.333   1.542   4.925  0.1788  0.0842  0.1548
  276POPC   PO4 3795   4.179   1.138   4.961  0.0734 -0.1108  0.0646
  276POPC   GL1 3796   4.255   1.368   5.383  0.1929  0.3155  0.0561
  276POPC   GL2 3797   4.232   1.630   5.448 -0.1625 -0.0144 -0.0552
  276POPC   C1A 3798   4.284   0.996   5.730 -0.2086 -0.1483 -0.2621
  276POPC   D2A 3799   4.218   0.996   6.180 -0.1594  0.2522  0.2619
  276POPC   C3A 3800   4.365   1.269   6.488  0.1130  0.1733  0.1944
  276POPC   C4A 3801   4.660   1.216   6.960  0.0131 -0.3749 -0.1706
  276POPC   C1B 3802   3.968   1.405   5.895  0.1810  0.1599 -0.1152
  276POPC   C2B 3803   3.740   1.275   6.256 -0.1273  0.2934 -0.0960
  276POPC   C3B 3804   3.509   1.066   6.565 -0.0518 -0.0140  0.1824
  276POPC   C4B 3805   3.228   0.835   6.857  0.2444 -0.3520  0.3735
  277POPC   NC3 3806   5.562   6.899   4.438  0.2155  0.3471 -0.3044
  277POPC   PO4 3807   6.012   6.797   4.661  0.1871 -0.2434  0.2734
  277POPC   GL1 3808   5.987   6.943   5.106  0.2352 -0.3059  0.0855
  277POPC   GL2 3809   5.871   6.886   5.279  0.3691 -0.0734 -0.2580
  277POPC   C1A 3810   6.203   7.305   5.438  0.2578 -0.1096 -0.0478
  277POPC   D2A 3811   6.384   7.615   5.743  0.1393  0.0089  0.2473
  277POPC   C3A 3812   6.754   7.572   6.044 -0.3011 -0.2513  0.4928
  277POPC   C4A 3813   6.913   7.427   6.451 -0.0997  0.0287  0.2406
  277POPC   C1B 3814   5.939   6.796   5.713  0.2300 -0.2031  0.0229
  277POPC   C2B 3815   5.790   6.953   6.052 -0.0672 -0.3197 -0.0587
  277POPC   C3B 3816   5.648   7.321   6.185 -0.0481 -0.0072 -0.1592
  277POPC   C4B 3817   5.586   7.444   6.686 -0.0538  0.1360  0.1327
  278POPC   NC3 3818   1.401   1.084   4.074  0.1272 -0.0478 -0.0076
  278POPC   PO4 3819   0.972   1.211   4.246 -0.3961  0.0121  0.1115
  278POPC   GL1 3820   0.823   1.148   4.631 -0.0799  0.1781 -0.1302
  278POPC   GL2 3821   1.015   1.250   4.922 -0.1549 -0.1684 -0.0850
  278POPC   C1A 3822   0.594   1.078   5.022 -0.3133 -0.1478  0.0309
  278POPC   D2A 3823   0.643   1.096   5.521  0.0755  0.0203  0.0471
  278POPC   C3A 3824   0.675   0.827   5.826 -0.1627 -0.0867  0.0061
  278POPC   C4A 3825   0.736   0.585   6.157  0.0959 -0.0864  0.1098
  278POPC   C1B 3826   1.101   1.175   5.325 -0.0348  0.2769  0.0611
  278POPC   C2B 3827   1.118   0.854   5.663  0.0378 -0.0012 -0.1832
  278POPC   C3B 3828   1.072   0.451   5.831 -0.0043 -0.1337  0.4350
  278POPC   C4B 3829   1.146   0.212   6.202  0.1375 -0.0694 -0.1898
  279POPC   NC3 3830  10.322   9.206   3.835 -0.0251 -0.1128  0.1448
  279POPC   PO4 3831  10.745   9.332   3.676  0.0806  0.1741  0.3332
  279POPC   GL1 3832  11.125   9.179   3.887 -0.0801  0.0607  0.0491
  279POPC   GL2 3833  11.235   9.183   4.226  0.0368 -0.0543 -0.2671
  279POPC   C1A 3834  11.405   8.853   3.892 -0.2017 -0.0624 -0.1037
  279POPC   D2A 3835  11.936   8.796   3.960  0.0463 -0.3799  0.1633
  279POPC   C3A 3836  12.196   9.011   4.239  0.0897 -0.4161  0.1982
  279POPC   C4A 3837  12.260   9.397   4.274  0.0736  0.2202 -0.1522
  279POPC   C1B 3838  11.092   9.313   4.643  0.2208  0.1127 -0.2409
  279POPC   C2B 3839  10.750   9.284   4.869  0.1828 -0.4105 -0.0716
  279POPC   C3B 3840  10.393   9.324   4.698 -0.0655  0.0669 -0.2034
  279POPC   C4B 3841   9.877   9.411   4.623  0.1316 -0.2718 -0.1488
  280POPC   NC3 3842   2.982   3.497   4.693 -0.0073 -0.0004  0.0300
  280POPC   PO4 3843   2.671   3.317   4.938 -0.0001  0.0232 -0.0830
  280POPC   GL1 3844   2.632   3.223   5.380 -0.1660  0.3895 -0.0205
  280POPC   GL2 3845   2.471   3.017   5.359  0.5081  0.1177 -0.1484
  280POPC   C1A 3846   2.546   3.532   5.710 -0.1133 -0.0593 -0.1882
  280POPC   D2A 3847   2.089   3.615   5.857 -0.1227  0.0166  0.1749
  280POPC   C3A 3848   2.126   3.601   6.290 -0.1113 -0.1909  0.3279
  280POPC   C4A 3849   1.886   3.620   6.589 -0.5203 -0.1053 -0.3178
  280POPC   C1B 3850   2.232   3.124   5.691  0.2368 -0.2094  0.1087
  280POPC   C2B 3851   2.161   3.126   6.132 -0.0171  0.0530  0.0321
  280POPC   C3B 3852   2.118   3.135   6.521 -0.0842 -0.2321 -0.0329
  280POPC   C4B 3853   2.061   3.121   6.996  0.0303 -0.1722  0.1339
  281POPC   NC3 3854   8.182   9.370   5.083 -0.1802  0.0465  0.2994
  281POPC   PO4 3855   8.275   8.868   4.849  0.1752 -0.0606  0.2595
  281POPC   GL1 3856   8.263   8.902   5.261  0.1559 -0.5637  0.2890
  281POPC   GL2 3857   8.575   8.801   5.378 -0.0486 -0.0039  0.1572
  281POPC   C1A 3858   8.070   8.966   5.612  0.3225  0.2599 -0.0035
  281POPC   D2A 3859   8.091   8.772   6.066 -0.0933 -0.0180  0.1478
  281POPC   C3A 3860   7.649   8.677   6.255 -0.0359  0.1296 -0.0775
  281POPC   C4A 3861   7.582   8.424   6.580 -0.1924  0.0658 -0.1365
  281POPC   C1B 3862   8.512   9.062   5.785 -0.1750 -0.1903  0.3107
  281POPC   C2B 3863   8.605   8.807   6.199 -0.1882  0.1208  0.1426
  281POPC   C3B 3864   8.895   8.703   6.566  0.1927  0.0601 -0.0003
  281POPC   C4B 3865   8.848   8.899   7.011 -0.0848  0.2121  0.0246
  282POPC   NC3 3866   4.629   3.582   5.513 -0.2002  0.0555 -0.1231
  282POPC   PO4 3867   4.501   3.163   5.389  0.3026  0.1537 -0.1508
  282POPC   GL1 3868   4.620   3.137   5.890 -0.0015 -0.1030 -0.2663
  282POPC   GL2 3869   4.810   2.912   5.760  0.0591  0.0296 -0.2123
  282POPC   C1A 3870   4.538   2.947   6.199 -0.0570  0.1323  0.0174
  282POPC   D2A 3871   4.639   2.633   6.399  0.1474 -0.0362  0.1574
  282POPC   C3A 3872   4.638   2.143   6.325 -0.0953 -0.0291 -0.6225
  282POPC   C4A 3873   4.636   1.721   6.459 -0.2024 -0.0016  0.3168
  282POPC   C1B 3874   5.031   2.646   5.964  0.0179  0.0064  0.3027
  282POPC   C2B 3875   5.150   2.791   6.390 -0.0111  0.2880  0.0897
  282POPC   C3B 3876   4.941   3.002   6.649  0.1343 -0.0483 -0.0699
  282POPC   C4B 3877   4.738   3.408   6.530  0.3282  0.0604  0.0464
  283POPC   NC3 3878   7.765   5.722   5.217  0.0145 -0.1967 -0.1555
  283POPC   PO4 3879   7.448   5.782   5.165 -0.1824  0.0365  0.2342
  283POPC   GL1 3880   7.300   6.028   5.503  0.2314  0.2836  0.0965
  283POPC   GL2 3881   7.552   5.970   5.676 -0.0689  0.2381 -0.1036
  283POPC   C1A 3882   7.080   6.134   5.794  0.1643 -0.0019  0.3317
  283POPC   D2A 3883   6.836   6.161   6.187  0.0851 -0.1569  0.0593
  283POPC   C3A 3884   6.814   5.895   6.556  0.1522  0.0061  0.3192
  283POPC   C4A 3885   7.111   5.723   6.871 -0.1706  0.2946  0.1864
  283POPC   C1B 3886   7.779   5.836   6.035 -0.1385 -0.1581  0.1411
  283POPC   C2B 3887   8.255   6.042   6.232  0.2176 -0.1269  0.0330
  283POPC   C3B 3888   8.643   6.257   6.399 -0.0618  0.0082 -0.3051
  283POPC   C4B 3889   9.006   6.442   6.631  0.5166  0.1772 -0.0227
  284POPC   NC3 3890   1.836   5.099   5.318  0.2339 -0.0333 -0.0152
  284POPC   PO4 3891   1.581   5.251   4.936  0.1863 -0.1811 -0.0411
  284POPC   GL1 3892   1.369   5.305   5.279  0.1373  0.1655  0.1298
  284POPC   GL2 3893   1.017   5.189   5.349  0.2043  0.0128  0.0173
  284POPC   C1A 3894   1.348   5.319   5.709 -0.0971 -0.1486  0.0187
  284POPC   D2A 3895   1.195   5.393   6.104 -0.2395 -0.0730 -0.1407
  284POPC   C3A 3896   1.339   5.068   6.221  0.3846 -0.0426 -0.0143
  284POPC   C4A 3897   1.549   4.816   5.887  0.2990  0.0900 -0.0536
  284POPC   C1B 3898   0.874   5.316   5.690 -0.0587  0.0771  0.4945
  284POPC   C2B 3899   0.732   5.270   5.987 -0.1456 -0.1187 -0.0218
  284POPC   C3B 3900   0.504   5.174   6.424 -0.1669 -0.0111  0.1761
  284POPC   C4B 3901   0.487   4.998   6.742  0.1206 -0.3357  0.0124
  285POPC   NC3 3902   4.450   8.486   4.745  0.4940  0.2111  0.3146
  285POPC   PO4 3903   4.828   8.169   4.811  0.1560  0.2432  0.0487
  285POPC   GL1 3904   4.833   8.164   5.203  0.1301  0.0796 -0.1612
  285POPC   GL2 3905   5.100   8.397   5.228  0.0113 -0.3825 -0.0773
  285POPC   C1A 3906   4.625   8.162   5.649  0.0708  0.0734  0.1759
  285POPC   D2A 3907   4.548   8.112   5.953 -0.2544  0.1692  0.5332
  285POPC   C3A 3908   4.972   8.055   6.129  0.1817 -0.0546  0.1868
  285POPC   C4A 3909   5.217   7.605   6.054  0.0091  0.0109 -0.1552
  285POPC   C1B 3910   5.023   8.573   5.597 -0.1162 -0.0334 -0.0421
  285POPC   C2B 3911   5.165   8.540   6.013 -0.0074 -0.1287  0.3328
  285POPC   C3B 3912   5.454   8.293   6.256  0.1058 -0.0111  0.0238
  285POPC   C4B 3913   5.626   8.074   6.664 -0.1811 -0.3597 -0.2051
  286POPC   NC3 3914   8.977   2.286   5.315  0.1256  0.0341  0.1614
  286POPC   PO4 3915   9.164   2.704   5.163 -0.1750  0.1896  0.3576
  286POPC   GL1 3916   9.011   2.706   5.598  0.0052 -0.0788  0.4374
  286POPC   GL2 3917   9.051   2.362   5.802  0.4139  0.3594  0.0581
  286POPC   C1A 3918   8.930   2.851   5.979  0.0917  0.0875  0.1054
  286POPC   D2A 3919   8.763   2.944   6.461  0.0376 -0.2137  0.1190
  286POPC   C3A 3920   8.835   3.040   6.929 -0.1507  0.0304  0.1901
  286POPC   C4A 3921   8.913   3.171   7.345  0.1273 -0.1571 -0.0706
  286POPC   C1B 3922   9.266   2.535   6.147  0.3690 -0.1654 -0.1377
  286POPC   C2B 3923   9.442   2.676   6.530 -0.0332 -0.0221  0.0980
  286POPC   C3B 3924   9.615   2.562   6.895  0.3929  0.2640  0.0782
  286POPC   C4B 3925   9.962   2.376   6.850  0.1086  0.0419  0.0308
  287POPC   NC3 3926   4.267   3.948   4.780 -0.0872  0.2136  0.3058
  287POPC   PO4 3927   4.549   3.707   5.039 -0.0317 -0.3158 -0.3193
  287POPC   GL1 3928   4.182   3.603   5.310 -0.1051 -0.0348 -0.1302
  287POPC   GL2 3929   4.136   3.865   5.608 -0.0005 -0.0103  0.0890
  287POPC   C1A 3930   3.974   3.441   5.713  0.2986  0.0093  0.0059
  287POPC   D2A 3931   3.505   3.406   5.720 -0.2485  0.1139  0.0605
  287POPC   C3A 3932   3.174   3.548   5.995  0.4675 -0.1415 -0.2282
  287POPC   C4A 3933   3.217   3.398   6.286  0.1784 -0.1223  0.0407
  287POPC   C1B 3934   4.161   3.855   6.040  0.0167 -0.0318 -0.1307
  287POPC   C2B 3935   4.086   4.093   6.340 -0.2484  0.0465 -0.0789
  287POPC   C3B 3936   4.047   4.013   6.831 -0.0946 -0.2256  0.0417
  287POPC   C4B 3937   4.349   3.964   7.179 -0.2148 -0.1638 -0.3195
  288POPC   NC3 3938   9.279   1.510   5.447 -0.0887  0.1097 -0.1394
  288POPC   PO4 3939   8.912   1.823   5.584 -0.1521 -0.2013 -0.0479
  288POPC   GL1 3940   8.538   2.045   5.657  0.0922 -0.0607 -0.3829
  288POPC   GL2 3941   8.531   2.337   5.611 -0.2047 -0.3876  0.0479
  288POPC   C1A 3942   8.171   1.970   5.798 -0.0975  0.0750 -0.0353
  288POPC   D2A 3943   7.742   1.895   6.022 -0.1547  0.2245  0.2489
  288POPC   C3A 3944   7.697   1.465   6.251 -0.1087  0.0474 -0.2749
  288POPC   C4A 3945   7.793   1.185   6.654 -0.0976  0.1624 -0.0387
  288POPC   C1B 3946   8.658   2.415   6.099 -0.1196 -0.2246  0.3495
  288POPC   C2B 3947   8.757   2.443   6.559 -0.4226 -0.1195  0.0367
  288POPC   C3B 3948   9.027   2.611   6.845  0.2101  0.4286 -0.3804
  288POPC   C4B 3949   9.299   2.619   7.223  0.0793 -0.0048 -0.3731
  289POPC   NC3 3950   4.424   0.464   4.471  0.1093  0.0052 -0.0715
  289POPC   PO4 3951   4.489   0.769   4.750 -0.0613 -0.3156 -0.0638
  289POPC   GL1 3952   4.680   0.652   5.146  0.3146 -0.0889 -0.0214
  289POPC   GL2 3953   4.364   0.718   5.277 -0.3063  0.4224  0.0749
  289POPC   C1A 3954   4.951   0.702   5.437  0.0948 -0.0596  0.0014
  289POPC   D2A 3955   5.069   0.695   5.875 -0.2106  0.0854  0.1316
  289POPC   C3A 3956   5.181   0.825   6.204  0.1583 -0.0571 -0.3408
  289POPC   C4A 3957   5.318   0.955   6.545  0.0327  0.0320 -0.2031
  289POPC   C1B 3958   4.673   1.096   5.452 -0.1027  0.1218  0.1302
  289POPC   C2B 3959   5.026   1.272   5.701 -0.0244  0.0925  0.1024
  289POPC   C3B 3960   5.434   1.201   5.952 -0.0153  0.2256  0.0884
  289POPC   C4B 3961   5.895   1.300   6.106  0.2805  0.3738  0.1123
  290POPC   NC3 3962   8.583  10.342   4.888  0.1799 -0.1207  0.1890
  290POPC   PO4 3963   8.212  10.674   4.676 -0.0762 -0.1941  0.0049
  290POPC   GL1 3964   8.210  10.604   5.206  0.1249 -0.0119  0.1369
  290POPC   GL2 3965   8.363  10.946   5.436 -0.1302 -0.3598 -0.2017
  290POPC   C1A 3966   8.122  10.449   5.640 -0.1612 -0.2918  0.0379
  290POPC   D2A 3967   7.875  10.462   5.947  0.0567 -0.3116 -0.2919
  290POPC   C3A 3968   7.611  10.914   5.992 -0.1023  0.1863 -0.2290
  290POPC   C4A 3969   7.321  11.115   5.733  0.1543 -0.0899  0.1830
  290POPC   C1B 3970   8.581  10.779   5.779  0.0238  0.2265  0.1777
  290POPC   C2B 3971   8.346  10.605   6.082  0.2230 -0.6089  0.3100
  290POPC   C3B 3972   8.072  10.488   6.381 -0.2965  0.3696  0.1244
  290POPC   C4B 3973   7.699  10.537   6.508 -0.2328  0.3273  0.3208
  291POPC   NC3 3974   1.341   3.945   4.733 -0.1679 -0.3697 -0.2071
  291POPC   PO4 3975   1.346   4.364   4.909  0.2121 -0.0451  0.1696
  291POPC   GL1 3976   1.365   4.412   5.400 -0.2806  0.2091  0.1777
  291POPC   GL2 3977   1.277   4.797   5.360 -0.1052 -0.1614  0.1089
  291POPC   C1A 3978   1.516   4.296   5.821  0.3966  0.2084  0.3874
  291POPC   D2A 3979   1.676   4.424   6.274  0.0870  0.3406 -0.0980
  291POPC   C3A 3980   1.519   4.730   6.595 -0.0414 -0.0351 -0.0910
  291POPC   C4A 3981   1.494   5.202   6.704 -0.0782 -0.0296  0.1263
  291POPC   C1B 3982   1.057   4.818   5.770 -0.1684 -0.0846 -0.2423
  291POPC   C2B 3983   0.925   4.810   6.153 -0.3138  0.0051  0.2031
  291POPC   C3B 3984   0.989   4.866   6.615 -0.3181 -0.2528 -0.0107
  291POPC   C4B 3985   0.798   4.762   7.040 -0.0126  0.1569  0.1327
  292POPC   NC3 3986   3.648   7.453   4.345  0.0857 -0.0675 -0.2921
  292POPC   PO4 3987   3.311   7.228   4.564  0.0495  0.1047  0.1704
  292POPC   GL1 3988   3.314   7.274   4.972 -0.3284  0.0925  0.3019
  292POPC   GL2 3989   3.096   7.019   5.148 -0.1417  0.2622 -0.0745
  292POPC   C1A 3990   2.962   7.491   5.214 -0.0418  0.1216  0.3192
  292POPC   D2A 3991   2.903   7.667   5.649  0.0360 -0.2777 -0.1640
  292POPC   C3A 3992   2.585   7.362   5.803  0.4236 -0.1286 -0.1979
  292POPC   C4A 3993   2.486   7.190   6.191 -0.3897  0.2050  0.0564
  292POPC   C1B 3994   3.093   7.167   5.658  0.0573 -0.1019  0.0106
  292POPC   C2B 3995   3.030   7.379   6.044 -0.0652 -0.1111 -0.1400
  292POPC   C3B 3996   2.681   7.585   6.433  0.0980 -0.3230 -0.0055
  292POPC   C4B 3997   2.595   7.541   6.880  0.2510 -0.0363  0.3481
  293POPC   NC3 3998   0.266   2.925   4.937 -0.1429 -0.1055  0.2537
  293POPC   PO4 3999   0.728   2.879   4.892  0.0914  0.1065 -0.1085
  293POPC   GL1 4000   1.042   2.674   5.145 -0.3632  0.0928 -0.1795
  293POPC   GL2 4001   1.232   2.925   5.389 -0.2003 -0.0938 -0.0838
  293POPC   C1A 4002   1.159   2.327   5.397  0.1699 -0.0530 -0.1279
  293POPC   D2A 4003   1.151   1.981   5.779  0.1921 -0.0115 -0.2145
  293POPC   C3A 4004   0.953   1.471   5.882  0.0632  0.0520 -0.3640
  293POPC   C4A 4005   0.612   1.261   6.013 -0.4353  0.0022 -0.0692
  293POPC   C1B 4006   1.385   3.034   5.763  0.1329  0.0668 -0.1344
  293POPC   C2B 4007   1.760   2.930   5.918  0.0019  0.1275 -0.2210
  293POPC   C3B 4008   1.767   2.733   6.227  0.1536 -0.1031 -0.0436
  293POPC   C4B 4009   1.979   2.690   6.655  0.0477 -0.0218 -0.0450
  294POPC   NC3 4010   3.106   5.977   4.603 -0.2314 -0.0059 -0.2263
  294POPC   PO4 4011   3.383   5.756   4.603 -0.2396 -0.1162  0.2032
  294POPC   GL1 4012   3.404   6.037   4.969 -0.1997 -0.0906 -0.1586
  294POPC   GL2 4013   3.785   6.318   5.135  0.0903  0.0279  0.0046
  294POPC   C1A 4014   3.320   6.452   5.306 -0.1058  0.2103  0.1327
  294POPC   D2A 4015   2.993   6.492   5.616 -0.0731 -0.3804  0.0959
  294POPC   C3A 4016   2.692   6.820   5.575  0.3058  0.1670  0.2645
  294POPC   C4A 4017   2.590   7.077   5.280  0.1670 -0.0636 -0.1088
  294POPC   C1B 4018   3.858   6.398   5.647  0.0409  0.0496 -0.0598
  294POPC   C2B 4019   3.725   6.494   6.003  0.2638  0.0544 -0.0199
  294POPC   C3B 4020   3.788   6.701   6.454  0.1330  0.1529 -0.1625
  294POPC   C4B 4021   3.614   6.730   6.927  0.2225 -0.1262  0.0815
  295POPC   NC3 4022  10.026   7.245   4.310  0.3152 -0.2652 -0.2184
  295POPC   PO4 4023   9.668   7.547   4.151 -0.0859  0.2375 -0.1261
  295POPC   GL1 4024   9.996   7.669   4.482  0.1394 -0.3461 -0.0565
  295POPC   GL2 4025  10.248   7.924   4.492  0.2596 -0.0276  0.0785
  295POPC   C1A 4026   9.827   8.055   4.732  0.0002  0.1351 -0.0861
  295POPC   D2A 4027   9.604   8.005   5.101 -0.3504  0.1123 -0.1797
  295POPC   C3A 4028   9.460   7.444   5.138 -0.1569 -0.0124 -0.2846
  295POPC   C4A 4029   9.366   7.071   5.448  0.0937  0.1885  0.2326
  295POPC   C1B 4030  10.391   7.765   4.886  0.0187 -0.1070  0.2724
  295POPC   C2B 4031  10.361   7.514   5.193 -0.1199 -0.2471  0.5049
  295POPC   C3B 4032  10.436   7.334   5.549 -0.0470  0.1056  0.2742
  295POPC   C4B 4033  10.779   7.157   5.808  0.0067  0.0290  0.0335
  296POPC   NC3 4034   8.241   4.427   5.210 -0.2391 -0.2485 -0.2299
  296POPC   PO4 4035   8.619   4.191   5.102 -0.0911  0.2017 -0.3356
  296POPC   GL1 4036   8.507   4.270   5.612 -0.0316  0.1056 -0.1664
  296POPC   GL2 4037   8.686   4.277   5.905  0.1953 -0.0173 -0.0880
  296POPC   C1A 4038   8.244   4.106   5.952 -0.0624 -0.0084 -0.1282
  296POPC   D2A 4039   8.232   3.848   6.412 -0.2063 -0.0527 -0.2953
  296POPC   C3A 4040   7.929   3.590   6.678 -0.1814  0.1332 -0.1548
  296POPC   C4A 4041   7.520   3.382   6.788 -0.4158  0.1106 -0.2115
  296POPC   C1B 4042   8.553   4.245   6.375  0.1481 -0.2584 -0.0903
  296POPC   C2B 4043   8.469   4.092   6.782 -0.0554 -0.0144 -0.1516
  296POPC   C3B 4044   8.560   3.854   7.005 -0.0038  0.1330  0.0119
  296POPC   C4B 4045   8.474   3.447   6.960  0.0512  0.1950 -0.2304
  297POPC   NC3 4046   3.096   3.556   5.163  0.0212  0.0948  0.0172
  297POPC   PO4 4047   3.050   3.909   4.968 -0.1628 -0.0735  0.0368
  297POPC   GL1 4048   3.155   4.002   5.361  0.2516  0.1609 -0.1713
  297POPC   GL2 4049   3.122   4.353   5.333 -0.0025  0.0303 -0.1837
  297POPC   C1A 4050   2.910   3.909   5.698 -0.1516 -0.0417 -0.1690
  297POPC   D2A 4051   2.735   3.718   6.134  0.0443  0.1154 -0.2761
  297POPC   C3A 4052   2.922   3.761   6.455  0.0251  0.0855  0.1909
  297POPC   C4A 4053   3.432   3.831   6.505 -0.2493  0.0358 -0.1143
  297POPC   C1B 4054   3.320   4.342   5.777  0.2798  0.2403 -0.1750
  297POPC   C2B 4055   3.316   4.179   6.180  0.1066 -0.2294 -0.3756
  297POPC   C3B 4056   3.118   4.272   6.507  0.0621  0.0974 -0.1540
  297POPC   C4B 4057   3.083   4.481   6.818  0.2001 -0.0385 -0.2647
  298POPC   NC3 4058   5.520   4.389   5.048 -0.1693  0.2419  0.0185
  298POPC   PO4 4059   5.199   4.274   5.279  0.2569  0.1848 -0.0812
  298POPC   GL1 4060   5.276   4.198   5.639  0.1578  0.1035 -0.0561
  298POPC   GL2 4061   5.485   4.051   5.661  0.0172 -0.0318  0.2005
  298POPC   C1A 4062   5.113   3.929   5.993 -0.0213  0.2064 -0.1609
  298POPC   D2A 4063   4.877   3.570   5.954  0.2862 -0.0056  0.0765
  298POPC   C3A 4064   4.495   3.513   6.141 -0.0037  0.0587 -0.1003
  298POPC   C4A 4065   4.184   3.303   6.175 -0.0144 -0.2338 -0.2834
  298POPC   C1B 4066   5.801   4.294   5.852  0.0583  0.0512 -0.1802
  298POPC   C2B 4067   6.103   4.530   5.868 -0.0753 -0.0888  0.0413
  298POPC   C3B 4068   6.400   4.775   6.086 -0.0393 -0.4417  0.3281
  298POPC   C4B 4069   6.705   5.176   5.887  0.4196 -0.2805  0.1732
  299POPC   NC3 4070   0.209   0.565   3.991 -0.0550 -0.1180 -0.2263
  299POPC   PO4 4071   0.500   0.264   4.145  0.2779 -0.0202  0.1113
  299POPC   GL1 4072   0.732   0.282   4.559  0.1004  0.0892  0.1050
  299POPC   GL2 4073   0.440   0.202   4.839  0.2590 -0.6474 -0.2351
  299POPC   C1A 4074   0.787  -0.165   4.842  0.0246 -0.4864 -0.0021
  299POPC   D2A 4075   0.740  -0.431   5.211  0.1101  0.2157 -0.1115
  299POPC   C3A 4076   0.416  -0.574   5.489  0.3715  0.2061 -0.1037
  299POPC   C4A 4077  -0.107  -0.648   5.506 -0.2428 -0.0388 -0.1258
  299POPC   C1B 4078   0.487   0.086   5.226 -0.0927  0.0209  0.2486
  299POPC   C2B 4079   0.638  -0.121   5.571 -0.3248  0.2976 -0.1190
  299POPC   C3B 4080   1.045  -0.095   5.754  0.0150 -0.4329  0.1166
  299POPC   C4B 4081   1.379  -0.316   5.756 -0.0027  0.3038  0.3114
  300POPC   NC3 4082  10.035   6.503   4.536  0.2047  0.0856 -0.0041
  300POPC   PO4 4083   9.890   6.864   4.572  0.0904  0.2408  0.0468
  300POPC   GL1 4084  10.089   7.296   4.821 -0.0073 -0.0067 -0.0156
  300POPC   GL2 4085  10.026   7.089   5.051  0.0543  0.1592  0.1522
  300POPC   C1A 4086   9.915   7.640   4.989 -0.6542  0.3593  0.0278
  300POPC   D2A 4087   9.899   7.660   5.434 -0.1970  0.2117 -0.1238
  300POPC   C3A 4088  10.311   7.808   5.628 -0.1437  0.4489  0.2615
  300POPC   C4A 4089  10.753   7.713   5.870 -0.0125 -0.1479  0.3749
  300POPC   C1B 4090   9.913   7.178   5.421 -0.0910  0.1141 -0.1842
  300POPC   C2B 4091  10.079   7.417   5.885  0.3279 -0.1797  0.1794
  300POPC   C3B 4092  10.011   7.256   6.283 -0.0527  0.0262  0.0862
  300POPC   C4B 4093  10.190   6.828   6.438 -0.0206 -0.4080 -0.0630
  301POPC   NC3 4094   0.217   6.861   4.084 -0.0680  0.1692 -0.2205
  301POPC   PO4 4095  -0.173   6.878   4.135  0.1446 -0.3269  0.0496
  301POPC   GL1 4096  -0.104   6.956   4.585 -0.0118 -0.1405  0.1236
  301POPC   GL2 4097   0.091   6.707   4.653 -0.1143  0.0386  0.0290
  301POPC   C1A 4098   0.048   7.079   4.966  0.4084 -0.1933 -0.1394
  301POPC   D2A 4099   0.344   7.106   5.244 -0.0763  0.1320  0.0531
  301POPC   C3A 4100   0.397   7.558   5.396 -0.3429  0.0550 -0.2325
  301POPC   C4A 4101   0.210   7.924   5.346 -0.0122 -0.2104 -0.1462
  301POPC   C1B 4102   0.449   6.765   4.874 -0.0151  0.2201 -0.1203
  301POPC   C2B 4103   0.562   6.558   5.355  0.0611 -0.3341 -0.4200
  301POPC   C3B 4104   0.456   6.689   5.749  0.1460  0.2799 -0.2250
  301POPC   C4B 4105   0.575   6.851   6.175 -0.0947  0.0033 -0.2480
  302POPC   NC3 4106   8.186   7.600   4.557  0.1325 -0.0551  0.1735
  302POPC   PO4 4107   8.471   7.522   4.848 -0.0099  0.0545 -0.1533
  302POPC   GL1 4108   8.549   7.689   5.249 -0.4632  0.0154 -0.1380
  302POPC   GL2 4109   8.366   7.554   5.464  0.2558 -0.0368  0.1470
  302POPC   C1A 4110   8.756   7.929   5.564 -0.1338 -0.0259 -0.0427
  302POPC   D2A 4111   8.738   7.984   6.024 -0.1744  0.0351  0.0788
  302POPC   C3A 4112   8.875   8.318   6.191 -0.4290 -0.0022 -0.0468
  302POPC   C4A 4113   9.239   8.465   6.280  0.0431  0.0767  0.0797
  302POPC   C1B 4114   8.520   7.506   5.887  0.0784  0.2618 -0.0228
  302POPC   C2B 4115   8.592   7.352   6.337  0.0133  0.0544 -0.0190
  302POPC   C3B 4116   8.869   7.408   6.799 -0.1447  0.1446 -0.3138
  302POPC   C4B 4117   8.872   7.831   6.952 -0.0455 -0.0989 -0.0072
  303POPC   NC3 4118   0.662   5.605   4.827 -0.3657 -0.1495 -0.1220
  303POPC   PO4 4119   0.296   5.372   4.847  0.0234  0.1555 -0.0695
  303POPC   GL1 4120   0.448   5.338   5.351 -0.2707 -0.0468 -0.1994
  303POPC   GL2 4121   0.537   5.604   5.398 -0.0024 -0.0541  0.0226
  303POPC   C1A 4122   0.080   5.517   5.620 -0.1785  0.0847 -0.2891
  303POPC   D2A 4123   0.081   5.454   6.128  0.0713 -0.3712  0.3293
  303POPC   C3A 4124   0.291   5.592   6.494  0.1524 -0.1857  0.0037
  303POPC   C4A 4125   0.564   5.549   6.840  0.0439  0.0631  0.4223
  303POPC   C1B 4126   0.502   5.715   5.872 -0.1433 -0.1168  0.1680
  303POPC   C2B 4127   0.709   5.713   6.224 -0.0045 -0.0591 -0.0277
  303POPC   C3B 4128   0.938   5.505   6.485  0.0208  0.0026  0.0872
  303POPC   C4B 4129   1.092   5.729   6.844  0.1436 -0.4327  0.1076
  304POPC   NC3 4130   8.446   1.541   4.944  0.2689  0.0439  0.1522
  304POPC   PO4 4131   8.588   1.058   4.858  0.1068  0.1042  0.6108
  304POPC   GL1 4132   8.702   0.924   5.247  0.1731 -0.1932 -0.1630
  304POPC   GL2 4133   8.864   0.700   5.347  0.0634 -0.1216 -0.2203
  304POPC   C1A 4134   8.401   0.919   5.662 -0.0728  0.1382 -0.0337
  304POPC   D2A 4135   8.200   1.022   6.081  0.0476 -0.0994 -0.1336
  304POPC   C3A 4136   8.646   1.021   6.325 -0.4047  0.1258 -0.1462
  304POPC   C4A 4137   8.847   0.743   6.666 -0.0340  0.4257  0.0072
  304POPC   C1B 4138   8.808   0.761   5.891 -0.1633 -0.0582 -0.1223
  304POPC   C2B 4139   8.479   0.586   6.263 -0.1385  0.3582  0.1044
  304POPC   C3B 4140   8.278   0.828   6.609  0.1558 -0.1152  0.0382
  304POPC   C4B 4141   8.285   1.309   6.600  0.0600  0.0403  0.0306
  305POPC   NC3 4142   4.831   7.710   4.995 -0.1104  0.1242  0.0971
  305POPC   PO4 4143   5.151   7.446   4.854  0.0473  0.1651 -0.0328
  305POPC   GL1 4144   5.070   7.401   5.268  0.0491  0.0723 -0.2915
  305POPC   GL2 4145   5.015   7.675   5.444  0.0893 -0.1147 -0.2066
  305POPC   C1A 4146   4.857   7.131   5.643 -0.1598  0.0287  0.1507
  305POPC   D2A 4147   4.562   6.940   5.750  0.2532 -0.3424 -0.1249
  305POPC   C3A 4148   4.366   6.868   6.127 -0.2779  0.1229  0.1060
  305POPC   C4A 4149   4.215   6.925   6.663  0.1755  0.1443  0.1367
  305POPC   C1B 4150   4.742   7.569   5.826 -0.1146 -0.1179  0.1043
  305POPC   C2B 4151   4.672   7.695   6.256 -0.0712 -0.0931 -0.3160
  305POPC   C3B 4152   4.386   8.105   6.415 -0.1870  0.1560  0.1072
  305POPC   C4B 4153   4.020   8.101   6.603 -0.4191 -0.0796 -0.3449
  306POPC   NC3 4154   4.050   7.911   4.772 -0.0331 -0.1246 -0.1485
  306POPC   PO4 4155   4.429   7.806   4.702  0.0292 -0.0268  0.1539
  306POPC   GL1 4156   4.377   7.956   5.171  0.0741  0.1031 -0.1669
  306POPC   GL2 4157   4.512   7.769   5.392 -0.0384  0.0801  0.0383
  306POPC   C1A 4158   4.229   8.287   5.297  0.0585  0.1884 -0.3158
  306POPC   D2A 4159   4.145   8.467   5.724 -0.1760  0.0013  0.1222
  306POPC   C3A 4160   4.190   8.525   6.132  0.1127  0.0908 -0.1083
  306POPC   C4A 4161   4.372   8.716   6.504 -0.0342 -0.0634 -0.4271
  306POPC   C1B 4162   4.136   7.884   5.677 -0.2275  0.2807  0.2049
  306POPC   C2B 4163   3.986   7.981   6.053  0.0050 -0.1455 -0.0232
  306POPC   C3B 4164   3.485   8.096   6.109 -0.1344 -0.3136 -0.1193
  306POPC   C4B 4165   3.105   7.944   6.023  0.0169  0.1292 -0.1708
  307POPC   NC3 4166   3.912   0.578   4.855  0.2902 -0.1311 -0.3461
  307POPC   PO4 4167   3.456   0.565   4.834 -0.0736  0.0029 -0.0604
  307POPC   GL1 4168   3.158   0.391   5.106 -0.0449 -0.2971 -0.0533
  307POPC   GL2 4169   2.813   0.372   5.069  0.1111  0.2888 -0.3420
  307POPC   C1A 4170   3.138   0.090   5.491  0.0812 -0.0049 -0.2993
  307POPC   D2A 4171   3.174  -0.119   5.851 -0.3518 -0.0244 -0.0302
  307POPC   C3A 4172   2.913  -0.390   6.121  0.0175 -0.0191 -0.0204
  307POPC   C4A 4173   2.854  -0.453   6.567  0.0358  0.1214  0.2732
  307POPC   C1B 4174   2.406   0.099   5.154  0.0995  0.1106  0.1022
  307POPC   C2B 4175   2.349  -0.179   5.395  0.0492  0.0797 -0.0637
  307POPC   C3B 4176   2.550  -0.299   5.846  0.1987 -0.3727 -0.1822
  307POPC   C4B 4177   2.515  -0.697   5.978  0.0017 -0.1376  0.0599
  308POPC   NC3 4178   6.950   2.691   5.133 -0.2289 -0.0702  0.0681
  308POPC   PO4 4179   7.330   2.444   4.858 -0.0601 -0.0323  0.1779
  308POPC   GL1 4180   7.406   2.336   5.251  0.1773  0.0524  0.1937
  308POPC   GL2 4181   7.316   2.652   5.445  0.1217  0.2913  0.0983
  308POPC   C1A 4182   7.362   2.135   5.599  0.1128  0.3163 -0.2177
  308POPC   D2A 4183   7.274   2.124   6.111 -0.1197 -0.1542  0.0255
  308POPC   C3A 4184   7.492   1.906   6.502 -0.0577  0.2340  0.1294
  308POPC   C4A 4185   7.493   1.896   6.921  0.1482 -0.0807  0.2147
  308POPC   C1B 4186   7.519   2.523   5.877 -0.2026 -0.2454 -0.2442
  308POPC   C2B 4187   7.740   2.607   6.196 -0.2354  0.1698 -0.2560
  308POPC   C3B 4188   7.679   2.450   6.617  0.1084  0.0122 -0.1376
  308POPC   C4B 4189   7.244   2.397   6.793  0.0157  0.0770 -0.0058
  309POPC   NC3 4190   4.945   5.915   5.003  0.1543  0.3388 -0.1164
  309POPC   PO4 4191   5.348   6.122   4.917  0.0710  0.1127 -0.1173
  309POPC   GL1 4192   5.503   5.888   5.247  0.1819  0.1057  0.1490
  309POPC   GL2 4193   5.763   5.875   5.408  0.0568 -0.0826 -0.0079
  309POPC   C1A 4194   5.217   5.730   5.609 -0.2343  0.0222  0.0144
  309POPC   D2A 4195   4.916   5.493   5.933  0.1447 -0.0756  0.0042
  309POPC   C3A 4196   5.033   5.351   6.262  0.1924  0.1921 -0.0943
  309POPC   C4A 4197   5.215   5.187   6.775 -0.1900 -0.0733  0.1793
  309POPC   C1B 4198   5.523   6.074   5.844 -0.0019 -0.0114  0.3234
  309POPC   C2B 4199   5.181   5.821   6.198  0.0352 -0.0827  0.1284
  309POPC   C3B 4200   5.110   5.847   6.642  0.0458 -0.1379  0.3295
  309POPC   C4B 4201   5.166   5.777   7.033  0.2234 -0.0985 -0.0114
  310POPC   NC3 4202   6.106   4.967   4.876 -0.0364  0.1060 -0.0655
  310POPC   PO4 4203   6.630   5.138   4.951 -0.0253  0.1422 -0.0110
  310POPC   GL1 4204   6.443   5.396   5.418 -0.1458 -0.2253 -0.1530
  310POPC   GL2 4205   6.184   5.601   5.433 -0.2505  0.0728  0.1270
  310POPC   C1A 4206   6.547   5.657   5.813 -0.1066 -0.1890  0.1823
  310POPC   D2A 4207   6.403   5.649   6.224  0.1657 -0.2892 -0.0384
  310POPC   C3A 4208   6.386   5.270   6.287 -0.2493  0.0724 -0.2232
  310POPC   C4A 4209   6.284   5.078   6.607 -0.5465  0.3541  0.0522
  310POPC   C1B 4210   5.987   5.701   5.878  0.1160 -0.3993  0.1949
  310POPC   C2B 4211   5.825   5.951   6.223 -0.5672 -0.2574  0.1794
  310POPC   C3B 4212   5.562   6.124   6.423  0.3009  0.0533  0.1057
  310POPC   C4B 4213   5.500   6.588   6.434 -0.4522  0.5413  0.3163
  311POPC   NC3 4214   0.878   3.211   4.496 -0.1750 -0.5013 -0.4634
  311POPC   PO4 4215   0.977   3.643   4.761 -0.1357  0.0863 -0.2175
  311POPC   GL1 4216   1.071   3.728   5.208 -0.0552 -0.0378  0.1279
  311POPC   GL2 4217   1.454   3.890   5.210 -0.0386  0.3271 -0.1718
  311POPC   C1A 4218   1.138   3.962   5.619  0.3843  0.1728  0.2975
  311POPC   D2A 4219   1.344   3.891   6.105 -0.0535  0.2608 -0.1170
  311POPC   C3A 4220   1.446   4.082   6.574  0.1673  0.0842  0.0588
  311POPC   C4A 4221   1.657   3.985   6.878 -0.0465  0.1096 -0.1159
  311POPC   C1B 4222   1.643   3.788   5.688  0.3540  0.1279  0.0793
  311POPC   C2B 4223   1.815   3.950   6.054 -0.0348 -0.3482  0.2080
  311POPC   C3B 4224   1.942   4.096   6.484 -0.0591 -0.1956  0.2303
  311POPC   C4B 4225   2.183   4.048   6.759 -0.0357 -0.1842 -0.2853
  312POPC   NC3 4226   8.036   7.588   5.106  0.0100  0.1233 -0.1449
  312POPC   PO4 4227   8.057   8.056   4.832 -0.3349 -0.1527 -0.0376
  312POPC   GL1 4228   8.282   8.390   5.132  0.0061  0.3324 -0.0081
  312POPC   GL2 4229   8.429   8.151   5.321 -0.1551 -0.2270 -0.1081
  312POPC   C1A 4230   8.134   8.471   5.610  0.0482 -0.4070  0.0001
  312POPC   D2A 4231   7.881   8.207   5.973  0.2086 -0.0561  0.1690
  312POPC   C3A 4232   7.471   7.985   5.894  0.3044  0.1011  0.0059
  312POPC   C4A 4233   7.092   7.823   5.837 -0.0568 -0.0544 -0.3376
  312POPC   C1B 4234   8.309   7.999   5.699  0.1225  0.0368 -0.0431
  312POPC   C2B 4235   8.302   7.854   6.122  0.0759  0.1009  0.1544
  312POPC   C3B 4236   8.115   8.142   6.527  0.0500 -0.3949  0.1652
  312POPC   C4B 4237   7.916   8.329   6.949 -0.0522  0.3149  0.1145
  313POPC   NC3 4238   2.175   2.488   4.421  0.0920 -0.0942 -0.0244
  313POPC   PO4 4239   1.819   2.276   4.822 -0.1672 -0.3328 -0.3023
  313POPC   GL1 4240   1.762   2.245   5.301  0.1393  0.3746  0.2417
  313POPC   GL2 4241   1.525   1.952   5.493  0.2544 -0.0461  0.0837
  313POPC   C1A 4242   1.978   2.195   5.686  0.1863  0.0094 -0.2639
  313POPC   D2A 4243   1.876   2.311   6.018 -0.0937 -0.0371  0.0560
  313POPC   C3A 4244   2.047   2.259   6.393  0.0264 -0.1375 -0.2762
  313POPC   C4A 4245   2.387   2.199   6.582 -0.1373 -0.3302  0.0685
  313POPC   C1B 4246   1.584   1.896   5.935  0.0632 -0.1742 -0.3195
  313POPC   C2B 4247   1.288   1.720   6.203  0.0398  0.1391  0.0420
  313POPC   C3B 4248   1.223   1.440   6.605 -0.0803 -0.1428 -0.0355
  313POPC   C4B 4249   1.473   1.024   6.644  0.2154  0.3961 -0.1382
  314POPC   NC3 4250   4.230   4.812   5.228  0.1346  0.0304 -0.3183
  314POPC   PO4 4251   4.658   4.616   5.239  0.1324  0.1989  0.0296
  314POPC   GL1 4252   4.891   4.539   5.562 -0.1138 -0.3105  0.2339
  314POPC   GL2 4253   4.748   4.187   5.614  0.0426 -0.1938 -0.1862
  314POPC   C1A 4254   5.011   4.461   5.946  0.2289  0.0419  0.1913
  314POPC   D2A 4255   5.112   4.382   6.327 -0.3257  0.0785 -0.3611
  314POPC   C3A 4256   5.126   4.199   6.607 -0.0158 -0.1298 -0.2044
  314POPC   C4A 4257   5.386   3.815   6.745  0.1091  0.2670  0.2345
  314POPC   C1B 4258   4.520   4.203   6.041  0.0701  0.2115 -0.2411
  314POPC   C2B 4259   4.629   4.395   6.416  0.0009  0.2234 -0.1873
  314POPC   C3B 4260   4.448   4.271   6.779 -0.3167  0.2211  0.0998
  314POPC   C4B 4261   4.193   4.483   7.119 -0.5910  0.0227  0.0345
  315POPC   NC3 4262   4.270   9.156   4.073 -0.1365 -0.0171  0.2377
  315POPC   PO4 4263   4.298   9.344   4.443  0.3414 -0.0033  0.0920
  315POPC   GL1 4264   4.062   9.130   4.784  0.1363 -0.3390  0.0217
  315POPC   GL2 4265   4.037   8.787   4.683 -0.2579 -0.0169  0.2219
  315POPC   C1A 4266   4.036   8.934   5.256 -0.4915  0.3241  0.1362
  315POPC   D2A 4267   3.727   8.993   5.685 -0.0468  0.0806  0.0648
  315POPC   C3A 4268   3.664   8.602   5.876 -0.0308 -0.1512  0.1741
  315POPC   C4A 4269   3.734   8.463   6.391 -0.0142  0.3410  0.0609
  315POPC   C1B 4270   3.812   8.538   4.959 -0.0335 -0.2406 -0.2171
  315POPC   C2B 4271   3.719   8.524   5.284 -0.0518  0.1142 -0.2176
  315POPC   C3B 4272   3.669   8.162   5.569 -0.3026 -0.0358  0.1191
  315POPC   C4B 4273   3.392   7.812   5.532 -0.0418  0.0086 -0.2923
  316POPC   NC3 4274   0.431   7.209   3.463  0.0228  0.1499 -0.1547
  316POPC   PO4 4275   0.588   7.059   3.816  0.0730  0.1581  0.1458
  316POPC   GL1 4276   0.610   7.290   4.216 -0.0275  0.2617 -0.2281
  316POPC   GL2 4277   0.397   7.154   4.442  0.0192  0.0353  0.1611
  316POPC   C1A 4278   0.697   7.677   4.384  0.3879 -0.1422  0.1766
  316POPC   D2A 4279   0.873   8.016   4.609  0.2228 -0.3338  0.1638
  316POPC   C3A 4280   1.068   8.298   4.336  0.0775 -0.1065  0.1714
  316POPC   C4A 4281   1.460   8.393   4.402  0.0713 -0.1198 -0.1915
  316POPC   C1B 4282   0.768   7.259   4.728  0.0037 -0.0711 -0.0624
  316POPC   C2B 4283   0.795   7.353   5.114 -0.0099 -0.0105 -0.1024
  316POPC   C3B 4284   0.872   7.574   5.465 -0.1696 -0.0282 -0.0816
  316POPC   C4B 4285   0.809   7.479   5.841  0.0226 -0.0296 -0.0116
  317POPC   NC3 4286   8.025   3.393   5.296  0.3011 -0.0065  0.3497
  317POPC   PO4 4287   8.443   3.331   5.103 -0.2417  0.5105 -0.0994
  317POPC   GL1 4288   8.454   3.069   5.544 -0.1543  0.1046  0.1117
  317POPC   GL2 4289   8.542   3.261   5.746  0.2426 -0.1007  0.2418
  317POPC   C1A 4290   8.394   2.870   5.993 -0.2813  0.5431 -0.0184
  317POPC   D2A 4291   8.236   2.682   6.361  0.0987 -0.0204  0.0369
  317POPC   C3A 4292   8.141   2.384   6.724  0.2977 -0.2831  0.4060
  317POPC   C4A 4293   8.287   1.995   6.926  0.1459 -0.0978 -0.0142
  317POPC   C1B 4294   8.804   3.349   6.050 -0.1667  0.0510 -0.1495
  317POPC   C2B 4295   9.199   3.589   6.174  0.4355 -0.1222 -0.3204
  317POPC   C3B 4296   9.631   3.527   6.355  0.2047 -0.0620 -0.3029
  317POPC   C4B 4297   9.937   3.690   6.635 -0.0666  0.0840  0.2975
  318POPC   NC3 4298   5.345   2.022   5.016  0.2552  0.0718  0.0869
  318POPC   PO4 4299   5.604   1.754   5.002  0.2010 -0.2105  0.0669
  318POPC   GL1 4300   5.796   1.962   5.242 -0.1522 -0.1372  0.0776
  318POPC   GL2 4301   5.588   2.051   5.422  0.1028  0.1070 -0.1299
  318POPC   C1A 4302   6.057   2.014   5.606 -0.1038 -0.1725  0.0971
  318POPC   D2A 4303   6.409   2.080   5.925 -0.0974 -0.0510  0.1151
  318POPC   C3A 4304   6.293   2.158   6.303  0.1228 -0.0587  0.1500
  318POPC   C4A 4305   6.346   2.366   6.732 -0.1340 -0.3802  0.0701
  318POPC   C1B 4306   5.532   2.180   5.849  0.2089  0.2327  0.1698
  318POPC   C2B 4307   5.423   2.325   6.271  0.2220 -0.1372 -0.2387
  318POPC   C3B 4308   5.000   2.306   6.555 -0.2225 -0.6069  0.0759
  318POPC   C4B 4309   4.811   2.271   6.906  0.0086 -0.0445  0.2448
  319POPC   NC3 4310   5.294   7.995   5.051 -0.0377 -0.1009 -0.0781
  319POPC   PO4 4311   5.587   7.652   5.024 -0.2357  0.2927  0.0866
  319POPC   GL1 4312   5.573   7.632   5.391  0.1187  0.3224  0.2016
  319POPC   GL2 4313   5.403   7.337   5.641 -0.1311  0.0549 -0.0464
  319POPC   C1A 4314   5.482   7.839   5.706  0.4134  0.0037  0.1621
  319POPC   D2A 4315   5.629   7.861   6.224  0.1827  0.2815 -0.0415
  319POPC   C3A 4316   5.234   7.839   6.541  0.0061 -0.2331  0.1254
  319POPC   C4A 4317   4.835   7.930   6.613 -0.0811 -0.4993 -0.0873
  319POPC   C1B 4318   5.250   7.108   5.987 -0.2013  0.2400 -0.3495
  319POPC   C2B 4319   5.299   7.014   6.471  0.3307 -0.0390  0.0185
  319POPC   C3B 4320   5.235   6.815   6.915 -0.0347  0.0553  0.0759
  319POPC   C4B 4321   4.963   6.567   7.206 -0.0170 -0.2656  0.1878
  320POPC   NC3 4322   5.211   5.118   4.653  0.1434 -0.1071  0.3731
  320POPC   PO4 4323   5.628   4.968   4.876 -0.3571 -0.1488 -0.2180
  320POPC   GL1 4324   5.769   5.008   5.321  0.0032 -0.1153  0.2322
  320POPC   GL2 4325   6.012   5.133   5.330  0.2734  0.2125 -0.1841
  320POPC   C1A 4326   5.799   4.927   5.815  0.4764  0.1252  0.4285
  320POPC   D2A 4327   5.931   4.775   6.271 -0.1109 -0.2163 -0.1354
  320POPC   C3A 4328   5.910   4.454   6.359 -0.1273 -0.0796  0.1318
  320POPC   C4A 4329   6.049   4.008   6.223  0.2070  0.0446  0.0244
  320POPC   C1B 4330   5.700   5.402   5.560  0.2484  0.0782  0.0740
  320POPC   C2B 4331   5.404   5.397   5.935  0.1410  0.0557  0.0922
  320POPC   C3B 4332   5.501   5.084   6.289 -0.1437  0.2621  0.1581
  320POPC   C4B 4333   5.433   4.679   6.581  0.0078 -0.3018 -0.3460
  321POPC   NC3 4334   0.499   4.583   5.147  0.3572 -0.0591 -0.4773
  321POPC   PO4 4335   0.911   4.537   5.130 -0.1194 -0.0457 -0.4061
  321POPC   GL1 4336   0.826   4.519   5.530 -0.0406  0.1741  0.2573
  321POPC   GL2 4337   0.623   4.891   5.542 -0.1891 -0.3345  0.1073
  321POPC   C1A 4338   0.993   4.337   5.916  0.2864  0.1697 -0.2396
  321POPC   D2A 4339   1.153   4.390   6.317  0.2124  0.2073  0.0444
  321POPC   C3A 4340   1.056   4.334   6.721  0.4015  0.0904  0.2121
  321POPC   C4A 4341   0.963   4.331   7.162 -0.0186 -0.2137  0.0134
  321POPC   C1B 4342   0.516   4.668   5.900  0.2037  0.0443 -0.0783
  321POPC   C2B 4343   0.429   4.666   6.342  0.1429  0.1364  0.2078
  321POPC   C3B 4344   0.562   4.473   6.703 -0.1692 -0.2717  0.2396
  321POPC   C4B 4345   0.398   4.316   7.064 -0.0496 -0.0779 -0.1385
  322POPC   NC3 4346   0.963   0.405   4.092 -0.1465 -0.0092 -0.3045
  322POPC   PO4 4347   1.357   0.079   3.996 -0.1994  0.1171  0.3131
  322POPC   GL1 4348   1.349   0.305   4.408  0.2193  0.3060  0.0076
  322POPC   GL2 4349   1.549   0.378   4.698 -0.4371  0.1048  0.0365
  322POPC   C1A 4350   1.091   0.318   4.878  0.1921 -0.0725 -0.3241
  322POPC   D2A 4351   0.810   0.647   4.880  0.1234 -0.2734  0.4098
  322POPC   C3A 4352   0.634   0.597   5.315 -0.2133 -0.0796  0.0990
  322POPC   C4A 4353   0.630   0.327   5.699  0.1327 -0.0869  0.0652
  322POPC   C1B 4354   1.497   0.190   5.124 -0.0984  0.0331  0.0380
  322POPC   C2B 4355   1.460   0.138   5.581 -0.3738 -0.0327  0.1751
  322POPC   C3B 4356   1.634   0.116   5.968  0.3721  0.0587  0.1109
  322POPC   C4B 4357   1.963   0.128   6.342 -0.0762 -0.0281 -0.3125
  323POPC   NC3 4358   7.898  10.322   4.829 -0.1769 -0.2614 -0.1753
  323POPC   PO4 4359   8.118   9.934   5.008 -0.0250 -0.2256 -0.2991
  323POPC   GL1 4360   8.293   9.948   5.382  0.1907  0.1431  0.0306
  323POPC   GL2 4361   8.189   9.661   5.438  0.0863 -0.0445 -0.2450
  323POPC   C1A 4362   8.358  10.073   5.894  0.4727  0.0511 -0.1026
  323POPC   D2A 4363   8.446  10.160   6.379  0.1852  0.3191 -0.2223
  323POPC   C3A 4364   8.668  10.561   6.520  0.0036 -0.1482 -0.0395
  323POPC   C4A 4365   9.034  10.654   6.675 -0.3674 -0.0827  0.1716
  323POPC   C1B 4366   8.445   9.581   5.765 -0.0781  0.2500  0.2368
  323POPC   C2B 4367   8.361   9.662   6.327 -0.1869  0.0775  0.1538
  323POPC   C3B 4368   8.263   9.656   6.722  0.2561  0.4036  0.4039
  323POPC   C4B 4369   8.391   9.773   7.132 -0.1547 -0.1596 -0.2414
  324POPC   NC3 4370   0.586   2.512   4.559  0.0280 -0.0225  0.1619
  324POPC   PO4 4371   0.325   2.412   5.000  0.0709 -0.1950 -0.0097
  324POPC   GL1 4372   0.369   2.558   5.405 -0.4269 -0.0182 -0.2280
  324POPC   GL2 4373   0.646   2.749   5.522  0.0359 -0.0967 -0.4646
  324POPC   C1A 4374   0.281   2.567   5.826  0.0417  0.0295  0.3814
  324POPC   D2A 4375   0.219   2.196   6.122  0.0042 -0.2427  0.0131
  324POPC   C3A 4376   0.227   1.965   6.434  0.0932  0.0412 -0.1408
  324POPC   C4A 4377   0.353   1.722   6.794  0.1205  0.1352 -0.0302
  324POPC   C1B 4378   0.964   2.774   5.918  0.2395  0.1457  0.0875
  324POPC   C2B 4379   1.279   2.864   6.214  0.0985 -0.2255  0.2002
  324POPC   C3B 4380   1.402   2.682   6.643 -0.2440 -0.0216  0.0452
  324POPC   C4B 4381   1.453   2.611   6.973 -0.3945 -0.0128  0.1519
  325POPC   NC3 4382   4.480   9.807   4.431  0.3853 -0.1885  0.0947
  325POPC   PO4 4383   4.408  10.004   4.727  0.1721 -0.0774  0.0967
  325POPC   GL1 4384   4.521   9.875   5.170  0.1138  0.2656 -0.1102
  325POPC   GL2 4385   4.499   9.487   5.093  0.2178 -0.0829  0.0629
  325POPC   C1A 4386   4.908   9.630   5.370 -0.2322  0.1610  0.3708
  325POPC   D2A 4387   5.049   9.572   5.802  0.2910  0.0767  0.1036
  325POPC   C3A 4388   4.685   9.591   6.100 -0.0039  0.2359  0.5136
  325POPC   C4A 4389   4.254   9.641   6.159  0.1875  0.2053  0.2543
  325POPC   C1B 4390   4.101   9.498   5.300 -0.0572  0.1635  0.0502
  325POPC   C2B 4391   3.852   9.515   5.681  0.1333  0.0998  0.1718
  325POPC   C3B 4392   3.767   9.318   6.051  0.1305  0.0832  0.0295
  325POPC   C4B 4393   3.837   8.912   6.207  0.1825  0.0949  0.0900
  326POPC   NC3 4394   4.812   8.785   4.157  0.3481 -0.0678 -0.1506
  326POPC   PO4 4395   4.537   8.911   4.447  0.0203 -0.2193 -0.2824
  326POPC   GL1 4396   4.478   8.933   4.881 -0.0674  0.1196  0.4096
  326POPC   GL2 4397   4.696   8.794   5.095  0.0506 -0.0961 -0.1512
  326POPC   C1A 4398   4.422   9.130   5.406  0.0383  0.0627 -0.1502
  326POPC   D2A 4399   4.222   9.095   5.783  0.4131 -0.3287 -0.0040
  326POPC   C3A 4400   4.411   9.135   6.191  0.1400 -0.2725  0.4514
  326POPC   C4A 4401   4.500   9.421   6.559  0.4872 -0.3810  0.0459
  326POPC   C1B 4402   4.527   8.651   5.509  0.4048 -0.3080  0.2510
  326POPC   C2B 4403   4.664   8.621   5.908 -0.1313 -0.1778 -0.0163
  326POPC   C3B 4404   4.828   8.475   6.384  0.0347 -0.0839 -0.3130
  326POPC   C4B 4405   4.675   8.398   6.780 -0.1456  0.0603  0.2074
  327POPC   NC3 4406  10.031   1.773   4.836 -0.0735  0.1263 -0.1947
  327POPC   PO4 4407   9.934   2.128   5.160 -0.1891  0.1362 -0.5454
  327POPC   GL1 4408  10.116   1.837   5.432 -0.1127 -0.0213 -0.1619
  327POPC   GL2 4409  10.458   1.629   5.313 -0.0180 -0.0430 -0.0662
  327POPC   C1A 4410  10.291   1.968   5.919 -0.1509 -0.2414 -0.0493
  327POPC   D2A 4411  10.170   2.095   6.436  0.1909  0.5588  0.1279
  327POPC   C3A 4412  10.283   1.819   6.836  0.0104 -0.1015 -0.0549
  327POPC   C4A 4413  10.533   1.809   7.243 -0.1884  0.1892 -0.0519
  327POPC   C1B 4414  10.690   1.538   5.671 -0.2078 -0.0723  0.0271
  327POPC   C2B 4415  10.574   1.614   6.106  0.0625 -0.1155 -0.2110
  327POPC   C3B 4416  10.391   1.427   6.582 -0.3097  0.4928 -0.2833
  327POPC   C4B 4417  10.644   1.283   6.895 -0.0437 -0.0163  0.0128
  328POPC   NC3 4418   0.304   1.564   4.621  0.1282  0.2177  0.1987
  328POPC   PO4 4419   0.512   1.948   4.740  0.1422 -0.1304 -0.0273
  328POPC   GL1 4420   0.530   1.903   5.154 -0.0625  0.2566 -0.0239
  328POPC   GL2 4421   0.517   1.536   5.118  0.0236  0.2839  0.0505
  328POPC   C1A 4422   0.674   2.149   5.528 -0.1850  0.0286  0.2062
  328POPC   D2A 4423   0.755   2.358   5.950  0.0153 -0.1075 -0.0763
  328POPC   C3A 4424   0.994   2.161   6.334 -0.1952  0.1616  0.1399
  328POPC   C4A 4425   1.190   1.957   6.643 -0.0521 -0.0329  0.0612
  328POPC   C1B 4426   0.726   1.578   5.487 -0.1664 -0.0191 -0.0322
  328POPC   C2B 4427   0.657   1.866   5.937  0.1161  0.3500 -0.0484
  328POPC   C3B 4428   0.755   1.719   6.369 -0.1987 -0.1720  0.0050
  328POPC   C4B 4429   0.740   1.468   6.724  0.0013 -0.2089  0.2253
  329POPC   NC3 4430   9.177   7.514   4.253  0.3084  0.0007 -0.2234
  329POPC   PO4 4431   8.742   7.370   4.413  0.0234 -0.0208  0.0038
  329POPC   GL1 4432   8.938   7.610   4.835 -0.0693  0.1473  0.2008
  329POPC   GL2 4433   8.916   7.318   5.063  0.0213 -0.2639  0.1005
  329POPC   C1A 4434   9.107   7.843   5.135  0.0678  0.2769 -0.0257
  329POPC   D2A 4435   9.358   7.878   5.581  0.0423 -0.1873  0.1874
  329POPC   C3A 4436   9.535   7.406   5.719 -0.3163 -0.0147 -0.0558
  329POPC   C4A 4437   9.463   7.109   5.992 -0.0069 -0.0199  0.1058
  329POPC   C1B 4438   8.939   7.456   5.552 -0.1835  0.2562  0.2239
  329POPC   C2B 4439   9.082   7.518   5.890  0.2302  0.0170  0.0079
  329POPC   C3B 4440   9.288   7.904   6.114 -0.1679  0.1223  0.2915
  329POPC   C4B 4441   9.566   8.097   6.407 -0.0678 -0.1759 -0.0893
  330POPC   NC3 4442  10.068   3.498   4.790 -0.0299 -0.0704  0.3001
  330POPC   PO4 4443  10.081   3.980   5.014 -0.1564 -0.0828 -0.1641
  330POPC   GL1 4444  10.206   4.168   5.358 -0.3363 -0.0794 -0.0597
  330POPC   GL2 4445   9.931   4.008   5.574  0.1786 -0.3579 -0.1408
  330POPC   C1A 4446  10.173   4.563   5.649  0.4142  0.2102  0.0067
  330POPC   D2A 4447  10.039   4.805   5.976 -0.3065  0.1824 -0.1726
  330POPC   C3A 4448  10.086   4.788   6.371 -0.0716 -0.1794  0.2084
  330POPC   C4A 4449   9.849   4.632   6.701 -0.4183 -0.0571 -0.0761
  330POPC   C1B 4450  10.193   4.069   5.927 -0.1250 -0.2520  0.1524
  330POPC   C2B 4451  10.051   4.248   6.352 -0.2191  0.2279 -0.5438
  330POPC   C3B 4452  10.259   4.133   6.725  0.0435 -0.1055  0.0279
  330POPC   C4B 4453  10.371   3.812   6.881  0.0381  0.4469  0.2390
  331POPC   NC3 4454   5.140   1.533   5.082 -0.0199  0.0124  0.0913
  331POPC   PO4 4455   4.899   1.649   4.746 -0.0463 -0.2600 -0.2319
  331POPC   GL1 4456   4.775   1.825   5.235  0.2227 -0.1909 -0.0248
  331POPC   GL2 4457   5.056   1.985   5.392  0.0042  0.1156 -0.0342
  331POPC   C1A 4458   4.700   1.594   5.594 -0.4255  0.2757  0.2472
  331POPC   D2A 4459   4.488   1.476   5.988  0.0242  0.0206  0.3743
  331POPC   C3A 4460   4.206   1.680   6.253  0.2100 -0.1982  0.2496
  331POPC   C4A 4461   3.915   1.631   6.550  0.3004 -0.4906  0.0430
  331POPC   C1B 4462   5.283   1.747   5.724  0.1301  0.2369  0.0195
  331POPC   C2B 4463   5.337   1.827   6.185  0.0558  0.2172  0.1020
  331POPC   C3B 4464   5.445   1.479   6.518  0.2451  0.3206  0.0652
  331POPC   C4B 4465   5.859   1.270   6.850 -0.0087 -0.0011  0.1492
  332POPC   NC3 4466   2.843   2.979   4.565 -0.0940  0.0840  0.2206
  332POPC   PO4 4467   2.650   2.586   4.723  0.0143 -0.1745 -0.3104
  332POPC   GL1 4468   2.682   2.463   5.143  0.1993  0.0092 -0.2484
  332POPC   GL2 4469   2.808   2.655   5.327  0.0114 -0.2974 -0.0513
  332POPC   C1A 4470   2.560   2.235   5.540 -0.2349  0.2021 -0.3126
  332POPC   D2A 4471   2.420   2.246   5.926 -0.0330  0.0710 -0.0404
  332POPC   C3A 4472   2.722   1.965   6.227 -0.1905  0.0264 -0.1647
  332POPC   C4A 4473   2.812   1.869   6.629  0.1367  0.0677  0.1513
  332POPC   C1B 4474   2.844   2.700   5.682  0.0973  0.0824 -0.0499
  332POPC   C2B 4475   2.747   3.079   5.922 -0.4735  0.0145 -0.2591
  332POPC   C3B 4476   2.584   3.254   6.313 -0.1147  0.2452  0.2277
  332POPC   C4B 4477   2.501   3.200   6.807 -0.1283 -0.0965  0.1064
  333POPC   NC3 4478   9.835   0.915   4.462 -0.1927  0.3350 -0.0218
  333POPC   PO4 4479   9.882   1.304   4.824  0.2437 -0.1414  0.0068
  333POPC   GL1 4480  10.078   1.292   5.196  0.2944  0.0164  0.1443
  333POPC   GL2 4481  10.175   1.102   5.259  0.4693  0.3002  0.2384
  333POPC   C1A 4482   9.911   1.448   5.607  0.0227  0.0990  0.0850
  333POPC   D2A 4483   9.494   1.248   5.860 -0.0260  0.2273 -0.1093
  333POPC   C3A 4484   9.109   1.343   6.095  0.3723  0.0715 -0.1627
  333POPC   C4A 4485   8.828   1.524   6.283  0.1079  0.0404 -0.4175
  333POPC   C1B 4486  10.258   0.877   5.571 -0.0060 -0.0377 -0.2758
  333POPC   C2B 4487  10.147   0.794   5.967 -0.2573  0.0381  0.1342
  333POPC   C3B 4488   9.727   0.889   6.172 -0.0211  0.0455  0.2801
  333POPC   C4B 4489   9.600   1.188   6.362  0.2395 -0.0847 -0.2795
  334POPC   NC3 4490   8.230   0.683   5.000  0.0906  0.0821 -0.4050
  334POPC   PO4 4491   7.800   0.885   5.109  0.2339 -0.3547 -0.1712
  334POPC   GL1 4492   7.854   0.723   5.482 -0.1238  0.2841  0.1542
  334POPC   GL2 4493   7.887   0.471   5.540 -0.1796 -0.2279 -0.0118
  334POPC   C1A 4494   7.755   0.896   5.903  0.0979  0.0156  0.2342
  334POPC   D2A 4495   7.692   0.912   6.278 -0.0195 -0.0946 -0.2613
  334POPC   C3A 4496   7.586   0.571   6.615  0.0784  0.1795 -0.0663
  334POPC   C4A 4497   7.392   0.471   7.060 -0.1785  0.0375 -0.0255
  334POPC   C1B 4498   8.104   0.558   5.900  0.0009 -0.0982  0.0241
  334POPC   C2B 4499   8.027   0.510   6.300 -0.2474 -0.1450 -0.1585
  334POPC   C3B 4500   8.085   0.381   6.765 -0.0204  0.5392  0.0178
  334POPC   C4B 4501   7.875   0.102   7.036  0.0368  0.1393  0.0918
  335POPC   NC3 4502   3.042   9.958   4.199  0.0791  0.0643  0.1513
  335POPC   PO4 4503   2.616  10.233   4.285 -0.0514 -0.0944 -0.1509
  335POPC   GL1 4504   2.839   9.913   4.632 -0.1305 -0.0165  0.1632
  335POPC   GL2 4505   3.168   9.865   4.647  0.0519 -0.1112 -0.0206
  335POPC   C1A 4506   2.723   9.835   5.061  0.1496  0.3330 -0.1316
  335POPC   D2A 4507   2.565   9.794   5.483  0.2520  0.4351 -0.1180
  335POPC   C3A 4508   2.261   9.421   5.556  0.2021 -0.1339  0.2802
  335POPC   C4A 4509   1.932   9.121   5.649 -0.2380 -0.1019 -0.0892
  335POPC   C1B 4510   3.219   9.818   5.083 -0.0407 -0.1445 -0.4605
  335POPC   C2B 4511   3.178   9.570   5.397 -0.0049 -0.1582  0.0435
  335POPC   C3B 4512   2.863   9.454   5.762 -0.0549 -0.1165 -0.1216
  335POPC   C4B 4513   2.467   9.242   5.974 -0.3122 -0.0315 -0.0465
  336POPC   NC3 4514   9.127   4.159   5.168 -0.0269 -0.4740  0.0528
  336POPC   PO4 4515   9.566   4.072   5.263 -0.0922  0.1786  0.0774
  336POPC   GL1 4516   9.509   4.262   5.680 -0.1433  0.2907 -0.3076
  336POPC   GL2 4517   9.610   4.545   5.594  0.0012  0.0687  0.0553
  336POPC   C1A 4518   9.204   4.609   5.935  0.1471  0.0387 -0.2571
  336POPC   D2A 4519   8.919   4.540   6.267 -0.1596 -0.0863 -0.0825
  336POPC   C3A 4520   8.996   4.213   6.622  0.0555  0.0228  0.0608
  336POPC   C4A 4521   9.205   3.860   6.611  0.0201  0.1361  0.1539
  336POPC   C1B 4522   9.648   4.519   6.096 -0.3166  0.0834  0.1549
  336POPC   C2B 4523   9.375   4.488   6.424  0.0603  0.0524  0.1376
  336POPC   C3B 4524   9.334   4.537   6.875  0.0345  0.1024  0.0653
  336POPC   C4B 4525   8.975   4.501   7.111 -0.0540  0.1343  0.1508
  337POPC   NC3 4526   3.231   9.042   3.529 -0.1870  0.3143  0.1016
  337POPC   PO4 4527   2.841   8.930   3.755  0.1301  0.1458 -0.1140
  337POPC   GL1 4528   2.712   8.910   4.159  0.4330 -0.1905  0.0417
  337POPC   GL2 4529   2.987   8.806   4.317 -0.1128  0.2218  0.1829
  337POPC   C1A 4530   2.455   8.559   4.338  0.0321  0.0711 -0.0216
  337POPC   D2A 4531   1.982   8.546   4.446 -0.1306  0.0478 -0.0329
  337POPC   C3A 4532   1.839   8.130   4.533 -0.2017  0.2240 -0.1904
  337POPC   C4A 4533   1.681   7.654   4.505 -0.0567  0.1955 -0.0443
  337POPC   C1B 4534   2.929   8.783   4.773  0.3777  0.2702 -0.0159
  337POPC   C2B 4535   2.546   8.803   5.063  0.0321 -0.0970  0.1902
  337POPC   C3B 4536   2.086   8.735   4.941 -0.2630 -0.1218 -0.2417
  337POPC   C4B 4537   1.734   8.442   4.985 -0.2583  0.0409 -0.1836
  338W        W 4538   3.898   7.586   1.845 -0.1026 -0.0772  0.5024
  339W        W 4539   7.281   2.294   1.254 -0.0583  0.0535  0.0499
  340W        W 4540   9.853   7.679  13.165 -0.1286  0.0031 -0.3193
  341W        W 4541   1.408   1.858  10.642  0.2006 -0.2913 -0.2047
  342W        W 4542   1.862   1.857  13.055  0.0109 -0.0420  0.1253
  343W        W 4543   9.504   4.176   4.216 -0.1282 -0.2021  0.0097
  344W        W 4544   0.146   7.885   0.873 -0.1714  0.6290  0.2524
  345W        W 4545   0.745   5.356   1.402 -0.3712 -0.0054 -0.0816
  346W        W 4546   5.737   3.865   2.765 -0.0210  0.2286 -0.0115
  347W        W 4547   4.043   7.400   3.998  0.1116 -0.0152 -0.0998
  348W        W 4548   0.571   0.060   3.276 -0.0901 -0.2143 -0.0499
  349W        W 4549   5.768   7.840   0.020  0.1568 -0.1609 -0.3145
  350W        W 4550   6.964   8.328   0.630  0.1181 -0.2099  0.0642
  351W        W 4551   8.349   1.634   2.043 -0.1317  0.0581  0.2858
  352W        W 4552   2.680   6.713   3.975 -0.0453 -0.1378  0.1431
  353W        W 4553   8.010   8.431   2.623 -0.0812  0.0015 -0.2708
  354W        W 4554   0.137   1.365  11.575  0.1700 -0.1122 -0.0428
  355W        W 4555   8.314   2.117  12.215 -0.1916  0.0167 -0.1415
  356W        W 4556   7.138   9.688   1.552  0.1285  0.0271 -0.0431
  357W        W 4557   7.486   6.667   4.132  0.0047 -0.0489  0.2989
  358W        W 4558   4.713   3.003   3.890 -0.1401 -0.3237 -0.1305
  359W        W 4559   9.442   0.737   1.384 -0.1254 -0.1933  0.2699
  360W        W 4560   6.476   1.618   3.205 -0.2092  0.0357  0.3886
  361W        W 4561   2.128   3.139  11.826  0.2204 -0.3767  0.3038
  362W        W 4562   9.480   4.738  12.996 -0.1422  0.0404 -0.1042
  363W        W 4563   2.074   6.089   3.810  0.1085  0.1640 -0.0318
  364W        W 4564   8.647   2.033   1.781  0.3380  0.2092 -0.2380
  365W        W 4565   0.015   8.201   1.333  0.2061 -0.3580  0.2921
  366W        W 4566   6.916   1.304  11.846 -0.0586 -0.0848  0.1322
  367W        W 4567   3.456   1.287  13.205 -0.1941  0.1930 -0.2705
  368W        W 4568   4.464   4.972   8.972 -0.1189 -0.0909 -0.0329
  369W        W 4569   9.828   5.757  13.246  0.0771 -0.0679 -0.0159
  370W        W 4570   3.409  10.169  12.069  0.0869  0.1698  0.0905
  371W        W 4571   9.230   2.339   0.795 -0.0998  0.0566 -0.1004
  372W        W 4572   9.533   8.947  11.420 -0.0889  0.1329 -0.0077
  373W        W 4573   9.132   6.412   2.001 -0.2298  0.0057  0.0451
  374W        W 4574   8.590   5.246  10.864  0.0054 -0.0593  0.2506
  375W        W 4575   4.832   6.810  11.159 -0.0736 -0.2627  0.2341
  376W        W 4576   7.079   1.160  12.295  0.0529 -0.2343  0.4568
  377W        W 4577   7.702   9.245   1.547  0.0352 -0.1925 -0.2298
  378W        W 4578   3.892   8.481  11.553  0.1168 -0.0630 -0.0568
  379W        W 4579   9.978   5.934  10.106 -0.2145  0.1338 -0.0911
  380W        W 4580  10.453   1.645   1.914 -0.1428  0.0963  0.2358
  381W        W 4581   8.039   5.466  11.397 -0.0538 -0.0319 -0.0839
  382W        W 4582   7.813   7.574  12.138 -0.2865  0.1059 -0.3118
  383W        W 4583   8.160   2.828  10.074 -0.0848 -0.0721 -0.1803
  384W        W 4584   0.365   2.182   0.560  0.1533  0.0308 -0.3690
  385W        W 4585   2.585   2.785  10.312 -0.0402  0.1158 -0.1478
  386W        W 4586   9.087   6.939  11.004  0.0388 -0.1330 -0.1476
  387W        W 4587   6.594   6.732  11.139  0.0930  0.0334 -0.1480
  388W        W 4588   0.808   5.330  11.715 -0.1649 -0.2171  0.0927
  389W        W 4589   5.969   7.133   3.268  0.0491  0.3473 -0.1551
  390W        W 4590   4.376   2.967  10.024 -0.0792  0.1246  0.0920
  391W        W 4591   4.155   0.844   0.720  0.1537 -0.2770  0.3463
  392W        W 4592   6.142   9.607   9.729 -0.3881  0.0525  0.1186
  393W        W 4593   3.939   5.786   1.981  0.2551 -0.3119 -0.0637
  394W        W 4594  10.189   7.970   0.472  0.4290  0.3804  0.1512
  395W        W 4595   8.282   8.074  11.395 -0.0619 -0.1506 -0.3360
  396W        W 4596   5.577   3.072  12.139  0.0289 -0.0593  0.0559
  397W        W 4597   4.664   9.352  12.444  0.2739 -0.1987  0.1377
  398W        W 4598   6.951   2.761  11.339  0.0047 -0.0447  0.0351
  399W        W 4599   7.956   0.048   4.250 -0.0789 -0.3242 -0.1305
  400W        W 4600   8.403   7.394   2.770 -0.2157 -0.2005  0.1554
  401W        W 4601   3.308   2.663   2.342  0.0581 -0.1152 -0.2430
  402W        W 4602   5.333   2.172  10.766  0.0274  0.2441 -0.3013
  403W        W 4603   0.036   4.587  12.106  0.2099  0.0465  0.3286
  404W        W 4604   4.551   9.159   1.861  0.0766  0.0329  0.0350
  405W        W 4605   1.794   2.430  11.607  0.2729 -0.1305  0.3352
  406W        W 4606   4.610   9.542  13.376  0.2327  0.0031 -0.0775
  407W        W 4607   8.676   3.723  12.593 -0.0662  0.1394 -0.0815
  408W        W 4608   4.266   7.834   1.667 -0.0529 -0.0700  0.1840
  409W        W 4609   2.636   1.304  10.478 -0.0284  0.0292 -0.0339
  410W        W 4610   1.758   2.019  11.272  0.0953  0.0840 -0.0943
  411W        W 4611   9.238   2.472   0.354 -0.0084 -0.1348  0.0944
  412W        W 4612   7.729   6.969  10.646  0.2940  0.0787  0.1356
  413W        W 4613   7.297   8.535   2.163  0.2111  0.3755 -0.1010
  414W        W 4614   6.558   0.251   4.726 -0.1649  0.0541  0.1175
  415W        W 4615   3.325   4.242   4.555 -0.0734  0.0582  0.2671
  416W        W 4616   7.225   1.586  13.481  0.1253 -0.0252 -0.0952
  417W        W 4617   9.866   0.122   0.733  0.1129 -0.2244 -0.2173
  418W        W 4618   7.925   9.506   9.949  0.1008  0.1791 -0.2825
  419W        W 4619   1.024   0.766   1.600 -0.2531  0.0299 -0.2211
  420W        W 4620   3.386   0.690  10.170  0.0866  0.2115  0.0309
  421W        W 4621   5.311   2.515   9.577 -0.0744  0.0757 -0.0679
  422W        W 4622   9.240   9.353   0.320  0.2027  0.5224  0.1257
  423W        W 4623   2.154   4.631  12.072 -0.0399  0.0969  0.0074
  424W        W 4624   1.484   4.967   1.721 -0.4674  0.0671  0.0068
  425W        W 4625   1.426   1.777   9.896  0.3296 -0.2116  0.0308
  426W        W 4626   5.430   3.445   9.242 -0.1457 -0.1550  0.1882
  427W        W 4627   1.934  10.387  12.364  0.3629 -0.0824 -0.2447
  428W        W 4628   2.673   5.465  12.024  0.1579  0.0929  0.0937
  429W        W 4629   1.218   3.346  11.655 -0.0930 -0.3435 -0.2673
  430W        W 4630   7.649   1.985   9.369  0.2187  0.0902  0.0337
  431W        W 4631   3.970   3.046   3.786 -0.2003  0.2718 -0.0213
  432W        W 4632   1.216   2.694   0.714  0.2736 -0.3746 -0.2958
  433W        W 4633   5.958   7.652   9.522  0.0231 -0.1900  0.0685
  434W        W 4634   4.474   0.056   9.507 -0.0315 -0.0508  0.0755
  435W        W 4635   5.665   3.959   8.997  0.0675 -0.0861  0.0960
  436W        W 4636   0.597   3.440   9.460  0.0520  0.1019  0.0436
  437W        W 4637   3.361   7.642  11.127  0.2018 -0.1984  0.1597
  438W        W 4638   7.169   5.418   8.893  0.0239 -0.0718  0.1203
  439W        W 4639   8.017   4.476   2.057 -0.2393  0.0213 -0.0187
  440W        W 4640   7.650   8.204  10.723 -0.0116  0.1927  0.2438
  441W        W 4641   4.628   6.675   3.930  0.2720 -0.1119 -0.0345
  442W        W 4642   8.944  10.331   2.763 -0.1440  0.1805  0.2235
  443W        W 4643  10.032   9.578   3.748 -0.0121 -0.0704  0.1782
  444W        W 4644   9.635   4.056   9.362 -0.1330  0.1728 -0.0712
  445W        W 4645   4.961   2.025  10.406 -0.1672 -0.2386  0.1363
  446W        W 4646   5.699   9.850  12.544 -0.3159 -0.0145 -0.0454
  447W        W 4647   8.387   7.625   4.090 -0.0439  0.4146 -0.2107
  448W        W 4648   9.594   1.790   3.336 -0.0498 -0.2774  0.3777
  449W        W 4649   4.426   1.593  13.326  0.0963 -0.1077  0.1484
  450W        W 4650   9.700   2.558   0.123  0.1471 -0.2526  0.0387
  451W        W 4651   5.796   2.683  10.417 -0.1962  0.3856 -0.3352
  452W        W 4652   5.968   1.519   1.297  0.2482  0.1357  0.3800
  453W        W 4653   6.128   6.294   3.915  0.0607 -0.2465 -0.0043
  454W        W 4654   3.733   8.225  12.154 -0.4516 -0.0893 -0.2576
  455W        W 4655   6.531   9.200   0.324 -0.0319  0.0731  0.2610
  456W        W 4656   8.263   7.949   0.772 -0.1515 -0.1342 -0.0071
  457W        W 4657   8.337   7.773  12.426  0.1451 -0.2361 -0.2499
  458W        W 4658   3.192   7.025  11.849 -0.3474  0.1565  0.1546
  459W        W 4659   5.888   1.745   9.247  0.1388  0.0355 -0.2486
  460W        W 4660   6.935   3.293   1.366 -0.2262 -0.3572 -0.0362
  461W        W 4661   3.759   4.940  11.729  0.2578 -0.0590  0.0758
  462W        W 4662   5.377   6.728   9.214  0.0478 -0.4336 -0.1309
  463W        W 4663   6.871   9.575  12.922 -0.0718  0.2604  0.0674
  464W        W 4664   9.357   4.253  10.484  0.0730  0.0689 -0.0511
  465W        W 4665   7.557   1.117   2.189 -0.0027 -0.0913 -0.1071
  466W        W 4666   7.519   1.029  12.431  0.0028 -0.0860  0.0709
  467W        W 4667   7.592   5.775  11.545 -0.2970  0.2227  0.2114
  468W        W 4668   9.465   2.144  12.813 -0.0109 -0.0119  0.3158
  469W        W 4669   6.923   4.150   0.669  0.0810  0.0231 -0.3155
  470W        W 4670   4.281   4.551   0.021 -0.1698 -0.0909 -0.1539
  471W        W 4671   7.077   4.960   8.246 -0.0789 -0.0597  0.2781
  472W        W 4672   9.766   6.260  11.259  0.0875  0.0535  0.3381
  473W        W 4673   4.005   5.753   9.882 -0.1910  0.0505 -0.0461
  474W        W 4674   2.126   4.470  10.641  0.1484 -0.1814 -0.0487
  475W        W 4675   6.164   9.732  12.433  0.1856 -0.1386  0.0249
  476W        W 4676   6.096   2.902   2.139  0.2679 -0.2643 -0.0728
  477W        W 4677   1.547   5.426   4.009  0.1022 -0.1278  0.0736
  478W        W 4678   2.016   3.793  12.681  0.1099 -0.2554  0.2272
  479W        W 4679   1.751   4.952  12.813  0.2635  0.2002 -0.1395
  480W        W 4680   5.575   2.656   2.315  0.2781 -0.1884  0.1989
  481W        W 4681   6.757   6.630   0.612  0.1943 -0.0301  0.0017
  482W        W 4682   8.630   7.673  13.465 -0.0713  0.0703  0.3297
  483W        W 4683   5.335   0.167   1.135 -0.4351  0.1135  0.3618
  484W        W 4684   5.408   0.608  11.471  0.2108  0.0618  0.1628
  485W        W 4685   3.253   6.409   1.837 -0.0658  0.0214 -0.2735
  486W        W 4686   4.273  10.298   3.031  0.1199 -0.0760 -0.1042
  487W        W 4687   0.235   1.971   1.009  0.1357  0.2066  0.1336
  488W        W 4688   6.422   7.857   3.567  0.1563  0.0019  0.3026
  489W        W 4689   7.063   9.264   9.932  0.0132  0.1249 -0.0958
  490W        W 4690   4.855   1.102  10.224  0.0875  0.0899 -0.2735
  491W        W 4691  10.353   9.492   3.335 -0.4072 -0.1498 -0.3576
  492W        W 4692   0.344   8.637   3.086  0.1111 -0.0353  0.0230
  493W        W 4693   8.604  10.155   1.566 -0.1032 -0.0899  0.0030
  494W        W 4694   1.099   7.737  12.425  0.3233 -0.2379  0.1209
  495W        W 4695   0.307   0.861   3.612  0.0656  0.3389 -0.0273
  496W        W 4696   4.962   8.531   0.903  0.4082  0.0968  0.0551
  497W        W 4697   3.345   9.053  11.276  0.1057  0.3233  0.1288
  498W        W 4698   2.175   3.401   2.645  0.0479 -0.1980  0.1807
  499W        W 4699   8.975   8.653  11.197 -0.2062  0.4148 -0.0568
  500W        W 4700   5.938   2.011   1.923 -0.0353 -0.2185 -0.0582
  501W        W 4701   7.605   0.071   2.393 -0.2403  0.0788 -0.0044
  502W        W 4702  10.154   6.597  13.331 -0.0953 -0.1543  0.3383
  503W        W 4703   2.006   8.841   2.569  0.0826 -0.1632 -0.0497
  504W        W 4704   8.480   5.317  12.330 -0.3399 -0.0942 -0.1239
  505W        W 4705   8.812   9.593   0.446  0.0719  0.3559 -0.2152
  506W        W 4706   5.539   4.633  11.755 -0.2935 -0.2136 -0.0608
  507W        W 4707   0.265   2.806  13.500 -0.0294 -0.0784 -0.0671
  508W        W 4708   9.342   8.339  11.404 -0.1815 -0.1165  0.1272
  509W        W 4709   6.184   2.992  10.184  0.0896  0.1140  0.2292
  510W        W 4710   6.370   0.629  12.605  0.0643  0.0744  0.4310
  511W        W 4711   8.178   3.036   3.039 -0.0350  0.1392 -0.0310
  512W        W 4712   9.036   9.716   2.419 -0.2237 -0.3384 -0.2265
  513W        W 4713   4.560   7.519  13.041 -0.1917  0.1310  0.0593
  514W        W 4714   0.156   8.902   2.707  0.2041  0.4229  0.3837
  515W        W 4715   6.677   5.175   3.541 -0.1315  0.1183 -0.0080
  516W        W 4716   1.899   5.015  12.271 -0.5321 -0.1437 -0.2282
  517W        W 4717   2.915   3.617  10.074  0.1036 -0.1162  0.0340
  518W        W 4718   9.878   9.593   3.108 -0.2403 -0.1220  0.0817
  519W        W 4719   8.309   4.992   5.386  0.2011 -0.1385 -0.0408
  520W        W 4720   8.579   0.994   9.675 -0.1261  0.2110 -0.0363
  521W        W 4721   4.284   3.857   4.221  0.2266  0.0192  0.3905
  522W        W 4722   3.534   9.875   2.160 -0.3491  0.2576 -0.1379
  523W        W 4723   5.228   1.445   2.668  0.0906  0.2614 -0.2256
  524W        W 4724   2.937   4.930   1.569 -0.3352 -0.0387  0.0270
  525W        W 4725  10.044   4.727  12.962 -0.1055  0.1889 -0.0648
  526W        W 4726   1.071   6.254   1.356 -0.0736 -0.0090  0.1881
  527W        W 4727   3.204   7.822  10.686 -0.0973 -0.2148 -0.1357
  528W        W 4728   7.208   7.977   0.349  0.0293 -0.1688  0.3518
  529W        W 4729   6.367   5.937   1.509 -0.3681 -0.1228 -0.4160
  530W        W 4730   7.332   1.909   1.688 -0.2280 -0.1994  0.0268
  531W        W 4731   8.374   5.713   2.908 -0.1525 -0.2807 -0.1319
  532W        W 4732   9.709   6.032   0.748 -0.0490 -0.1390  0.2359
  533W        W 4733   4.150   6.500  10.134  0.0949  0.2268 -0.0002
  534W        W 4734  10.317   1.407  11.953  0.0728 -0.1748 -0.0255
  535W        W 4735   6.408   3.866  11.079  0.1884 -0.1991  0.1769
  536W        W 4736   4.488   5.039  12.366 -0.2817 -0.2570 -0.1133
  537W        W 4737   0.098   0.780  12.477 -0.0423  0.0114  0.0813
  538W        W 4738   5.496   0.380   1.661  0.1632 -0.2966 -0.1127
  539W        W 4739   3.825   2.009  12.374 -0.1141  0.1426  0.0431
  540W        W 4740   4.163   5.153   2.775  0.0329 -0.1085 -0.0132
  541W        W 4741   0.900   4.164   4.129 -0.2144 -0.1564 -0.0979
  542W        W 4742   9.927   4.425   4.145 -0.0475 -0.1391 -0.4351
  543W        W 4743   8.826   8.733   1.070  0.3263  0.3427  0.0455
  544W        W 4744   6.817   4.041   2.690 -0.0757 -0.2346 -0.1092
  545W        W 4745   5.443   9.271   9.506  0.0535  0.2644  0.0747
  546W        W 4746   3.202  10.366  12.937 -0.0767 -0.3453  0.3031
  547W        W 4747   9.625  10.328   2.007  0.0512 -0.0998  0.0331
  548W        W 4748   4.320   7.596  11.032  0.4972  0.0493  0.2368
  549W        W 4749   1.426   7.682   3.655 -0.0983  0.0914 -0.0871
  550W        W 4750   6.253   6.663  12.486  0.1561  0.0287 -0.2451
  551W        W 4751   7.591   6.746   1.226  0.1156  0.5489  0.0580
  552W        W 4752   6.737   3.231   0.020 -0.2791  0.1030  0.0792
  553W        W 4753   2.630   5.553   1.941  0.2950 -0.1171  0.0033
  554W        W 4754   0.477   4.421   3.986  0.2546 -0.0757  0.1670
  555W        W 4755   6.740   0.795  12.314 -0.0963 -0.2158  0.0508
  556W        W 4756   6.485   2.545  11.495 -0.2514  0.1400  0.2725
  557W        W 4757   0.298   1.035  12.081  0.0834  0.1241  0.0632
  558W        W 4758   3.853   6.058  10.262 -0.1114 -0.1874  0.2202
  559W        W 4759   7.504   9.162   4.509 -0.0060 -0.0233  0.1481
  560W        W 4760   1.312   0.887   3.494 -0.0398  0.0038 -0.2449
  561W        W 4761   9.649   8.069  11.840  0.1378  0.1197 -0.0756
  562W        W 4762   8.979   8.348  11.940  0.0390 -0.0185 -0.2713
  563W        W 4763   8.214   0.495   2.828  0.3346  0.0755 -0.1927
  564W        W 4764   9.876   5.629   1.044 -0.0835 -0.2157  0.0776
  565W        W 4765   8.235   2.499   3.001  0.0944  0.1443 -0.0752
  566W        W 4766   1.651   4.938   3.941  0.1336  0.0461 -0.2367
  567W        W 4767   9.278   0.832   0.839  0.2487  0.1061  0.0603
  568W        W 4768   7.790   7.689   0.373 -0.1105 -0.0030 -0.3263
  569W        W 4769   5.456   2.643   3.298  0.0053 -0.2209 -0.0867
  570W        W 4770   7.170  10.423   3.168  0.0097  0.0383  0.1273
  571W        W 4771   5.097   2.719   2.936 -0.2320  0.0959  0.1611
  572W        W 4772   5.959   2.547   1.106  0.2247 -0.0330 -0.0701
  573W        W 4773   8.675   2.103  11.308  0.3326 -0.0462  0.1052
  574W        W 4774   7.893   2.777   2.273 -0.0690 -0.0764 -0.1426
  575W        W 4775   6.707   9.912   0.034  0.0444 -0.1434 -0.1697
  576W        W 4776   1.056   9.834  10.260  0.0174 -0.0161 -0.1099
  577W        W 4777   6.137   6.323   8.828 -0.3848  0.4730  0.0623
  578W        W 4778   2.890   8.426   1.554 -0.0387 -0.0437 -0.0186
  579W        W 4779   8.383   2.304   4.233 -0.0791 -0.0204 -0.0138
  580W        W 4780   6.648   1.089  11.442 -0.0194 -0.1992 -0.3543
  581W        W 4781   9.415   1.267   1.588 -0.1359  0.0472 -0.4559
  582W        W 4782   7.648   9.559  13.475 -0.4352  0.0082 -0.2153
  583W        W 4783   0.075   5.811   4.840  0.4109  0.0608  0.3170
  584W        W 4784   8.743   2.291   0.603 -0.1653  0.2520  0.2099
  585W        W 4785   8.725   4.028  11.326 -0.0610  0.0826 -0.0959
  586W        W 4786   2.438   5.780   1.491 -0.2486 -0.0235 -0.1584
  587W        W 4787   4.358  10.042   3.989  0.3010  0.0574  0.3663
  588W        W 4788   2.331   0.582   2.475 -0.1626  0.0709  0.0421
  589W        W 4789   6.370   5.789  10.000 -0.2876  0.1166 -0.1530
  590W        W 4790   3.682   0.352  13.334  0.0301 -0.0543 -0.0112
  591W        W 4791   5.657   8.277   3.623 -0.0147  0.2429 -0.0294
  592W        W 4792   8.809   0.134  12.892  0.0565  0.0633  0.1066
  593W        W 4793   1.009   0.830   3.910  0.2004  0.0270  0.2424
  594W        W 4794   2.958   6.833  13.157  0.0422 -0.0522  0.0640
  595W        W 4795   5.160   4.398   4.245  0.0313  0.2540 -0.0034
  596W        W 4796   4.375   1.915  12.544 -0.0931  0.0760 -0.2219
  597W        W 4797   5.855  10.416   0.169 -0.0645  0.1662 -0.0479
  598W        W 4798   6.817   4.753  11.395  0.1130 -0.1437  0.0711
  599W        W 4799   6.819   6.288   1.013  0.0107  0.0191  0.2096
  600W        W 4800   1.203   4.549   1.729 -0.0396 -0.0645 -0.4737
  601W        W 4801   8.430   1.608   3.639 -0.1689 -0.1221 -0.0226
  602W        W 4802   8.943   2.398  10.211 -0.0371 -0.1500 -0.0685
  603W        W 4803   4.809   5.465   0.998  0.0386  0.1778  0.1692
  604W        W 4804   9.357   4.635  11.889  0.2631  0.1174  0.5019
  605W        W 4805   1.044   1.474  11.369 -0.2813 -0.2842  0.3440
  606W        W 4806   0.440   0.496  13.103 -0.1421 -0.1732 -0.3036
  607W        W 4807   2.485   5.457  11.488  0.0597  0.0315  0.2883
  608W        W 4808   8.936   7.460   2.850  0.3282  0.0705  0.0509
  609W        W 4809   6.534   6.124  12.502  0.1901  0.0982 -0.2238
  610W        W 4810   6.224   3.668  13.369 -0.1133 -0.0115 -0.1600
  611W        W 4811   7.426   7.691   9.521 -0.2585  0.0165  0.2413
  612W        W 4812   2.764   5.473  12.687  0.1567  0.2787  0.0151
  613W        W 4813   5.960   6.515  13.455 -0.0553  0.1418 -0.0360
  614W        W 4814   6.557   0.292   2.949  0.1450 -0.2734 -0.1650
  615W        W 4815   7.907   9.847   3.416 -0.2846  0.0070  0.0218
  616W        W 4816   5.006   9.249  13.231  0.0402 -0.2140 -0.2175
  617W        W 4817   3.949   1.838   2.634  0.2145 -0.1295 -0.2112
  618W        W 4818   6.518   9.753  10.738  0.1192  0.0125 -0.0866
  619W        W 4819   1.850   8.040   0.997 -0.2004 -0.1073 -0.0509
  620W        W 4820   7.656   5.886   2.123 -0.0554  0.1729  0.5392
  621W        W 4821   3.648   7.459   0.265 -0.2598 -0.4320 -0.1393
  622W        W 4822   9.314   2.044   9.846  0.1807  0.0172  0.1450
  623W        W 4823   9.950   1.828   0.643 -0.2024  0.0669 -0.1181
  624W        W 4824   0.751   0.124   0.493 -0.0283 -0.2792  0.2445
  625W        W 4825   9.661   8.333   2.007 -0.0503  0.0126  0.1633
  626W        W 4826   3.301   8.246   1.739  0.0408  0.0747 -0.1371
  627W        W 4827   7.153   1.962  10.228  0.0244  0.2566  0.1311
  628W        W 4828   8.647   3.079  11.803  0.1822 -0.1032 -0.0130
  629W        W 4829   7.980   0.661   4.550  0.2469 -0.1272  0.0806
  630W        W 4830   2.199   1.517  13.229  0.0731  0.0535  0.0750
  631W        W 4831   4.702   7.326  10.817  0.0474  0.3966 -0.3559
  632W        W 4832   5.092   1.749   0.468  0.0244 -0.0661  0.0553
  633W        W 4833   3.422   9.161   9.537  0.3319  0.0800 -0.0344
  634W        W 4834   5.985   5.188   9.316  0.0563 -0.0897 -0.1270
  635W        W 4835   1.823   4.464   9.065  0.1007 -0.1811 -0.2008
  636W        W 4836   7.472   1.490   0.940  0.2489  0.0783  0.3304
  637W        W 4837   6.972   5.106   0.473 -0.1504 -0.2499 -0.1155
  638W        W 4838   3.852   3.158  12.943 -0.1223  0.2145  0.0907
  639W        W 4839   7.271   7.184  10.558  0.0046  0.0889  0.0114
  640W        W 4840   3.620   1.708   4.261  0.1701 -0.1642 -0.1604
  641W        W 4841   2.997   2.679  12.912  0.1361  0.0526 -0.2147
  642W        W 4842   6.787   0.211   3.470 -0.2340 -0.1969 -0.0006
  643W        W 4843   2.881   1.520   1.715 -0.1705  0.0759 -0.1196
  644W        W 4844   5.904   3.757   1.488 -0.0125 -0.1199 -0.2876
  645W        W 4845   5.089   7.260  11.125 -0.0572 -0.0928  0.0190
  646W        W 4846   2.557   1.772   4.879  0.0456 -0.2397  0.0551
  647W        W 4847   7.197   4.074  12.440  0.2111  0.1022 -0.1077
  648W        W 4848   7.933   8.866   4.459  0.0786 -0.0734 -0.0281
  649W        W 4849   5.569   9.819   9.780 -0.1310  0.0533  0.1451
  650W        W 4850   2.135   1.964   2.048 -0.0296  0.1444  0.2193
  651W        W 4851   9.395   9.465   2.802 -0.2011  0.1312  0.1452
  652W        W 4852   8.484   7.811   9.017 -0.0313  0.0968 -0.0198
  653W        W 4853   4.854   2.462  10.672  0.0289 -0.3915  0.0399
  654W        W 4854   1.757   0.798   1.278  0.0035  0.1360 -0.0502
  655W        W 4855   5.576   2.045   3.961  0.4069  0.0837  0.3631
  656W        W 4856   8.341   7.426  12.082  0.1170  0.1594  0.3270
  657W        W 4857   4.849   5.058   3.356  0.1553  0.0253 -0.0560
  658W        W 4858   3.579   1.805   2.936  0.0193  0.0818 -0.2400
  659W        W 4859   6.164   6.467   2.781  0.3244  0.3251 -0.0889
  660W        W 4860   5.248   2.406   8.905 -0.0829  0.3273  0.0821
  661W        W 4861  10.394   0.818  10.768  0.2559 -0.3616  0.1816
  662W        W 4862   4.289   2.625   4.026  0.0832  0.0712 -0.0093
  663W        W 4863   0.047   1.771  10.577  0.0587  0.0119 -0.1414
  664W        W 4864   8.146   6.319  10.001 -0.1167 -0.0017 -0.2794
  665W        W 4865  10.152   0.568  13.235  0.0650 -0.0003 -0.0783
  666W        W 4866   8.247   5.947  13.509 -0.1946  0.1901 -0.0905
  667W        W 4867   7.157   3.208   9.068  0.0284  0.0186 -0.0889
  668W        W 4868   9.380   4.683   2.008 -0.5616 -0.0463  0.0120
  669W        W 4869   7.925   3.656  12.208 -0.0103  0.1455  0.2104
  670W        W 4870   3.710   8.268  10.075  0.0908  0.0601  0.2209
  671W        W 4871   8.075   6.617   1.281  0.1751  0.0415 -0.1007
  672W        W 4872   4.155   4.819   0.614  0.0353  0.3659 -0.0196
  673W        W 4873   8.713   9.626  10.488 -0.2311 -0.1940  0.0268
  674W        W 4874   2.981   0.078  12.006 -0.1487  0.2631 -0.2579
  675W        W 4875   2.217   6.032   8.833 -0.0083 -0.1949  0.0000
  676W        W 4876   4.999   4.390  11.846 -0.2972 -0.2665 -0.3432
  677W        W 4877   2.492   9.475   0.233 -0.0681  0.2949  0.1080
  678W        W 4878   2.680   0.645   3.708 -0.0417 -0.2158 -0.1836
  679W        W 4879   1.519   6.655  13.133  0.0807  0.0839 -0.3865
  680W        W 4880   7.538   9.156   9.919  0.0174  0.1019 -0.0020
  681W        W 4881   5.826   0.029  10.833 -0.2080 -0.2292  0.1481
  682W        W 4882   2.502   2.052   4.125  0.1677 -0.2389  0.0931
  683W        W 4883   2.178   0.793  11.610  0.1100 -0.0703  0.0564
  684W        W 4884  10.446   8.220   2.201 -0.1039  0.1149 -0.0127
  685W        W 4885   7.446   1.444  12.110 -0.0224 -0.0813 -0.4786
  686W        W 4886   5.602   2.218   0.521 -0.1990  0.0128  0.0137
  687W        W 4887   9.377   5.627   1.933 -0.0910 -0.3076 -0.1235
  688W        W 4888   6.474   2.675   1.346  0.0227 -0.0032 -0.2888
  689W        W 4889   9.227   0.426  10.166  0.0220  0.1999 -0.2715
  690W        W 4890   7.764   5.011  11.455  0.2235 -0.2547 -0.2218
  691W        W 4891   5.546   7.176   8.998  0.2505 -0.1834  0.1119
  692W        W 4892   6.561   2.102   9.541 -0.3282  0.0576  0.3437
  693W        W 4893  10.024   0.933   3.421  0.0923 -0.1587 -0.0815
  694W        W 4894   5.154   5.220  11.775 -0.0038 -0.2088 -0.1812
  695W        W 4895   0.922   2.686   1.252  0.2043 -0.1094 -0.1886
  696W        W 4896   8.488   8.375  11.720 -0.1920  0.0823  0.3197
  697W        W 4897   6.209   1.503  11.416  0.1681 -0.2756  0.3729
  698W        W 4898   8.992   8.812   0.565  0.0833 -0.3516  0.0889
  699W        W 4899   9.381   6.275  12.682 -0.0233  0.0369 -0.1275
  700W        W 4900   6.257   9.164   3.851 -0.0315  0.4027  0.1073
  701W        W 4901   1.848   1.822   9.434  0.4285 -0.3957  0.0338
  702W        W 4902   0.620   4.318   2.304  0.1135 -0.0637  0.0809
  703W        W 4903   2.713   5.925  11.485  0.2824  0.0496  0.0042
  704W        W 4904   8.485   4.798   3.304  0.0467  0.1597 -0.0399
  705W        W 4905   8.760   9.247   3.061  0.2121  0.0618 -0.0115
  706W        W 4906   5.331   5.692  13.107 -0.0293 -0.0895  0.0244
  707W        W 4907   6.235   2.655  10.579 -0.1894 -0.1053  0.0169
  708W        W 4908  10.044   8.867  12.708 -0.0278  0.3260 -0.2149
  709W        W 4909   4.677   9.485   9.361 -0.1384  0.3081  0.2618
  710W        W 4910   4.156   4.068  10.930 -0.0062 -0.0660  0.1927
  711W        W 4911   1.454   0.952  13.114  0.2454  0.1136  0.0427
  712W        W 4912   1.210   8.548  13.182  0.1859  0.0758 -0.0783
  713W        W 4913   4.974   8.935  10.565  0.2065  0.1960  0.1061
  714W        W 4914   7.158   1.622   5.421 -0.1691  0.1410  0.1390
  715W        W 4915   3.239   1.666  13.481  0.4014 -0.2161  0.1706
  716W        W 4916   9.336   8.592   2.324  0.1004  0.3225  0.0270
  717W        W 4917   7.296   4.600   9.530  0.1043  0.1102  0.0518
  718W        W 4918   5.056   6.385   1.792  0.0813  0.2089  0.0831
  719W        W 4919   1.399   6.892   2.356 -0.0208 -0.3292 -0.0214
  720W        W 4920   2.691   2.137   4.563 -0.0555 -0.0247  0.3315
  721W        W 4921   2.743   1.511  13.305  0.0029 -0.0694 -0.0601
  722W        W 4922   3.149   7.097  12.796  0.4254 -0.0747 -0.0319
  723W        W 4923   6.219   9.656   4.101  0.0562  0.1416  0.0520
  724W        W 4924   6.982   8.515   9.288  0.1081 -0.0843  0.0287
  725W        W 4925   0.638   3.712  10.992  0.1197 -0.0057 -0.0122
  726W        W 4926   8.968   4.441   9.883 -0.1943  0.2263 -0.3816
  727W        W 4927   7.162   6.546   2.677 -0.1900 -0.2802  0.1820
  728W        W 4928   5.339   1.805   9.397 -0.2537 -0.0419 -0.0149
  729W        W 4929   6.559   2.613   0.789 -0.2714  0.0401  0.4099
  730W        W 4930   5.815   7.791   4.265  0.2333 -0.1951 -0.0850
  731W        W 4931   9.563   5.708  10.272 -0.0147  0.0018  0.2595
  732W        W 4932   8.344   1.659  11.402 -0.2260 -0.0372  0.0248
  733W        W 4933   7.457   2.470  11.929  0.0687 -0.1483  0.4203
  734W        W 4934   9.564   2.209  11.487  0.0036  0.0789 -0.2974
  735W        W 4935   0.261   6.929   1.154 -0.1183 -0.0509  0.1280
  736W        W 4936   3.234   2.842   2.838  0.2620 -0.2898 -0.1549
  737W        W 4937   5.689   9.449   1.220  0.1003  0.1806 -0.1766
  738W        W 4938   9.743   0.268  11.497 -0.1677 -0.0347  0.1286
  739W        W 4939   0.596   3.333   4.085  0.0033 -0.1032  0.3800
  740W        W 4940   8.910   2.348   4.308  0.2943 -0.2667 -0.0074
  741W        W 4941   3.357   5.121   2.386 -0.5729 -0.1914  0.1176
  742W        W 4942  10.209   9.508  10.645  0.0057  0.0241 -0.3523
  743W        W 4943   4.561   3.046   2.873  0.1542 -0.0504 -0.0744
  744W        W 4944   7.098   8.051   8.405 -0.1624  0.2202  0.0459
  745W        W 4945   0.782   7.306   2.686  0.1007  0.2077  0.1036
  746W        W 4946   7.892   0.413   0.642 -0.0910  0.1302  0.1549
  747W        W 4947   6.749   4.374   3.194 -0.1895 -0.1008  0.1232
  748W        W 4948   9.797   7.175   0.293 -0.0027  0.1658 -0.0866
  749W        W 4949   2.898   0.784   0.675  0.1320 -0.1556 -0.1453
  750W        W 4950   4.863   4.415   0.770 -0.1007 -0.0345  0.1276
  751W        W 4951   7.249   4.760   1.406 -0.0667 -0.2901  0.0083
  752W        W 4952  10.246   4.183   2.263 -0.1837  0.1328 -0.1620
  753W        W 4953   9.496   8.841   3.532  0.0802 -0.0913 -0.1375
  754W        W 4954   6.635   2.968   3.381 -0.1040  0.0547 -0.0197
  755W        W 4955   9.786   9.419   4.144 -0.1284 -0.2096  0.0551
  756W        W 4956  10.147   5.983  12.547  0.1206 -0.0149  0.4136
  757W        W 4957   6.069   9.975  11.006  0.1913 -0.2119 -0.2193
  758W        W 4958   8.330   9.821  10.016  0.0312 -0.1242 -0.1420
  759W        W 4959   9.725   1.322   3.619 -0.0917 -0.0206 -0.1351
  760W        W 4960  10.181   9.969  10.461  0.3443 -0.0659 -0.0640
  761W        W 4961   3.132   3.808  12.171  0.1280 -0.1023  0.1160
  762W        W 4962   2.184   8.130   1.847 -0.0153  0.1975 -0.2835
  763W        W 4963   3.215   4.012  10.377  0.0192  0.0905 -0.1842
  764W        W 4964   5.980   9.295   8.778  0.1487  0.0984  0.2492
  765W        W 4965   5.982   9.625  10.568 -0.0673 -0.2092 -0.0887
  766W        W 4966   0.183   1.256  12.845 -0.2526  0.4408 -0.0311
  767W        W 4967   9.481   6.449  10.719 -0.3746  0.0263  0.0266
  768W        W 4968   2.232   1.392   4.919 -0.1634 -0.1851 -0.0388
  769W        W 4969   5.384   1.797  11.610 -0.2761  0.2432  0.2402
  770W        W 4970   8.200   4.032   2.232  0.2781  0.2414  0.3209
  771W        W 4971   3.881   4.456  10.711 -0.2422 -0.2799 -0.3425
  772W        W 4972   0.184   1.481  12.381 -0.0210 -0.0486 -0.3109
  773W        W 4973   2.856   1.229   9.978  0.2561 -0.0483  0.3251
  774W        W 4974  10.049   6.807  12.625  0.0628 -0.0629  0.0790
  775W        W 4975   8.525   1.762  10.879  0.0422 -0.0343  0.1654
  776W        W 4976   2.191   0.110   2.961  0.0907  0.4012 -0.0066
  777W        W 4977   1.031   9.269  12.771 -0.2151  0.1585  0.2146
  778W        W 4978   6.296   6.164  13.442  0.1117 -0.0297 -0.1297
  779W        W 4979   9.275   6.291  12.129  0.0336  0.0841 -0.2732
  780W        W 4980   8.551   0.635   2.200 -0.1287 -0.1608  0.0786
  781W        W 4981   0.685   8.384   2.009 -0.1005 -0.0160  0.0314
  782W        W 4982   0.015   5.733   0.347 -0.1350 -0.3397 -0.2424
  783W        W 4983   5.076   3.460   4.213  0.0747  0.2112  0.2796
  784W        W 4984   4.958   7.639  12.110 -0.1218  0.3835  0.1068
  785W        W 4985   5.906   5.327   3.320  0.1548 -0.3910  0.0586
  786W        W 4986   2.784   6.685  12.652  0.1309 -0.1146  0.1617
  787W        W 4987   5.472   7.491   9.417  0.0721  0.0685 -0.0969
  788W        W 4988   5.743   8.892  11.988 -0.1562 -0.0106 -0.0437
  789W        W 4989   0.663   8.446  12.735  0.1018 -0.2063  0.2339
  790W        W 4990   9.248   0.334   0.034  0.0952  0.1699 -0.1124
  791W        W 4991   7.786   4.336  10.725  0.1417  0.2578 -0.0547
  792W        W 4992   1.948   1.537   2.073  0.1295  0.4746  0.0048
  793W        W 4993   6.326   0.714   0.597  0.1551  0.1108  0.0415
  794W        W 4994   8.670   3.558   3.735 -0.1467  0.1880 -0.1727
  795W        W 4995   7.734   7.849  13.160  0.2768  0.0855 -0.4904
  796W        W 4996   3.737   1.593   3.798 -0.1318  0.5701  0.2343
  797W        W 4997   7.042   3.947   3.387 -0.2826  0.0495  0.0443
  798W        W 4998   8.104   8.284  12.570  0.2884 -0.1340  0.1065
  799W        W 4999   4.988  10.231   1.252  0.0907 -0.1175 -0.1423
  800W        W 5000   9.918   5.321   4.166 -0.0438  0.1060 -0.1314
  801W        W 5001   9.476   2.819  11.215  0.0918 -0.0402 -0.1299
  802W        W 5002   8.300   9.499   0.450 -0.4334 -0.1381 -0.1449
  803W        W 5003  10.234   7.708  11.204 -0.1613  0.1664 -0.0901
  804W        W 5004   9.321   1.314   3.267  0.1072 -0.0558  0.1554
  805W        W 5005   3.514   8.942  10.775  0.0588 -0.0228 -0.0977
  806W        W 5006   7.215   4.078   9.320 -0.2288  0.0508  0.0305
  807W        W 5007   2.040   3.279   8.902 -0.0363 -0.2786 -0.2128
  808W        W 5008   6.382   7.258  12.417  0.2488 -0.2404 -0.0151
  809W        W 5009   4.007   3.589   3.461 -0.0588  0.0435  0.3519
  810W        W 5010   7.446   5.837   4.648 -0.2907  0.1017  0.0632
  811W        W 5011  10.444   4.242  11.263 -0.1051 -0.0782  0.1186
  812W        W 5012   0.075   8.774  12.736  0.0906  0.1017 -0.0216
  813W        W 5013   7.779   6.298   1.687  0.0895  0.3052  0.4563
  814W        W 5014   6.572   5.369   2.213 -0.1837  0.2112  0.2153
  815W        W 5015   5.713   6.159   3.699 -0.1648  0.0155 -0.0497
  816W        W 5016   2.993   9.079  13.028 -0.0455  0.0876  0.1310
  817W        W 5017   0.268  10.341   2.157 -0.2478 -0.0168 -0.1751
  818W        W 5018  10.090   2.902  11.779 -0.1337  0.0257 -0.0452
  819W        W 5019   4.809   5.485   4.652 -0.1314  0.0011  0.1802
  820W        W 5020   4.755   9.871  11.130 -0.1160  0.0547  0.1599
  821W        W 5021   9.673   4.955  11.634  0.2652  0.1311  0.2886
  822W        W 5022  10.240   7.443   0.554 -0.0339 -0.0946  0.0195
  823W        W 5023   7.445   9.016   1.191 -0.1757 -0.0847 -0.0234
  824W        W 5024   3.744   4.103   3.304  0.0277  0.2055 -0.1487
  825W        W 5025   4.183   0.498  11.839 -0.3821  0.0973  0.0035
  826W        W 5026   1.422   6.278  12.843  0.1237  0.1488  0.0697
  827W        W 5027   5.451   5.190   0.314  0.0120 -0.2382  0.2732
  828W        W 5028   1.500   7.641  12.038  0.4415 -0.3339 -0.0272
  829W        W 5029   8.675   5.947   4.479 -0.2148  0.0866  0.0462
  830W        W 5030  10.382   3.026   0.748  0.2089 -0.0229  0.0486
  831W        W 5031   8.518  10.001  12.797 -0.2490  0.2201 -0.1730
  832W        W 5032   5.506   8.536   0.212  0.1942  0.3312  0.1422
  833W        W 5033   5.562   5.332  10.185  0.2295 -0.0660 -0.1922
  834W        W 5034   5.542   3.492   9.729 -0.3098  0.0988 -0.3123
  835W        W 5035   8.421   3.456  10.570 -0.1443  0.0889 -0.2134
  836W        W 5036   1.946   1.399  11.599 -0.3527 -0.2722  0.0778
  837W        W 5037   1.501   3.579   9.941 -0.0434 -0.2459  0.1616
  838W        W 5038   1.627   7.455  12.494  0.2650 -0.1372 -0.1910
  839W        W 5039   4.019   0.921   4.506 -0.2509 -0.0524 -0.2324
  840W        W 5040   4.254   5.752  12.992  0.3893  0.0211  0.1760
  841W        W 5041   1.259   5.054  12.111 -0.0295  0.0307  0.2605
  842W        W 5042   5.044   9.584  10.280  0.1375  0.1758 -0.3262
  843W        W 5043   9.635   3.419   1.323  0.0283 -0.1875  0.1948
  844W        W 5044   4.153   4.028   3.683  0.1129 -0.0593 -0.0288
  845W        W 5045   8.598   3.617  10.036 -0.0848  0.1166 -0.0891
  846W        W 5046   4.889   1.745  11.559 -0.2193 -0.0783 -0.0235
  847W        W 5047   9.362   6.994   2.806  0.0949 -0.0209 -0.0802
  848W        W 5048   5.151   3.696  12.694  0.1333  0.1770 -0.4044
  849W        W 5049   6.452   0.624   1.630 -0.4355 -0.1690 -0.3508
  850W        W 5050   4.748   5.037   4.955  0.0421  0.1480  0.1680
  851W        W 5051   6.977   2.668   1.102  0.1865  0.2753 -0.2184
  852W        W 5052   3.743   9.436  11.092  0.3090  0.2089 -0.1281
  853W        W 5053   0.173   8.100   3.098  0.1046 -0.2863 -0.3822
  854W        W 5054   8.203   2.666   3.887  0.0420 -0.3304 -0.3576
  855W        W 5055   3.928   9.039   2.763  0.2117  0.1584 -0.1038
  856W        W 5056  10.280   6.900   2.753  0.0459 -0.2129  0.1190
  857W        W 5057   8.139   4.936  12.648 -0.0747  0.2396  0.3381
  858W        W 5058   7.232   1.013  10.919 -0.1962  0.0710  0.0519
  859W        W 5059   2.083   7.711  12.500 -0.0547 -0.0503  0.0968
  860W        W 5060   6.737   8.124   1.120 -0.1703  0.0017  0.3613
  861W        W 5061   1.691   2.235   0.307  0.0676 -0.2921 -0.0369
  862W        W 5062   5.649   4.823  10.095 -0.1869  0.0133  0.2447
  863W        W 5063   3.104   9.298  10.883 -0.2216 -0.0293  0.2180
  864W        W 5064   5.330   9.000  12.262  0.1745  0.2742 -0.1096
  865W        W 5065   8.471   6.293  11.841 -0.1352 -0.1134  0.1416
  866W        W 5066   2.264   9.542  11.371 -0.1628  0.1212  0.2728
  867W        W 5067   6.044   2.316   2.806 -0.0264 -0.0202 -0.2688
  868W        W 5068   5.033   4.762  11.537  0.0695 -0.2851  0.0951
  869W        W 5069   5.613   7.889   9.784  0.1822 -0.0999  0.2365
  870W        W 5070   1.478   3.931   2.912  0.0755 -0.6130 -0.0175
  871W        W 5071   2.950   9.575   0.357  0.0194 -0.4065 -0.0247
  872W        W 5072   1.191   5.194   2.717  0.0483  0.0681 -0.0555
  873W        W 5073   0.762   3.138   9.869  0.1124  0.1286  0.1397
  874W        W 5074   2.540  10.131   3.162 -0.4146 -0.1464 -0.0693
  875W        W 5075   0.886   8.913  10.915 -0.0454 -0.0906 -0.3059
  876W        W 5076   3.899   6.702   9.357 -0.2092  0.0969 -0.0488
  877W        W 5077   4.657  10.349  13.399  0.0760 -0.0300  0.1604
  878W        W 5078   0.694   4.275  11.895  0.0445  0.2169  0.2126
  879W        W 5079   6.987   7.467   4.496  0.3549  0.0823 -0.0659
  880W        W 5080   0.205   2.067   5.529 -0.2264  0.0484  0.0628
  881W        W 5081   8.317  10.328  10.881  0.2053 -0.4566 -0.0009
  882W        W 5082   0.840   8.882  10.274  0.0822  0.1752  0.2362
  883W        W 5083   2.343   8.174   0.217  0.0547  0.0114  0.2687
  884W        W 5084   6.394   6.661  11.570 -0.0781  0.0158 -0.2325
  885W        W 5085   7.100   2.025  13.226 -0.0224  0.1313 -0.2251
  886W        W 5086   3.372   9.906   3.763 -0.1565 -0.0444  0.1319
  887W        W 5087   7.918   6.411   3.355  0.2232 -0.1236 -0.3028
  888W        W 5088  10.191   7.208   2.258 -0.0450 -0.0582  0.2035
  889W        W 5089  10.299   1.455  10.130  0.1064 -0.1858  0.0466
  890W        W 5090   1.878   6.384  11.461 -0.0863  0.0841 -0.1421
  891W        W 5091   4.122   5.286   8.717  0.3094 -0.1419 -0.0419
  892W        W 5092   7.395   8.871  10.954 -0.0679 -0.1383  0.2430
  893W        W 5093   3.840   1.193   4.142  0.2015 -0.1020 -0.2361
  894W        W 5094   2.296   4.168   2.323  0.0632  0.0297 -0.1237
  895W        W 5095   7.859   8.698  12.808  0.0379  0.3413  0.0712
  896W        W 5096   9.338   5.006  13.420 -0.0685 -0.2120 -0.0668
  897W        W 5097   7.625   6.709   0.461 -0.0921 -0.0410  0.0592
  898W        W 5098   1.111   2.447   9.230  0.0590  0.1797  0.0681
  899W        W 5099   3.727   3.446   1.255  0.0726  0.0164 -0.0056
  900W        W 5100   2.029   8.520   2.068 -0.0193  0.2265 -0.0094
  901W        W 5101   1.135   7.239  12.125 -0.0884 -0.0959 -0.2903
  902W        W 5102   2.644   1.205   1.379 -0.1181 -0.2562  0.1703
  903W        W 5103   6.481   4.708   4.655  0.1815  0.1769  0.0215
  904W        W 5104   3.273   3.398   0.294 -0.3561  0.0460 -0.3712
  905W        W 5105   4.133   8.789   0.088  0.0756 -0.0469 -0.0702
  906W        W 5106   5.969   2.149   4.294 -0.1248  0.0208 -0.2013
  907W        W 5107  10.302   2.070   2.361  0.1782  0.0241 -0.1743
  908W        W 5108   6.522   2.686   2.476  0.1138 -0.1580 -0.1095
  909W        W 5109   8.290   1.240   4.005 -0.0863 -0.0907  0.1521
  910W        W 5110  10.217  10.197  11.998  0.0406 -0.0947  0.2000
  911W        W 5111   5.349   9.762   2.903 -0.0613  0.0924  0.1589
  912W        W 5112   9.871   6.284   4.063 -0.0245  0.0485  0.0912
  913W        W 5113   7.192   5.928   0.033 -0.0655 -0.1133 -0.1349
  914W        W 5114   4.006   1.865  11.917  0.0154 -0.1132  0.0646
  915W        W 5115  10.127   6.401   1.525  0.4451  0.1103  0.0575
  916W        W 5116   1.324   9.257  11.539 -0.0077  0.0873  0.0462
  917W        W 5117   6.436   9.773  10.216  0.0404  0.3520 -0.1277
  918W        W 5118   1.518   3.801  11.754  0.2072 -0.2061  0.1780
  919W        W 5119   5.323   8.752   1.187 -0.2477  0.0594  0.2022
  920W        W 5120   9.515  10.135   9.576  0.0192 -0.2820  0.1091
  921W        W 5121   6.483   9.236   3.410 -0.0847  0.3292  0.2862
  922W        W 5122   8.312   7.944   2.597  0.1757 -0.6222 -0.0150
  923W        W 5123  10.160   1.297   1.193 -0.2300  0.0517 -0.2930
  924W        W 5124   0.649   9.891  12.422 -0.1973  0.2259  0.1871
  925W        W 5125   2.173   2.546   3.043  0.2236 -0.2006  0.0788
  926W        W 5126   0.829  10.219   0.880 -0.0599  0.0947 -0.1331
  927W        W 5127   9.046   0.257   0.902  0.1028 -0.2768 -0.3067
  928W        W 5128   3.701   0.999   0.620  0.0639 -0.4617  0.0941
  929W        W 5129   7.454   0.408   0.879 -0.0882  0.1770  0.1046
  930W        W 5130   0.546   0.005   9.397 -0.0074 -0.1365  0.0409
  931W        W 5131   0.298   4.059  12.659 -0.4359  0.1367  0.0137
  932W        W 5132   1.270   6.910  10.269  0.0042  0.0289 -0.3597
  933W        W 5133   1.112   7.674   2.689  0.1786  0.0763 -0.0940
  934W        W 5134   5.736   4.155  10.259 -0.1214 -0.1159 -0.1233
  935W        W 5135   4.208   0.478  11.206  0.1248 -0.1381 -0.0989
  936W        W 5136   4.751   9.136   0.255 -0.1055  0.0295 -0.1567
  937W        W 5137   7.929   5.290   1.497 -0.1251 -0.1186  0.3345
  938W        W 5138   4.668   7.920   2.982  0.0452 -0.0343 -0.2125
  939W        W 5139   6.366   8.714   2.652  0.2877  0.2329  0.1732
  940W        W 5140   4.221   8.583   2.468 -0.0123 -0.1090 -0.1914
  941W        W 5141   2.543   3.926   1.498  0.2867 -0.1815  0.0126
  942W        W 5142   0.982   6.626  12.524  0.0566 -0.1125  0.0508
  943W        W 5143   3.842   2.086   1.530 -0.1870 -0.1324 -0.3042
  944W        W 5144   6.654   6.935  12.725  0.2152  0.1863 -0.4610
  945W        W 5145   6.698   6.091  12.042  0.0055 -0.1410  0.0995
  946W        W 5146   0.358   9.667   2.261  0.0791  0.1489 -0.0454
  947W        W 5147   5.967   4.505   4.759 -0.2572  0.0031  0.1038
  948W        W 5148   4.552   9.278  12.878 -0.2314  0.0327  0.0551
  949W        W 5149   8.438   6.970  12.373 -0.2586  0.2214  0.1263
  950W        W 5150   6.047   0.005  13.241 -0.1025 -0.2823  0.3706
  951W        W 5151   1.586   6.676   0.126 -0.2819 -0.1721 -0.0136
  952W        W 5152   4.376   5.797  10.278 -0.4017  0.2304 -0.0208
  953W        W 5153   3.821  10.382   2.885  0.2314  0.2260  0.0433
  954W        W 5154   1.737   3.895   4.172  0.0349  0.1635  0.0169
  955W        W 5155   3.749  10.405  10.080  0.1682 -0.1273 -0.0901
  956W        W 5156   3.032   8.683   1.944 -0.0603 -0.2415 -0.0710
  957W        W 5157   7.144   7.104   8.596  0.1508  0.0815  0.0429
  958W        W 5158   8.626   2.804   3.215  0.3575 -0.0791 -0.3090
  959W        W 5159   2.513   6.084  10.513 -0.0439 -0.3542 -0.0156
  960W        W 5160   6.780   9.366   1.848 -0.0378 -0.3530 -0.0680
  961W        W 5161   6.500   7.473  10.117  0.0174  0.2157 -0.3863
  962W        W 5162   2.919   6.751   3.299 -0.0833  0.0605 -0.3001
  963W        W 5163   3.073   2.910  11.046 -0.2125  0.1708  0.2194
  964W        W 5164   9.230   2.777   1.955  0.3204 -0.0516 -0.1044
  965W        W 5165   8.723   3.998  11.798 -0.0378 -0.0943 -0.1520
  966W        W 5166   1.368   3.396   2.007 -0.0205 -0.1472 -0.0593
  967W        W 5167   4.645   7.144   5.190  0.1375  0.0443  0.1791
  968W        W 5168   8.513   7.192  11.486  0.1364 -0.0765  0.0688
  969W        W 5169   9.068   1.264  12.531 -0.0787 -0.0570  0.0127
  970W        W 5170   4.125   3.114  11.026  0.2446  0.1870  0.0227
  971W        W 5171   7.033   8.832  12.386 -0.3042  0.0133 -0.1468
  972W        W 5172   3.445   0.072   0.668  0.1423 -0.1700  0.2962
  973W        W 5173   8.535   1.636  10.386 -0.1974  0.0683 -0.0568
  974W        W 5174   8.798   7.835   0.780 -0.1199 -0.0853  0.2375
  975W        W 5175   4.291   2.951  12.698 -0.3868  0.0212  0.0650
  976W        W 5176   1.231  10.424  13.097 -0.0253  0.0593  0.3213
  977W        W 5177   9.061   2.683  10.834 -0.0173  0.0033 -0.2013
  978W        W 5178   8.564   3.733  10.952 -0.0725  0.1742  0.1006
  979W        W 5179   7.632   4.594   4.286 -0.1659  0.1608  0.1161
  980W        W 5180   6.620   3.669   4.591  0.0390  0.1180  0.2051
  981W        W 5181   9.486   0.482   5.250  0.0746  0.2497 -0.1951
  982W        W 5182   8.025   6.222  13.208 -0.0151 -0.1739  0.1998
  983W        W 5183   4.749   9.960   3.698 -0.0326  0.0739  0.1058
  984W        W 5184   3.525  10.022   1.415 -0.0191 -0.0282 -0.0878
  985W        W 5185   9.996   9.562   0.705 -0.1441 -0.0132 -0.0279
  986W        W 5186   9.311   9.700   3.285 -0.0867  0.3863  0.3711
  987W        W 5187   0.757   1.612   4.424 -0.1512 -0.1843 -0.5110
  988W        W 5188   1.232   8.917   1.826 -0.1611 -0.2040 -0.1702
  989W        W 5189   9.954   8.779  10.884 -0.0336 -0.1369  0.1186
  990W        W 5190   9.491  10.035   1.457  0.1662  0.0861 -0.2760
  991W        W 5191   2.184   3.852  10.519  0.2384  0.0206 -0.2069
  992W        W 5192   5.462   0.836   3.731 -0.1737 -0.0716  0.1068
  993W        W 5193   2.756   2.530  12.406 -0.2327  0.2123 -0.0410
  994W        W 5194   8.887   7.030  12.152  0.0530 -0.0615 -0.0993
  995W        W 5195   0.593   5.753   3.394 -0.1964 -0.3943 -0.1967
  996W        W 5196   5.250   7.166   2.070  0.1768 -0.1881 -0.0635
  997W        W 5197   0.866   0.330   0.956 -0.2940 -0.1878 -0.2808
  998W        W 5198   3.927   6.252   1.686  0.0597  0.2724 -0.2216
  999W        W 5199   5.832   7.087   4.056 -0.2898  0.2243 -0.0738
 1000W        W 5200   4.211  10.294   0.463  0.3790  0.0472  0.2075
 1001W        W 5201   3.600   1.059   4.882 -0.2335 -0.3091  0.1309
 1002W        W 5202   8.816   0.190   0.437  0.2038  0.0417  0.1450
 1003W        W 5203   3.613   3.620   5.335 -0.1332 -0.4455 -0.2297
 1004W        W 5204   0.051   0.752  12.956  0.1037 -0.0780  0.3081
 1005W        W 5205   6.868   5.820   1.271 -0.1181 -0.0851 -0.0336
 1006W        W 5206   8.812   4.344   3.310  0.1775  0.0481  0.4060
 1007W        W 5207   5.127   1.352   0.157  0.0726  0.3707 -0.0177
 1008W        W 5208   1.230   8.501   2.774 -0.0845 -0.2358 -0.2202
 1009W        W 5209   8.859   7.894  13.097  0.0508 -0.1949 -0.0018
 1010W        W 5210   9.245   7.712   3.220  0.2162 -0.1613  0.1388
 1011W        W 5211   5.294   9.837   4.663 -0.0259  0.2357 -0.1318
 1012W        W 5212   9.979   9.165   3.426 -0.0300  0.0548 -0.0368
 1013W        W 5213   0.019   2.937  10.535  0.1880 -0.1888  0.0463
 1014W        W 5214   4.741   3.539   1.079 -0.1855  0.1973 -0.0719
 1015W        W 5215   2.893   6.988   4.612  0.1887  0.1413  0.0069
 1016W        W 5216   4.210   3.383   9.398 -0.2507 -0.0010  0.1731
 1017W        W 5217   0.669   1.232   9.790  0.0899 -0.1246 -0.3265
 1018W        W 5218   6.307   9.405  11.065 -0.0669  0.0416  0.0361
 1019W        W 5219   5.923  10.170   9.081  0.2082  0.0955 -0.1012
 1020W        W 5220   5.985   8.701   2.341  0.0287  0.1169  0.1613
 1021W        W 5221   8.660   2.607   1.532 -0.0307 -0.2357 -0.4034
 1022W        W 5222   3.608   3.102   8.013 -0.0226  0.2271  0.1561
 1023W        W 5223   6.660   1.244   5.080 -0.1726 -0.0133  0.2313
 1024W        W 5224   8.084   4.337   1.421  0.4752  0.1294  0.1312
 1025W        W 5225   7.970   0.917  10.417 -0.2434  0.2124  0.0823
 1026W        W 5226   9.922   8.423  13.056  0.0146 -0.1981 -0.1790
 1027W        W 5227   5.473   1.935   4.447 -0.1246 -0.0801  0.1432
 1028W        W 5228   6.621   6.046   0.386 -0.1613  0.2785 -0.2504
 1029W        W 5229   9.512   8.307  10.329 -0.1220  0.0880  0.2024
 1030W        W 5230   0.138   7.128   2.018 -0.1028 -0.1819  0.1484
 1031W        W 5231   6.182  10.167  10.486  0.0782  0.2191  0.1085
 1032W        W 5232   0.318   6.010   3.046 -0.1520  0.0009  0.0056
 1033W        W 5233   8.982   8.205   1.114  0.1897 -0.0603 -0.2556
 1034W        W 5234   7.514   4.888  11.927 -0.1667 -0.0898  0.0654
 1035W        W 5235   9.005   4.305   4.277 -0.1406  0.1785  0.2433
 1036W        W 5236   8.183   0.231   9.755 -0.1732 -0.0252  0.0674
 1037W        W 5237   2.722   7.680  11.645  0.0948 -0.1204 -0.2426
 1038W        W 5238   1.562   2.417   3.216 -0.0868 -0.0547 -0.0759
 1039W        W 5239   5.744   4.046   3.272  0.1665 -0.0238  0.2022
 1040W        W 5240   1.888   2.523  12.481 -0.2477  0.2298 -0.1014
 1041W        W 5241   4.170   2.387  12.524 -0.1808  0.0898  0.3279
 1042W        W 5242  10.114   9.541   9.592 -0.3189 -0.0777  0.4986
 1043W        W 5243   1.569   4.635   1.393  0.2067  0.0089  0.0860
 1044W        W 5244   7.193   6.168  12.140  0.0956  0.1428 -0.1059
 1045W        W 5245   5.200   4.820   9.181  0.0800 -0.3677 -0.0123
 1046W        W 5246   9.883   3.902   9.868  0.0754  0.0970  0.0680
 1047W        W 5247   5.476   6.002  11.611  0.0462  0.1072 -0.2602
 1048W        W 5248   2.866   6.832  10.927  0.3528 -0.2511  0.2615
 1049W        W 5249   9.344   6.663   4.548 -0.2362 -0.2841 -0.3119
 1050W        W 5250   3.363   8.022  10.267  0.2231 -0.1480  0.1033
 1051W        W 5251   3.034   2.980   2.055 -0.1591 -0.0300 -0.2511
 1052W        W 5252   5.877   0.776  11.811 -0.2971  0.1468 -0.0980
 1053W        W 5253   1.931  10.262   0.274  0.1235 -0.1019 -0.1165
 1054W        W 5254   8.005   1.279   2.067 -0.0064  0.1793  0.3639
 1055W        W 5255   5.062  10.440   9.696  0.2571 -0.3124 -0.1857
 1056W        W 5256   5.691   9.383   2.688 -0.0533  0.0612 -0.1280
 1057W        W 5257   8.699   7.729   9.679  0.0416  0.1520 -0.0299
 1058W        W 5258   7.162   2.755   2.832 -0.2195 -0.0776 -0.2397
 1059W        W 5259   1.655   7.200   0.880 -0.0858 -0.2592 -0.1503
 1060W        W 5260   7.783   8.328  11.721  0.0375 -0.0675  0.3695
 1061W        W 5261   8.311   4.349   3.182 -0.0567 -0.0558 -0.2282
 1062W        W 5262   0.539   8.114   3.489 -0.1383  0.0917  0.2075
 1063W        W 5263   7.899   1.257   2.566  0.4533 -0.0472  0.1553
 1064W        W 5264   4.008   7.379   2.800  0.2332 -0.0803 -0.1138
 1065W        W 5265   8.990   2.760   0.677 -0.6318  0.2623 -0.0739
 1066W        W 5266   2.546  10.172   9.762 -0.2320  0.1323  0.0098
 1067W        W 5267  10.372   9.745  13.399  0.0869 -0.3350 -0.2355
 1068W        W 5268   8.670   9.449   2.171 -0.3108  0.1039  0.1548
 1069W        W 5269   8.362   8.488   9.771 -0.1826  0.0187 -0.0608
 1070W        W 5270   4.585   9.313  10.324  0.1093 -0.2817  0.1230
 1071W        W 5271   3.312   6.936   2.053  0.2934 -0.0234  0.1289
 1072W        W 5272   2.869   8.983   2.874  0.2551  0.2198  0.1696
 1073W        W 5273  10.244   9.376  11.618  0.4604  0.2314  0.1577
 1074W        W 5274   6.223   4.174  11.477  0.2361 -0.0181  0.4456
 1075W        W 5275   5.459   4.630   5.437 -0.2041  0.0644 -0.4156
 1076W        W 5276   1.896   5.054   2.138  0.2635 -0.0719 -0.2616
 1077W        W 5277   3.228   8.381   2.846  0.0882 -0.0832 -0.0101
 1078W        W 5278   6.029   1.291   9.490  0.1075  0.1838  0.0126
 1079W        W 5279   9.100   1.510   1.317  0.2920  0.2315 -0.2229
 1080W        W 5280   4.787   5.177   9.658  0.0829 -0.0887  0.2749
 1081W        W 5281   6.299   8.796   1.208 -0.2777  0.0571  0.1326
 1082W        W 5282   3.324  10.289  13.423  0.2273  0.3390 -0.1148
 1083W        W 5283   5.693   4.772   9.394  0.2919  0.0678  0.0732
 1084W        W 5284   4.465   9.569   3.921 -0.0573 -0.1412  0.1442
 1085W        W 5285   7.988  10.394  12.271 -0.1561  0.1201 -0.0576
 1086W        W 5286   5.509   4.291  13.078 -0.0746  0.0242 -0.0202
 1087W        W 5287   9.863   6.966   2.006  0.1684 -0.2029  0.0247
 1088W        W 5288   6.427   1.215  10.470 -0.1745 -0.3049 -0.0683
 1089W        W 5289   1.009   3.487   2.433 -0.1004 -0.3659  0.0495
 1090W        W 5290   9.853   6.983  10.918  0.4077  0.0679  0.1269
 1091W        W 5291   5.280   5.965   3.472 -0.2735  0.2087  0.3650
 1092W        W 5292   4.072   2.272   0.753  0.0199 -0.2313  0.1975
 1093W        W 5293   4.015   7.868  10.264  0.0340 -0.1672  0.0941
 1094W        W 5294   7.129   8.477   3.188  0.2460  0.3113 -0.1196
 1095W        W 5295   0.568   6.357   3.390 -0.2383  0.1278  0.0594
 1096W        W 5296   0.652   6.509  11.004 -0.0520  0.2707  0.1769
 1097W        W 5297   1.638   0.719  11.784  0.0171 -0.0878 -0.1980
 1098W        W 5298   0.402   1.761   9.363 -0.4144  0.0224  0.1915
 1099W        W 5299   4.161   0.089  12.119 -0.2566  0.1630  0.3836
 1100W        W 5300   5.315   8.809   9.271  0.0324  0.1262 -0.1148
 1101W        W 5301   4.913   9.852  11.637 -0.2606 -0.1243  0.1086
 1102W        W 5302   5.270   8.971   0.492 -0.3836 -0.0454 -0.2525
 1103W        W 5303   1.127   4.222   9.339  0.0787  0.0852  0.0619
 1104W        W 5304   3.055   2.907   0.230 -0.3773 -0.2827  0.1841
 1105W        W 5305   6.335   4.566   1.164  0.2152 -0.0192  0.0081
 1106W        W 5306   9.927   1.519  10.969 -0.2490 -0.2181 -0.0581
 1107W        W 5307   2.972   1.085   2.051 -0.1853 -0.1437 -0.0792
 1108W        W 5308   2.451   5.954  11.913  0.0322  0.0348 -0.0043
 1109W        W 5309   3.015   0.909   2.813 -0.2843  0.0377  0.2708
 1110W        W 5310   7.759   9.708   3.936  0.0987  0.1807  0.0361
 1111W        W 5311   6.078   1.907   0.529  0.3372  0.0028  0.0748
 1112W        W 5312   7.812   5.638   2.504 -0.3944 -0.1117 -0.0054
 1113W        W 5313   9.686   1.578   0.366  0.0257 -0.1628  0.3527
 1114W        W 5314   4.564   8.228  12.759  0.1037 -0.0091 -0.0928
 1115W        W 5315   5.589   9.307   2.176 -0.2712  0.0161  0.0888
 1116W        W 5316   8.243   4.100  11.082  0.1797  0.2102  0.2027
 1117W        W 5317   5.270   7.214   1.562  0.1212 -0.0562  0.1778
 1118W        W 5318  10.031  10.105   1.489  0.1066 -0.0360 -0.3474
 1119W        W 5319   1.308   2.305   4.881 -0.1484 -0.2458  0.1111
 1120W        W 5320   2.602   0.298   3.246  0.0098  0.1142  0.1593
 1121W        W 5321   5.769   2.148   4.731  0.0378  0.0535  0.0220
 1122W        W 5322   9.418   3.281  10.357 -0.0296 -0.0635 -0.0046
 1123W        W 5323   4.874   7.065   2.652  0.0711  0.0863 -0.0077
 1124W        W 5324   8.553   5.478  10.369  0.0105  0.1422 -0.0805
 1125W        W 5325   8.770   1.215  10.367  0.0147 -0.5572  0.1348
 1126W        W 5326   3.627   2.883   9.940 -0.0241 -0.0937 -0.0509
 1127W        W 5327   0.430  10.270  10.909  0.1585  0.1171  0.2184
 1128W        W 5328   2.935   0.684  10.945  0.0059  0.0867 -0.0490
 1129W        W 5329   6.511   5.319   8.712 -0.0765 -0.0068  0.1869
 1130W        W 5330   4.693   6.144   0.292  0.2108 -0.0627 -0.2881
 1131W        W 5331   9.629   8.912   4.385 -0.1492  0.0829 -0.0261
 1132W        W 5332   4.974   9.433  11.321  0.3290 -0.1766 -0.1973
 1133W        W 5333   0.388   0.419  11.616 -0.1275 -0.0657  0.1930
 1134W        W 5334   0.207   8.447  10.802  0.0189 -0.2081  0.1227
 1135W        W 5335   3.491   1.182  12.700 -0.0971  0.0898 -0.1359
 1136W        W 5336   0.805   5.413  10.258 -0.2556 -0.1065 -0.0951
 1137W        W 5337   1.567   3.170  12.017  0.1822 -0.0146 -0.2411
 1138W        W 5338   4.291   9.680  12.580  0.2295  0.2669 -0.2072
 1139W        W 5339   7.909   4.179  11.924 -0.1896 -0.0183  0.0148
 1140W        W 5340   0.491   2.528   9.395  0.0223  0.1943  0.0511
 1141W        W 5341   9.145   7.932   9.437  0.0999 -0.1856  0.2411
 1142W        W 5342   8.834   1.109  12.117  0.1630  0.0928 -0.0770
 1143W        W 5343   9.752   3.059   4.715  0.2202  0.1829  0.0329
 1144W        W 5344   2.603   7.642   1.924  0.3085 -0.1040  0.1181
 1145W        W 5345   1.756   2.687  10.448  0.0439  0.2534  0.3745
 1146W        W 5346   7.680   0.229  13.236  0.0167 -0.1407  0.1777
 1147W        W 5347   5.761   4.318  12.652  0.1210  0.1318 -0.0712
 1148W        W 5348   8.039   9.562   0.902  0.0572 -0.0318  0.0745
 1149W        W 5349   1.555   3.694   0.417  0.1659 -0.1162  0.1660
 1150W        W 5350   5.913   1.161   9.015  0.6343 -0.1607  0.0433
 1151W        W 5351   9.344   6.879   1.818  0.0111  0.1102  0.0379
 1152W        W 5352   9.622   6.164   4.485 -0.3825  0.1625 -0.0048
 1153W        W 5353   4.421   1.878  11.312  0.0085  0.0394 -0.0916
 1154W        W 5354   8.108   8.377   0.670  0.1160 -0.0555 -0.1291
 1155W        W 5355   9.392   2.755   3.461 -0.2533  0.1397  0.0508
 1156W        W 5356   2.714  10.094  12.076  0.0508  0.2329 -0.1303
 1157W        W 5357  10.269   3.887  11.563 -0.0915  0.2572 -0.0806
 1158W        W 5358   3.372   4.202   1.901  0.1723  0.0633  0.0813
 1159W        W 5359   2.040   7.492   1.064 -0.0185  0.0259  0.2017
 1160W        W 5360   1.875   7.732  13.001 -0.1407 -0.2521 -0.1394
 1161W        W 5361   7.732   1.560  12.567 -0.2791 -0.1399 -0.1277
 1162W        W 5362   2.166   6.854   0.170  0.2618 -0.0738 -0.2994
 1163W        W 5363   4.740   7.675   8.703 -0.3296 -0.4989 -0.0542
 1164W        W 5364   7.755   0.316  11.614  0.1370 -0.1757 -0.1622
 1165W        W 5365   6.685   0.311  10.896 -0.0977 -0.1130  0.0692
 1166W        W 5366   3.915   3.090   4.442  0.2336 -0.5330 -0.1797
 1167W        W 5367  10.248   8.707   3.031  0.1751 -0.3403 -0.0177
 1168W        W 5368   8.372   9.545   3.194 -0.2688  0.2834 -0.1838
 1169W        W 5369   9.312   0.166  11.319  0.0461  0.0694  0.0417
 1170W        W 5370   0.101   3.635   2.120  0.1916  0.0076 -0.0789
 1171W        W 5371   5.514   4.430   9.734 -0.0434 -0.2070  0.2204
 1172W        W 5372   6.156   8.263   3.359  0.1404  0.0425  0.5642
 1173W        W 5373   4.895   1.293   0.593 -0.0377 -0.1712 -0.0198
 1174W        W 5374   2.462   6.847  11.196 -0.2999  0.1272 -0.0952
 1175W        W 5375   3.790   6.254   9.744 -0.0220 -0.0215  0.0125
 1176W        W 5376   7.447   2.206   4.408 -0.0842 -0.2083  0.0955
 1177W        W 5377   4.634   4.579   3.184  0.2526  0.1620  0.0545
 1178W        W 5378   6.032   1.404   3.742 -0.1275  0.2709 -0.3073
 1179W        W 5379   8.102   2.015  11.739  0.0921 -0.2489  0.2378
 1180W        W 5380   2.548   2.918  11.029 -0.0676  0.0932  0.0251
 1181W        W 5381   1.238   3.584   4.380  0.1046 -0.2233 -0.2716
 1182W        W 5382   9.854   1.205   2.504  0.1776 -0.1304  0.0681
 1183W        W 5383   7.286   8.234  11.951 -0.0419  0.1547 -0.2046
 1184W        W 5384   3.851   6.635  11.122  0.4954 -0.1156  0.1396
 1185W        W 5385   9.697   7.887   3.674  0.0315 -0.3659  0.0343
 1186W        W 5386   4.749   6.202   3.370 -0.1360 -0.1211 -0.0862
 1187W        W 5387   7.986   3.082   4.476 -0.1085 -0.2114  0.1955
 1188W        W 5388   5.376   8.385   3.230  0.3047  0.0098  0.2274
 1189W        W 5389   7.935   4.923   3.985  0.1680  0.1694 -0.1621
 1190W        W 5390   3.530   4.913   9.974  0.0915  0.1066 -0.2153
 1191W        W 5391   3.610   1.167  10.686 -0.0066  0.0940  0.0673
 1192W        W 5392   1.568   1.694   2.383  0.2101  0.0262  0.0602
 1193W        W 5393   4.174   4.378   3.352 -0.0158 -0.1533 -0.0368
 1194W        W 5394   7.156   9.459  12.470  0.0901  0.2713 -0.2366
 1195W        W 5395   5.660   0.125   2.554  0.1377  0.0672 -0.4652
 1196W        W 5396   5.693   3.278   1.475 -0.1617  0.4326 -0.1738
 1197W        W 5397   5.350   3.903  10.495  0.5028  0.0632 -0.1652
 1198W        W 5398   2.105   1.090   3.092  0.1500  0.1431  0.1243
 1199W        W 5399   7.184   1.952  10.748 -0.1254  0.1748  0.0014
 1200W        W 5400   4.504   4.492   8.801 -0.1296  0.0217  0.3758
 1201W        W 5401   2.528   2.299  10.437 -0.2162 -0.0757 -0.2877
 1202W        W 5402   9.745   7.462  10.538  0.2432 -0.0252  0.0141
 1203W        W 5403   1.073   1.770   3.586 -0.0219  0.3205 -0.0693
 1204W        W 5404   7.961   6.093  12.644 -0.0701  0.3278 -0.0275
 1205W        W 5405   0.692   0.465   2.867 -0.0944  0.1624  0.0914
 1206W        W 5406   4.462  10.175  12.311 -0.0050  0.2338  0.0798
 1207W        W 5407   5.912  10.342   3.413 -0.2950  0.0350 -0.1879
 1208W        W 5408   4.455   0.853  11.525  0.1579  0.0263 -0.3596
 1209W        W 5409   0.865   8.104   2.456  0.1865 -0.0338 -0.1386
 1210W        W 5410  10.049   8.894  11.592 -0.0150  0.1619  0.2440
 1211W        W 5411   4.484   9.557  11.551  0.0045  0.4461 -0.0371
 1212W        W 5412   3.864   0.484   2.869 -0.1608 -0.0299  0.2448
 1213W        W 5413  10.403   5.725   4.101  0.0368 -0.0570  0.0681
 1214W        W 5414   3.651   6.972   1.563 -0.0631 -0.2595 -0.3577
 1215W        W 5415   9.038   4.705   1.640 -0.0948 -0.2091  0.2076
 1216W        W 5416   0.528   6.936   1.746 -0.0270 -0.0246  0.1139
 1217W        W 5417   1.225   5.040   1.354 -0.0197  0.3156  0.1469
 1218W        W 5418   3.387   6.687   0.382  0.1149 -0.1462 -0.2092
 1219W        W 5419   8.793   9.967   4.038 -0.1309 -0.1070  0.0146
 1220W        W 5420   6.740   8.904   9.664 -0.2843  0.5135 -0.0750
 1221W        W 5421   1.316   1.043   9.210  0.1951 -0.1011 -0.4112
 1222W        W 5422   2.774   4.192   2.562  0.0441  0.1061  0.4208
 1223W        W 5423   5.744   6.522   9.732 -0.0245 -0.4147  0.2809
 1224W        W 5424   0.199   8.907   0.339 -0.1134  0.1116 -0.0694
 1225W        W 5425   4.296   1.821   0.683  0.1079  0.1680 -0.0211
 1226W        W 5426   1.230   9.785  12.233 -0.2808  0.0218 -0.1430
 1227W        W 5427   7.529   8.782   1.763 -0.0664  0.0754 -0.0728
 1228W        W 5428   0.930   1.518   0.518 -0.1497 -0.1414 -0.0686
 1229W        W 5429   8.123   8.223   2.207  0.1000  0.1818 -0.1525
 1230W        W 5430   8.130   9.105  12.741 -0.1595 -0.1600 -0.1869
 1231W        W 5431   1.149   0.795   1.062  0.2015 -0.1772  0.1557
 1232W        W 5432   1.382   0.479   1.361 -0.1038 -0.0844  0.2798
 1233W        W 5433   5.514   4.674   4.010 -0.0062  0.2256  0.2630
 1234W        W 5434   2.249   5.060   9.712  0.0925 -0.2688 -0.1653
 1235W        W 5435   0.785   9.414  12.319 -0.0350  0.1258 -0.1123
 1236W        W 5436   9.578   8.444  10.864  0.0450  0.1713  0.1062
 1237W        W 5437   9.229   6.747  12.298 -0.0905  0.0708  0.2423
 1238W        W 5438   1.015   5.899  11.547 -0.0860  0.0834 -0.1862
 1239W        W 5439   5.876   6.717   2.399 -0.2458 -0.1484  0.1369
 1240W        W 5440   3.905   1.000  13.422  0.0274  0.3396 -0.2073
 1241W        W 5441   5.194   5.376  10.503  0.2891  0.1194 -0.1161
 1242W        W 5442   1.277   2.333   3.618  0.0348  0.4198  0.1879
 1243W        W 5443   5.725   4.440   1.136 -0.0259  0.4196  0.2328
 1244W        W 5444   9.712   7.675  12.219 -0.2278  0.0715 -0.3006
 1245W        W 5445   0.306   6.927  10.508 -0.0791  0.0812 -0.1210
 1246W        W 5446   1.132   3.835   0.596  0.1773  0.2398 -0.1157
 1247W        W 5447   7.627   5.105   9.164  0.1202 -0.1995  0.0227
 1248W        W 5448   1.698   9.057   0.917 -0.0756  0.4193 -0.1843
 1249W        W 5449   5.243   9.338   0.126  0.1034  0.1795  0.1911
 1250W        W 5450   1.200   2.503   4.103  0.0273  0.1253 -0.0131
 1251W        W 5451   1.002   3.231   1.123 -0.2044 -0.2648  0.1323
 1252W        W 5452   3.430   5.313  13.244 -0.1380  0.1396 -0.1320
 1253W        W 5453   4.938   7.819   2.472  0.1594 -0.0345 -0.1667
 1254W        W 5454   6.430  10.016   9.803  0.0002  0.2483 -0.0057
 1255W        W 5455   6.115   8.304   2.789 -0.0844  0.0844  0.3035
 1256W        W 5456   8.951   3.614  10.546  0.0131  0.1961  0.0956
 1257W        W 5457   1.765   1.854  10.276  0.1367  0.1584  0.1117
 1258W        W 5458   8.231  10.446   9.339 -0.1461 -0.0300 -0.2204
 1259W        W 5459   7.637   7.335  11.770  0.0963 -0.0747  0.3204
 1260W        W 5460   4.111   4.445   3.918 -0.1836 -0.1097  0.1987
 1261W        W 5461   9.589   1.039   9.602  0.3527  0.1018 -0.2109
 1262W        W 5462   3.377   3.298   1.646 -0.1895  0.1191  0.0967
 1263W        W 5463   1.560   2.528   9.098 -0.0558  0.3950  0.1385
 1264W        W 5464   6.350   3.881   9.681  0.1659 -0.0004 -0.1218
 1265W        W 5465   5.947   4.749  10.848 -0.2786 -0.0736  0.2794
 1266W        W 5466   7.926   3.737  12.723 -0.1941  0.5623  0.1252
 1267W        W 5467   9.785   0.391   3.451  0.1625  0.3939 -0.1764
 1268W        W 5468   1.828   0.419   2.760 -0.2900  0.0106  0.2767
 1269W        W 5469   3.105   7.389  11.449 -0.1431 -0.0534  0.0570
 1270W        W 5470   0.542   1.765   2.738  0.0063  0.3062  0.1610
 1271W        W 5471   9.362   1.755  13.465 -0.0643 -0.2460 -0.0705
 1272W        W 5472   9.841   1.153   0.077 -0.0897 -0.1019 -0.0033
 1273W        W 5473   5.692   8.009   8.330 -0.0505 -0.2377 -0.1069
 1274W        W 5474   3.405   9.656   0.489 -0.2392  0.1451  0.0852
 1275W        W 5475   8.512   6.666   3.063  0.0397  0.2266 -0.0735
 1276W        W 5476   6.611   6.710   1.105 -0.3077  0.0814 -0.0796
 1277W        W 5477   2.800   2.599  10.742  0.0632 -0.0935  0.1383
 1278W        W 5478   6.626   8.127   8.370  0.1602  0.2493 -0.0871
 1279W        W 5479   0.885   3.213  10.670  0.1275 -0.2070 -0.0513
 1280W        W 5480   1.824   1.518   0.933 -0.2051  0.0335 -0.0335
 1281W        W 5481   4.819   3.499   0.419 -0.0578 -0.0572 -0.1959
 1282W        W 5482   5.978   3.722  11.241  0.4702 -0.0138 -0.0491
 1283W        W 5483   2.851   9.276   9.975 -0.1953  0.0287 -0.1472
 1284W        W 5484   3.294   6.122   9.639 -0.0664 -0.2014  0.1699
 1285W        W 5485   0.427   4.575  11.412  0.3923  0.0375  0.0200
 1286W        W 5486   4.051   3.802  12.388 -0.0171 -0.3801  0.2561
 1287W        W 5487   0.529   9.681  11.927 -0.1243 -0.1726  0.2471
 1288W        W 5488   7.097   5.434   3.607  0.1216 -0.0265 -0.0421
 1289W        W 5489   2.492   9.820  13.132 -0.0957 -0.2186  0.0645
 1290W        W 5490   4.291   5.978   3.322 -0.0520 -0.1457  0.1149
 1291W        W 5491   1.203   6.017   1.752  0.0665 -0.1431 -0.1373
 1292W        W 5492   9.937   3.201   3.261  0.1876 -0.0534  0.3167
 1293W        W 5493   8.428   9.381   2.656 -0.0243 -0.2791 -0.1785
 1294W        W 5494   1.095   5.751  12.647  0.2377  0.2171  0.1723
 1295W        W 5495   4.288   9.355   3.075 -0.1149  0.0502 -0.0150
 1296W        W 5496   4.371   5.408   9.931  0.1056  0.1571  0.1157
 1297W        W 5497   1.225   9.107  13.334  0.0666  0.1818 -0.1084
 1298W        W 5498   8.470   7.369   9.288  0.0544  0.1761 -0.1784
 1299W        W 5499   4.784   3.045   0.881  0.1312  0.2442  0.2356
 1300W        W 5500   1.360   1.410  13.107 -0.1093 -0.1386 -0.2890
 1301W        W 5501   0.843   8.110  10.840  0.1494  0.1383 -0.1525
 1302W        W 5502   9.237  10.397   2.284  0.1774  0.2668  0.0035
 1303W        W 5503   8.909   7.593   9.169  0.2071  0.0063  0.1307
 1304W        W 5504   4.202   7.401   4.470  0.1599  0.1590  0.1619
 1305W        W 5505   4.553   3.570   2.589 -0.0151  0.0703  0.1263
 1306W        W 5506   5.152   0.527  10.934  0.0019 -0.0412 -0.3109
 1307W        W 5507   3.984   9.978  12.310  0.2878 -0.2897 -0.2398
 1308W        W 5508   0.093   2.749  12.044  0.0300  0.2905  0.3864
 1309W        W 5509   1.378   3.307  10.810 -0.1162  0.0711  0.0196
 1310W        W 5510   2.347   2.841   1.349 -0.2136 -0.2360  0.1534
 1311W        W 5511   6.609   1.927   1.307  0.0760  0.4446 -0.0378
 1312W        W 5512   4.149   2.046   0.287 -0.1168 -0.2577 -0.2080
 1313W        W 5513   3.807   4.343  11.197 -0.3445 -0.0031 -0.2549
 1314W        W 5514   2.375   5.640   0.260 -0.1686  0.2830  0.2194
 1315W        W 5515   8.218   3.867   9.645  0.0993 -0.2917  0.0878
 1316W        W 5516   7.012  10.405   2.262  0.3005  0.2571  0.0537
 1317W        W 5517   8.875   2.766  12.207 -0.0383  0.0435  0.0619
 1318W        W 5518   7.165   7.789   4.899  0.1255  0.0140  0.0278
 1319W        W 5519   6.115   4.914  12.210  0.0137  0.5081 -0.2094
 1320W        W 5520   1.497   0.264   2.241 -0.2216 -0.1027 -0.0356
 1321W        W 5521   7.767   3.733  11.751  0.0444 -0.1483  0.0483
 1322W        W 5522   7.702   3.998   9.393  0.2618  0.3091  0.1257
 1323W        W 5523   0.213   8.655   1.376  0.0596  0.6441  0.0562
 1324W        W 5524   6.122   2.951  12.710  0.0538 -0.0995  0.1213
 1325W        W 5525   4.073   2.344   8.871 -0.0486  0.0651 -0.2075
 1326W        W 5526   3.814   2.571  11.704  0.0791  0.2073 -0.2275
 1327W        W 5527   4.658   3.274   1.940 -0.0282 -0.1030 -0.0428
 1328W        W 5528   4.983   0.160   8.751  0.0178 -0.3219 -0.1475
 1329W        W 5529   8.715   0.648   0.739 -0.0543  0.1847 -0.0986
 1330W        W 5530   6.647   8.285  12.473  0.1702  0.2380 -0.0323
 1331W        W 5531   1.179  10.376   3.222  0.0365  0.0519 -0.0442
 1332W        W 5532   4.688   5.368  11.662  0.0054  0.1210 -0.0620
 1333W        W 5533   7.765   6.494  12.373 -0.0889  0.0705 -0.1541
 1334W        W 5534   0.100   5.641   2.744 -0.0129  0.5676 -0.0207
 1335W        W 5535   3.699   2.248   2.470 -0.1469  0.0958  0.0055
 1336W        W 5536   3.462   3.206  10.913 -0.1718 -0.2186 -0.0686
 1337W        W 5537   2.006   5.583   3.742  0.2718  0.0070  0.3169
 1338W        W 5538   6.044   4.590  10.394 -0.1792 -0.2226  0.1514
 1339W        W 5539   6.528   8.054  11.522  0.0213  0.0145  0.0561
 1340W        W 5540   7.236   4.525   4.614  0.2414  0.1896  0.0009
 1341W        W 5541   5.435   0.096   3.259 -0.0302 -0.0081 -0.2096
 1342W        W 5542   2.740  10.310  10.249 -0.0430  0.2862 -0.0010
 1343W        W 5543   7.693   2.914  13.380  0.0382 -0.0043  0.0359
 1344W        W 5544   8.994   5.443  12.431 -0.1221  0.0253  0.4593
 1345W        W 5545  10.268   9.293   0.102 -0.3203  0.2160 -0.0982
 1346W        W 5546   6.722   6.861   2.268  0.1698 -0.0678 -0.2443
 1347W        W 5547   5.708   7.147  10.980  0.0733 -0.0255 -0.1617
 1348W        W 5548   9.006   4.541   4.852 -0.1846  0.3750  0.0340
 1349W        W 5549  10.422   7.931   2.663  0.1136  0.0318  0.1395
 1350W        W 5550   3.859   2.001   3.537  0.2257 -0.0476  0.2743
 1351W        W 5551   1.882   5.730   1.045 -0.0035  0.2055  0.0266
 1352W        W 5552   4.703   0.706   9.337  0.0515  0.5373 -0.1735
 1353W        W 5553   9.955   7.138  11.832 -0.0942  0.0957 -0.1801
 1354W        W 5554   9.806   2.106   1.648  0.1288 -0.2758  0.0635
 1355W        W 5555   3.301   8.592   3.887  0.0444 -0.0958 -0.0285
 1356W        W 5556   6.891   6.951  13.180 -0.1621  0.0045  0.0208
 1357W        W 5557   1.851   3.597  13.352 -0.2094 -0.0843 -0.0436
 1358W        W 5558   5.782   4.677   0.392  0.1692 -0.0970 -0.0144
 1359W        W 5559   0.175   0.970   2.828 -0.0418  0.3234  0.2926
 1360W        W 5560   1.990   9.206   1.256  0.0064  0.1111  0.0418
 1361W        W 5561   9.228   3.600   2.941  0.0811 -0.0349 -0.6557
 1362W        W 5562   4.766   9.646  10.689 -0.0275  0.0663 -0.0003
 1363W        W 5563   9.694   5.990  12.286 -0.0885  0.0458 -0.1202
 1364W        W 5564   0.928   4.821   2.550 -0.3042  0.3038  0.0663
 1365W        W 5565   0.887   4.143  10.918 -0.1875 -0.1640  0.0270
 1366W        W 5566   2.853   5.300  13.129 -0.2623 -0.1508 -0.0276
 1367W        W 5567   0.594   4.002   3.087 -0.0756 -0.0670 -0.1368
 1368W        W 5568   6.933   9.984   3.547  0.1515 -0.4055  0.1232
 1369W        W 5569   4.505   8.749   1.520  0.4072 -0.0422 -0.2461
 1370W        W 5570   8.641   7.239  10.223 -0.1478  0.0454 -0.0601
 1371W        W 5571   8.292   8.407   0.125 -0.0906 -0.1636  0.1569
 1372W        W 5572   7.225   3.743   2.532  0.1037 -0.1565  0.1018
 1373W        W 5573   9.573   5.067   5.010 -0.1763 -0.0496  0.1577
 1374W        W 5574   5.522   2.399   0.985  0.0291 -0.1936 -0.1619
 1375W        W 5575   0.627   1.616   3.792 -0.0443  0.0191  0.3408
 1376W        W 5576   3.310   1.105   3.222  0.1268 -0.3139 -0.0305
 1377W        W 5577   3.617   4.987   0.406 -0.0800  0.1087 -0.1763
 1378W        W 5578   4.736   4.746   9.436  0.0030  0.3727  0.0387
 1379W        W 5579   9.854   1.237  12.004  0.1242 -0.5177 -0.1209
 1380W        W 5580   1.150   5.784   2.748  0.3528 -0.0154  0.0495
 1381W        W 5581   5.538   1.296   9.350 -0.2449 -0.0139  0.2518
 1382W        W 5582   8.262   0.060   8.791  0.0971  0.4831 -0.2187
 1383W        W 5583   2.769   7.383   0.797  0.2402  0.1081 -0.3168
 1384W        W 5584   0.734   0.844   0.118 -0.2545  0.0224  0.2840
 1385W        W 5585   2.482   0.812  10.107 -0.0142 -0.3292  0.0211
 1386W        W 5586   6.618   3.127   9.255 -0.1134 -0.1704  0.0390
 1387W        W 5587   3.225   7.507  13.054  0.1404  0.0681 -0.1026
 1388W        W 5588   6.012   9.149  10.720 -0.0480  0.1847  0.0270
 1389W        W 5589   5.902   2.510  12.858 -0.0100  0.0896 -0.0181
 1390W        W 5590   8.018   8.925   1.826 -0.0385 -0.2429 -0.0745
 1391W        W 5591   1.416   0.577   3.980 -0.0551  0.1291  0.1584
 1392W        W 5592   1.212   9.977   2.045 -0.1121 -0.2431 -0.0661
 1393W        W 5593   7.090   2.330  12.281 -0.1679  0.2007  0.6427
 1394W        W 5594   4.056   1.841   4.581 -0.0291 -0.2052 -0.0577
 1395W        W 5595   7.723   3.199   2.026  0.0883 -0.0803 -0.2182
 1396W        W 5596   1.183   2.761  12.224 -0.1827  0.0061 -0.1128
 1397W        W 5597   8.880   9.390  12.574 -0.1396 -0.1548 -0.2036
 1398W        W 5598   0.812   3.185  12.587 -0.1714 -0.1973  0.2661
 1399W        W 5599   2.266   6.232  11.014 -0.0566 -0.0808  0.1106
 1400W        W 5600   5.378   6.017  12.146 -0.1882 -0.3375  0.1009
 1401W        W 5601   5.827   6.736   9.019 -0.0177  0.0544 -0.3655
 1402W        W 5602   4.987   2.781   2.268  0.3834  0.2542 -0.0142
 1403W        W 5603   6.833   2.213  10.688  0.1701 -0.1977 -0.3072
 1404W        W 5604   2.073   7.294  12.774 -0.1217  0.0952  0.1946
 1405W        W 5605   8.476   6.399   4.208  0.0268  0.1294 -0.1450
 1406W        W 5606   2.995   2.089  10.814  0.2923  0.0663  0.0774
 1407W        W 5607   9.991   3.467  11.666  0.1825  0.1746 -0.2241
 1408W        W 5608   6.166   7.041   0.168 -0.0857 -0.1251  0.0539
 1409W        W 5609   3.636   8.767   0.031  0.0738 -0.1225  0.0448
 1410W        W 5610   6.872   8.380  11.599 -0.0267 -0.0229 -0.1926
 1411W        W 5611   9.153   1.784   3.053 -0.0266  0.1568 -0.1797
 1412W        W 5612   3.486  10.429  10.990  0.2518 -0.0707  0.0574
 1413W        W 5613   3.162   4.152   9.896 -0.1879 -0.1716 -0.3741
 1414W        W 5614   2.212   7.257   3.562 -0.1020  0.0695  0.3152
 1415W        W 5615  10.167   8.425  11.775  0.2256  0.0009 -0.0785
 1416W        W 5616   3.431   6.281  10.579 -0.1281 -0.0983 -0.3507
 1417W        W 5617   2.008   0.992  10.066  0.3418 -0.0787 -0.2925
 1418W        W 5618  10.166   2.714   0.415  0.3188  0.4712  0.4215
 1419W        W 5619   5.934   4.775   3.357 -0.0934 -0.0368  0.1445
 1420W        W 5620   2.677   1.428   9.052  0.0157 -0.0630 -0.2028
 1421W        W 5621   5.737   5.972   9.636 -0.0054  0.1895  0.2510
 1422W        W 5622   6.539   5.642   3.470 -0.3969 -0.0322  0.0473
 1423W        W 5623   3.283   6.388  11.846 -0.0180  0.0973 -0.2593
 1424W        W 5624   2.576   4.902   3.911 -0.1054  0.2841  0.2252
 1425W        W 5625   5.761   2.564   9.908  0.1648  0.0081  0.0181
 1426W        W 5626   8.223   0.989   1.625 -0.0508  0.1273  0.0630
 1427W        W 5627   8.356   9.359  11.385  0.0439 -0.0182 -0.2016
 1428W        W 5628   1.505   1.386  10.582  0.2725  0.2434 -0.0652
 1429W        W 5629   3.504   2.106   3.977  0.0732 -0.0404  0.0110
 1430W        W 5630   4.865   7.762  12.758 -0.0687 -0.1603  0.0982
 1431W        W 5631   6.291   3.974   1.838  0.2610  0.1204  0.1465
 1432W        W 5632   6.530   7.336  11.049 -0.1676  0.0288 -0.3049
 1433W        W 5633   5.123   3.892   9.071  0.0415 -0.1004  0.1421
 1434W        W 5634   6.955   7.073  10.119 -0.0796  0.2617  0.0752
 1435W        W 5635   9.597   4.055   2.803  0.1382  0.1046  0.2729
 1436W        W 5636   7.951   5.627   4.793 -0.1645 -0.2649  0.1167
 1437W        W 5637   0.687   6.963   3.003  0.3234 -0.2464 -0.1538
 1438W        W 5638  10.281   2.945   1.691 -0.1235 -0.0759  0.3976
 1439W        W 5639   5.017   8.611   8.949  0.0205 -0.2360  0.0684
 1440W        W 5640   4.154   4.967  10.728  0.2340 -0.1844 -0.3845
 1441W        W 5641   2.296   4.419   0.996  0.0252  0.1391  0.2986
 1442W        W 5642   5.074   2.195   9.940  0.4177  0.0884  0.0459
 1443W        W 5643   2.387   3.179   9.410 -0.2360  0.1633 -0.0184
 1444W        W 5644   1.056   1.856   1.790  0.0239  0.0378 -0.0483
 1445W        W 5645   5.084   7.142   4.375 -0.0731  0.0182 -0.3222
 1446W        W 5646   4.494   3.052   0.170 -0.3333  0.2979 -0.1277
 1447W        W 5647   5.562   7.114   0.287  0.0142 -0.3969 -0.3701
 1448W        W 5648   3.447   6.738  13.348 -0.1219  0.1646 -0.2397
 1449W        W 5649   4.451   7.332   0.987 -0.2560 -0.1033  0.3406
 1450W        W 5650  10.423   2.547   2.035 -0.0326  0.1195  0.0145
 1451W        W 5651   7.146   2.910   3.950  0.0895  0.2465 -0.0162
 1452W        W 5652   5.037   9.838   2.527 -0.0687  0.0883 -0.0134
 1453W        W 5653   8.019   0.392  10.825  0.2332 -0.0903  0.0783
 1454W        W 5654   5.214   4.804  12.147  0.0231  0.0551  0.0986
 1455W        W 5655  10.440   5.233   0.543  0.1770 -0.0850 -0.1085
 1456W        W 5656   0.096   5.854  11.732 -0.1570 -0.1072 -0.1349
 1457W        W 5657   3.600   7.590  10.253  0.0039 -0.0443 -0.2393
 1458W        W 5658   1.504   1.684  12.706  0.4890 -0.1447 -0.0563
 1459W        W 5659   5.920   3.249   4.560  0.3779 -0.0791 -0.2585
 1460W        W 5660   9.427   4.948  10.642  0.1534  0.2522 -0.1119
 1461W        W 5661   7.030   2.002   9.311 -0.3994  0.0289 -0.1814
 1462W        W 5662   0.536  10.452  12.486 -0.1729  0.1426  0.2121
 1463W        W 5663   2.309   5.942   9.388  0.1821  0.1653  0.0827
 1464W        W 5664   2.168   6.556   1.060  0.0743 -0.2549 -0.2286
 1465W        W 5665   0.485   4.941  12.604  0.0407 -0.0090  0.0978
 1466W        W 5666   9.378   5.111   1.707  0.0635  0.2706  0.0363
 1467W        W 5667  10.130   7.623   0.046 -0.2147 -0.0023 -0.0429
 1468W        W 5668   7.437   3.756   9.041 -0.0124  0.0208 -0.3737
 1469W        W 5669   4.208   7.041   9.556 -0.1245  0.0806 -0.4621
 1470W        W 5670   3.879   7.765   3.232 -0.4730 -0.0811  0.1064
 1471W        W 5671   6.283   1.650   9.550 -0.0810 -0.2140 -0.1196
 1472W        W 5672   2.925   4.343  12.976 -0.3071  0.2960  0.0571
 1473W        W 5673   0.128   7.367  10.770  0.1501  0.0423 -0.1983
 1474W        W 5674   8.017   3.349  13.335  0.2918  0.2778 -0.0995
 1475W        W 5675   3.070   1.675   1.316 -0.2086  0.2658 -0.0446
 1476W        W 5676   8.735   7.908   3.066 -0.0474  0.1328  0.0006
 1477W        W 5677   1.905   5.799   1.539 -0.0533 -0.0010 -0.1863
 1478W        W 5678   0.528   1.294   2.482 -0.1035  0.0177  0.1089
 1479W        W 5679   2.643   5.772  10.857 -0.0043  0.0122  0.0303
 1480W        W 5680   7.870   5.608  11.957  0.1817  0.3884  0.2460
 1481W        W 5681   9.476   3.966   3.345  0.2486  0.2692 -0.0147
 1482W        W 5682   7.888   2.186   1.019 -0.1407  0.4447  0.0390
 1483W        W 5683   9.154   4.806  10.199  0.0956 -0.1576  0.0305
 1484W        W 5684   9.170   0.320  11.785  0.0862  0.0864  0.0661
 1485W        W 5685   4.832   3.833  13.112  0.3449 -0.2537  0.0958
 1486W        W 5686   0.389  10.381   2.766 -0.2093  0.2254  0.1522
 1487W        W 5687   2.312   3.458   1.489 -0.0994  0.0414  0.1072
 1488W        W 5688  10.413   4.741  11.028 -0.1325  0.1458  0.0213
 1489W        W 5689   1.034   0.164  10.498 -0.0599  0.1513  0.1330
 1490W        W 5690   4.741   3.590   1.574 -0.2196 -0.1746 -0.0425
 1491W        W 5691   1.955   4.866   2.989 -0.4261  0.2794  0.0828
 1492W        W 5692   8.352   9.564   8.832  0.3306 -0.1141  0.2258
 1493W        W 5693   7.958   2.762   1.817 -0.0283  0.0113  0.0804
 1494W        W 5694   7.388   0.162   1.949  0.0167  0.1631 -0.0427
 1495W        W 5695   7.579  10.121  12.333  0.0858 -0.1217 -0.0127
 1496W        W 5696   2.896   7.210   1.951 -0.1200 -0.1589  0.1754
 1497W        W 5697   5.334   1.131   4.184  0.1058  0.1902 -0.0223
 1498W        W 5698   4.006   7.784   3.690 -0.1192 -0.0392 -0.4467
 1499W        W 5699   1.721   4.755  11.430  0.3309 -0.1508  0.1162
 1500W        W 5700   0.161   7.356  13.510 -0.0564  0.3768  0.3366
 1501W        W 5701   9.095   9.125  10.351  0.2954  0.1586 -0.3583
 1502W        W 5702   8.099   0.223   3.759  0.2110  0.0859 -0.0191
 1503W        W 5703   2.820   6.120  10.107 -0.0375  0.0183 -0.2515
 1504W        W 5704  10.223   6.185   0.007 -0.0275 -0.2719  0.2122
 1505W        W 5705   3.203   8.310   0.263  0.1548 -0.1352  0.1198
 1506W        W 5706   6.346   8.333   0.774 -0.0462 -0.2468 -0.1421
 1507W        W 5707   7.202   2.531   0.679  0.1857 -0.1733  0.1980
 1508W        W 5708   8.670   9.131   0.295 -0.1846 -0.1096  0.0378
 1509W        W 5709   7.800   8.196   3.054  0.2549 -0.0534  0.4424
 1510W        W 5710   6.898   4.568   2.705  0.1769 -0.0161 -0.4290
 1511W        W 5711   3.388   3.791   4.220  0.1505 -0.0143 -0.0018
 1512W        W 5712   1.645   5.089  11.793  0.1459  0.1116 -0.0855
 1513W        W 5713   3.761   4.080  11.647  0.0589 -0.0419  0.0777
 1514W        W 5714   2.035  10.033   3.153 -0.0207 -0.0317 -0.0013
 1515W        W 5715   1.861   0.283   1.303  0.1255 -0.3212 -0.2984
 1516W        W 5716   4.889   6.554   2.548  0.1779  0.0965  0.0662
 1517W        W 5717   2.871   9.006   1.176  0.1462  0.3090 -0.3928
 1518W        W 5718   0.460   2.571  11.223  0.1517  0.1464 -0.2601
 1519W        W 5719   3.267   6.020  11.500 -0.2217 -0.0018 -0.2434
 1520W        W 5720   5.271   6.021   9.388 -0.2198 -0.0128 -0.0155
 1521W        W 5721   5.952   1.094  11.348  0.2040 -0.0796 -0.0438
 1522W        W 5722   7.379   9.178   3.105  0.0806 -0.3431 -0.2293
 1523W        W 5723   0.863   5.525  10.744  0.1112 -0.0745  0.2281
 1524W        W 5724   6.828   5.334  13.214  0.1133  0.3929  0.1128
 1525W        W 5725   7.098   4.982   2.887  0.0174  0.0958 -0.1796
 1526W        W 5726   9.751   1.363   3.077  0.0676  0.2356 -0.0899
 1527W        W 5727   2.991  10.266  10.846  0.1427 -0.0518 -0.3761
 1528W        W 5728   1.502   4.631  11.838 -0.1044 -0.2113 -0.2130
 1529W        W 5729   8.918   8.644  10.717 -0.2086  0.0368 -0.1260
 1530W        W 5730   2.529   7.108  12.708  0.2185  0.0703 -0.1799
 1531W        W 5731  10.314   9.170   2.977 -0.3097  0.1852 -0.0388
 1532W        W 5732   7.509   4.505  12.179 -0.1486  0.0825  0.0543
 1533W        W 5733   3.899   7.214  10.957 -0.1118 -0.2116 -0.1025
 1534W        W 5734  10.180   2.233   9.330 -0.0226 -0.1580  0.2757
 1535W        W 5735   2.866   5.213   2.534 -0.0397 -0.2207  0.0123
 1536W        W 5736   4.445   4.834   9.879 -0.0320  0.0304 -0.3865
 1537W        W 5737   9.616   2.637  12.995  0.1044 -0.0502  0.0522
 1538W        W 5738   4.510  10.315   9.967 -0.0648 -0.0046  0.3110
 1539W        W 5739   0.821   9.626  11.481  0.0564 -0.1859 -0.2525
 1540W        W 5740   5.448   3.184  10.482 -0.2348 -0.1728 -0.0225
 1541W        W 5741   7.068   8.997   2.277  0.2623 -0.1324 -0.3650
 1542W        W 5742   4.986   9.357  12.081  0.0044 -0.0168  0.2768
 1543W        W 5743   5.291   4.358   2.127  0.2945  0.0034 -0.0971
 1544W        W 5744   4.913   2.604   3.339 -0.6325 -0.1661 -0.0818
 1545W        W 5745   7.229   2.701  13.416 -0.0822 -0.2345  0.0751
 1546W        W 5746   3.958   6.657   8.879  0.0440  0.0173 -0.1414
 1547W        W 5747   2.644   2.561   1.624  0.3757 -0.1625 -0.0787
 1548W        W 5748   5.201   3.204   0.714 -0.0151  0.1656 -0.1383
 1549W        W 5749  10.017   8.974   0.817 -0.1948 -0.0175  0.1906
 1550W        W 5750   4.812   3.113   1.406  0.1096 -0.1344 -0.0242
 1551W        W 5751   1.769   9.291  10.579 -0.4687  0.1132  0.1849
 1552W        W 5752   5.636   2.601  11.104 -0.1440 -0.1482 -0.3282
 1553W        W 5753   7.748   7.369   4.748  0.0728  0.0873  0.1501
 1554W        W 5754   2.727   4.202   1.086 -0.3755  0.0529 -0.4032
 1555W        W 5755   6.158   1.980   3.342  0.2988  0.0360 -0.3014
 1556W        W 5756   4.634   4.084   1.730 -0.0299  0.5203 -0.2243
 1557W        W 5757   7.457   5.318   2.723  0.2628  0.1064 -0.2523
 1558W        W 5758   6.342   2.405   4.785 -0.2621 -0.3981 -0.1336
 1559W        W 5759   8.858   2.764   0.227  0.1538 -0.1287  0.3355
 1560W        W 5760   9.307   2.513  11.809 -0.0181 -0.0166  0.3910
 1561W        W 5761   6.191   7.864   8.404  0.2986  0.1388 -0.0945
 1562W        W 5762   6.778   4.652   1.485  0.0934  0.0776  0.1453
 1563W        W 5763  10.354   2.888  10.043 -0.2631 -0.1071 -0.0708
 1564W        W 5764   1.575   3.888  11.270  0.1807 -0.1050 -0.0633
 1565W        W 5765   4.303   9.528  11.094 -0.0311 -0.0744  0.2015
 1566W        W 5766   1.973   1.286   3.720  0.1857  0.0738  0.1711
 1567W        W 5767   5.386   6.791   8.394  0.1216  0.3562  0.0773
 1568W        W 5768   8.632   5.638   9.883 -0.3245 -0.1607 -0.1499
 1569W        W 5769   7.920   8.103   5.349  0.2884 -0.0501 -0.0804
 1570W        W 5770   7.766   6.598   2.114  0.3675 -0.2745  0.1153
 1571W        W 5771   4.892   8.585   1.898  0.2135  0.0621 -0.0692
 1572W        W 5772   6.577   7.047   9.263 -0.0968  0.0259 -0.0848
 1573W        W 5773  10.384   5.257   3.940  0.1601 -0.0202 -0.2881
 1574W        W 5774   7.514   8.462   0.505  0.1667  0.3214  0.0028
 1575W        W 5775   3.191   9.368   2.968 -0.3814 -0.1728  0.3149
 1576W        W 5776   6.899   0.789  11.861 -0.3000 -0.1833  0.0035
 1577W        W 5777   2.208   4.541  11.551 -0.1149 -0.0846  0.1161
 1578W        W 5778   0.775   4.869  11.295 -0.3661  0.0357 -0.2500
 1579W        W 5779   4.640   4.116  13.510  0.0685  0.2298 -0.1941
 1580W        W 5780   0.472   3.454  10.272  0.1034  0.2563  0.0643
 1581W        W 5781   4.274   9.916   0.064 -0.0882 -0.0832 -0.0680
 1582W        W 5782   3.527   5.571   1.086  0.0369 -0.3083 -0.1643
 1583W        W 5783  10.141   3.584   4.264  0.1654  0.0617  0.0098
 1584W        W 5784   3.543   6.543   1.432 -0.0286 -0.3264  0.4201
 1585W        W 5785   7.869   1.719   3.405  0.0538 -0.0534  0.0592
 1586W        W 5786   7.827   7.928   1.564  0.0381  0.2203  0.0656
 1587W        W 5787   3.318   0.389   2.910  0.0726 -0.0116  0.3521
 1588W        W 5788   5.265   1.369   1.023 -0.1571  0.1019  0.0830
 1589W        W 5789   8.627   0.197   1.369  0.0897 -0.1707  0.0014
 1590W        W 5790  10.221   5.208   9.480 -0.2272  0.2968 -0.2604
 1591W        W 5791   7.162   2.995   4.753  0.0987  0.0306  0.0805
 1592W        W 5792   8.366   4.777   0.689  0.3349  0.0666 -0.0067
 1593W        W 5793   7.819   6.291   4.719  0.0606  0.0108  0.0869
 1594W        W 5794   5.686   3.839  12.847  0.3209 -0.1911  0.2174
 1595W        W 5795   9.881   5.032   1.760 -0.0455  0.0270  0.1541
 1596W        W 5796   6.059   0.297   8.717  0.0618 -0.1305 -0.2100
 1597W        W 5797   7.600   4.315   5.382  0.2966 -0.0039  0.3544
 1598W        W 5798   2.483   8.350  12.715  0.0443 -0.0855  0.4791
 1599W        W 5799   4.396   3.231   0.685  0.2778  0.0353  0.0031
 1600W        W 5800   7.569   0.572   0.343 -0.0938 -0.1799  0.2870
 1601W        W 5801   2.734   7.958   1.472  0.2962  0.4203 -0.1479
 1602W        W 5802   0.189   8.816   1.858 -0.1796  0.0494  0.1446
 1603W        W 5803   5.544   0.778   9.480  0.2945  0.0708 -0.4283
 1604W        W 5804   7.043  10.072  11.505  0.0087  0.0217  0.1587
 1605W        W 5805  10.023   5.471   3.679 -0.1960  0.2387  0.0124
 1606W        W 5806   2.068   8.862  10.707  0.1310 -0.1465  0.1318
 1607W        W 5807   6.345   9.614   0.168  0.0658  0.3562  0.0880
 1608W        W 5808   3.644   9.858  11.563 -0.3420 -0.1329 -0.2603
 1609W        W 5809   5.954   8.694   3.584  0.0077  0.0649  0.0522
 1610W        W 5810   4.871   7.673   3.357  0.2352  0.0164 -0.4698
 1611W        W 5811   8.057   9.508  12.451 -0.2208 -0.1035  0.1188
 1612W        W 5812   0.418   3.057  11.219  0.1360  0.1853 -0.0965
 1613W        W 5813   0.986   2.550   2.367 -0.0586  0.0942  0.4438
 1614W        W 5814   9.275   3.487   8.786 -0.0375  0.0826  0.1510
 1615W        W 5815   1.004   4.908   0.936  0.4206  0.0660  0.2403
 1616W        W 5816   9.293   7.613  10.436 -0.0797 -0.1576 -0.1691
 1617W        W 5817   6.824   2.594   2.079 -0.0788 -0.1619 -0.0433
 1618W        W 5818   1.197   2.742   8.824  0.1790 -0.1717 -0.2047
 1619W        W 5819   8.401   5.570   0.677  0.1351  0.2832 -0.1339
 1620W        W 5820   5.023   8.274  12.878  0.1202  0.1356 -0.2209
 1621W        W 5821   7.196   9.167   1.622 -0.0906  0.1207 -0.0767
 1622W        W 5822   4.386   6.509  10.973 -0.1294 -0.1360 -0.1233
 1623W        W 5823   6.116   3.477   2.373 -0.1467 -0.2681  0.0096
 1624W        W 5824   6.925   7.476   0.496  0.1639  0.0818 -0.0274
 1625W        W 5825   9.563   2.562   1.547 -0.0093 -0.2867 -0.1775
 1626W        W 5826   8.438   3.739   4.734 -0.5411  0.2307 -0.0473
 1627W        W 5827   3.953   5.826   1.454 -0.1690 -0.0511  0.3234
 1628W        W 5828   0.585   4.214  13.372  0.1847 -0.3610 -0.0811
 1629W        W 5829   9.596   5.182   2.160 -0.0036 -0.2946 -0.0712
 1630W        W 5830   3.463   6.642   9.643 -0.0891  0.0878  0.1490
 1631W        W 5831   4.567   8.993  13.319 -0.2359 -0.1461  0.2518
 1632W        W 5832   3.607   3.842   8.736  0.1108 -0.4166  0.0111
 1633W        W 5833   8.918   7.704  10.733 -0.1461  0.1094  0.0236
 1634W        W 5834   4.666   0.620  11.025 -0.1472  0.0211 -0.0247
 1635W        W 5835   6.325   8.156   4.291 -0.1311 -0.4125 -0.2521
 1636W        W 5836   6.451   0.593   3.811 -0.2468  0.2383  0.1933
 1637W        W 5837   8.977   9.824   1.433 -0.0873  0.1395  0.3388
 1638W        W 5838   4.017   4.464   4.903 -0.1087 -0.2146 -0.1047
 1639W        W 5839   2.605   5.806  12.939 -0.1298 -0.3186  0.3482
 1640W        W 5840   9.419   5.733   1.118  0.0536 -0.1508  0.2160
 1641W        W 5841   3.733   3.946   2.215  0.0697 -0.1375  0.3255
 1642W        W 5842   5.835   1.528   2.694 -0.0365  0.1395 -0.3111
 1643W        W 5843   7.040   3.613   2.975 -0.0471  0.1477 -0.0864
 1644W        W 5844   7.784   1.137  10.008  0.3168 -0.0440 -0.1198
 1645W        W 5845   1.212   7.007   3.091  0.0827  0.0498  0.0416
 1646W        W 5846   5.324   3.800  13.161 -0.1057 -0.0750 -0.0136
 1647W        W 5847  10.159   3.319  13.017 -0.0396 -0.1640  0.0970
 1648W        W 5848   7.860   7.929  10.348 -0.2975  0.1095  0.2037
 1649W        W 5849   9.149   4.154   2.947 -0.2701  0.1405  0.0820
 1650W        W 5850   6.761   3.898  10.058 -0.0578 -0.1105 -0.1842
 1651W        W 5851   2.232   2.168  11.573 -0.0627  0.2721 -0.0766
 1652W        W 5852   0.835  10.041  11.947  0.1298 -0.0217  0.1655
 1653W        W 5853   0.674   4.729   2.026 -0.1823  0.0979 -0.0952
 1654W        W 5854   0.015   4.741  11.620  0.1152 -0.0133  0.0792
 1655W        W 5855   4.906   5.980   1.909  0.2765 -0.1122  0.1836
 1656W        W 5856   9.164   7.372  11.385  0.4741 -0.0377 -0.3040
 1657W        W 5857   8.094   5.645   9.550  0.1722 -0.0534 -0.0731
 1658W        W 5858   7.415   0.797   4.118 -0.1147  0.0418  0.0300
 1659W        W 5859   9.744   8.730   1.553 -0.1512 -0.2141  0.3017
 1660W        W 5860   0.829   0.359   1.473 -0.1714  0.1969  0.0208
 1661W        W 5861   2.326   7.969   0.710  0.0907 -0.2841 -0.2866
 1662W        W 5862   5.963   2.338   8.369  0.1554  0.0698 -0.2212
 1663W        W 5863   9.371   8.493   1.301 -0.2832 -0.0997 -0.0368
 1664W        W 5864  10.296   7.264   1.519  0.1402 -0.0064 -0.1654
 1665W        W 5865   2.413   3.270   9.888 -0.1789  0.3411  0.0394
 1666W        W 5866   5.285   4.283  11.398 -0.2429  0.1557 -0.1331
 1667W        W 5867   4.102   4.089   0.018  0.3813  0.3629 -0.0282
 1668W        W 5868   7.086   6.735   4.920  0.2825  0.0627  0.0756
 1669W        W 5869   0.454   0.116  10.444  0.1448  0.1062  0.2316
 1670W        W 5870   7.335   8.154  11.484 -0.0560 -0.1063  0.0915
 1671W        W 5871   0.710   0.561  10.415 -0.0323  0.0491  0.0553
 1672W        W 5872   7.775   3.512   1.601 -0.0286 -0.0393 -0.0007
 1673W        W 5873   2.374   9.767   1.344  0.1498  0.2215 -0.1012
 1674W        W 5874   5.276   7.473  10.674  0.3467  0.0668 -0.1507
 1675W        W 5875   2.393   1.199  11.350  0.0900  0.2010  0.0255
 1676W        W 5876   8.007   1.243   3.482 -0.0187 -0.0238  0.2697
 1677W        W 5877   0.183   1.200   1.080  0.1376  0.1215 -0.0177
 1678W        W 5878   4.629   5.979   4.646  0.1103 -0.0251  0.2996
 1679W        W 5879   7.947   5.588   1.049  0.5077 -0.0974 -0.0930
 1680W        W 5880   1.721   6.398  11.985 -0.0772 -0.1221  0.1878
 1681W        W 5881   9.268   5.990  13.173  0.0144 -0.1429  0.2083
 1682W        W 5882   5.615   8.737   8.861 -0.0455 -0.0500 -0.2135
 1683W        W 5883   5.155  10.344   4.041  0.2348  0.3524 -0.1941
 1684W        W 5884   0.848   7.859  13.164  0.0716  0.0297 -0.1120
 1685W        W 5885   8.545   9.674   1.689  0.0722 -0.1939  0.0489
 1686W        W 5886   7.094   6.729   0.090 -0.4617 -0.2959  0.1035
 1687W        W 5887   2.902   3.708   0.280  0.4036 -0.3057 -0.0325
 1688W        W 5888   5.173   6.867   4.760 -0.2993 -0.0211 -0.1887
 1689W        W 5889   8.988   4.872   0.239 -0.3041 -0.0565  0.3254
 1690W        W 5890   3.778  10.072   0.546  0.0660 -0.0048  0.0202
 1691W        W 5891   4.716   5.239  13.451 -0.1402 -0.2441 -0.0205
 1692W        W 5892   7.935   2.877   9.290 -0.1566  0.0360  0.0294
 1693W        W 5893   6.971   3.646   0.574 -0.1672 -0.0176 -0.0710
 1694W        W 5894   6.495   0.061   2.538  0.0442  0.0713 -0.1818
 1695W        W 5895   8.458   2.758   4.321 -0.0979  0.3029  0.1151
 1696W        W 5896   5.023   6.294   0.826 -0.3162 -0.1489 -0.1319
 1697W        W 5897   6.017   4.245  13.086 -0.0927  0.0368  0.1270
 1698W        W 5898   2.365   4.905  12.486 -0.1804 -0.1549  0.0752
 1699W        W 5899   6.728   4.061   4.159 -0.1291  0.3061 -0.2086
 1700W        W 5900   3.179   6.230   0.441 -0.2003 -0.0604 -0.1942
 1701W        W 5901   9.430  10.391  12.593  0.2241  0.0388  0.2333
 1702W        W 5902   0.271   9.129   2.266  0.0924  0.2104  0.0963
 1703W        W 5903   6.496   5.449   0.609  0.0994  0.0181  0.2143
 1704W        W 5904   4.308   8.556  11.320 -0.2634 -0.0804  0.2486
 1705W        W 5905   6.856   7.718   0.008 -0.0037 -0.0878 -0.4316
 1706W        W 5906   1.766   9.102  11.028  0.1351  0.4409  0.0465
 1707W        W 5907   3.214   4.107   3.421  0.0771 -0.3636 -0.1940
 1708W        W 5908   4.049   0.038   8.805  0.1725 -0.1269  0.2059
 1709W        W 5909   8.688   0.828   0.282  0.1565  0.0328  0.1357
 1710W        W 5910   7.275  10.421   3.719  0.1754 -0.3727 -0.3097
 1711W        W 5911   4.901   0.537  10.183  0.1406  0.0789 -0.0673
 1712W        W 5912   7.691   0.008   9.627 -0.1267  0.0735 -0.0132
 1713W        W 5913   5.308   7.526   1.142 -0.2365  0.1377  0.0436
 1714W        W 5914   5.096   4.502   1.160 -0.2040  0.0354  0.0185
 1715W        W 5915   7.257   1.803   4.034  0.0905 -0.1043  0.0620
 1716W        W 5916   2.356   3.872   0.964 -0.1592 -0.1739 -0.0502
 1717W        W 5917   8.530   1.137   2.027  0.0304  0.1190 -0.4025
 1718W        W 5918   3.178   3.497   1.232 -0.1371 -0.0929  0.5513
 1719W        W 5919   5.966   0.158   9.208 -0.0036 -0.1346 -0.0443
 1720W        W 5920   9.931   0.305  10.236  0.1710  0.2178 -0.0481
 1721W        W 5921   2.603   5.849  12.384 -0.3187  0.1963 -0.1791
 1722W        W 5922   2.499   3.843  12.774  0.2150  0.1140  0.0199
 1723W        W 5923  10.003   5.135   0.370 -0.1556  0.1255 -0.3778
 1724W        W 5924   2.257  10.189  10.245 -0.1640  0.3659 -0.3616
 1725W        W 5925   4.634   0.324   9.845  0.0553  0.1242  0.0936
 1726W        W 5926   5.489   8.361  11.226 -0.0219 -0.0905  0.0260
 1727W        W 5927   8.506   6.511   0.328  0.0643  0.3765 -0.2600
 1728W        W 5928   0.215   5.185  13.070  0.1747 -0.1582  0.1532
 1729W        W 5929   3.606   4.461   9.709  0.3262  0.1240 -0.1232
 1730W        W 5930   0.625   9.617   1.422  0.2149  0.0007  0.2374
 1731W        W 5931   5.327   1.699  13.417  0.2755  0.0671  0.1760
 1732W        W 5932   0.961   4.310  11.413  0.0312 -0.0323  0.0050
 1733W        W 5933   8.016   6.944   0.118 -0.0713  0.0976 -0.1383
 1734W        W 5934   6.220   7.891  10.578  0.2094  0.1046  0.0006
 1735W        W 5935   1.226  10.092  13.493  0.2052 -0.2639  0.3245
 1736W        W 5936   8.145   0.129   1.378 -0.2121 -0.0446  0.2976
 1737W        W 5937   5.657  10.200   2.880 -0.0502 -0.1343 -0.0263
 1738W        W 5938   7.419   3.540   9.499 -0.2340  0.2952  0.2170
 1739W        W 5939   2.637   1.569  12.723 -0.0902 -0.0768  0.2937
 1740W        W 5940   1.636   9.795   0.131  0.1345  0.2202  0.0297
 1741W        W 5941  10.410   5.037   3.511  0.2581  0.0346 -0.0561
 1742W        W 5942   8.888   6.742  10.065 -0.0313 -0.2418  0.3355
 1743W        W 5943   3.636   7.949   2.088  0.3015  0.1956  0.2622
 1744W        W 5944   2.640   2.335   0.475  0.0725 -0.1090 -0.5269
 1745W        W 5945  10.261   1.059  11.235 -0.2697 -0.0008  0.0980
 1746W        W 5946   2.298   5.543  13.235  0.1142 -0.2287 -0.1293
 1747W        W 5947   3.153   3.332   3.729  0.3876  0.2533 -0.1549
 1748W        W 5948   4.353   7.745   9.568  0.1860  0.3793  0.0315
 1749W        W 5949   4.272   4.547  11.157  0.1666  0.1968 -0.0847
 1750W        W 5950   1.831   3.973   0.730 -0.2164  0.2429 -0.1617
 1751W        W 5951   3.798   5.286   1.931  0.2598  0.0373 -0.0610
 1752W        W 5952   2.230   1.067   9.095  0.1286 -0.3276 -0.3376
 1753W        W 5953   9.812   4.233   2.019 -0.0006 -0.0531  0.0824
 1754W        W 5954   7.455   6.184   3.435  0.1047 -0.2890  0.3086
 1755W        W 5955   4.778   5.652  13.073  0.1349  0.0282 -0.1729
 1756W        W 5956   9.729   2.522   4.010  0.1461 -0.1722  0.1887
 1757W        W 5957   6.067   8.035  11.922  0.0473  0.1069 -0.5296
 1758W        W 5958   8.901   5.937   3.944 -0.2407  0.1126 -0.2445
 1759W        W 5959   6.253   7.251   9.589  0.3232  0.0139 -0.1072
 1760W        W 5960   9.143   7.132   4.673 -0.2479 -0.1450 -0.0980
 1761W        W 5961   5.349   2.749  10.643 -0.1455  0.3500 -0.0211
 1762W        W 5962   8.986   5.935   1.941 -0.0056 -0.2993  0.1549
 1763W        W 5963   6.376   3.473   0.399  0.0400 -0.0853  0.3063
 1764W        W 5964   7.180   0.814   1.760  0.0135 -0.2249  0.1727
 1765W        W 5965   9.539   2.092   4.793  0.2526 -0.1734  0.2248
 1766W        W 5966   4.816   1.775  10.942  0.0159  0.1033 -0.1313
 1767W        W 5967   4.136   3.841   9.092 -0.3315  0.2078  0.0213
 1768W        W 5968   7.025   5.706   9.818 -0.0554 -0.2019 -0.0053
 1769W        W 5969   8.745   2.981  11.285  0.0708  0.1682  0.4601
 1770W        W 5970   8.959   0.467   3.968  0.0314  0.1287  0.1027
 1771W        W 5971   9.434   3.802   3.858  0.1484 -0.0520  0.1937
 1772W        W 5972   8.855   9.297  11.308  0.2483  0.0861  0.0711
 1773W        W 5973   2.196   1.558   4.143 -0.0636 -0.3448 -0.0765
 1774W        W 5974   5.093  10.303  11.095 -0.1931 -0.1008  0.0307
 1775W        W 5975   2.682   8.393  10.889  0.0861  0.3062 -0.0379
 1776W        W 5976   1.069   0.677  12.673 -0.0030  0.0598  0.2210
 1777W        W 5977   6.897   0.039   4.408 -0.1332 -0.3825  0.3827
 1778W        W 5978   2.352   4.672  10.048  0.3560  0.0018 -0.2088
 1779W        W 5979   9.456  10.371   1.075 -0.1355 -0.2908  0.0915
 1780W        W 5980   8.374   0.383   4.197  0.0068 -0.2460 -0.1877
 1781W        W 5981   7.630   0.420   3.563  0.0366 -0.0776 -0.0347
 1782W        W 5982   3.338   9.786   0.034 -0.0158  0.1568 -0.3702
 1783W        W 5983   9.997   0.590  11.069  0.0589  0.2458 -0.0306
 1784W        W 5984   4.409   0.007   1.572 -0.1869 -0.0535 -0.2440
 1785W        W 5985   8.063   1.573  10.960  0.0254 -0.2164 -0.1662
 1786W        W 5986   1.902   3.881   9.818 -0.0055 -0.1583 -0.2466
 1787W        W 5987  10.120   8.105  12.173 -0.2766  0.2703  0.0548
 1788W        W 5988   0.998   5.906   9.922 -0.3437 -0.1263  0.0447
 1789W        W 5989   9.985   4.681  11.357 -0.1965  0.1992 -0.2465
 1790W        W 5990   6.845   1.416   1.543  0.1750 -0.0255  0.0617
 1791W        W 5991   0.919   0.066   3.720  0.2399  0.2183  0.1193
 1792W        W 5992   7.257   9.615  10.636  0.0087 -0.2356 -0.0119
 1793W        W 5993   9.479   9.366   2.317 -0.1302  0.1421 -0.3746
 1794W        W 5994   2.793   5.607  13.510  0.1051 -0.1732 -0.1425
 1795W        W 5995   9.601   0.420   1.029 -0.1614  0.2990 -0.0563
 1796W        W 5996   8.000   4.282   3.566  0.1555 -0.0766 -0.1173
 1797W        W 5997   1.786   0.197   3.797  0.1678  0.0863  0.1134
 1798W        W 5998   8.622   1.528   0.879  0.1762  0.0756  0.0732
 1799W        W 5999   3.449   3.780  12.564 -0.4967  0.1324  0.1716
 1800W        W 6000   9.778  10.207  12.930  0.3693  0.0245  0.1322
 1801W        W 6001   8.949   1.943  10.540 -0.2387  0.1565  0.4166
 1802W        W 6002   9.417   2.430   2.490  0.1757  0.0199 -0.0597
 1803W        W 6003   7.817   1.160   4.232 -0.0306  0.3058 -0.2782
 1804W        W 6004   8.753   3.580  13.274  0.4039 -0.1260 -0.4090
 1805W        W 6005   4.945   5.007   5.413 -0.0573  0.1150 -0.0832
 1806W        W 6006   6.483   3.994   0.408 -0.0977 -0.1853 -0.0604
 1807W        W 6007   6.729   6.572  12.355  0.0097  0.3562  0.3206
 1808W        W 6008   6.582   4.539   0.756 -0.0679  0.1439 -0.2904
 1809W        W 6009   1.690   5.756  11.928  0.1247  0.2546  0.0603
 1810W        W 6010   8.386   0.686   1.226 -0.1469 -0.0851  0.0078
 1811W        W 6011   3.943   1.455  13.024  0.1478 -0.2025  0.0362
 1812W        W 6012   4.965   0.259   4.330 -0.1465  0.0201 -0.2599
 1813W        W 6013   7.083   9.936   2.105 -0.2222  0.2801 -0.1964
 1814W        W 6014   5.340   5.750   9.815 -0.0280 -0.1101  0.1038
 1815W        W 6015   0.410   9.381  11.491  0.1755 -0.3337 -0.0163
 1816W        W 6016   5.186   5.221   1.869 -0.0592  0.2095  0.0514
 1817W        W 6017   2.283   0.784   3.493 -0.4203 -0.2565  0.0669
 1818W        W 6018   8.594   8.185   2.010  0.2264  0.4254 -0.0791
 1819W        W 6019   7.216   3.791   3.814 -0.0013  0.1322 -0.0118
 1820W        W 6020  10.018   4.841   9.904  0.0009  0.2662  0.0043
 1821W        W 6021   8.161   3.207   1.754 -0.4096 -0.0810  0.1011
 1822W        W 6022   8.274   3.235   9.058  0.0171  0.2465 -0.0331
 1823W        W 6023   7.089   1.997   2.171 -0.0163 -0.2612 -0.1614
 1824W        W 6024   2.740   3.996   3.056  0.0861 -0.0367 -0.0233
 1825W        W 6025   6.100   4.641  11.782  0.1533 -0.1584  0.0909
 1826W        W 6026   6.903   3.275  10.102 -0.2489 -0.2479  0.2137
 1827W        W 6027   1.268   5.254  10.073 -0.2164  0.1753  0.0666
 1828W        W 6028   7.525   9.807   2.405 -0.0193  0.1632  0.1102
 1829W        W 6029   2.894   9.976  13.427 -0.0085  0.0382 -0.0770
 1830W        W 6030   2.521   6.924   0.553 -0.0674 -0.1382 -0.1362
 1831W        W 6031   9.529   2.106   2.912  0.3643  0.1414 -0.1367
 1832W        W 6032   6.259   9.159   9.425 -0.1735  0.2380  0.3151
 1833W        W 6033   7.619   6.223  11.851 -0.0538 -0.0220  0.0648
 1834W        W 6034   1.658   8.969  11.888  0.3103  0.4987 -0.1048
 1835W        W 6035   7.574   2.826   3.191  0.0029  0.0740 -0.0634
 1836W        W 6036   9.235  10.333   0.527 -0.0038 -0.2222 -0.2112
 1837W        W 6037   1.989   9.646  12.979 -0.3212  0.0048 -0.2556
 1838W        W 6038   8.264   0.260   3.260 -0.1817  0.0644 -0.0844
 1839W        W 6039   4.557   4.264   3.742 -0.2192  0.3810 -0.1208
 1840W        W 6040   7.136   4.559   1.938 -0.0678 -0.0912  0.0583
 1841W        W 6041   2.909   3.381  11.135 -0.0318  0.2926  0.1190
 1842W        W 6042   1.619   3.170  10.326  0.2728 -0.0062 -0.0595
 1843W        W 6043   2.620   7.526  12.941 -0.2134  0.2311  0.2051
 1844W        W 6044   3.029   8.801   9.830  0.0731 -0.2624 -0.0635
 1845W        W 6045   2.712   1.772   3.335  0.0407 -0.3157 -0.0177
 1846W        W 6046   4.950   1.200   4.552 -0.1205  0.0220  0.1501
 1847W        W 6047  10.373   0.975   9.415  0.0769 -0.2991 -0.1792
 1848W        W 6048   3.463   3.108   0.979 -0.0912 -0.2521  0.0985
 1849W        W 6049   6.045   0.693  12.981  0.1263 -0.0061  0.2989
 1850W        W 6050  10.384   1.802   9.273  0.1314 -0.1412 -0.4849
 1851W        W 6051   9.110   3.003  11.636 -0.1590  0.0303 -0.0332
 1852W        W 6052   3.909   0.457   4.348 -0.0353  0.1236  0.0937
 1853W        W 6053   1.847   7.508  13.455 -0.1261 -0.0824  0.1532
 1854W        W 6054   3.175   0.287  10.017  0.1579  0.1903 -0.1401
 1855W        W 6055   1.447   0.449  12.964  0.0778 -0.1655  0.0591
 1856W        W 6056   3.337   4.684   3.326  0.1789  0.0237 -0.2357
 1857W        W 6057   2.677   6.841  10.406  0.0788  0.2374  0.0989
 1858W        W 6058   3.305   5.623   9.580 -0.0900 -0.0346  0.4209
 1859W        W 6059   3.844   6.486   0.318  0.0374 -0.3706  0.2636
 1860W        W 6060   6.724   7.910   0.528  0.1080 -0.0577  0.1724
 1861W        W 6061   1.630   0.829   4.454 -0.1534  0.4649  0.2641
 1862W        W 6062  10.409   4.253   9.125  0.2952 -0.2038 -0.1679
 1863W        W 6063   8.988   6.047   3.003 -0.2001  0.0150 -0.0944
 1864W        W 6064   9.420   7.497   2.582 -0.1482 -0.0475  0.2808
 1865W        W 6065   9.059  10.073  11.226  0.0705 -0.0163 -0.1935
 1866W        W 6066   1.102   7.205  12.624 -0.1383 -0.1426  0.1930
 1867W        W 6067   9.726   4.601   1.624  0.1207  0.4405  0.1953
 1868W        W 6068   3.038   1.268   0.872  0.0440  0.0937  0.0335
 1869W        W 6069   1.251   6.188  11.164  0.0105  0.0426 -0.0786
 1870W        W 6070   8.800   7.464   0.436  0.1283  0.0334 -0.0589
 1871W        W 6071   6.194   2.978   0.742 -0.0765  0.0040 -0.2794
 1872W        W 6072   5.812   9.048   9.224 -0.0398 -0.0808  0.2894
 1873W        W 6073   0.009   9.300  12.722 -0.0043 -0.0660 -0.1470
 1874W        W 6074   2.462   1.037   9.529  0.0116 -0.0815 -0.1343
 1875W        W 6075   9.635  10.070   0.004 -0.0751  0.0697 -0.0368
 1876W        W 6076   2.994   1.754  11.813  0.2093  0.1118 -0.0865
 1877W        W 6077   7.062   8.589  13.111 -0.0553 -0.0129 -0.1416
 1878W        W 6078   9.286   9.491   1.254 -0.0005  0.2656 -0.0342
 1879W        W 6079   2.339   4.222   4.656  0.1810  0.2447 -0.0220
 1880W        W 6080   2.229   0.906   2.063  0.2194  0.2759 -0.0873
 1881W        W 6081   1.612   5.165   4.458  0.0363  0.0196 -0.0835
 1882W        W 6082   8.434   9.890   0.722  0.2269 -0.0043 -0.0753
 1883W        W 6083   1.756   6.478  12.474  0.2258 -0.0810  0.2993
 1884W        W 6084   2.600   5.594  10.285  0.1694 -0.5088 -0.0660
 1885W        W 6085   0.689   6.735   4.242 -0.0669 -0.1308  0.1736
 1886W        W 6086   5.962   9.104   0.058  0.2712  0.3163 -0.0632
 1887W        W 6087   3.268   1.889   1.772 -0.0060 -0.0503 -0.5109
 1888W        W 6088   9.530   1.633   2.658  0.1477 -0.0855 -0.1779
 1889W        W 6089   6.075   7.668   5.108 -0.2803  0.1476  0.0552
 1890W        W 6090   7.796   6.079   1.168 -0.0207 -0.1774  0.0495
 1891W        W 6091   8.199   9.962   0.187  0.1020 -0.2602 -0.0443
 1892W        W 6092   2.528   6.940   2.195 -0.2614  0.1311 -0.0075
 1893W        W 6093   7.549  10.073   1.089  0.3573 -0.1135  0.0458
 1894W        W 6094   6.542   6.229   3.049  0.3652 -0.1195 -0.1404
 1895W        W 6095   3.427   8.298  11.734  0.2739 -0.0701  0.1907
 1896W        W 6096   4.324   0.816   1.525 -0.0388  0.0532 -0.2296
 1897W        W 6097   1.068   6.376  10.275  0.0303  0.2580  0.2977
 1898W        W 6098   7.313   4.158   4.950  0.1128  0.2724 -0.0964
 1899W        W 6099   4.988   8.506   9.884  0.2627  0.0115 -0.0477
 1900W        W 6100   3.176   7.062   9.425 -0.3983 -0.3001  0.0437
 1901W        W 6101   5.055   5.537   3.546  0.1909 -0.0407 -0.1369
 1902W        W 6102   7.307   8.336   2.729 -0.4355  0.0474 -0.0463
 1903W        W 6103   2.870   9.340   3.380 -0.1627  0.0350 -0.1129
 1904W        W 6104   2.313   2.189   1.632 -0.0641 -0.1079 -0.1117
 1905W        W 6105   8.828   9.439   4.403  0.4397 -0.0852  0.1855
 1906W        W 6106  10.283   2.078  13.265 -0.2592 -0.0094  0.0977
 1907W        W 6107   8.933   6.531  11.304  0.2743  0.0778  0.0488
 1908W        W 6108   6.258   7.038   3.789 -0.2988 -0.2413 -0.0467
 1909W        W 6109   5.269   3.793   3.603 -0.0725  0.1588  0.0749
 1910W        W 6110  10.301   6.718   2.262 -0.1842 -0.0842  0.1001
 1911W        W 6111   0.422   3.018   9.244 -0.1720  0.0508 -0.3534
 1912W        W 6112   2.541   4.250  10.283  0.0796  0.0608  0.3121
 1913W        W 6113   8.933   6.252  10.861  0.1397  0.0182  0.1647
 1914W        W 6114   7.753   1.702  11.521  0.1476 -0.0927 -0.1496
 1915W        W 6115   5.920   3.364   3.980 -0.3633  0.0893  0.2317
 1916W        W 6116   1.491   5.180  13.508 -0.0604 -0.1674 -0.0178
 1917W        W 6117   6.157   6.448  11.194  0.2718  0.0964 -0.4371
 1918W        W 6118   4.124   3.039   2.037 -0.3633  0.1430 -0.1327
 1919W        W 6119   6.336   4.219  12.714  0.4033 -0.1663  0.0118
 1920W        W 6120   4.667   5.900   0.846  0.2466 -0.1024  0.1361
 1921W        W 6121   1.849   7.938   4.012 -0.1754 -0.1661  0.2390
 1922W        W 6122   7.299   5.040  12.987 -0.1367  0.0341 -0.1199
 1923W        W 6123   9.340   0.285   1.914 -0.0889  0.0486  0.0847
 1924W        W 6124   3.587   8.662   2.614  0.0845  0.2562  0.2120
 1925W        W 6125   4.616   1.902   9.115  0.0444 -0.1296  0.1557
 1926W        W 6126   2.924   6.896  11.430 -0.0773 -0.0088  0.2483
 1927W        W 6127   4.073   3.853   2.601  0.1490 -0.2442 -0.2473
 1928W        W 6128   7.350   6.752  10.884 -0.0868  0.1110 -0.1542
 1929W        W 6129   4.252   8.391   2.891 -0.2409 -0.1714 -0.1243
 1930W        W 6130   8.992   1.121  11.162  0.2489  0.2764 -0.2715
 1931W        W 6131  10.086   0.508   2.534 -0.0408  0.3914  0.0781
 1932W        W 6132   0.863   2.606   9.813 -0.1857  0.0038 -0.1054
 1933W        W 6133   6.862   7.791   2.049  0.2351  0.0012  0.0586
 1934W        W 6134   5.285   7.954   3.556  0.0945 -0.2173  0.0400
 1935W        W 6135   6.618   5.487   4.008  0.0900 -0.2513 -0.1518
 1936W        W 6136   3.833   3.635  12.893  0.0978 -0.2355 -0.0058
 1937W        W 6137   3.700   7.568  13.334  0.0960 -0.1310 -0.2057
 1938W        W 6138   9.031   0.549   2.260 -0.2131 -0.0371 -0.2670
 1939W        W 6139   3.960   1.372   0.836 -0.2477  0.0315 -0.2559
 1940W        W 6140   1.869   5.786   9.233 -0.0227 -0.2661 -0.1708
 1941W        W 6141   2.605   4.089   0.087 -0.1938 -0.2377  0.1736
 1942W        W 6142   3.289   3.715   2.041 -0.0451 -0.1435  0.3190
 1943W        W 6143   6.371   6.744  10.641 -0.1657 -0.2081  0.2640
 1944W        W 6144   9.294   5.270   4.444 -0.1661 -0.2923  0.4247
 1945W        W 6145   2.554   9.607   2.190 -0.0627  0.0092 -0.1894
 1946W        W 6146   8.634   4.732   1.903 -0.2609  0.2192 -0.2099
 1947W        W 6147  10.254   0.297   4.045  0.0631 -0.2624  0.0510
 1948W        W 6148   2.713   8.543   0.229  0.2992  0.0500  0.1830
 1949W        W 6149   7.475   1.924  11.893  0.0127 -0.3025  0.0145
 1950W        W 6150   5.980   4.271   1.544  0.3027 -0.1554  0.2813
 1951W        W 6151   9.378   0.929  10.173 -0.1206 -0.1886 -0.4453
 1952W        W 6152   0.702   1.396  12.414  0.2811 -0.0993  0.1063
 1953W        W 6153   7.500   3.465   1.125 -0.4291 -0.1524 -0.1260
 1954W        W 6154   0.163   3.084   2.072  0.1182  0.0194 -0.0805
 1955W        W 6155   2.709   2.240   9.997  0.1129  0.1258  0.0467
 1956W        W 6156   9.309   1.570   0.709  0.0224  0.3302 -0.1253
 1957W        W 6157   1.419   8.080  10.863  0.0256 -0.1275 -0.1816
 1958W        W 6158   2.847   2.310   2.449  0.2165  0.2531  0.0334
 1959W        W 6159   5.229   1.776   3.654 -0.1680 -0.2788 -0.2663
 1960W        W 6160   6.380   2.514   1.856  0.1396 -0.2339 -0.1486
 1961W        W 6161   7.182   6.454   1.324 -0.1900 -0.0245  0.0224
 1962W        W 6162   7.529   0.085  12.036 -0.1971  0.1339  0.0846
 1963W        W 6163   3.902   3.905   1.749 -0.0982 -0.0078 -0.1805
 1964W        W 6164   0.767   4.995  12.229 -0.0166  0.1150  0.0100
 1965W        W 6165   6.750   2.520   2.878  0.5082  0.0656  0.0571
 1966W        W 6166   7.829   2.269   4.061  0.1602 -0.2838  0.0054
 1967W        W 6167   0.939   9.616   1.790 -0.0124  0.1526  0.1372
 1968W        W 6168   5.324   4.522   8.759  0.0059 -0.1015  0.1647
 1969W        W 6169  10.385   4.978  12.708  0.0899 -0.0524  0.0425
 1970W        W 6170   3.676   8.012   1.049 -0.0873 -0.0200 -0.0047
 1971W        W 6171   9.553   8.017   0.534  0.4324  0.1362  0.0947
 1972W        W 6172   1.951   1.834  10.786 -0.0219 -0.0778 -0.0259
 1973W        W 6173   5.800   2.310  11.944  0.0524 -0.0219 -0.0276
 1974W        W 6174   3.260   0.438  12.302  0.5612 -0.1347  0.0570
 1975W        W 6175   7.814   1.316  11.801  0.2417 -0.4227  0.2453
 1976W        W 6176   7.071   5.358   4.203 -0.0154 -0.2467  0.0010
 1977W        W 6177   7.264   1.046   9.925 -0.0831  0.0262 -0.1250
 1978W        W 6178   0.335   8.829   3.772  0.0704 -0.0174  0.1168
 1979W        W 6179   3.603   9.648   1.107  0.3317  0.2070 -0.0036
 1980W        W 6180   6.945   2.457   8.572  0.3625 -0.3230  0.1842
 1981W        W 6181   2.299   3.672   9.572 -0.3540  0.1817  0.1462
 1982W        W 6182   9.483   1.957   0.910  0.1376  0.2886  0.4404
 1983W        W 6183  10.251   2.202   1.166  0.0900 -0.1745 -0.0002
 1984W        W 6184   6.584   8.555  13.296 -0.1251 -0.0716 -0.0970
 1985W        W 6185   1.251   2.740   2.790 -0.2011  0.0346  0.0212
 1986W        W 6186   9.135   2.740  13.273  0.1813  0.1199 -0.0336
 1987W        W 6187  10.186   3.080   8.653  0.0214 -0.4942  0.3654
 1988W        W 6188   5.167   5.567   0.108 -0.1536  0.1212 -0.1338
 1989W        W 6189   7.057   9.912  12.525  0.2064  0.2440 -0.2081
 1990W        W 6190   5.810   7.061   9.452 -0.3518  0.0521 -0.1768
 1991W        W 6191   6.543   7.478   1.796  0.4766 -0.0012  0.0029
 1992W        W 6192   6.760   8.566  12.060  0.0697  0.0002 -0.4885
 1993W        W 6193   6.313   0.139   0.195  0.1255  0.0455  0.3127
 1994W        W 6194   0.932   4.936  10.018  0.0869  0.1505 -0.1196
 1995W        W 6195   6.827   3.784   0.076 -0.3251  0.1098 -0.0029
 1996W        W 6196   8.194   1.734  13.513 -0.1977 -0.0497 -0.3002
 1997W        W 6197   2.356  10.360  11.181 -0.0217  0.2655 -0.0161
 1998W        W 6198   5.924   4.194  11.862  0.3423  0.1170 -0.4382
 1999W        W 6199   3.792   7.129   3.669 -0.2072 -0.1759 -0.0104
 2000W        W 6200   4.228   5.771   0.435  0.1423 -0.1281 -0.0876
 2001W        W 6201   5.800   1.276  12.154 -0.0843 -0.3473 -0.0698
 2002W        W 6202   2.353   5.973  10.035 -0.1777 -0.1912 -0.1633
 2003W        W 6203   9.532   1.660   1.880 -0.4059  0.1907 -0.2697
 2004W        W 6204   0.856   1.261  12.893  0.1853  0.1169 -0.0455
 2005W        W 6205   9.108   4.409  11.424  0.2740  0.0020  0.3015
 2006W        W 6206   2.022   6.731  11.083 -0.0192  0.0522  0.1683
 2007W        W 6207   5.471   7.724  10.220 -0.0985 -0.0143  0.1701
 2008W        W 6208   7.805   7.835   2.075  0.0818  0.1849  0.2395
 2009W        W 6209   3.905   3.536   4.913  0.3006  0.1232  0.3196
 2010W        W 6210   5.281   9.437   4.192 -0.1543  0.0643 -0.0239
 2011W        W 6211  10.049   5.947   3.633  0.1652 -0.1150  0.3139
 2012W        W 6212   3.056   4.381   0.713 -0.2910 -0.0687  0.1011
 2013W        W 6213   6.510   4.397  10.153 -0.2741  0.0176 -0.0226
 2014W        W 6214   9.809   1.013  10.867 -0.0584 -0.2298  0.2697
 2015W        W 6215   8.729   3.320   3.286  0.0060 -0.0868  0.0467
 2016W        W 6216  10.137   5.297   1.386 -0.1913  0.0690 -0.1835
 2017W        W 6217  10.035   1.379   9.722  0.3170 -0.3746 -0.1233
 2018W        W 6218   1.155   8.540  10.923 -0.1378  0.4398 -0.1818
 2019W        W 6219   0.694   8.719   1.167 -0.0354  0.1722  0.1548
 2020W        W 6220   4.573   5.426   3.155  0.1551 -0.0976 -0.2064
 2021W        W 6221   3.473   7.922  12.541 -0.2150 -0.1090  0.3908
 2022W        W 6222   6.319   6.459   2.197 -0.3106  0.0596 -0.4670
 2023W        W 6223   0.536   5.827   3.900  0.0602 -0.3063 -0.1519
 2024W        W 6224   9.618   3.726   1.847 -0.1451 -0.1539  0.1224
 2025W        W 6225   4.956   6.806  12.490 -0.0117 -0.0785  0.0658
 2026W        W 6226   7.001   8.085   3.701 -0.0723  0.0000  0.0504
 2027W        W 6227   0.177   0.482  12.032  0.2757 -0.1195  0.1272
 2028W        W 6228   8.737   1.633  12.745 -0.1873  0.0701 -0.1939
 2029W        W 6229   0.868   3.816  11.842 -0.3080 -0.3338  0.3679
 2030W        W 6230   0.208   4.194  11.784 -0.1773 -0.5353  0.0149
 2031W        W 6231   6.944   5.431   9.335  0.0116  0.3549 -0.2310
 2032W        W 6232   6.622   7.656  10.684  0.1141 -0.2067  0.0063
 2033W        W 6233   8.302   0.418   1.785  0.0387  0.3838  0.3849
 2034W        W 6234   8.103   3.379  11.671  0.2086  0.1005  0.1414
 2035W        W 6235   8.926   8.621  13.062 -0.0366  0.0093  0.0674
 2036W        W 6236   1.319   3.405   0.082 -0.2061  0.0365  0.0633
 2037W        W 6237   5.635   2.059   3.457 -0.0248  0.1072  0.3571
 2038W        W 6238   0.005   0.466   0.488 -0.1404 -0.0256  0.1359
 2039W        W 6239   3.935   1.682  13.500 -0.0473  0.0356  0.1298
 2040W        W 6240   2.195   1.721  12.162  0.1782 -0.2800 -0.0203
 2041W        W 6241  10.183   0.130  11.109  0.2024 -0.0600 -0.1031
 2042W        W 6242   1.736   4.120   3.701 -0.0838 -0.1551  0.0434
 2043W        W 6243   9.533   6.146  10.025 -0.1433  0.2656  0.1285
 2044W        W 6244   6.533   6.123   3.509  0.0459 -0.1330 -0.2389
 2045W        W 6245   3.101   4.630   4.938 -0.2330  0.0831 -0.2365
 2046W        W 6246   1.175   8.869   1.047  0.1572 -0.1216 -0.0542
 2047W        W 6247   9.564   6.411   1.657  0.0001 -0.0596 -0.1662
 2048W        W 6248   2.160   1.867   1.011 -0.1645  0.0610 -0.0664
 2049W        W 6249   7.548   6.300  10.594 -0.2485  0.0206 -0.2608
 2050W        W 6250   8.345   9.285   9.986 -0.1047  0.0011  0.3269
 2051W        W 6251   7.521   0.796  11.289 -0.2498 -0.1263  0.1414
 2052W        W 6252   3.247   2.739  12.407 -0.0618 -0.2563 -0.0328
 2053W        W 6253   3.194   1.067   1.612 -0.1509 -0.0483  0.1167
 2054W        W 6254   3.842  10.302   1.857  0.3696 -0.0248  0.0123
 2055W        W 6255   3.036   3.858   3.801  0.0450  0.2529  0.1102
 2056W        W 6256   3.066   7.049   0.349  0.1611  0.1149 -0.2784
 2057W        W 6257   5.616   6.056   4.204  0.1010 -0.1908  0.2103
 2058W        W 6258   5.217  10.262  12.510 -0.0139 -0.1817 -0.3415
 2059W        W 6259   0.545   2.652  11.740 -0.2185 -0.2181  0.0181
 2060W        W 6260   6.373   4.918   2.053  0.0830 -0.3554  0.3657
 2061W        W 6261   6.946  10.083   1.247 -0.2024  0.0055 -0.0951
 2062W        W 6262  10.185   8.284  10.801 -0.3292  0.0022  0.1000
 2063W        W 6263   5.624   5.059  12.040  0.0404  0.1978 -0.4188
 2064W        W 6264   4.618   9.874   2.113  0.4383  0.1416 -0.2566
 2065W        W 6265   5.308   4.700  13.476  0.1732  0.1044 -0.1295
 2066W        W 6266   8.633   5.985   8.878  0.0261  0.4275 -0.2254
 2067W        W 6267   6.818   2.173   0.872  0.3405 -0.1584 -0.0550
 2068W        W 6268   3.309   3.775  13.454 -0.0849  0.1333 -0.1316
 2069W        W 6269   6.959   1.162  13.384  0.0234 -0.0797  0.2362
 2070W        W 6270   5.862   2.537   1.896  0.0229  0.1301 -0.2918
 2071W        W 6271   6.230   4.328  12.254  0.0933 -0.0836  0.1962
 2072W        W 6272   7.082   6.403  11.081  0.5542 -0.0320  0.0434
 2073W        W 6273   2.085   7.011  10.617 -0.2159  0.2824  0.3837
 2074W        W 6274   9.857   3.788   0.384 -0.0381  0.2130  0.1599
 2075W        W 6275   7.689   3.056   0.777 -0.1782 -0.0449  0.0759
 2076W        W 6276   3.104   5.833  13.145 -0.2156  0.2669 -0.5440
 2077W        W 6277  10.059   0.132   3.009 -0.2094  0.0399  0.6440
 2078W        W 6278   9.625   7.231  13.381  0.1490 -0.0235  0.0609
 2079W        W 6279   5.376   4.574   0.695 -0.1370 -0.1666 -0.2010
 2080W        W 6280   1.840   6.471  10.651  0.0169 -0.1193 -0.2530
 2081W        W 6281   5.417   6.728   0.625 -0.0332 -0.0970 -0.0672
 2082W        W 6282   3.021   2.899   4.130 -0.0852  0.2882  0.2467
 2083W        W 6283   7.466   9.425  10.985 -0.1024  0.0821  0.3042
 2084W        W 6284   7.548   9.727  12.641  0.1355 -0.0614 -0.3151
 2085W        W 6285   5.234   0.902   0.718 -0.0577 -0.0823  0.1254
 2086W        W 6286   8.228   3.660   1.896  0.0132 -0.0954 -0.0622
 2087W        W 6287   0.272   9.688   0.268  0.0009 -0.0864  0.2296
 2088W        W 6288   5.023   3.759   0.067 -0.0432  0.0454 -0.1860
 2089W        W 6289   3.867   7.698   5.240  0.0670 -0.1991 -0.2266
 2090W        W 6290   6.329   8.663   9.346 -0.2486  0.0983 -0.0213
 2091W        W 6291   8.405   4.313  12.045  0.2410  0.0277 -0.2652
 2092W        W 6292   5.435   6.983   1.074 -0.2755  0.3525  0.0267
 2093W        W 6293   6.937   7.579   9.307  0.2345 -0.1250  0.1036
 2094W        W 6294   1.494   4.286  11.506 -0.0022  0.1841 -0.1617
 2095W        W 6295   6.662   1.585   4.590  0.2816 -0.0676  0.0318
 2096W        W 6296   1.898   9.995   3.729  0.1914  0.0082  0.0050
 2097W        W 6297   4.582   1.775   3.157 -0.2862  0.0164  0.0701
 2098W        W 6298   6.198   8.687   4.682 -0.1348  0.0293  0.1707
 2099W        W 6299   7.869   8.531   4.850 -0.0104 -0.1222  0.1195
 2100W        W 6300   5.550   2.136   9.812 -0.0012  0.1765  0.1500
 2101W        W 6301   3.378   8.281   0.732  0.1762 -0.2320  0.1187
 2102W        W 6302   6.954   6.094  10.625  0.0016 -0.3394  0.0668
 2103W        W 6303   9.256   3.228   4.575 -0.2314  0.0902  0.2742
 2104W        W 6304   4.148   8.107   1.203 -0.1910  0.4050 -0.0253
 2105W        W 6305   9.096   2.626   3.016  0.4786  0.2800 -0.1208
 2106W        W 6306   9.934   2.590  11.401  0.3123  0.2028  0.0250
 2107W        W 6307   4.711   9.241  10.925 -0.5235 -0.0602  0.0703
 2108W        W 6308   2.797   4.010   9.557  0.2394  0.2872  0.2782
 2109W        W 6309   9.343   3.692   9.262 -0.0520  0.2675 -0.3030
 2110W        W 6310   2.996   9.707   0.865 -0.2092 -0.1582 -0.0136
 2111W        W 6311   7.305   8.849   0.286  0.3321  0.2408 -0.0497
 2112W        W 6312   3.364   4.164  11.357 -0.1183  0.1644  0.0902
 2113W        W 6313   9.187   5.618  11.099 -0.1995 -0.0157 -0.2398
 2114W        W 6314   0.479   5.216   9.934  0.0914  0.0540  0.2931
 2115W        W 6315   7.119   1.091  11.453  0.1430  0.1316  0.0071
 2116W        W 6316   6.671   1.165   2.511  0.0137 -0.0874  0.0767
 2117W        W 6317  10.108   4.536   0.815  0.0868 -0.2751  0.1119
 2118W        W 6318   6.716   2.221   2.455  0.0488 -0.2034 -0.4232
 2119W        W 6319   6.358   7.527   8.760 -0.0849 -0.1447  0.1003
 2120W        W 6320   7.455   6.033  11.030  0.1297  0.3962  0.1067
 2121W        W 6321   9.717   2.387   0.606  0.1692 -0.3343  0.4600
 2122W        W 6322   8.803   3.713   0.250  0.0638  0.1348  0.1143
 2123W        W 6323   9.378   2.963   0.135 -0.0116 -0.4250 -0.0295
 2124W        W 6324   0.077   4.775   0.757  0.0376  0.0247  0.1310
 2125W        W 6325   2.304   1.796   3.619 -0.0483  0.1399 -0.3066
 2126W        W 6326   7.878   9.123  11.247  0.4990  0.1646 -0.0003
 2127W        W 6327   9.809   0.806   4.989 -0.0347 -0.0671  0.2316
 2128W        W 6328   3.369   1.133   2.416 -0.0687 -0.0695  0.1729
 2129W        W 6329   8.678   2.439  12.510  0.4512  0.1680  0.1869
 2130W        W 6330   3.969   3.664  11.747 -0.0637 -0.1565 -0.0792
 2131W        W 6331   2.592   3.191  11.444 -0.3956 -0.0632  0.1166
 2132W        W 6332   6.203   7.263   4.279 -0.3658  0.0428 -0.0391
 2133W        W 6333   4.151   9.953   2.118  0.3365  0.1879  0.0149
 2134W        W 6334   2.661   3.222   3.470  0.0973 -0.1793 -0.0711
 2135W        W 6335   4.777   1.786   3.837  0.3442  0.2236  0.0131
 2136W        W 6336   5.578   1.157  13.487 -0.0040  0.0661 -0.0328
 2137W        W 6337   6.524   9.211  12.914 -0.0288  0.0531 -0.0483
 2138W        W 6338   1.569   6.984  12.556 -0.2789  0.0509 -0.0191
 2139W        W 6339   1.510   6.135  10.588  0.0263  0.1928 -0.2652
 2140W        W 6340   2.311   1.509  10.884 -0.0945 -0.1157  0.2222
 2141W        W 6341   3.140   4.863  10.729 -0.0264  0.1002 -0.3113
 2142W        W 6342   5.913   0.462  10.119 -0.1149 -0.0713 -0.0224
 2143W        W 6343   4.322   1.492   9.570  0.0248 -0.2382 -0.1323
 2144W        W 6344   4.293   9.235   9.090 -0.1373 -0.0780 -0.2388
 2145W        W 6345   2.406   8.929   0.402  0.1742  0.1162  0.1810
 2146W        W 6346   4.810   4.382  10.154  0.3982 -0.2857 -0.0710
 2147W        W 6347   7.533   2.437   9.476 -0.0500 -0.1467  0.1202
 2148W        W 6348   4.972   9.477   3.778  0.2119 -0.3832 -0.2041
 2149W        W 6349   0.036   8.974   3.402 -0.2475  0.1100  0.1783
 2150W        W 6350   7.678   1.483   1.742 -0.2007  0.1519  0.4684
 2151W        W 6351   5.512   8.284  13.228 -0.1246 -0.0571 -0.2289
 2152W        W 6352   3.383   0.314   4.369 -0.0062  0.2122 -0.0077
 2153W        W 6353   7.015   1.694   3.592 -0.2185  0.3563 -0.0288
 2154W        W 6354   1.293   4.424   2.729 -0.1672  0.0615 -0.0241
 2155W        W 6355   0.603   7.073   0.799 -0.1539 -0.3769  0.0851
 2156W        W 6356   0.943   2.337  10.826  0.1632  0.1668  0.1476
 2157W        W 6357   5.467   0.325  12.493 -0.2422 -0.3994 -0.0579
 2158W        W 6358   3.275   8.848   1.448  0.0684  0.0670 -0.2320
 2159W        W 6359   0.265   3.488   1.195  0.0498 -0.0797  0.1349
 2160W        W 6360   6.337   8.709   0.205 -0.0883  0.0807 -0.1077
 2161W        W 6361   7.602   7.413  12.691  0.0741  0.3935  0.0609
 2162W        W 6362   2.152   8.826  10.053 -0.2013  0.3869 -0.1072
 2163W        W 6363   5.951   3.856  10.655 -0.0877 -0.2044  0.1108
 2164W        W 6364   0.601  10.131   1.315  0.2050  0.2126 -0.2871
 2165W        W 6365   9.129   0.476   3.296 -0.0346 -0.0056 -0.1305
 2166W        W 6366   0.626   0.347   9.038  0.2297 -0.2599  0.0271
 2167W        W 6367   8.004   3.481   1.084 -0.0087  0.0838 -0.1162
 2168W        W 6368   9.350   6.582   3.980 -0.0069 -0.0879 -0.2646
 2169W        W 6369   7.455   7.539   1.810  0.4386  0.2012 -0.0156
 2170W        W 6370   1.760   1.080   1.787 -0.2008  0.2142  0.2576
 2171W        W 6371   6.590  10.021   4.019  0.3057  0.0605  0.0533
 2172W        W 6372   5.076   3.534   9.595 -0.2185  0.2827 -0.2482
 2173W        W 6373   8.712   5.354   0.244 -0.1613 -0.0196  0.1590
 2174W        W 6374  10.254   6.333  11.551 -0.2130  0.2216 -0.3531
 2175W        W 6375   4.476   4.225   9.217  0.0514  0.1054 -0.0651
 2176W        W 6376   1.305   3.588  10.460  0.0000  0.1094  0.3745
 2177W        W 6377   5.726   8.039   9.309 -0.1513 -0.3176  0.0435
 2178W        W 6378  10.332   9.684  11.989 -0.2325  0.1735  0.1558
 2179W        W 6379   7.941   7.441  13.502 -0.3001 -0.0850 -0.1292
 2180W        W 6380   0.151   7.602   1.797  0.2497 -0.0317 -0.1070
 2181W        W 6381   9.608   2.721   3.007  0.0154  0.3724  0.1562
 2182W        W 6382   5.995   4.932   9.770  0.1735 -0.3503  0.0771
 2183W        W 6383   3.613   4.244   0.739 -0.1596 -0.3221 -0.2943
 2184W        W 6384   3.992   7.465  11.840  0.0348  0.4420 -0.0005
 2185W        W 6385   6.381   7.384   0.516  0.0601  0.1908 -0.1386
 2186W        W 6386   4.481   3.514   3.164  0.3507 -0.1014 -0.1182
 2187W        W 6387   4.103   1.258  10.611 -0.1355  0.2912  0.0718
 2188W        W 6388   5.415   7.528  12.222  0.2447  0.1839 -0.2847
 2189W        W 6389   2.073   1.783   9.842  0.0742  0.2339 -0.2019
 2190W        W 6390   8.448  10.329   1.030  0.1782 -0.2004  0.1744
 2191W        W 6391   3.526   8.349  10.628  0.0132  0.0982  0.2552
 2192W        W 6392   9.103   4.541  10.772  0.1320  0.0629 -0.0321
 2193W        W 6393   7.301   9.573   8.771  0.3064  0.0571  0.2418
 2194W        W 6394   1.571   9.453   2.969 -0.1812 -0.2462 -0.0225
 2195W        W 6395   3.744   9.235  10.408  0.0582  0.1267  0.1926
 2196W        W 6396   0.526   5.782  10.465 -0.0095  0.0348  0.0422
 2197W        W 6397   7.008   8.618   3.841  0.0482 -0.5512 -0.0695
 2198W        W 6398   1.711   3.235   3.557 -0.1473  0.1837  0.0924
 2199W        W 6399   2.447   3.835   3.458 -0.0571 -0.1862  0.1701
 2200W        W 6400   5.190   6.460   9.590  0.0542 -0.1940  0.0735
 2201W        W 6401   6.236   1.860   0.031  0.1305 -0.0513 -0.1958
 2202W        W 6402   2.372   4.345   2.895  0.1996 -0.1889  0.1091
 2203W        W 6403   4.997   3.218   3.012 -0.2705 -0.5610  0.0450
 2204W        W 6404   8.776   0.134   3.502 -0.1234  0.0211  0.0711
 2205W        W 6405   7.971   5.568   0.353  0.0668 -0.0264  0.2935
 2206W        W 6406   1.796  10.393  11.738 -0.2770  0.0837 -0.0357
 2207W        W 6407   8.694   1.177   1.554 -0.0787 -0.0325 -0.1541
 2208W        W 6408   1.516  10.380   9.593 -0.0141  0.0592 -0.1394
 2209W        W 6409   1.007   1.219  11.892 -0.1294  0.0609 -0.3770
 2210W        W 6410   7.553   1.604   2.292 -0.1035  0.1056 -0.1882
 2211W        W 6411   2.494   4.180  11.781  0.1075 -0.0398  0.2123
 2212W        W 6412   7.208   0.583  12.257  0.4373  0.1462 -0.0509
 2213W        W 6413   2.548   8.810   9.708  0.3109  0.0760  0.1715
 2214W        W 6414   5.742   5.119   0.718 -0.2622 -0.0428  0.2007
 2215W        W 6415   6.100   7.193   1.753 -0.2697  0.0057  0.0476
 2216W        W 6416   5.500   7.600   8.106  0.0854 -0.1608 -0.2622
 2217W        W 6417   7.138   5.246   5.106 -0.1663 -0.0398 -0.0978
 2218W        W 6418   8.376   7.424   0.908 -0.1829  0.0153  0.3978
 2219W        W 6419   2.167   4.309   0.484 -0.0748  0.0616 -0.1029
 2220W        W 6420   4.316   7.004   4.795  0.1320 -0.0286  0.2849
 2221W        W 6421   0.343   3.088  11.776 -0.0788  0.1716  0.1346
 2222W        W 6422   4.154   8.150  13.010  0.0538 -0.1001 -0.0138
 2223W        W 6423   0.136   0.411   2.052  0.1734 -0.2105  0.0458
 2224W        W 6424   6.924   3.651  12.243  0.0978 -0.0528  0.3895
 2225W        W 6425   1.153   3.500  12.693 -0.3268  0.1438 -0.3861
 2226W        W 6426   2.867   8.114  10.415  0.3716 -0.0537  0.0196
 2227W        W 6427   5.178   1.114   3.181 -0.0923  0.1112 -0.0047
 2228W        W 6428   8.102   1.544  12.930 -0.3764 -0.2420  0.0605
 2229W        W 6429   4.831   7.086   3.741  0.0263 -0.3581  0.0703
 2230W        W 6430  10.112   0.286   0.231 -0.2315  0.1766 -0.3015
 2231W        W 6431   7.739   0.057  11.133 -0.0890  0.0925 -0.3047
 2232W        W 6432   8.574   2.640  10.435  0.2698  0.1117 -0.2784
 2233W        W 6433   4.634   0.760   0.573 -0.1749 -0.0935 -0.0802
 2234W        W 6434   1.959   3.830   2.578 -0.1183 -0.2103 -0.0842
 2235W        W 6435   1.907   4.392   4.167  0.0054  0.0777  0.0857
 2236W        W 6436   4.867   9.907   0.777  0.2645 -0.1950  0.2325
 2237W        W 6437   1.844   4.350   2.966 -0.0535  0.1100 -0.2313
 2238W        W 6438   4.251   6.515   9.592  0.0429 -0.0384  0.1260
 2239W        W 6439   8.231   6.132   5.034 -0.2221  0.0063 -0.1287
 2240W        W 6440   4.877   7.246   1.252  0.0059  0.0647 -0.0034
 2241W        W 6441   6.185   7.522   8.033 -0.0555 -0.0570 -0.0777
 2242W        W 6442   6.953   8.981   3.338  0.2668  0.2158  0.0598
 2243W        W 6443   0.007   1.363   2.486 -0.1287 -0.2240  0.1417
 2244W        W 6444   6.605   0.974   9.972 -0.0180 -0.0562 -0.0704
 2245W        W 6445   7.622   8.042   0.782  0.0598 -0.3339  0.2331
 2246W        W 6446   6.651   7.470  12.047  0.0252 -0.2312 -0.3115
 2247W        W 6447   5.321   5.588   4.790 -0.3354  0.0018  0.1975
 2248W        W 6448   4.045   9.505   1.295 -0.2620  0.1104 -0.2830
 2249W        W 6449   0.966   2.938   9.354 -0.1206 -0.1213  0.0653
 2250W        W 6450   4.553   1.584   0.325  0.1082 -0.0289 -0.1258
 2251W        W 6451   4.316   8.148   3.879  0.1105  0.1911  0.2535
 2252W        W 6452   7.148   0.264   0.519  0.1142  0.0798  0.1556
 2253W        W 6453   6.514   8.683   3.562  0.3613  0.1184 -0.0857
 2254W        W 6454   0.696   7.911   0.704 -0.0532 -0.3155  0.2640
 2255W        W 6455   6.146  10.059  13.494 -0.0846 -0.0447 -0.0414
 2256W        W 6456   3.872   5.071  12.233  0.0759  0.1303  0.0616
 2257W        W 6457   2.009   1.930   0.037  0.0780  0.2150  0.1967
 2258W        W 6458   8.762   5.344  11.926  0.1229  0.1070  0.1701
 2259W        W 6459   2.549   0.091   2.567  0.0836 -0.1181 -0.1202
 2260W        W 6460   0.028   0.575  11.273  0.1199 -0.2232  0.0912
 2261W        W 6461   1.966   6.215   2.921  0.1916  0.2915  0.0642
 2262W        W 6462   8.683   1.742   2.939  0.1646 -0.0149 -0.2113
 2263W        W 6463   8.663   9.237   9.088 -0.1927  0.2146  0.0778
 2264W        W 6464   6.730   3.571  13.134 -0.0668 -0.4884 -0.0094
 2265W        W 6465   3.327   9.689   1.689 -0.1691  0.0546  0.1775
 2266W        W 6466   6.172   9.249   2.532  0.1847  0.1991 -0.2429
 2267W        W 6467   6.829   0.527   5.208  0.1998 -0.0399  0.0147
 2268W        W 6468   6.973   3.243   1.864  0.1513 -0.0550  0.3076
 2269W        W 6469   7.675   3.298   0.221 -0.3342 -0.1392 -0.0602
 2270W        W 6470   1.162   6.521  10.732 -0.1737  0.2589 -0.1598
 2271W        W 6471   2.466   8.871   3.151 -0.1941  0.1458  0.2380
 2272W        W 6472   7.620   5.740  10.620  0.0016  0.0837  0.0169
 2273W        W 6473   6.334   9.492  12.033 -0.2855  0.2278 -0.2084
 2274W        W 6474   6.233   6.646   3.212 -0.4442  0.0147 -0.0197
 2275W        W 6475  10.164   7.758   1.403 -0.1613  0.0470  0.0418
 2276W        W 6476  10.066   5.556   2.796  0.3597 -0.0283 -0.0017
 2277W        W 6477   4.766   8.895  12.220 -0.0376  0.3332 -0.3218
 2278W        W 6478  10.330   6.415  12.727 -0.0552 -0.1801  0.1083
 2279W        W 6479   0.516   8.701   0.721  0.2937  0.1653  0.0509
 2280W        W 6480   1.854   5.387  13.025 -0.1724 -0.3222 -0.0150
 2281W        W 6481   0.691   7.446   0.025 -0.0760  0.0067 -0.3353
 2282W        W 6482   4.254   3.620  11.229 -0.0600 -0.1062  0.1104
 2283W        W 6483   2.760   0.374   0.973  0.2041 -0.2794 -0.0912
 2284W        W 6484   6.372   0.700  11.770 -0.1293 -0.0247 -0.1211
 2285W        W 6485   3.794   8.453   2.158 -0.0429 -0.3044 -0.0743
 2286W        W 6486   7.741   3.279  11.990 -0.1853 -0.0798  0.0459
 2287W        W 6487   7.666   0.904   0.947  0.1652  0.0908 -0.0885
 2288W        W 6488   3.518   3.689   0.875  0.4578  0.0851  0.1327
 2289W        W 6489   8.972   5.575   3.653  0.1113 -0.2071  0.0020
 2290W        W 6490   8.000   9.080   0.626  0.2299 -0.3313 -0.0076
 2291W        W 6491   0.652   3.931   9.241 -0.2522  0.0422  0.0913
 2292W        W 6492   3.502   2.108  10.705  0.1649 -0.0526  0.2763
 2293W        W 6493   5.314   6.855   2.546 -0.0856  0.0045  0.2673
 2294W        W 6494   3.869   4.962   2.363  0.0105 -0.1796  0.0048
 2295W        W 6495   8.406   4.801  12.170  0.0870  0.0996  0.3335
 2296W        W 6496   4.121   6.521   4.774 -0.1762  0.1595  0.0480
 2297W        W 6497   6.102   8.650   5.198  0.0133  0.1352  0.0747
 2298W        W 6498   3.337   7.452   2.289 -0.3420 -0.0319  0.0407
 2299W        W 6499   6.552   3.532   2.055  0.1387  0.0143  0.0470
 2300W        W 6500   9.230   2.653   3.909  0.1412 -0.0280 -0.1760
 2301W        W 6501   5.777   6.648  12.734 -0.1725  0.0599 -0.0887
 2302W        W 6502   4.281   6.326   0.111  0.1577  0.2465 -0.0189
 2303W        W 6503   5.446   6.753   1.733  0.1281  0.1790  0.0707
 2304W        W 6504   5.938   3.107   3.268  0.0930  0.2230  0.1126
 2305W        W 6505   8.906   4.074   4.708  0.1662 -0.0340 -0.0049
 2306W        W 6506   3.779   3.744  13.376  0.0087  0.3136 -0.1138
 2307W        W 6507   3.291   1.590  10.699 -0.1359 -0.1271  0.1641
 2308W        W 6508   8.833   4.994  12.607  0.0066 -0.1167  0.1710
 2309W        W 6509   6.964   0.647  11.262 -0.0060 -0.1543  0.2197
 2310W        W 6510   2.552   8.638  12.311 -0.0002  0.0827 -0.2057
 2311W        W 6511   0.515   3.811   9.831 -0.1087 -0.1337  0.0182
 2312W        W 6512   8.098   7.495   8.866 -0.0521  0.0695 -0.3859
 2313W        W 6513   1.615   7.628   2.390  0.1579 -0.2684  0.0199
 2314W        W 6514   1.242   4.913  13.081 -0.0949  0.0206  0.0929
 2315W        W 6515   5.995   7.401  13.233 -0.0359  0.2450  0.2112
 2316W        W 6516   0.555   1.547   1.061  0.0108  0.0565 -0.2623
 2317W        W 6517   5.861   5.978  12.212  0.2161  0.2676  0.1403
 2318W        W 6518   0.332   9.277   0.019  0.1714  0.2513 -0.1803
 2319W        W 6519   3.708   6.582  12.941  0.1029 -0.0796 -0.1122
 2320W        W 6520   9.868  10.195   0.998 -0.2608  0.2534  0.1737
 2321W        W 6521   4.919  10.143  10.634  0.2166  0.0727  0.1291
 2322W        W 6522   8.015   4.317   9.588  0.1686  0.2778  0.0866
 2323W        W 6523   3.267   9.797   2.603 -0.2174 -0.0105 -0.2478
 2324W        W 6524   9.892   7.785   2.813 -0.1059  0.0662 -0.0155
 2325W        W 6525   1.610   0.673  10.861 -0.0247  0.2269 -0.1680
 2326W        W 6526   8.453   4.167   1.791 -0.4712 -0.1655  0.2120
 2327W        W 6527   7.052   1.463  11.187  0.0099 -0.2007  0.2017
 2328W        W 6528   2.824   2.207  11.565  0.1365  0.2156 -0.1393
 2329W        W 6529   4.166   6.720   0.621  0.1559 -0.1076 -0.0096
 2330W        W 6530   6.029   3.444   9.811  0.2060 -0.2354 -0.2549
 2331W        W 6531   4.124   4.558  10.297  0.0284 -0.1271 -0.0735
 2332W        W 6532   5.952   3.322  13.019  0.0347  0.3230 -0.1775
 2333W        W 6533   2.880   1.684  10.297 -0.1336 -0.1032  0.1878
 2334W        W 6534   0.460   2.059  10.497  0.1179 -0.1713 -0.2786
 2335W        W 6535   1.403   2.642   9.608 -0.0123 -0.2355  0.1936
 2336W        W 6536   0.950   7.881   0.288 -0.1736 -0.1956  0.1164
 2337W        W 6537   8.460   4.764  12.991 -0.2788 -0.3088 -0.0546
 2338W        W 6538   3.571   3.303   3.490 -0.2690  0.0785 -0.1696
 2339W        W 6539   7.423   5.586  12.735  0.0226 -0.1315  0.0161
 2340W        W 6540   6.660  10.391  10.073 -0.2720  0.3142 -0.1907
 2341W        W 6541   7.932   5.072   0.854  0.2699 -0.0031 -0.0621
 2342W        W 6542   1.876   7.956  11.789  0.0248  0.0422  0.1680
 2343W        W 6543   6.047   7.620  12.291  0.0704  0.0405  0.2071
 2344W        W 6544   5.696   8.434   1.312  0.4872 -0.4193 -0.0478
 2345W        W 6545   4.259   4.465   2.797  0.1373  0.0879  0.2188
 2346W        W 6546   3.983   0.986  12.828 -0.1539  0.1312 -0.2370
 2347W        W 6547   3.821  10.069   3.858  0.3324  0.0467  0.0909
 2348W        W 6548   7.008   3.182   9.598  0.3057  0.2184 -0.1610
 2349W        W 6549   6.304   7.865   1.089  0.3590  0.0511  0.0598
 2350W        W 6550   6.220   8.968  11.998 -0.0911 -0.1367  0.2656
 2351W        W 6551   1.765  10.278   4.167 -0.0626  0.1241  0.0984
 2352W        W 6552   7.360   1.235   8.792  0.0319 -0.2678 -0.1690
 2353W        W 6553   9.164   7.054   3.734 -0.1991 -0.1941 -0.0530
 2354W        W 6554   8.899   0.872  10.069  0.1113  0.1837  0.1504
 2355W        W 6555   4.243   7.056   3.204  0.0002 -0.0125 -0.1606
 2356W        W 6556   3.896   0.473   0.483  0.2184  0.0205  0.0872
 2357W        W 6557   9.491   0.825   3.309 -0.3045  0.2225  0.0462
 2358W        W 6558   7.658   2.815   3.990  0.0179 -0.1574  0.0322
 2359W        W 6559   1.025   5.460  13.035  0.1545  0.0985  0.1774
 2360W        W 6560   0.420   4.643  10.828  0.1371 -0.1330  0.3171
 2361W        W 6561   8.248   7.008   1.973  0.1418 -0.1987 -0.0567
 2362W        W 6562  10.305   7.052  12.249 -0.0892  0.3336  0.4051
 2363W        W 6563   9.242   7.661   0.675  0.1076  0.1860 -0.3021
 2364W        W 6564   6.664   7.011   0.229 -0.0590 -0.1662 -0.2457
 2365W        W 6565   8.789  10.439   4.404 -0.1787  0.1543  0.2638
 2366W        W 6566   9.378   5.069   9.301  0.1419 -0.1399 -0.4333
 2367W        W 6567   6.825  10.044  10.435 -0.2150  0.1166 -0.0986
 2368W        W 6568   7.357   8.654   4.535  0.0721  0.0597 -0.0963
 2369W        W 6569   9.737   3.837  11.360  0.1838  0.0106  0.0390
 2370W        W 6570   0.823   7.431  12.959  0.0250 -0.1025 -0.1550
 2371W        W 6571   4.197   4.673  12.280  0.4479 -0.0871  0.3726
 2372W        W 6572   0.660   0.491   3.706 -0.0656 -0.0975 -0.1281
 2373W        W 6573   7.076   6.238   4.652 -0.0774 -0.3371 -0.1512
 2374W        W 6574   2.934   9.746  10.920 -0.0355  0.3119  0.0322
 2375W        W 6575   6.659   9.129   2.541 -0.1291  0.0883 -0.2269
 2376W        W 6576   5.839   7.294   4.688 -0.1588 -0.0598  0.2068
 2377W        W 6577   6.760   7.624   1.055  0.4638 -0.3780 -0.1270
 2378W        W 6578   3.767   1.750   1.920  0.0065 -0.0940  0.1387
 2379W        W 6579   0.285   6.595  10.059  0.0194  0.0330 -0.0719
 2380W        W 6580   7.401   3.368   9.969 -0.1232  0.1302  0.1677
 2381W        W 6581   2.392   1.910  13.051  0.0721  0.0976 -0.1018
 2382W        W 6582   0.264   6.683   3.622  0.0708 -0.2245 -0.3684
 2383W        W 6583   3.842  10.295  11.342  0.1627  0.1252  0.1310
 2384W        W 6584   6.699   8.916   9.174  0.2705 -0.1410  0.1809
 2385W        W 6585   4.096   0.361   1.716 -0.1441  0.0435 -0.1518
 2386W        W 6586   2.411   9.943   2.705  0.2079 -0.1192  0.1810
 2387W        W 6587  10.135   5.238  13.146  0.2009  0.0950 -0.0095
 2388W        W 6588   2.068   0.266   0.108  0.2598 -0.0843  0.1366
 2389W        W 6589   4.306   2.658   2.977 -0.4728  0.3820 -0.0996
 2390W        W 6590   8.364   6.181   3.207 -0.1789  0.4555  0.0359
 2391W        W 6591   3.844   5.038   5.003 -0.3021  0.0638 -0.2664
 2392W        W 6592  10.404   8.565  12.226  0.0275 -0.2273 -0.2267
 2393W        W 6593   5.039   6.433  10.399  0.1934  0.1117 -0.0183
 2394W        W 6594  10.011   5.574  11.035 -0.1639 -0.0512  0.2166
 2395W        W 6595   1.044   9.937   9.790  0.2053  0.0832  0.1245
 2396W        W 6596   3.633   7.169   2.586  0.1389  0.0470  0.2776
 2397W        W 6597   1.090   5.850  12.049  0.1118 -0.1162 -0.1103
 2398W        W 6598   5.664   7.592   2.134 -0.1141  0.2326 -0.2784
 2399W        W 6599   7.089   0.045   9.702  0.0967  0.1058 -0.0444
 2400W        W 6600   3.963   7.013   4.399  0.2407  0.0679 -0.0232
 2401W        W 6601   6.302   7.165   4.836  0.0448  0.0558 -0.2611
 2402W        W 6602   6.573   8.023  12.024 -0.1774  0.1862 -0.2649
 2403W        W 6603   9.719   7.341   2.961  0.0800 -0.3288  0.0558
 2404W        W 6604   5.706   0.061  10.293  0.0570 -0.2980 -0.2326
 2405W        W 6605   9.341   6.333   2.667  0.0476  0.0479  0.2858
 2406W        W 6606  10.374   1.188   1.650 -0.0740  0.0190  0.0738
 2407W        W 6607   4.645   8.018   0.177 -0.0748 -0.0055  0.0646
 2408W        W 6608   4.989   0.677   3.430  0.1177 -0.1750  0.2240
 2409W        W 6609   0.694   1.509   1.969  0.1419  0.0705  0.2665
 2410W        W 6610   7.842   0.693   2.492 -0.0783  0.2348 -0.0122
 2411W        W 6611   2.926   0.033   2.957 -0.3535  0.1397  0.2258
 2412W        W 6612   6.998   5.263   1.454  0.0434 -0.1444 -0.1691
 2413W        W 6613   8.481   6.578   2.273 -0.0934  0.2207 -0.0333
 2414W        W 6614   5.240   6.621  12.114 -0.2292  0.2174  0.1078
 2415W        W 6615   9.496   7.304   1.078 -0.0889 -0.0179  0.0292
 2416W        W 6616   5.272   7.043  10.385  0.0953  0.2037 -0.1476
 2417W        W 6617  10.370   5.469   5.163 -0.0224  0.1387 -0.2786
 2418W        W 6618   6.870   1.370  10.180 -0.1097  0.2267  0.4320
 2419W        W 6619   9.940   9.379   2.123 -0.0084 -0.0819  0.0951
 2420W        W 6620   9.493   5.774   3.583  0.2423 -0.1352 -0.2822
 2421W        W 6621   6.027   0.556   0.978 -0.0225 -0.1278  0.2833
 2422W        W 6622   4.009   7.603  12.307 -0.2258 -0.0188  0.0010
 2423W        W 6623   0.679   2.160  12.862  0.0974 -0.1443 -0.1021
 2424W        W 6624   7.550   6.779   8.422 -0.2934  0.0587  0.1559
 2425W        W 6625   9.557   8.105  13.513 -0.2318 -0.1901 -0.1334
 2426W        W 6626   5.249   4.004   9.994  0.1070  0.0998 -0.0892
 2427W        W 6627   8.244  10.276   3.509  0.2219  0.0202 -0.1128
 2428W        W 6628   0.977  10.185   1.659  0.0912 -0.1598  0.2578
 2429W        W 6629   7.845   5.236   8.662  0.1088  0.2431  0.0757
 2430W        W 6630   2.399   6.442   2.195 -0.1382 -0.1214 -0.0410
 2431W        W 6631   8.420   2.532  12.935 -0.3557 -0.4524 -0.0550
 2432W        W 6632   5.441   8.342   9.673  0.0423  0.2281  0.0333
 2433W        W 6633   6.721   1.942   4.230  0.0462  0.0173  0.2946
 2434W        W 6634   6.088   9.660   2.242 -0.0323 -0.0229 -0.3400
 2435W        W 6635   8.405   3.085   1.368 -0.1300  0.2001 -0.1175
 2436W        W 6636   7.301   5.484  13.246 -0.2815  0.1989 -0.0549
 2437W        W 6637   3.925   9.668   3.580  0.0781 -0.3271 -0.0555
 2438W        W 6638   0.264   4.178   1.985  0.1566  0.0462  0.1976
 2439W        W 6639   6.823   0.491  10.378 -0.2858  0.3519  0.0729
 2440W        W 6640   6.777   6.264  12.912 -0.0758 -0.2665 -0.1024
 2441W        W 6641   0.856   4.173   0.851  0.0136 -0.0646  0.0359
 2442W        W 6642   8.386   5.068   1.107 -0.2483  0.2015  0.0136
 2443W        W 6643   7.305   9.017   3.667 -0.3831 -0.0440 -0.1001
 2444W        W 6644   6.730   2.214  11.255 -0.0333  0.1328 -0.5201
 2445W        W 6645   9.962   9.389  12.555  0.1666 -0.0941 -0.2615
 2446W        W 6646   5.441   4.003   0.310 -0.0829 -0.0961 -0.0980
 2447W        W 6647   5.466   8.463   2.190 -0.0364 -0.0337  0.2902
 2448W        W 6648   5.874   5.109  11.218  0.0250  0.1035  0.0399
 2449W        W 6649   0.538   4.191   1.214  0.0534  0.0958 -0.2859
 2450W        W 6650   5.709   5.083   3.714  0.0704  0.2363 -0.1694
 2451W        W 6651   0.332   7.958  13.225  0.3132  0.0345  0.2284
 2452W        W 6652   2.117   5.743   2.896  0.1483  0.0219  0.0439
 2453W        W 6653   9.032   1.903  13.035  0.2194  0.1234  0.1271
 2454W        W 6654   8.098   4.997  13.288 -0.0426  0.1803 -0.3233
 2455W        W 6655   9.326   0.155   3.587 -0.2859  0.1145 -0.1998
 2456W        W 6656  10.135   1.312   3.952  0.2627 -0.1775  0.4844
 2457W        W 6657   5.199   0.875   9.936  0.1096 -0.0571  0.0658
 2458W        W 6658   7.392   1.517  10.070  0.3107  0.1453  0.1558
 2459W        W 6659   7.479  10.073   3.340 -0.3520 -0.2372  0.0310
 2460W        W 6660   6.297   3.723   2.781 -0.0894 -0.0011 -0.1043
 2461W        W 6661   2.405   6.019   3.262 -0.2266  0.0624  0.2392
 2462W        W 6662  10.188   9.851  12.450 -0.1043  0.3098  0.4080
 2463W        W 6663   1.821   4.333   2.477  0.1194 -0.0464 -0.1157
 2464W        W 6664   0.718   6.973  12.791 -0.1896  0.0382 -0.2142
 2465W        W 6665   0.311   9.278   3.135  0.2898  0.0881 -0.0436
 2466W        W 6666   3.583   7.414   1.256  0.4113  0.0112  0.0369
 2467W        W 6667   2.226   0.437   9.848 -0.0403  0.2078  0.1406
 2468W        W 6668   4.606   1.935  12.989  0.0251  0.0260  0.0403
 2469W        W 6669   5.313   6.813  10.862  0.1083 -0.3404 -0.0713
 2470W        W 6670  10.023   5.136   4.709  0.1668  0.1645 -0.0740
 2471W        W 6671   5.706   5.805   3.348  0.2379 -0.0676  0.2556
 2472W        W 6672   1.379   4.309  12.398  0.2251 -0.1129 -0.1566
 2473W        W 6673   1.664   3.377  11.192  0.2765 -0.3647 -0.0847
 2474W        W 6674   7.262   0.471  11.616 -0.4384  0.2281 -0.2456
 2475W        W 6675   3.645   6.761  11.932  0.3294  0.3891  0.0066
 2476W        W 6676   4.129   5.885   0.977 -0.1312  0.1736 -0.0927
 2477W        W 6677   0.693   6.445   3.839  0.0581  0.0900 -0.0834
 2478W        W 6678   4.751   9.410   2.252  0.1906 -0.1046 -0.2502
 2479W        W 6679   2.672   4.735  12.098  0.3076  0.0502  0.0737
 2480W        W 6680   6.212   7.376  10.634  0.2985  0.1292 -0.0945
 2481W        W 6681   5.068   8.300  11.025 -0.1302 -0.1593  0.1423
 2482W        W 6682   2.029   4.254  10.208  0.4050  0.1401  0.2192
 2483W        W 6683  10.140   7.791   3.942 -0.2030  0.0794 -0.3963
 2484W        W 6684   3.494   3.769   3.693 -0.0787 -0.2784 -0.0045
 2485W        W 6685  10.236   0.837   0.199  0.1851 -0.3773 -0.3015
 2486W        W 6686   7.287   4.895  11.472 -0.1695  0.0310  0.1148
 2487W        W 6687   1.065   5.115  10.991  0.2428  0.0578  0.3578
 2488W        W 6688   2.901   8.118   2.565  0.1139 -0.3376 -0.1999
 2489W        W 6689   4.329   9.845   3.375  0.0585 -0.2246  0.1097
 2490W        W 6690   2.469   4.302   1.852 -0.0807  0.1920 -0.3845
 2491W        W 6691   4.961   8.722  13.044 -0.2475  0.4969 -0.1748
 2492W        W 6692   0.421   5.579  10.915 -0.1635  0.1376 -0.1318
 2493W        W 6693   8.590   1.392   4.368 -0.3490 -0.0494 -0.1928
 2494W        W 6694   3.262   2.331   5.402 -0.0103 -0.0900  0.0879
 2495W        W 6695   4.088   6.017  11.860  0.1165 -0.1321  0.1880
 2496W        W 6696   4.747   5.687   9.761  0.0546  0.1744 -0.1796
 2497W        W 6697   9.772   6.707  12.051  0.1054 -0.2309  0.3012
 2498W        W 6698   2.638   9.223   0.709 -0.1326  0.2923  0.3021
 2499W        W 6699   3.164   5.167   9.742  0.1130  0.0779  0.3430
 2500W        W 6700   0.604   5.470  13.304 -0.0571 -0.4209 -0.2197
 2501W        W 6701   2.062   2.885   4.052  0.1753  0.0306 -0.0148
 2502W        W 6702   4.706   6.775  11.971  0.1155  0.1322 -0.0468
 2503W        W 6703   3.281   8.327   2.253  0.2425 -0.1559 -0.0858
 2504W        W 6704   9.585   2.739   1.080  0.2896 -0.1823 -0.0697
 2505W        W 6705   4.241   6.456   2.604  0.2090 -0.1142  0.1175
 2506W        W 6706   5.074   0.493   9.566  0.2659  0.0939 -0.1118
 2507W        W 6707   6.480   5.501   1.272  0.1530 -0.2089  0.2395
 2508W        W 6708   9.015   0.442   4.458  0.1267  0.0786  0.0408
 2509W        W 6709   9.589   9.236   9.879  0.1678 -0.0759 -0.3093
 2510W        W 6710   7.115   4.939   3.511  0.1015  0.0273 -0.1106
 2511W        W 6711   9.837   6.394   9.757  0.0385 -0.1488 -0.0505
 2512W        W 6712   7.048   2.522   3.310 -0.0146  0.2227  0.3475
 2513W        W 6713   9.909   0.639   0.572  0.1918 -0.1810  0.0054
 2514W        W 6714   1.393   4.552   8.781 -0.4596 -0.4885  0.0268
 2515W        W 6715   4.078   1.843   9.303 -0.0453  0.0567  0.2783
 2516W        W 6716   0.034   1.745  12.889 -0.1576 -0.2660  0.0725
 2517W        W 6717   5.919   8.397   8.945 -0.4321 -0.1274  0.1735
 2518W        W 6718   1.932   1.168  10.863 -0.1421  0.1505  0.1280
 2519W        W 6719   6.705   4.671   2.274 -0.2251 -0.0275 -0.0689
 2520W        W 6720   3.781   5.242   1.441  0.2316  0.0347  0.1723
 2521W        W 6721   2.048   5.966  11.606 -0.1954  0.0282 -0.0569
 2522W        W 6722   2.419   8.057  11.723 -0.0481 -0.2976 -0.0916
 2523W        W 6723   5.329   4.879   3.369 -0.1714  0.1653 -0.2390
 2524W        W 6724   1.864   1.896  11.754 -0.1342  0.1917  0.3332
 2525W        W 6725   2.608   1.790   2.360  0.0627 -0.2726  0.0423
 2526W        W 6726   9.010   4.354   0.850 -0.0852  0.2512  0.0856
 2527W        W 6727   5.239   1.030  10.770 -0.1764  0.1449 -0.0141
 2528W        W 6728   1.037   3.870   9.727  0.0057  0.0247  0.0713
 2529W        W 6729   0.233   6.830  12.573  0.1350  0.3155 -0.1941
 2530W        W 6730   6.598   7.398  12.823 -0.1906  0.4555 -0.1227
 2531W        W 6731   1.371   5.477   1.057 -0.1367 -0.0655 -0.0525
 2532W        W 6732   5.340  10.411   1.603  0.1842  0.2124 -0.1245
 2533W        W 6733   4.975   2.218   9.317 -0.3104  0.1233  0.2816
 2534W        W 6734   8.946   3.201   0.026 -0.2292 -0.1105 -0.0183
 2535W        W 6735   5.143   6.184   2.283 -0.1026 -0.2155 -0.0762
 2536W        W 6736   2.362   2.684   9.780  0.0925 -0.3539 -0.1754
 2537W        W 6737   0.285   9.726   3.020  0.0175 -0.2812 -0.0437
 2538W        W 6738   5.822   6.598  10.826  0.0324 -0.1603  0.1379
 2539W        W 6739   2.398   0.387   2.017  0.3688 -0.3214 -0.0524
 2540W        W 6740   7.667   2.814   4.706 -0.1911  0.3496  0.1899
 2541W        W 6741   8.453   6.889   1.040  0.0350  0.0529  0.0271
 2542W        W 6742   2.634   9.564  11.753  0.0506  0.0045  0.0176
 2543W        W 6743   7.833   3.036  12.496 -0.0657  0.0431 -0.0706
 2544W        W 6744   6.480   2.355   3.896  0.0078  0.0339 -0.1227
 2545W        W 6745   0.647   0.541  11.203  0.0074 -0.1669  0.0546
 2546W        W 6746   5.785   5.560  12.976 -0.3639  0.0732  0.0534
 2547W        W 6747   3.354   7.562   9.631 -0.0864 -0.0449  0.1517
 2548W        W 6748   2.998   6.382   9.393  0.3524  0.1134  0.1847
 2549W        W 6749   6.016   5.750   3.757 -0.1463 -0.3660  0.3914
 2550W        W 6750   5.514   6.861   3.345 -0.1281  0.0793  0.0486
 2551W        W 6751   5.621   5.705   0.388  0.0905  0.0646 -0.0666
 2552W        W 6752   6.347   2.784   3.013  0.2934 -0.0180  0.2762
 2553W        W 6753   8.957   2.398   9.709  0.1541 -0.3535 -0.0232
 2554W        W 6754   0.052   0.161   3.190  0.1944 -0.3555  0.1335
 2555W        W 6755   9.435   1.629  12.772 -0.1187 -0.0848 -0.0702
 2556W        W 6756   3.841  10.197   2.437  0.0793 -0.2817  0.2293
 2557W        W 6757   4.342   9.582   1.721 -0.1332 -0.2535  0.2265
 2558W        W 6758   3.248   4.522   1.487  0.0171  0.2608 -0.1672
 2559W        W 6759   5.994   2.932   4.158 -0.1470  0.1220 -0.0882
 2560W        W 6760   8.333   1.237  10.637 -0.2326 -0.2209  0.1295
 2561W        W 6761   3.062   9.894  10.350  0.0766 -0.2532 -0.2838
 2562W        W 6762   3.004   0.229   0.585 -0.0618  0.1293 -0.3046
 2563W        W 6763  10.276   2.131   1.829  0.1234 -0.0451  0.1138
 2564W        W 6764   5.393   3.795   2.356  0.1667 -0.0210 -0.2047
 2565W        W 6765   4.568   5.122   1.354  0.2329 -0.0305 -0.0025
 2566W        W 6766   1.014   1.269   3.698  0.1301 -0.0037  0.1207
 2567W        W 6767   7.232   3.974   5.487  0.0698 -0.0156 -0.0552
 2568W        W 6768   1.679   5.010   3.434 -0.2732 -0.5062  0.1744
 2569W        W 6769   8.826   3.423   9.216  0.1972 -0.1286  0.0846
 2570W        W 6770   4.693   8.872   9.270  0.1238  0.0148  0.1414
 2571W        W 6771   3.833  10.257  11.833 -0.2985  0.0200  0.1346
 2572W        W 6772   0.687   4.992   4.950  0.1015  0.0256 -0.0118
 2573W        W 6773   0.419  10.091  11.659 -0.1260 -0.1272 -0.2652
 2574W        W 6774   4.954   5.749   3.116  0.1267 -0.2278  0.3459
 2575W        W 6775   2.730   8.030   4.137 -0.0011 -0.1714 -0.2774
 2576W        W 6776   8.829   8.960   1.754 -0.0907 -0.1802 -0.0813
 2577W        W 6777   0.499  10.438  13.118 -0.2099  0.0984 -0.1662
 2578W        W 6778   9.755   2.537   4.535  0.1949  0.1646  0.1476
 2579W        W 6779   7.574   0.422   9.915  0.0602 -0.1727  0.0883
 2580W        W 6780   8.031   2.353  10.238 -0.0610  0.0876 -0.5325
 2581W        W 6781   5.985   6.564  10.351 -0.0899 -0.1951 -0.0776
 2582W        W 6782  10.400   5.405   1.829 -0.1979 -0.0604 -0.1305
 2583W        W 6783   1.741   1.105   2.273 -0.5124  0.3139  0.1114
 2584W        W 6784   9.611   5.299   3.340  0.0017  0.4433 -0.2648
 2585W        W 6785   4.715   2.623   0.495  0.0942 -0.0060  0.1898
 2586W        W 6786  10.318   9.462   4.265  0.0112  0.0650 -0.2121
 2587W        W 6787   2.348   6.542  10.624 -0.4347  0.3947  0.0456
 2588W        W 6788   1.017   2.190   4.473  0.0657  0.0733  0.3034
 2589W        W 6789   1.030   0.525   0.509 -0.0830 -0.0294 -0.3009
 2590W        W 6790   6.720   0.476  13.363  0.2434 -0.1584 -0.2338
 2591W        W 6791  10.082   2.527   1.568 -0.0470 -0.0894 -0.1656
 2592W        W 6792   7.631   5.307   2.213  0.0011 -0.1502 -0.0841
 2593W        W 6793   7.963   5.109   4.874  0.1039 -0.2673  0.1584
 2594W        W 6794   8.859   8.212  11.440 -0.2114 -0.0946  0.2363
 2595W        W 6795   9.216   4.819   5.432 -0.1461 -0.3140  0.0697
 2596W        W 6796   1.504  10.263   1.521 -0.2147 -0.0977  0.0447
 2597W        W 6797   5.360   9.781   0.884 -0.0457  0.3118 -0.2123
 2598W        W 6798   9.068   3.399  10.017  0.2263 -0.2837 -0.1352
 2599W        W 6799   9.403  10.155  10.839 -0.1618 -0.1445  0.0749
 2600W        W 6800   8.651  10.161  13.259  0.0995  0.3128  0.0728
 2601W        W 6801  10.435   9.309   1.867 -0.1892 -0.0181 -0.0639
 2602W        W 6802   5.569   8.892  13.394 -0.1202  0.2494 -0.2175
 2603W        W 6803   1.893   2.068   2.968  0.2061 -0.1164  0.0036
 2604W        W 6804   1.130   0.920  10.573  0.2986 -0.0305 -0.2416
 2605W        W 6805   6.686   3.695   1.605 -0.0081 -0.5263 -0.1994
 2606W        W 6806   6.813   7.385   8.832 -0.0538  0.1912  0.3968
 2607W        W 6807   0.734   9.773   0.142 -0.1586  0.0059 -0.2180
 2608W        W 6808   1.051   7.051   4.411  0.0473 -0.0401 -0.2478
 2609W        W 6809   5.963   4.607   1.988  0.1669 -0.1231  0.0568
 2610W        W 6810   1.798   2.776   0.161 -0.0534 -0.0158  0.3163
 2611W        W 6811   3.966  10.004   1.070  0.1157  0.0895 -0.2035
 2612W        W 6812   1.370   2.374  12.550  0.3549  0.2488  0.1024
 2613W        W 6813   3.232   2.097   9.417  0.0327  0.0049  0.0541
 2614W        W 6814   9.605   5.055   1.273 -0.0429 -0.2125  0.0411
 2615W        W 6815   2.611   7.202   3.171  0.1306  0.3706 -0.0864
 2616W        W 6816   1.492   6.740   4.119  0.0108 -0.0043 -0.0940
 2617W        W 6817   2.182   6.272   1.697  0.0558 -0.1930 -0.2029
 2618W        W 6818   1.666   8.027   2.005 -0.2149 -0.1172  0.0827
 2619W        W 6819  10.172   1.430   3.457 -0.1404  0.1581  0.0880
 2620W        W 6820   1.383   3.045  12.598 -0.0735  0.0015 -0.0270
 2621W        W 6821   8.381   5.921   1.074 -0.2369  0.2122 -0.1085
 2622W        W 6822   0.887   6.132  12.409  0.1963 -0.1197 -0.1030
 2623W        W 6823   9.293   9.192   4.252  0.0969  0.0135  0.2329
 2624W        W 6824   7.648   5.597   9.791  0.0660  0.0752  0.1294
 2625W        W 6825   6.328   2.455   5.317  0.1390 -0.1385  0.1157
 2626W        W 6826   5.254   2.786  10.107 -0.2590  0.2534 -0.0817
 2627W        W 6827   1.911   8.340  10.359 -0.0899 -0.2139  0.0241
 2628W        W 6828   2.997   0.718   0.213  0.0120  0.1553  0.0259
 2629W        W 6829   3.738  10.026   0.012 -0.5583 -0.1028  0.0696
 2630W        W 6830   8.774   3.183  10.777 -0.1182  0.0508 -0.0568
 2631W        W 6831   3.519   3.620   2.567 -0.1116 -0.0929 -0.2310
 2632W        W 6832   1.908   1.284   9.603 -0.0307  0.2914 -0.0613
 2633W        W 6833   2.552   5.334   3.504  0.0738 -0.0821  0.0208
 2634W        W 6834   9.763   5.914   0.258  0.0622  0.6401  0.1163
 2635W        W 6835   8.488   4.325   0.928  0.0933  0.1721  0.3071
 2636W        W 6836   8.773   4.734  11.165  0.0902  0.0316  0.0651
 2637W        W 6837   4.002   0.025   9.631  0.2270 -0.3230 -0.0581
 2638W        W 6838   9.017   6.949   4.192  0.3313  0.1108  0.2151
 2639W        W 6839   9.628   0.466   2.946 -0.1549  0.1703 -0.3157
 2640W        W 6840   7.711   2.244  11.539 -0.0370  0.3889  0.6473
 2641W        W 6841   9.373   5.873  11.896 -0.0364 -0.2650 -0.1288
 2642W        W 6842   2.542   0.342  11.882  0.1480  0.1314  0.1577
 2643W        W 6843   5.861   7.221  11.491  0.1699  0.1344  0.1812
 2644W        W 6844   7.771   0.026   3.275  0.2650  0.0041  0.5762
 2645W        W 6845   4.189   3.523  10.715 -0.3547  0.2446  0.0308
 2646W        W 6846   2.107   3.151  11.275 -0.0679  0.0348 -0.1741
 2647W        W 6847   3.352   4.270   4.028  0.0495 -0.0028  0.0467
 2648W        W 6848   7.795  10.033   4.424  0.2605  0.0873 -0.0014
 2649W        W 6849   3.581   2.410  10.268 -0.3320  0.2007  0.0933
 2650W        W 6850   5.084   4.426   3.026 -0.0693  0.0233 -0.0646
 2651W        W 6851   9.140   7.363   0.056 -0.1124  0.2989  0.1326
 2652W        W 6852   6.614   8.907   4.875 -0.0712  0.1647 -0.3937
 2653W        W 6853   1.673   9.962   1.199 -0.1252  0.1634 -0.0425
 2654W        W 6854   7.031   5.951   9.299 -0.0571 -0.1203 -0.0644
 2655W        W 6855   1.651   4.022   0.032  0.2102 -0.1204 -0.0613
 2656W        W 6856   0.857   3.728   3.424  0.0053  0.3182  0.0673
 2657W        W 6857   9.369   2.250  10.516 -0.4334 -0.1417 -0.0777
 2658W        W 6858   0.916   5.387   0.833  0.4722 -0.0522 -0.0477
 2659W        W 6859   9.857   2.419  11.967 -0.3135  0.0456 -0.0212
 2660W        W 6860   5.926   5.941   0.715  0.1014 -0.0362 -0.0905
 2661W        W 6861  10.379   3.211   4.615 -0.3122  0.1205  0.0444
 2662W        W 6862   5.430   0.539  12.036 -0.1833 -0.1378 -0.0145
 2663W        W 6863   3.057   4.678  11.218 -0.1052 -0.2754 -0.2106
 2664W        W 6864   7.476   0.274  12.503  0.0058  0.2309 -0.0228
 2665W        W 6865   6.161   3.330  11.014 -0.1266 -0.0884  0.0743
 2666W        W 6866   6.675   3.330  12.532 -0.2213  0.0367 -0.0721
 2667W        W 6867   2.313   0.771   1.182 -0.0544 -0.2195  0.0532
 2668W        W 6868   3.163   6.914   1.582  0.2942  0.0910 -0.0913
 2669W        W 6869   8.301   1.223   1.173 -0.0311 -0.1588  0.0279
 2670W        W 6870   0.464   4.174  10.580 -0.1088 -0.3146 -0.0657
 2671W        W 6871   4.653   0.355   0.146  0.0925  0.1705  0.0047
 2672W        W 6872   7.338   2.391   3.987  0.1833 -0.1460 -0.1092
 2673W        W 6873   2.763   7.930  12.078 -0.1185 -0.0649 -0.1794
 2674W        W 6874   0.691   4.102   5.201 -0.0864 -0.2137 -0.2196
 2675W        W 6875   4.293   3.006   1.332 -0.1877  0.1719 -0.0305
 2676W        W 6876   5.647   3.351   0.876  0.0656  0.1956  0.3679
 2677W        W 6877   8.890   2.847   9.388 -0.1258 -0.0105  0.0754
 2678W        W 6878   4.189  10.348   3.589  0.5020  0.1603 -0.1346
 2679W        W 6879   0.007   0.578   9.153  0.1989  0.1324 -0.0659
 2680W        W 6880   0.582   6.402  10.484  0.1061  0.0668 -0.3303
 2681W        W 6881   0.752  10.221  10.510  0.0472 -0.0437  0.1794
 2682W        W 6882   6.011   7.532  11.079  0.1455  0.0167 -0.2745
 2683W        W 6883   1.803   3.469   9.461 -0.0096 -0.4889 -0.0676
 2684W        W 6884   2.675   1.849  11.245  0.0677 -0.0233 -0.0523
 2685W        W 6885   8.266   0.800  10.861  0.0820  0.0963  0.0246
 2686W        W 6886   4.032   6.110  13.276  0.0303 -0.1789 -0.0598
 2687W        W 6887   3.585   0.206   2.492  0.1589  0.1110  0.0280
 2688W        W 6888   5.204   9.333  10.700 -0.0532 -0.0038 -0.0339
 2689W        W 6889   1.465   5.907   1.355  0.0898  0.2386  0.1972
 2690W        W 6890   1.061   3.105  13.045  0.0350  0.2085 -0.4058
 2691W        W 6891   0.872   8.106   1.187  0.3814 -0.2004  0.2022
 2692W        W 6892   3.053   1.146  10.895 -0.0470 -0.0997 -0.1111
 2693W        W 6893   8.297   1.029  11.828  0.0987  0.0707  0.0605
 2694W        W 6894   7.766   3.717   2.212 -0.3263  0.1955 -0.2727
 2695W        W 6895   8.123   8.637  11.534  0.0263 -0.1453  0.2866
 2696W        W 6896   5.602   2.807   1.411  0.0496  0.0374 -0.0577
 2697W        W 6897   2.651   8.365   1.102 -0.0060 -0.0150 -0.0508
 2698W        W 6898   5.490   7.442   4.191 -0.0681  0.2917  0.0671
 2699W        W 6899   9.381   6.477  11.634 -0.3372  0.1273 -0.2320
 2700W        W 6900   0.184   2.175   1.466  0.1500  0.2273 -0.3941
 2701W        W 6901   7.642   6.763   2.619 -0.0999  0.2420 -0.1508
 2702W        W 6902   5.605   2.856   0.778  0.0121  0.0094 -0.3342
 2703W        W 6903   9.699   3.339  12.643  0.1626 -0.0537  0.0937
 2704W        W 6904   7.558   3.020  10.760  0.0471 -0.1020 -0.0630
 2705W        W 6905   4.005   7.007   1.037  0.3382  0.1544  0.0128
 2706W        W 6906   3.631   1.193  11.542  0.2720 -0.0533 -0.0498
 2707W        W 6907   2.712   0.492  12.423 -0.4551  0.0434  0.1997
 2708W        W 6908   6.139   4.167   0.956 -0.2576 -0.2363 -0.0720
 2709W        W 6909   7.631   7.860   4.701 -0.2612 -0.0050  0.0788
 2710W        W 6910   9.173   9.822  12.552 -0.1501  0.0946  0.0983
 2711W        W 6911   9.923   4.727   2.128 -0.2032 -0.0492  0.0511
 2712W        W 6912   2.841   2.751   3.692  0.0928 -0.0932  0.4225
 2713W        W 6913   7.037   6.283   0.369 -0.2390 -0.1000  0.2334
 2714W        W 6914   7.822   2.225   3.318 -0.0653  0.0799  0.0416
 2715W        W 6915   8.363   5.658   4.166 -0.0645  0.2868  0.2966
 2716W        W 6916   8.042   8.902  13.214 -0.1964  0.1031 -0.0510
 2717W        W 6917   9.377   5.001   2.918  0.0738  0.0320 -0.1786
 2718W        W 6918   5.486   8.206  12.759  0.0223  0.1011 -0.4146
 2719W        W 6919   8.080   5.366   3.800  0.1024 -0.3043 -0.4431
 2720W        W 6920   6.259   8.338   8.602 -0.2332  0.1325  0.1034
 2721W        W 6921   3.061   2.382  11.956  0.1472 -0.0605 -0.0005
 2722W        W 6922   5.078   6.287   3.014 -0.1749  0.1882 -0.1917
 2723W        W 6923   3.725   0.401   9.930 -0.1927 -0.0403 -0.0333
 2724W        W 6924   9.298   7.456   1.657 -0.2971  0.2665  0.0378
 2725W        W 6925   4.791   6.621   1.353  0.0420  0.1072 -0.2043
 2726W        W 6926   0.235   7.482  11.271  0.2898  0.1998 -0.2406
 2727W        W 6927   8.209   2.744  13.347 -0.2079 -0.0930 -0.0832
 2728W        W 6928   8.043   8.394  10.159  0.0826 -0.0930  0.4372
 2729W        W 6929   8.675   2.023   8.663  0.2541 -0.1384  0.2220
 2730W        W 6930   9.992   2.155   0.221 -0.0991 -0.1939 -0.2072
 2731W        W 6931   6.384   1.647  11.859 -0.2269 -0.2281 -0.2155
 2732W        W 6932  10.115   3.705  12.204 -0.3613 -0.2129 -0.2632
 2733W        W 6933   7.032   0.805   2.809  0.0584  0.0427 -0.1144
 2734W        W 6934  10.001   3.711   1.511  0.3001  0.0002 -0.0445
 2735W        W 6935   7.105   0.529  10.756 -0.0893  0.1552 -0.1327
 2736W        W 6936   4.194   5.385   1.010 -0.3554 -0.3575  0.1782
 2737W        W 6937   3.186   5.538   2.795 -0.1845  0.1918 -0.2195
 2738W        W 6938   4.912   3.233  11.503 -0.1766  0.0687  0.0098
 2739W        W 6939   2.688   9.035   1.655  0.3661  0.1366  0.0670
 2740W        W 6940   9.249   5.756   2.578 -0.0875 -0.0867 -0.1197
 2741W        W 6941   5.068   0.431   0.547 -0.0125 -0.1463  0.2030
 2742W        W 6942   7.493   5.368  12.242 -0.1679  0.0706  0.3066
 2743W        W 6943   9.436   9.476   0.781 -0.0922 -0.0142 -0.3252
 2744W        W 6944   2.084  10.221  10.769  0.1101  0.0261 -0.0384
 2745W        W 6945   6.421   5.322   0.104 -0.0190  0.0224 -0.2196
 2746W        W 6946   4.357   1.526  10.966  0.0835  0.2913  0.1899
 2747W        W 6947   2.835   3.985   2.000  0.2174  0.3314 -0.2832
 2748W        W 6948   5.843   9.639  13.334  0.0856  0.0014  0.2594
 2749W        W 6949   5.270  10.221  11.624  0.1745  0.0886 -0.1558
 2750W        W 6950   7.490  10.337   4.192  0.2336 -0.1065  0.3502
 2751W        W 6951  10.287   0.438   3.595  0.0065 -0.1703  0.2305
 2752W        W 6952   3.830   9.677   1.729 -0.1445 -0.1884  0.3736
 2753W        W 6953   9.152   1.496   9.130 -0.0157 -0.0457  0.3228
 2754W        W 6954   1.142   7.063  11.625 -0.0060 -0.3042 -0.1438
 2755W        W 6955   4.529   1.615  12.166  0.0008  0.3288  0.0899
 2756W        W 6956   0.603   0.770   9.971  0.2620 -0.3253 -0.5300
 2757W        W 6957   6.935   6.691   4.457 -0.1424 -0.1724  0.0380
 2758W        W 6958   8.992   1.147   5.656 -0.0977  0.1230  0.2032
 2759W        W 6959   9.803   4.536  11.953 -0.1854  0.0379 -0.4046
 2760W        W 6960   2.084   2.225  12.064 -0.0179  0.1432  0.1890
 2761W        W 6961   8.757   2.320  10.803 -0.1222 -0.0224  0.0190
 2762W        W 6962   9.043   2.953  10.419  0.2741  0.3021 -0.0874
 2763W        W 6963   3.498   5.969   1.904 -0.1924 -0.1945  0.1752
 2764W        W 6964   1.093   1.035   0.346  0.1747  0.2329  0.1184
 2765W        W 6965   6.259   2.507  11.948  0.0765  0.2449  0.1289
 2766W        W 6966   3.582   6.778  10.705 -0.1515  0.0297 -0.1051
 2767W        W 6967   3.322   0.817   3.652  0.2443  0.1098 -0.1448
 2768W        W 6968   8.390   9.504  12.889 -0.1417  0.1000  0.2057
 2769W        W 6969   2.871   6.182   3.216  0.1725  0.0223 -0.2782
 2770W        W 6970  10.429   1.853  11.478  0.1281 -0.0989 -0.0357
 2771W        W 6971   8.595   7.875  11.918 -0.3539  0.0893  0.1513
 2772W        W 6972   9.559   5.764  12.838 -0.0195  0.5004  0.3391
 2773W        W 6973   0.167   4.417   5.506 -0.1506  0.1153 -0.3412
 2774W        W 6974   1.572   8.769   1.393 -0.1877  0.1375 -0.1332
 2775W        W 6975   4.254   9.038  10.839 -0.0484  0.0131  0.2411
 2776W        W 6976   4.544   4.438   4.764 -0.2371  0.1308 -0.0698
 2777W        W 6977   7.168   4.893   2.335  0.2704  0.0503 -0.1909
 2778W        W 6978   0.162   3.619  12.352  0.2498  0.0799  0.3546
 2779W        W 6979   7.028   9.476   3.525 -0.1530  0.2846  0.0846
 2780W        W 6980   6.447   6.472   1.713  0.1629  0.2383  0.3253
 2781W        W 6981   5.128   4.733   1.872  0.0703 -0.2722  0.3323
 2782W        W 6982   6.027   5.697  12.584  0.1589  0.1702 -0.5968
 2783W        W 6983   7.780   7.666   5.658 -0.3458 -0.1764  0.1998
 2784W        W 6984   9.973   3.956   4.035  0.0069 -0.1530  0.0766
 2785W        W 6985   6.307   5.272  11.381 -0.1279  0.3277 -0.1357
 2786W        W 6986   0.139   4.410   0.055 -0.1976 -0.2280  0.1035
 2787W        W 6987   2.566   1.778   9.837 -0.2228 -0.3920  0.0042
 2788W        W 6988   3.647   5.246  11.361  0.1581  0.0359  0.2648
 2789W        W 6989   5.307   2.880  11.464  0.0149 -0.2526  0.0704
 2790W        W 6990   7.680   1.734   4.242 -0.1719  0.1915 -0.0323
 2791W        W 6991   9.902   0.825  11.572 -0.2990  0.1364 -0.0412
 2792W        W 6992   1.336   7.072   1.357 -0.3647 -0.2332 -0.1961
 2793W        W 6993   9.307   1.181  12.044  0.2766  0.2777 -0.0862
 2794W        W 6994   6.166   7.287  11.893 -0.1152 -0.0509  0.1185
 2795W        W 6995   3.773   5.977   0.351 -0.0229 -0.0135  0.2661
 2796W        W 6996   9.272   9.886   0.428  0.1976 -0.0177  0.1513
 2797W        W 6997   3.491   0.626  10.674  0.1059  0.0537  0.0078
 2798W        W 6998   2.662   6.309   4.627 -0.0802  0.1036  0.1691
 2799W        W 6999   7.073   8.136  10.252 -0.3337 -0.2065 -0.0703
 2800W        W 7000   6.391   7.143  11.479 -0.0797 -0.0783  0.1839
 2801W        W 7001   9.688   6.489   4.854 -0.1262  0.2582  0.0150
 2802W        W 7002   1.536   0.945   9.738 -0.0520 -0.0914  0.0241
 2803W        W 7003   2.374   7.958  11.112  0.0133  0.0187 -0.0757
 2804W        W 7004  10.393   0.863   2.392  0.1911  0.1731 -0.1758
 2805W        W 7005   4.462   5.635   1.370 -0.1279  0.3016 -0.1057
 2806W        W 7006   9.982   5.570  12.752  0.2442 -0.0670 -0.0133
 2807W        W 7007   7.572   4.404   1.620 -0.0811  0.4178 -0.0583
 2808W        W 7008   8.175   5.997   4.495 -0.1403  0.0757 -0.1007
 2809W        W 7009   9.711   8.164  12.712 -0.0839  0.1800  0.2764
 2810W        W 7010   5.090   1.942  13.000  0.2005 -0.2003  0.0451
 2811W        W 7011   3.059   3.338   0.753  0.2116  0.0616  0.0188
 2812W        W 7012   2.005   9.478   9.545 -0.0344  0.2941 -0.1056
 2813W        W 7013   2.463   3.686  13.333 -0.0462  0.3002 -0.2676
 2814W        W 7014   7.037   6.432   3.188  0.0385  0.0852  0.0517
 2815W        W 7015   5.703   1.107   2.357 -0.2140  0.0503 -0.0746
 2816W        W 7016   1.923   0.636  10.502 -0.2808 -0.1519  0.0999
 2817W        W 7017   0.238   2.491  10.270  0.0803 -0.1181  0.1553
 2818W        W 7018   2.265  10.407  11.946 -0.0107  0.0561 -0.0794
 2819W        W 7019   3.569   3.826  10.018 -0.1953 -0.0414 -0.2740
 2820W        W 7020   9.991   8.904   0.252 -0.2416  0.1360 -0.1654
 2821W        W 7021   5.727   8.309  11.747  0.0728  0.1670 -0.0151
 2822W        W 7022   0.774   9.395  10.154 -0.1488 -0.0281 -0.0099
 2823W        W 7023   9.281   9.889  11.652 -0.0234 -0.2289 -0.1133
 2824W        W 7024   1.785   5.531  10.925  0.0527 -0.0867 -0.0277
 2825W        W 7025   1.567  10.132  10.881 -0.0167 -0.1619 -0.1091
 2826W        W 7026   5.686   3.692  10.201  0.1483 -0.0683 -0.1841
 2827W        W 7027   6.506   4.044  13.178 -0.2119 -0.0658 -0.1881
 2828W        W 7028   8.040   9.973  12.610 -0.0120  0.0300  0.0372
 2829W        W 7029   5.355   4.254   2.657 -0.1172 -0.2112 -0.0524
 2830W        W 7030   8.632   8.899   9.965  0.0807 -0.1828  0.2333
 2831W        W 7031   9.328   1.499  11.094 -0.2519 -0.1253  0.2101
 2832W        W 7032   8.470   3.175   0.010  0.1909  0.0988 -0.0406
 2833W        W 7033   5.956   3.907   2.266  0.2877 -0.0374 -0.1263
 2834W        W 7034   5.573   6.189   1.056  0.0700 -0.3985  0.3101
 2835W        W 7035   0.557   1.347   3.364 -0.0616  0.2281  0.3267
 2836W        W 7036   2.561   1.086  10.925 -0.1034 -0.0829 -0.2023
 2837W        W 7037   8.251   9.884  10.677 -0.2824 -0.0511 -0.1201
 2838W        W 7038   2.938   1.280   9.494 -0.0640  0.1993  0.2735
 2839W        W 7039   7.701   8.115  12.206  0.0382 -0.1509 -0.1468
 2840W        W 7040   6.508   3.366   9.659 -0.0977  0.0461  0.1608
 2841W        W 7041   8.093   4.482  13.293 -0.1148 -0.1352  0.1126
 2842W        W 7042   8.471   3.201   4.595 -0.0563  0.0500  0.3024
 2843W        W 7043   5.983   3.933   3.760 -0.0815 -0.1748 -0.0028
 2844W        W 7044   5.816   5.720  10.077 -0.2873 -0.0432  0.1366
 2845W        W 7045   5.761   2.768  11.732 -0.2024 -0.0953 -0.0229
 2846W        W 7046   0.738   0.454   9.625 -0.2376 -0.0398  0.2252
 2847W        W 7047   1.110   7.308   2.279  0.0268  0.0377  0.2940
 2848W        W 7048   5.452   1.086  11.413  0.0407 -0.2714 -0.3790
 2849W        W 7049   6.937   6.778   9.099  0.0379 -0.0775  0.1941
 2850W        W 7050   4.630   1.821   8.579  0.1553  0.0607  0.1945
 2851W        W 7051   9.734   6.797   1.396  0.4424 -0.1786  0.1443
 2852W        W 7052   9.484   6.086   2.216  0.2966  0.0445  0.0598
 2853W        W 7053   5.831   2.686   0.160 -0.1754 -0.1456  0.0334
 2854W        W 7054  10.053   5.551   0.077 -0.0739 -0.1462 -0.0800
 2855W        W 7055   4.822   2.233  12.713 -0.1039 -0.3259 -0.1369
 2856W        W 7056   1.258   4.500   1.022 -0.0101  0.1830  0.2889
 2857W        W 7057   6.764   9.261  12.090 -0.0401  0.1905  0.1842
 2858W        W 7058   1.507   4.926   0.897  0.1256  0.0029  0.2400
 2859W        W 7059   9.105   7.864  11.690  0.3062 -0.0362  0.1321
 2860W        W 7060   6.370   1.443  10.032  0.1812  0.2249  0.1203
 2861W        W 7061   2.713   4.761   2.673  0.0125 -0.3013 -0.2609
 2862W        W 7062  10.062   1.608   2.575  0.0995 -0.0897 -0.2228
 2863W        W 7063   6.395   2.483   4.339 -0.0304 -0.0975  0.2394
 2864W        W 7064   0.934   6.071  10.738  0.1796  0.1317  0.6640
 2865W        W 7065   6.764   6.328  13.394 -0.2385  0.1059 -0.1432
 2866W        W 7066   1.749   6.172   1.933 -0.1247 -0.1644  0.1241
 2867W        W 7067   6.292   0.723   8.830  0.0917 -0.0252  0.0091
 2868W        W 7068   2.167   4.711  12.951 -0.0999 -0.2482 -0.1770
 2869W        W 7069   1.025   5.842   0.633 -0.2269 -0.1771 -0.0739
 2870W        W 7070   4.872   1.664  12.541 -0.0626 -0.4429 -0.0929
 2871W        W 7071   7.262   1.974  11.320  0.3964  0.0606  0.0209
 2872W        W 7072   4.306   3.848   9.610  0.1153  0.2151  0.3837
 2873W        W 7073   9.114   5.520  12.885 -0.1045 -0.1043 -0.0597
 2874W        W 7074   4.220   5.410  11.581  0.0972 -0.1059  0.0229
 2875W        W 7075   7.698   4.701   9.740 -0.0143  0.0441  0.1331
 2876W        W 7076   9.969   5.609   1.969  0.0450 -0.2333  0.2720
 2877W        W 7077   5.752   7.879  11.441 -0.1216 -0.0916 -0.0278
 2878W        W 7078   5.471   3.927   9.487  0.0468 -0.1127 -0.2449
 2879W        W 7079   4.334   3.943  10.376 -0.2225  0.0545 -0.1038
 2880W        W 7080   4.560   1.556  10.478  0.1766 -0.0687  0.2417
 2881W        W 7081   5.906   8.735   0.990 -0.1681  0.3630  0.2815
 2882W        W 7082   3.116   1.001  11.403 -0.0719  0.1905 -0.1340
 2883W        W 7083   4.565   1.467  12.847 -0.0751 -0.1909  0.1837
 2884W        W 7084   8.832   3.018   4.853 -0.2730  0.0964 -0.2755
 2885W        W 7085   0.803   5.487   2.979 -0.1516 -0.0581 -0.2633
 2886W        W 7086   0.530   7.442   1.479 -0.0451 -0.1654 -0.0382
 2887W        W 7087   1.793   7.368   1.492  0.0268 -0.2009  0.1277
 2888W        W 7088   3.454   0.856   4.412  0.2272 -0.3700 -0.0423
 2889W        W 7089   4.007   2.089   8.449  0.0167 -0.3218 -0.1212
 2890W        W 7090   2.889   9.449  12.732 -0.0680 -0.1519  0.5453
 2891W        W 7091   0.468   8.304   2.688  0.3090  0.0350 -0.2328
 2892W        W 7092   8.479   2.870   1.938 -0.0660  0.0041 -0.0896
 2893W        W 7093   4.818   4.724  13.295 -0.1198 -0.3253 -0.2549
 2894W        W 7094   7.459  10.323   0.661 -0.2868 -0.0077  0.0447
 2895W        W 7095   0.614   3.419  12.139  0.1069 -0.2368 -0.1183
 2896W        W 7096   8.484   8.326   2.884 -0.0181  0.1517 -0.1795
 2897W        W 7097   0.955   2.919  11.600 -0.1285 -0.2880 -0.2918
 2898W        W 7098   8.771  10.432  11.198 -0.2282 -0.1666  0.2433
 2899W        W 7099   3.258   4.915   2.865 -0.3205  0.2413  0.1059
 2900W        W 7100   3.294   3.548  13.012  0.0298  0.2438  0.2548
 2901W        W 7101   6.403   8.842  11.162 -0.1005 -0.1253 -0.1551
 2902W        W 7102   2.965   0.236  13.316 -0.0004  0.0811 -0.1516
 2903W        W 7103   0.325   4.805   2.672  0.1860 -0.1154 -0.2903
 2904W        W 7104   0.893   9.307   0.203 -0.2898  0.1816 -0.0595
 2905W        W 7105   0.463   7.724   2.772 -0.2174 -0.2763 -0.0987
 2906W        W 7106   0.519   3.075   1.275  0.0862  0.0057 -0.2127
 2907W        W 7107   5.872   1.538  10.211  0.1684  0.0291  0.0688
 2908W        W 7108   3.446   9.179  12.150  0.2273 -0.1031 -0.1082
 2909W        W 7109   5.410   3.525   0.351  0.0956  0.2695 -0.1789
 2910W        W 7110   7.005   4.572  12.526  0.0409  0.2120 -0.2286
 2911W        W 7111   7.891   1.070  10.968 -0.1078  0.0752  0.4686
 2912W        W 7112   3.034   6.844   0.811  0.0785  0.0042 -0.1934
 2913W        W 7113   2.188   2.454   0.168 -0.1201  0.0253 -0.1341
 2914W        W 7114   0.904   5.610   4.374 -0.0545  0.2000  0.1154
 2915W        W 7115   7.558   3.789   2.987 -0.0551  0.2502 -0.1307
 2916W        W 7116   0.036   1.956   4.958 -0.0400  0.0940 -0.2553
 2917W        W 7117   0.065   2.757  11.003 -0.3153  0.1434 -0.1555
 2918W        W 7118   2.094   5.370   4.323 -0.0495 -0.0621 -0.3174
 2919W        W 7119   8.605   4.194   3.790 -0.1518 -0.2927  0.0268
 2920W        W 7120  10.285   6.945  10.754  0.0778  0.3238 -0.1640
 2921W        W 7121   7.308   0.989   3.320  0.1137 -0.2082  0.3156
 2922W        W 7122   4.943   4.922  12.553 -0.2616 -0.0180 -0.2514
 2923W        W 7123   8.081   2.523   9.616 -0.1095 -0.2468 -0.0434
 2924W        W 7124   6.722   3.108   0.572  0.2339  0.2465  0.0002
 2925W        W 7125   3.013   2.017   0.325 -0.3260  0.0843  0.3200
 2926W        W 7126   7.302   1.430  12.611 -0.0230  0.1928 -0.4079
 2927W        W 7127   1.258   0.736  11.416 -0.2514  0.0770  0.2134
 2928W        W 7128   2.099   2.320  10.997 -0.0601 -0.2817 -0.2131
 2929W        W 7129  10.389   4.833   1.858  0.1352  0.0559 -0.1929
 2930W        W 7130   9.672   9.237  12.988 -0.1260  0.0093 -0.1037
 2931W        W 7131   1.389   0.331   2.977  0.2158 -0.1595 -0.2369
 2932W        W 7132  10.317   0.910   0.777  0.0326  0.1692 -0.2179
 2933W        W 7133   5.010   4.257   4.741 -0.3761 -0.3476 -0.3165
 2934W        W 7134   1.206   0.042   0.689 -0.2508  0.1762 -0.1524
 2935W        W 7135   3.085   0.580   1.940  0.2719 -0.0125 -0.2924
 2936W        W 7136   7.011   0.733   0.206 -0.1866 -0.1070  0.1426
 2937W        W 7137   6.280   4.510   2.423  0.0024 -0.1453  0.3114
 2938W        W 7138   7.745   1.354   3.043 -0.3414 -0.0633  0.0169
 2939W        W 7139   0.495   5.971   1.988  0.1713 -0.1324  0.0765
 2940W        W 7140   9.586   4.848   0.355  0.3982  0.3148 -0.0094
 2941W        W 7141   6.984   0.572   4.658  0.3647  0.2682  0.2140
 2942W        W 7142   3.236   1.259  10.314  0.1770 -0.0539 -0.0106
 2943W        W 7143   7.283   5.441  10.129 -0.1000  0.1102  0.0978
 2944W        W 7144   0.717   9.641   4.093  0.0418 -0.2242  0.5556
 2945W        W 7145   4.753   7.225   9.781  0.1952 -0.1938 -0.1717
 2946W        W 7146   3.675   5.094   4.282 -0.3215  0.0641  0.0206
 2947W        W 7147   4.808   8.007  11.800  0.1020  0.0676  0.1353
 2948W        W 7148   7.083   1.136   3.735 -0.0908 -0.3470  0.0715
 2949W        W 7149   5.152   9.021   4.445 -0.2049  0.3360  0.0194
 2950W        W 7150   9.789   9.193   1.383 -0.1013 -0.2367 -0.0075
 2951W        W 7151   8.973   3.614   2.514  0.1612 -0.0180  0.2905
 2952W        W 7152   6.718   5.284  10.053 -0.1345  0.3134  0.0997
 2953W        W 7153   3.675   2.270  12.753 -0.0394 -0.3095 -0.1844
 2954W        W 7154   5.924   9.779  12.019 -0.3210 -0.1255 -0.0243
 2955W        W 7155   3.620   2.625   0.783  0.3656 -0.0894 -0.1913
 2956W        W 7156   7.296   3.019  11.656 -0.0575  0.0142  0.3493
 2957W        W 7157   6.572   2.895   4.113  0.4136 -0.0159 -0.2257
 2958W        W 7158   9.550   5.224  10.250 -0.3279  0.0274 -0.0862
 2959W        W 7159   8.319   9.902   2.752 -0.2057  0.2165  0.1112
 2960W        W 7160   8.934   2.411  12.980 -0.1429  0.0017 -0.0019
 2961W        W 7161   4.205   1.620   2.212 -0.0524  0.0166  0.1867
 2962W        W 7162   7.148   7.475  12.043  0.0694  0.0874 -0.1150
 2963W        W 7163   1.712   5.313   1.358 -0.0760 -0.2208 -0.1319
 2964W        W 7164   6.471   6.898  12.063  0.0634 -0.4681  0.0062
 2965W        W 7165   5.198  10.349   0.754 -0.1080 -0.0848 -0.1504
 2966W        W 7166   5.858   3.444   5.494 -0.1918 -0.0966 -0.4980
 2967W        W 7167   4.707   4.319  11.381 -0.2006 -0.1328 -0.2216
 2968W        W 7168   6.700   8.693  12.737 -0.2054 -0.2095 -0.1684
 2969W        W 7169   1.958   8.766   3.233 -0.2613 -0.1411  0.2712
 2970W        W 7170   6.415   5.442  11.836 -0.0022 -0.1070  0.1285
 2971W        W 7171   9.412   6.778   2.360  0.2128  0.0342  0.3289
 2972W        W 7172   5.036   4.961   0.919  0.0688 -0.1295  0.2756
 2973W        W 7173   7.435   5.677   9.305  0.3538  0.0897 -0.1188
 2974W        W 7174   3.970   4.348   2.449  0.0018 -0.0074  0.1419
 2975W        W 7175   6.967   4.897   0.983  0.1090 -0.1697 -0.0269
 2976W        W 7176   9.638  10.080   4.222  0.0805 -0.0907 -0.0494
 2977W        W 7177   0.159   1.825  12.060 -0.3126 -0.1639  0.0202
 2978W        W 7178   6.007   0.270   3.980 -0.0226 -0.1086 -0.1859
 2979W        W 7179   6.251   2.408  13.491  0.2801  0.1913 -0.1617
 2980W        W 7180   7.890   2.392   0.098  0.2256  0.1046 -0.4376
 2981W        W 7181   7.057   8.456   0.113  0.2053 -0.0199 -0.0979
 2982W        W 7182   5.196   3.507  10.174 -0.1030  0.4586 -0.2946
 2983W        W 7183   7.013   6.310   4.128 -0.1958 -0.0286  0.1033
 2984W        W 7184   7.059   9.604  11.219 -0.3057  0.0184  0.2309
 2985W        W 7185   3.219   5.841   0.090 -0.2651 -0.6109  0.2662
 2986W        W 7186   5.096   1.366  12.874  0.3632  0.1051 -0.3745
 2987W        W 7187   6.653   4.267  11.232  0.0792 -0.2120 -0.1509
 2988W        W 7188   6.275   9.589   1.796 -0.2953  0.0456  0.0410
 2989W        W 7189   5.860  10.172   2.336 -0.0981  0.2458 -0.0534
 2990W        W 7190   0.231   3.974   9.439  0.1111 -0.1691 -0.0124
 2991W        W 7191   0.214   2.202   9.602  0.1144  0.0795 -0.2774
 2992W        W 7192   7.499   2.698  11.306 -0.0033 -0.0601  0.0003
 2993W        W 7193   0.716   2.880   1.723  0.0339  0.3376 -0.1662
 2994W        W 7194   4.822   5.457   5.220  0.2420  0.1681  0.0302
 2995W        W 7195   5.392   6.980  11.408  0.0494  0.0687  0.3675
 2996W        W 7196   5.259   1.964   1.246 -0.0858  0.2464  0.1748
 2997W        W 7197   7.463   5.584   0.246  0.2133 -0.0670 -0.2987
 2998W        W 7198   6.986   5.379  12.677  0.1028 -0.2739 -0.3225
 2999W        W 7199   3.095   4.702   2.367 -0.1570 -0.3634 -0.3270
 3000W        W 7200   6.045   5.563  11.090  0.1747  0.0051  0.2444
 3001W        W 7201   7.822   0.847  11.711  0.0044  0.2457  0.2515
 3002W        W 7202   7.151   2.170   2.837  0.0450 -0.0229  0.0857
 3003W        W 7203   2.615   3.523   3.877 -0.0573  0.1211 -0.0052
 3004W        W 7204   5.560  10.259   9.427 -0.1422 -0.1195 -0.1908
 3005W        W 7205   8.145   5.709  13.013  0.0696 -0.1484 -0.3797
 3006W        W 7206   5.109  10.300   3.541 -0.2314 -0.0809  0.0552
 3007W        W 7207   9.452   4.813  11.156 -0.5171  0.3313  0.2730
 3008W        W 7208   4.554   1.072   0.142  0.0238  0.3747 -0.2451
 3009W        W 7209   4.144   2.800  12.195  0.2572  0.3163 -0.0783
 3010W        W 7210   2.656   3.255   2.580  0.1351 -0.0432  0.1824
 3011W        W 7211   6.841   2.008   3.201 -0.1584  0.0332 -0.0198
 3012W        W 7212  10.304   7.759   3.092  0.3103 -0.0451 -0.1136
 3013W        W 7213   9.830   7.048   2.543 -0.2025  0.3050 -0.0205
 3014W        W 7214   8.105   1.886  10.091  0.2937  0.2477 -0.2913
 3015W        W 7215   6.731   0.488   4.197  0.2152  0.1487 -0.2755
 3016W        W 7216   8.103   4.255   0.541 -0.0726  0.0571  0.1508
 3017W        W 7217   7.293   8.286   9.649 -0.1026  0.2070  0.1533
 3018W        W 7218   1.473   1.646   1.412 -0.3675 -0.0975  0.0018
 3019W        W 7219   1.592   3.109  13.316 -0.0118 -0.3185  0.2960
 3020W        W 7220  10.300   2.446  11.699 -0.1282  0.0932  0.1345
 3021W        W 7221   2.894   2.011  13.323 -0.2720  0.2895  0.2234
 3022W        W 7222   1.582   4.812   2.569 -0.2860 -0.4050 -0.0723
 3023W        W 7223   6.628   2.886   9.872  0.0514  0.2921  0.1558
 3024W        W 7224   6.299   1.141   1.585  0.2553 -0.0456  0.0629
 3025W        W 7225   1.507   3.616   2.453  0.3119 -0.3673  0.2271
 3026W        W 7226   0.596   0.928  12.675  0.0005  0.1050  0.2763
 3027W        W 7227   4.812  10.302   2.377  0.3786 -0.0533 -0.0665
 3028W        W 7228   0.094   4.159  13.163  0.0377 -0.2099  0.4302
 3029W        W 7229   9.471   8.713  13.217 -0.2223 -0.0974  0.1895
 3030W        W 7230   5.270   4.705  11.071  0.0650  0.1738 -0.0337
 3031W        W 7231  10.300   6.034   2.842 -0.0355 -0.1613  0.0769
 3032W        W 7232   4.014   9.682  11.828  0.1462  0.3535 -0.0271
 3033W        W 7233   7.248   9.322   0.096  0.0386  0.0975  0.0230
 3034W        W 7234   4.495   7.742   1.262 -0.0496 -0.0417 -0.3533
 3035W        W 7235   3.330   4.178   1.139 -0.1242  0.4037  0.1251
 3036W        W 7236   8.213   9.749   8.385 -0.1566 -0.0531  0.0877
 3037W        W 7237   6.170   5.669  13.337  0.0664  0.0469  0.0375
 3038W        W 7238   9.442   2.244   1.997 -0.1049 -0.1436  0.0372
 3039W        W 7239   1.713   3.377   4.547  0.2351  0.1012 -0.0272
 3040W        W 7240   5.804   1.939   3.005  0.0922 -0.1313 -0.0189
 3041W        W 7241  10.227   4.303   1.755 -0.0670 -0.0688 -0.0319
 3042W        W 7242   3.518   5.752  10.516 -0.1467 -0.0024  0.0253
 3043W        W 7243   8.058   5.277  10.945  0.3085  0.0965 -0.0607
 3044W        W 7244   7.888   9.366   3.125  0.1366 -0.0797 -0.0154
 3045W        W 7245   1.065   5.181  12.592  0.1108 -0.0400  0.4000
 3046W        W 7246   5.519   7.642   1.604 -0.0990  0.2192  0.1111
 3047W        W 7247  10.341   3.252  12.044  0.1864 -0.0240  0.1676
 3048W        W 7248   6.561   7.390   3.826  0.0349 -0.0424 -0.2282
 3049W        W 7249   4.343   7.127   1.427 -0.3022  0.1367 -0.1801
 3050W        W 7250   8.350   7.979  10.001  0.1951  0.0379  0.0617
 3051W        W 7251   7.608   9.960   4.888  0.0107  0.2753  0.5013
 3052W        W 7252   8.422   1.515   2.516  0.0753 -0.2673 -0.1135
 3053W        W 7253   4.459   9.792   1.126  0.2052  0.0299 -0.2023
 3054W        W 7254   4.097   9.153   1.630 -0.0806  0.0035 -0.2052
 3055W        W 7255   4.687   4.146   4.330  0.0562 -0.0894 -0.0284
 3056W        W 7256   4.275   1.870   3.752 -0.1527  0.0555  0.2287
 3057W        W 7257   2.950   2.498   3.286 -0.0256 -0.1907 -0.0312
 3058W        W 7258   1.220   3.802   1.719  0.2366  0.0573 -0.0716
 3059W        W 7259   8.437   2.261   9.827  0.1572 -0.1642 -0.0400
 3060W        W 7260   4.503   7.507   0.117 -0.1164 -0.2826  0.3428
 3061W        W 7261   0.428   2.176   3.019  0.6189  0.2054  0.3420
 3062W        W 7262   4.173   1.312   9.031  0.4796  0.3163  0.1395
 3063W        W 7263   3.266  10.335  11.463 -0.1089  0.0145 -0.2820
 3064W        W 7264   3.851   2.509   9.291 -0.2184  0.6695  0.0742
 3065W        W 7265   6.479   1.475  13.160  0.3183 -0.2400 -0.0779
 3066W        W 7266   3.516   0.757   0.042 -0.1171  0.2467 -0.1224
 3067W        W 7267   4.814   3.445  11.947  0.0656  0.1277 -0.0377
 3068W        W 7268   7.936   0.561   9.510 -0.1420  0.3858 -0.0411
 3069W        W 7269   6.001   0.387   9.659 -0.1418  0.0027 -0.0982
 3070W        W 7270   4.205  10.253  12.715 -0.0034 -0.3328  0.1297
 3071W        W 7271   1.033   3.881   2.764 -0.0514  0.2782  0.0079
 3072W        W 7272   6.968   0.039  11.189  0.0731 -0.0274 -0.0130
 3073W        W 7273   0.436   2.399   8.527  0.1062 -0.4298  0.0071
 3074W        W 7274   0.915   5.057   0.446 -0.1098 -0.3088 -0.0375
 3075W        W 7275   6.510   1.857  10.910  0.0021 -0.1134 -0.0966
 3076W        W 7276   7.527   1.465  10.838 -0.0899  0.0805  0.1240
 3077W        W 7277   6.762   8.919  10.272 -0.0103  0.0137 -0.3227
 3078W        W 7278   7.204   8.719  11.885 -0.2861  0.1523 -0.0052
 3079W        W 7279   2.181   6.114   0.214  0.0337 -0.0113 -0.2740
 3080W        W 7280   8.362   2.950   9.575  0.2201 -0.0661  0.1765
 3081W        W 7281   6.045   6.118   9.951 -0.0153 -0.3142 -0.4348
 3082W        W 7282   7.684   5.970   0.025  0.0572 -0.1556 -0.3466
 3083W        W 7283   6.671   1.005   1.925 -0.0746  0.4555 -0.0219
 3084W        W 7284   8.997   2.361   2.225 -0.0959 -0.0422  0.0499
 3085W        W 7285   0.732   2.345   1.720  0.3216  0.0809  0.0842
 3086W        W 7286   9.451   0.770  11.271  0.1274  0.2639 -0.0261
 3087W        W 7287   2.121  10.454   3.458 -0.3645 -0.1300  0.2316
 3088W        W 7288   3.628   4.683   4.678  0.0653  0.1828  0.1746
 3089W        W 7289   6.439   5.961   4.075  0.1163  0.4629  0.2228
 3090W        W 7290   3.731   5.158   3.197 -0.2390  0.1491  0.3244
 3091W        W 7291   7.189   0.469   3.215  0.0473  0.1095 -0.0600
 3092W        W 7292   7.192   4.275   2.435  0.2086  0.0263 -0.0797
 3093W        W 7293   9.571   1.348   1.107 -0.2745 -0.2368  0.1182
 3094W        W 7294   3.618   1.758   4.801  0.1116 -0.1483 -0.2546
 3095W        W 7295   7.669   4.088  11.307 -0.2492 -0.0076 -0.2400
 3096W        W 7296   9.611   1.251   4.111  0.1449  0.2415  0.0620
 3097W        W 7297   5.029   2.149   4.152 -0.2465 -0.1418 -0.0609
 3098W        W 7298   3.519   2.670   4.193 -0.2047 -0.0572  0.3027
 3099W        W 7299   4.185   0.302   9.212  0.1546  0.2510 -0.2279
 3100W        W 7300   3.630   1.862   9.635 -0.0015 -0.2189  0.0260
 3101W        W 7301   5.657   4.094   1.880 -0.2006 -0.1308  0.2055
 3102W        W 7302   3.500   0.158   1.282 -0.2328  0.0215 -0.0091
 3103W        W 7303   4.835   0.308  13.121  0.1470  0.2426 -0.1105
 3104W        W 7304   9.702   5.837   9.730 -0.0106 -0.0177 -0.0046
 3105W        W 7305   2.134   5.287   3.257 -0.0646 -0.2501 -0.1032
 3106W        W 7306   3.019   9.460   3.863  0.2852 -0.1315 -0.2542
 3107W        W 7307   6.918   1.884  11.782 -0.0531  0.1121  0.1544
 3108W        W 7308   2.268   3.349  12.663 -0.1395  0.2248  0.0776
 3109W        W 7309   7.571   2.744   0.324 -0.1412 -0.0012 -0.2254
 3110W        W 7310   1.903   0.422   3.338 -0.0528  0.1401 -0.0127
 3111W        W 7311   0.446   0.786   2.343  0.0815 -0.2255 -0.0060
 3112W        W 7312   8.065   1.071   4.721 -0.0693  0.1399 -0.0395
 3113W        W 7313   3.703   6.618   1.936 -0.4343 -0.1347 -0.0591
 3114W        W 7314   6.241   0.543   4.352 -0.2709 -0.2648  0.0626
 3115W        W 7315   4.029   7.954   9.232 -0.1165  0.2174 -0.1422
 3116W        W 7316   9.464   3.538  11.742 -0.0652  0.1714  0.0447
 3117W        W 7317   3.015   3.848   0.834 -0.0438 -0.1365  0.0434
 3118W        W 7318  10.342   8.120  10.352  0.5021 -0.3842 -0.1218
 3119W        W 7319   9.533   1.812   4.057 -0.3904 -0.3446 -0.0903
 3120W        W 7320   3.845   1.249   2.597 -0.1593 -0.0651  0.2329
 3121W        W 7321   6.955   7.080  12.325  0.0934  0.1219 -0.0007
 3122W        W 7322   7.549   9.178  12.637  0.0038  0.2433  0.0214
 3123W        W 7323   7.407   6.911  13.185  0.1527  0.2841 -0.0532
 3124W        W 7324   6.203   7.839   0.532  0.0368  0.0196 -0.1550
 3125W        W 7325   7.697   6.964   3.268 -0.1244  0.1653  0.3268
 3126W        W 7326   5.734   1.539  11.225 -0.0878  0.0846  0.2572
 3127W        W 7327   3.319   8.760   0.917 -0.2013  0.0785  0.2744
 3128W        W 7328   0.412   8.032  11.226 -0.1263  0.0191  0.1334
 3129W        W 7329   3.345   2.804   3.703  0.0991  0.0347 -0.3337
 3130W        W 7330   9.914   3.594   9.173  0.3622 -0.0285 -0.1839
 3131W        W 7331   5.451   9.898  12.937  0.2252 -0.0742 -0.0808
 3132W        W 7332   5.231   7.893  13.143  0.5458 -0.2277  0.0292
 3133W        W 7333   8.662   1.260  11.580 -0.1744  0.0604 -0.1218
 3134W        W 7334   8.113   9.235   2.268  0.2043 -0.3998 -0.1984
 3135W        W 7335   6.321   4.489   4.228  0.1000 -0.1313 -0.1201
 3136W        W 7336   4.317   6.218  12.277  0.1741  0.0034  0.0782
 3137W        W 7337   4.185   0.207  10.113 -0.1804  0.1221 -0.0966
 3138W        W 7338   0.203   3.392   3.765  0.0426 -0.1432  0.1625
 3139W        W 7339   4.268   8.599   4.137  0.0812 -0.0972 -0.0958
 3140W        W 7340   5.858   2.245  10.764 -0.1149 -0.0686  0.1181
 3141W        W 7341   7.914   5.774   1.523  0.1321 -0.0315  0.0386
 3142W        W 7342   9.403   6.711   0.868  0.0377 -0.1488  0.0955
 3143W        W 7343   4.257   5.680   4.471 -0.1920  0.6084  0.2316
 3144W        W 7344   3.093   3.155  11.519  0.1760 -0.1993 -0.1888
 3145W        W 7345   9.996   3.318   1.896 -0.0468 -0.0136 -0.0535
 3146W        W 7346   4.973   4.315  13.046  0.2897 -0.1681  0.0843
 3147W        W 7347   9.102   1.996  11.612  0.1994 -0.2519  0.2064
 3148W        W 7348   9.169   4.830   0.692 -0.2241  0.1452 -0.0910
 3149W        W 7349   8.376   0.074  11.949 -0.2091  0.1357 -0.2323
 3150W        W 7350   4.601   5.457  12.589  0.1682 -0.1090  0.0493
 3151W        W 7351   0.200   4.430   3.551  0.0100  0.0354 -0.1834
 3152W        W 7352   1.709   0.622  13.487  0.0085  0.3281  0.0775
 3153W        W 7353   2.039   0.734   0.368  0.1708  0.2324  0.1116
 3154W        W 7354   6.536   0.776   2.750  0.1031  0.0983 -0.4231
 3155W        W 7355   1.043   9.420  11.914 -0.1125 -0.0511 -0.0872
 3156W        W 7356   7.655   8.259  12.844  0.2130  0.0501 -0.0284
 3157W        W 7357   8.779   1.933   9.976 -0.0177  0.4441  0.1390
 3158W        W 7358   9.461   1.754  10.586 -0.2605 -0.1695 -0.0468
 3159W        W 7359   2.514   8.586   1.899 -0.1116 -0.3424  0.1169
 3160W        W 7360   5.809   7.961   1.275 -0.0493  0.0134  0.1652
 3161W        W 7361   5.430   2.376  12.773  0.2180  0.0607 -0.1692
 3162W        W 7362   5.901   4.216   0.534 -0.1738  0.0309  0.2189
 3163W        W 7363   8.941  10.152   9.393  0.0051  0.0157  0.3678
 3164W        W 7364   5.175   8.090  10.012 -0.0155  0.2043  0.1176
 3165W        W 7365   7.266   5.709   2.448  0.3413  0.0755 -0.2458
 3166W        W 7366   3.694   8.426   0.394  0.0604 -0.2857 -0.2018
 3167W        W 7367  10.320  10.427   0.590 -0.0599  0.1534 -0.0086
 3168W        W 7368   3.146   6.858   3.995 -0.4621  0.1836  0.4374
 3169W        W 7369   7.082   9.492   2.691 -0.0287  0.0489  0.1758
 3170W        W 7370   9.994   5.870  11.457  0.0886  0.0419 -0.0736
 3171W        W 7371   6.178   4.715   9.322 -0.2212 -0.1160 -0.2757
 3172W        W 7372   8.625   4.644   9.681 -0.0026 -0.2416  0.3290
 3173W        W 7373   4.321   6.097   9.927  0.2482  0.0840  0.3542
 3174W        W 7374   0.592   3.729   2.025  0.1790 -0.4416  0.1360
 3175W        W 7375   8.245   2.373   1.734 -0.1602 -0.1891  0.1730
 3176W        W 7376   0.025  10.104  11.399  0.1687  0.2862 -0.1669
 3177W        W 7377   9.391   2.317   4.314  0.2401 -0.2579  0.3465
 3178W        W 7378   7.804   3.510   4.245 -0.2167  0.0856  0.0203
 3179W        W 7379   4.721   7.987  13.175 -0.0668 -0.0323  0.0296
 3180W        W 7380   7.722   9.951  10.806  0.1901 -0.1476 -0.0515
 3181W        W 7381   5.882   0.797   1.542  0.0043 -0.1065  0.0875
 3182W        W 7382   3.434   3.794   1.590  0.3736 -0.0609  0.0991
 3183W        W 7383   2.040   6.937   1.388  0.0060  0.1618 -0.1731
 3184W        W 7384   2.917   5.016   3.606  0.2579  0.4677  0.0804
 3185W        W 7385   4.482   5.968  10.795  0.2316  0.3364 -0.3180
 3186W        W 7386   2.181   4.143  12.244  0.0014  0.1430 -0.1200
 3187W        W 7387   6.993   3.069  13.032 -0.2739 -0.2376  0.3161
 3188W        W 7388   4.944   5.128  11.237 -0.0303 -0.0782 -0.0959
 3189W        W 7389   1.834   4.361  11.131  0.0189  0.2149 -0.4971
 3190W        W 7390   3.393   6.760   2.991  0.0353  0.0731  0.0879
 3191W        W 7391   9.504   9.703   4.484  0.0210 -0.2947  0.0897
 3192W        W 7392   9.005   2.832   4.357  0.0453 -0.0396  0.1560
 3193W        W 7393   9.432   4.111   9.886 -0.2190 -0.1742  0.4054
 3194W        W 7394   3.090   9.630  12.181  0.0071 -0.0611  0.0471
 3195W        W 7395   7.421   4.057   2.011 -0.2471  0.1408  0.0599
 3196W        W 7396   4.940   1.582  10.137 -0.1241  0.0738 -0.1683
 3197W        W 7397   9.892   2.406   2.058 -0.1379  0.1154  0.1204
 3198W        W 7398   2.986   6.406  10.473 -0.1078 -0.0489 -0.2391
 3199W        W 7399   6.887   8.272   4.205 -0.0579  0.0210  0.2050
 3200W        W 7400   7.320   7.031  11.483 -0.2841 -0.0173 -0.2038
 3201W        W 7401   6.534   0.845   0.216  0.0822 -0.2394  0.0403
 3202W        W 7402   6.340   2.061  12.735  0.0674  0.2942 -0.3512
 3203W        W 7403   7.092   5.019  11.007 -0.2811 -0.0537  0.0866
 3204W        W 7404   8.790   3.567   4.370 -0.0574 -0.3506 -0.3094
 3205W        W 7405   9.184   5.526   3.207 -0.1765  0.2471 -0.1318
 3206W        W 7406   5.675  10.125  13.320  0.0913  0.0461  0.1859
 3207W        W 7407   6.150  10.402  10.024 -0.3202 -0.2810 -0.0954
 3208W        W 7408   1.346   6.325   0.508  0.1258 -0.1752  0.0492
 3209W        W 7409   4.181   2.151   2.990  0.0689 -0.0781  0.0315
 3210W        W 7410   0.945   5.081  13.459 -0.3454 -0.0119  0.0388
 3211W        W 7411   4.585   6.134   2.842  0.4991  0.0207 -0.2343
 3212W        W 7412  10.379   8.450   2.620  0.1508  0.2389 -0.0170
 3213W        W 7413   4.517   2.221  13.386  0.1374 -0.0476 -0.0273
 3214W        W 7414   8.350   6.759   9.897  0.0715 -0.5169 -0.0526
 3215W        W 7415   6.525   9.193   4.381 -0.1599  0.3109  0.0245
 3216W        W 7416  10.028   9.764   0.228 -0.0578  0.1412 -0.5635
 3217W        W 7417   6.206   3.876  10.138 -0.1174 -0.1358  0.1956
 3218W        W 7418   2.744   6.339  10.956 -0.0416 -0.3994 -0.2291
 3219W        W 7419  10.187   2.072  10.202 -0.0285  0.0059  0.2428
 3220W        W 7420   4.574   2.799   1.746 -0.0310 -0.3583  0.0157
 3221W        W 7421   3.298   6.456   0.892  0.1004  0.1153 -0.1064
 3222W        W 7422   6.346   1.214   2.922  0.2065  0.3052  0.1227
 3223W        W 7423   7.805   1.815   0.678 -0.1622 -0.3591  0.1540
 3224W        W 7424   8.343  10.167   4.502 -0.1922 -0.0684  0.1439
 3225W        W 7425   3.201   6.105   2.441  0.0597 -0.0294  0.4400
 3226W        W 7426   3.164   0.336   8.797  0.2190 -0.0695  0.2016
 3227W        W 7427   5.351   3.598   1.418  0.0014  0.2236 -0.0535
 3228W        W 7428   2.322   6.815  11.679 -0.1525  0.0951 -0.2139
 3229W        W 7429   6.915   4.584   0.374  0.0303  0.1366 -0.0466
 3230W        W 7430   8.993   0.612  11.137 -0.0483 -0.0436  0.0763
 3231W        W 7431   5.420   7.776   4.567  0.0349 -0.1970 -0.0475
 3232W        W 7432   9.859   2.979   1.478 -0.2122  0.2489  0.2134
 3233W        W 7433   3.773   1.204  10.141 -0.2463  0.2373 -0.0097
 3234W        W 7434   3.969   2.785  13.516 -0.0849 -0.0326  0.3864
 3235W        W 7435   7.294   1.422   8.269  0.0504  0.0970 -0.1677
 3236W        W 7436   9.009   2.172   4.765  0.0839 -0.3247  0.0398
 3237W        W 7437   6.666   9.873   1.624  0.1908 -0.3478  0.0827
 3238W        W 7438   1.905   9.469   3.358  0.3997 -0.0419 -0.0711
 3239W        W 7439   8.677  10.410   9.023 -0.0152 -0.0609  0.1058
 3240W        W 7440   7.090   6.466   5.405  0.2485 -0.1330 -0.0602
 3241W        W 7441   9.166   4.117   9.463  0.0247 -0.3143  0.0680
 3242W        W 7442   5.788   5.496   2.752 -0.3045  0.1491  0.1133
 3243W        W 7443   4.626   6.282   2.213 -0.1191 -0.1202 -0.2003
 3244W        W 7444   1.649   9.340   2.488 -0.2801 -0.3814 -0.1505
 3245W        W 7445   2.347   9.092  12.486 -0.0550  0.3831 -0.0466
 3246W        W 7446   1.618   3.029   0.613  0.0927  0.0032  0.2508
 3247W        W 7447   7.330  10.049   9.584  0.0211  0.0481 -0.2960
 3248W        W 7448   0.437   3.192   8.447 -0.0280 -0.0206 -0.0520
 3249W        W 7449   7.866   3.063   1.328  0.0591  0.0580 -0.4809
 3250W        W 7450   6.652   5.176   3.062 -0.1961  0.2568  0.1419
 3251W        W 7451   6.195  10.012   3.171 -0.2605  0.1919 -0.1216
 3252W        W 7452   8.656   1.695   1.404 -0.0223 -0.0107  0.0867
 3253W        W 7453   8.053   2.044  11.199 -0.2469  0.0917  0.1896
 3254W        W 7454   9.250   7.204   3.284 -0.0043  0.2250  0.1199
 3255W        W 7455   8.998   5.015   9.680  0.5672  0.1650  0.0622
 3256W        W 7456   0.935   2.811   3.709  0.2488 -0.1416 -0.0183
 3257W        W 7457   8.029   5.985  11.615  0.2627 -0.3256  0.0044
 3258W        W 7458   9.183   1.889   2.302 -0.2008 -0.1908 -0.0045
 3259W        W 7459   9.655   3.563   2.732  0.0813  0.0691 -0.0228
 3260W        W 7460   9.566   0.342   2.361  0.1593  0.0200 -0.2015
 3261W        W 7461   7.274   3.496   3.399  0.0673  0.0825 -0.0932
 3262W        W 7462   1.435   9.765  11.183  0.0103 -0.3173  0.4095
 3263W        W 7463   8.321   7.225  13.307 -0.0452  0.0800  0.1767
 3264W        W 7464   9.430   9.634  12.135  0.0483 -0.2894 -0.2069
 3265W        W 7465   9.417   0.409   0.541 -0.0627  0.1571  0.1696
 3266W        W 7466   5.584   0.130   8.874 -0.0219  0.0551 -0.0874
 3267W        W 7467   8.857   9.632   3.506  0.2316  0.3551  0.0474
 3268W        W 7468   6.810   4.007  10.814  0.0060  0.2365 -0.3300
 3269W        W 7469   2.692   5.115  11.116 -0.2543  0.1772 -0.1178
 3270W        W 7470   6.619   4.957  10.961  0.0629 -0.2388  0.0141
 3271W        W 7471   8.331   4.957  11.269  0.0157  0.0169  0.0157
 3272W        W 7472   4.210   7.775  13.350  0.1877 -0.0653 -0.3731
 3273W        W 7473   5.768   8.889   2.726  0.0627 -0.0915  0.2710
 3274W        W 7474   6.632   4.340   1.909  0.0172 -0.0446 -0.1553
 3275W        W 7475   6.965   1.623  12.238  0.0047 -0.2932  0.0159
 3276W        W 7476   3.712   7.227   2.066 -0.1311  0.4268  0.0475
 3277W        W 7477   7.680   6.244   3.899 -0.3183 -0.3198 -0.0111
 3278W        W 7478   3.576   5.643   3.142  0.3447  0.1780  0.1275
 3279W        W 7479   3.790   2.414   9.802  0.1561 -0.0343 -0.1121
 3280W        W 7480   4.356   1.146  12.503 -0.1791  0.0072 -0.2135
 3281W        W 7481   5.486   5.243   9.205 -0.1843  0.3554 -0.1857
 3282W        W 7482   2.500   2.021   0.091 -0.1147 -0.2264 -0.1005
 3283W        W 7483   9.681   3.388   4.340 -0.1755 -0.1605  0.0299
 3284W        W 7484   7.247   3.879  10.269  0.2033  0.3220  0.1304
 3285W        W 7485   0.280   3.912   0.085 -0.0207  0.0221 -0.2396
 3286W        W 7486   0.690   2.093   1.214 -0.0388 -0.2412  0.1291
 3287W        W 7487   1.446   2.798   3.779 -0.2304  0.0659  0.2680
 3288W        W 7488   9.160   8.283   0.538 -0.0986  0.4547  0.2670
 3289W        W 7489   4.837   1.722   9.554  0.0449  0.0400  0.1129
 3290W        W 7490   3.241   6.568  12.833 -0.1079  0.0169  0.1788
 3291W        W 7491   2.359   9.673  12.645 -0.1980  0.0328  0.1431
 3292W        W 7492   7.436   2.972  12.150  0.0584  0.1544  0.1417
 3293W        W 7493   6.159   7.219   8.443 -0.0097 -0.2752  0.1679
 3294W        W 7494   3.448   6.018  12.503 -0.0736  0.1123  0.1727
 3295W        W 7495   2.960   0.863   1.158 -0.3261  0.1058  0.2470
 3296W        W 7496   8.855   0.072  12.123 -0.0888 -0.0738 -0.2052
 3297W        W 7497   7.108   0.008  12.403 -0.0920 -0.1036  0.0187
 3298W        W 7498   4.245   3.925   3.083  0.1012 -0.1065 -0.2937
 3299W        W 7499   4.790   1.360   3.513 -0.0519  0.2182  0.1039
 3300W        W 7500   3.905   1.419   4.607  0.2248  0.2506 -0.0252
 3301W        W 7501   0.641   3.459   8.953  0.1497 -0.1495  0.1370
 3302W        W 7502   8.083   1.951   4.997 -0.2269 -0.0100  0.1675
 3303W        W 7503   1.710   0.008  12.913  0.0273  0.2863 -0.0767
 3304W        W 7504   4.593  10.015   9.520  0.0303 -0.1191  0.3614
 3305W        W 7505   1.258   4.232  13.383 -0.1050 -0.2294  0.1294
 3306W        W 7506   4.041   3.612  10.111  0.3039  0.1986 -0.1639
 3307W        W 7507   6.531   7.907   1.504  0.2426 -0.1252 -0.1332
 3308W        W 7508   2.819   3.132  10.662  0.1789  0.2200 -0.3106
 3309W        W 7509   5.486   7.583  11.163 -0.0017  0.0719  0.1357
 3310W        W 7510   8.217   2.828   4.967  0.0779  0.0999 -0.1040
 3311W        W 7511   1.056   4.569   4.554  0.2396 -0.3357 -0.1579
 3312W        W 7512  10.446   2.970   9.487 -0.4589  0.1581  0.0499
 3313W        W 7513  10.361   0.001  10.203  0.2229 -0.0391  0.1184
 3314W        W 7514   7.980   5.977   0.652  0.2926  0.2894  0.0415
 3315W        W 7515   8.502   0.871   4.316 -0.0079  0.0636 -0.0668
 3316W        W 7516   9.161   5.114   3.670 -0.1641  0.1676 -0.0705
 3317W        W 7517   4.752   4.677  11.042 -0.1362  0.1636  0.1066
 3318W        W 7518   3.915   3.467   2.961 -0.0973 -0.0840 -0.1527
 3319W        W 7519   7.642   8.875   4.043 -0.2163 -0.4499  0.0811
 3320W        W 7520   2.510   2.451  13.234 -0.0767 -0.3596  0.3527
 3321W        W 7521   3.069   5.554   1.328 -0.1030 -0.2122  0.3295
 3322W        W 7522   9.628   1.681   5.108 -0.3131 -0.2145  0.0765
 3323W        W 7523   6.004   1.605   8.754 -0.1869  0.1888 -0.2552
 3324W        W 7524   9.997   5.552  10.451  0.2454  0.1014 -0.1815
 3325W        W 7525   8.029   7.377   1.588  0.1087 -0.4667  0.0510
 3326W        W 7526   5.130   2.632  11.071  0.0323  0.1152 -0.3161
 3327W        W 7527   4.696   2.459   8.913  0.1272  0.0685 -0.2333
 3328W        W 7528   8.011   8.506  12.096  0.4214 -0.3283 -0.1521
 3329W        W 7529   6.149   0.861  12.228  0.0420  0.1299  0.4512
 3330W        W 7530   3.359   1.191   3.991  0.1426 -0.0696  0.0950
 3331W        W 7531   0.355   0.575   3.233 -0.0045 -0.0392 -0.3919
 3332W        W 7532   7.175   6.060  11.450  0.2007 -0.2145 -0.2460
 3333W        W 7533   2.920   3.521  11.806  0.2637  0.0793 -0.1736
 3334W        W 7534  10.128   9.573   1.619  0.1531 -0.0000 -0.0167
 3335W        W 7535   1.824   6.748   0.559  0.5985 -0.2917  0.0167
 3336W        W 7536   2.302   3.856   2.964 -0.0917  0.1871 -0.2530
 3337W        W 7537   0.685   2.855  12.170  0.0233 -0.1560 -0.0463
 3338W        W 7538   6.426   3.142   2.558 -0.0549 -0.3140 -0.0496
 3339W        W 7539   0.598   7.349   2.066 -0.0469 -0.0402 -0.0338
 3340W        W 7540   8.113   1.181  11.413 -0.2446 -0.0437  0.2114
 3341W        W 7541   3.720   4.101   2.791  0.0770 -0.4624 -0.2271
 3342W        W 7542   2.484   5.619   2.420  0.1172 -0.0447 -0.1787
 3343W        W 7543   7.845   9.574   0.440  0.0553 -0.0100  0.0662
 3344W        W 7544   0.301   2.262  11.569 -0.2794  0.2092 -0.3306
 3345W        W 7545   6.468   3.431  10.150 -0.1227  0.0113  0.0433
 3346W        W 7546   3.245   9.439   4.366 -0.3248  0.1467  0.0415
 3347W        W 7547   4.486   0.402   2.953  0.0432 -0.1547 -0.1735
 3348W        W 7548   8.129   5.764   9.998 -0.0425 -0.0560 -0.0147
 3349W        W 7549   0.825   7.117   1.304 -0.3197 -0.0022  0.0882
 3350W        W 7550   4.868   4.574   2.565  0.2886 -0.0878  0.1425
 3351W        W 7551   2.849   6.658  11.876 -0.2372  0.1050 -0.0392
 3352W        W 7552   9.067   1.226   9.507  0.0888  0.1747 -0.0995
 3353W        W 7553   1.165   5.721  10.352  0.2189 -0.0001  0.3781
 3354W        W 7554   1.945   5.173  10.596 -0.1147  0.0033  0.2338
 3355W        W 7555  10.229   2.218   3.638  0.1963  0.0206  0.1040
 3356W        W 7556   1.675   6.607   3.289 -0.0737 -0.1241 -0.2693
 3357W        W 7557   6.930   1.636   2.890 -0.1315 -0.4378  0.1392
 3358W        W 7558   8.041   7.404   2.445  0.1531 -0.1669  0.0184
 3359W        W 7559   7.245   2.666   4.408 -0.1214  0.2890 -0.0160
 3360W        W 7560   1.927   0.913   2.662  0.0306 -0.0593  0.0584
 3361W        W 7561   1.934   3.493   0.723  0.0950  0.2443 -0.0414
 3362W        W 7562   8.527   9.881  11.152 -0.2902 -0.1296  0.1144
 3363W        W 7563   3.865   2.454   5.347 -0.0491 -0.3169  0.0651
 3364W        W 7564   7.947   9.574  11.083  0.3055  0.0201 -0.1099
 3365W        W 7565   5.370   3.337  12.947 -0.0905  0.0562 -0.0271
 3366W        W 7566  10.163   1.705  12.352 -0.0809  0.0628 -0.1584
 3367W        W 7567   9.738   1.785  11.989 -0.1963 -0.3168  0.0802
 3368W        W 7568   5.373   8.563  10.798 -0.1603 -0.2717  0.0080
 3369W        W 7569   6.660  10.191   4.681 -0.1650 -0.2603 -0.0243
 3370W        W 7570   8.936   3.841   3.464 -0.3072 -0.1487 -0.0471
 3371W        W 7571   0.156   1.293   3.700  0.1402  0.3818 -0.1465
 3372W        W 7572   3.120   2.364   0.884 -0.0620 -0.2001  0.2360
 3373W        W 7573   3.258   8.992  10.237  0.1233 -0.2581 -0.0431
 3374W        W 7574   3.139   9.427   1.334 -0.0701  0.3320  0.2504
 3375W        W 7575   5.379   8.511  12.084 -0.0736  0.0561  0.0094
 3376W        W 7576   8.099   3.349  10.213  0.0358  0.1800 -0.2558
 3377W        W 7577   7.376   6.636   9.389 -0.0672 -0.0088 -0.1603
 3378W        W 7578   7.075   7.468   3.922 -0.0732 -0.0189 -0.0079
 3379W        W 7579   7.027   2.647   9.471  0.2469 -0.1108  0.0667
 3380W        W 7580   8.156   9.843  13.160 -0.1790 -0.0581  0.2276
 3381W        W 7581   2.014   2.056   4.122  0.1392 -0.2450  0.0950
 3382W        W 7582   7.822   4.899   2.486 -0.0456 -0.0605 -0.2418
 3383W        W 7583   6.699   3.026  11.724  0.1967  0.3815 -0.1987
 3384W        W 7584   9.324   2.034   9.349  0.0428  0.1366 -0.0582
 3385W        W 7585   6.829   1.892   1.742 -0.0816  0.3331 -0.2368
 3386W        W 7586   4.051   7.586   1.258 -0.0435  0.0994 -0.1846
 3387W        W 7587  10.132   4.049   9.495 -0.1420  0.2039 -0.0308
 3388W        W 7588   5.407   5.194  11.057 -0.2119 -0.2659  0.2395
 3389W        W 7589   8.383   9.825   3.641 -0.1426  0.1489  0.1455
 3390W        W 7590   2.600   0.718  11.340 -0.0528 -0.0273 -0.3282
 3391W        W 7591   8.534   5.648   9.263 -0.1445 -0.0180  0.1179
 3392W        W 7592   9.454   4.513  13.458 -0.2138  0.1267 -0.1293
 3393W        W 7593   5.294   6.444  11.252  0.0984 -0.2712  0.0164
 3394W        W 7594   3.942   9.693   0.335  0.0131  0.2869  0.0534
 3395W        W 7595   6.542   1.237   9.559  0.0589 -0.1166 -0.0016
 3396W        W 7596   1.282   3.091   9.809 -0.0844  0.3054  0.1304
 3397W        W 7597   5.935   9.453  12.778 -0.0280 -0.1794 -0.0936
 3398W        W 7598   0.905   2.034  10.378  0.0014 -0.3751 -0.1943
 3399W        W 7599   7.477   1.801  12.953  0.1828  0.0640 -0.4932
 3400W        W 7600   4.393   3.744   0.359  0.2771  0.0092 -0.2536
 3401W        W 7601  10.171   4.097   3.483  0.2836  0.0180 -0.0763
 3402W        W 7602   8.961   6.627   0.492 -0.1164 -0.1367  0.1932
 3403W        W 7603   5.132   2.086  11.213 -0.1750  0.1930  0.0557
 3404W        W 7604   5.038   3.728   2.759  0.1334  0.3427  0.1949
 3405W        W 7605   9.385   9.874   2.026 -0.1954  0.0467  0.3275
 3406W        W 7606   1.563   3.943   2.074  0.4794 -0.3768  0.0700
 3407W        W 7607   2.757   1.992   1.870  0.0681  0.1553 -0.0997
 3408W        W 7608   9.922  10.289  12.395 -0.0589  0.3588 -0.2537
 3409W        W 7609   5.855   8.864  12.479 -0.2671  0.2388  0.3763
 3410W        W 7610   4.562   0.844   3.178  0.0211 -0.0548 -0.1253
 3411W        W 7611   1.519   2.549   2.331 -0.0692  0.0856 -0.1516
 3412W        W 7612   8.343   5.485   1.344 -0.0515  0.2890 -0.0837
 3413W        W 7613   5.659   1.587   2.205 -0.2346  0.0267  0.0562
 3414W        W 7614   2.308   3.019   2.175 -0.2528  0.2208  0.1341
 3415W        W 7615   6.162   6.984   2.718 -0.2770 -0.0998  0.1351
 3416W        W 7616   3.759   5.030  12.961  0.1336  0.2233  0.2491
 3417W        W 7617   9.256   3.117   0.825  0.1375  0.2938  0.0051
 3418W        W 7618   4.178   9.592   9.518  0.2048  0.0038  0.0483
 3419W        W 7619   3.182   4.671   9.659  0.3805 -0.3554  0.2295
 3420W        W 7620   9.754   2.092   2.423 -0.1415  0.0471 -0.1256
 3421W        W 7621   3.883   1.157   1.670  0.0679 -0.2329  0.2023
 3422W        W 7622   8.102   0.758   4.036  0.0068 -0.2594 -0.2425
 3423W        W 7623   0.620   2.436   3.909  0.1501 -0.1361  0.1807
 3424W        W 7624   3.679   8.057   0.024 -0.1098 -0.1178  0.2593
 3425W        W 7625   6.745   4.843  13.425  0.0423  0.2072 -0.0550
 3426W        W 7626   7.722   8.660   0.894  0.2451  0.0269 -0.1060
 3427W        W 7627   9.404   4.581   4.577 -0.0195 -0.1698  0.2095
 3428W        W 7628   5.577   8.389   2.675  0.1906 -0.4701 -0.1189
 3429W        W 7629   5.044   4.990   1.444 -0.2988  0.1150 -0.3095
 3430W        W 7630   9.131   9.928  10.443  0.2230 -0.1578 -0.3642
 3431W        W 7631   1.191   8.126   1.811 -0.0625 -0.3320 -0.2367
 3432W        W 7632   4.526   8.991   3.307  0.2633  0.0014 -0.1155
 3433W        W 7633   0.583   4.790   3.566 -0.0724 -0.4978  0.2922
 3434W        W 7634   1.962   1.573   3.316 -0.0746  0.0752  0.2393
 3435W        W 7635   0.758   2.867   0.454 -0.1409  0.1046 -0.1346
 3436W        W 7636   2.402   6.036  13.299  0.0601 -0.0818  0.0860
 3437W        W 7637   9.083   9.150   3.539 -0.2264 -0.1946  0.0307
 3438W        W 7638   3.119   1.774  12.916  0.2938 -0.1502 -0.3249
 3439W        W 7639   2.385   7.773  13.416  0.0248 -0.0634  0.2458
 3440W        W 7640   5.672   3.074  10.007 -0.2202  0.0860  0.1449
 3441W        W 7641   0.381   2.760   9.851  0.1426  0.0103 -0.1201
 3442W        W 7642   5.527   9.292   8.424  0.5516  0.1522  0.2458
 3443W        W 7643   0.294   3.119  12.406  0.2153  0.0150 -0.1350
 3444W        W 7644  10.320   8.657  11.289 -0.1562 -0.1485 -0.2520
 3445W        W 7645   7.539   6.519  11.374 -0.0755  0.0678 -0.1741
 3446W        W 7646   2.033   5.214   0.191 -0.3555  0.2773 -0.0119
 3447W        W 7647   1.355   5.070   9.570 -0.3980  0.1044  0.2599
 3448W        W 7648   7.404   2.795  12.872 -0.2239 -0.2024  0.0182
 3449W        W 7649   4.932   5.624  11.353 -0.0942  0.2124  0.1142
 3450W        W 7650   1.587   5.450   1.823  0.2230  0.0659 -0.2800
 3451W        W 7651   6.447   1.990   2.000 -0.1228 -0.1978  0.0571
 3452W        W 7652   1.092   9.770  12.707 -0.1827 -0.0038  0.0147
 3453W        W 7653   6.485   6.031   4.698  0.1809 -0.0670 -0.0334
 3454W        W 7654   3.042   5.611  11.194 -0.0626  0.0620  0.1216
 3455W        W 7655   9.569  10.111  10.341  0.1364  0.3303  0.0543
 3456W        W 7656   0.907   7.942  11.314  0.1385  0.1733 -0.0782
 3457W        W 7657   5.321   4.455  12.539 -0.0321  0.0203  0.2549
 3458W        W 7658   0.983   2.484   3.166 -0.1828  0.2238 -0.0586
 3459W        W 7659   2.844   1.371   0.379  0.2172  0.2013  0.0695
 3460W        W 7660   4.480   7.604   3.743  0.3683  0.1548 -0.1493
 3461W        W 7661   2.606   6.824   1.076  0.0874  0.2009  0.0349
 3462W        W 7662   4.316   7.330  11.488 -0.0418 -0.2542  0.2168
 3463W        W 7663   4.165   4.809   3.099 -0.1963 -0.0649 -0.1644
 3464W        W 7664   4.574   2.301   1.703 -0.0116  0.0302 -0.1425
 3465W        W 7665   2.722  10.043   0.444 -0.1606  0.2379 -0.2265
 3466W        W 7666   7.406   6.661   8.860  0.0252 -0.0058 -0.1690
 3467W        W 7667   5.071   1.699  12.100 -0.1205 -0.4604 -0.2232
 3468W        W 7668   7.332   9.377   3.952 -0.2244 -0.0321  0.2540
 3469W        W 7669   2.184   3.287  13.127 -0.0446  0.0877  0.1516
 3470W        W 7670   7.393   0.407   2.737 -0.2337  0.2278  0.1241
 3471W        W 7671   0.237   0.147   3.676 -0.2223  0.0481 -0.0685
 3472W        W 7672   4.556   1.170   9.287  0.1137 -0.2127 -0.3252
 3473W        W 7673   3.117   2.865   1.601 -0.0193 -0.0768  0.1129
 3474W        W 7674   0.771   4.272   3.518 -0.1344  0.0446 -0.1208
 3475W        W 7675   6.548   0.685   1.119 -0.1786 -0.4277  0.0694
 3476W        W 7676   3.371   0.577   0.550  0.0231 -0.1515 -0.0743
 3477W        W 7677   7.175   7.398   2.186 -0.1072  0.0653 -0.2784
 3478W        W 7678   6.391   0.367  12.165 -0.2479  0.1214 -0.1394
 3479W        W 7679   7.778   3.379   2.640  0.2530 -0.2998 -0.3637
 3480W        W 7680   8.372   2.613  11.958  0.2134 -0.0317  0.0894
 3481W        W 7681   1.649   6.834  11.631 -0.1667  0.0201 -0.1078
 3482W        W 7682   0.927   1.715  13.101  0.0599  0.1731  0.1186
 3483W        W 7683   3.756   1.134   3.645 -0.0225 -0.1031  0.3466
 3484W        W 7684   4.224   5.978   2.346  0.0447  0.0815 -0.1822
 3485W        W 7685   8.560   5.724  11.585 -0.1075  0.0106 -0.1377
 3486W        W 7686   6.727   2.337  11.908 -0.4178 -0.3065  0.0483
 3487W        W 7687   5.578   3.018  13.253 -0.0861 -0.3853 -0.0060
 3488W        W 7688   4.542   5.971  12.665 -0.0402  0.2147 -0.2989
 3489W        W 7689   3.998   6.319   1.127  0.1962  0.3190 -0.2231
 3490W        W 7690   5.419   2.299   1.935 -0.1690 -0.0344  0.2158
 3491W        W 7691   7.703   5.995  10.162  0.1218  0.1747  0.3795
 3492W        W 7692   0.056   3.399   5.092 -0.0369 -0.0148 -0.2555
 3493W        W 7693   9.783   6.454  12.452 -0.1672  0.2096  0.3639
 3494W        W 7694   9.635   9.630   1.678 -0.1706  0.2031  0.0911
 3495W        W 7695   0.323  10.100  12.153  0.2384  0.1454 -0.2091
 3496W        W 7696   5.611   5.727   9.167 -0.0942 -0.1672 -0.3238
 3497W        W 7697   9.631   0.011   0.248  0.0423 -0.1914 -0.0126
 3498W        W 7698   6.297   6.007   2.660 -0.0833  0.0021 -0.2804
 3499W        W 7699  10.405   0.123   2.483 -0.0324  0.3194  0.0647
 3500W        W 7700   0.027   2.298  10.705 -0.0839 -0.0152  0.2061
 3501W        W 7701   2.262   7.665  11.977 -0.0998  0.0646  0.0074
 3502W        W 7702  10.120   7.221   9.651  0.0961  0.1397 -0.0754
 3503W        W 7703  10.405   3.778   9.802  0.1177  0.0712 -0.0597
 3504W        W 7704   4.528   3.180   4.912 -0.1070 -0.0856  0.2829
 3505W        W 7705   9.492   4.630   4.021 -0.1044 -0.0748 -0.1643
 3506W        W 7706   6.299   4.728  11.325  0.0422 -0.0588 -0.2558
 3507W        W 7707   2.289   2.049   9.210  0.1652 -0.0103 -0.0427
 3508W        W 7708   1.903   7.410   3.923 -0.0139 -0.0124  0.2836
 3509W        W 7709   1.302   2.532   8.362 -0.0375  0.2140  0.2780
 3510W        W 7710   9.796   1.242  10.166  0.0234 -0.1925  0.1785
 3511W        W 7711   0.330   6.079  10.819  0.0215 -0.1359  0.0038
 3512W        W 7712  10.203   6.848   1.256 -0.0869 -0.0623  0.2715
 3513W        W 7713   9.981   1.728  10.461 -0.1094  0.1186  0.0720
 3514W        W 7714   0.436   3.792  13.089 -0.1353  0.0281  0.2103
 3515W        W 7715   6.446   5.702  12.320  0.0352  0.0009 -0.0449
 3516W        W 7716   6.907   0.267  11.998 -0.1592  0.1202 -0.4286
 3517W        W 7717   0.908   4.658  10.866 -0.1152 -0.2599  0.0531
 3518W        W 7718   9.499   1.111  12.884 -0.0610  0.3334  0.2137
 3519W        W 7719   7.074   5.041  12.314  0.4751 -0.4209 -0.3488
 3520W        W 7720   3.306   7.401   1.732 -0.2119 -0.1000 -0.1102
 3521W        W 7721   7.382   8.102   1.882  0.0244  0.0870  0.0281
 3522W        W 7722   1.508   1.114   0.036 -0.0029  0.1814  0.0228
 3523W        W 7723   1.417  10.242  11.394 -0.2076 -0.1075  0.1752
 3524W        W 7724   7.274   1.040   0.626  0.0128  0.1414 -0.0545
 3525W        W 7725   4.283   3.640   2.056  0.3760 -0.1035 -0.0176
 3526W        W 7726   0.188   0.114   0.184 -0.3113 -0.2413 -0.1213
 3527W        W 7727   7.665   9.272  10.469  0.1180 -0.1035  0.0172
 3528W        W 7728   1.278   2.898   0.193 -0.2833  0.1852 -0.4171
 3529W        W 7729   0.305   8.240   0.567  0.2680 -0.0664  0.2297
 3530W        W 7730   5.756   1.052   3.311 -0.0441  0.2331  0.0729
 3531W        W 7731   5.172   8.456  11.577  0.1277  0.1136 -0.0896
 3532W        W 7732   5.620   5.601   4.335  0.5395 -0.2849 -0.0414
 3533W        W 7733   9.465   9.128   1.809  0.1989  0.1113 -0.3819
 3534W        W 7734   7.011   1.409  10.714 -0.1342  0.0915 -0.4460
 3535W        W 7735  10.241  10.188  13.138 -0.0523  0.2976  0.1446
 3536W        W 7736   0.116   6.796   0.001  0.0753  0.0213 -0.0929
 3537W        W 7737   8.480   4.388   2.295 -0.2705 -0.0205 -0.0777
 3538W        W 7738   4.232   8.976   0.964 -0.1629 -0.1881  0.4883
 3539W        W 7739   9.162   7.669   9.936 -0.0732  0.5348  0.1077
 3540W        W 7740   9.813   5.615   4.620  0.1125  0.2168 -0.1118
 3541W        W 7741   1.226   9.723   0.426  0.1238  0.0477 -0.0621
 3542W        W 7742   3.108   1.758   4.673  0.0705 -0.1359  0.1184
 3543W        W 7743   7.366   1.315   4.127 -0.0715  0.1440 -0.0051
 3544W        W 7744   6.862   3.797   5.034  0.3529  0.1049  0.1081
 3545W        W 7745   4.380   3.300   3.679 -0.0120 -0.1620 -0.0989
 3546W        W 7746   2.169   5.736  12.774  0.1188  0.0906 -0.1244
 3547W        W 7747   6.712   9.412   4.851  0.0942 -0.0951  0.4813
 3548W        W 7748   6.171   2.251   1.432 -0.1902 -0.1345  0.2396
 3549W        W 7749   6.033   5.024   2.375 -0.2269  0.1717 -0.5175
 3550W        W 7750   8.978   6.125   2.404  0.1176 -0.1097 -0.1622
 3551W        W 7751   9.449   3.138   5.173 -0.0031  0.3243 -0.2478
 3552W        W 7752   5.752   6.463  12.230  0.0785 -0.1101  0.2326
 3553W        W 7753   5.814   8.532   9.450 -0.2471  0.0635  0.4144
 3554W        W 7754   9.789   6.499   2.059  0.0299  0.3328 -0.0460
 3555W        W 7755   5.875   7.531   0.364  0.0722 -0.0539 -0.4448
 3556W        W 7756   5.183   2.379   2.524  0.0899 -0.1765  0.2414
 3557W        W 7757   2.813   3.018  12.567  0.1943  0.0790  0.0953
 3558W        W 7758   8.008   6.500   2.885 -0.5301  0.4103  0.0165
 3559W        W 7759   9.578   7.386   4.657  0.2284 -0.1151  0.0472
 3560W        W 7760   0.724   6.843  11.390 -0.3548  0.2526  0.0886
 3561W        W 7761  10.348   1.760   8.325 -0.1939  0.3098  0.1822
 3562W        W 7762   7.091   9.020  12.863 -0.0600 -0.3308 -0.4310
 3563W        W 7763   3.971   0.284   2.216  0.1722 -0.1910  0.0108
 3564W        W 7764   7.909  10.077   0.616 -0.2524  0.0868 -0.0497
 3565W        W 7765   4.594   4.925   2.878  0.2335 -0.2960  0.1177
 3566W        W 7766   4.422   2.211   3.447 -0.1924  0.0562 -0.0267
 3567W        W 7767   4.817   7.659  11.399 -0.0594  0.2533  0.2621
 3568W        W 7768   6.027   6.260   3.370  0.1664  0.0712  0.0012
 3569W        W 7769   7.381   3.716   4.276 -0.0049  0.0650 -0.1377
 3570W        W 7770   6.292   8.783   1.696 -0.1325  0.3367 -0.0528
 3571W        W 7771   8.543   3.027   3.654 -0.0245 -0.0355 -0.2308
 3572W        W 7772   6.826   6.719   1.568 -0.2844  0.2370  0.4675
 3573W        W 7773   5.814   8.584   3.131 -0.0006 -0.3169  0.4166
 3574W        W 7774   6.273   1.028   4.232  0.1303  0.1294  0.1248
 3575W        W 7775   9.374   4.125   4.734 -0.3206  0.1118 -0.3682
 3576W        W 7776   4.517   0.073  10.436  0.0938 -0.0743  0.2560
 3577W        W 7777  10.145   0.419  10.668 -0.1364  0.2122  0.2705
 3578W        W 7778   0.316   5.091  11.161 -0.0771  0.0901 -0.2055
 3579W        W 7779   7.899   3.853   0.310  0.0999 -0.1635  0.0037
 3580W        W 7780   9.729   8.027   4.224 -0.1148  0.0950  0.0438
 3581W        W 7781  10.330   4.623   3.120 -0.0833  0.2780  0.2772
 3582W        W 7782   7.843   6.873   1.660  0.3822  0.0026  0.2719
 3583W        W 7783   8.570   2.607   0.922 -0.1316 -0.0309  0.1900
 3584W        W 7784   1.003   3.989   2.185 -0.3023  0.1947 -0.3283
 3585W        W 7785   0.845   5.237   3.473  0.0424 -0.0841 -0.0098
 3586W        W 7786   4.092   5.235   3.595  0.0474  0.1090 -0.4815
 3587W        W 7787   9.894   2.668   9.943 -0.1718 -0.2199 -0.2065
 3588W        W 7788   7.526   3.571   0.623 -0.0384  0.0716 -0.1043
 3589W        W 7789   4.192   6.453  12.920  0.0490  0.0296  0.1053
 3590W        W 7790   2.578   3.640   8.598  0.2330  0.0104  0.2007
 3591W        W 7791   2.732   3.850  10.507 -0.1963  0.0951 -0.1605
 3592W        W 7792   0.734   3.449   0.237  0.1156 -0.3326  0.1083
 3593W        W 7793   2.802   6.834   9.660  0.0921 -0.2101  0.2861
 3594W        W 7794   8.920   7.169   1.930 -0.4528  0.0251 -0.0217
 3595W        W 7795   7.081   3.291   0.881 -0.0616 -0.2037  0.0967
 3596W        W 7796   8.361   4.480   9.133  0.1482  0.0592 -0.0856
 3597W        W 7797   6.501   2.309   0.380 -0.2460  0.3131  0.0203
 3598W        W 7798   7.012  10.055   4.300  0.0969  0.3214 -0.2254
 3599W        W 7799   2.777   5.184  10.184 -0.1060  0.0245  0.3619
 3600W        W 7800   8.462   2.061  12.747 -0.1259 -0.1184 -0.2315
 3601W        W 7801   9.764   6.281  13.403 -0.2788  0.0252 -0.0031
 3602W        W 7802   0.158   6.191  13.199 -0.0984 -0.1680 -0.2331
 3603W        W 7803   4.718   4.473   2.094  0.2245 -0.0465 -0.5440
 3604W        W 7804  10.171   4.883   4.242 -0.1498 -0.0595 -0.0197
 3605W        W 7805   5.932   5.090  10.406 -0.1041 -0.1317 -0.1008
 3606W        W 7806   5.752   7.500   8.604  0.1084  0.3646  0.2582
 3607W        W 7807   5.081   3.776   4.899  0.4006  0.1677 -0.1628
 3608W        W 7808   1.034   1.579   0.051  0.0062 -0.1419  0.3755
 3609W        W 7809   3.217   0.477   0.981 -0.1064  0.1898 -0.0583
 3610W        W 7810   8.769   7.854   3.969  0.0323 -0.1536  0.0534
 3611W        W 7811   9.318   1.211  11.563 -0.0171 -0.1334 -0.0388
 3612W        W 7812  10.293   0.871   4.777 -0.0223 -0.0563  0.0624
 3613W        W 7813   5.863   8.084   2.258  0.2633  0.0644 -0.0219
 3614W        W 7814   5.017   7.989   0.593 -0.3491 -0.1494 -0.0333
 3615W        W 7815   4.480   0.876   9.778 -0.0191  0.1552 -0.0866
 3616W        W 7816   7.511   9.175   0.705  0.2328  0.2572  0.0057
 3617W        W 7817   8.835   7.722   1.810 -0.1467  0.0395  0.3961
 3618W        W 7818   8.385   6.192  11.336  0.0345  0.2237 -0.3309
 3619W        W 7819   6.521   4.209   1.437 -0.3129  0.1190 -0.1637
 3620W        W 7820   9.840   6.504   1.038  0.0194  0.3227 -0.0467
 3621W        W 7821   3.568   0.109   8.642 -0.0648  0.0646 -0.2546
 3622W        W 7822   7.403   3.148   1.588 -0.2730  0.0872 -0.2638
 3623W        W 7823   0.469   7.925  12.141 -0.4425  0.0732  0.1428
 3624W        W 7824   7.850   4.361  10.074 -0.0265  0.2967  0.0678
 3625W        W 7825   4.778   7.124   3.197  0.2675 -0.2233 -0.0184
 3626W        W 7826   0.699   3.540   2.942  0.1540  0.0185  0.2358
 3627W        W 7827   9.161   6.715  12.790 -0.0018  0.1128  0.2526
 3628W        W 7828   0.417   2.253   2.477  0.2253  0.0010  0.0397
 3629W        W 7829   8.288   7.269   3.740  0.0399 -0.1690 -0.2755
 3630W        W 7830   3.280   8.806   0.399  0.0171 -0.0047 -0.1702
 3631W        W 7831   3.827   4.530   1.142  0.2093  0.0122 -0.2439
 3632W        W 7832   7.680   2.249   0.545 -0.1977  0.0774 -0.1944
 3633W        W 7833   4.951   9.968  13.135 -0.0192 -0.4356  0.1403
 3634W        W 7834   2.610   3.084   1.732  0.1742  0.2592  0.4473
 3635W        W 7835   2.888   9.967   1.834  0.0342  0.0711  0.0307
 3636W        W 7836   3.890   7.990  11.752  0.2231 -0.2332 -0.0304
 3637W        W 7837   8.946   0.597   1.276  0.0938  0.0435 -0.0768
 3638W        W 7838  10.209   7.533  12.163  0.1274 -0.0721  0.1649
 3639W        W 7839   6.524   9.962  12.742  0.2128  0.1507  0.2600
 3640W        W 7840   6.162   0.845   2.038 -0.2939 -0.1051  0.4884
 3641W        W 7841   2.007   2.211   3.530 -0.1439  0.0100 -0.1462
 3642W        W 7842   4.964   7.477   2.876 -0.0534 -0.0151 -0.0706
 3643W        W 7843   2.755   2.979  11.964 -0.0150  0.2797 -0.1424
 3644W        W 7844   4.197   9.248   3.541 -0.0140  0.0185  0.0909
 3645W        W 7845   0.920   4.582  13.346  0.0180 -0.0426  0.0563
 3646W        W 7846   6.904   1.003  10.486  0.0394 -0.2087 -0.3705
 3647W        W 7847   8.202   0.513  11.704  0.1167 -0.3817 -0.1275
 3648W        W 7848   9.874   7.640   2.336 -0.0886 -0.1541 -0.0186
 3649W        W 7849   4.023   7.345  10.479  0.1452 -0.3314 -0.0012
 3650W        W 7850   8.114   3.861  10.152  0.1691  0.0495  0.1348
 3651W        W 7851   2.558   4.725   0.692 -0.0187 -0.3056 -0.0653
 3652W        W 7852  10.392   5.380   9.895 -0.1726 -0.1071 -0.1977
 3653W        W 7853   7.303   9.010   8.477 -0.0095 -0.0336 -0.0168
 3654W        W 7854   9.304   9.997   2.894  0.2229 -0.0123 -0.0578
 3655W        W 7855   2.945   9.774   9.777 -0.0542  0.1432  0.2198
 3656W        W 7856   7.688   4.762  13.437 -0.1965  0.2028  0.2030
 3657W        W 7857   3.508   7.913   9.359  0.2996  0.1186  0.0144
 3658W        W 7858   6.910   4.517  10.917  0.0534 -0.0005  0.1628
 3659W        W 7859   6.346  10.341   8.820  0.3899 -0.1042  0.1305
 3660W        W 7860   4.431   2.522   2.120 -0.0244  0.1861  0.1002
 3661W        W 7861   6.224   6.773   4.195  0.0642  0.1005 -0.0935
 3662W        W 7862   5.785   2.132   0.068  0.1087  0.3111 -0.1149
 3663W        W 7863   8.489   1.173  12.479  0.0663 -0.2128  0.2542
 3664W        W 7864   4.466   8.533   1.066 -0.2280 -0.2826  0.0002
 3665W        W 7865   8.833   3.078   1.621  0.3498 -0.1098  0.1592
 3666W        W 7866   4.769   3.117   4.402  0.1190 -0.2684 -0.1870
 3667W        W 7867   9.038   8.116  10.486 -0.0669 -0.1459  0.1064
 3668W        W 7868   3.766   9.297  12.548  0.0025 -0.2915 -0.1398
 3669W        W 7869   3.521   8.631  11.120  0.2019  0.2738  0.2086
 3670W        W 7870   7.890   7.861  12.600 -0.0157  0.1592 -0.1584
 3671W        W 7871   9.825   3.907  11.821 -0.1675 -0.0552  0.0458
 3672W        W 7872   8.294   1.623  12.464 -0.2582  0.0935  0.1718
 3673W        W 7873   6.094   8.328  11.390 -0.0551 -0.0430 -0.0387
 3674W        W 7874   6.940   9.249   0.560  0.2547  0.1880 -0.0786
 3675W        W 7875   6.588   8.486   5.341 -0.0764 -0.1637 -0.0994
 3676W        W 7876   9.750   4.993   3.776 -0.1086  0.3937  0.3974
 3677W        W 7877   2.968   8.725  11.237  0.1662  0.2602 -0.2908
 3678W        W 7878   6.184   3.130   0.059 -0.1927 -0.0631 -0.1981
 3679W        W 7879   0.597   3.662  12.621 -0.0372 -0.0505  0.0789
 3680W        W 7880   9.514   0.679   9.274  0.0097  0.1571  0.1024
 3681W        W 7881  10.303   2.327   0.675 -0.1450 -0.2021 -0.2400
 3682W        W 7882   6.996   9.289   9.093  0.1998  0.0060 -0.0771
 3683W        W 7883   4.061   3.864   0.817 -0.0954 -0.1866  0.3718
 3684W        W 7884   8.611   2.002   5.086 -0.2547  0.0618 -0.0656
 3685W        W 7885   5.157   2.833   3.720  0.0829 -0.0824  0.2142
 3686W        W 7886   1.293   5.274   3.243 -0.1405  0.2472  0.2346
 3687W        W 7887   7.838   8.303  11.178 -0.0501  0.0911  0.0759
 3688W        W 7888   9.726   4.330   0.384  0.2124  0.2674  0.0235
 3689W        W 7889   7.911   5.888  11.055 -0.1744 -0.0412 -0.3356
 3690W        W 7890   9.911   5.376  11.503 -0.2825  0.3990  0.1695
 3691W        W 7891   8.102   8.945   9.710 -0.1340 -0.1312  0.4469
 3692W        W 7892   1.868   3.819   3.244 -0.0498  0.1037 -0.0132
 3693W        W 7893   2.374   8.405   1.477  0.4026  0.1093  0.1593
 3694W        W 7894   2.781   7.482  13.406  0.2643  0.1746  0.0485
 3695W        W 7895   2.244   1.418   1.203 -0.1409 -0.0064 -0.1299
 3696W        W 7896   3.594   9.280   1.525 -0.1655  0.0070 -0.1461
 3697W        W 7897   8.037   4.291  12.762 -0.2554 -0.0037  0.3092
 3698W        W 7898   5.245   7.510   3.764 -0.1098  0.1080 -0.0023
 3699W        W 7899   5.684   7.336   3.606  0.2089 -0.0889 -0.2184
 3700W        W 7900   9.081   9.060   2.179  0.0003 -0.1281 -0.0714
 3701W        W 7901   8.477   8.188   1.168 -0.0438  0.0417 -0.1439
 3702W        W 7902   7.979  10.305  11.719  0.1952 -0.1321  0.1190
 3703W        W 7903   1.293   7.532  11.299 -0.0502 -0.1589 -0.0033
 3704W        W 7904   6.790   9.060   3.799 -0.0275  0.0862  0.1675
 3705W        W 7905   6.149   8.356  10.382 -0.0290 -0.4908 -0.0824
 3706W        W 7906   2.270   9.060  11.142 -0.3654  0.4106  0.0418
 3707W        W 7907   8.924   6.248  10.311 -0.0057 -0.0739  0.2956
 3708W        W 7908   7.811   0.786   9.084  0.1660  0.1097 -0.1119
 3709W        W 7909   9.806   7.488  11.025  0.2162  0.1945 -0.3849
 3710W        W 7910   3.420   5.302  12.051 -0.0570 -0.0968 -0.2129
 3711W        W 7911   9.193   3.849  11.372 -0.0521  0.0950 -0.2043
 3712W        W 7912   0.682   8.971   2.910 -0.2407 -0.0407 -0.3046
 3713W        W 7913   9.897   4.255  11.102  0.0702 -0.0887 -0.2686
 3714W        W 7914   7.467   1.467   0.426  0.0273 -0.2784 -0.2245
 3715W        W 7915   2.693   1.438  12.128 -0.0784  0.1065 -0.0647
 3716W        W 7916   9.966   4.165   1.311 -0.0647 -0.1411 -0.1008
 3717W        W 7917   8.191   1.933   1.574 -0.1413  0.1832  0.2868
 3718W        W 7918   6.837   5.722  10.323  0.0792  0.3087  0.1442
 3719W        W 7919   7.013   8.595   4.933 -0.1193 -0.1690 -0.1552
 3720W        W 7920   2.504   6.176   4.172 -0.0413 -0.3050 -0.0469
 3721W        W 7921   7.918   1.277   0.189  0.1129  0.0093  0.1107
 3722W        W 7922   9.041   7.628  12.695 -0.1569 -0.3556  0.0585
 3723W        W 7923   5.500   9.610  10.425  0.2942 -0.1074 -0.0186
 3724W        W 7924   0.548   1.936   0.127 -0.2390  0.0134 -0.0382
 3725W        W 7925   3.497   5.572  10.024 -0.1845 -0.3366 -0.0290
 3726W        W 7926   5.079   8.615  12.487  0.1641 -0.0281  0.1428
 3727W        W 7927   4.742   4.497  12.308  0.2487 -0.0212  0.0943
 3728W        W 7928   5.379   1.889   2.757 -0.3185 -0.0289 -0.0621
 3729W        W 7929   1.163   8.802   3.395 -0.1324  0.1062  0.1388
 3730W        W 7930   5.450   6.081   1.681  0.1878 -0.0119  0.2138
 3731W        W 7931   8.104   9.765  11.602  0.1185  0.0052  0.2704
 3732W        W 7932   3.891   1.954   1.039  0.4609 -0.1169  0.1704
 3733W        W 7933   5.832   0.238   1.280 -0.1147  0.1499  0.1703
 3734W        W 7934   3.554   7.995  13.048  0.1570  0.2352  0.0078
 3735W        W 7935   9.305   6.130  11.204  0.4735 -0.0629 -0.0393
 3736W        W 7936   6.270   8.769  12.942  0.0622  0.0042  0.0572
 3737W        W 7937   3.270   8.078  12.119 -0.3753  0.0743 -0.3367
 3738W        W 7938   3.028   3.729   2.453  0.2396  0.3521  0.0356
 3739W        W 7939   2.211   5.779  11.172 -0.1838  0.1997  0.2078
 3740W        W 7940   6.986   7.990   2.943  0.3957  0.0392  0.1894
 3741W        W 7941   3.368   4.801  12.082  0.0053  0.0278  0.0103
 3742W        W 7942   1.015   6.894   3.911 -0.0710  0.0190  0.0653
 3743W        W 7943   9.205   3.780   2.127 -0.2566 -0.2235 -0.2416
 3744W        W 7944   6.097   5.799   4.470 -0.0935 -0.1598 -0.2240
 3745W        W 7945   7.490   8.451   9.112 -0.0755  0.1896  0.3940
 3746W        W 7946   4.199   6.244   0.577  0.1299 -0.0386 -0.0361
 3747W        W 7947   4.485   8.505   3.320  0.0894 -0.0042 -0.1672
 3748W        W 7948   2.010   7.807   0.319 -0.2318  0.3526 -0.0363
 3749W        W 7949   9.286   7.431  10.927  0.4563  0.1010  0.0043
 3750W        W 7950   2.471   4.902   1.152 -0.0076 -0.0826 -0.0265
 3751W        W 7951   7.761  10.221   3.758  0.0191 -0.0377  0.3430
 3752W        W 7952   6.967   7.821   9.772 -0.4446  0.2183 -0.2420
 3753W        W 7953   4.025   4.625  12.898  0.1779 -0.1241 -0.0246
 3754W        W 7954   1.156   6.614  11.464  0.0618 -0.1697 -0.0973
 3755W        W 7955   7.234   9.437   2.235  0.0308  0.0388 -0.1101
 3756W        W 7956   9.874   8.006  11.042  0.1061 -0.1717 -0.2301
 3757W        W 7957   4.542   8.171   2.520  0.0731 -0.0743  0.0132
 3758W        W 7958   3.687   1.087   1.159  0.0925  0.3128 -0.1594
 3759W        W 7959   1.741   2.990  11.575  0.2131 -0.0129 -0.2364
 3760W        W 7960   1.277   5.906   4.181  0.3050  0.0341 -0.1270
 3761W        W 7961   2.936   4.058  12.589 -0.4745  0.2070 -0.4524
 3762W        W 7962   8.925   1.011  13.428  0.0307  0.0113 -0.0495
 3763W        W 7963   9.646   0.311  10.949 -0.0750  0.1243  0.2584
 3764W        W 7964   4.472   6.819  13.175 -0.1102  0.0452  0.1628
 3765W        W 7965  10.014   2.948   4.295 -0.3014  0.0389 -0.2481
 3766W        W 7966   6.995  10.025  13.065 -0.2981 -0.2206  0.1861
 3767W        W 7967   5.024   0.989   3.853 -0.2833  0.1351 -0.0085
 3768W        W 7968   0.181   2.320   9.068 -0.0149  0.0524 -0.0410
 3769W        W 7969   0.107   0.012  11.758  0.3656  0.0108 -0.1745
 3770W        W 7970   7.515   5.748   2.937  0.0931 -0.1358  0.0909
 3771W        W 7971   4.138   9.367   2.113  0.2620 -0.1002 -0.1099
 3772W        W 7972   0.424   1.173   8.738  0.1101 -0.2758 -0.1548
 3773W        W 7973   6.152   8.091  12.504 -0.1454 -0.1505  0.0895
 3774W        W 7974   7.699   8.849  11.848 -0.0280 -0.1752 -0.0756
 3775W        W 7975   5.044   8.076  12.363  0.0908  0.3639  0.2224
 3776W        W 7976   7.461   2.267  12.810 -0.0607 -0.0722  0.0958
 3777W        W 7977   3.812   9.239   4.328  0.1107  0.0912 -0.0306
 3778W        W 7978   4.256   6.809   0.137 -0.0429  0.1309 -0.0805
 3779W        W 7979   3.800   0.359  11.003 -0.1060 -0.1648 -0.0081
 3780W        W 7980   9.901   9.423  12.099 -0.1668 -0.0994  0.2067
 3781W        W 7981   1.837   9.911  11.536 -0.2628 -0.0169  0.2949
 3782W        W 7982   5.370   9.783   1.518  0.0168 -0.3062 -0.0903
 3783W        W 7983   6.824   4.514   4.344  0.1853  0.1329  0.0364
 3784W        W 7984   1.980   0.332  13.130  0.0479  0.1885  0.0567
 3785W        W 7985   5.475   4.995  12.517 -0.0263  0.2002 -0.1357
 3786W        W 7986   4.425   3.894  12.810  0.3108 -0.0353 -0.1618
 3787W        W 7987   2.373   5.407  12.395 -0.0161 -0.2831 -0.2051
 3788W        W 7988   7.984   4.557  12.337  0.0636 -0.2063  0.2973
 3789W        W 7989   9.511   4.934   9.831 -0.1155  0.0105  0.0757
 3790W        W 7990   1.789   3.036  10.827  0.0492 -0.0834 -0.1564
 3791W        W 7991   0.208   8.084   1.784  0.0044  0.1833  0.4500
 3792W        W 7992  10.189   0.853  10.264 -0.0904 -0.1489  0.0493
 3793W        W 7993   5.769   3.923  13.354 -0.0315  0.2618  0.2219
 3794W        W 7994   0.516   3.432   0.747  0.0176  0.1635  0.3152
 3795W        W 7995   5.489   8.101   1.683 -0.1149 -0.1277  0.1978
 3796W        W 7996   4.221   0.717   0.199  0.3756  0.3446  0.0337
 3797W        W 7997   8.175   9.699   4.291  0.2109  0.1140  0.2992
 3798W        W 7998   6.872   1.144  12.717 -0.0189  0.2371  0.4004
 3799W        W 7999   1.787  10.000  10.412  0.2378 -0.0234  0.2868
 3800W        W 8000   3.596   9.866   2.941  0.0631 -0.0851  0.2401
 3801W        W 8001   0.213   5.376  10.324 -0.1697  0.2415  0.0474
 3802W        W 8002  10.215   7.178  11.255 -0.2373 -0.1652  0.0215
 3803W        W 8003   0.927   3.570  10.086 -0.0239  0.1237  0.1335
 3804W        W 8004   0.085   1.635  13.423 -0.0717 -0.0221 -0.1500
 3805W        W 8005   3.558  10.337   9.609  0.0227  0.2886 -0.0796
 3806W        W 8006   1.878   5.718   0.079  0.0923 -0.2403 -0.1023
 3807W        W 8007   2.355  10.454   0.520 -0.2410 -0.2227 -0.0782
 3808W        W 8008   0.783   7.442   0.537  0.2020  0.0337  0.0763
 3809W        W 8009   0.064   4.967   1.343  0.2399  0.2470 -0.0333
 3810W        W 8010   7.485   0.639   2.094  0.1226  0.2160 -0.0845
 3811W        W 8011   1.619   7.989   3.250  0.0497 -0.0661 -0.1943
 3812W        W 8012   5.250   1.415   9.785  0.1397  0.2627 -0.0276
 3813W        W 8013   3.604   7.648   2.838 -0.1557 -0.0516  0.0871
 3814W        W 8014   3.027   6.532   1.306 -0.1170  0.1689  0.0747
 3815W        W 8015   8.760   5.026   4.515 -0.0364 -0.1432 -0.1530
 3816W        W 8016   2.274  10.014  12.277 -0.2570  0.0278  0.0778
 3817W        W 8017   8.320   8.776  12.494  0.0049  0.0756 -0.2540
 3818W        W 8018   7.456   0.768   4.683  0.0610  0.1729  0.0040
 3819W        W 8019   0.911   3.335  11.169  0.0523  0.0935  0.0499
 3820W        W 8020   5.861   7.564   0.872 -0.1412 -0.4684 -0.1201
 3821W        W 8021   9.953   0.092  13.291  0.0552 -0.2840 -0.2155
 3822W        W 8022   9.843   1.603   4.412  0.0060  0.0331  0.0755
 3823W        W 8023   4.023   0.773   1.958  0.2334  0.1941  0.2933
 3824W        W 8024   0.175   3.515   4.317  0.1267 -0.0660  0.1915
 3825W        W 8025  10.213   6.652  11.185 -0.0352 -0.5013  0.2907
 3826W        W 8026   7.816   7.822   3.325 -0.1152  0.0688 -0.4318
 3827W        W 8027  10.332   3.785  12.746  0.2179 -0.0041  0.0388
 3828W        W 8028   3.412   2.977   4.552  0.3219  0.1763  0.4553
 3829W        W 8029   0.029  10.253  12.530 -0.1306 -0.0832 -0.1084
 3830W        W 8030   3.738   6.388   2.866 -0.1103 -0.1916 -0.0967
 3831W        W 8031   9.770   6.868   9.847  0.0240 -0.1866  0.0519
 3832W        W 8032   5.010   9.175   1.038  0.1818 -0.0726 -0.1477
 3833W        W 8033   6.544   9.259   0.917 -0.1747 -0.1747  0.0771
 3834W        W 8034   4.691   3.767   9.287  0.2236 -0.1599  0.1478
 3835W        W 8035   4.223   5.829   4.035  0.0894  0.1928 -0.1489
 3836W        W 8036   8.804   9.987  10.067  0.3328 -0.1153 -0.2721
 3837W        W 8037   0.943   3.372   1.574 -0.2497  0.1530 -0.2833
 3838W        W 8038   3.527   5.596   1.608  0.2666  0.1806  0.2148
 3839W        W 8039   1.024   9.854   1.200 -0.0545  0.2016 -0.1985
 3840W        W 8040   4.165   2.426   2.574 -0.3087 -0.0534 -0.0319
 3841W        W 8041   0.205   2.294   0.031 -0.2350  0.1896  0.0474
 3842W        W 8042   3.342   4.278  11.899  0.0672 -0.0047 -0.1413
 3843W        W 8043   4.438   5.769  13.441  0.1699 -0.0100  0.0502
 3844W        W 8044   8.994   8.640   3.534 -0.1990  0.1858 -0.2707
 3845W        W 8045   6.257   4.672  13.335  0.0891 -0.1176  0.0016
 3846W        W 8046   6.837   2.672   0.256 -0.0281 -0.0728  0.0357
 3847W        W 8047   5.668   6.195  11.182 -0.3748 -0.2574  0.0859
 3848W        W 8048   2.148   1.815   4.584 -0.2254  0.2417 -0.3410
 3849W        W 8049   5.037   2.429  13.107 -0.2643  0.0193 -0.2583
 3850W        W 8050   4.875   9.753   4.892 -0.1197 -0.0324  0.0107
 3851W        W 8051   6.005   4.217  11.027  0.2935  0.0289  0.2828
 3852W        W 8052   8.713   5.463   3.249 -0.1254 -0.0115  0.0050
 3853W        W 8053   6.024   1.443   3.189  0.1806 -0.0538 -0.0230
 3854W        W 8054   6.978   2.511  12.923 -0.0359  0.2054  0.0151
 3855W        W 8055   5.358   3.601  12.107  0.2731  0.0686  0.2227
 3856W        W 8056   9.662   9.972   3.658  0.3288  0.1255  0.1055
 3857W        W 8057   6.111   3.312   1.854 -0.3542  0.0034 -0.5218
 3858W        W 8058   1.174   2.023   3.119  0.0189  0.0847 -0.3275
 3859W        W 8059   4.709   7.235  12.588  0.1850  0.1659  0.2604
 3860W        W 8060   6.958   4.750  10.457  0.1171  0.1170  0.1313
 3861W        W 8061   9.472   3.332   0.419  0.1574 -0.2625 -0.0547
 3862W        W 8062   3.154   6.928  10.517 -0.1064 -0.1993 -0.1038
 3863W        W 8063   4.326   1.153  13.130 -0.0783  0.4515 -0.3214
 3864W        W 8064   8.452   8.722   9.329 -0.0451 -0.2496  0.2802
 3865W        W 8065   2.906   3.845  13.078  0.2576 -0.0761  0.2211
 3866W        W 8066   0.584   1.608  10.467 -0.1512 -0.0732  0.3045
 3867W        W 8067  10.269   7.458   2.653 -0.0497 -0.1199 -0.1309
 3868W        W 8068   4.379   2.958  13.197 -0.0449 -0.2636  0.0311
 3869W        W 8069   4.087   8.153   0.654 -0.5871  0.1464 -0.1799
 3870W        W 8070   8.832   1.402   3.349  0.0975 -0.0586  0.0247
 3871W        W 8071   4.615   2.140   0.392  0.1971  0.2672  0.3981
 3872W        W 8072   6.061   2.486   0.607  0.4304 -0.0273 -0.0498
 3873W        W 8073   2.820   2.711  11.525 -0.1209  0.0755  0.0760
 3874W        W 8074   3.576   9.479   4.009  0.1168  0.0733 -0.0627
 3875W        W 8075   3.892   5.452  10.307  0.1182 -0.1680 -0.1842
 3876W        W 8076   8.320   3.550   4.292 -0.0091  0.0999 -0.1078
 3877W        W 8077   7.526   9.500   3.498 -0.0803 -0.1644  0.4251
 3878W        W 8078  10.039   7.744  12.615 -0.1508 -0.4122 -0.3378
 3879W        W 8079   4.373   1.234  10.095 -0.2523 -0.2623 -0.2201
 3880W        W 8080   6.371   7.766   9.802 -0.0889  0.1612  0.1771
 3881W        W 8081   2.526   5.398   3.982  0.0574  0.2693  0.0037
 3882W        W 8082   6.093   2.901   1.601  0.0878  0.1800  0.2453
 3883W        W 8083   0.667   6.365  13.400  0.5567  0.1074  0.2196
 3884W        W 8084   4.698   6.392  11.345 -0.2047  0.1150  0.2102
 3885W        W 8085   6.066   8.117   3.866 -0.1535 -0.0714  0.0866
 3886W        W 8086   1.494   1.499   9.510  0.2630 -0.1462  0.1159
 3887W        W 8087   1.297   2.888   3.278  0.0851 -0.2004  0.0424
 3888W        W 8088   6.436   7.332   3.303 -0.0829 -0.2445 -0.1606
 3889W        W 8089   5.930   0.288  12.790 -0.1000 -0.1997  0.0190
 3890W        W 8090  10.144   3.403   2.374  0.3654  0.1116  0.1768
 3891W        W 8091   3.448   4.555  12.889 -0.0850 -0.0529 -0.1132
 3892W        W 8092   1.512   2.491   1.082 -0.0258  0.1568  0.0291
 3893W        W 8093   3.817   5.026   0.949  0.1580 -0.1853  0.0272
 3894W        W 8094   5.390   1.745  10.133  0.0862  0.0026  0.0664
 3895W        W 8095   0.891   5.860  13.312 -0.0149  0.3973  0.2971
 3896W        W 8096  10.362   1.808   4.393  0.2387 -0.1497 -0.0126
 3897W        W 8097   3.800   3.911   9.538 -0.1426 -0.1201 -0.2982
 3898W        W 8098   5.611   2.206   9.246 -0.2397 -0.1751  0.1860
 3899W        W 8099   8.035   2.934   0.366  0.0089  0.2217  0.1642
 3900W        W 8100  10.298   5.795  13.109  0.0070 -0.2652  0.2763
 3901W        W 8101   1.978   1.144   4.247  0.0955  0.1433  0.2790
 3902W        W 8102   5.897   6.328   4.488 -0.0344  0.1948 -0.0515
 3903W        W 8103   0.577   5.969  11.997  0.1780 -0.1527 -0.1533
 3904W        W 8104   9.056   3.684  12.179 -0.1203 -0.1318 -0.1736
 3905W        W 8105   9.608   4.539  10.778 -0.4638 -0.2426 -0.5003
 3906W        W 8106   1.307   3.616  13.171 -0.3688 -0.3147 -0.0980
 3907W        W 8107   7.336   1.145  13.028 -0.0158  0.1741 -0.2064
 3908W        W 8108   5.015   0.705   2.876  0.0648 -0.0278 -0.0903
 3909W        W 8109   3.301   2.774  11.741  0.1125  0.0733  0.1530
 3910W        W 8110   6.392   0.251   1.284  0.1463  0.0353  0.1287
 3911W        W 8111   8.414   5.724  12.030  0.0807 -0.0080  0.1033
 3912W        W 8112   6.628  10.432  12.354  0.0466  0.2018  0.1398
 3913W        W 8113   4.692   2.395   2.535 -0.2885  0.1360  0.0392
 3914W        W 8114   6.444   2.053   2.923  0.1403  0.1583 -0.1006
 3915W        W 8115   7.424   4.490  11.147 -0.2327 -0.2717 -0.1848
 3916W        W 8116   1.391   5.483   8.726 -0.2136  0.2071  0.0064
 3917W        W 8117   3.813   4.023   4.082 -0.0478 -0.1508 -0.1069
 3918W        W 8118   8.954   1.201   0.458 -0.3668 -0.0471  0.1082
 3919W        W 8119   6.634   3.916   3.147  0.0905 -0.1300  0.0566
 3920W        W 8120   9.188   5.281   0.408 -0.2518  0.2024  0.0911
 3921W        W 8121  10.131   6.723   3.170 -0.2498 -0.0152 -0.2137
 3922W        W 8122   9.282   4.046  11.838  0.0617 -0.2979 -0.2407
 3923W        W 8123   1.060   9.918   3.036 -0.1082 -0.1163  0.1562
 3924W        W 8124   4.235   4.076  11.466  0.0941  0.2210 -0.3357
 3925W        W 8125   4.631   0.294   9.003  0.2304 -0.2412  0.0054
 3926W        W 8126   4.460   9.081  11.351  0.2452 -0.3507 -0.2796
 3927W        W 8127   7.136  10.255   0.306  0.1871 -0.1341  0.2276
 3928W        W 8128   2.983   5.959   4.102  0.1675 -0.0375  0.1022
 3929W        W 8129   9.333   7.693  13.239  0.0492  0.1114  0.2964
 3930W        W 8130   3.008   5.894  10.506 -0.1834 -0.0107  0.1373
 3931W        W 8131   3.054  10.381  12.466 -0.0595 -0.1203  0.1352
 3932W        W 8132   5.146   5.341  12.759  0.0780  0.0364 -0.2283
 3933W        W 8133   7.147   8.026   9.191 -0.0651  0.1507 -0.0318
 3934W        W 8134  10.162   2.219  12.424 -0.0332 -0.0674 -0.1836
 3935W        W 8135   9.209   5.291   2.467  0.4104  0.1067 -0.1002
 3936W        W 8136   6.233   8.820   8.828  0.0982  0.0768  0.0807
 3937W        W 8137   2.914   0.826   8.708 -0.2079  0.1558 -0.1243
 3938W        W 8138   0.257   6.739   3.139  0.0970 -0.1059  0.1086
 3939W        W 8139   5.443   3.606   8.701  0.0276 -0.1723 -0.0753
 3940W        W 8140   7.439   7.516   3.547 -0.1461 -0.1990  0.0232
 3941W        W 8141   9.799   3.885   4.571 -0.3514 -0.2915 -0.0075
 3942W        W 8142   3.548   4.467  10.217 -0.1589 -0.0369 -0.1634
 3943W        W 8143   9.926   3.082  10.411 -0.0514 -0.0250  0.0211
 3944W        W 8144   0.817   2.228   4.945 -0.3014  0.0601 -0.1836
 3945W        W 8145   8.765   1.524   0.107 -0.2322 -0.1504  0.0424
 3946W        W 8146   6.712  10.268  11.815 -0.1733 -0.4156 -0.0260
 3947W        W 8147   5.087   1.339  11.714 -0.0987 -0.0988 -0.0892
 3948W        W 8148   7.548   8.663   3.131 -0.1944 -0.1084 -0.0155
 3949W        W 8149   9.554   7.834  11.382  0.1192 -0.0324  0.2325
 3950W        W 8150   9.948   3.705   1.024 -0.0076  0.0513 -0.2823
 3951W        W 8151   9.759   8.829   3.059  0.1938  0.0091  0.2554
 3952W        W 8152   2.920   6.615   2.312  0.0695  0.0335 -0.1887
 3953W        W 8153   4.541   4.794  12.774  0.3491 -0.1271 -0.2391
 3954W        W 8154   0.747   1.149  10.337 -0.0297 -0.0020 -0.2265
 3955W        W 8155   1.409   4.202   0.441 -0.1190  0.1633  0.0855
 3956W        W 8156   1.241   6.333   2.150  0.4601  0.0537  0.0559
 3957W        W 8157   7.063   4.213  13.015  0.0106  0.0912 -0.0237
 3958W        W 8158   7.020   5.897   2.088  0.2006 -0.3596 -0.2379
 3959W        W 8159   0.965   2.362  11.844  0.2517  0.0446  0.3922
 3960W        W 8160   1.086   0.766   4.458  0.0581  0.2406 -0.1707
 3961W        W 8161   0.067   1.751   3.583  0.0414 -0.0562 -0.1065
 3962W        W 8162   8.745   3.245   9.704 -0.0803 -0.0618 -0.0043
 3963W        W 8163   4.352   1.010  11.051  0.0999 -0.1001  0.2354
 3964W        W 8164   4.478   8.640   9.658  0.1446 -0.1802  0.1047
 3965W        W 8165   0.723   8.803  13.219 -0.1319  0.0617 -0.1920
 3966W        W 8166   7.197   0.393   4.210  0.3682 -0.2231 -0.0962
 3967W        W 8167   4.725   6.261   9.601  0.1741 -0.0811  0.0528
 3968W        W 8168   1.159   5.701   3.302 -0.0881 -0.0307 -0.1807
 3969W        W 8169   4.065   0.598  13.131 -0.2442 -0.1770  0.1146
 3970W        W 8170   5.118   4.257   3.570 -0.2387 -0.1697  0.0985
 3971W        W 8171  10.453   3.471   1.671  0.0611 -0.0254  0.3193
 3972W        W 8172   3.901   9.279  12.087 -0.1482 -0.1985  0.1669
 3973W        W 8173   9.407   6.807   0.326  0.3156  0.1534  0.0166
 3974W        W 8174   7.290   4.790   3.978 -0.1078 -0.4689 -0.0165
 3975W        W 8175   6.189   0.047   2.139  0.1259 -0.2648 -0.0233
 3976W        W 8176   4.074   6.678   3.788 -0.1004  0.1992  0.0269
 3977W        W 8177   8.062   4.826   4.484 -0.3797  0.3331 -0.0900
 3978W        W 8178   8.883   3.321   0.563 -0.1290  0.0049  0.0562
 3979W        W 8179   1.314   2.722   1.556 -0.3303  0.2643 -0.1757
 3980W        W 8180   7.350  10.316  13.351  0.0760 -0.3438  0.0026
 3981W        W 8181   0.795   6.806   3.459 -0.3075 -0.0399 -0.0526
 3982W        W 8182   7.006   8.133   1.529 -0.0232 -0.3056 -0.0788
 3983W        W 8183   6.352   3.331   3.108 -0.1489  0.1334  0.2422
 3984W        W 8184   5.036   8.373   2.490 -0.2328  0.0115  0.0733
 3985W        W 8185   1.881   4.297   9.544  0.5019  0.0320 -0.0746
 3986W        W 8186   7.553   8.305   1.454  0.1465 -0.0376  0.0636
 3987W        W 8187   2.288   1.253  12.389  0.3844 -0.1871  0.2018
 3988W        W 8188   7.426   9.180  11.423 -0.1237 -0.0469  0.1744
 3989W        W 8189   1.273   5.475  11.816 -0.0923  0.0427  0.0861
 3990W        W 8190   5.644   6.279   9.112 -0.0267  0.1561 -0.3592
 3991W        W 8191   7.731   2.228   1.548  0.1623  0.4353  0.2960
 3992W        W 8192  10.365   3.576   0.269 -0.1366  0.1534 -0.1149
 3993W        W 8193   0.344   8.454   0.063 -0.0809  0.0291  0.2885
 3994W        W 8194   6.295   3.824   4.151  0.2262 -0.1534 -0.2675
 3995W        W 8195   8.346   2.112   9.064 -0.0355  0.0590  0.2082
 3996W        W 8196   0.967   1.799  11.694  0.0628  0.0793 -0.1092
 3997W        W 8197   7.087   1.604   8.811  0.0587 -0.0426  0.0479
 3998W        W 8198   0.616   2.175   9.978 -0.1143  0.1994 -0.1248
 3999W        W 8199   6.454   6.599   9.068 -0.2452 -0.2869 -0.0110
 4000W        W 8200   0.429   5.602   1.631 -0.3950 -0.3761 -0.2873
 4001W        W 8201   7.726   1.837   0.136  0.0885  0.0543  0.2303
 4002W        W 8202   5.069   5.807   2.596 -0.0034  0.1672  0.0571
 4003W        W 8203   8.972  10.298   1.271 -0.1833 -0.0850  0.0819
 4004W        W 8204   5.002   3.967   1.236 -0.3373  0.1211  0.0014
 4005W        W 8205   4.261   0.596   2.571  0.0858 -0.0039 -0.0058
 4006W        W 8206   8.322   6.995   1.473  0.2648  0.2126  0.1153
 4007W        W 8207   5.223   1.296   2.142  0.1585  0.2121  0.2671
 4008W        W 8208   0.173   1.059   4.221 -0.0210  0.1392  0.1205
 4009W        W 8209   5.267   7.464   2.464 -0.2607  0.0696  0.1474
 4010W        W 8210   4.620   0.946   2.650 -0.3239  0.0440 -0.3443
 4011W        W 8211   7.897   6.677  10.293  0.0537 -0.0211  0.0943
 4012W        W 8212   6.324   6.427  12.080 -0.1203  0.0054 -0.0234
 4013W        W 8213   3.097   1.914   3.712 -0.2270  0.0102  0.6458
 4014W        W 8214   0.163   9.304  11.937  0.2279 -0.0363  0.2630
 4015W        W 8215   6.961   3.187  12.094 -0.2994 -0.2045  0.0416
 4016W        W 8216   1.669   5.906  12.620  0.0079  0.0343  0.2126
 4017W        W 8217   2.860   8.315   9.892 -0.5191 -0.3096 -0.2327
 4018W        W 8218   0.142   2.204   4.536 -0.1380 -0.1719  0.2481
 4019W        W 8219   3.770   2.468  12.195  0.1472 -0.3104 -0.1000
 4020W        W 8220   5.174   5.952   4.481 -0.2265  0.0521  0.0239
 4021W        W 8221   3.106  10.438   3.975 -0.0753  0.1652  0.0849
 4022W        W 8222   8.262   1.638   0.526  0.1651  0.1472 -0.1025
 4023W        W 8223   7.274   1.477   3.197 -0.1133 -0.0127 -0.0109
 4024W        W 8224   9.864   0.185  11.988 -0.0405 -0.3606  0.1534
 4025W        W 8225   6.450   3.285   8.801 -0.1336  0.1026 -0.3800
 4026W        W 8226   1.529  10.103  12.576  0.3949 -0.0268 -0.1320
 4027W        W 8227   0.586   1.619   8.876 -0.1012  0.0036 -0.0914
 4028W        W 8228   1.958   2.706  11.980  0.1875  0.0453  0.3356
 4029W        W 8229   6.655   4.469   3.828  0.0797  0.2341  0.0909
 4030W        W 8230   1.613   2.333  10.821  0.0559 -0.1196 -0.1392
 4031W        W 8231   5.731   1.457  11.709 -0.0626  0.0272  0.2905
 4032W        W 8232   1.613   9.493  11.956  0.2070  0.0195  0.0223
 4033W        W 8233   6.114  10.191   0.512 -0.1463  0.0868 -0.0983
 4034W        W 8234   6.656   4.363   0.045 -0.0014 -0.0614  0.0875
 4035W        W 8235   1.952   8.061  13.389 -0.1449 -0.2319  0.2474
 4036W        W 8236  10.356   9.104  12.298 -0.1009  0.0665 -0.2552
 4037W        W 8237   0.836   6.042   3.105 -0.2430  0.2715 -0.2433
 4038W        W 8238   9.583   1.805   8.983  0.0267 -0.2203  0.0044
 4039W        W 8239   3.094   3.013   3.330  0.2813  0.1757  0.2766
 4040W        W 8240   0.821   8.040  11.790  0.2159 -0.0989 -0.0613
 4041W        W 8241   7.969   8.258   3.521  0.0493  0.1431  0.1871
 4042W        W 8242   9.281   6.358   1.166 -0.1944  0.2536  0.1979
 4043W        W 8243   0.476   3.339   1.692 -0.0204 -0.0216 -0.0479
 4044W        W 8244   4.359   1.284   1.875 -0.2564  0.2139  0.0216
 4045W        W 8245   3.293   4.257   9.383  0.2878  0.0860 -0.1827
 4046W        W 8246  10.223   1.171  12.386  0.2724 -0.0864  0.5133
 4047W        W 8247   0.161   5.430   1.244  0.0469 -0.0210  0.2887
 4048W        W 8248   0.538   4.604   4.672 -0.3653 -0.1558 -0.0850
 4049W        W 8249   5.779   1.604   4.126 -0.2036 -0.0527 -0.1307
 4050W        W 8250   8.949   4.947  12.138  0.1332  0.0728  0.1196
 4051W        W 8251   6.648   8.773   3.052 -0.3204  0.0307  0.0579
 4052W        W 8252   3.579   2.153   4.484 -0.1988 -0.0861  0.2134
 4053W        W 8253   7.633   2.403   2.900 -0.2490 -0.0374  0.3719
 4054W        W 8254   8.164   4.775   9.931 -0.3539 -0.0315  0.0119
 4055W        W 8255   5.932   3.236   0.467  0.2389 -0.0038 -0.0438
 4056W        W 8256   2.641   2.566   4.191 -0.0749 -0.0956  0.0470
 4057W        W 8257   3.914   8.906  11.246 -0.0460 -0.0613 -0.1733
 4058W        W 8258   9.008   1.552   2.621 -0.1948 -0.0600  0.6390
 4059W        W 8259   6.036  10.203   3.953 -0.3046  0.0695  0.2502
 4060W        W 8260   6.495   4.963   2.619 -0.1288  0.0402  0.0108
 4061W        W 8261   4.060   8.344   3.501 -0.0133 -0.2425 -0.1014
 4062W        W 8262   7.113   4.997  10.066  0.1139 -0.0508 -0.2757
 4063W        W 8263  10.360   0.070   1.109  0.0258  0.1285  0.0057
 4064W        W 8264   9.320   3.488   3.496  0.2036  0.2014 -0.2164
 4065W        W 8265   5.111   7.628   1.991 -0.0438  0.1123 -0.2006
 4066W        W 8266   2.191   7.313   1.943  0.2166  0.0748 -0.4297
 4067W        W 8267   7.984   9.112   1.135  0.0501 -0.0650  0.2323
 4068W        W 8268   1.576   4.942   0.382 -0.1365 -0.2053 -0.1501
 4069W        W 8269   7.964   3.450  10.726  0.1913 -0.0203 -0.0786
 4070W        W 8270   3.346   7.904   2.465 -0.2743  0.2221 -0.2141
 4071W        W 8271   6.001   6.141   1.862  0.0902  0.4867 -0.0918
 4072W        W 8272   3.406   4.465  10.805 -0.0174 -0.1914 -0.3498
 4073W        W 8273   4.103   1.966  10.303  0.2773  0.0148  0.3316
 4074W        W 8274   3.541   0.275   1.889 -0.5604 -0.1265  0.0686
 4075W        W 8275   2.175   5.357   1.788 -0.0053 -0.0349  0.0429
 4076W        W 8276   0.711   2.427   0.154  0.2683 -0.2335 -0.0204
 4077W        W 8277   2.797   3.045   9.651  0.1901  0.0384 -0.2073
 4078W        W 8278   9.897   8.126   2.376 -0.3124 -0.2075  0.2523
 4079W        W 8279   1.621   3.408   4.091  0.2073  0.2319  0.4643
 4080W        W 8280   5.057   4.493  10.666 -0.1314 -0.1646 -0.1038
 4081W        W 8281   5.281   8.254   4.600  0.0106  0.1548 -0.0749
 4082W        W 8282  10.450   6.208   3.395 -0.3682 -0.0850 -0.1953
 4083W        W 8283   5.104   2.894   4.195  0.1796  0.0695  0.3553
 4084W        W 8284   9.282   3.094   1.359 -0.1754  0.1544  0.1559
 4085W        W 8285   3.381   9.969  12.550 -0.2394  0.1619  0.2146
 4086W        W 8286   4.053   3.071   3.249  0.1133  0.1656 -0.1371
 4087W        W 8287   8.828   7.411  11.862  0.2069  0.3463  0.1679
 4088W        W 8288   0.442   5.919  13.506 -0.1891 -0.1354 -0.1373
 4089W        W 8289   2.547   3.758   4.786 -0.0131  0.1874  0.0435
 4090W        W 8290   5.935   3.927  12.327  0.0590 -0.1448  0.0981
 4091W        W 8291  10.430   2.765   1.206  0.0385  0.0933 -0.1577
 4092W        W 8292   2.234   6.625  12.572 -0.0452 -0.1713 -0.0660
 4093W        W 8293   9.950   7.636  11.616 -0.0391 -0.3506  0.2359
 4094W        W 8294   3.690   4.865  10.510 -0.2238  0.1339  0.0943
 4095W        W 8295   4.273   3.475   4.556  0.3653  0.0877  0.2440
 4096W        W 8296   3.732   5.532  12.415  0.1114 -0.0956  0.0823
 4097W        W 8297   3.804   0.255  10.505  0.0139 -0.1624 -0.0833
 4098W        W 8298   4.085   8.094   9.863  0.1029  0.1404  0.3701
 4099W        W 8299   7.517   6.998   0.852 -0.3413 -0.1085  0.0020
 4100W        W 8300   4.019   9.684   4.103 -0.3931 -0.2548 -0.0607
 4101W        W 8301   4.683   0.358  11.434 -0.0443 -0.0926 -0.4576
 4102W        W 8302   9.600   9.054  11.889 -0.0402  0.0473 -0.1631
 4103W        W 8303   3.326  10.266   2.724 -0.0771 -0.2753  0.0228
 4104W        W 8304   7.135  10.454   8.712 -0.1517  0.0923  0.3140
 4105W        W 8305   2.679   3.356   9.028 -0.1349 -0.0200  0.1460
 4106W        W 8306  10.140   6.151   0.463  0.0326  0.2370 -0.1270
 4107W        W 8307   6.960   0.811   9.548 -0.0052 -0.0468 -0.0320
 4108W        W 8308   9.747   6.485   0.414 -0.3665  0.1332 -0.1251
 4109W        W 8309   4.592   1.215   1.426  0.0038  0.2103  0.0745
 4110W        W 8310   7.808   0.608   3.094  0.2042  0.0052 -0.4298
 4111W        W 8311   8.616   9.225  13.340 -0.0630  0.3476  0.1239
 4112W        W 8312   2.940   3.381  13.438 -0.1099  0.0179  0.1485
 4113W        W 8313   8.141   6.638  12.144 -0.2018  0.0800  0.0957
 4114W        W 8314   8.484   1.239  11.090  0.1317 -0.1163  0.0381
 4115W        W 8315   7.537   2.604  12.437 -0.1885 -0.1322  0.0189
 4116W        W 8316   1.663   3.377   8.273 -0.1772  0.3399  0.0308
 4117W        W 8317   5.997   0.855   4.711 -0.0091  0.2070  0.0642
 4118W        W 8318   6.860   1.607   0.904 -0.0808 -0.0344  0.1768
 4119W        W 8319   0.588   7.184  11.707  0.2762 -0.1563 -0.1612
 4120W        W 8320   5.048   8.738   7.911 -0.1505 -0.4056  0.1367
 4121W        W 8321   8.650   2.656   5.253 -0.1856 -0.1316  0.1355
 4122W        W 8322   2.127   3.625  11.031  0.0011  0.2016 -0.1376
 4123W        W 8323   7.457   7.165  12.217 -0.1002 -0.0770 -0.1710
 4124W        W 8324   7.719   7.080   2.196 -0.1763  0.2140 -0.2496
 4125W        W 8325   6.333   6.859   0.663 -0.1279 -0.0610  0.0683
 4126W        W 8326   4.992   0.252   3.195  0.2368  0.0867 -0.3369
 4127W        W 8327   9.360   9.323  11.132 -0.4012 -0.0944  0.2137
 4128W        W 8328   5.739   4.548  12.193 -0.1095 -0.1347  0.1446
 4129W        W 8329   1.352   3.000  11.269 -0.3868 -0.0563  0.3834
 4130W        W 8330   0.962   4.640  12.745  0.3611 -0.1427  0.0406
 4131W        W 8331   5.752   9.575   4.193  0.1525  0.2371  0.1557
 4132W        W 8332   8.470   4.414  11.510 -0.0675 -0.0342  0.0674
 4133W        W 8333   2.020   2.523   0.682 -0.2592  0.0517  0.0492
 4134W        W 8334   9.358   6.949  11.806 -0.1842  0.0685  0.2008
 4135W        W 8335   6.521   1.233  12.265  0.0417 -0.0150 -0.0251
 4136W        W 8336   5.495   4.608   1.541 -0.1816 -0.2087  0.2461
 4137W        W 8337   2.798   7.853   0.973 -0.0033  0.0892  0.0368
 4138W        W 8338   1.416   1.193   2.757  0.0406 -0.3673  0.1034
 4139W        W 8339   8.249   1.104   5.275 -0.1797 -0.0891  0.2193
 4140W        W 8340   8.479   5.152   2.875  0.1663  0.2705 -0.0501
 4141W        W 8341   8.240   7.923   3.151 -0.0870 -0.4077 -0.1272
 4142W        W 8342   2.365   2.950   4.453  0.1814 -0.0542  0.2522
 4143W        W 8343   4.958   3.144   9.959 -0.3200  0.2292  0.1449
 4144W        W 8344   9.911   1.025   1.564  0.1922 -0.2292 -0.1761
 4145W        W 8345   6.829   0.879   1.464  0.1258 -0.0873 -0.1514
 4146W        W 8346   5.034  10.017   9.960  0.2788  0.0643 -0.0575
 4147W        W 8347   9.655   3.102  13.127  0.0785 -0.0442  0.0009
 4148W        W 8348   8.604   4.959  13.438 -0.0558 -0.0956 -0.1144
 4149W        W 8349   8.346   5.266  12.931  0.3073 -0.0634  0.0245
 4150W        W 8350   0.859   4.531  10.404 -0.0208  0.0593 -0.1524
 4151W        W 8351   8.385   2.592   0.289  0.0375 -0.1083  0.1842
 4152W        W 8352   3.936   0.072   0.841  0.2570  0.1617  0.0963
 4153W        W 8353   3.188   3.307   9.183 -0.0453  0.3243 -0.1525
 4154W        W 8354   7.400   4.982   4.440 -0.0461  0.4565 -0.1860
 4155W        W 8355   7.968   4.980   1.999  0.1441  0.0785  0.0235
 4156W        W 8356   5.914   1.647   4.629 -0.0041 -0.2606  0.0477
 4157W        W 8357   7.328  10.012   8.837 -0.2712 -0.2681  0.0470
 4158W        W 8358   0.535   4.249   0.374 -0.2297  0.1271 -0.0085
 4159W        W 8359  10.130   4.604   0.328 -0.1478  0.0007 -0.2894
 4160W        W 8360   5.063   4.861   4.264  0.2032  0.1419 -0.0714
 4161W        W 8361   5.664   2.907   3.731  0.0055 -0.1281 -0.3646
 4162W        W 8362   1.387   9.238   0.312 -0.1690  0.1201 -0.1861
 4163W        W 8363   4.981   4.140  11.014  0.0225  0.2077  0.0345
 4164W        W 8364   5.364   8.798   3.000  0.0655  0.1152  0.0528
 4165W        W 8365   1.846   0.001   1.813  0.1809 -0.3509  0.0240
 4166W        W 8366   9.857   3.688   3.582  0.2314  0.1170  0.0253
 4167W        W 8367   5.102   5.398  10.022 -0.1374 -0.0182  0.0922
 4168W        W 8368   2.065   3.601  12.129  0.0441 -0.2128  0.1302
 4169W        W 8369   1.767   5.220  10.090 -0.0917 -0.2059 -0.0478
 4170W        W 8370   8.484   9.230  12.351  0.0583  0.0386  0.0038
 4171W        W 8371   2.666   1.648   4.393 -0.0472 -0.0242  0.1033
 4172W        W 8372   7.367   2.946   1.141  0.0627 -0.2140  0.0636
 4173W        W 8373   4.961   6.137   1.333  0.1361 -0.0696  0.1162
 4174W        W 8374   1.610   5.753   2.907 -0.0331  0.2381 -0.1031
 4175W        W 8375   2.888   7.745  11.202 -0.3809 -0.0774  0.2154
 4176W        W 8376   3.925   8.264   1.722 -0.1819 -0.0006  0.3138
 4177W        W 8377   1.545   9.490   1.164 -0.1019  0.0765 -0.2065
 4178W        W 8378   4.633   2.494   4.749 -0.0471  0.0895 -0.2152
 4179W        W 8379   2.191   7.686  11.483 -0.1181  0.1452 -0.0790
 4180W        W 8380   7.941   8.224   1.113 -0.0949 -0.2072 -0.2352
 4181W        W 8381   1.085   6.590   0.013  0.0917  0.0277 -0.0251
 4182W        W 8382   1.041   1.458   2.278 -0.0914 -0.0469  0.2831
 4183W        W 8383   7.146   8.821   8.883  0.2941 -0.5892 -0.1680
 4184W        W 8384   3.834   7.099   0.017  0.0011  0.0858  0.1080
 4185W        W 8385   3.193   9.562  11.350  0.1276  0.0448  0.2864
 4186W        W 8386   4.913   5.530  10.874 -0.0981  0.1413  0.2056
 4187W        W 8387   0.512   4.675   8.638 -0.2122  0.1396 -0.1413
 4188W        W 8388   5.071   8.376   1.422 -0.1492 -0.0459  0.0660
 4189W        W 8389  10.083   4.235   2.916 -0.1492 -0.1221  0.0550
 4190W        W 8390   6.614   0.232   8.597  0.0849  0.1394  0.0908
 4191W        W 8391   0.135   5.069  12.203  0.0165 -0.0694 -0.1534
 4192W        W 8392   3.835   8.475  13.194  0.0228 -0.0134  0.0618
 4193W        W 8393   4.501  10.383   4.353 -0.1939 -0.1725 -0.2141
 4194W        W 8394  10.103   4.673  12.397  0.2518  0.1099  0.0117
 4195W        W 8395   8.408   8.640   1.949 -0.1780  0.4276  0.0280
 4196W        W 8396   9.133   8.260  10.916  0.3208  0.1204  0.1636
 4197W        W 8397   4.431   1.252   0.702 -0.0673  0.0744 -0.1621
 4198W        W 8398   8.975   8.015   3.516 -0.2747  0.4736 -0.1960
 4199W        W 8399   7.030   6.833   3.943  0.0503  0.0808 -0.3639
 4200W        W 8400   8.819   9.255   9.563  0.0906 -0.1027 -0.0147
 4201W        W 8401   5.700   8.278   4.318  0.0327 -0.0218  0.1893
 4202W        W 8402   7.452   9.719   2.945 -0.2206  0.0930  0.1048
 4203W        W 8403   6.369   4.154  10.558 -0.0415  0.1864  0.0644
 4204W        W 8404   6.714   0.849   9.034  0.0865 -0.0323  0.0776
 4205W        W 8405   3.771   5.842  11.497  0.1252  0.3413  0.3236
 4206W        W 8406   2.820   3.152   1.251  0.0239  0.1358  0.1269
 4207W        W 8407   9.575   8.576  11.802 -0.2004  0.0558 -0.2707
 4208W        W 8408   5.754   0.693   4.137 -0.1141 -0.0671 -0.2739
 4209W        W 8409  10.310   1.116  13.275  0.1640  0.3363  0.1846
 4210W        W 8410   4.332   5.253   4.779  0.2147 -0.1703  0.1319
 4211W        W 8411   5.883   1.168  12.664  0.1340  0.0125 -0.1375
 4212W        W 8412   8.629   8.795  12.027  0.0012  0.0193  0.2680
 4213W        W 8413   9.274   8.145  12.260 -0.0185  0.0788 -0.1094
 4214W        W 8414   7.169   5.004   9.144 -0.0367 -0.1909  0.0873
 4215W        W 8415   9.773   2.129  13.265 -0.2631 -0.1865  0.1435
 4216W        W 8416   7.858   7.436  11.288 -0.1377 -0.3077 -0.0100
 4217W        W 8417   5.506   4.866   1.095  0.3509 -0.0954 -0.0670
 4218W        W 8418   0.348   9.655   0.978  0.1101 -0.2373  0.1474
 4219W        W 8419   0.243   8.622  10.369 -0.0111  0.0769  0.1089
 4220W        W 8420   2.092   1.014   0.787 -0.0886 -0.3311  0.1610
 4221W        W 8421   1.188   2.229   1.417  0.2728 -0.3293  0.0302
 4222W        W 8422   0.666   7.005  12.328 -0.0244 -0.0409  0.1563
 4223W        W 8423   6.201   7.653  11.573  0.0061 -0.0785  0.0136
 4224W        W 8424   7.132   8.018  10.777 -0.0855  0.1593 -0.1098
 4225W        W 8425   7.362   3.328  13.307  0.1355  0.0433  0.1689
 4226W        W 8426  10.180   3.160   9.125 -0.1794 -0.1957  0.1120
 4227W        W 8427   1.213   5.119  11.498 -0.0948  0.1729  0.3814
 4228W        W 8428   3.452   6.641   2.467 -0.1540  0.0210 -0.0085
 4229W        W 8429   7.758   8.821   8.216 -0.2101  0.0925 -0.1881
 4230W        W 8430   8.978   0.866  11.641  0.3470 -0.0960 -0.1927
 4231W        W 8431   6.847   3.565   4.141  0.1464  0.0775 -0.1259
 4232W        W 8432   5.626   5.139  13.106 -0.0351  0.0260 -0.1085
 4233W        W 8433   0.234   0.375   9.575 -0.1043  0.1264 -0.1641
 4234W        W 8434   9.695   1.460  13.169 -0.0668  0.0693  0.0553
 4235W        W 8435   4.510   8.473   9.082  0.0309 -0.3359  0.1459
 4236W        W 8436   2.444   6.016   0.647  0.0998 -0.1500 -0.1531
 4237W        W 8437   4.171   5.072  10.252  0.0346 -0.1500 -0.0627
 4238W        W 8438   3.401   4.899   1.890 -0.0611 -0.2805  0.0283
 4239W        W 8439   8.459   6.011   9.584 -0.0894 -0.3752  0.0498
 4240W        W 8440   4.918   8.644   4.637  0.1274  0.1695  0.0149
 4241W        W 8441   4.376   1.470   2.695 -0.2148  0.0841  0.2234
 4242W        W 8442   6.090   0.732   3.065  0.1312 -0.0265  0.1783
 4243W        W 8443   2.663   6.908   2.678 -0.1399 -0.2384 -0.3418
 4244W        W 8444   9.092   8.854  11.634 -0.0161  0.0726  0.0461
 4245W        W 8445   0.758   5.179   2.193  0.0811 -0.3435 -0.3995
 4246W        W 8446   1.825   3.778   4.883 -0.1795  0.0404 -0.1203
 4247W        W 8447   8.347   3.197  11.112 -0.1587  0.3340  0.1610
 4248W        W 8448   7.565   7.377  13.200 -0.0188 -0.1749  0.0907
 4249W        W 8449   3.365   5.058   8.904 -0.1522  0.0618  0.0937
 4250W        W 8450   4.290   1.127   2.342  0.3225  0.0050 -0.2054
 4251W        W 8451   3.593   7.047   4.092 -0.3577 -0.1611  0.4583
 4252W        W 8452   8.829   1.439   3.891 -0.1107 -0.0406  0.0485
 4253W        W 8453   0.192  10.104   3.498  0.0319 -0.0282  0.0485
 4254W        W 8454   5.918   1.960   1.064  0.1228  0.0270  0.0460
 4255W        W 8455   3.910   0.941   5.307  0.0667 -0.0753  0.0352
 4256W        W 8456   8.770   5.496   1.009 -0.0757 -0.0606 -0.0449
 4257W        W 8457   4.497   7.136   4.233 -0.1045  0.2595  0.2731
 4258W        W 8458   0.137   4.522  12.680 -0.0490 -0.0606 -0.1942
 4259W        W 8459  10.209   9.328  13.119  0.1731  0.2130  0.1526
 4260W        W 8460   5.386   0.613  10.456 -0.1155  0.1008 -0.1016
 4261W        W 8461   7.699   0.435   4.093  0.1065  0.1472  0.1513
 4262W        W 8462   0.783   8.293  12.251 -0.0162  0.0150  0.6776
 4263W        W 8463   9.820   3.881  12.665  0.0434  0.0528 -0.0295
 4264W        W 8464   8.022   3.688  11.255 -0.1184  0.0496  0.0359
 4265W        W 8465   5.365   7.033  13.358  0.1288 -0.0977 -0.2114
 4266W        W 8466   1.257   4.778   3.052  0.2709  0.3006 -0.0264
 4267W        W 8467   8.566  10.372   9.760  0.1678 -0.1314  0.1780
 4268W        W 8468   9.342   9.508  10.206 -0.3091  0.1676  0.1227
 4269W        W 8469   9.224   9.592   9.728  0.1648  0.4300  0.1785
 4270W        W 8470   2.477   3.793  10.046  0.1621 -0.2736  0.2137
 4271W        W 8471   6.730   6.771   3.357  0.0948 -0.1401  0.2296
 4272W        W 8472   6.669   8.486   1.432  0.1632  0.2040 -0.0846
 4273W        W 8473  10.108   2.818  12.261  0.1572 -0.3033 -0.1218
 4274W        W 8474   6.187   8.137  13.402  0.1892  0.0499 -0.1228
 4275W        W 8475   9.117   0.680  12.155 -0.1421 -0.0355  0.2916
 4276W        W 8476   3.584  10.377   4.172 -0.0538 -0.1204 -0.1919
 4277W        W 8477   1.311   2.104  13.032  0.1601  0.0635  0.0491
 4278W        W 8478   9.204   4.433   0.370  0.2458  0.0532 -0.2118
 4279W        W 8479   3.827   8.731  12.220 -0.1376 -0.1772  0.1313
 4280W        W 8480   3.343   6.139   2.983  0.1384 -0.1769 -0.0409
 4281W        W 8481   3.659   2.101   9.091  0.1972  0.3186  0.1511
 4282W        W 8482   5.915   1.321   1.811 -0.1815  0.0692 -0.1023
 4283W        W 8483   2.526   4.616   4.373  0.1698 -0.1234 -0.0052
 4284W        W 8484   6.502   0.671   9.541  0.2792 -0.3965 -0.1035
 4285W        W 8485   3.724   8.868   1.806 -0.1139  0.1713 -0.0007
 4286W        W 8486   6.515  10.233   3.530  0.3180 -0.2139  0.1767
 4287W        W 8487   5.289   5.245   5.165  0.0351 -0.0064  0.2291
 4288W        W 8488   5.006   0.679   1.786  0.0110 -0.2123 -0.0855
 4289W        W 8489   5.068   3.416   2.338  0.0229  0.0175  0.6146
 4290W        W 8490   7.366   8.030   3.234  0.1754 -0.0424 -0.1144
 4291W        W 8491   4.123   3.363   2.445 -0.2158  0.5302 -0.1201
 4292W        W 8492  10.193   4.023   0.106  0.1692  0.0718  0.0412
 4293W        W 8493   2.032   6.014   2.470  0.0091 -0.0332  0.0820
 4294W        W 8494   3.355   8.746  13.049  0.1321 -0.0163 -0.0146
 4295W        W 8495   1.798   2.016  12.526  0.0370  0.0635 -0.0301
 4296W        W 8496   5.129   7.470   8.977  0.1157 -0.0858 -0.0573
 4297W        W 8497   4.010   5.972   4.864 -0.1884 -0.1121 -0.0185
 4298W        W 8498   3.043   5.878   1.777  0.0636  0.1218 -0.1769
 4299W        W 8499   4.901   5.996  11.055  0.0159 -0.0184  0.2140
 4300W        W 8500   7.637  10.356  10.152  0.0282 -0.0302  0.1003
 4301W        W 8501   8.297   1.945   3.292 -0.0008 -0.0411  0.3222
 4302W        W 8502   3.171   3.881   2.873 -0.0866  0.0283 -0.0097
 4303W        W 8503   7.463   3.906  12.845 -0.2188 -0.4324 -0.0688
 4304W        W 8504   1.927   3.578  11.555 -0.0525  0.1873  0.1422
 4305W        W 8505   0.031   9.951  10.848  0.2651 -0.1855 -0.1153
 4306W        W 8506   3.729   6.332  11.585 -0.0160 -0.1157 -0.1621
 4307W        W 8507   9.944   8.388   0.643  0.1120  0.0458 -0.3428
 4308W        W 8508   0.975   5.455   9.774  0.3611 -0.2245  0.2051
 4309W        W 8509   7.647   4.289   0.184  0.1289  0.0540  0.0246
 4310W        W 8510   0.865   2.377  12.337  0.2822 -0.1587 -0.1936
 4311W        W 8511   6.868   7.974  12.798  0.2093  0.1027  0.0978
 4312W        W 8512  10.036   7.507   1.870  0.0432  0.0432  0.0764
 4313W        W 8513   3.381   3.173  12.664  0.1911  0.1246  0.0306
 4314W        W 8514   0.534   5.732  11.550 -0.1225 -0.4373  0.0901
 4315W        W 8515   7.876   8.977   2.841 -0.3197  0.2411 -0.2523
 4316W        W 8516   1.214   1.646   4.099  0.1010  0.0423  0.1508
 4317W        W 8517   8.705   2.590   3.939 -0.2938 -0.0441 -0.0711
 4318W        W 8518   5.015   1.970   1.737  0.0260  0.0245  0.1393
 4319W        W 8519   1.874   0.422  12.651  0.1596  0.3735 -0.0532
 4320W        W 8520   2.854   9.121   2.222 -0.0492  0.0663 -0.0277
 4321W        W 8521   7.540   0.091   0.241  0.0962 -0.0525 -0.3001
 4322W        W 8522   5.196   1.045   5.110 -0.1055  0.1745 -0.0233
 4323W        W 8523   3.621   3.483  12.194 -0.2033  0.0696 -0.4942
 4324W        W 8524   9.534   1.747   1.408 -0.1002 -0.0652 -0.0084
 4325W        W 8525   5.707   0.112   2.081  0.1010  0.2312  0.3523
 4326W        W 8526   4.290   9.763   9.075 -0.1900 -0.2248 -0.1014
 4327W        W 8527   6.591   1.824   0.492 -0.1949 -0.2886 -0.2486
 4328W        W 8528   9.588   7.746   1.931  0.1051 -0.2784 -0.3175
 4329W        W 8529  10.167   5.184   0.924 -0.1083  0.3608  0.1627
 4330W        W 8530   1.200   0.153   1.697 -0.1694  0.3299 -0.0290
 4331W        W 8531   9.764   6.711  13.003  0.4912 -0.0900 -0.2557
 4332W        W 8532   3.976   0.804  10.853  0.0289  0.1959 -0.0562
 4333W        W 8533   3.130   7.410  10.414  0.0592  0.0170  0.0704
 4334W        W 8534   1.201   0.132   0.172  0.0632 -0.3928  0.3619
 4335W        W 8535   8.582   9.138  10.431 -0.1692 -0.2295  0.1630
 4336W        W 8536   1.408   5.620   4.594  0.0610  0.1664 -0.2808
 4337W        W 8537   1.173   9.135   2.971 -0.2438 -0.0417  0.3155
 4338W        W 8538   8.933   4.039  10.849  0.1544  0.1105 -0.1580
 4339W        W 8539   1.723  10.394   3.075 -0.0731 -0.2978 -0.1733
 4340W        W 8540   7.420   7.724  12.356 -0.1528 -0.1334  0.1341
 4341W        W 8541   7.101   6.088   2.822  0.2498  0.4327  0.4171
 4342W        W 8542   1.954   8.707   0.557 -0.2201  0.3340 -0.2055
 4343W        W 8543   6.199   6.472  13.012 -0.0873  0.2775  0.3041
 4344W        W 8544   8.894   1.030   2.430  0.2181 -0.2933 -0.1031
 4345W        W 8545   8.373   9.475   9.398  0.2891 -0.4139 -0.0056
 4346W        W 8546   2.662   6.963   0.057 -0.1952  0.1904  0.2654
 4347W        W 8547   8.860   3.080   1.111 -0.1399 -0.1455 -0.3846
 4348W        W 8548   4.713   2.083  12.220 -0.1727  0.1189  0.1867
 4349W        W 8549   0.611   0.888  10.781 -0.1007  0.1049 -0.0488
 4350W        W 8550   5.214   3.800   1.856  0.1482 -0.2864 -0.3736
 4351W        W 8551   0.812   9.041  11.386 -0.0483 -0.0217 -0.0594
 4352W        W 8552   4.747   9.897  12.642 -0.1215 -0.0011 -0.0318
 4353W        W 8553   8.588   3.129  10.232 -0.0181  0.1342  0.0678
 4354W        W 8554   5.456   1.819   0.857 -0.0191 -0.1427  0.2167
 4355W        W 8555   1.329   8.137   0.515 -0.0745 -0.0223 -0.0070
 4356W        W 8556   0.009   1.351   4.923  0.0895  0.1658  0.0265
 4357W        W 8557   3.970   6.899  11.530 -0.1813 -0.0706  0.1782
 4358W        W 8558   7.022   0.926   4.924 -0.0185  0.1389  0.0766
 4359W        W 8559   8.875  10.106   0.779  0.1261  0.0469 -0.0670
 4360W        W 8560   4.892   2.969  13.343  0.0416  0.3502 -0.0447
 4361W        W 8561   4.768   3.631   4.574 -0.0671  0.1098 -0.3837
 4362W        W 8562   7.660  10.452   1.403 -0.2093  0.2066 -0.0659
 4363W        W 8563   5.970   5.427  12.162  0.0356 -0.1198  0.1539
 4364W        W 8564   6.095   2.358   2.288  0.0236 -0.5001 -0.0734
 4365W        W 8565   8.246   6.173   1.489  0.2278  0.0914  0.0600
 4366W        W 8566   2.848   5.994   1.351 -0.0637 -0.1008  0.1278
 4367W        W 8567   9.873   4.378   2.500  0.1231  0.1095  0.3286
 4368W        W 8568   8.142   6.768   0.616 -0.3046 -0.3518  0.0189
 4369W        W 8569   6.792   0.264   0.860 -0.0540  0.1433  0.0598
 4370W        W 8570   8.475   1.116   3.579 -0.2535  0.2896 -0.0003
 4371W        W 8571  10.184   6.064  12.062  0.2186 -0.0572 -0.2435
 4372W        W 8572   7.769   9.314  11.736 -0.1448  0.0317  0.1656
 4373W        W 8573   2.311   1.374   2.379 -0.0736  0.0372  0.1681
 4374W        W 8574   1.358   7.943  11.638 -0.0015 -0.2687 -0.1167
 4375W        W 8575   0.813   2.190   3.522 -0.0817 -0.1478  0.0994
 4376W        W 8576   5.613   4.444   3.052 -0.1172 -0.1386  0.0654
 4377W        W 8577   8.723   4.751   1.005  0.0735 -0.3523  0.5653
 4378W        W 8578   0.718   3.246   3.624 -0.1635  0.0892  0.2291
 4379W        W 8579   3.651   5.815  13.340  0.0274  0.3186 -0.0198
 4380W        W 8580   7.836   6.880  11.143  0.1186 -0.0539  0.2149
 4381W        W 8581   6.339   3.463   3.730 -0.1231 -0.0424 -0.1231
 4382W        W 8582   4.782   7.269  11.726 -0.2741  0.0717  0.1134
 4383W        W 8583   0.565   0.053   1.753  0.2459  0.0825  0.0654
 4384W        W 8584   2.321   0.320   3.815  0.0004  0.0767  0.0572
 4385W        W 8585   4.556   5.854  11.624  0.1001 -0.2918  0.3141
 4386W        W 8586   4.619   8.199   1.546 -0.0694 -0.0405  0.2216
 4387W        W 8587   7.629   9.534  12.180  0.1289 -0.1617 -0.1022
 4388W        W 8588   1.623   1.913   4.457  0.0604 -0.0892 -0.0851
 4389W        W 8589   7.416   1.188  10.439 -0.1898 -0.0552  0.0870
 4390W        W 8590  10.321   6.968   3.614  0.4421  0.1601  0.2603
 4391W        W 8591   7.870   5.373   2.955 -0.0976  0.1930 -0.0555
 4392W        W 8592   0.525   7.680  10.908 -0.1273 -0.1485 -0.0210
 4393W        W 8593   0.313   4.331   0.801  0.0945 -0.0535  0.0896
 4394W        W 8594   1.224   1.037   2.056 -0.1538  0.1454 -0.0734
 4395W        W 8595   1.587   4.570   2.031  0.1249  0.1239  0.3069
 4396W        W 8596   4.054   3.521   3.955 -0.3744  0.1043 -0.2476
 4397W        W 8597   1.590   2.444   4.441  0.0326  0.4031 -0.1693
 4398W        W 8598   8.980   4.042  13.479 -0.2244  0.0877  0.2360
 4399W        W 8599   9.951   3.166   5.157  0.1566  0.4110 -0.3397
 4400W        W 8600   5.938  10.401   4.395 -0.1372 -0.1734  0.3260
 4401W        W 8601   0.685   7.917   1.799  0.0094  0.1157 -0.2494
 4402W        W 8602   9.136   3.273   2.174  0.0211 -0.1002  0.0649
 4403W        W 8603   6.224   5.759   0.335 -0.1688 -0.0216  0.2254
 4404W        W 8604  10.206   2.030  11.939 -0.1255  0.0044  0.1921
 4405W        W 8605   2.890   4.542  11.724  0.0343  0.2145 -0.0526
 4406W        W 8606   8.545   3.861   1.162  0.2597  0.1684  0.0671
 4407W        W 8607   4.200   2.844  11.475 -0.1329  0.1792 -0.2974
 4408W        W 8608   1.743   0.413  11.318 -0.1012  0.2673 -0.1279
 4409W        W 8609   7.082  10.376   1.618  0.0338  0.0272  0.1760
 4410W        W 8610   7.010   4.709  11.952 -0.1824  0.1094 -0.1145
 4411W        W 8611   5.443   6.579  13.492 -0.2808  0.0923  0.0167
 4412W        W 8612   6.325   5.801   8.734 -0.0392 -0.2225 -0.0879
 4413W        W 8613   6.580   8.280   0.241  0.0286 -0.0658 -0.2358
 4414W        W 8614   4.985   4.006  12.155 -0.0521  0.2108 -0.1212
 4415W        W 8615   6.611   4.697  12.275 -0.0128 -0.0765  0.3566
 4416W        W 8616   7.463   4.573   3.225  0.0762  0.2820 -0.2708
 4417W        W 8617   0.870   6.786  11.901 -0.2676  0.0058 -0.0683
 4418W        W 8618   4.378   7.405   1.886 -0.2327 -0.0900  0.1060
 4419W        W 8619   5.971   0.953   0.133 -0.0828 -0.0401 -0.1370
 4420W        W 8620  10.021   7.361   1.085  0.2287 -0.0869 -0.4861
 4421W        W 8621   3.088   6.530   9.964  0.2480  0.0689 -0.1233
 4422W        W 8622   5.902   5.007  13.497  0.2192  0.0820 -0.0355
 4423W        W 8623   2.630   5.640   1.044 -0.2565  0.3010  0.5681
 4424W        W 8624   8.006   0.824   0.289  0.0704  0.0679  0.0736
 4425W        W 8625   4.857   5.805  10.351  0.1241  0.0049  0.0615
 4426W        W 8626   4.225   9.559  10.626  0.1261 -0.0442  0.0048
 4427W        W 8627   6.198   1.932   9.995  0.0470  0.3803  0.0023
 4428W        W 8628   0.184   0.453   2.741 -0.1426 -0.0057  0.2352
 4429W        W 8629   1.996   0.100   2.334  0.0921  0.0543 -0.1131
 4430W        W 8630  10.069   1.345  12.879 -0.0735 -0.2415 -0.0074
 4431W        W 8631   3.409   2.051   1.209 -0.1621  0.0707  0.2686
 4432W        W 8632   6.420   6.968  10.200 -0.0283 -0.0310 -0.1855
 4433W        W 8633   0.931   3.734   1.054  0.0389 -0.0638 -0.1557
 4434W        W 8634   6.466   0.992  13.271  0.4629 -0.2517  0.0072
 4435W        W 8635   7.453  10.123   1.730 -0.1362  0.0124  0.1249
 4436W        W 8636   3.132   1.920   3.167 -0.3414 -0.1247  0.0827
 4437W        W 8637   1.109   0.748  10.079  0.1152  0.4110 -0.1924
 4438W        W 8638   3.676   8.922  11.704  0.1573 -0.1436 -0.2415
 4439W        W 8639  10.230   0.636   3.110 -0.0693 -0.1041 -0.0676
 4440W        W 8640   4.595   3.880  11.783  0.0208 -0.3019 -0.0401
 4441W        W 8641   1.754   2.388   1.871  0.1314  0.0682 -0.0395
 4442W        W 8642   9.267   2.196   3.350  0.1622 -0.0506 -0.0423
 4443W        W 8643   3.700   8.301   3.075  0.0401 -0.3073 -0.1288
 4444W        W 8644   8.732   7.454  12.375  0.1024 -0.0475 -0.2175
 4445W        W 8645   9.926   7.219  12.962 -0.0369 -0.2653  0.1821
 4446W        W 8646   6.310   0.190   0.678  0.0933  0.2276 -0.1561
 4447W        W 8647   4.414   4.763   3.607  0.0483  0.2618  0.3024
 4448W        W 8648   8.457   6.526  10.367 -0.0732  0.1012 -0.2172
 4449W        W 8649   4.597   8.096  10.256 -0.1078 -0.0961  0.0769
 4450W        W 8650   6.355   5.141  13.110 -0.2983  0.3379  0.0983
 4451W        W 8651   6.255   1.209   0.708  0.2737  0.0599  0.5573
 4452W        W 8652   3.048   1.303  12.912  0.0432  0.2651  0.0235
 4453W        W 8653  10.158   1.926   9.743 -0.0080  0.0912 -0.1059
 4454W        W 8654   8.843   7.948  12.343 -0.1388 -0.0564 -0.2302
 4455W        W 8655   3.675   2.401   2.981 -0.2667 -0.0476 -0.0646
 4456W        W 8656   3.752   4.510   4.245  0.0894 -0.2035  0.0117
 4457W        W 8657  10.399   1.581   0.832 -0.0310 -0.1300  0.0980
 4458W        W 8658   0.036   4.853  10.504  0.0116 -0.1171  0.1055
 4459W        W 8659   1.624   1.898   1.848  0.0136  0.1089  0.2739
 4460W        W 8660   6.386   5.043   1.016  0.0708 -0.1841  0.0026
 4461W        W 8661   6.598   1.348  11.034 -0.0895  0.2103 -0.2693
 4462W        W 8662   5.694   3.570   1.929 -0.4192 -0.0248 -0.0723
 4463W        W 8663   0.928   6.113   0.221 -0.0449  0.0749 -0.1416
 4464W        W 8664   4.036   4.367   9.400 -0.0661  0.2073 -0.0698
 4465W        W 8665   1.197   9.028   2.445 -0.0339 -0.2305  0.0651
 4466W        W 8666   2.425   5.142   2.798  0.0455  0.0548  0.2897
 4467W        W 8667  10.015   9.818  11.592 -0.2189 -0.2461 -0.0072
 4468W        W 8668   3.528   2.772  11.287  0.1788 -0.2735 -0.2852
 4469W        W 8669   6.332   9.793   4.877 -0.0647 -0.0727 -0.0664
 4470W        W 8670   6.770   6.564  10.263  0.2527  0.1743 -0.0114
 4471W        W 8671   1.700   4.746   4.990 -0.0467  0.2027  0.1273
 4472W        W 8672   4.080   5.307  12.746 -0.1203 -0.2521 -0.1849
 4473W        W 8673   9.665   5.471  12.415  0.3218 -0.2620  0.0394
 4474W        W 8674   5.622   1.119   2.826 -0.0154  0.0260  0.2297
 4475W        W 8675   6.520   8.303   3.887 -0.1249 -0.1322  0.0115
 4476W        W 8676   1.558   7.018  10.640  0.0062 -0.1891  0.1163
 4477W        W 8677   0.482   2.946  10.263  0.1387 -0.1385 -0.0208
 4478W        W 8678   5.541   0.226  11.189  0.2622 -0.0708  0.5705
 4479W        W 8679   6.259   5.510   1.803 -0.0535  0.1621  0.2471
 4480W        W 8680   6.031   4.708   0.817  0.3033  0.1418 -0.0680
 4481W        W 8681   8.757   1.659  12.250 -0.1869 -0.2951  0.0746
 4482W        W 8682   3.675   8.736   9.260  0.1547  0.0273 -0.1951
 4483W        W 8683  10.424   6.765   1.754  0.0766  0.1283  0.1175
 4484W        W 8684   9.809   8.474  11.318 -0.0837 -0.2821 -0.0867
 4485W        W 8685   3.403   4.026  12.989 -0.0058 -0.0812  0.1656
 4486W        W 8686   3.689   9.489   9.086 -0.0457 -0.0658 -0.1215
 4487W        W 8687   6.685   1.719  11.395  0.1767  0.1372 -0.4380
 4488W        W 8688   6.466   7.772  13.141  0.0015 -0.1008 -0.2376
 4489W        W 8689   5.632   1.785  12.120 -0.3407 -0.2073 -0.2607
 4490W        W 8690   1.516   0.775   0.401 -0.0820 -0.0628 -0.2030
 4491W        W 8691   7.064   6.304   8.942 -0.0744 -0.1955 -0.0272
 4492W        W 8692  10.259   6.320   9.979  0.1162 -0.0686 -0.0679
 4493W        W 8693   5.518   6.233   0.605 -0.2604  0.0881 -0.0446
 4494W        W 8694   7.417   7.727  13.520  0.2949 -0.1197 -0.0090
 4495W        W 8695   8.036   3.464   4.791 -0.0757  0.2134 -0.0055
 4496W        W 8696   0.835   1.806  10.832 -0.3967  0.1424  0.0832
 4497W        W 8697   4.962   6.768   0.902  0.2188 -0.2270  0.3121
 4498W        W 8698   6.501   3.265   1.558  0.3996  0.0529 -0.0120
 4499W        W 8699   3.810   1.268   3.122 -0.2107  0.0215  0.0599
 4500W        W 8700  10.354   6.843  11.755 -0.0346  0.3021 -0.2288
 4501W        W 8701   5.846   9.827   0.304  0.0726  0.0055  0.1812
 4502W        W 8702   6.014   6.707   1.831 -0.1160 -0.2373 -0.2927
 4503W        W 8703   8.592   4.382  10.920  0.0538 -0.0604  0.0089
 4504W        W 8704   0.224   1.202   0.562  0.2285  0.2398  0.1430
 4505W        W 8705   1.913   8.711  11.333 -0.0198  0.2904  0.0335
 4506W        W 8706   8.717   8.457   1.603  0.0210  0.2060 -0.0326
 4507W        W 8707   3.201   4.948  12.935  0.0029 -0.0581  0.0317
 4508W        W 8708   1.106   8.897  11.854 -0.2931 -0.1543  0.2965
 4509W        W 8709   7.380   0.498   9.404 -0.2865  0.2043 -0.2230
 4510W        W 8710   1.396   4.689  13.480  0.1694 -0.1039 -0.1551
 4511W        W 8711   6.617  10.202   1.990 -0.1399 -0.1000  0.1513
 4512W        W 8712   1.568   8.389   0.136 -0.2866 -0.1404 -0.0896
 4513W        W 8713   2.139   2.365  12.930 -0.0252 -0.1504 -0.3451
 4514W        W 8714   1.166   2.001  12.116 -0.0997 -0.2574 -0.0289
 4515W        W 8715   3.958   1.608   9.975 -0.1016  0.0722 -0.2695
 4516W        W 8716   1.670   1.513   4.166  0.0913 -0.3795  0.1277
 4517W        W 8717   8.192   1.461   1.612 -0.0732  0.2542 -0.2603
 4518W        W 8718   3.056   6.381   3.809 -0.3943  0.1165 -0.0367
 4519W        W 8719   3.026   4.969   9.252 -0.2065  0.1404 -0.0299
 4520W        W 8720   8.684   8.344   0.705  0.0278 -0.1717 -0.0189
 4521W        W 8721  10.383   1.038   8.870 -0.2621  0.3165 -0.2188
 4522W        W 8722  10.329   0.886   3.815  0.2793  0.0213 -0.3037
 4523W        W 8723  10.269   4.634   2.504  0.0750 -0.1761  0.1960
 4524W        W 8724   0.307   1.749   2.311 -0.0430  0.0772  0.0419
 4525W        W 8725   5.232  10.010   8.940 -0.1294 -0.1169  0.1491
 4526W        W 8726   3.723   8.291  12.703 -0.3610  0.3850 -0.1693
 4527W        W 8727   6.796   2.690   3.739  0.0926 -0.2858  0.0441
 4528W        W 8728   4.762  10.434   0.498 -0.0631 -0.1293 -0.0519
 4529W        W 8729   9.861  10.344   2.441  0.1263  0.0139 -0.1173
 4530W        W 8730   9.457  10.443  13.294  0.0973 -0.1585  0.0156
 4531W        W 8731   7.209   0.309  12.924  0.0868  0.2032  0.0214
 4532W        W 8732   3.604   3.177   4.979  0.0708 -0.0055 -0.0277
 4533W        W 8733   7.394  10.189   2.737 -0.2197 -0.4206  0.0879
 4534W        W 8734   3.513   6.606  10.218 -0.0334 -0.3307 -0.1132
 4535W        W 8735   6.212   5.167   2.947  0.1541  0.0377  0.0789
 4536W        W 8736   7.495   1.488   3.707 -0.1635  0.0582 -0.0530
 4537W        W 8737   6.211   3.738  12.832 -0.0725  0.0841  0.2413
 4538W        W 8738   2.934   6.377  12.299  0.1344  0.0852 -0.0019
 4539W        W 8739   9.472   0.783  11.807 -0.0118 -0.0197 -0.0984
 4540W        W 8740   0.822   2.843  11.019  0.1433  0.1543 -0.1837
 4541W        W 8741   4.780   8.107   1.048  0.0197 -0.0038  0.1455
 4542W        W 8742   9.428   7.252  12.932  0.0108  0.2876  0.0384
 4543W        W 8743   4.068   2.030  12.948  0.1754  0.1999  0.1952
 4544W        W 8744   0.771   2.149  11.337  0.4076 -0.3341 -0.2104
 4545W        W 8745   4.514   6.785   2.186 -0.3413 -0.0661 -0.0187
 4546W        W 8746   8.390   4.732   1.430 -0.0851 -0.2414 -0.0006
 4547W        W 8747   9.787   3.885   2.363  0.2048  0.1617  0.2967
 4548W        W 8748   4.574   6.334  11.852 -0.0443 -0.0608 -0.0540
 4549W        W 8749   3.337   9.476  10.116 -0.1380 -0.0540 -0.1949
 4550W        W 8750  10.010   8.200   0.073 -0.1995 -0.1346 -0.1540
 4551W        W 8751   4.280   6.180   4.409  0.3693 -0.0656 -0.0879
 4552W        W 8752   8.001   5.502   1.945  0.0326  0.0952  0.2106
 4553W        W 8753   3.032   9.861  13.001 -0.0387  0.2444 -0.2690
 4554W        W 8754   5.457   7.504  13.506  0.0260  0.3569  0.2659
 4555W        W 8755   9.076   5.284  10.600 -0.1083  0.1290 -0.1273
 4556W        W 8756   1.135   8.575   1.500  0.0470  0.0540 -0.0073
 4557W        W 8757   8.377   5.105   4.143 -0.0498  0.0126 -0.0460
 4558W        W 8758   7.088   5.858   3.346  0.0506  0.1098  0.1238
 4559W        W 8759   9.109   4.551  12.606  0.0857 -0.4420  0.0530
 4560W        W 8760   9.920   9.881   2.027 -0.0985 -0.4747 -0.2922
 4561W        W 8761   5.158   9.549   9.822  0.0851 -0.0108 -0.1936
 4562W        W 8762   3.869   5.477   0.653 -0.2572  0.0048  0.0750
 4563W        W 8763   7.811   1.290   1.253  0.2848  0.1518  0.0208
 4564W        W 8764   1.441   3.001   1.113 -0.0770 -0.1724 -0.0305
 4565W        W 8765   2.020   6.462  13.383 -0.1297  0.2454  0.4310
 4566W        W 8766  10.397   7.236  10.312  0.0052 -0.1334 -0.0048
 4567W        W 8767   1.391   5.645  11.295 -0.1802  0.3707 -0.1860
 4568W        W 8768   3.394   5.258   0.722  0.1855 -0.2178  0.0321
 4569W        W 8769   3.986   6.973  12.976  0.1574  0.1295 -0.6152
 4570W        W 8770   6.868   4.012  11.855 -0.0393  0.0603 -0.2952
 4571W        W 8771   0.114   7.919  10.860  0.0485 -0.2679  0.2009
 4572W        W 8772   2.950   1.177   4.277  0.2682 -0.0067 -0.0945
 4573W        W 8773   8.181   6.075   9.165  0.3339 -0.1056  0.0767
 4574W        W 8774   7.897   4.036   1.855 -0.2784  0.3142 -0.1489
 4575W        W 8775   3.818   1.708   0.514  0.2867  0.0445  0.1628
 4576W        W 8776   3.268   8.411   3.329  0.2154 -0.1923 -0.1533
 4577W        W 8777   7.709  10.047   0.144  0.1584 -0.1007  0.2748
 4578W        W 8778   7.951   6.374  11.073  0.0881 -0.1332 -0.1166
 4579W        W 8779   9.496   6.713  11.219  0.0675 -0.2062 -0.0281
 4580W        W 8780   4.633   2.641  12.475  0.3453  0.0690  0.0285
 4581W        W 8781   5.294   4.996   9.633  0.1180 -0.0889  0.4548
 4582W        W 8782   9.708   1.181   1.994 -0.2048  0.0347  0.3512
 4583W        W 8783   2.995   3.522  12.551 -0.0427 -0.5382 -0.3726
 4584W        W 8784   6.655   3.490  11.004 -0.0461 -0.0101  0.2713
 4585W        W 8785   1.240   7.715  12.904  0.4493  0.0464  0.1349
 4586W        W 8786   5.594  10.099  11.176 -0.0066 -0.0958 -0.3285
 4587W        W 8787   7.214   7.361   1.061 -0.2683 -0.2915  0.4120
 4588W        W 8788   5.453   4.639   4.523 -0.3460  0.0052  0.0524
 4589W        W 8789   9.454   5.667   0.565  0.0322  0.2272  0.0677
 4590W        W 8790   3.546   5.420   3.645 -0.0918  0.0139 -0.1185
 4591W        W 8791   2.518   4.599  11.005 -0.3053  0.2302  0.0785
 4592W        W 8792   9.603   0.954  12.387 -0.1955 -0.0146 -0.1677
 4593W        W 8793   2.875   2.813   2.498  0.0577 -0.0391 -0.0465
 4594W        W 8794   0.565   9.544  12.779  0.1001  0.1447 -0.0354
 4595W        W 8795   7.115   7.031   9.573  0.1209  0.2005  0.0652
 4596W        W 8796   6.327   8.841  10.539  0.1098  0.0173  0.1344
 4597W        W 8797   3.503   5.781  11.943 -0.2336 -0.3499  0.0497
 4598W        W 8798   7.811   8.983   3.424 -0.1651  0.0208 -0.3805
 4599W        W 8799   8.676   3.297  12.848 -0.2047 -0.3693  0.3492
 4600W        W 8800   8.059   9.333   3.656 -0.2792 -0.0339 -0.1454
 4601W        W 8801   9.981   1.537   1.631 -0.0588 -0.2222 -0.2046
 4602W        W 8802   8.238   1.671   5.433  0.1509  0.0204 -0.1764
 4603W        W 8803   6.959   4.549   9.951 -0.1698  0.3714  0.0763
 4604W        W 8804   5.639   5.371   2.234  0.3094 -0.1815 -0.1069
 4605W        W 8805   9.535   0.088   9.940  0.2904  0.1542 -0.0823
 4606W        W 8806   8.362   5.370  13.382  0.0742  0.2013 -0.0989
 4607W        W 8807  10.021   6.497  10.762 -0.0146 -0.1413 -0.2520
 4608W        W 8808   0.618   3.239   2.223 -0.1605 -0.2100  0.1910
 4609W        W 8809   8.763   1.062   1.030  0.1864  0.2222  0.0380
 4610W        W 8810   1.208   2.036  11.145 -0.0066  0.1263 -0.0350
 4611W        W 8811  10.041   2.071   2.819 -0.1136  0.1749 -0.3963
 4612W        W 8812  10.037   2.329  12.871  0.1274  0.1415  0.1353
 4613W        W 8813   8.147   8.335  10.729  0.3186  0.1304  0.0581
 4614W        W 8814   9.578   2.152   3.689 -0.0299 -0.0535 -0.1968
 4615W        W 8815   1.059   5.979   4.680 -0.3788 -0.1682 -0.1292
 4616W        W 8816   3.057   0.269  10.643 -0.0926 -0.1147  0.0209
 4617W        W 8817   5.180   9.674   2.043 -0.1763  0.3775  0.1391
 4618W        W 8818   1.661   6.165   0.096 -0.1023  0.0444  0.0544
 4619W        W 8819   8.252   3.068  12.096 -0.1321 -0.3463 -0.0569
 4620W        W 8820   2.838   3.774   4.305  0.3110  0.0568 -0.1304
 4621W        W 8821   8.259   5.086  10.487 -0.2583 -0.0276  0.2313
 4622W        W 8822   4.097   2.892   0.499 -0.0625 -0.0210  0.0328
 4623W        W 8823   8.498   0.354  10.857  0.1927 -0.3729 -0.0747
 4624W        W 8824   3.596   2.245   1.922 -0.0678 -0.0609  0.4133
 4625W        W 8825   8.461   3.930   3.361 -0.0360  0.0911 -0.0125
 4626W        W 8826   4.192   5.373   1.648 -0.3175 -0.1545 -0.1367
 4627W        W 8827   8.504   8.789   0.595 -0.1029  0.1190  0.1415
 4628W        W 8828   5.548  10.171   1.167 -0.0183 -0.4555  0.0168
 4629W        W 8829   6.699   7.189   1.378  0.1025 -0.1784  0.1257
 4630W        W 8830  10.332   6.420   4.170 -0.1536 -0.0090  0.0687
 4631W        W 8831   1.371   1.156   1.337 -0.4535  0.2541 -0.2484
 4632W        W 8832   7.990   8.730   2.252 -0.0769  0.3313  0.0313
 4633W        W 8833   3.562   4.531   2.250 -0.0552 -0.2988  0.0863
 4634W        W 8834   7.695   6.941  12.607  0.2158  0.0948 -0.0702
 4635W        W 8835   3.258   2.272  13.105  0.1113 -0.2117 -0.0270
 4636W        W 8836   9.524   9.954   2.478 -0.3028 -0.2681 -0.1181
 4637W        W 8837   3.383   0.972  12.231  0.0497  0.0459 -0.2235
 4638W        W 8838   6.541   2.021  13.168 -0.2121  0.0033 -0.0469
 4639W        W 8839   2.996   7.502   3.350  0.0285 -0.1103  0.2231
 4640W        W 8840   2.546   9.495  12.254  0.0561  0.0058  0.1096
 4641W        W 8841   0.319   0.494  10.732 -0.1037  0.1456 -0.1679
 4642W        W 8842   4.166   3.333   1.637  0.1096  0.1056 -0.4666
 4643W        W 8843   1.114   3.229   0.553 -0.0334 -0.1872 -0.1386
 4644W        W 8844   6.615   9.720   4.444 -0.2036  0.1947 -0.1517
 4645W        W 8845   8.521   3.414   0.882 -0.0984 -0.0914 -0.0066
 4646W        W 8846   0.696   9.212   1.039 -0.1022  0.3750 -0.1275
 4647W        W 8847   5.321   0.345   3.678 -0.1468 -0.0468 -0.3832
 4648W        W 8848  10.343   0.830   1.300 -0.0012  0.0231  0.1261
 4649W        W 8849   7.674   3.609   3.648 -0.1562 -0.1953 -0.1434
 4650W        W 8850   5.570   4.426  10.724  0.0092  0.1807 -0.2479
 4651W        W 8851   7.361   7.820   1.271  0.0926 -0.1497 -0.0780
 4652W        W 8852   0.482   5.818   1.048  0.3170 -0.3003 -0.2103
 4653W        W 8853   3.980   8.340   8.970  0.1028 -0.0945  0.1372
 4654W        W 8854   5.453   9.290  13.126  0.1520  0.0615  0.0416
 4655W        W 8855   8.896   5.403   4.137 -0.2409  0.0154 -0.0381
 4656W        W 8856   4.525   6.359   0.998  0.1166  0.2363 -0.0816
 4657W        W 8857   5.137   2.830   1.719  0.3197  0.0763  0.2498
 4658W        W 8858   5.752   8.961   1.362 -0.1672 -0.0567 -0.1843
 4659W        W 8859  10.093   4.454  13.351 -0.1501 -0.3493 -0.1742
 4660W        W 8860   9.331   0.783   4.202  0.1542 -0.4257 -0.0729
 4661W        W 8861   5.383   6.500   3.738 -0.1355  0.1738  0.1421
 4662W        W 8862   8.505   6.009  10.382 -0.0972 -0.2952 -0.0968
 4663W        W 8863   4.230   8.842  13.046 -0.0682  0.2659  0.0546
 4664W        W 8864   7.530   6.960  10.061 -0.1844 -0.0470 -0.1462
 4665W        W 8865   3.762   1.623  10.571 -0.0113 -0.1308  0.0039
 4666W        W 8866   5.407   8.714   1.718  0.1501  0.3269  0.2268
 4667W        W 8867  10.367   9.860   0.581 -0.0195 -0.0669 -0.0535
 4668W        W 8868   0.050   0.187  13.228 -0.0420 -0.0351  0.1548
 4669W        W 8869   3.111   7.573   0.413 -0.2925 -0.1440  0.2317
 4670W        W 8870   4.647   2.925  11.164  0.0096  0.2050  0.2692
 4671W        W 8871   7.222   3.186  12.557  0.4016 -0.0147 -0.0530
 4672W        W 8872   1.080   2.545  13.202 -0.2166 -0.0111 -0.0016
 4673W        W 8873   3.774   0.463   9.427 -0.1901 -0.1295  0.0181
 4674W        W 8874   1.909   1.705   5.634 -0.1875  0.0824 -0.0319
 4675W        W 8875   4.480   4.373  10.726  0.2003  0.0458 -0.3146
 4676W        W 8876   1.709   0.329  12.222  0.2522 -0.2813  0.3225
 4677W        W 8877   1.654   3.937  10.243  0.4855  0.2065  0.0568
 4678W        W 8878   9.699  10.198   4.765 -0.0464  0.0138 -0.0218
 4679W        W 8879   4.772   1.244   9.748 -0.0930 -0.0374  0.1289
 4680W        W 8880   5.607   9.086  10.403 -0.0017  0.1990  0.0866
 4681W        W 8881   6.698   2.667  10.907  0.2466  0.1234  0.0431
 4682W        W 8882   6.839   8.147  13.301  0.0171  0.0563 -0.0035
 4683W        W 8883   4.776   2.531  12.012  0.0757 -0.2761 -0.0565
 4684W        W 8884   0.972   5.609   3.786  0.0106 -0.1474 -0.0882
 4685W        W 8885   2.592   0.742   4.288 -0.1776 -0.0540  0.0842
 4686W        W 8886   6.766   0.754   3.342  0.1316  0.2917 -0.0733
 4687W        W 8887   9.424   8.556   0.802 -0.1733 -0.0879 -0.4097
 4688W        W 8888   8.285   1.495  11.878  0.0345 -0.0261 -0.0676
 4689W        W 8889   9.536   4.225  12.915 -0.2667  0.0862  0.0267
 4690W        W 8890   7.573   9.082   2.131 -0.2064  0.1140  0.0140
 4691W        W 8891   0.874   0.254  10.026  0.3591 -0.0289 -0.1071
 4692W        W 8892   8.864   8.237   2.518 -0.0420  0.1597  0.0941
 4693W        W 8893   6.423   0.634  11.253 -0.0036 -0.3487 -0.0965
 4694W        W 8894   0.739   2.460   0.800  0.1476  0.1622  0.0426
 4695W        W 8895   7.276   6.536   0.754  0.2169  0.1916 -0.1401
 4696W        W 8896   5.487   8.586   0.726 -0.0287  0.2518  0.3821
 4697W        W 8897   0.178   1.897  10.065  0.0594 -0.1582  0.1116
 4698W        W 8898   7.867   8.463   3.989 -0.1297 -0.2159  0.1763
 4699W        W 8899   8.376  10.413   2.043 -0.1507 -0.0298  0.1869
 4700W        W 8900   3.059   4.910   0.508  0.1541 -0.1467  0.0514
 4701W        W 8901   4.707   3.605  12.503 -0.0811 -0.0457 -0.0866
 4702W        W 8902   3.823   2.498   3.798  0.1807  0.1735 -0.2562
 4703W        W 8903   5.803   5.611  10.586  0.0982 -0.4811  0.2306
 4704W        W 8904   9.746   9.661   1.156  0.1787  0.2045 -0.4507
 4705W        W 8905   0.452   5.855  12.462 -0.5556  0.1603  0.1979
 4706W        W 8906   3.305   7.267   0.759 -0.4248 -0.2830 -0.0207
 4707W        W 8907   1.247   9.611  13.432  0.1457  0.0940 -0.0482
 4708W        W 8908   0.958   2.040   3.995  0.0509 -0.1819 -0.0927
 4709W        W 8909  10.007   1.652  13.503  0.0351 -0.3128 -0.0316
 4710W        W 8910   8.845   6.710   4.616  0.1459  0.2051 -0.0829
 4711W        W 8911   8.016   4.022   5.531  0.2896  0.0186  0.0446
 4712W        W 8912   3.107   8.160   1.167 -0.0430 -0.1251 -0.1485
 4713W        W 8913   0.285   4.498   1.555  0.2194  0.1658  0.1282
 4714W        W 8914   4.968   9.157   9.571  0.3304  0.0029  0.2227
 4715W        W 8915   7.815   5.789   4.194  0.1821 -0.1494  0.0778
 4716W        W 8916  10.319   4.514   5.029  0.2368 -0.0990 -0.2229
 4717W        W 8917   8.778   8.936   3.987  0.3523 -0.2434  0.0338
 4718W        W 8918   8.373   3.456   9.483  0.4790  0.2168 -0.2043
 4719W        W 8919   8.226   4.682   8.344  0.1403  0.1771 -0.0395
 4720W        W 8920   7.180   1.402   1.912 -0.0935  0.1072 -0.1368
 4721W        W 8921   7.452   8.841  10.252  0.1573  0.0829 -0.1317
 4722W        W 8922   2.340   5.180  12.899  0.1894 -0.0287  0.1135
 4723W        W 8923  10.073   7.986   1.926  0.0585 -0.1392  0.1744
 4724W        W 8924   6.652   0.342  11.577 -0.1226  0.3045 -0.2759
 4725W        W 8925   0.941   0.757   2.503  0.2059 -0.1319  0.2534
 4726W        W 8926   8.711   7.753  10.264  0.1400 -0.0125 -0.0289
 4727W        W 8927   0.599   8.420   1.557 -0.0787  0.0140  0.1505
 4728W        W 8928   3.360   9.243   2.555  0.2346 -0.0249 -0.0018
 4729W        W 8929   0.666   6.386   2.393 -0.0258 -0.0617 -0.0201
 4730W        W 8930   2.740   8.543   2.836 -0.2085  0.3161 -0.2090
 4731W        W 8931   1.530   7.821   0.193 -0.1334 -0.0189 -0.3785
 4732W        W 8932   6.002   5.401   1.377  0.2288  0.2989  0.4522
 4733W        W 8933   4.406   2.575   9.676 -0.2843 -0.2074  0.1964
 4734W        W 8934   6.020   9.655  11.388 -0.1622 -0.2482 -0.1293
 4735W        W 8935   3.321   0.610   1.470  0.3321  0.1200 -0.1451
 4736W        W 8936   9.051   3.528   1.710  0.1555  0.2299 -0.0235
 4737W        W 8937   3.287   7.027   3.521 -0.0212  0.0321 -0.0843
 4738W        W 8938   2.500   6.511   1.446  0.0734  0.4210 -0.0944
 4739W        W 8939   6.230   7.076   8.941  0.2319 -0.1111  0.4437
 4740W        W 8940   7.874   5.188   9.612  0.1974  0.0516  0.0915
 4741W        W 8941   2.171   1.761  11.298 -0.2165 -0.0339 -0.0072
 4742W        W 8942   8.706   4.676   2.830 -0.1169 -0.0428 -0.1722
 4743W        W 8943   8.747   2.192   1.310 -0.0748 -0.0803  0.4313
 4744W        W 8944   7.691   4.029   3.919  0.3826  0.0192 -0.2176
 4745W        W 8945   3.074   0.733  13.219  0.1413  0.0033 -0.1230
 4746W        W 8946   4.172   7.241   2.291  0.0626 -0.0162  0.0242
 4747W        W 8947   1.612   0.267   0.444 -0.2478  0.0784  0.1376
 4748W        W 8948   4.620   0.050  10.965  0.0098  0.1108  0.0762
 4749W        W 8949   9.669   8.035   3.186 -0.0340 -0.3626  0.0590
 4750W        W 8950   9.678  10.339   3.287  0.4469 -0.0165  0.0754
 4751W        W 8951   7.241   3.689  10.804 -0.1874  0.2990 -0.0316
 4752W        W 8952   9.093   8.320  13.430  0.0035  0.2380 -0.1627
 4753W        W 8953   2.297   3.289   0.983 -0.1804 -0.5272  0.1309
 4754W        W 8954   8.315   3.531   2.962  0.0879  0.2653 -0.0348
 4755W        W 8955   3.804   2.453  11.011  0.1361  0.1346 -0.1141
 4756W        W 8956   1.032   6.506   3.117 -0.0009  0.1873 -0.1119
 4757W        W 8957   1.587  10.250   2.219 -0.1382 -0.0760 -0.0719
 4758W        W 8958   9.483   0.565   4.638  0.1456  0.0938  0.1995
 4759W        W 8959   3.657   2.239   4.977 -0.0440 -0.2044 -0.4653
 4760W        W 8960  10.421   0.881  11.684 -0.3728 -0.1283  0.0544
 4761W        W 8961   1.239   4.680  11.219 -0.2555  0.3265 -0.0554
 4762W        W 8962   5.394   8.638   4.245  0.0897 -0.2003 -0.0304
 4763W        W 8963   2.615   5.779   4.426 -0.1061 -0.0496 -0.3759
 4764W        W 8964   5.518   6.457  11.690 -0.1647 -0.1729  0.2948
 4765W        W 8965   2.080   3.855   0.295  0.0535  0.1052 -0.2900
 4766W        W 8966   4.147   0.847   9.343  0.2095 -0.1107 -0.0527
 4767W        W 8967   1.437   3.414   0.850  0.1635  0.0954 -0.1122
 4768W        W 8968   6.190   1.186  11.844  0.1041  0.3226  0.1153
 4769W        W 8969   7.274   0.863   9.100  0.1192  0.0619 -0.3472
 4770W        W 8970   0.196   0.581  13.497  0.1598 -0.2659  0.0180
 4771W        W 8971   9.335   0.703  10.770 -0.0138  0.0690  0.0998
 4772W        W 8972   7.359   1.763   2.728  0.2483 -0.1645  0.1712
 4773W        W 8973   3.581   1.351   0.164 -0.2938  0.0704  0.0007
 4774W        W 8974   3.019   9.276  11.724  0.1325  0.0840 -0.1408
 4775W        W 8975   7.464   3.011   9.500  0.1432  0.0339 -0.1032
 4776W        W 8976   7.070   5.500   3.049  0.0808 -0.1286 -0.0012
 4777W        W 8977   8.187   0.703   9.919 -0.0369 -0.4120  0.0337
 4778W        W 8978   2.625   7.859  12.558 -0.0178  0.0289  0.1322
 4779W        W 8979   9.416   6.680  10.257  0.0013  0.1570  0.3266
 4780W        W 8980   8.885   8.376   4.042  0.2869  0.0147 -0.3052
 4781W        W 8981   6.294   2.366  10.990  0.2361 -0.1088  0.1453
 4782W        W 8982   3.775   0.691   1.510 -0.4305  0.0889  0.1595
 4783W        W 8983   4.939   3.465   3.744  0.1523  0.2073 -0.2970
 4784W        W 8984   9.440   4.085   0.760 -0.1296 -0.0968  0.1537
 4785W        W 8985   8.385   8.846   1.488  0.1587 -0.0753  0.1600
 4786W        W 8986   4.437   0.442   2.094  0.2604 -0.0858  0.1857
 4787W        W 8987   5.676   1.275   4.913 -0.0689 -0.1190  0.2101
 4788W        W 8988   2.562   4.759  10.528  0.0596 -0.2435  0.0086
 4789W        W 8989   3.795   0.294  11.512  0.0693  0.0287  0.1399
 4790W        W 8990   7.179   4.542  13.364  0.2033 -0.0676 -0.1945
 4791W        W 8991   6.687   8.181  10.715  0.0394  0.0690  0.0026
 4792W        W 8992   7.223   5.670  11.883 -0.0951 -0.0561 -0.2541
 4793W        W 8993   9.507  10.421   2.756 -0.0003 -0.0789  0.1218
 4794W        W 8994   1.224   4.132   8.585 -0.2262  0.0292 -0.1161
 4795W        W 8995   5.158   0.383   0.008  0.0011  0.1116 -0.1663
 4796W        W 8996   7.095   1.052   2.278 -0.1607  0.0388 -0.1859
 4797W        W 8997   0.310   7.442   0.672 -0.1107 -0.3824  0.0183
 4798W        W 8998   3.975   4.134   9.956 -0.0406 -0.0609 -0.3409
 4799W        W 8999   3.198  10.148   0.348 -0.3158 -0.2116  0.1122
 4800W        W 9000   5.099   4.903  10.232  0.2249 -0.0945 -0.0076
 4801W        W 9001   3.163   2.407  11.119  0.2493 -0.3021  0.2126
 4802W        W 9002   7.607   2.702   9.886  0.1005  0.1721  0.1810
 4803W        W 9003   2.285   8.139  12.224  0.1359 -0.2289  0.1782
 4804W        W 9004   2.570  10.429  12.398  0.1579 -0.2735  0.3086
 4805W        W 9005   2.380   7.634   4.061  0.7081 -0.1109  0.0384
 4806W        W 9006   4.010   5.420  13.287 -0.1324 -0.0974  0.0856
 4807W        W 9007   6.652   5.679   2.945 -0.1648  0.2110 -0.0491
 4808W        W 9008   0.764  10.326   0.030  0.0286  0.0829  0.0320
 4809W        W 9009   2.511   9.689   9.550 -0.0928  0.6489 -0.1383
 4810W        W 9010   1.175   7.016  13.150 -0.1777 -0.0480 -0.0130
 4811W        W 9011   3.588   7.199  13.099 -0.5614 -0.0180  0.1130
 4812W        W 9012   6.776   3.894  12.699  0.0482 -0.3107 -0.0100
 4813W        W 9013   8.142   0.372  13.033  0.0493 -0.2873  0.0268
 4814W        W 9014   7.935   1.941  13.135 -0.0495  0.1906  0.2859
 4815W        W 9015   9.278   0.218   1.413  0.2601  0.1505 -0.0436
 4816W        W 9016   9.933   8.240  10.069  0.1824 -0.0703  0.0152
 4817W        W 9017   9.539   7.684  12.707 -0.0822  0.0219  0.1479
 4818W        W 9018   7.285   1.862   9.763  0.0341  0.1301  0.0160
 4819W        W 9019   4.698   6.500  12.802 -0.0294  0.2159  0.4308
 4820W        W 9020   2.090   3.669   3.744  0.0692 -0.3050 -0.1558
 4821W        W 9021   6.517   6.927   1.852  0.1687 -0.5177 -0.1293
 4822W        W 9022   5.693   3.765   1.093  0.0619  0.2975 -0.1818
 4823W        W 9023   1.624   9.083   3.399 -0.1787 -0.2910  0.0272
 4824W        W 9024   1.108   2.105   0.907 -0.4068  0.2051 -0.1698
 4825W        W 9025   0.595   3.808   2.521 -0.0759 -0.0350 -0.0845
 4826W        W 9026   2.939   4.696   1.100 -0.1539 -0.3026 -0.1822
 4827W        W 9027   5.818   3.177   9.360 -0.1173  0.4158  0.4065
 4828W        W 9028   2.182   7.267  12.268 -0.0385 -0.0637  0.1934
 4829W        W 9029   3.862   6.205   3.867 -0.0204  0.0734 -0.3151
 4830W        W 9030   7.340   5.664   1.216  0.1000 -0.1662 -0.0268
 4831W        W 9031   0.769   9.732   0.657  0.2205 -0.1277  0.1156
 4832W        W 9032   1.498   3.897   9.528 -0.1543  0.0705  0.1275
 4833W        W 9033  10.131   3.871  10.285 -0.0095  0.1709  0.0666
 4834W        W 9034   7.378  10.283  12.813  0.2449  0.1260  0.1168
 4835W        W 9035   9.930   2.717   9.470  0.0092 -0.0383 -0.0116
 4836W        W 9036  10.025   9.826   4.440  0.0475 -0.3473  0.1241
 4837W        W 9037   6.722   7.145  10.588  0.0889  0.0570 -0.1107
 4838W        W 9038   2.627   6.213   9.092  0.0900 -0.3752  0.0973
 4839W        W 9039   2.596   3.793  11.313  0.2916 -0.1995 -0.0456
 4840W        W 9040   7.982   6.692   5.074 -0.3340  0.0700 -0.0643
 4841W        W 9041   2.565   1.184   3.974  0.1227  0.2443 -0.0132
 4842W        W 9042   2.106   8.476   0.985  0.1234 -0.1360 -0.3361
 4843W        W 9043   6.988   1.373   9.661 -0.1460  0.1756  0.2479
 4844W        W 9044   0.717  10.098   2.322 -0.0508  0.1740 -0.3046
 4845W        W 9045   2.003   9.632   2.789 -0.2761 -0.3675  0.0746
 4846W        W 9046   6.052   2.088  13.148 -0.6278 -0.0191  0.1574
 4847W        W 9047   5.410   0.973  12.839 -0.0011  0.0649  0.2773
 4848W        W 9048   3.144   1.456  12.385 -0.2374  0.0617 -0.1274
 4849W        W 9049   9.457   9.796  12.967  0.0844  0.1537 -0.2601
 4850W        W 9050   6.725   0.350   0.315  0.0893 -0.2721 -0.1370
 4851W        W 9051   2.389   4.796   3.369  0.3928 -0.0386 -0.0084
 4852W        W 9052   1.223   4.202  11.895  0.0402  0.0314  0.1825
 4853W        W 9053   1.910   9.613   1.556 -0.0597 -0.0878 -0.1210
 4854W        W 9054   2.945   5.107  12.313  0.0950  0.0435 -0.2589
 4855W        W 9055  10.003   3.090  11.289  0.1395  0.0629 -0.4879
 4856W        W 9056   3.331   5.160   1.330  0.0449 -0.1445 -0.0467
 4857W        W 9057   5.754   7.596  11.811 -0.2097 -0.0849  0.0222
 4858W        W 9058   8.564   8.228  13.315  0.0545  0.0976  0.1729
 4859W        W 9059   3.865   7.614   2.396 -0.0048 -0.1962 -0.0028
 4860W        W 9060   8.983   1.911   0.969 -0.0825  0.0488  0.3338
 4861W        W 9061   2.460   5.136  13.389 -0.2400 -0.1783 -0.1732
 4862W        W 9062   8.700   2.948  13.183  0.2377  0.0825  0.2276
 4863W        W 9063   4.380  10.121  11.849  0.0590  0.1952  0.2518
 4864W        W 9064   9.943   2.238  10.678 -0.1210  0.0418 -0.2896
 4865W        W 9065   2.625   3.871  12.255  0.0343 -0.2518  0.2228
 4866W        W 9066   2.281   5.214  10.194 -0.3472 -0.1259  0.2030
 4867W        W 9067  10.193   1.302   2.897 -0.2214  0.0171  0.1015
 4868W        W 9068   5.923   0.549  11.328 -0.0141 -0.0092  0.2996
 4869W        W 9069   2.589   4.928  11.550  0.0756 -0.1219 -0.0476
 4870W        W 9070   9.971   2.887  12.737  0.0354 -0.2645  0.1458
 4871W        W 9071   5.325   1.255  10.270 -0.0263 -0.1667  0.2491
 4872W        W 9072   2.817   9.314   9.457  0.3037  0.2961 -0.1874
 4873W        W 9073   1.905   6.050  10.221  0.1142 -0.2178  0.1542
 4874W        W 9074   8.005   0.328  12.539 -0.0989  0.2795 -0.0188
 4875W        W 9075   5.192   0.563   9.112  0.0743  0.0043  0.0568
 4876W        W 9076   6.126   1.543  12.397 -0.3496 -0.3880 -0.3222
 4877W        W 9077   7.656   8.667   9.803  0.1170 -0.1675 -0.1034
 4878W        W 9078   2.627   0.856   1.768  0.1647 -0.2003 -0.0254
 4879W        W 9079   1.254   7.349   9.998  0.0897  0.2581 -0.0242
 4880W        W 9080   7.702   4.104  12.399 -0.1856 -0.0817 -0.3116
 4881W        W 9081   3.362   6.082   1.420  0.2466  0.5173  0.0597
 4882W        W 9082   8.331   1.808   4.143 -0.1331 -0.4633  0.0849
 4883W        W 9083   2.867   5.195   4.949  0.5790 -0.0067 -0.1507
 4884W        W 9084   3.574   2.126   0.664  0.0542  0.0201 -0.3845
 4885W        W 9085   5.199   6.784   2.995  0.2430  0.0537 -0.0448
 4886W        W 9086   3.768   6.209  12.139  0.2050 -0.1353 -0.1409
 4887W        W 9087   7.073   9.223  11.762 -0.2239  0.0182 -0.1312
 4888W        W 9088   8.339   7.040  12.856 -0.0934 -0.2517  0.1168
 4889W        W 9089   7.608   1.789   4.694  0.0162  0.0513 -0.0728
 4890W        W 9090   7.189   2.405   9.886 -0.3303  0.3229  0.0481
 4891W        W 9091   2.510   1.052   2.689  0.0420  0.2398  0.1601
 4892W        W 9092   0.028   4.486   4.533  0.3324  0.0291 -0.1342
 4893W        W 9093   8.661   4.148   9.393 -0.1372  0.4324  0.0715
 4894W        W 9094  10.243   1.354   0.290  0.0891 -0.2000 -0.1881
 4895W        W 9095   7.129   6.668  12.834  0.2598 -0.1999 -0.1491
 4896W        W 9096   7.834   2.249  12.132 -0.2401  0.0739  0.3176
 4897W        W 9097  10.413  10.409  10.715  0.1734 -0.1713 -0.1416
 4898W        W 9098   2.389   9.889  11.090 -0.0590  0.2112  0.2760
 4899W        W 9099   3.225   9.218   0.786  0.1553  0.0196  0.2134
 4900W        W 9100   2.487   8.953   2.608 -0.0328  0.3058 -0.0323
 4901W        W 9101   3.748   9.227   0.220 -0.0267 -0.1488  0.0992
 4902W        W 9102   1.270   5.649   2.199  0.2502  0.1369 -0.2111
 4903W        W 9103  10.445   4.573   9.511  0.2564 -0.4110 -0.1782
 4904W        W 9104   9.865   6.925   0.750  0.0757  0.1894  0.2455
 4905W        W 9105   6.384   0.045   4.272  0.1046 -0.3827 -0.0213
 4906W        W 9106   5.464   6.320   2.638  0.0669 -0.2510  0.6135
 4907W        W 9107   9.415   2.776   9.488  0.0960  0.2318  0.1111
 4908W        W 9108   5.713   1.780   8.386  0.0831 -0.0262 -0.1352
 4909W        W 9109   9.610   2.327   8.641 -0.0678  0.0927 -0.1829
 4910W        W 9110   5.809   6.927  13.185 -0.0933  0.2332  0.0995
 4911W        W 9111   6.757   5.643   1.723  0.1780  0.1234  0.0598
 4912W        W 9112   6.666   9.076   1.435  0.2502  0.2054  0.1258
 4913W        W 9113   8.907   6.723   0.967 -0.2640 -0.1627  0.0373
 4914W        W 9114   4.948   2.805   9.138  0.0389  0.0255  0.1790
 4915W        W 9115   6.355   9.157   2.046  0.0127 -0.0984 -0.1964
 4916W        W 9116   1.257   3.795  10.907 -0.3523 -0.0761  0.1863
 4917W        W 9117   3.822   9.784  10.376 -0.2067  0.0350 -0.1548
 4918W        W 9118   4.163   9.371  13.519 -0.0248  0.1254 -0.1730
 4919W        W 9119   2.061   4.858   4.197 -0.3349 -0.2335 -0.0780
 4920W        W 9120   8.267   5.209  11.771  0.3171 -0.2451  0.0302
 4921W        W 9121   9.094   1.215   5.009  0.1544 -0.2620 -0.0548
 4922W        W 9122  10.279   3.842   2.649  0.1342 -0.1396 -0.1728
 4923W        W 9123   3.902   7.538   0.797 -0.1650  0.0220  0.1267
 4924W        W 9124   5.908   1.044  10.315 -0.1362  0.3321 -0.0614
 4925W        W 9125   5.551   0.541   0.856 -0.2650  0.1442  0.0639
 4926W        W 9126   9.939   8.513   3.409  0.3532 -0.0845 -0.0870
 4927W        W 9127   8.512   8.739  13.375 -0.3477  0.2239 -0.2735
 4928W        W 9128   9.036   2.383   1.713 -0.1679  0.0338  0.1325
 4929W        W 9129   1.690   3.371  12.884  0.1454 -0.3121 -0.0009
 4930W        W 9130  10.432   5.690  12.228  0.4180 -0.1136  0.1700
 4931W        W 9131   5.064   6.742  11.664  0.0305  0.0244 -0.3673
 4932W        W 9132   0.147   6.213   3.827 -0.3637  0.3613  0.0406
 4933W        W 9133   4.668   3.441  13.436  0.0882 -0.0617  0.1561
 4934W        W 9134   0.037   4.047   3.139  0.2267 -0.1352 -0.3142
 4935W        W 9135   2.993   5.549   3.720 -0.1896  0.0581  0.0150
 4936W        W 9136   8.231   6.487   9.467 -0.1411  0.2097 -0.1996
 4937W        W 9137   1.702   0.858  12.658  0.1411 -0.0484 -0.1903
 4938W        W 9138   4.501   2.968   2.372 -0.1500  0.2784 -0.3467
 4939W        W 9139   9.524   3.782  10.316 -0.0313 -0.2559  0.2246
 4940W        W 9140   0.016   9.105  11.267 -0.1279 -0.2111 -0.3248
 4941W        W 9141   6.837   3.226   3.741 -0.0753 -0.2221  0.1857
 4942W        W 9142   4.523   4.513  11.823  0.2475 -0.0877 -0.1477
 4943W        W 9143   4.919   3.902   3.967 -0.2507 -0.0591  0.0646
 4944W        W 9144   0.721   0.865   0.789  0.2839 -0.0073 -0.0316
 4945W        W 9145   8.523   8.240   3.397 -0.0183  0.1017 -0.2084
 4946W        W 9146   3.298   6.595  11.070 -0.0297 -0.0056 -0.1070
 4947W        W 9147   4.734   4.089   3.247 -0.3246  0.1452  0.0306
 4948W        W 9148   6.322  10.084   2.362 -0.2244  0.2345  0.2309
 4949W        W 9149   8.349   3.807   0.600  0.0952  0.2113 -0.3777
 4950W        W 9150   1.834   4.325   1.107 -0.0571  0.2253  0.0432
 4951W        W 9151   2.650   2.413   2.923  0.1306 -0.2133 -0.0279
 4952W        W 9152   6.162   5.318  10.004 -0.0815  0.0865  0.1906
 4953W        W 9153   8.410   4.115   0.161 -0.1660 -0.0375  0.1398
 4954W        W 9154   8.915   6.487   3.280  0.0327  0.0828  0.0354
 4955W        W 9155   7.657   3.732  13.343 -0.3055  0.0039  0.0281
 4956W        W 9156   2.004   5.644   9.971 -0.0143 -0.0650 -0.1112
 4957W        W 9157   9.321   2.107  12.059  0.1255 -0.0400 -0.0362
 4958W        W 9158   8.566   0.786  11.319 -0.3009 -0.0264 -0.1035
 4959W        W 9159   5.184   9.065   3.877  0.2928  0.1864 -0.0144
 4960W        W 9160   6.274   4.804  12.639 -0.1859 -0.2385 -0.0021
 4961W        W 9161   5.177   9.108  10.086  0.0434 -0.3485  0.1569
 4962W        W 9162   5.565   9.481   0.493 -0.1074 -0.0717 -0.0098
 4963W        W 9163   7.161   7.851   0.818  0.1231 -0.1240 -0.0076
 4964W        W 9164   4.504   3.968  12.272 -0.0936 -0.0276 -0.1573
 4965W        W 9165   4.128   8.323  10.518 -0.1921  0.2714  0.1987
 4966W        W 9166   0.326   1.973  11.092 -0.0396  0.2095 -0.2733
 4967W        W 9167   5.944   4.536   5.259 -0.4062  0.0151 -0.0789
 4968W        W 9168   1.561   5.152  11.099 -0.0043  0.0556 -0.0173
 4969W        W 9169   8.199   9.033   0.189  0.1180 -0.0952  0.0748
 4970W        W 9170   6.829   5.000   4.479 -0.1842 -0.0097  0.2822
 4971W        W 9171   6.649  10.281   0.382 -0.1326  0.1469 -0.0728
 4972W        W 9172   4.282   5.232   2.224 -0.0182  0.1010 -0.2079
 4973W        W 9173   4.218   6.484  11.516 -0.1885 -0.1830  0.1782
 4974W        W 9174   4.848   0.693  11.882 -0.0367  0.1162 -0.0742
 4975W        W 9175   9.660   7.757   1.368  0.0232  0.1890 -0.2311
 4976W        W 9176   1.647   8.943  12.432  0.4134 -0.1156 -0.0052
 4977W        W 9177   8.582   5.702  12.659  0.1996 -0.1503  0.1649
 4978W        W 9178   7.579   6.224   0.435 -0.0027 -0.1222  0.2293
 4979W        W 9179   1.007   4.585  12.244 -0.0954  0.0057  0.1389
 4980W        W 9180   5.523   8.075   0.437 -0.1505  0.2061  0.1303
 4981W        W 9181   8.072   2.578   1.339  0.0761  0.0450 -0.3801
 4982W        W 9182   3.842   1.373   9.480  0.3325 -0.1564 -0.0802
 4983W        W 9183   9.557   2.798  10.602 -0.1145  0.1108  0.0415
 4984W        W 9184   7.359   6.698   3.537 -0.0384 -0.1274  0.0268
 4985W        W 9185   9.945   8.877  13.258  0.0914 -0.3956 -0.0182
 4986W        W 9186   5.046   9.179   3.340  0.0898  0.1222  0.3951
 4987W        W 9187   4.868   4.117  12.607 -0.3339 -0.4519 -0.0719
 4988W        W 9188   9.215   6.375   0.094  0.1502  0.0710  0.0675
 4989W        W 9189   5.206   2.189   3.154 -0.1964  0.1900  0.1484
 4990W        W 9190   8.985   5.063   2.001 -0.1552  0.1192  0.0387
 4991W        W 9191   9.804   4.349   3.276  0.0047  0.1310  0.0851
 4992W        W 9192   1.682   8.552  10.890 -0.3576 -0.0181 -0.1624
 4993W        W 9193   2.682  10.143   0.943 -0.0579  0.1639 -0.0225
 4994W        W 9194   6.860   2.424   4.209  0.0203 -0.1798  0.1032
 4995W        W 9195   0.547   0.978  11.612  0.0756  0.0111 -0.1262
 4996W        W 9196   2.053   8.744  12.208  0.0251  0.0209 -0.4764
 4997W        W 9197   0.661   6.042   1.489 -0.0134  0.0349  0.1088
 4998W        W 9198   3.999   7.843   0.334 -0.3868 -0.0483  0.0816
 4999W        W 9199   1.428   8.774   0.583  0.1907  0.0497  0.5815
 5000W        W 9200   5.559   0.702   0.243 -0.0244 -0.0726 -0.1640
 5001W        W 9201   4.570   3.863  10.844 -0.5049  0.2625 -0.3309
 5002W        W 9202   3.865   4.468   0.401  0.0167 -0.0087 -0.1408
 5003W        W 9203   3.017   5.046  11.804  0.2450  0.2053 -0.1346
 5004W        W 9204   8.380   6.284  12.442  0.0522  0.1209 -0.1687
 5005W        W 9205   0.870   0.550  11.712  0.0237 -0.2942  0.0437
 5006W        W 9206   6.974  10.137   0.745  0.0219 -0.0764 -0.1677
 5007W        W 9207   0.118   3.931   1.445  0.0564 -0.1879  0.0845
 5008W        W 9208  10.036  10.079  11.082  0.1239  0.3558 -0.0692
 5009W        W 9209   8.536   8.974  11.034  0.1069  0.0447 -0.3553
 5010W        W 9210   3.090   2.039   4.274 -0.0477  0.1122 -0.0312
 5011W        W 9211   7.059   4.169   1.578 -0.2107  0.1028  0.1803
 5012W        W 9212  10.129   8.994   4.246 -0.3099  0.2021  0.0150
 5013W        W 9213   9.739   5.982   2.737 -0.1202 -0.0175  0.0834
 5014W        W 9214   1.140   7.299   0.921  0.3352 -0.0279  0.0378
 5015W        W 9215   0.324   2.194   3.590  0.4534  0.0595  0.1044
 5016W        W 9216   0.053   4.371  10.437 -0.4002  0.2205 -0.1371
 5017W        W 9217   5.858   8.166   0.852  0.3945 -0.1613 -0.0349
 5018W        W 9218   4.938   8.319   4.198 -0.0623  0.0186  0.2654
 5019W        W 9219   1.355   9.786   1.594  0.1419 -0.0359 -0.5269
 5020W        W 9220   8.328   3.612   0.120 -0.3246 -0.1039  0.0542
 5021W        W 9221   9.668   9.570  13.418  0.1015 -0.2319  0.1445
 5022W        W 9222   4.405   8.000   3.401  0.0524 -0.0036 -0.3394
 5023W        W 9223   9.430   4.518   9.583 -0.1073  0.0436 -0.0624
 5024W        W 9224   8.618   9.703  13.461  0.2034  0.2946  0.0358
 5025W        W 9225   0.964   7.052   0.266 -0.1740 -0.1379 -0.0980
 5026W        W 9226   4.369   8.215   9.489 -0.0847  0.0698  0.1291
 5027W        W 9227   9.045   0.073   9.802  0.2530 -0.3077  0.1306
 5028W        W 9228   7.324   4.184   9.834 -0.0136  0.4243 -0.0078
 5029W        W 9229   9.844   4.970  13.414  0.0293  0.2133  0.3227
 5030W        W 9230   2.310   5.270   8.815  0.0989  0.2419 -0.3173
 5031W        W 9231   0.507   1.783  11.575  0.1949 -0.1656 -0.0797
 5032W        W 9232   0.248   3.679  10.667  0.1216 -0.0073 -0.0188
 5033W        W 9233   7.867   4.798  10.330  0.1401 -0.1165 -0.0949
 5034W        W 9234   6.176   5.761   3.174  0.1478 -0.1731  0.0135
 5035W        W 9235   0.578   1.464  13.263  0.3554  0.0984  0.1295
 5036W        W 9236   6.672   7.867   2.495 -0.0319  0.0576 -0.2727
 5037W        W 9237   1.663   9.355  13.382 -0.2955  0.1343 -0.3367
 5038W        W 9238   7.914   2.711  10.650 -0.0275 -0.2420  0.0463
 5039W        W 9239   2.446   6.656  13.056 -0.1803  0.3855  0.0896
 5040W        W 9240   5.128   4.943   2.892 -0.0925 -0.1506  0.3289
 5041W        W 9241   0.227   9.438  10.921 -0.0854 -0.0098 -0.1173
 5042W        W 9242   1.514   3.903  12.779 -0.1871 -0.1180  0.2123
 5043W        W 9243   5.155   7.934   3.008  0.3477 -0.1272 -0.2313
 5044W        W 9244   3.722   6.615   0.820 -0.0903  0.1786  0.1103
 5045W        W 9245   1.560   8.562   1.848  0.4534  0.1701 -0.1258
 5046W        W 9246   0.462   5.044   1.687  0.0738 -0.1425 -0.1594
 5047W        W 9247   3.418   0.157  11.859  0.1477  0.3260 -0.0633
 5048W        W 9248   1.138   7.825   0.833 -0.2546  0.1825 -0.2122
 5049W        W 9249   0.647   8.918   1.664  0.2541 -0.2659  0.1880
 5050W        W 9250   8.703   4.684   5.341  0.3537 -0.0705  0.0576
 5051W        W 9251   5.942   2.840   2.611  0.0820  0.1312  0.2983
 5052W        W 9252   0.020   2.401   2.736  0.1515  0.1189  0.2313
 5053W        W 9253  10.014   3.744   3.062  0.0423  0.0654  0.0593
 5054W        W 9254   0.977   4.161   1.378 -0.1776 -0.1662 -0.2091
 5055W        W 9255   0.547   5.084  10.703 -0.0583  0.3849  0.2251
 5056W        W 9256   9.172   1.005   8.582  0.0997 -0.0248  0.0721
 5057W        W 9257   4.665   8.744  11.654  0.1805  0.1467 -0.2448
 5058W        W 9258   4.637   6.541  10.016  0.1248  0.4433 -0.1323
 5059W        W 9259   7.899   0.494   1.167 -0.0062 -0.3413 -0.1936
 5060W        W 9260   9.784   0.086   1.496 -0.1483  0.2196 -0.0882
 5061W        W 9261   5.799   0.332   3.024  0.1480  0.0218  0.1660
 5062W        W 9262   5.319   5.354   2.621  0.1152 -0.2348 -0.1011
 5063W        W 9263   3.591   7.904   1.539 -0.2845  0.1024  0.1763
 5064W        W 9264   7.546   6.511   3.017  0.2311  0.1004  0.2599
 5065W        W 9265   4.161   7.963   2.132  0.2396  0.0492  0.1226
 5066W        W 9266   5.457   9.391   3.628  0.0253 -0.2409  0.0505
 5067W        W 9267   6.764   9.622  11.652  0.1398 -0.1000 -0.0501
 5068W        W 9268   4.184   7.248  12.629  0.1829  0.3197 -0.0921
 5069W        W 9269   5.459   9.390  12.548 -0.2808 -0.1390 -0.0453
 5070W        W 9270   4.926  10.178   4.601 -0.2295  0.0682 -0.0154
 5071W        W 9271   4.246   0.087  11.570  0.0439  0.1316  0.3145
 5072W        W 9272   1.305   6.121   0.939  0.1568 -0.1345  0.0697
 5073W        W 9273   7.675   7.254   2.744 -0.2555 -0.0041  0.2109
 5074W        W 9274   8.436   6.249   2.681  0.0369 -0.0379  0.2403
 5075W        W 9275   8.617   4.857  10.120  0.0341  0.0359  0.0439
 5076W        W 9276   7.615   9.924  13.121 -0.2164  0.1487 -0.3655
 5077W        W 9277   3.252   8.330  12.792 -0.5497  0.1583 -0.3660
 5078W        W 9278   5.629   9.507  10.940 -0.1143  0.2459 -0.0002
 5079W        W 9279   4.650   7.797   2.065 -0.1604  0.1010  0.0528
 5080W        W 9280   8.388   7.891  10.556  0.1916  0.0553 -0.1015
 5081W        W 9281   3.700   5.431   8.923  0.0433  0.0804 -0.0140
 5082W        W 9282   9.942   2.785   3.555 -0.2031 -0.0012 -0.0673
 5083W        W 9283   7.507   4.390   1.136 -0.0108 -0.1054  0.1013
 5084W        W 9284   3.041   7.601   2.821 -0.0084 -0.0066  0.0857
 5085W        W 9285   4.115   6.563  12.003  0.1256  0.1283 -0.1803
 5086W        W 9286   4.857   7.628   0.959 -0.2717  0.1108  0.1242
 5087W        W 9287   8.727   7.251   3.967  0.1313 -0.1735  0.2512
 5088W        W 9288   1.950   6.942   2.311  0.0186  0.1839 -0.1495
 5089W        W 9289   4.225   8.632   0.583  0.0158  0.0263 -0.2547
 5090W        W 9290   0.804   0.911   3.475  0.0329  0.3212  0.0754
 5091W        W 9291   4.093   4.881   4.523  0.4225 -0.1116 -0.1741
 5092W        W 9292  10.422   6.436   2.643 -0.1265  0.1989  0.3412
 5093W        W 9293   6.626   9.507  12.484  0.0371  0.2689 -0.1437
 5094W        W 9294   4.016   1.579  12.524 -0.2291  0.1106  0.1589
 5095W        W 9295   4.724   1.328  11.285  0.1259 -0.2115  0.0712
 5096W        W 9296   6.928   3.892   2.130 -0.1171  0.1773  0.4370
 5097W        W 9297   8.680   0.303  11.535  0.2899 -0.0246  0.1189
 5098W        W 9298   2.540   5.062   9.263  0.0110 -0.0976 -0.2366
 5099W        W 9299   4.508   5.126  11.008 -0.0443 -0.2506 -0.1668
 5100W        W 9300   9.883   0.578   1.497 -0.2076  0.0749 -0.1593
 5101W        W 9301   4.643   5.333  10.354  0.2607  0.2058  0.1646
 5102W        W 9302   5.585   6.625   4.916  0.2887  0.3046  0.0861
 5103W        W 9303   9.903  10.117   2.890  0.1253 -0.3250 -0.1506
 5104W        W 9304   4.656   4.113   2.709 -0.2248 -0.0252  0.0953
 5105W        W 9305   9.288   3.743   4.405  0.1629 -0.0973  0.1897
 5106W        W 9306   6.530   5.564  12.849  0.0717 -0.0120  0.0113
 5107W        W 9307   3.896   6.378  10.637  0.0977 -0.2347 -0.0600
 5108W        W 9308   1.877   3.675   8.671 -0.2232  0.2834  0.0497
 5109W        W 9309   4.479   4.945   0.320 -0.1150  0.0395 -0.0108
 5110W        W 9310   2.761   0.060   1.890  0.0843  0.5663 -0.0828
 5111W        W 9311   2.856   8.607   3.327  0.2914 -0.1822  0.1628
 5112W        W 9312   4.541   6.281  10.459 -0.1052  0.1176 -0.1938
 5113W        W 9313   1.566   5.344   2.443  0.1614  0.0314 -0.4196
 5114W        W 9314   3.954   4.707   9.865  0.0250 -0.1243 -0.1551
 5115W        W 9315   4.794  10.346  12.814  0.3257 -0.3142  0.1918
 5116W        W 9316   0.305   8.607   2.269  0.2238  0.0315  0.2295
 5117W        W 9317   7.544   6.118   2.611 -0.1791  0.1193  0.0935
 5118W        W 9318   5.593   2.014  11.166 -0.3653  0.0893 -0.1525
 5119W        W 9319   0.626   0.997   3.002  0.0970 -0.0650  0.0255
 5120W        W 9320  10.272   1.291  10.621  0.1286  0.0143  0.2360
 5121W        W 9321   3.516   3.904  10.869  0.1203 -0.0887 -0.2517
 5122W        W 9322   6.771   1.770  10.438  0.1837  0.2771  0.0548
 5123W        W 9323   0.769   9.439   3.125 -0.1941 -0.0925 -0.0501
 5124W        W 9324   3.863   0.707  10.315 -0.0670 -0.3955 -0.0732
 5125W        W 9325   7.232   8.916   9.474 -0.2923 -0.0044  0.1549
 5126W        W 9326   8.780   8.535   0.187 -0.3550 -0.0568  0.0684
 5127W        W 9327   8.794   5.725  10.760 -0.0337 -0.1179  0.0172
 5128W        W 9328   9.101   0.566   9.708 -0.0501  0.0749  0.1571
 5129W        W 9329   0.583   6.524   1.350 -0.0661  0.1203 -0.0180
 5130W        W 9330   1.967   8.246  12.719 -0.1588  0.2822  0.1443
 5131W        W 9331   7.328   8.415  11.052  0.1263  0.0829 -0.0372
 5132W        W 9332   9.700   9.844  12.533 -0.0821 -0.0746 -0.0706
 5133W        W 9333   8.410   8.857   2.743 -0.2209  0.0469  0.1103
 5134W        W 9334   0.572   3.492  11.479 -0.1580 -0.2643 -0.1618
 5135W        W 9335   2.271   1.488   0.678 -0.0821 -0.0128  0.1786
 5136W        W 9336   6.307   5.002   0.527  0.1125 -0.3544  0.1214
 5137W        W 9337   8.573   1.736  13.196  0.1990  0.2653 -0.1608
 5138W        W 9338   8.983   9.178   0.918 -0.0428  0.2274 -0.1619
 5139W        W 9339   8.602   1.420   9.410  0.1385  0.1321 -0.1678
 5140W        W 9340   2.224   1.053   1.605  0.4286  0.1593 -0.0233
 5141W        W 9341   3.098   0.669   3.266  0.2232  0.2607 -0.2769
 5142W        W 9342   2.432   2.759   3.432 -0.3362  0.1597  0.3111
 5143W        W 9343   8.642  10.073   0.267  0.0267 -0.1315 -0.0303
 5144W        W 9344   6.172   8.931   3.065 -0.1037  0.0113 -0.2455
 5145W        W 9345   5.588   3.696   4.116 -0.2201  0.0003 -0.0453
 5146W        W 9346   6.421   7.603   9.290  0.2739  0.3327  0.1748
 5147W        W 9347   6.318   2.187   0.896  0.0128  0.0241 -0.2666
 5148W        W 9348   5.502   7.630   3.259  0.1869 -0.2131  0.2692
 5149W        W 9349   4.535   7.525   2.654  0.1336 -0.0210  0.1199
 5150W        W 9350   9.863   2.089   4.296 -0.0688  0.0093  0.1118
 5151W        W 9351   1.312   6.250   3.402 -0.3747 -0.1271 -0.0219
 5152W        W 9352   6.196   4.157  13.513 -0.1587 -0.2693 -0.3687
 5153W        W 9353   4.929   0.968   8.963 -0.3114 -0.0581  0.1668
 5154W        W 9354   8.008   2.379   2.510 -0.0221 -0.2591 -0.0412
 5155W        W 9355   8.685   4.482   0.424  0.2555 -0.1410 -0.0647
 5156W        W 9356  10.298   3.339   2.937 -0.0585  0.0980 -0.1019
 5157W        W 9357   5.098   9.922   9.448  0.1199 -0.1627 -0.0049
 5158W        W 9358   1.514   6.001   2.426  0.0452  0.1948  0.0472
 5159W        W 9359   3.339   2.622   9.481 -0.1684 -0.1380 -0.1532
 5160W        W 9360   0.969   7.264   1.763  0.2513  0.2523 -0.0225
 5161W        W 9361   8.977   2.060  12.577  0.1067 -0.2279  0.1458
 5162W        W 9362   8.469   3.667   2.414  0.3548  0.1082  0.2395
 5163W        W 9363   4.678   5.843   4.092  0.1009  0.1181 -0.5483
 5164W        W 9364   4.002   1.606   1.435  0.0138 -0.1109  0.2140
 5165W        W 9365   4.852   0.444   3.907 -0.0557  0.1630  0.1968
 5166W        W 9366   6.604   3.077   1.109 -0.0134  0.1165  0.1026
 5167W        W 9367   8.496   8.301  12.202  0.1096 -0.2259  0.0009
 5168W        W 9368   2.746   3.427   2.087  0.2418 -0.2012 -0.3618
 5169W        W 9369   2.159   2.701   1.804  0.1557 -0.0236  0.1151
 5170W        W 9370   0.918   6.059   3.611  0.0204  0.1756 -0.2905
 5171W        W 9371   8.418   5.195   1.999  0.0158 -0.2180  0.0504
 5172W        W 9372   0.934   0.259  12.284 -0.4019  0.2366 -0.1283
 5173W        W 9373   4.791   0.773  10.589  0.3221 -0.0620  0.0166
 5174W        W 9374   7.276   6.174  12.719 -0.3379 -0.2356 -0.1506
 5175W        W 9375   5.299  10.251   2.463 -0.1235 -0.0250  0.1747
 5176W        W 9376   3.374   1.403  11.232  0.1204 -0.0925  0.4597
 5177W        W 9377   3.946   9.455   0.804 -0.0735  0.0721  0.2692
 5178W        W 9378   8.747   6.266   5.408  0.1258  0.2378  0.0571
 5179W        W 9379   9.245   1.022   9.061  0.0531 -0.2994 -0.0636
 5180W        W 9380   2.319   0.620  13.331  0.1863  0.1023 -0.1725
 5181W        W 9381   0.226   1.084   0.078  0.1463 -0.0747 -0.0293
 5182W        W 9382   4.865   1.894   0.033 -0.1305 -0.3501  0.0024
 5183W        W 9383   5.553   5.138   4.211 -0.2049  0.1304 -0.3690
 5184W        W 9384   1.842   2.371  13.356 -0.0881  0.1587  0.2441
 5185W        W 9385   7.286   9.887   3.966 -0.0560 -0.0375 -0.1871
 5186W        W 9386   8.165   7.881  13.511 -0.1366 -0.0475 -0.1232
 5187W        W 9387   2.582  10.240  12.871 -0.2461  0.0596 -0.4165
 5188W        W 9388   4.803   6.378  12.282  0.2641 -0.1167  0.1108
 5189W        W 9389  10.404   3.442  10.213 -0.2225  0.2173  0.1330
 5190W        W 9390   4.604  10.445   3.841  0.1411 -0.0790  0.1175
 5191W        W 9391   1.850   3.352   1.237  0.1092  0.1661 -0.2853
 5192W        W 9392   2.456   6.512   3.137 -0.0243  0.2630  0.1270
 5193W        W 9393   2.191   0.262  10.334 -0.1355  0.1067 -0.2744
 5194W        W 9394   3.489   1.549   0.968  0.2686  0.1192  0.0363
 5195W        W 9395  10.455   5.830  10.083  0.0013  0.1746  0.3414
 5196W        W 9396   2.917   5.221   0.881 -0.1143  0.0509  0.0506
 5197W        W 9397   4.941   3.995   2.274  0.0331  0.1607 -0.1195
 5198W        W 9398   4.435   9.710  12.131  0.1236 -0.1744  0.0464
 5199W        W 9399   5.576   5.980  12.609  0.1311  0.0195 -0.0782
 5200W        W 9400   1.386   8.921  10.710 -0.0254 -0.0500  0.0108
 5201W        W 9401   3.774   5.687  12.910 -0.0179  0.2247 -0.1841
 5202W        W 9402   4.318   0.986   8.001  0.0027 -0.1615  0.0920
 5203W        W 9403   5.304   2.992   2.545  0.3171 -0.1169  0.1447
 5204W        W 9404   1.832   6.156   0.599  0.1223 -0.2322  0.2061
 5205W        W 9405   3.771   4.052  10.467  0.4788 -0.1198  0.0896
 5206W        W 9406   4.691   7.162   9.215 -0.0807  0.0658 -0.0016
 5207W        W 9407   4.278   9.824   0.690  0.2902  0.2330  0.0768
 5208W        W 9408   7.988   2.042   4.526  0.0154 -0.3588  0.0939
 5209W        W 9409   5.454   9.225   8.950 -0.1656  0.0985 -0.1717
 5210W        W 9410   1.840   2.177   2.403 -0.3454 -0.2348  0.2246
 5211W        W 9411   5.564   6.369   3.289  0.1390 -0.1520 -0.1887
 5212W        W 9412   1.998   7.490  10.934 -0.1228  0.1780  0.0314
 5213W        W 9413   2.251   1.178  11.887 -0.1178 -0.0253 -0.1072
 5214W        W 9414   6.848  10.426  13.385  0.1051  0.1039  0.1242
 5215W        W 9415   7.589   4.290  13.172 -0.2010 -0.1990  0.1351
 5216W        W 9416   1.940   0.770  12.201 -0.0545 -0.1074  0.2130
 5217W        W 9417   1.569   4.483   3.389  0.1604 -0.0326  0.1552
 5218W        W 9418   1.239   1.509  12.286  0.0898  0.1353  0.2079
 5219W        W 9419   6.077   2.954  12.189  0.3481 -0.0451 -0.0276
 5220W        W 9420   1.495   1.070  12.184 -0.2086 -0.0998 -0.0018
 5221W        W 9421   7.765   0.406   4.918 -0.1695 -0.1787  0.0174
 5222W        W 9422   4.278   5.036  13.151  0.1729 -0.1835 -0.1201
 5223W        W 9423   3.675   3.547   9.146  0.1881 -0.1761  0.0229
 5224W        W 9424   8.311   8.776  10.580  0.0823 -0.2678 -0.1479
 5225W        W 9425   4.700   9.109   3.778  0.1176 -0.2064  0.1245
 5226W        W 9426   7.176   0.746  12.723 -0.2097  0.2135  0.0518
 5227W        W 9427   8.299   8.540   4.178  0.0647 -0.3779  0.2126
 5228W        W 9428   9.259   2.597   4.706 -0.2827 -0.1904  0.0547
 5229W        W 9429   9.017  10.447  10.301 -0.0024  0.1569 -0.1730
 5230W        W 9430   2.039  10.119  13.278  0.1086 -0.2598  0.2451
 5231W        W 9431   3.220   5.135  11.178 -0.1144 -0.2150 -0.0040
 5232W        W 9432  10.437   2.472   3.261 -0.2129 -0.2838 -0.4251
 5233W        W 9433   1.985   0.382   9.101  0.1305 -0.0319  0.0009
 5234W        W 9434   7.283   7.570   3.020 -0.3984 -0.1893 -0.0686
 5235W        W 9435   5.853   1.614  13.353  0.2416 -0.0281 -0.2434
 5236W        W 9436   6.567   3.061  11.225 -0.1965  0.2915  0.3445
 5237W        W 9437   0.269   7.427   2.438 -0.3875  0.2236  0.4424
 5238W        W 9438   0.429   8.317   1.031  0.1460  0.0082 -0.0240
 5239W        W 9439   3.628   2.930  12.052 -0.1074  0.1769 -0.2240
 5240W        W 9440   1.048   4.600   9.661 -0.1902 -0.0041 -0.0838
 5241W        W 9441   3.549  10.067  10.622 -0.2307 -0.0563  0.1979
 5242W        W 9442   4.437   7.643  12.491 -0.0915  0.0811 -0.0149
 5243W        W 9443   9.483   3.623   9.732 -0.1185  0.0738  0.0157
 5244W        W 9444   5.499   4.067   1.437 -0.0241 -0.1523  0.1265
 5245W        W 9445   2.098   7.787   3.578 -0.1665 -0.0698 -0.1250
 5246W        W 9446   7.810   5.275  12.886  0.1509  0.0159  0.1397
 5247W        W 9447  10.293   9.709   2.867 -0.1297 -0.0108 -0.0926
 5248W        W 9448   2.817   9.420   2.622 -0.0250 -0.0827  0.3116
 5249W        W 9449   2.343   8.311  13.208  0.0563 -0.1406 -0.0324
 5250W        W 9450   5.406   5.530  11.416 -0.0817 -0.0928 -0.0152
 5251W        W 9451   7.548   7.540   4.248  0.0572 -0.1659  0.0764
 5252W        W 9452   2.363   8.311   3.241 -0.3341 -0.0062  0.3388
 5253W        W 9453   1.742   7.787  11.270 -0.1072  0.0443 -0.0508
 5254W        W 9454   0.943   0.403   3.301  0.0233 -0.0492 -0.1030
 5255W        W 9455   7.800   0.471   1.653 -0.3210  0.1914  0.0294
 5256W        W 9456   8.317   7.745   2.181 -0.0507 -0.1523  0.0145
 5257W        W 9457   9.698   0.528  13.514 -0.0352  0.0698  0.1570
 5258W        W 9458   1.699   6.828   2.763  0.0322 -0.1480  0.0426
 5259W        W 9459   6.718   1.760   9.828 -0.3025  0.1469  0.1173
 5260W        W 9460   1.840   4.616   5.541  0.2337 -0.2985  0.1581
 5261W        W 9461   6.218   9.668   3.577 -0.1227 -0.2031 -0.1878
 5262W        W 9462   4.378   3.391  12.810  0.1011 -0.1924  0.0594
 5263W        W 9463  10.148   1.986   8.845  0.1810 -0.0536  0.0088
 5264W        W 9464   8.610   0.185   2.440  0.1526  0.0408  0.0298
 5265W        W 9465   4.869   7.807   4.477  0.0273 -0.2417 -0.1277
 5266W        W 9466  10.367   8.966  10.829 -0.0385  0.0031  0.0990
 5267W        W 9467   1.948   9.721  10.878  0.1959  0.1435  0.3622
 5268W        W 9468   5.263   5.322   3.180 -0.0375 -0.2151  0.0280
 5269W        W 9469   9.486   4.014  13.419  0.0840 -0.0271  0.4110
 5270W        W 9470   3.059   5.754   3.215 -0.0672 -0.3140 -0.1340
 5271W        W 9471   8.970   3.684   9.623  0.2822  0.0303  0.0977
 5272W        W 9472   3.741   9.148  13.124  0.2217 -0.0330  0.0577
 5273W        W 9473   2.847   7.631   3.842 -0.4128 -0.0595 -0.0908
 5274W        W 9474   6.692   8.235   3.327 -0.0713  0.1247  0.0842
 5275W        W 9475   4.372  10.418   2.062  0.0044 -0.0777 -0.2183
 5276W        W 9476   7.386   1.015  11.889 -0.0569  0.1132  0.0780
 5277W        W 9477   4.366   9.607   2.509 -0.0189  0.0758 -0.0462
 5278W        W 9478  10.282   5.629   2.321 -0.2231 -0.2019 -0.1325
 5279W        W 9479   7.235   0.249  10.239  0.1563  0.3472  0.1214
 5280W        W 9480   9.931   4.089   0.764  0.1734  0.1747  0.0961
 5281W        W 9481   3.603   9.388   2.056 -0.1892  0.0514 -0.0178
 5282W        W 9482   8.410   8.371   4.617 -0.0269 -0.1357  0.1278
 5283W        W 9483   9.740   9.347   0.353 -0.0086  0.1028  0.1942
 5284W        W 9484   8.262   3.023  10.570  0.0042 -0.0304  0.2066
 5285W        W 9485   9.351   3.890   0.350 -0.2633  0.0603  0.0019
 5286W        W 9486   2.024   7.195  11.333  0.0187  0.0405  0.1562
 5287W        W 9487   3.928   2.461   4.349 -0.1203 -0.0868  0.0414
 5288W        W 9488   4.559   9.586   0.341  0.1750  0.0949 -0.1735
 5289W        W 9489   8.487   6.876  11.884 -0.4280 -0.1633  0.0610
 5290W        W 9490   8.065   7.075  11.558  0.1264 -0.2587 -0.2754
 5291W        W 9491   3.626   3.164   2.413  0.1560 -0.2909  0.3961
 5292W        W 9492  10.142   6.109   1.017 -0.2325 -0.1721 -0.0446
 5293W        W 9493   8.267   2.193  13.355  0.2062  0.2458 -0.1395
 5294W        W 9494   6.815   2.204   4.643 -0.3527 -0.1950 -0.0076
 5295W        W 9495   7.634   0.710  10.813  0.0333  0.0692  0.0971
 5296W        W 9496   2.349   2.049   3.199  0.4545 -0.4422 -0.0269
 5297W        W 9497   5.499   1.804   1.775  0.0705 -0.1216 -0.1267
 5298W        W 9498   5.741   6.567   4.080 -0.2231  0.1499  0.1156
 5299W        W 9499   7.642   2.624   0.946 -0.1682  0.0828 -0.4393
 5300W        W 9500   5.081   9.463   0.596  0.1746 -0.0894 -0.1287
 5301W        W 9501   6.888  10.029  10.990 -0.2817  0.3436  0.0441
 5302W        W 9502   3.331   3.315   2.951  0.0889 -0.0669 -0.0250
 5303W        W 9503   4.852   1.860   2.715 -0.1261 -0.0155 -0.0091
 5304W        W 9504   5.878   1.574   0.772 -0.0018  0.1329 -0.0189
 5305W        W 9505   8.633   0.648   2.690 -0.1417 -0.0426  0.1026
 5306W        W 9506   7.827   7.577   9.863  0.4587 -0.1198  0.1589
 5307W        W 9507   5.435   6.255  10.038 -0.1243 -0.0665  0.0495
 5308W        W 9508   2.180   0.803   3.991  0.1626 -0.0987  0.1761
 5309W        W 9509   4.786   1.313   2.932 -0.1024  0.1307 -0.1149
 5310W        W 9510   2.343   1.794  10.281 -0.0667 -0.0421 -0.2487
 5311W        W 9511   7.989   2.094  12.634  0.2163 -0.1719  0.1730
 5312W        W 9512   4.587   8.263   0.591 -0.2032  0.2143  0.1204
 5313W        W 9513   0.314   1.013  11.151 -0.1502 -0.1446  0.1546
 5314W        W 9514   4.900   7.693  10.310 -0.2849  0.0335 -0.0585
 5315W        W 9515   7.912   9.885  10.284  0.2855  0.0866 -0.2069
 5316W        W 9516   4.222   5.050  11.887 -0.1402 -0.0429  0.1096
 5317W        W 9517   4.310   2.626  10.916 -0.1387  0.1494 -0.2068
 5318W        W 9518  10.218   0.391  11.648  0.0716 -0.2691 -0.2070
 5319W        W 9519   4.712   3.078   3.374  0.0415  0.1476  0.0793
 5320W        W 9520   0.429   8.645  12.253  0.2030  0.4239  0.2617
 5321W        W 9521   8.681  10.074  12.005 -0.0567  0.1643 -0.2689
 5322W        W 9522   9.486   8.088   1.024  0.4986  0.2166 -0.1925
 5323W        W 9523   8.093   1.547   4.569 -0.0727 -0.4285  0.4511
 5324W        W 9524   8.542   4.171   2.756 -0.2182  0.2019 -0.0268
 5325W        W 9525   2.758   3.377  12.964 -0.0641  0.1667 -0.0427
 5326W        W 9526   0.401  10.149   0.422  0.0836  0.0064 -0.1244
 5327W        W 9527   7.504   7.846  11.094  0.0640 -0.2555  0.1424
 5328W        W 9528   4.356   8.670  12.114  0.1606  0.0389 -0.2399
 5329W        W 9529   7.436   7.713  10.582 -0.0816 -0.0332  0.0648
 5330W        W 9530   2.337   0.115   9.436  0.0860 -0.2523  0.2167
 5331W        W 9531   8.431   5.660  11.111  0.0473  0.0264  0.4312
 5332W        W 9532   5.196   9.827  10.924  0.1515  0.3696  0.1000
 5333W        W 9533  10.245   3.232   1.270 -0.3710  0.0715 -0.2423
 5334W        W 9534   7.047   6.332   3.673 -0.0448  0.0743  0.1444
 5335W        W 9535   3.121   1.230  11.857  0.0255  0.0556 -0.0186
 5336W        W 9536   8.257   8.721   1.009  0.0691 -0.3636 -0.0775
 5337W        W 9537   4.020   4.384   1.972  0.1605 -0.2814 -0.1767
 5338W        W 9538   8.707   4.282   8.835 -0.2968 -0.1101  0.2857
 5339W        W 9539   1.054   0.065   9.485  0.2227  0.2463 -0.0713
 5340W        W 9540   8.046  10.015   1.096  0.1088 -0.2224  0.1221
 5341W        W 9541   5.839   6.554   0.933 -0.0327 -0.1143  0.3377
 5342W        W 9542   6.913   7.659   3.405 -0.0147 -0.1800  0.2594
 5343W        W 9543   9.294   8.016   3.975 -0.2462  0.0395 -0.0387
 5344W        W 9544   9.357   0.093  12.154 -0.2335 -0.2349 -0.0581
 5345W        W 9545   0.801   4.127   4.745  0.1217 -0.2195 -0.1291
 5346W        W 9546   2.473   5.153   2.284 -0.1465 -0.0455  0.1891
 5347W        W 9547   7.130   4.440   3.605 -0.2605 -0.1365 -0.1284
 5348W        W 9548   2.408   1.476   1.852 -0.2840  0.0296 -0.1757
 5349W        W 9549   1.889   4.482  12.562  0.2475  0.4960 -0.0724
 5350W        W 9550   8.679   0.564  11.992 -0.3274 -0.1065  0.0413
 5351W        W 9551   5.409   8.510  10.170 -0.0028 -0.1937  0.0192
 5352W        W 9552   4.555   2.989  11.829 -0.3865 -0.0727 -0.1468
 5353W        W 9553   4.734   6.796   4.488  0.1575  0.0809  0.5089
 5354W        W 9554   2.866   1.416   3.053 -0.1621  0.1000 -0.1413
 5355W        W 9555  10.417   4.200   0.493  0.1573 -0.1999  0.3173
 5356W        W 9556   1.568   7.335  12.985  0.1349  0.3065  0.2775
 5357W        W 9557   9.218  10.086  12.105 -0.3742 -0.1230  0.2793
 5358W        W 9558   6.843   8.332   2.004 -0.4607 -0.1514  0.2260
 5359W        W 9559   0.813   3.486  13.247  0.1822 -0.0852  0.0816
 5360W        W 9560   6.835  10.140   9.520  0.4353 -0.6016  0.0287
 5361W        W 9561   3.900   2.602   2.164  0.2011 -0.1581 -0.2510
 5362W        W 9562   8.040   6.070  12.118 -0.1443  0.1463  0.2006
 5363W        W 9563   6.239   8.272   9.707 -0.1794  0.1136 -0.0950
 5364W        W 9564   6.118   2.008  12.130  0.0263 -0.1082 -0.2600
 5365W        W 9565   8.554   5.233   9.570 -0.0143  0.2269  0.1730
 5366W        W 9566   8.602   8.975  12.916 -0.2582 -0.0894  0.2070
 5367W        W 9567   4.992   6.068   9.965 -0.1893  0.0808  0.1744
 5368W        W 9568   3.844   1.108  12.378  0.1180 -0.1034 -0.0044
 5369W        W 9569   6.393   7.864  11.093 -0.2788  0.0616 -0.1241
 5370W        W 9570   4.887   8.948   2.889  0.0083 -0.2719 -0.1996
 5371W        W 9571   4.160   6.665   5.276 -0.0847 -0.1049 -0.2856
 5372W        W 9572   9.751   3.996  10.710 -0.1746 -0.3435  0.0849
 5373W        W 9573   2.931   7.914  12.936 -0.1360 -0.0776 -0.0187
 5374W        W 9574   3.886   2.827   2.725 -0.2523 -0.0832  0.1904
 5375W        W 9575   2.668   1.613   0.980 -0.2065  0.1791 -0.0250
 5376W        W 9576   1.847   2.812   4.625 -0.1258 -0.0533 -0.1648
 5377W        W 9577   4.301   2.497   0.276 -0.0165 -0.0098 -0.2309
 5378W        W 9578   1.319   1.186  12.690  0.3840  0.0564  0.0792
 5379W        W 9579   8.049   7.899  10.935  0.0770 -0.0508  0.2009
 5380W        W 9580   2.731   9.374  11.258 -0.1841 -0.1457 -0.4200
 5381W        W 9581   8.877   1.593  11.335  0.2142 -0.2564  0.1372
 5382W        W 9582   3.879   6.138  12.726 -0.1989  0.2541 -0.3437
 5383W        W 9583   4.517   8.292   2.008  0.1079  0.2840 -0.0159
 5384W        W 9584   2.213   3.477   5.255  0.0912  0.0947  0.1245
 5385W        W 9585   5.609   0.194  13.335 -0.4266  0.0201 -0.2152
 5386W        W 9586   3.108   5.138   4.061 -0.1660  0.0186 -0.1653
 5387W        W 9587   6.873   6.738  10.742 -0.0007  0.2884  0.1516
 5388W        W 9588   9.058   3.925  10.122 -0.0802 -0.1545 -0.1015
 5389W        W 9589   1.379   0.244  10.854 -0.0606  0.3832 -0.0187
 5390W        W 9590   7.799   6.668   9.698  0.0139  0.0957 -0.0217
 5391W        W 9591   4.699   4.966   2.094  0.2037  0.1765 -0.2060
 5392W        W 9592   3.664   5.310   2.722  0.2898  0.0742 -0.0698
 5393W        W 9593   8.995   9.529   8.762  0.0203 -0.1441 -0.0248
 5394W        W 9594   0.062   1.406   9.672 -0.2475 -0.0046 -0.1432
 5395W        W 9595   0.484   2.579  12.670 -0.3376 -0.0052  0.2101
 5396W        W 9596   8.778   2.659  11.707  0.1754  0.1065 -0.1058
 5397W        W 9597   1.286   6.218  13.280  0.1835 -0.2236 -0.2308
 5398W        W 9598   5.155   5.816   0.964 -0.1345 -0.2395 -0.1988
 5399W        W 9599   1.425   5.295  10.617 -0.0289 -0.3294 -0.0353
 5400W        W 9600   3.762   9.338   3.149 -0.0015 -0.3036  0.0247
 5401W        W 9601   4.251   4.855   1.805  0.0158 -0.0935 -0.1263
 5402W        W 9602   5.104   5.694  11.830  0.0370 -0.0793 -0.0136
 5403W        W 9603   7.582   9.075  13.209 -0.1322 -0.0488  0.2305
 5404W        W 9604   6.981   5.772   0.666  0.2331 -0.1118 -0.2465
 5405W        W 9605   8.835   0.936   3.955  0.1482  0.2939  0.0241
 5406W        W 9606   8.369   5.382   4.578  0.4022  0.1284  0.2268
 5407W        W 9607   1.935   2.891   1.024  0.0134 -0.0728  0.0612
 5408W        W 9608   0.292   2.680   1.628  0.1856  0.1435  0.4197
 5409W        W 9609   2.297   9.206   3.454 -0.3379  0.1389  0.0602
 5410W        W 9610   2.607   4.662   2.230 -0.2029 -0.1462 -0.3579
 5411W        W 9611   8.132   5.600   8.332  0.3334 -0.0238 -0.1737
 5412W        W 9612   7.252   6.285  13.192 -0.0221  0.1558 -0.2357
 5413W        W 9613   3.828   6.594   4.283  0.5191  0.1967 -0.1305
 5414W        W 9614  10.109   2.935   2.171 -0.1804 -0.3203  0.3789
 5415W        W 9615   0.682   4.741   4.239 -0.0870  0.3773  0.1169
 5416W        W 9616   0.055   3.044   4.132  0.1696  0.0993 -0.0201
 5417W        W 9617   5.757   2.058   8.766  0.0736 -0.0138  0.0528
 5418W        W 9618   7.006   7.516  12.536 -0.0764 -0.0660  0.0701
 5419W        W 9619   2.581   9.790  10.121  0.1076 -0.1244 -0.4802
 5420W        W 9620   9.015   6.345   4.277  0.0320 -0.0149  0.1321
 5421W        W 9621   3.195   5.267   3.275  0.0336  0.1748  0.3880
 5422W        W 9622  10.441   3.387  11.450  0.1818 -0.2652 -0.0799
 5423W        W 9623   3.661   4.303   1.550 -0.0315 -0.1698 -0.2131
 5424W        W 9624   2.307   4.609   9.564  0.1299 -0.1423 -0.2041
 5425W        W 9625   6.716   8.293   9.830  0.2018  0.2961  0.0313
 5426W        W 9626   4.173   3.444   1.044  0.4376  0.0848 -0.3344
 5427W        W 9627   2.639   4.071   0.570 -0.1395  0.3071 -0.1424
 5428W        W 9628  10.171   4.253  12.793  0.1120  0.2855 -0.0697
 5429W        W 9629   9.837   4.400   9.779 -0.2542  0.0662  0.0828
 5430W        W 9630   5.120   3.182  12.478  0.2157  0.0000 -0.1887
 5431W        W 9631   8.175   3.889   3.856  0.1549  0.2714  0.0276
 5432W        W 9632   9.250   3.928  12.626 -0.1216 -0.0337 -0.1672
 5433W        W 9633   8.845   8.619   2.159 -0.4139 -0.1554 -0.2054
 5434W        W 9634   7.524   0.891   2.851  0.2531  0.0017  0.1541
 5435W        W 9635   1.170  10.024   2.544  0.1607 -0.1814  0.1901
 5436W        W 9636   7.613   9.859  11.346  0.3239  0.2983 -0.1523
 5437W        W 9637   5.291   7.999   4.049 -0.0555 -0.1777 -0.1724
 5438W        W 9638   3.285   2.935  10.451  0.0438 -0.0947  0.0593
 5439W        W 9639   3.495   0.917  11.134 -0.1144  0.2193  0.0025
 5440W        W 9640   3.482   4.895   3.793 -0.2238 -0.2305 -0.0159
 5441W        W 9641   0.472   9.129  10.544  0.1865  0.2580 -0.2882
 5442W        W 9642   4.443   7.618  10.031 -0.2009 -0.2004  0.0340
 5443W        W 9643   3.817   8.476   0.887  0.0461  0.0659 -0.2151
 5444W        W 9644   5.151   1.899   2.313 -0.1459  0.0299 -0.0113
 5445W        W 9645   3.089   1.722   9.792 -0.1183  0.1259 -0.2180
 5446W        W 9646   4.076   6.650   1.447  0.0267 -0.0039 -0.0952
 5447W        W 9647   0.372   2.468   1.094 -0.0854 -0.3128 -0.2488
 5448W        W 9648   4.585   3.483   9.765  0.1130  0.2339 -0.1780
 5449W        W 9649   1.544   3.178   1.576  0.1182  0.0095 -0.0801
 5450W        W 9650   8.816   4.369  10.397 -0.3123  0.1372  0.0227
 5451W        W 9651   6.553   5.505   4.577  0.1150 -0.4641  0.0230
 5452W        W 9652   6.012   0.356   1.740  0.1958 -0.0125 -0.0836
 5453W        W 9653   6.109   1.657  12.890  0.1564 -0.2179  0.2863
 5454W        W 9654   8.154   6.092   3.704  0.0515  0.0611  0.0725
 5455W        W 9655   4.972   5.065   0.301  0.1885 -0.0216  0.0349
 5456W        W 9656   8.906   6.982   3.019  0.2833 -0.1839  0.2251
 5457W        W 9657   1.128   3.124  10.252 -0.0818  0.2987 -0.0940
 5458W        W 9658   2.337   7.914  12.962 -0.1436 -0.1148  0.2474
 5459W        W 9659   2.226   2.702  11.439  0.3002  0.0448 -0.3178
 5460W        W 9660   4.306   6.668   4.283  0.1056 -0.1909 -0.2443
 5461W        W 9661   4.066   1.680   3.224 -0.2951 -0.1806  0.2137
 5462W        W 9662   0.272   0.901  10.418  0.1463  0.0592  0.1804
 5463W        W 9663   7.447   7.230  11.016  0.3608  0.0212 -0.1953
 5464W        W 9664   7.785   6.918   4.490 -0.3010 -0.0756 -0.0467
 5465W        W 9665  10.399   3.033   3.378  0.0830 -0.3182 -0.1516
 5466W        W 9666   7.302   7.392   9.893 -0.0946 -0.0713 -0.3009
 5467W        W 9667   6.925   9.640   1.044  0.0774  0.1516 -0.1110
 5468W        W 9668   7.462   5.590   1.747 -0.1509  0.4236 -0.0298
 5469W        W 9669   1.383   4.207   4.292 -0.1337  0.0760 -0.2519
 5470W        W 9670   9.248   1.842   4.504  0.2675 -0.0052 -0.1212
 5471W        W 9671   3.787   3.484   2.021 -0.0002  0.1457  0.2248
 5472W        W 9672   2.450   8.110   2.786  0.3374 -0.0124  0.1203
 5473W        W 9673   6.018   6.877   9.924 -0.0625 -0.0389 -0.0538
 5474W        W 9674   4.745   0.844   4.280  0.2310 -0.1103  0.0199
 5475W        W 9675   8.939   9.665  12.014 -0.1481 -0.0087 -0.0111
 5476W        W 9676   2.070   6.794  12.124 -0.0593 -0.1855  0.0529
 5477W        W 9677   5.079   6.874   0.312 -0.3305  0.1569  0.0154
 5478W        W 9678   1.343   8.601  12.147 -0.2103 -0.0229  0.1746
 5479W        W 9679   7.501   5.175   1.231 -0.0307  0.1750 -0.3483
 5480W        W 9680   6.885   4.955   1.842 -0.0411 -0.2791 -0.4941
 5481W        W 9681   4.481   6.859  11.517  0.0358  0.1215 -0.2217
 5482W        W 9682   1.490   8.460  12.646  0.0781 -0.2369  0.4172
 5483W        W 9683   4.237   3.632  13.237  0.0383 -0.0596  0.3040
 5484W        W 9684   9.213   2.477  12.464 -0.0454  0.1033 -0.1023
 5485W        W 9685   0.454   5.322   0.819  0.0822 -0.0246 -0.3485
 5486W        W 9686   1.967   4.845   1.113 -0.3373  0.2097 -0.0671
 5487W        W 9687   8.658   6.760   1.743  0.1445  0.0102 -0.0594
 5488W        W 9688   3.728   4.579   2.885 -0.0229 -0.1444 -0.2152
 5489W        W 9689   2.019   5.104   4.778  0.2236  0.2013 -0.1341
 5490W        W 9690   4.613   5.688   2.285 -0.0251 -0.1707  0.1145
 5491W        W 9691   5.567   0.224   4.104 -0.3691  0.1452  0.1179
 5492W        W 9692   1.290   4.362  12.898  0.1245 -0.1379 -0.0583
 5493W        W 9693   8.554   0.202   8.182  0.1793  0.2422  0.0488
 5494W        W 9694   6.200   7.704   4.530 -0.0960 -0.0371 -0.0898
 5495W        W 9695   9.612   8.998  12.417 -0.0612  0.0852 -0.0113
 5496W        W 9696  10.432   2.871  13.028 -0.1772  0.0354  0.1673
 5497W        W 9697   8.298   4.477  10.360 -0.0337 -0.0446 -0.3357
 5498W        W 9698   3.061   1.814   2.648  0.0050 -0.1632 -0.1420
 5499W        W 9699   4.971   6.298   3.841 -0.1386  0.3289  0.0569
 5500W        W 9700   0.260   9.592  12.373  0.0548 -0.0252  0.0590
 5501W        W 9701   0.695   7.531   1.026  0.0881  0.2509  0.0579
 5502W        W 9702   2.947   6.409  11.411 -0.0961 -0.0976 -0.1182
 5503W        W 9703  10.255   8.049  13.154 -0.0618  0.0493 -0.1641
 5504W        W 9704   9.095   1.956  11.028 -0.2121 -0.1579  0.0658
 5505W        W 9705   3.709   3.556  10.566 -0.0255  0.1282  0.0570
 5506W        W 9706   7.501   1.946  12.399 -0.3163  0.2811 -0.0720
 5507W        W 9707   2.627   2.148   0.898 -0.2011  0.3076 -0.0433
 5508W        W 9708   2.849   0.991  12.389  0.0320  0.3313  0.1542
 5509W        W 9709   6.729   6.028   5.477  0.2016  0.1105 -0.3394
 5510W        W 9710   4.960   4.665   3.735  0.1862  0.1602 -0.0809
 5511W        W 9711   3.488  10.437   3.668 -0.1592 -0.2883  0.0365
 5512W        W 9712   4.938   5.367   2.254  0.0083 -0.0460  0.0535
 5513W        W 9713   6.351  10.205   1.488 -0.0224  0.1435  0.0677
 5514W        W 9714   1.392   8.107   2.427 -0.3789 -0.1813  0.0771
 5515W        W 9715   5.083   4.270   1.671 -0.0196  0.1049  0.0732
 5516W        W 9716   4.495   9.173  11.926 -0.0369 -0.2305  0.0900
 5517W        W 9717   2.131   6.419   3.456  0.5009 -0.2937 -0.1797
 5518W        W 9718   0.569   0.088  11.998 -0.0633  0.1679 -0.2907
 5519W        W 9719   7.452   6.601   4.614  0.2278  0.0520 -0.1303
 5520W        W 9720   9.351   1.262  10.547  0.0592  0.0941 -0.0710
 5521W        W 9721   1.545   8.091  13.050  0.1172  0.0928 -0.2947
 5522W        W 9722   8.062   1.106   9.536 -0.1746 -0.2834 -0.0324
 5523W        W 9723   1.163   9.546   2.694 -0.0170  0.0300 -0.1455
 5524W        W 9724   8.919   2.852  12.730  0.0936  0.1598  0.0940
 5525W        W 9725   5.933   2.557   4.502  0.0978 -0.0707 -0.0695
 5526W        W 9726   3.825   6.710   3.329  0.0527 -0.1253 -0.2042
 5527W        W 9727   7.033   7.552   1.555  0.1536  0.0023  0.2617
 5528W        W 9728   4.697   4.615   1.603 -0.0857 -0.0908 -0.2681
 5529W        W 9729   8.313  10.393  12.908 -0.1099  0.0580 -0.2097
 5530W        W 9730   1.441   4.787  10.758 -0.1240 -0.1842 -0.2568
 5531W        W 9731   7.335   4.178  10.673  0.0151  0.2148  0.0803
 5532W        W 9732   8.937   3.449  11.191 -0.4980  0.0024 -0.1071
 5533W        W 9733   7.234   8.356   1.050 -0.0933  0.1900 -0.2456
 5534W        W 9734   3.472   9.936  13.114 -0.0414 -0.1872 -0.1714
 5535W        W 9735   4.379   1.557   1.117  0.2429 -0.2353  0.5311
 5536W        W 9736   5.422   5.836   2.927  0.0048 -0.0831  0.2918
 5537W        W 9737   7.882   4.755   0.452 -0.1670 -0.2290 -0.0614
 5538W        W 9738   2.557   3.707   2.532  0.1220  0.3857 -0.1890
 5539W        W 9739   7.548   5.360  11.200  0.0376 -0.3303 -0.0025
 5540W        W 9740   2.507   2.811   0.099 -0.2195  0.1031  0.3558
 5541W        W 9741   0.611   9.908  10.061 -0.0365  0.1806 -0.2734
 5542W        W 9742   5.670   7.951  12.343  0.0515 -0.2125  0.0732
 5543W        W 9743   1.777   0.947  11.313  0.1339 -0.1141 -0.1863
 5544W        W 9744   6.625   5.801  13.394 -0.1387 -0.1697  0.2741
 5545W        W 9745   8.640   8.214  12.725  0.0914  0.0127 -0.0545
 5546W        W 9746   0.109   2.318  12.909 -0.2023  0.0645 -0.0598
 5547W        W 9747   4.850   1.293  10.810 -0.2159  0.1026 -0.0572
 5548W        W 9748   9.504   2.868   4.281 -0.2402 -0.3633 -0.0885
 5549W        W 9749   4.945   6.469  10.861  0.0935  0.0638  0.0530
 5550W        W 9750   5.863   4.472   8.949  0.0136 -0.3604 -0.2212
 5551W        W 9751   6.914   4.586   9.118  0.0064 -0.1143 -0.2488
 5552W        W 9752   4.456   6.871   0.985 -0.1154 -0.3368  0.2322
 5553W        W 9753   1.407   4.704  10.070  0.2012  0.2728 -0.1843
 5554W        W 9754   3.120   5.388   1.851  0.1850 -0.0226 -0.0267
 5555W        W 9755   9.416   8.009   2.331 -0.0239  0.1874 -0.0550
 5556W        W 9756   4.301   5.280   4.187 -0.2819  0.1562  0.1368
 5557W        W 9757   8.756   6.877  13.150 -0.1418  0.0217 -0.0790
 5558W        W 9758   8.520   2.139  10.317  0.0862  0.1095  0.2136
 5559W        W 9759   7.975   5.104  12.183  0.0036  0.2922 -0.1322
 5560W        W 9760   7.200   0.317  13.505 -0.0785 -0.0167  0.0292
 5561W        W 9761   9.572   5.487   2.864 -0.3038  0.2712 -0.2217
 5562W        W 9762   4.523   8.160  12.221 -0.0298  0.0479  0.0944
 5563W        W 9763   1.615   1.258   3.214 -0.2610 -0.0796  0.1768
 5564W        W 9764   7.424   4.046  11.945  0.0405  0.0604 -0.2962
 5565W        W 9765   5.994   2.518   3.318 -0.0560 -0.1505 -0.2074
 5566W        W 9766   3.047   4.070   1.496  0.3682 -0.2099 -0.1607
 5567W        W 9767   5.921   6.718   3.615  0.2435 -0.3238  0.2029
 5568W        W 9768   1.104   2.989   2.072  0.1053  0.2098  0.2556
 5569W        W 9769   7.706   2.327   8.726  0.0474  0.1013  0.1264
 5570W        W 9770   9.264   3.133  10.869 -0.3380  0.1924 -0.2735
 5571W        W 9771   3.792  10.151   3.360  0.0262  0.0507  0.1053
 5572W        W 9772   1.640   5.569   3.389  0.1984 -0.1784  0.1821
 5573W        W 9773   5.349   2.340  10.293  0.4791 -0.3032 -0.2334
 5574W        W 9774   7.005   4.440   5.313 -0.1368  0.0798  0.1328
 5575W        W 9775  10.070   3.307   9.601 -0.1953  0.0070  0.1215
 5576W        W 9776   9.262   6.937   1.312 -0.0492  0.0521 -0.0643
 5577W        W 9777   6.117   1.513  10.891 -0.0391 -0.0408 -0.0018
 5578W        W 9778   2.802   6.653   1.854  0.2191  0.3087 -0.1191
 5579W        W 9779   5.099   7.881   0.097 -0.0250 -0.0143  0.1915
 5580W        W 9780   5.340   6.791  12.891 -0.2649  0.1979 -0.1515
 5581W        W 9781   6.841   2.376  13.399  0.1207  0.0526 -0.0871
 5582W        W 9782   0.072   1.094   3.266 -0.0209 -0.0529 -0.1022
 5583W        W 9783   9.873   6.964  10.364  0.1264  0.0301  0.2280
 5584W        W 9784   2.235   2.699  10.693  0.1179 -0.0872  0.1609
 5585W        W 9785  10.160   2.276   4.723 -0.0269  0.1642  0.1879
 5586W        W 9786   7.244   6.614  10.348  0.0189  0.0245 -0.3671
 5587W        W 9787   8.853   2.846   2.317  0.2266  0.3398 -0.1993
 5588W        W 9788   2.453   5.583   9.769  0.1354  0.2420  0.0176
 5589W        W 9789   4.389   2.396   8.459 -0.3380  0.0775  0.2105
 5590W        W 9790   4.868   2.018   3.455  0.2075 -0.3919  0.3005
 5591W        W 9791   3.152   7.993   3.637  0.2683  0.4464 -0.5197
 5592W        W 9792   8.642   7.016   0.595  0.0903 -0.1401 -0.0190
 5593W        W 9793   3.760   7.773   9.768  0.1855 -0.1411  0.2538
 5594W        W 9794   6.337   0.329   5.230 -0.1095  0.1166 -0.1124
 5595W        W 9795   1.597   0.609   1.809 -0.0310 -0.1251  0.0497
 5596W        W 9796   1.457   6.063  11.671 -0.0049 -0.0077  0.0585
 5597W        W 9797   2.324   0.113   1.061  0.2099  0.0982 -0.1111
 5598W        W 9798   3.334   6.471   3.368 -0.1666 -0.0142  0.0523
 5599W        W 9799   0.118   0.287  12.636  0.1283  0.1693 -0.0156
 5600W        W 9800   4.696  10.290  11.420 -0.0857  0.1308 -0.0116
 5601W        W 9801   3.985   2.643  12.974 -0.0638  0.3526  0.0414
 5602W        W 9802   3.878   1.374  11.091  0.2905 -0.0636 -0.0188
 5603W        W 9803   2.913   8.208  12.441 -0.0420 -0.2992 -0.1051
 5604W        W 9804   0.457   2.592   3.416  0.1999 -0.1066 -0.0812
 5605W        W 9805  10.232   8.882   1.323  0.1539  0.0048 -0.1254
 5606W        W 9806   3.161   0.319   9.493 -0.1186  0.0140 -0.0693
 5607W        W 9807   8.263   1.990   2.754 -0.0856  0.0641  0.2361
 5608W        W 9808   3.277  10.387  10.413  0.0760 -0.1669  0.3016
 5609W        W 9809   5.411   4.178  11.976 -0.1189  0.0826 -0.4086
 5610W        W 9810   7.896   6.107   9.662 -0.1707 -0.1180  0.2992
 5611W        W 9811   8.910   8.702   2.653  0.2353 -0.2085 -0.0910
 5612W        W 9812   1.304  10.170  10.466  0.2231  0.1213  0.1029
 5613W        W 9813   2.441   0.788  12.139 -0.1946 -0.0650 -0.0997
 5614W        W 9814   3.573   7.099  10.242  0.0183 -0.1017 -0.0256
 5615W        W 9815   6.453   7.436   2.795 -0.0645  0.3493  0.3397
 5616W        W 9816   0.178   4.819   3.937  0.0022 -0.3583 -0.3103
 5617W        W 9817   4.529   0.479   6.989  0.0307 -0.2163 -0.1353
 5618W        W 9818   2.561   3.045   3.984 -0.1478 -0.2100 -0.2488
 5619W        W 9819   5.690   3.535   3.439 -0.2065  0.2479 -0.2441
 5620W        W 9820   2.761   5.041   3.162  0.0873  0.1629  0.1098
 5621W        W 9821   8.182   8.371   1.537 -0.4079  0.2195  0.2016
 5622W        W 9822   7.010   7.552  10.272  0.1501  0.1569  0.2448
 5623W        W 9823   0.357   2.832   2.508 -0.2007  0.2773  0.4341
 5624W        W 9824   2.838   6.563   0.475 -0.1093  0.2188 -0.0324
 5625W        W 9825   5.507   7.100   5.041 -0.0268 -0.0185  0.2149
 5626W        W 9826   6.377   6.824  13.276  0.2038 -0.2566 -0.0712
 5627W        W 9827   1.253   5.112   3.775  0.0701 -0.0790 -0.2205
 5628W        W 9828   3.970   6.585  13.383 -0.0473  0.1513  0.1541
 5629W        W 9829   5.710   0.651   2.099 -0.1891 -0.2430 -0.2331
 5630W        W 9830   1.457   0.738   2.541  0.1702  0.0514  0.1466
 5631W        W 9831   1.712   1.564  12.073  0.0816  0.2786 -0.0103
 5632W        W 9832   0.094   5.543  13.426  0.0038  0.0226  0.1173
 5633W        W 9833   4.723   1.451   2.336 -0.0295  0.1537  0.1519
 5634W        W 9834   4.235   1.335   3.732  0.1918  0.3084  0.2405
 5635W        W 9835   6.864   1.205   3.146 -0.2195  0.0840  0.0350
 5636W        W 9836   9.347   3.642  10.882  0.0765  0.2393  0.0598
 5637W        W 9837   7.553   6.429  10.037 -0.0430  0.1218  0.1280
 5638W        W 9838   6.363   3.794   5.009  0.1495  0.1115  0.3118
 5639W        W 9839   1.267   7.485   0.472 -0.2938 -0.0562  0.2933
 5640W        W 9840   9.673   6.363   3.630  0.3692 -0.1172  0.0716
 5641W        W 9841   1.736   7.154  12.050 -0.3483  0.0010  0.2125
 5642W        W 9842   7.079   8.711   9.920  0.1067  0.1904 -0.0580
 5643W        W 9843   9.845   5.491   5.146 -0.1574 -0.0686 -0.0095
 5644W        W 9844   1.437   8.130   1.226  0.1124  0.2214  0.2306
 5645W        W 9845   7.662   1.478  13.278 -0.1088 -0.2623  0.0360
 5646W        W 9846   0.036   8.048   0.088  0.2968  0.0015  0.0687
 5647W        W 9847   6.250   4.532   0.314  0.1685  0.3048 -0.3822
 5648W        W 9848   3.149  10.363   1.571 -0.1082 -0.1101 -0.4124
 5649W        W 9849   7.267   1.521  11.614  0.1332  0.0245 -0.1518
 5650W        W 9850   3.378   4.291  12.461 -0.1645 -0.1354 -0.2241
 5651W        W 9851   1.374   0.135  12.569 -0.0818 -0.1585  0.2868
 5652W        W 9852   4.361   3.514  12.129 -0.1955  0.0971 -0.2008
 5653W        W 9853   5.898   3.434  11.968 -0.0840  0.2028  0.0893
 5654W        W 9854  10.170   7.100  13.428 -0.2840  0.1213  0.0370
 5655W        W 9855   6.401   2.086  11.690  0.2555 -0.2242  0.3261
 5656W        W 9856   8.721   9.759   9.657 -0.0152  0.0029 -0.0489
 5657W        W 9857   8.152   0.836   0.829 -0.0184  0.2720  0.3839
 5658W        W 9858   9.819   5.790   4.049 -0.0521 -0.1079 -0.0732
 5659W        W 9859   5.893   8.104  10.935  0.2456  0.0435  0.0009
 5660W        W 9860   0.788   5.490  12.243 -0.0782 -0.2622  0.1677
 5661W        W 9861   2.067   4.579   2.063  0.3023 -0.0138  0.0397
 5662W        W 9862   8.039   0.686   3.516  0.1833 -0.3422  0.0853
 5663W        W 9863   6.441   9.256   9.934  0.0462 -0.1184  0.1242
 5664W        W 9864   6.804   8.446  11.090 -0.2107  0.1062  0.2138
 5665W        W 9865   9.858   7.324  12.502 -0.0949  0.0743  0.1281
 5666W        W 9866  10.425   5.138   2.658  0.1579 -0.1102 -0.0141
 5667W        W 9867  10.398   3.702  13.272  0.0981 -0.3178 -0.0405
 5668W        W 9868   5.633   7.738   2.695  0.0136  0.1687 -0.1659
 5669W        W 9869   9.478   6.154   3.108  0.0357 -0.0025  0.0239
 5670W        W 9870   4.856   4.055  10.499  0.1644  0.0266  0.2030
 5671W        W 9871   2.762   6.104   2.274  0.2131 -0.0473  0.0895
 5672W        W 9872   1.234   9.815  11.699 -0.3072 -0.5250 -0.2484
 5673W        W 9873   2.783   3.522   9.517 -0.0778 -0.1597 -0.0165
 5674W        W 9874   3.756   0.387  12.116  0.0537 -0.2265  0.1116
 5675W        W 9875   1.329   9.361  12.415 -0.0809  0.0923  0.3425
 5676W        W 9876   8.045   0.767   2.062 -0.0035 -0.1154 -0.0600
 5677W        W 9877   5.843   9.803   0.927  0.0709 -0.1276  0.0731
 5678W        W 9878   5.697   1.291  10.705  0.1322 -0.1862 -0.1536
 5679W        W 9879   6.295   7.329   1.071 -0.0265 -0.0902  0.2728
 5680W        W 9880   6.339   8.709  10.011 -0.0482 -0.1591 -0.2776
 5681W        W 9881   4.688   6.569   0.052 -0.3120 -0.2638 -0.2046
 5682W        W 9882   4.659   0.738  12.330 -0.0493  0.0816  0.2909
 5683W        W 9883   9.290   1.660  12.237 -0.2477  0.1595  0.1683
 5684W        W 9884   6.183   7.846   2.577 -0.2705  0.2603  0.2938
 5685W        W 9885   5.334   3.038   9.605  0.0126  0.1845  0.1142
 5686W        W 9886   1.906   1.219   0.332  0.0525 -0.1155  0.3660
 5687W        W 9887   3.368   9.475  12.889  0.1506  0.1419  0.0782
 5688W        W 9888   1.872  10.321  11.230  0.0263  0.0989 -0.1389
 5689W        W 9889   9.519   1.655  11.529 -0.2497 -0.2629 -0.2293
 5690W        W 9890   5.964   0.430   0.380 -0.3891  0.1230 -0.0254
 5691W        W 9891   0.328   7.225  12.987 -0.0823 -0.0920 -0.2761
 5692W        W 9892   3.798   3.802   0.392 -0.1038  0.1329 -0.3947
 5693W        W 9893   8.355   2.423   8.695 -0.2229  0.2854  0.1062
 5694W        W 9894   1.192   2.533  11.231  0.1030 -0.1515 -0.2503
 5695W        W 9895   1.424   3.729   3.436  0.2239 -0.1389  0.0523
 5696W        W 9896   5.348   7.739  12.660  0.0976  0.0085  0.2064
 5697W        W 9897   6.860   1.248   0.509 -0.1786 -0.0074  0.0212
 5698W        W 9898   9.510   7.041   4.257 -0.2249 -0.3582 -0.1785
 5699W        W 9899   9.164   1.293   4.257  0.1966  0.0575 -0.1113
 5700W        W 9900   1.448   9.699  10.677  0.3303 -0.2287 -0.3466
 5701W        W 9901   9.035   4.231  12.969 -0.0820 -0.0167  0.0743
 5702W        W 9902   0.811   8.645   2.525 -0.2062  0.2329 -0.2323
 5703W        W 9903   3.098   7.847   1.911  0.2236  0.0853 -0.1216
 5704W        W 9904   5.692   0.653  13.315  0.3433  0.1243  0.2998
 5705W        W 9905   6.926   9.732   0.440  0.2112 -0.2103  0.0153
 5706W        W 9906   6.249   1.177   8.600  0.1622 -0.1313 -0.0853
 5707W        W 9907   2.311   0.154   1.544  0.0171 -0.2668 -0.0085
 5708W        W 9908   6.664   7.123   4.286 -0.2499  0.0620 -0.4323
 5709W        W 9909   5.220   7.963   9.491 -0.1830  0.1182  0.1489
 5710W        W 9910   1.082   9.263   1.371  0.0455  0.1193  0.0252
 5711W        W 9911   6.492   9.743   9.376 -0.1761  0.3417 -0.3570
 5712W        W 9912   9.120   2.653   1.245 -0.1606 -0.1688 -0.3549
 5713W        W 9913   4.726   2.882  12.869  0.0845 -0.0711 -0.1638
 5714W        W 9914   0.411   0.330  10.010  0.2328  0.1949  0.1449
 5715W        W 9915   8.614   1.969   2.368 -0.4945 -0.0693 -0.0288
 5716W        W 9916   4.441   0.209  12.497 -0.2511  0.3494  0.1214
 5717W        W 9917   5.217   3.331  13.441 -0.2440 -0.0850 -0.2417
 5718W        W 9918   0.557   6.441  12.273 -0.0454 -0.0329 -0.1550
 5719W        W 9919   9.489   9.431   3.737 -0.1648 -0.0699 -0.2392
 5720W        W 9920   8.912   6.005   9.362 -0.1545  0.0690  0.0697
 5721W        W 9921   3.117  10.400   1.026  0.2344  0.0157 -0.1400
 5722W        W 9922   8.321   4.813   2.457 -0.0111 -0.4284 -0.2389
 5723W        W 9923   5.648  10.146   0.597  0.1703 -0.2396  0.1682
 5724W        W 9924   6.334   1.732   0.950 -0.3082  0.1885  0.1713
 5725W        W 9925   0.171   3.403  12.840 -0.0005  0.1274  0.0737
 5726W        W 9926   2.585   6.326   3.622 -0.1993 -0.1324  0.0416
 5727W        W 9927   2.829   4.197   4.628 -0.2301  0.1298 -0.1097
 5728W        W 9928   0.333   4.315   9.985  0.1722  0.2461  0.1534
 5729W        W 9929   5.629  10.326  12.826  0.0080  0.0863 -0.0051
 5730W        W 9930   8.842   4.825  11.621 -0.1477 -0.1118 -0.1294
 5731W        W 9931   7.727   9.069   9.447  0.2017  0.0162  0.1346
 5732W        W 9932   1.601   1.048   0.869 -0.1791  0.3301 -0.2174
 5733W        W 9933   6.989   1.239   9.169  0.0131 -0.0955  0.1194
 5734W        W 9934   4.736   8.928   9.975  0.1314  0.0586  0.1076
 5735W        W 9935   8.517   7.369   1.702  0.0268  0.0038  0.0046
 5736W        W 9936   2.927   9.888   3.453 -0.0346 -0.2019 -0.1108
 5737W        W 9937   5.119   9.753  12.348 -0.0250 -0.1877  0.2171
 5738W        W 9938   0.303   5.131  11.705 -0.1432 -0.2988 -0.2662
 5739W        W 9939   8.235   2.355  10.764  0.0492  0.0674 -0.0850
 5740W        W 9940   6.223   4.308   3.347  0.1967 -0.2705  0.2598
 5741W        W 9941   5.945   9.855   1.429  0.0185 -0.5126  0.0326
 5742W        W 9942   1.123   4.147   3.160  0.0201 -0.0077 -0.2431
 5743W        W 9943   5.224   5.104   3.782 -0.1139 -0.0659 -0.2112
 5744W        W 9944   0.554   4.392  12.351  0.1363 -0.1182  0.1439
 5745W        W 9945   3.645   8.060   3.552  0.3463 -0.3621 -0.1277
 5746W        W 9946   3.347  10.320   2.062 -0.0287 -0.1793  0.0317
 5747W        W 9947   0.532   9.803  10.695 -0.0202 -0.0810  0.0359
 5748W        W 9948   3.556   5.091   9.404 -0.0199 -0.0605 -0.0316
 5749W        W 9949   8.692   0.706   1.721 -0.3038  0.3440  0.0252
 5750W        W 9950   6.547   4.944  11.760 -0.3936 -0.0247  0.1385
 5751W        W 9951   6.731   7.881   8.873 -0.0106 -0.0036 -0.1564
 5752W        W 9952   2.088   8.983   9.563 -0.2453 -0.0728 -0.2381
 5753W        W 9953   3.688   5.445   0.161  0.0784  0.1220  0.1597
 5754W        W 9954   1.375   3.658   8.626 -0.1298 -0.2596 -0.0007
 5755W        W 9955   1.774   9.682  12.467 -0.1710  0.2179  0.1611
 5756W        W 9956   9.381   1.198   2.710 -0.1392 -0.4488 -0.1232
 5757W        W 9957   7.748   2.049  10.833  0.0794 -0.0806  0.2240
 5758W        W 9958   1.089   4.692   3.554  0.0751  0.1049  0.0590
 5759W        W 9959   0.873   2.087   0.458 -0.2780 -0.2444 -0.1431
 5760W        W 9960   6.745   6.351   5.106  0.1949 -0.0818 -0.1545
 5761W        W 9961   6.504   8.666   2.161  0.1603 -0.1123 -0.0806
 5762W        W 9962   4.394   6.126   1.436  0.2364 -0.2155 -0.2044
 5763W        W 9963   5.201   1.572  11.191  0.5108  0.1817 -0.2054
 5764W        W 9964   0.782   9.908  13.137 -0.1702  0.1242 -0.0170
 5765W        W 9965   7.643   7.365  10.305 -0.0491 -0.2314  0.3160
 5766W        W 9966   1.129   6.986  10.991  0.2208 -0.2573 -0.0702
 5767W        W 9967   3.073   7.102  12.317 -0.0010 -0.2844 -0.2719
 5768W        W 9968   9.103   5.486  13.433  0.1249  0.0412 -0.1750
 5769W        W 9969   5.698   0.206  11.709 -0.3207  0.0946  0.2670
 5770W        W 9970   8.026   6.241  10.577  0.1108  0.1604  0.2788
 5771W        W 9971   1.230   3.298   3.615  0.1920 -0.0318 -0.2409
 5772W        W 9972   9.281   8.698  12.194 -0.0658  0.1296  0.0274
 5773W        W 9973   6.959   5.516   0.138  0.0538  0.1608  0.0460
 5774W        W 9974   8.680   0.621  12.974 -0.4358  0.0089  0.0745
 5775W        W 9975   6.425   5.094   1.574  0.1615  0.1359 -0.1708
 5776W        W 9976   7.913   1.709  12.138 -0.3313 -0.0810 -0.0990
 5777W        W 9977   5.325   7.996  11.928 -0.4335  0.0098 -0.2099
 5778W        W 9978   7.945   7.769   3.862 -0.1472 -0.0533 -0.3956
 5779W        W 9979   1.384   3.604   1.299  0.1575 -0.0713  0.0799
 5780W        W 9980   6.085   9.217   0.978  0.0081  0.0861 -0.2243
 5781W        W 9981   2.493   6.862   3.560  0.3497  0.3592 -0.0760
 5782W        W 9982   4.936   8.718   3.414 -0.0881 -0.4461 -0.0785
 5783W        W 9983   3.544   7.275   3.180  0.0598 -0.2147 -0.2751
 5784W        W 9984   0.600   1.116   3.915 -0.1942 -0.1274  0.1945
 5785W        W 9985   6.060   1.046   1.140  0.2676 -0.1327  0.0866
 5786W        W 9986  10.200   2.621  13.432  0.1290 -0.1970 -0.1449
 5787W        W 9987   8.158   6.853   3.464 -0.2917 -0.0230  0.1724
 5788W        W 9988  10.078   8.614   2.094 -0.3693  0.0727 -0.0453
 5789W        W 9989   0.702   4.989  13.050 -0.0804 -0.3793 -0.0090
 5790W        W 9990   9.006   4.725  13.166  0.0947  0.0936  0.2125
 5791W        W 9991   3.876   3.274  11.458  0.0927  0.0980 -0.0490
 5792W        W 9992   0.240   3.696   2.867  0.1684  0.2891  0.1368
 5793W        W 9993   2.094   0.683  11.092  0.0412 -0.2125 -0.1848
 5794W        W 9994   1.378   4.274  10.933  0.0067  0.0529 -0.0131
 5795W        W 9995   7.209   9.855  13.519 -0.0823  0.0885  0.0933
 5796W        W 9996   1.734   2.439   3.935  0.2272  0.0477  0.0267
 5797W        W 9997   6.724   5.434  11.135  0.1085 -0.3068 -0.3562
 5798W        W 9998   7.089   1.049   4.453  0.3250  0.2005 -0.0497
 5799W        W 9999   7.155   0.712  13.226  0.2636 -0.0536 -0.0067
 5800W        W10000   1.856   4.287  11.863  0.2599  0.1779  0.0075
 5801W        W10001   0.345   6.640   2.126  0.1784  0.0440  0.0379
 5802W        W10002   2.609   7.324  11.306  0.2706  0.3759  0.1228
 5803W        W10003   8.445   8.501   2.406  0.0639 -0.1751 -0.1108
 5804W        W10004   8.584   8.430  10.266 -0.4222  0.0131  0.0762
 5805W        W10005   2.217   9.333   2.485 -0.0463 -0.1216  0.0647
 5806W        W10006   4.227   4.319   0.970 -0.0449 -0.1523 -0.1251
 5807W        W10007   7.996   7.350   3.172 -0.0185 -0.0101 -0.1642
 5808W        W10008   6.730   2.782   8.916  0.0216 -0.3873 -0.2868
 5809W        W10009   3.938   0.810  11.424 -0.1588  0.4867 -0.2313
 5810W        W10010   3.185   8.221  11.135  0.0079  0.2295  0.1522
 5811W        W10011   7.928   1.557   3.865 -0.0558  0.1450 -0.2425
 5812W        W10012   0.832   0.253  12.816 -0.0001 -0.1286 -0.0185
 5813W        W10013   6.824   3.542  10.517  0.1963 -0.3596  0.3213
 5814W        W10014   9.452   8.458   3.247  0.3840 -0.0421 -0.2409
 5815W        W10015   0.700   6.956  13.322  0.1330 -0.3070  0.2954
 5816W        W10016   1.884   9.282   0.327  0.2969 -0.2471  0.0428
 5817W        W10017   5.061   3.671  10.889 -0.0668 -0.0962 -0.0432
 5818W        W10018   2.857   1.609  10.868 -0.0863  0.0134  0.2995
 5819W        W10019   4.556   3.497   4.120 -0.1055 -0.0865  0.0978
 5820W        W10020   7.090   3.495   4.659 -0.2414 -0.2100  0.2559
 5821W        W10021   9.330   3.211  12.098  0.1425  0.1106 -0.1958
 5822W        W10022   5.851   4.263   9.384  0.1318  0.0923 -0.2468
 5823W        W10023   0.942  10.215  12.704 -0.1601 -0.1541 -0.1235
 5824W        W10024   9.901  10.396  10.637  0.0316  0.0902 -0.2391
 5825W        W10025   5.048   9.726   3.352 -0.0539 -0.1284  0.0634
 5826W        W10026   1.803   6.018   3.315 -0.1352  0.2122  0.0237
 5827W        W10027   8.245   8.627   3.650 -0.0527 -0.0957  0.1741
 5828W        W10028   2.481   6.378  11.505 -0.1413 -0.1632 -0.0322
 5829W        W10029   3.481   1.720  11.629 -0.0793  0.2837  0.0435
 5830W        W10030  10.135   2.550  10.373  0.0646 -0.3439  0.2958
 5831W        W10031   8.880   9.642   0.956 -0.1349 -0.1436  0.3151
 5832W        W10032   1.424   2.075   9.397  0.1760 -0.1290  0.1501
 5833W        W10033   9.463   1.510   9.533  0.0169 -0.0747  0.0221
 5834W        W10034   4.175   8.786   3.693 -0.1070 -0.0457  0.1141
 5835W        W10035   3.804   8.170   2.558  0.2277 -0.3001  0.1397
 5836W        W10036   6.806   6.144   1.615 -0.3224 -0.2408  0.0397
 5837W        W10037   0.823   8.574   3.093  0.0035 -0.0140  0.1451
 5838W        W10038   3.584   9.648  12.195  0.1192  0.2288 -0.0516
 5839W        W10039   1.790   2.159   1.345 -0.1361 -0.0092 -0.0519
 5840W        W10040   5.800   4.355   2.453  0.2917  0.0117  0.0736
 5841W        W10041   7.840   0.461  12.084  0.0564  0.2950 -0.1962
 5842W        W10042   3.490   5.540   5.126 -0.1398  0.1992  0.0515
 5843W        W10043   7.984   2.546   4.424  0.3652 -0.1935 -0.2637
 5844W        W10044   8.911   8.803  12.534  0.0108  0.1514  0.2452
 5845W        W10045   2.015   4.795   0.610 -0.0182 -0.1069 -0.0350
 5846W        W10046   0.133   9.699   1.504 -0.1721 -0.2492 -0.1025
 5847W        W10047   4.981   7.445  13.329  0.0389 -0.5285 -0.0779
 5848W        W10048   5.189   5.129   8.595 -0.0152 -0.2883 -0.0821
 5849W        W10049   4.362   8.855   2.884  0.0481  0.0510  0.1394
 5850W        W10050   4.929   5.033  10.743 -0.0932 -0.0225 -0.0890
 5851W        W10051   8.313   2.367  11.431 -0.1931  0.2704 -0.3394
 5852W        W10052   9.478   4.798   2.463 -0.1270  0.0233 -0.3054
 5853W        W10053   9.914   9.737  13.025  0.1413  0.4657 -0.5894
 5854W        W10054   8.925   3.451  11.746 -0.0381 -0.3693 -0.0475
 5855W        W10055   8.827   7.467   3.502 -0.1018 -0.0324 -0.2600
 5856W        W10056  10.405   8.540   0.894 -0.0469 -0.0975 -0.2539
 5857W        W10057   3.485   6.029   5.475 -0.1205 -0.0293  0.2039
 5858W        W10058   9.937   6.276   3.230 -0.1677  0.0293  0.2150
 5859W        W10059   2.354   9.130  10.398 -0.3174  0.2727  0.1136
 5860W        W10060   3.274   0.268   0.161 -0.2052  0.0275  0.0983
 5861W        W10061   5.097   3.149  11.015  0.0824 -0.1090 -0.1772
 5862W        W10062   3.406   5.126  12.522 -0.0562  0.0177  0.0147
 5863W        W10063   7.783   3.320   3.150  0.0918 -0.1346  0.2251
 5864W        W10064   2.142   6.662   2.665 -0.0997  0.0773  0.2773
 5865W        W10065   2.480   7.251  10.731  0.0425 -0.1012 -0.2175
 5866W        W10066   9.234   9.370  11.672 -0.1510 -0.0885  0.0786
 5867W        W10067   7.192   5.098  13.512  0.1924 -0.1607  0.1030
 5868W        W10068   8.181   7.553  10.185 -0.0884  0.0972  0.2100
 5869W        W10069   6.964   3.048  10.894 -0.1672 -0.0166 -0.1361
 5870W        W10070   5.987   5.882   1.202  0.2563 -0.1328 -0.0617
 5871W        W10071   6.334   5.996  12.947 -0.0136 -0.1037  0.0756
 5872W        W10072   3.798   0.475   8.915 -0.2915 -0.1329  0.0209
 5873W        W10073   5.637   1.123   9.859  0.1909  0.0212 -0.1120
 5874W        W10074   5.830   0.135   0.808 -0.2858  0.0832  0.5321
 5875W        W10075   5.688   3.098  11.215 -0.2384 -0.0796  0.1783
 5876W        W10076   6.906   7.919  11.192  0.1248  0.0181 -0.1868
 5877W        W10077   8.938   3.182   5.315 -0.2752 -0.2306  0.2231
 5878W        W10078   7.040   2.705  11.916 -0.1823  0.2691  0.1856
 5879W        W10079   0.790   4.119  10.142 -0.0277  0.0441 -0.0564
 5880W        W10080   4.244   8.763   1.975 -0.1323 -0.1135 -0.2544
 5881W        W10081   6.772   0.990   4.046  0.3587  0.1111 -0.0451
 5882W        W10082   8.059   8.717  11.030  0.0807  0.2629  0.1988
 5883W        W10083   7.226   6.851   2.144  0.0144  0.0744  0.1765
 5884W        W10084   0.152   5.463  12.587  0.0269  0.0464 -0.3765
 5885W        W10085   1.498   7.590   1.151 -0.1740  0.0549 -0.1995
 5886W        W10086   2.500   7.731   3.158  0.1208 -0.0347 -0.3616
 5887W        W10087   7.057   7.539  10.885 -0.3683  0.3599  0.0154
 5888W        W10088   8.298   0.723  13.328  0.0912 -0.0931 -0.0604
 5889W        W10089   6.452   3.306  12.084  0.1692  0.0762  0.1968
 5890W        W10090   8.806   9.320   1.393  0.1945  0.0431  0.2645
 5891W        W10091   0.204   4.581   2.225  0.1967  0.0693 -0.2163
 5892W        W10092   9.432   7.021  10.622  0.0027 -0.3117  0.0347
 5893W        W10093   8.981  10.271  11.686 -0.0095  0.2256 -0.1090
 5894W        W10094   7.907   1.501  10.450 -0.0644 -0.0069  0.0888
 5895W        W10095   5.420   0.573   3.221  0.0228  0.0798  0.2941
 5896W        W10096   5.445   9.235  11.465 -0.4594 -0.1932 -0.0719
 5897W        W10097   4.473   1.795  10.069  0.0087  0.0255  0.0206
 5898W        W10098   1.363   4.775  12.554 -0.1195  0.4381 -0.0423
 5899W        W10099   9.138   3.430  12.614  0.1066  0.3639  0.2186
 5900W        W10100   4.610   3.026   9.554  0.0698  0.0744  0.0692
 5901W        W10101   9.349   9.939   0.925  0.2607 -0.0897  0.0428
 5902W        W10102   0.915   5.966   2.226 -0.0745  0.0279  0.3941
 5903W        W10103   9.048   5.089  11.027  0.0957 -0.0445 -0.0679
 5904W        W10104   0.865   5.557   1.869  0.1752 -0.2950  0.0349
 5905W        W10105   5.093   7.119  12.141  0.2740  0.1752  0.2170
 5906W        W10106   8.090   2.484   0.668  0.0589 -0.0096 -0.1805
 5907W        W10107   9.828   4.231  10.246 -0.0439  0.2567  0.0635
 5908W        W10108   9.794   6.219  11.812  0.0343  0.0420 -0.1484
 5909W        W10109   9.400   2.928  12.581  0.2357  0.1225  0.1830
 5910W        W10110   5.689   3.782  11.657  0.1755  0.1434 -0.1132
 5911W        W10111   8.495  10.200  10.395  0.5014  0.2604  0.2558
 5912W        W10112   6.864   5.530  12.155  0.0465  0.3977 -0.1213
 5913W        W10113  10.264   5.190   3.067 -0.2517 -0.1276 -0.0602
 5914W        W10114   9.603   7.843  10.151 -0.0249  0.0194  0.1950
 5915W        W10115   2.777   9.484   1.695  0.3104 -0.2864 -0.0968
 5916W        W10116  10.209   0.199  12.319 -0.1882 -0.1091 -0.0282
 5917W        W10117   1.832   5.337   9.585  0.0066  0.2170  0.2303
 5918W        W10118   8.333   8.542  12.997 -0.1739  0.3349  0.1067
 5919W        W10119   8.055  10.096  11.220 -0.1356 -0.0598 -0.3680
 5920W        W10120   8.716   6.935   3.498 -0.0184 -0.1702  0.1868
 5921W        W10121   7.239   6.657  12.284 -0.3842 -0.0268 -0.2385
 5922W        W10122   0.003   5.874   1.901  0.0812 -0.0617 -0.1164
 5923W        W10123   2.982   5.930  11.999 -0.4411 -0.0930  0.2077
 5924W        W10124   5.157   4.964   2.314 -0.1799 -0.0769 -0.1552
 5925W        W10125   0.744   7.964   3.046  0.3087  0.0733 -0.3203
 5926W        W10126   6.924   3.002   2.401 -0.0104 -0.0984 -0.0831
 5927W        W10127   6.366   2.750   0.309 -0.0388 -0.1642  0.0574
 5928W        W10128   5.478   6.926  12.394 -0.1649 -0.0117 -0.1994
 5929W        W10129   7.418   7.847  10.079  0.1189  0.0380 -0.1384
 5930W        W10130   7.607   1.957   3.727 -0.1405 -0.1441  0.1667
 5931W        W10131   4.578   3.769   3.628 -0.1823  0.1961 -0.1633
 5932W        W10132   8.577   6.944   2.620  0.1160  0.0696 -0.1904
 5933W        W10133   3.933   4.150  13.078  0.1659 -0.0124 -0.0334
 5934W        W10134   5.401   4.126   0.963  0.0035 -0.0079  0.0418
 5935W        W10135   2.888   1.411  11.399  0.3519 -0.2426 -0.0062
 5936W        W10136   4.723   7.079   0.016  0.0535 -0.1064  0.0886
 5937W        W10137   6.632   0.155   9.584 -0.0297 -0.0071  0.1206
 5938W        W10138   6.680   8.053   9.371  0.1096  0.0024  0.0633
 5939W        W10139   2.926   9.868   1.327  0.1461 -0.1015 -0.3814
 5940W        W10140   7.884   0.046   1.903 -0.3074 -0.2573  0.2237
 5941W        W10141   9.783   9.960  12.014 -0.1574 -0.3034 -0.2357
 5942W        W10142   6.045   5.900   9.156  0.0711 -0.0580  0.1238
 5943W        W10143   9.085   2.455  11.309  0.1365 -0.1139 -0.1996
 5944W        W10144   1.409   1.144  11.599 -0.1049 -0.3518  0.0597
 5945W        W10145   9.956   1.772   1.141  0.3328 -0.3243 -0.0064
 5946W        W10146   1.627   9.811   2.372 -0.1015 -0.0798 -0.3236
 5947W        W10147   6.919   5.889   3.858 -0.3885  0.0895 -0.1114
 5948W        W10148   8.108   1.711   1.126 -0.0600 -0.0483  0.3604
 5949W        W10149   6.821   5.837   4.351  0.2422  0.1545 -0.0723
 5950W        W10150   2.497   8.935  13.367  0.0950  0.0740  0.1402
 5951W        W10151   9.101   1.878   1.692  0.0681  0.0274 -0.1247
 5952W        W10152   0.049   7.845  11.914 -0.2452  0.2955 -0.0789
 5953W        W10153   4.673   2.258  11.119 -0.1151 -0.0464  0.0114
 5954W        W10154   1.096   6.386  11.898 -0.5551 -0.1986 -0.3595
 5955W        W10155   6.419   4.540  10.857 -0.3374  0.1292 -0.0249
 5956W        W10156   6.420   3.832  12.352  0.1716 -0.1705  0.2793
 5957W        W10157   0.323   6.159  11.344 -0.0686  0.4385 -0.0539
 5958W        W10158   1.701   0.038   0.919  0.4168  0.2585 -0.0716
 5959W        W10159   0.598   0.782   4.247  0.1396  0.2725  0.3224
 5960W        W10160   2.773   0.501   2.804 -0.1804 -0.2096 -0.1752
 5961W        W10161   7.488   5.680   0.728 -0.1507  0.2667  0.0896
 5962W        W10162   5.793   6.733  11.384 -0.0807 -0.2558  0.1684
 5963W        W10163   3.806   0.753   2.423 -0.0065 -0.3647 -0.2239
 5964W        W10164   9.329   5.945   1.576  0.2401  0.3188  0.0938
 5965W        W10165   8.598   9.770  12.394 -0.1935 -0.2515  0.2398
 5966W        W10166   7.407   9.571   0.990 -0.0277  0.2675 -0.0703
 5967W        W10167   3.550   1.427  12.084 -0.2466 -0.0322  0.0740
 5968W        W10168   0.998   7.542  11.731 -0.2152 -0.2193 -0.0429
 5969W        W10169   3.582   4.386   3.642 -0.2663 -0.2592  0.0158
 5970W        W10170   5.069   2.123  11.794 -0.1600 -0.0681 -0.2271
 5971W        W10171   1.408   5.517  12.304 -0.0024 -0.0010 -0.0025
 5972W        W10172   6.280   9.943  11.705  0.0403 -0.1963 -0.1060
 5973W        W10173   0.611   5.438  12.717 -0.3256 -0.2675  0.1820
 5974W        W10174   0.013   9.790  12.853  0.2499  0.1059 -0.1800
 5975W        W10175   6.991   7.846  11.764  0.2862  0.3807  0.0858
 5976W        W10176   3.975   3.280  12.509  0.0367 -0.2347  0.2333
 5977W        W10177   2.578   4.410   3.696  0.3847  0.1149 -0.2713
 5978W        W10178   8.081   0.338   2.299 -0.0347 -0.1090 -0.0942
 5979W        W10179   6.491   5.525   9.147 -0.2575  0.2759 -0.0345
 5980W        W10180   2.502   4.461  12.567  0.3211  0.1645  0.0731
 5981W        W10181   3.020   8.672   2.459  0.2246 -0.3144 -0.0216
 5982W        W10182   9.306   5.861   0.144  0.1473  0.2417 -0.2243
 5983W        W10183   9.013   2.175   2.696  0.2356 -0.0919  0.2527
 5984W        W10184   3.254   2.122   2.241  0.3739  0.0283 -0.2375
 5985W        W10185   7.192  10.140  11.981  0.2757 -0.0700  0.1149
 5986W        W10186   9.721   2.497  12.525  0.1206 -0.2074 -0.3530
 5987W        W10187   9.774   3.197  10.846 -0.2962  0.0863 -0.2561
 5988W        W10188   6.202   0.570  13.487 -0.2171  0.0108 -0.1027
 5989W        W10189   2.558  10.432  10.673  0.0948  0.2176  0.0666
 5990W        W10190   0.678   8.602  10.628 -0.1734  0.2308  0.0276
 5991W        W10191   2.845   9.386  10.473 -0.1745 -0.4194  0.0975
 5992W        W10192   9.290   2.508   9.027 -0.1937  0.4113 -0.0632
 5993W        W10193   5.437   9.316   1.669 -0.0277 -0.0171  0.1723
 5994W        W10194   7.497   4.099   3.463 -0.0006  0.4829  0.0156
 5995W        W10195   5.526   9.203   3.151  0.0204 -0.0026  0.1897
 5996W        W10196   2.456   8.480   2.423 -0.3258 -0.0136  0.3199
 5997W        W10197   2.946   4.497   1.879  0.1747 -0.1041 -0.0316
 5998W        W10198   8.193   7.841   9.438  0.4207 -0.0316 -0.0129
 5999W        W10199   4.252   0.390  10.698  0.1356 -0.1983 -0.2622
 6000W        W10200   4.544   6.189  13.209 -0.1396 -0.0060  0.0631
 6001W        W10201   0.289   2.153   1.995  0.3643  0.1646 -0.0319
 6002W        W10202   4.683   9.950   1.569  0.0695  0.0334 -0.0596
 6003W        W10203   8.002   6.456   4.254  0.0282 -0.0965 -0.2909
 6004W        W10204   5.754   8.920   4.530  0.0443 -0.2685 -0.0493
 6005W        W10205   6.553   7.321  13.373  0.4635  0.1287 -0.0502
 6006W        W10206   4.158   2.112   9.757 -0.0008 -0.0756 -0.4880
 6007W        W10207   3.425   4.714   0.830  0.2201  0.3869  0.2139
 6008W        W10208   9.867   0.296   1.947  0.1644  0.1672 -0.1799
 6009W        W10209   4.496   1.792   1.585 -0.1006 -0.1026 -0.3629
 6010W        W10210   0.780   4.899   3.026 -0.1498  0.2656 -0.2312
 6011W        W10211   5.028   3.823   5.448  0.0982 -0.1508  0.0107
 6012W        W10212   2.985   3.990  11.651 -0.1779 -0.2193 -0.0519
 6013W        W10213  10.126   5.288  12.315 -0.0526 -0.1605  0.0077
 6014W        W10214   2.135   2.238  10.032 -0.1824 -0.1504 -0.4037
 6015W        W10215   4.931   8.960   1.480 -0.2159 -0.0496  0.0340
 6016W        W10216   6.581   7.763  12.448 -0.0826 -0.0291  0.3224
 6017W        W10217   2.367   3.617  11.751 -0.1816  0.2490  0.0589
 6018W        W10218   5.788   6.411   1.485  0.1782 -0.1898  0.0936
 6019W        W10219   5.174   8.436   3.747  0.1228  0.0580 -0.2167
 6020W        W10220   6.110   6.885   1.304  0.1224 -0.0002  0.2550
 6021W        W10221   9.376   4.260   2.306 -0.0150  0.2641 -0.6339
 6022W        W10222   4.479   6.701   9.052  0.1328 -0.2006 -0.1450
 6023W        W10223   6.385   6.506   9.940 -0.1052  0.0009  0.2327
 6024W        W10224   5.055   0.847   0.230  0.1073  0.0904 -0.0140
 6025W        W10225   6.289   2.172  10.422  0.1465 -0.0687 -0.0376
 6026W        W10226   4.466  10.290   1.038 -0.0504 -0.2331 -0.0087
 6027W        W10227   5.854   5.295   4.597 -0.0348  0.0621 -0.1735
 6028W        W10228   0.318   9.397   2.676  0.0471 -0.1399  0.0301
 6029W        W10229   6.989   7.537   2.618  0.2309 -0.0138  0.0259
 6030W        W10230   2.620   8.941  10.770  0.0104  0.1879 -0.0301
 6031W        W10231   0.957   1.681   1.277  0.0213  0.0138 -0.0658
 6032W        W10232   0.028   3.774   4.755 -0.2892 -0.0155 -0.2651
 6033W        W10233   6.992   3.284  11.343 -0.3916 -0.4789  0.1489
 6034W        W10234   3.295   4.685   4.290 -0.0490 -0.0497  0.1277
 6035W        W10235   0.321   1.281  10.718  0.1557 -0.2988 -0.2746
 6036W        W10236   8.148   9.466  10.435 -0.2599  0.2086  0.3569
 6037W        W10237   7.763   4.559   9.235  0.1461  0.3528  0.2410
 6038W        W10238   1.678   6.445   3.768  0.1119  0.2287 -0.0104
 6039W        W10239   4.161   0.471   1.212 -0.1371 -0.2986  0.2009
 6040W        W10240   2.204   3.825   4.406  0.0834  0.1388 -0.3277
 6041W        W10241   6.978   9.723   9.846 -0.0182  0.0992  0.2070
 6042W        W10242   9.558   8.374   3.728  0.0121  0.1313 -0.4077
 6043W        W10243   7.589   1.896  10.401  0.1184  0.0503 -0.1471
 6044W        W10244   5.372   9.746  13.409 -0.1083 -0.2122  0.2574
 6045W        W10245   1.174   8.495   2.204 -0.2226 -0.0292 -0.2550
 6046W        W10246   0.995   8.481   0.805 -0.0200  0.0997 -0.1768
 6047W        W10247   3.000   2.680  10.029 -0.2849  0.1192 -0.1049
 6048W        W10248   7.181   2.350   1.827  0.1039 -0.1838 -0.0219
 6049W        W10249   7.619   8.587  13.283  0.0246 -0.0328 -0.0773
 6050W        W10250   6.665   0.813  10.871  0.0349 -0.1840 -0.2208
 6051W        W10251   0.024   7.007   0.632  0.1424 -0.1236  0.1888
 6052W        W10252   7.223   7.890   4.235  0.0640 -0.0013 -0.2434
 6053W        W10253   2.052   4.599   4.651 -0.1756  0.0489  0.1735
 6054W        W10254   5.559   4.113   4.651  0.1690  0.0433 -0.0058
 6055W        W10255  10.251   6.602   0.784 -0.0667  0.1225  0.0634
 6056W        W10256   4.115   1.263  11.538  0.1630  0.1409 -0.0231
 6057W        W10257   8.484   4.172  13.002 -0.2040  0.1581  0.0763
 6058W        W10258   5.642   8.167  10.401  0.0771 -0.2747 -0.4969
 6059W        W10259   8.660   5.158   1.546  0.1588 -0.0339 -0.0054
 6060W        W10260   1.729   7.674   0.708  0.0606  0.0501 -0.1179
 6061W        W10261   5.851   8.903   9.789  0.0718 -0.3526  0.0879
 6062W        W10262   4.907   9.896   4.191  0.0234 -0.1385 -0.0700
 6063W        W10263   6.165   0.246  11.716  0.3157 -0.2135  0.0655
 6064W        W10264   8.168   3.018   0.928 -0.0859 -0.0187 -0.1962
 6065W        W10265  10.280   7.246   3.217 -0.1539 -0.3847  0.1151
 6066W        W10266   6.149   6.997  11.080  0.0301 -0.1175 -0.0569
 6067W        W10267   3.942   5.745   3.604  0.1369 -0.1934 -0.0444
 6068W        W10268   0.449   4.709  10.297 -0.0486 -0.0273 -0.0610
 6069W        W10269   7.036   2.774  12.436 -0.1758 -0.4003 -0.0591
 6070W        W10270   9.947   0.841   2.204  0.1370 -0.1967 -0.4454
 6071W        W10271   4.822   3.708  11.315 -0.1788  0.0123 -0.0501
 6072W        W10272   9.644   1.938  11.070  0.2466  0.1879  0.0963
 6073W        W10273   6.476   9.310  10.466  0.1828  0.3640  0.0040
 6074W        W10274   9.142   9.081  12.950 -0.1012 -0.0868  0.2417
 6075W        W10275   5.737   5.491   5.020 -0.0911  0.2858  0.0966
 6076W        W10276   9.324   5.432   9.819  0.2311  0.1280  0.1653
 6077W        W10277   5.591  10.111   1.922 -0.1120  0.0167  0.3768
 6078W        W10278   4.670   8.636   2.315  0.0270  0.0773  0.1344
 6079W        W10279   3.873   4.757   3.496  0.2088  0.2740  0.1251
 6080W        W10280   0.456   7.055   0.314  0.0945 -0.2293  0.1911
 6081W        W10281   6.309   5.480   2.580  0.2183  0.1318 -0.3156
 6082W        W10282   3.535   1.713  12.628  0.0286 -0.1774  0.1090
 6083W        W10283   9.036  10.336   0.073  0.0168  0.2326  0.0865
 6084W        W10284   6.309   5.936  11.341 -0.2223  0.0751  0.0948
 6085W        W10285   4.643   9.668   9.899  0.1128  0.3153 -0.0063
 6086W        W10286   3.842   5.491   4.667 -0.0700 -0.1225  0.1054
 6087W        W10287   4.636   6.801  10.674  0.3528 -0.0210  0.0766
 6088W        W10288   5.352  10.436  10.663  0.0907 -0.1898  0.0522
 6089W        W10289   1.433   3.989   1.032  0.1431  0.1860  0.1587
 6090W        W10290   2.400   0.314  12.882 -0.0939  0.3661  0.3758
 6091W        W10291   1.737   5.952  11.219  0.1320 -0.3389  0.2202
 6092W        W10292   3.555   3.683   3.162  0.2243  0.1483  0.4063
 6093W        W10293   6.205   8.215   4.979 -0.0058 -0.2705  0.2522
 6094W        W10294   6.209  10.352  12.658 -0.0928  0.0258  0.0921
 6095W        W10295   5.781   7.281   1.291 -0.0539 -0.1751 -0.1352
 6096W        W10296   0.676   9.782   2.711  0.1375 -0.1170 -0.1217
 6097W        W10297   5.695   9.348   9.933 -0.1537 -0.0706 -0.0470
 6098W        W10298   4.518   7.088   0.502 -0.0484 -0.4025  0.1407
 6099W        W10299   7.917   2.780   8.758 -0.2658 -0.0360  0.2811
 6100W        W10300   9.928   9.186  11.256  0.0975 -0.0326  0.1697
 6101W        W10301   6.608   1.472   2.034 -0.0094  0.0458 -0.3438
 6102W        W10302   7.043   3.692   9.732 -0.0619 -0.2100  0.0487
 6103W        W10303   0.427   5.374   0.292 -0.0290 -0.1149 -0.1675
 6104W        W10304   5.095   8.842  13.496  0.1604  0.1518 -0.0450
 6105W        W10305   4.419   9.140   9.682 -0.2355 -0.0523 -0.1052
 6106W        W10306   9.608   5.332   0.154  0.0426  0.0535 -0.0537
 6107W        W10307   7.463   3.641  12.424 -0.1680 -0.1549 -0.0839
 6108W        W10308  10.228   8.370  12.660  0.2592  0.4705  0.3736
 6109W        W10309   9.608   2.419  11.008 -0.1038  0.3187  0.4213
 6110W        W10310   4.792   0.168   1.883  0.0581 -0.2652  0.0569
 6111W        W10311   3.755   4.785   1.597 -0.3216  0.0270 -0.1440
 6112W        W10312   0.266   3.160   5.606  0.1453  0.3190  0.2048
 6113W        W10313   2.294   6.333   4.986  0.0348  0.1167 -0.3000
 6114W        W10314   0.491   0.519   0.394  0.4712 -0.0227  0.1064
 6115W        W10315   0.308   3.145   0.400  0.2426  0.0483 -0.0159
 6116W        W10316   4.987   0.473  12.698  0.2116 -0.1689 -0.2753
 6117W        W10317   9.829   9.550  10.344  0.0742  0.0082 -0.0579
 6118W        W10318   7.939   8.640   9.280 -0.1655 -0.0089 -0.1102
 6119W        W10319   5.364   1.322  12.410 -0.1087 -0.1888 -0.0610
 6120W        W10320   0.367   5.508  12.031  0.2215 -0.1958  0.0592
 6121W        W10321   3.770   4.488  12.031 -0.2874 -0.0158 -0.2040
 6122W        W10322   2.912   0.851  10.459 -0.2309  0.0769  0.0631
 6123W        W10323   8.405   0.278  10.358 -0.1889  0.1369 -0.1135
 6124W        W10324   8.147   2.088   0.415  0.1182 -0.2322 -0.2400
 6125W        W10325   8.707   7.722  11.435 -0.1564  0.1394 -0.1942
 6126W        W10326   1.848   1.765   3.735 -0.0324 -0.1875  0.3006
 6127W        W10327   6.099   8.633   4.114  0.0529 -0.1800 -0.1734
 6128W        W10328   4.820   7.940   3.857  0.0900  0.2198  0.1318
 6129W        W10329   2.067   4.066   1.768  0.1430  0.2587 -0.0261
 6130W        W10330   9.212   0.379  13.100  0.0897 -0.2165  0.1902
 6131W        W10331   4.036   5.556   3.128 -0.0360  0.1504  0.2327
 6132W        W10332   7.951   0.337   0.106  0.1880  0.0933  0.0045
 6133W        W10333   1.599   4.150   1.597 -0.2718  0.0424 -0.0254
 6134W        W10334   3.112   7.559  12.040 -0.1631  0.1004  0.0744
 6135W        W10335   6.384   3.496  11.469  0.0622 -0.0746 -0.1512
 6136W        W10336   4.003   7.073  12.186  0.0242  0.3379  0.1498
 6137W        W10337   0.115   5.988   1.306 -0.1950 -0.1093  0.0998
 6138W        W10338   5.622   8.763  11.521  0.1981 -0.1675  0.2040
 6139W        W10339   8.832   3.242  12.282 -0.2039  0.0452  0.0511
 6140W        W10340   0.525   4.029  11.395  0.0179 -0.1081  0.2144
 6141W        W10341   3.846   1.277   2.109  0.2245  0.1923  0.2938
 6142W        W10342   9.880   4.872   3.223  0.1686  0.3680  0.2621
 6143W        W10343   9.059   7.210   2.470  0.2589 -0.0641  0.0621
 6144W        W10344   4.723   2.794  10.331  0.0311  0.0218 -0.1199
 6145W        W10345   2.261   3.190  10.688 -0.0203 -0.2980  0.2522
 6146W        W10346   6.438   3.628   9.227  0.0576 -0.5969 -0.2426
 6147W        W10347   9.313   7.179  10.161  0.1622 -0.1562  0.0935
 6148W        W10348   4.486   2.030  10.612 -0.4151  0.0807 -0.3204
 6149W        W10349   8.127   2.053   3.756  0.0266  0.2799 -0.1045
 6150W        W10350   5.969   9.918  10.089  0.1980 -0.0751  0.3234
 6151W        W10351   2.300   0.764  12.628  0.2562  0.1020 -0.1327
 6152W        W10352   4.624   6.647   2.995 -0.1723  0.0240 -0.0310
 6153W        W10353   6.526   6.304  10.875  0.0041  0.1133 -0.2592
 6154W        W10354   8.530   3.543  11.432  0.0844  0.0557  0.0146
 6155W        W10355   7.825  10.390  12.754  0.1896  0.0222  0.0038
 6156W        W10356   3.293   7.269  13.471 -0.0196 -0.1281  0.2243
 6157W        W10357   6.667   7.812   4.044 -0.0839  0.0123  0.1424
 6158W        W10358   5.966   5.141   1.836  0.1395  0.2545 -0.1769
 6159W        W10359   5.653   5.405   9.662  0.0699  0.0315 -0.0112
 6160W        W10360   4.191   5.361   0.202 -0.2555  0.0209 -0.0422
 6161W        W10361   1.934   7.999  10.835  0.1998 -0.2036  0.1045
 6162W        W10362   6.161  10.282  12.083 -0.2359  0.0536 -0.0476
 6163W        W10363   5.590   9.074   0.847  0.2789  0.0929 -0.3286
 6164W        W10364   1.509   9.509  12.927 -0.0047 -0.3015  0.2582
 6165W        W10365   4.903   2.639   9.795  0.1498  0.0882  0.1648
 6166W        W10366   5.906   8.985   1.936 -0.0430 -0.1713  0.0897
 6167W        W10367   8.137   6.994   2.915  0.0480 -0.0668 -0.2483
 6168W        W10368   8.102   4.392   2.606  0.1000 -0.0037  0.1053
 6169W        W10369   0.497   7.694  11.675  0.2223 -0.2929 -0.2741
 6170W        W10370   1.566   4.696   4.477  0.4158 -0.0975 -0.0270
 6171W        W10371   3.438  10.070   0.893  0.0301 -0.0544  0.0441
 6172W        W10372   2.210   8.429  10.936 -0.0403 -0.1867 -0.0946
 6173W        W10373   1.859   9.043   2.050  0.2384  0.2035 -0.1187
 6174W        W10374   4.581   4.849  10.408 -0.1794  0.3617 -0.0905
 6175W        W10375   9.893   8.615   2.598  0.0704 -0.3498 -0.1060
 6176W        W10376   7.100   2.349  11.600 -0.4003  0.0091  0.0962
 6177W        W10377   0.633   9.118  11.968 -0.1000 -0.1841 -0.1979
 6178W        W10378   8.563   7.337   2.267 -0.1385 -0.1888 -0.4109
 6179W        W10379   1.440   1.379   0.442 -0.0680 -0.3996  0.0575
 6180W        W10380   8.047   9.550   1.862  0.1159 -0.0387  0.2518
 6181W        W10381   9.898   3.020   0.066  0.0164  0.1653 -0.1972
 6182W        W10382   1.403   7.220   2.689  0.2300  0.0191 -0.2049
 6183W        W10383   0.518   3.908  12.178  0.0000 -0.1210 -0.0325
 6184W        W10384   8.144   6.001   1.916  0.1642  0.3232 -0.0758
 6185W        W10385   4.796   3.877  10.001  0.3880  0.0537  0.2473
 6186W        W10386   4.757   4.934  11.945  0.0885 -0.1884  0.2594
 6187W        W10387   5.123   1.903   8.833 -0.0150 -0.1419  0.1652
 6188W        W10388   3.398   5.736   0.518  0.1536  0.0515 -0.1434
 6189W        W10389   2.018   8.715  12.729  0.0483 -0.1606  0.0573
 6190W        W10390   9.979   7.939   0.998 -0.0556  0.0525 -0.2141
 6191W        W10391   6.251   2.907   3.692  0.0607  0.2251  0.3530
 6192W        W10392   9.243   8.801   3.945  0.2549 -0.1706 -0.1647
 6193W        W10393   8.596   1.093   2.926  0.0734 -0.3389 -0.1508
 6194W        W10394   0.887   2.574  10.319 -0.1605 -0.1361  0.0718
 6195W        W10395   7.739   3.053  10.257 -0.1541 -0.1542 -0.0879
 6196W        W10396   5.054   4.622   9.799  0.0884 -0.0526 -0.2287
 6197W        W10397   7.165   3.859  13.288 -0.4546 -0.1053 -0.1001
 6198W        W10398   5.639   3.310   2.369 -0.2772  0.2391  0.0374
 6199W        W10399   2.636   5.311   1.480  0.0909 -0.1978  0.0817
 6200W        W10400   9.118  10.200  12.999 -0.3972  0.0386 -0.0561
 6201W        W10401   9.660   9.769  11.221  0.4520  0.1617  0.0961
 6202W        W10402   0.632   0.063  11.408 -0.1971  0.0314  0.1131
 6203W        W10403   5.406   1.026   8.970 -0.0784  0.2157  0.2425
 6204W        W10404   0.738   7.467   3.166 -0.1018  0.3349 -0.0622
 6205W        W10405   9.565   5.302  13.117 -0.3264 -0.2428  0.1957
 6206W        W10406   3.823   0.864   9.769  0.2286 -0.0408  0.0743
 6207W        W10407   0.234   7.310  12.047  0.0145  0.0644  0.1683
 6208W        W10408   5.861   3.965   9.793  0.0449  0.0246  0.0551
 6209W        W10409  10.369   2.326  11.195 -0.2144 -0.0252 -0.2836
 6210W        W10410   7.865   0.176   2.829  0.2682  0.1053 -0.3204
 6211W        W10411  10.213   0.717   1.860 -0.2367 -0.2509 -0.0471
 6212W        W10412   5.478  10.038   3.346 -0.1572 -0.2710  0.0392
 6213W        W10413   0.506   5.844   0.497 -0.1428  0.1010  0.1027
 6214W        W10414   6.735   1.752   0.013  0.0229  0.2062  0.4036
 6215W        W10415  10.009  10.292  11.563 -0.0419 -0.0395 -0.0709
 6216W        W10416   5.044   7.874   1.398 -0.2238 -0.2611 -0.1922
 6217W        W10417   0.421   1.633   0.585  0.1518  0.0341  0.2421
 6218W        W10418   3.652  10.444  12.442  0.0612 -0.4409  0.0571
 6219W        W10419   8.379   7.382   9.767  0.0240 -0.2325 -0.1217
 6220W        W10420   0.933   5.525   0.214 -0.0059 -0.2665 -0.0377
 6221W        W10421   2.299   3.654   9.087  0.1575  0.1749 -0.1929
 6222W        W10422   3.119   9.570   2.210  0.1810  0.1894  0.1609
 6223W        W10423   8.738   7.300  11.072  0.0113  0.0504  0.6480
 6224W        W10424   4.517   6.527   1.781  0.0088 -0.0799 -0.2612
 6225W        W10425   3.303   1.418   2.814  0.1005 -0.0644 -0.0063
 6226W        W10426   7.166   4.149   0.138  0.1739 -0.1613  0.0395
 6227W        W10427   1.904   6.824  12.934  0.0201  0.0199  0.3037
 6228W        W10428   4.630   8.517   3.779 -0.3915  0.0412 -0.0313
 6229W        W10429  10.280   4.268  10.025  0.1366  0.2664  0.3496
 6230W        W10430   9.481   4.566   5.115  0.0053  0.2633 -0.1990
 6231W        W10431   5.351  10.065  10.306 -0.2520  0.1309  0.0726
 6232W        W10432   8.728   5.146   0.669 -0.0448  0.0174 -0.1726
 6233W        W10433   9.187   5.904  12.416 -0.3303 -0.2705 -0.0515
 6234W        W10434   3.491   2.726  12.941  0.0684  0.1989  0.2253
 6235W        W10435   6.394   1.154  12.802 -0.3782 -0.1801  0.0350
 6236W        W10436   1.179   2.190   9.818  0.0101 -0.0309 -0.2892
 6237W        W10437   2.297  10.059  11.584  0.4512  0.4739  0.2705
 6238W        W10438   8.605   8.124  10.945 -0.0099  0.4458 -0.3025
 6239W        W10439   7.960   1.208  12.276  0.0889 -0.1452  0.1517
 6240W        W10440   4.514   1.028   8.440 -0.2658  0.1470 -0.4459
 6241W        W10441   5.476   1.355   1.487 -0.0969 -0.0695 -0.0105
 6242W        W10442   3.447   5.732   4.031 -0.2393 -0.0393 -0.0408
 6243W        W10443   2.096   8.807   1.622  0.1161 -0.0518 -0.1713
 6244W        W10444   7.194   8.268  12.549 -0.2176 -0.0949  0.3213
 6245W        W10445   4.874   4.786   8.743 -0.1217  0.0644  0.2813
 6246W        W10446   0.344   6.606   0.695  0.0619  0.0313 -0.1577
 6247W        W10447   8.465   1.165   0.573  0.3006  0.1469 -0.0119
 6248W        W10448   7.590   4.946  12.478 -0.2852  0.2784  0.2051
 6249W        W10449   5.822   9.658   3.206 -0.0263 -0.3883 -0.0640
 6250W        W10450   7.355   9.467   9.536  0.0889  0.3717  0.1491
 6251W        W10451   2.814   8.470  13.102 -0.1010 -0.1678  0.0654
 6252W        W10452   9.967   4.965  10.844  0.4496  0.1714 -0.3195
 6253W        W10453   8.782   6.176   0.937 -0.2952 -0.0124  0.2036
 6254W        W10454   5.536   7.691   8.983 -0.0032 -0.2514 -0.1689
 6255W        W10455   6.692   8.469  10.339 -0.0834  0.1061  0.2377
 6256W        W10456   7.662   0.970   1.648 -0.3056  0.2778 -0.2229
 6257W        W10457   0.561   0.725   1.302 -0.3390 -0.1966  0.0482
 6258W        W10458  10.228  10.366   3.604  0.1116  0.1648 -0.1204
 6259W        W10459   7.087   8.086   2.348  0.0146  0.2820  0.0931
 6260W        W10460   6.636   1.989  12.215 -0.1501 -0.0368 -0.2762
 6261W        W10461  10.124   5.810   1.494  0.1803  0.1081  0.3961
 6262W        W10462   5.050   9.586  12.798  0.1123  0.0882  0.0742
 6263W        W10463   7.069   7.260   0.004  0.0489 -0.3549 -0.1806
 6264W        W10464  10.048   0.878   9.762  0.0699 -0.2395 -0.2220
 6265W        W10465   7.514   2.679   1.545 -0.2717  0.1835  0.1021
 6266W        W10466   8.889   5.177  13.094  0.0302 -0.0784  0.2011
 6267W        W10467   2.040   5.672   0.608 -0.2651 -0.0851  0.2003
 6268W        W10468   9.091   8.628  10.176 -0.0114  0.0691 -0.0168
 6269W        W10469   9.735   1.708   9.942  0.1164 -0.1301  0.2014
 6270W        W10470   0.849   6.589   0.496  0.3365  0.0118 -0.1435
 6271W        W10471   6.223   3.833  11.869  0.0168  0.1406  0.2338
 6272W        W10472   8.978   7.143  10.574  0.2062 -0.3018 -0.0233
 6273W        W10473   2.370   4.776   0.224 -0.2309 -0.0106 -0.0847
 6274W        W10474   8.450   6.038   0.525  0.0451 -0.0542 -0.0409
 6275W        W10475   7.611   3.918   1.362  0.2991  0.6955  0.0550
 6276W        W10476   4.030   2.646  10.147 -0.1978  0.2063  0.0898
 6277W        W10477  10.303   5.180  11.318  0.0065  0.1695 -0.1505
 6278W        W10478   5.967   9.228   3.433 -0.1066  0.0083  0.0198
 6279W        W10479   3.329   9.228  13.452  0.4181  0.1137  0.0714
 6280W        W10480   8.590   0.369   9.429  0.2919 -0.3616 -0.0590
 6281W        W10481   3.905   6.571  12.481  0.1050 -0.1075  0.1393
 6282W        W10482   2.461   1.048   0.359 -0.0387 -0.0623 -0.1120
 6283W        W10483   0.998  10.138   0.436  0.2129  0.1891  0.2314
 6284W        W10484   5.971   3.769   0.254  0.1936  0.3178 -0.2043
 6285W        W10485   6.279   2.499   9.929  0.0132  0.0330 -0.1085
 6286W        W10486   9.878   8.456   1.095 -0.1147 -0.2333 -0.2947
 6287W        W10487  10.247   1.812   3.171  0.1893  0.0309 -0.1476
 6288W        W10488   5.765   7.227   2.517 -0.0124 -0.1760 -0.1398
 6289W        W10489   6.804   3.159   2.924 -0.0394  0.0040 -0.4022
 6290W        W10490   7.628   1.297  11.312  0.1198 -0.2936  0.0797
 6291W        W10491   5.994   0.005  11.301  0.3974 -0.0678  0.2488
 6292W        W10492   3.964  10.375  10.777 -0.1457  0.0736  0.0662
 6293W        W10493   5.379   5.876  10.360  0.0764  0.1848  0.5303
 6294W        W10494   8.742   6.048   3.499 -0.0663  0.3107  0.0914
 6295W        W10495   4.349   7.011  11.039 -0.0138  0.0224  0.3106
 6296W        W10496   4.881   8.476  10.364  0.0982  0.0828  0.1933
 6297W        W10497   5.060   1.710   3.138 -0.1909  0.0080  0.2231
 6298W        W10498   3.873   2.860  10.678 -0.2070 -0.2982 -0.1326
 6299W        W10499   4.387   4.082   2.302 -0.0338 -0.0373 -0.0331
 6300W        W10500   1.442   0.295   3.504  0.2207 -0.0652  0.0933
 6301W        W10501   2.146   9.897   2.286 -0.0983  0.0143 -0.0614
 6302W        W10502   5.946   3.512   5.004  0.0432  0.2023 -0.1609
 6303W        W10503   1.769   5.629   5.280  0.0237  0.0157 -0.2267
 6304W        W10504   4.864   3.330  12.989  0.1364  0.1869 -0.1888
 6305W        W10505   0.379  10.291   9.864  0.1288 -0.0426 -0.0920
 6306W        W10506   8.940   4.573   2.393 -0.1392  0.2159  0.1567
 6307W        W10507   8.433   6.193  10.847  0.3262  0.1620 -0.1396
 6308W        W10508   2.448   7.968   2.275  0.0712  0.2138  0.0193
 6309W        W10509   0.458   4.451   3.139  0.0903 -0.1638 -0.0112
 6310W        W10510  10.399   6.887  13.004 -0.0521  0.0492  0.0529
 6311W        W10511   9.495   9.254   3.257 -0.0512 -0.2123 -0.2832
 6312W        W10512  10.385   2.705   3.770  0.1224 -0.2719 -0.5163
 6313W        W10513   8.621   8.194   9.498 -0.1697  0.2985  0.1601
 6314W        W10514  10.034   3.322   0.510  0.0705 -0.2132 -0.1118
 6315W        W10515   0.492   0.972  13.146  0.1465  0.2544 -0.1868
 6316W        W10516   1.889  10.279   9.252 -0.0762 -0.1465  0.1077
 6317W        W10517   7.382   0.367  11.100 -0.2427 -0.0681  0.0683
 6318W        W10518   5.451   3.486   2.948 -0.0000 -0.0300  0.2368
 6319W        W10519   8.105   8.046   4.306 -0.0802 -0.0452  0.0449
 6320W        W10520   1.640   0.019  13.436  0.0441 -0.0193 -0.0540
 6321W        W10521   3.670   3.986  12.118 -0.2867 -0.1926 -0.1753
 6322W        W10522   9.615   5.172   0.703  0.2129 -0.1579 -0.1556
 6323W        W10523   5.643   0.839  11.004  0.1087 -0.2739  0.0923
 6324W        W10524   5.137   3.917   4.405 -0.0904 -0.0155  0.1643
 6325W        W10525  10.323   9.965   1.070 -0.0095  0.2333 -0.2112
 6326W        W10526   3.858   7.606  11.355 -0.1948 -0.1405 -0.0026
 6327W        W10527   4.620   4.999   4.417 -0.0697  0.0593  0.0404
 6328W        W10528   6.538   0.535   2.176  0.3591  0.1436  0.3647
 6329W        W10529   0.145   8.836  11.810 -0.4146 -0.0202 -0.0592
 6330W        W10530   5.485   3.168   4.329  0.1589  0.1794 -0.1254
 6331W        W10531   0.294   6.835   2.613  0.2773  0.0852 -0.0655
 6332W        W10532   8.634  10.085   2.377  0.1974  0.0222  0.0839
 6333W        W10533   5.480   5.683   1.404  0.1457 -0.0340 -0.0053
 6334W        W10534   3.970   4.904   3.972 -0.2006  0.0680 -0.0258
 6335W        W10535   6.259   6.343   1.224 -0.0477  0.3178 -0.1191
 6336W        W10536   4.426   2.404  12.928 -0.4706 -0.2051  0.0838
 6337W        W10537   6.259   1.061   3.390 -0.1327 -0.0846 -0.1298
 6338W        W10538   5.910   2.990  10.759  0.2141  0.0502 -0.0667
 6339W        W10539   7.018   9.738   9.240 -0.1565  0.0891  0.1847
 6340W        W10540   8.664   7.717   1.301  0.1467 -0.1669  0.0356
 6341W        W10541   9.137   8.873   3.109 -0.0897  0.1060 -0.0433
 6342W        W10542   2.494   3.334  12.228 -0.0734 -0.1475  0.0187
 6343W        W10543   0.384   1.948  13.171  0.2487 -0.0505  0.1136
 6344W        W10544   2.501   9.395   3.003  0.1197  0.1293 -0.1276
 6345W        W10545   8.582   4.191   9.990  0.3320  0.0464  0.1485
 6346W        W10546   7.713   9.110   0.190 -0.0993  0.1947  0.2079
 6347W        W10547   7.324   3.504  11.994  0.2463  0.0993 -0.1525
 6348W        W10548   9.491  10.126   9.087 -0.0739  0.1860 -0.1306
 6349W        W10549   4.658  10.361   3.328  0.0443 -0.0706 -0.3623
 6350W        W10550   7.377   3.947   0.890  0.2022 -0.3854  0.0376
 6351W        W10551   6.341   3.789   1.287  0.0935  0.2460  0.2824
 6352W        W10552   1.386   5.341   0.569  0.0177  0.1616 -0.0658
 6353W        W10553   6.396   9.648  13.114 -0.1527 -0.0454  0.1343
 6354W        W10554   4.107   4.127  11.980 -0.0023 -0.1325  0.0319
 6355W        W10555   8.328   7.293   8.477  0.1331 -0.1708 -0.0214
 6356W        W10556   7.756   4.725  12.945 -0.0106 -0.4164  0.0538
 6357W        W10557   1.471   0.512   0.867  0.1191 -0.0498 -0.0721
 6358W        W10558   6.527   5.240  12.426  0.3857 -0.3009 -0.0674
 6359W        W10559   8.923   6.956  11.530  0.1071 -0.0900  0.2082
 6360W        W10560   0.410   7.893   2.308 -0.0564  0.0256  0.0720
 6361W        W10561   9.855   1.728   9.427  0.0261 -0.5252  0.3399
 6362W        W10562   9.401   4.164  11.061 -0.0644 -0.0209 -0.0781
 6363W        W10563   8.783   0.788  12.513 -0.0964  0.0913 -0.0868
 6364W        W10564   9.251   5.983  10.570  0.1368  0.2412  0.0066
 6365W        W10565   4.661   6.649   0.522  0.2404 -0.0799  0.2299
 6366W        W10566   6.940   7.100  11.130 -0.1027  0.0303 -0.0444
 6367W        W10567   1.998   4.617   3.768 -0.2041  0.1619  0.2965
 6368W        W10568   8.634   4.437  13.386  0.2468 -0.1341 -0.2321
 6369W        W10569   9.403   2.614  10.117  0.0586 -0.0441  0.0356
 6370W        W10570   5.216   9.377   2.438 -0.0201  0.0619 -0.2590
 6371W        W10571   8.210   9.042  11.806 -0.0601  0.0125  0.0294
 6372W        W10572   1.745   6.270   4.205  0.0412  0.1245  0.4138
 6373W        W10573   3.123   2.384  10.415 -0.1151 -0.0713 -0.3005
 6374W        W10574   7.933   6.790   5.579  0.0243  0.0564 -0.0629
 6375W        W10575   1.360   5.086   9.043  0.2695  0.1280  0.1092
 6376W        W10576   9.472   2.022   0.380 -0.0849  0.2389 -0.0247
 6377W        W10577   3.211   8.505  10.182 -0.0968  0.3406 -0.4678
 6378W        W10578   1.319   9.991   0.822 -0.3961  0.2254 -0.3293
 6379W        W10579   1.221   4.632   0.529  0.0812 -0.2521  0.0544
 6380W        W10580   1.317   2.184   8.822 -0.1156  0.1240 -0.2257
 6381W        W10581   2.695   3.508   2.983  0.1371  0.2610  0.0911
 6382W        W10582   3.453   5.164   4.701 -0.0697  0.2336 -0.1260
 6383W        W10583   1.628   7.211   1.944  0.0329  0.0478 -0.0082
 6384W        W10584   5.876   9.187  11.239 -0.2619  0.0217  0.1272
 6385W        W10585   7.141  10.213  10.076  0.2223 -0.0295 -0.0988
 6386W        W10586   3.987   8.734   3.182  0.2718 -0.1089  0.1577
 6387W        W10587   8.745   7.785   2.396 -0.0826  0.1631 -0.0763
 6388W        W10588  10.450   4.077  12.198 -0.0905  0.1892 -0.0791
 6389W        W10589   3.282   2.484   1.370  0.2519 -0.2052  0.1403
 6390W        W10590   8.482   0.704   3.269  0.2220  0.1673 -0.2399
 6391W        W10591   6.351   9.892   8.927 -0.2704  0.0542 -0.0221
 6392W        W10592   7.471   7.138   4.041  0.0590 -0.3912  0.2041
 6393W        W10593   9.037   6.546   1.561 -0.0446  0.4081 -0.1224
 6394W        W10594   6.933   0.335   1.871 -0.3023  0.0612 -0.2154
 6395W        W10595   3.606   6.342   4.683  0.0779 -0.0265  0.0696
 6396W        W10596   2.667   3.089   0.463  0.1044 -0.0154 -0.1336
 6397W        W10597  10.089   0.754  12.698 -0.1323  0.0271 -0.0035
 6398W        W10598   8.927   9.695  13.038  0.0485 -0.5950  0.6218
 6399W        W10599   6.595   1.336   3.655  0.2527  0.0738  0.0315
 6400W        W10600   6.014   3.024   5.114  0.0182  0.1332 -0.3817
 6401W        W10601   6.892   1.481   4.149  0.1680  0.0862  0.0252
 6402W        W10602   2.373   8.458   0.597  0.0420 -0.0688 -0.1009
 6403W        W10603   8.465   6.929   4.402  0.1533 -0.1132  0.3559
 6404W        W10604   8.106  10.261   9.999  0.0154 -0.0625  0.0602
 6405W        W10605  10.180   2.661   9.071  0.0367  0.1348 -0.2611
 6406W        W10606   1.756   8.263  12.211  0.1192 -0.0614  0.1392
 6407W        W10607   7.352   4.796   0.313 -0.0453 -0.1119 -0.0967
 6408W        W10608   4.419   5.669   2.749  0.1251  0.0323  0.1391
 6409W        W10609   3.379   6.704  11.517 -0.2376 -0.0619  0.0281
 6410W        W10610   4.569   3.508  10.314  0.3074 -0.0408  0.0751
 6411W        W10611   7.885   2.743  12.020 -0.1750 -0.1886  0.0689
 6412W        W10612   5.072   5.866   0.462 -0.0660  0.0530 -0.2760
 6413W        W10613   1.068   4.996  10.487  0.0563 -0.1534 -0.0497
 6414W        W10614   2.680   8.914  11.582  0.0089 -0.3653  0.0374
 6415W        W10615   8.784   5.042   2.466 -0.0725  0.0398  0.2451
 6416W        W10616   5.199   1.770   8.292 -0.0875  0.0750 -0.2393
 6417W        W10617  10.078   9.010   1.778  0.2385  0.0366  0.0147
 6418W        W10618   2.048   1.722   1.567 -0.1627 -0.0872 -0.2505
 6419W        W10619   4.112   9.978   9.852 -0.1792 -0.0530  0.2123
 6420W        W10620   3.576   8.442   1.312  0.0545  0.3408  0.1254
 6421W        W10621   0.338   5.441   3.122  0.1166 -0.0448  0.1473
 6422W        W10622   5.950   6.245  11.693 -0.1080  0.2408 -0.2193
 6423W        W10623   5.150   9.501   9.196  0.2028 -0.1181 -0.1181
 6424W        W10624   9.565   0.743   1.905 -0.2419 -0.0126 -0.0944
 6425W        W10625   7.712   4.879  10.993 -0.0333  0.5406  0.2027
 6426W        W10626   0.486   2.665  10.675 -0.0275  0.2870 -0.0384
 6427W        W10627   8.584   6.227   1.936  0.0056 -0.0965  0.2394
 6428W        W10628   8.205   6.530   1.872  0.1579  0.0974  0.2072
 6429W        W10629   7.994   0.625  11.276 -0.1162 -0.3524 -0.0059
 6430W        W10630   9.619   5.032  12.157 -0.0189  0.0421 -0.1972
 6431W        W10631   4.043   3.206  11.935 -0.2399  0.2621 -0.0055
 6432W        W10632   7.685   8.146   0.115 -0.2900 -0.3027 -0.1704
 6433W        W10633   3.588   1.057   9.208  0.2230  0.2656 -0.0788
 6434W        W10634   8.675   3.167   4.135  0.0596 -0.0856  0.0339
 6435W        W10635   9.314   8.068   1.619  0.1454  0.2216  0.0560
 6436W        W10636   4.799   0.202   0.976 -0.2729  0.3291  0.3912
 6437W        W10637   0.325   6.249  12.764  0.1783 -0.3453  0.0525
 6438W        W10638   2.923   6.499   2.856 -0.0780 -0.2109 -0.0467
 6439W        W10639   3.545   5.291  10.738 -0.2327  0.1933  0.1859
 6440W        W10640   5.617   2.981   2.944 -0.0767 -0.0747 -0.1436
 6441W        W10641   0.726   7.474  12.121  0.2056  0.0176  0.1563
 6442W        W10642   6.631   6.730   2.848 -0.0754  0.0313 -0.0453
 6443W        W10643  10.251   9.555  10.116  0.1709  0.0048 -0.1211
 6444W        W10644   9.836   3.448  10.050 -0.0285  0.2806 -0.1842
 6445W        W10645   6.604   3.568   0.894  0.0321 -0.1677 -0.4851
 6446W        W10646   3.081   8.757  13.435  0.2046 -0.1571  0.1580
 6447W        W10647   3.521   6.622   3.774  0.2890 -0.0585  0.0681
 6448W        W10648   9.137  10.427   3.192  0.1648 -0.0172 -0.0621
 6449W        W10649   3.848   7.872  10.779  0.1005 -0.0948 -0.1566
 6450W        W10650   1.476   6.353   2.887  0.0881  0.2329  0.1603
 6451W        W10651   2.987   5.405  10.693 -0.0644 -0.1094  0.0697
 6452W        W10652   9.323   1.284   0.095 -0.0549 -0.0986 -0.0027
 6453W        W10653   9.331   1.402   2.222 -0.0182 -0.1072 -0.1508
 6454W        W10654   6.417   5.182   9.528  0.0715 -0.4580 -0.1022
 6455W        W10655   0.379   9.614  13.203 -0.1863 -0.0148  0.3329
 6456W        W10656   1.509   2.910   4.242  0.1312 -0.0803  0.0939
 6457W        W10657   6.425   4.587   2.907  0.2451 -0.3574 -0.1822
 6458W        W10658   4.318   2.927   9.084 -0.1704 -0.0738  0.1538
 6459W        W10659   8.696   9.767  11.608  0.0919  0.3585 -0.2010
 6460W        W10660   8.040   9.118  10.752 -0.0877  0.1420 -0.1598
 6461W        W10661   5.207   0.219   2.721 -0.0938 -0.0479 -0.0689
 6462W        W10662   3.547   3.295  13.418 -0.0239  0.2280  0.0159
 6463W        W10663   4.193   9.033  12.470 -0.0098 -0.1220 -0.0887
 6464W        W10664   3.352   6.089  10.154  0.1469  0.1033  0.1811
 6465W        W10665   3.201   8.757  11.719  0.2271 -0.1996  0.0468
 6466W        W10666   0.817   5.032   9.556 -0.2369 -0.2474  0.0127
 6467W        W10667   2.560   3.399   4.402  0.4953 -0.0193 -0.1568
 6468W        W10668   7.644   8.215   2.379  0.3168  0.3935 -0.0839
 6469W        W10669   4.020   0.298  12.673  0.0477 -0.1306  0.1205
 6470W        W10670   6.212   5.206  10.807 -0.0578  0.0796  0.1130
 6471W        W10671   4.094   2.584   1.664  0.1786  0.0545  0.1586
 6472W        W10672   6.649   6.886   9.744  0.0054  0.0386  0.0029
 6473W        W10673   1.476  10.175   0.385  0.0614 -0.1923 -0.1049
 6474W        W10674   6.981   2.016  12.679 -0.1775 -0.0815  0.2401
 6475W        W10675   6.877   8.836   1.806 -0.4332  0.2847 -0.0391
 6476W        W10676   8.537   9.007   2.255 -0.0048  0.3315 -0.2639
 6477W        W10677   3.012   5.665   2.290 -0.2578  0.0641  0.4279
 6478W        W10678   5.047   8.115   1.950  0.0436  0.2177  0.2492
 6479W        W10679   4.515   8.437  13.200 -0.0327 -0.2220 -0.0536
 6480W        W10680   7.885   9.974   2.076 -0.0976  0.0857  0.3033
 6481W        W10681   4.614   9.936  10.292 -0.0251 -0.0810 -0.0384
 6482W        W10682   4.780   1.760   0.858 -0.0716  0.1389 -0.0794
 6483W        W10683   0.781   0.468   1.980 -0.0077  0.1730 -0.0894
 6484W        W10684   6.715   0.769  12.960 -0.0922  0.2077 -0.2430
 6485W        W10685   7.766   9.719   1.428  0.1900 -0.0898 -0.1099
 6486W        W10686   3.123   4.283  13.483 -0.0609  0.0419 -0.3483
 6487W        W10687   4.415   1.941   2.506 -0.3192 -0.3084  0.2230
 6488W        W10688   8.948   4.921   3.218  0.0167  0.1165 -0.2626
 6489W        W10689   4.410   6.777  12.401 -0.1786  0.2802  0.1086
 6490W        W10690   5.888   9.317  11.724 -0.0587  0.3671  0.1915
 6491W        W10691   9.095   8.169   2.019  0.2197  0.2629 -0.2932
 6492W        W10692   3.867   4.973  13.520 -0.1098  0.2086  0.0590
 6493W        W10693   0.306   3.735   3.403  0.0572  0.0330  0.3709
 6494W        W10694   3.032   8.732  10.680  0.3060  0.2777  0.0054
 6495W        W10695   4.877   7.580   9.410  0.1331  0.1606 -0.0487
 6496W        W10696  10.405   7.533   3.555  0.0996 -0.2243  0.2873
 6497W        W10697   1.814   1.726   0.480  0.0218 -0.0869  0.2193
 6498W        W10698   0.230   2.561   4.128  0.1624  0.1447  0.3360
 6499W        W10699   8.000   8.280  13.285  0.0520  0.0329  0.1759
 6500W        W10700   5.749   6.408   5.347 -0.2822  0.2919 -0.1534
 6501W        W10701   0.693   8.636  11.743  0.1742 -0.1064 -0.0303
 6502W        W10702   2.039   6.243  12.853 -0.2493 -0.0855  0.0793
 6503W        W10703   1.937   5.941  10.774  0.0595 -0.2678 -0.0806
 6504W        W10704   9.696   8.905   2.188  0.2086 -0.2684 -0.0809
 6505W        W10705   8.682   8.069   0.319 -0.0881  0.0347  0.1263
 6506W        W10706   3.531   0.796   1.976  0.1266  0.0444 -0.2196
 6507W        W10707   8.540   6.291  13.282  0.1932  0.0770  0.0489
 6508W        W10708   6.751   2.716   4.643  0.1048  0.0358  0.1283
 6509W        W10709   2.467   9.714   0.750  0.1946 -0.0932 -0.0261
 6510W        W10710   3.078   0.140   2.462  0.3015 -0.0313 -0.1374
 6511W        W10711   5.088   7.057   9.460  0.2690  0.1783 -0.0543
 6512W        W10712   8.588   6.479   1.343 -0.3590 -0.0122  0.1852
 6513W        W10713   4.041   8.624   1.370 -0.1980 -0.3087 -0.2035
 6514W        W10714   6.342   1.929   4.566 -0.0756  0.1580  0.0405
 6515W        W10715   7.422  10.388  11.488  0.2893  0.2250 -0.2485
 6516W        W10716   0.678   4.648   0.661 -0.2541  0.0915  0.2161
 6517W        W10717   4.950   3.651   3.259  0.0935 -0.1035  0.0622
 6518W        W10718   3.789   3.588   4.422  0.0196 -0.0037  0.3320
 6519W        W10719   9.113   2.927   9.862 -0.0661  0.1479 -0.2516
 6520W        W10720   9.792   5.792   3.230  0.0106  0.1955 -0.0402
 6521W        W10721   8.853   1.507   2.027 -0.0210  0.0021  0.0725
 6522W        W10722   9.350   6.026   4.089  0.2599 -0.0146 -0.0727
 6523W        W10723   7.228   3.093   0.294 -0.2489  0.0386 -0.0191
 6524W        W10724   2.170   7.503  10.459 -0.1897 -0.0787  0.3196
 6525W        W10725   1.895   8.230   0.540 -0.1937 -0.0676 -0.1260
 6526W        W10726   9.875   6.682  11.535  0.0109 -0.1513 -0.2955
 6527W        W10727   1.972   9.194   2.947 -0.1222  0.2552  0.1945
 6528W        W10728   2.253   4.020   8.802 -0.0831  0.2278 -0.1582
 6529W        W10729   5.201   2.856  12.940  0.2535 -0.0107  0.0941
 6530W        W10730   7.880   2.824   2.745 -0.2144  0.0729  0.1975
 6531W        W10731   3.080   0.214   3.516  0.0820  0.2023  0.1013
 6532W        W10732   0.244   2.054  12.518  0.3240  0.0418 -0.0841
 6533W        W10733   2.872   3.012   8.691 -0.1042 -0.0031 -0.2474
 6534W        W10734   1.635   7.406  11.613 -0.1769  0.1827 -0.0916
 6535W        W10735   9.088   7.853  11.185  0.0669  0.2926 -0.0547
 6536W        W10736   7.198   6.127  10.226 -0.0173 -0.0289 -0.0788
 6537W        W10737   8.791   5.937  11.228 -0.0788  0.0363  0.2350
 6538W        W10738   4.987   2.805   4.718  0.2487 -0.0409 -0.1112
 6539W        W10739   2.523   6.475   0.024 -0.0337  0.1472  0.3512
 6540W        W10740   9.200   8.171  12.778  0.0196 -0.2422 -0.0783
 6541W        W10741   0.982   0.669  13.128 -0.0598  0.0219  0.0305
 6542W        W10742   8.412   2.958   2.475  0.1237 -0.0083 -0.0300
 6543W        W10743   2.034   7.966   2.987  0.1394 -0.0813  0.0582
 6544W        W10744   5.556   4.895   1.987 -0.2395 -0.0576  0.1746
 6545W        W10745   7.627   4.137   2.464 -0.2574 -0.1637 -0.2499
 6546W        W10746   5.774   7.645  10.618 -0.0116 -0.0482  0.0260
 6547W        W10747   2.026   9.014  13.249  0.4291 -0.2788 -0.0336
 6548W        W10748   4.555   0.920   3.728 -0.1406 -0.5889  0.4721
 6549W        W10749   2.604   2.974  13.142  0.1674  0.1893 -0.0764
 6550W        W10750   9.398   0.892  13.328 -0.1885  0.0813 -0.0678
 6551W        W10751   4.965   7.415   0.336 -0.1349 -0.2359  0.2864
 6552W        W10752   7.832   5.547  13.357  0.1521  0.0221 -0.1081
 6553W        W10753   5.007   0.223   8.244 -0.0299 -0.0333 -0.1588
 6554W        W10754   4.377   0.721  10.296 -0.0966 -0.0227 -0.1313
 6555W        W10755   1.444   0.286  11.676  0.4031 -0.0189 -0.0255
 6556W        W10756   8.832   5.947  12.033 -0.1451 -0.0287  0.0842
 6557W        W10757   3.445   6.939   1.086 -0.3248  0.1159  0.1007
 6558W        W10758   3.339   0.829   9.597  0.0510  0.1521  0.0747
 6559W        W10759   3.416   5.934   3.564 -0.1664  0.3760 -0.2208
 6560W        W10760   4.038   5.993   2.808 -0.2015 -0.2310 -0.2607
 6561W        W10761   7.669   2.443   2.051  0.3411  0.2099  0.0724
 6562W        W10762   8.254   5.113   0.356  0.2412 -0.0964 -0.1819
 6563W        W10763   5.996   9.639   9.141  0.2044  0.5011 -0.2852
 6564W        W10764   2.978   6.027  12.715  0.0451 -0.2372 -0.1212
 6565W        W10765   6.269   5.930  11.861 -0.1939  0.1694  0.1673
 6566W        W10766   7.359   5.134   9.606  0.1513 -0.3449  0.0685
 6567W        W10767   1.883   2.878   9.425 -0.1152 -0.1754  0.4593
 6568W        W10768   3.763   2.418   1.192 -0.0656 -0.1702  0.1394
 6569W        W10769   9.288   7.587   3.716  0.0317 -0.3193  0.1236
 6570W        W10770   3.075   6.455  13.522  0.3166  0.3165 -0.0111
 6571W        W10771   2.399   9.856   1.834 -0.0684 -0.0830 -0.0664
 6572W        W10772   7.768   2.757   5.215 -0.1835 -0.1495  0.0187
 6573W        W10773   7.102   1.807   0.390 -0.2826 -0.1450 -0.0036
 6574W        W10774   4.448   7.266  12.122 -0.0915 -0.0843  0.1288
 6575W        W10775   0.838   5.475  11.242 -0.3260  0.0914  0.0055
 6576W        W10776   4.158   5.773  12.383  0.0585  0.1177  0.0359
 6577W        W10777   2.220   5.486   9.252 -0.2268 -0.0591 -0.2303
 6578W        W10778   8.082   3.187   3.930 -0.0301 -0.0622  0.0311
 6579W        W10779   0.437   5.306   2.670  0.1247 -0.2620  0.2556
 6580W        W10780   9.951   4.016  13.177 -0.0329  0.3946 -0.0417
 6581W        W10781   0.231   1.435   2.956  0.2747 -0.1684 -0.0529
 6582W        W10782   7.322   8.144  13.256 -0.0575 -0.0773  0.0016
 6583W        W10783   2.145   7.720   2.589  0.1223  0.2692 -0.1053
 6584W        W10784   8.550   1.197  13.010  0.4099 -0.1789 -0.0119
 6585W        W10785   0.232   8.387  12.969 -0.1490 -0.0270 -0.0333
 6586W        W10786   4.911   5.363  12.186 -0.0613 -0.6307 -0.1934
 6587W        W10787   9.545   3.782  12.256 -0.2903  0.1408  0.0260
 6588W        W10788   4.874   3.349   8.678 -0.0890  0.1475 -0.0536
 6589W        W10789   7.992   7.249   4.173 -0.0157 -0.0169  0.2053
 6590W        W10790   5.414   3.307   3.857  0.0177  0.0586 -0.0077
 6591W        W10791   1.281   6.737   3.513 -0.1747 -0.0389  0.0424
 6592W        W10792   5.503   5.187   1.500 -0.1267  0.0309 -0.0802
 6593W        W10793   8.046  10.318  13.386  0.1317 -0.0837  0.2018
 6594W        W10794   4.697   5.608   0.252 -0.2216  0.0626 -0.2145
 6595W        W10795   8.913   9.293   2.607 -0.1822  0.2343  0.0353
 6596W        W10796   6.342   3.630  10.590  0.0222  0.2685  0.0520
 6597W        W10797   7.926   0.431  10.262  0.1909  0.1786 -0.0461
 6598W        W10798   0.449   4.775   1.093 -0.1769 -0.0053 -0.0257
 6599W        W10799   2.533   7.492   1.244 -0.0939  0.2760 -0.0232
 6600W        W10800   9.707   0.440  13.001  0.2630 -0.0239  0.0490
 6601W        W10801   9.291   2.958   2.575  0.0553  0.2552 -0.0882
 6602W        W10802   2.406   9.412  10.844  0.0575 -0.2341 -0.0485
 6603W        W10803   0.198   6.623  11.411 -0.3363  0.2530 -0.4703
 6604W        W10804   1.453   1.632  11.667  0.1291 -0.1039  0.1723
 6605W        W10805   0.204   4.925   4.421 -0.2487 -0.2283 -0.0792
 6606W        W10806   0.934   1.290   2.750  0.2243 -0.0695 -0.0160
 6607W        W10807   1.225   3.375   3.059 -0.1071  0.0412  0.0545
 6608W        W10808   8.666   8.707   3.155  0.0572  0.1392  0.1481
 6609W        W10809   2.097   4.185  13.454  0.3064 -0.1541 -0.0167
 6610W        W10810   1.235   5.018   2.185  0.1132  0.2817  0.2841
 6611W        W10811   7.817   9.916   9.771 -0.0156  0.3968  0.0794
 6612W        W10812   5.269   5.684   2.103  0.0733 -0.2292 -0.2841
 6613W        W10813   1.575   1.570  11.151  0.0570 -0.1052  0.1211
 6614W        W10814   7.589   5.925  12.308  0.0250  0.0402  0.0597
 6615W        W10815   7.323  10.095  10.509  0.2511  0.2761 -0.3554
 6616W        W10816   5.554   0.763   8.235  0.2866 -0.0742 -0.0262
 6617W        W10817   0.997   9.005   0.584 -0.0503 -0.1202  0.1241
 6618W        W10818   5.617   1.985  13.041  0.3354 -0.1288  0.1030
 6619W        W10819   2.101   9.062  11.611  0.2120  0.2663  0.2517
 6620W        W10820   8.464   7.315   3.253  0.1622 -0.0649 -0.0847
 6621W        W10821   2.231   0.288  11.455 -0.0472 -0.2631 -0.1615
 6622W        W10822   4.751   7.288   2.183 -0.2046 -0.1187 -0.2633
 6623W        W10823   7.836   1.115  12.809 -0.2095 -0.2157 -0.0166
 6624W        W10824   3.698   4.694  12.498  0.1498 -0.0836  0.1977
 6625W        W10825   5.383   8.363   9.118 -0.0913 -0.0706  0.1019
 6626W        W10826   5.889   0.431  12.178 -0.0812 -0.0619  0.2815
 6627W        W10827   2.144   6.929   3.120  0.0859  0.2059  0.1450
 6628W        W10828   3.333   7.902   3.180  0.0784  0.0181  0.2346
 6629W        W10829   5.901   7.948  12.933  0.5223 -0.1846 -0.1487
 6630W        W10830   2.810   0.236  11.058 -0.1057  0.1648  0.0079
 6631W        W10831   0.321   3.268   3.126  0.0468 -0.1645  0.4620
 6632W        W10832  10.184   6.755   0.297 -0.1069  0.3350 -0.0284
 6633W        W10833   3.679   4.866  11.054  0.0431  0.0480  0.2717
 6634W        W10834   0.247   6.309   1.695  0.1672  0.0996 -0.0557
 6635W        W10835   0.949   2.088  13.372  0.1430 -0.0509 -0.0930
 6636W        W10836   0.137   6.180  10.368 -0.2653 -0.1067  0.0355
 6637W        W10837   1.327   5.750  10.833 -0.1795  0.5105 -0.1549
 6638W        W10838   9.451   3.605   4.878  0.0647 -0.0302 -0.1726
 6639W        W10839   2.924   1.326   2.500 -0.0706 -0.0056 -0.1024
 6640W        W10840   5.391   1.827  12.583  0.1008  0.3425 -0.2266
 6641W        W10841   2.010   3.005   3.060  0.0708  0.3292 -0.2002
 6642W        W10842   3.502   7.232  12.185 -0.0817  0.1030  0.0888
 6643W        W10843   8.534   1.922   4.591  0.3040  0.1462  0.1520
 6644W        W10844   5.633   2.174   1.450 -0.0022 -0.4493 -0.3340
 6645W        W10845   1.815   6.008   9.683 -0.0564 -0.0916  0.0720
 6646W        W10846   0.100   9.819   3.958  0.1639 -0.1533 -0.2039
 6647W        W10847   2.795   4.525   3.270  0.2922 -0.0634 -0.1266
 6648W        W10848   1.698   0.051  10.545  0.0721  0.1068  0.2592
 6649W        W10849   0.449   7.422  12.564 -0.0118  0.0421  0.0608
 6650W        W10850   4.781   4.506   0.232  0.0552 -0.1073 -0.2255
 6651W        W10851   6.785   9.375   9.525  0.3897 -0.0689 -0.1668
 6652W        W10852   5.266   0.527   8.595  0.0785  0.1739  0.0489
 6653W        W10853   5.567   5.862   2.486  0.0539  0.2240 -0.0557
 6654W        W10854   4.697   2.639   1.250 -0.2662  0.0327 -0.2077
 6655W        W10855   1.477   4.605   9.393  0.0850 -0.2483  0.0847
 6656W        W10856   8.480   2.909  12.505  0.1368  0.1554  0.1828
 6657W        W10857   0.581  10.079   3.165 -0.0385  0.2431  0.0376
 6658W        W10858   7.649   1.779   1.264  0.0435 -0.5404  0.2924
 6659W        W10859   6.222   2.980  11.671  0.0249 -0.0299 -0.0302
 6660W        W10860   1.843   5.814   4.273  0.1526 -0.2323 -0.0816
 6661W        W10861   7.595   6.191   9.220 -0.0355  0.0918 -0.2911
 6662W        W10862   9.330   6.703   3.414  0.2457  0.3662  0.0494
 6663W        W10863   6.985   5.812  13.054  0.2935  0.0097  0.2661
 6664W        W10864   8.973   7.362  13.103 -0.1024  0.0887  0.1006
 6665W        W10865   3.784   9.518   2.560 -0.1273  0.0030  0.0915
 6666W        W10866   4.166   8.541  12.615  0.0715  0.1617 -0.2784
 6667W        W10867   7.861   0.043   0.941 -0.2971 -0.0269  0.3392
 6668W        W10868   4.238   0.923   4.095  0.0818  0.1434 -0.0774
 6669W        W10869   6.669   2.397  12.540  0.1446  0.1440 -0.0623
 6670W        W10870   5.503   0.662   2.741 -0.0371  0.0486 -0.1279
 6671W        W10871   0.699   9.377  11.014  0.0421 -0.2969 -0.1432
 6672W        W10872   2.451   6.176   2.710  0.1021 -0.0815  0.0132
 6673W        W10873   9.036   5.081   1.273  0.0726  0.5681 -0.0675
 6674W        W10874   5.273   2.172   0.035 -0.3082 -0.1127 -0.0500
 6675W        W10875   8.302  10.403   2.855  0.0296 -0.1417 -0.1871
 6676W        W10876   7.454   4.666   2.749  0.2812 -0.1363  0.0040
 6677W        W10877   3.748   6.147   2.288 -0.1415 -0.1225 -0.0243
 6678W        W10878   6.082   1.900   3.833  0.3957  0.0144 -0.0147
 6679W        W10879   2.882   4.276   4.146 -0.0321  0.1202 -0.3381
 6680W        W10880   5.804   8.069   5.218  0.0137 -0.2434  0.0930
 6681W        W10881   7.526   7.974   3.760 -0.1695  0.0862 -0.3440
 6682W        W10882   4.120   7.285   0.367  0.2917 -0.1057 -0.5062
 6683W        W10883   9.741   0.709  10.477  0.0823 -0.3826  0.0899
 6684W        W10884   9.672   3.187   9.298 -0.1006 -0.0538 -0.3372
 6685W        W10885   5.485   9.514  12.055 -0.0557 -0.0033  0.1528
 6686W        W10886   2.025   8.174   2.411 -0.3290 -0.3814  0.1609
 6687W        W10887  10.138  10.350   2.009 -0.0593  0.2651 -0.1000
 6688W        W10888   6.107   5.634   9.572  0.0523 -0.0025 -0.1647
 6689W        W10889   0.889   0.988  11.246  0.5335  0.0737  0.0013
 6690W        W10890   1.550   7.941  12.550 -0.2901  0.0828  0.1527
 6691W        W10891   8.579   0.438   9.919 -0.3085 -0.0411  0.2886
 6692W        W10892   3.840   2.846   8.937  0.1821 -0.1664  0.0422
 6693W        W10893   5.829   2.559   8.891  0.0441 -0.1074  0.1582
 6694W        W10894   2.878   9.107   0.221  0.2006  0.2520 -0.0677
 6695W        W10895   6.094   3.420  12.450 -0.2205  0.0891  0.0847
 6696W        W10896   6.707   2.247  10.121  0.0092 -0.0774  0.2416
 6697W        W10897   1.798   9.975  12.061 -0.3748  0.0016  0.0147
 6698W        W10898   1.890   0.592   2.261  0.0348  0.0289  0.2137
 6699W        W10899   8.692   8.057   4.903  0.1013 -0.0441  0.1343
 6700W        W10900   5.003   8.324  13.421  0.0820  0.0336 -0.0368
 6701W        W10901   2.041   8.238  11.418 -0.3987 -0.1844  0.3112
 6702W        W10902   4.940   0.256  10.618 -0.0959 -0.2210  0.3510
 6703W        W10903   4.390   9.038   2.433  0.2787 -0.2718 -0.2668
 6704W        W10904   6.047   4.406   9.844 -0.1502  0.1168 -0.0343
 6705W        W10905   4.447   6.692   3.453 -0.2933  0.3554 -0.2129
 6706W        W10906   4.378   1.291   3.198 -0.1407 -0.1584 -0.1006
 6707W        W10907   4.168   5.706   9.053 -0.1053  0.0085  0.1935
 6708W        W10908   3.145   3.021  13.227  0.0668  0.1108 -0.3837
 6709W        W10909   3.368   9.041   4.012  0.2202  0.1507 -0.0952
 6710W        W10910   9.368   8.993   2.645 -0.0691 -0.1044  0.4336
 6711W        W10911   6.634   8.728   4.182  0.0191  0.0812 -0.1096
 6712W        W10912   1.887   2.336   9.388 -0.1821  0.1772 -0.0443
 6713W        W10913   0.266   4.223   4.889 -0.1558 -0.1542 -0.1144
 6714W        W10914   9.693   4.913   4.383  0.0484 -0.0817 -0.2470
 6715W        W10915   0.834   6.127   4.148  0.3137  0.1142 -0.1991
 6716W        W10916  10.454   1.876   0.372 -0.0371  0.3153 -0.0105
 6717W        W10917   2.794   5.619   0.559 -0.2606 -0.0080  0.4253
 6718W        W10918   9.478   0.182  10.514 -0.0182  0.1310  0.0963
 6719W        W10919   4.187   0.498   9.723  0.3445  0.0039 -0.0259
 6720W        W10920   1.206   2.378   0.225  0.3047 -0.1085  0.0396
 6721W        W10921   3.362   9.914  11.057 -0.0531 -0.1785 -0.0846
 6722W        W10922   5.274   6.560   1.285 -0.0394 -0.2281  0.0774
 6723W        W10923   5.985   3.329  10.461  0.0763 -0.1807  0.1308
 6724W        W10924   8.416   2.071   0.897 -0.0479 -0.1187  0.3730
 6725W        W10925   5.619   2.113   2.350 -0.0168 -0.1260  0.0623
 6726W        W10926  10.292   1.217   8.380 -0.6072  0.1268  0.3283
 6727W        W10927   8.882   9.932   1.985 -0.1868  0.1658  0.4382
 6728W        W10928  10.004   8.760  12.108  0.0264  0.2465 -0.1658
 6729W        W10929   0.031   0.474  10.329 -0.1396 -0.2393  0.0084
 6730W        W10930   0.554   0.240   2.429  0.0899  0.1919  0.0946
 6731W        W10931   8.788   0.883  10.770  0.3597 -0.1543  0.1348
 6732W        W10932   3.891   0.943   8.855 -0.2958  0.0204 -0.2550
 6733W        W10933   6.181   3.746   3.295  0.1557  0.0731 -0.1763
 6734W        W10934   5.849  10.314   1.558 -0.2450 -0.1553 -0.1504
 6735W        W10935   8.635   2.122   3.832 -0.0443  0.2646 -0.0787
 6736W        W10936   7.462   4.413  12.681 -0.0445  0.1474 -0.0419
 6737W        W10937   4.305   3.821   1.348  0.1401 -0.1127  0.1899
 6738W        W10938   8.986   1.720   9.600 -0.1605 -0.1771  0.3627
 6739W        W10939   7.260   7.216   9.099  0.0441 -0.2376 -0.0115
 6740W        W10940   0.541   1.483  11.222  0.1533 -0.1099  0.3218
 6741W        W10941  10.261   1.911  10.987 -0.2945 -0.2654 -0.0671
 6742W        W10942   7.414   9.798   0.507 -0.3304  0.0833  0.4814
 6743W        W10943   0.671   8.824   0.190  0.1642 -0.2206  0.2755
 6744W        W10944   4.044   1.957  10.902  0.1249 -0.1500  0.1810
 6745W        W10945   4.111   9.806   2.892  0.1981 -0.1612 -0.2188
 6746W        W10946   3.152   1.912  11.324  0.0052 -0.2590 -0.0022
 6747W        W10947   7.103   1.804   1.264 -0.0697  0.1085 -0.0347
 6748W        W10948   3.622   7.732  12.088  0.0086  0.2444  0.1016
 6749W        W10949   8.509   9.487   4.006  0.0321  0.2336  0.4219
 6750W        W10950   1.049   8.782  12.729 -0.2561  0.3098 -0.0750
 6751W        W10951   9.648   3.376   2.275 -0.0558 -0.2315 -0.0165
 6752W        W10952   4.752  10.439   2.837 -0.0732 -0.0409  0.1304
 6753W        W10953   6.744   0.033   3.950  0.0531  0.0693  0.2655
 6754W        W10954   4.847   8.364   2.938  0.0053  0.1405 -0.3019
 6755W        W10955   8.271   5.398   2.453 -0.2434 -0.0799  0.0867
 6756W        W10956   5.975   1.395   0.250 -0.1606  0.0030 -0.0362
 6757W        W10957   3.613   4.403   0.006  0.1523 -0.0369 -0.0475
 6758W        W10958   4.366   2.739   3.552 -0.0578 -0.0463 -0.2643
 6759W        W10959   1.074   7.666  10.876 -0.0592  0.0575  0.2614
 6760W        W10960   5.565  10.374   3.739  0.0593 -0.1046  0.0094
 6761W        W10961   2.799   2.652   1.159  0.2642 -0.4135  0.2624
 6762W        W10962   3.215   7.002   9.910  0.1171 -0.1647  0.0534
 6763W        W10963   5.523  10.325   9.906 -0.2971  0.1321  0.0830
 6764W        W10964   5.072   0.778  13.201 -0.3105  0.4919 -0.0149
 6765W        W10965   8.049   1.166  13.245  0.2370 -0.0190  0.4130
 6766W        W10966   4.445   1.253   4.519  0.0839  0.0123 -0.2503
 6767W        W10967   6.216   5.455   4.962 -0.2596 -0.1870 -0.0373
 6768W        W10968   8.091   7.751   1.213  0.2188 -0.0032  0.1604
 6769W        W10969   3.247   8.292  13.298  0.0608  0.2045  0.0406
 6770W        W10970   8.608   1.846  11.754 -0.0986 -0.3212 -0.1043
 6771W        W10971   4.461   7.743  11.976 -0.2643  0.0895  0.0382
 6772W        W10972   5.174   5.200  13.270 -0.1931 -0.1592  0.0695
 6773W        W10973   4.659   2.165   9.662  0.1415 -0.3618 -0.3001
 6774W        W10974   0.062   2.686   4.562  0.2710 -0.1545  0.4428
 6775W        W10975   6.106   5.495   0.892 -0.0995  0.2411  0.0785
 6776W        W10976   3.633   8.092  11.325 -0.0178 -0.0701  0.3434
 6777W        W10977  10.357   4.044   0.981 -0.0063 -0.0713  0.0871
 6778W        W10978   2.481   9.320   1.218  0.0775  0.0692  0.0071
 6779W        W10979   5.058   0.616   1.093 -0.2309  0.2663 -0.6328
 6780W        W10980   5.236   0.637   2.287  0.2710 -0.0670 -0.1655
 6781W        W10981   4.795   0.446   2.484  0.0824 -0.2198 -0.0756
 6782W        W10982   4.501   8.195   4.350  0.0159  0.2532  0.1540
 6783W        W10983  10.314   6.360   1.981  0.3493 -0.1983 -0.1707
 6784W        W10984   7.589   7.775   5.172 -0.1427 -0.1365  0.1118
 6785W        W10985   5.678   1.794  10.683  0.0311 -0.1240  0.2036
 6786W        W10986   2.218  10.248   3.956  0.0392 -0.3251 -0.1093
 6787W        W10987   1.822   5.689   2.196 -0.1023  0.1052 -0.2211
 6788W        W10988   8.856   7.083  12.670 -0.2042 -0.0764 -0.1200
 6789W        W10989   7.988   2.064   2.091 -0.0231  0.1433 -0.1226
 6790W        W10990   3.815   8.913   0.548 -0.1859  0.2549  0.3101
 6791W        W10991  10.235   6.548  12.211 -0.0676 -0.0538  0.0678
 6792W        W10992   7.516   5.168   0.521 -0.3140 -0.2090 -0.1164
 6793W        W10993   7.952   7.067  12.062 -0.0906  0.0652 -0.2951
 6794W        W10994   2.259   3.398   3.227  0.1184  0.0151  0.0584
 6795W        W10995   1.980   0.491   0.862 -0.0992 -0.0320  0.1367
 6796W        W10996   6.334   8.865   0.657 -0.0770 -0.4309  0.1049
 6797W        W10997   5.485   1.344   3.624 -0.0490  0.1297  0.0276
 6798W        W10998   8.271   3.616  13.036 -0.1737 -0.0745  0.1016
 6799W        W10999   6.130   0.962  10.864 -0.1515 -0.2558 -0.1500
 6800W        W11000   7.561   9.283   2.594 -0.2192  0.0503  0.1105
 6801W        W11001   6.896   8.566   2.443 -0.4932  0.2968  0.2698
 6802W        W11002   0.768   5.141   3.977 -0.1789 -0.1650 -0.1382
 6803W        W11003   2.582   1.098   0.846  0.0380  0.2342 -0.1241
 6804W        W11004   8.119  10.272   2.411  0.0281 -0.0514  0.0621
 6805W        W11005   8.417   2.434   2.215 -0.3706 -0.1768  0.1004
 6806W        W11006   5.621   1.750   0.366 -0.3124  0.0881 -0.0146
 6807W        W11007   9.609   3.083   9.863 -0.2507 -0.1061 -0.0767
 6808W        W11008   3.531   1.596   2.403  0.0452 -0.4359 -0.2131
 6809W        W11009   9.505  10.331  11.724 -0.1806  0.0857 -0.0112
 6810W        W11010   2.402   8.854   1.087  0.1459 -0.0106  0.0646
 6811W        W11011   8.970   9.114  10.848 -0.2173  0.0761 -0.0678
 6812W        W11012   3.038   7.138   2.976  0.0385  0.0997 -0.2951
 6813W        W11013   7.132   8.690   1.386 -0.2140  0.3541 -0.0629
 6814W        W11014   8.066   6.833   2.457  0.1381 -0.0177  0.3091
 6815W        W11015   1.173   8.434  11.682  0.0520  0.0998 -0.3953
 6816W        W11016   1.997   9.778   9.952 -0.1487  0.1721 -0.2797
 6817W        W11017   7.403   9.139  12.135  0.0169  0.1881  0.1287
 6818W        W11018   5.779   9.625   1.826 -0.1484 -0.0377  0.0789
 6819W        W11019   9.639   3.525   5.399 -0.2099  0.0118  0.2905
 6820W        W11020   4.153   2.045   1.968  0.1365 -0.3923 -0.3548
 6821W        W11021   5.194   5.424   0.651 -0.2850 -0.0950 -0.0019
 6822W        W11022   7.972   6.001   2.886 -0.1664 -0.3381  0.1145
 6823W        W11023   6.983   2.805   1.615 -0.0520  0.1414 -0.1138
 6824W        W11024   9.369   3.540  13.471 -0.1012  0.2351  0.0034
 6825W        W11025   7.561   6.574  13.488 -0.7147  0.3119  0.5728
 6826W        W11026   2.302   4.577   9.096 -0.0596 -0.1718  0.2571
 6827W        W11027   6.171   2.482  12.426  0.0305  0.2627  0.0343
 6828W        W11028   6.321   4.144   4.646 -0.1179 -0.0150  0.2270
 6829W        W11029  10.192   0.688  12.143 -0.1227 -0.0259  0.1400
 6830W        W11030   7.651   5.939  13.024  0.1817  0.0044  0.2514
 6831W        W11031   3.543   7.411  11.681  0.2812 -0.1827  0.3442
 6832W        W11032   9.289   9.793   4.042 -0.1312 -0.1602  0.3044
 6833W        W11033   9.356   0.609  12.651  0.3451  0.2626 -0.2953
 6834W        W11034   2.375   8.699   3.598  0.1184  0.1481  0.0896
 6835W        W11035   2.631   7.065   1.536 -0.0040  0.1000 -0.0059
 6836W        W11036   5.724   9.012   3.986 -0.2198  0.0432 -0.3889
 6837W        W11037   5.399   0.354  10.014  0.0861  0.1905 -0.1436
 6838W        W11038  10.316   5.702   3.178 -0.3355  0.0116  0.1949
 6839W        W11039   8.978   9.438   3.923 -0.2509 -0.0361  0.0166
 6840W        W11040   5.520   4.163   3.913  0.0938  0.1006 -0.1997
 6841W        W11041   8.235   1.500   3.046 -0.0623 -0.0624 -0.1246
 6842W        W11042   3.094   1.867   0.857  0.2896 -0.1172 -0.0727
 6843W        W11043   2.534   5.869   3.713 -0.0718  0.3239 -0.0232
 6844W        W11044   3.632   6.017   0.858  0.0648  0.1515 -0.4878
 6845W        W11045   7.045   8.315   8.802 -0.1938 -0.0413  0.1159
 6846W        W11046   1.688   3.913  12.195 -0.1208  0.1676  0.0484
 6847W        W11047   2.990   0.350  11.556  0.1822  0.3735  0.1411
 6848W        W11048   4.176   9.924  11.403 -0.0709  0.4170  0.2073
 6849W        W11049   6.101   5.443   4.159  0.1611  0.1239 -0.0473
 6850W        W11050   4.620   8.881   0.692  0.0814 -0.1192  0.3634
 6851W        W11051   2.297   4.113   9.282 -0.1910  0.2157  0.1313
 6852W        W11052   1.378   3.122   2.564 -0.4241  0.1807  0.2694
 6853W        W11053   3.513   1.801  10.103 -0.0202 -0.0815  0.1047
 6854W        W11054   7.261   0.020   1.127  0.0446  0.0796 -0.1269
 6855W        W11055   9.173  10.327   3.986 -0.0458 -0.1880 -0.5047
 6856W        W11056   4.244   0.427   3.951 -0.0456  0.0295  0.0668
 6857W        W11057   4.592   1.310  11.749 -0.0346 -0.0885 -0.4099
 6858W        W11058   3.398   1.317   9.734 -0.1300 -0.0369  0.0271
 6859W        W11059   6.574  10.115   2.862  0.3424 -0.5037  0.0924
 6860W        W11060   5.926   6.244   2.380  0.2191 -0.0707 -0.2565
 6861W        W11061   1.659   5.657  10.428 -0.0886  0.0136  0.0461
 6862W        W11062   9.807   8.209   1.510 -0.2175 -0.0081  0.0950
 6863W        W11063   3.204   9.165   1.827  0.2142  0.0386  0.1483
 6864W        W11064   8.434   0.160  13.391  0.2611  0.1377 -0.0921
 6865W        W11065   5.953   2.072   9.598 -0.0662 -0.1622  0.0782
 6866W        W11066   0.421   5.333   3.647 -0.0555 -0.1832  0.0788
 6867W        W11067   0.347   4.146   4.406 -0.2058 -0.2528  0.2112
 6868W        W11068   8.842   3.820   0.749 -0.3392  0.4409  0.1657
 6869W        W11069   5.321   8.097   0.957 -0.1855 -0.2051  0.0916
 6870W        W11070   8.519   7.537  12.872 -0.5611  0.1255 -0.3287
 6871W        W11071   5.577   4.883   2.530 -0.1581  0.0772  0.0880
 6872W        W11072   3.240   7.823  13.485  0.2421 -0.0391  0.2841
 6873W        W11073   4.952   9.650   1.205  0.1249 -0.0538  0.1861
 6874W        W11074   2.327   9.367   9.905 -0.0406  0.0804  0.0843
 6875W        W11075   8.480  10.205  11.547  0.0010  0.0357 -0.0133
 6876W        W11076   2.566   9.346   3.858  0.0432  0.2119  0.1029
 6877W        W11077   1.420   5.694   9.719  0.0754 -0.1867 -0.3412
 6878W        W11078  10.258   0.713   4.317 -0.1326 -0.4379  0.4559
 6879W        W11079   7.991   5.497  12.456  0.0176  0.0812  0.1048
 6880W        W11080   5.010   4.169   9.516  0.0517 -0.1455  0.1850
 6881W        W11081   9.956   5.024   2.708  0.0033 -0.1575  0.2133
 6882W        W11082   4.854   1.229  12.305  0.1838 -0.0937 -0.0267
 6883W        W11083   7.779   8.370   1.912  0.0782 -0.0320  0.0362
 6884W        W11084   5.027   0.073  10.199  0.1151  0.3282 -0.0075
 6885W        W11085   6.343   8.276   1.854 -0.0997  0.0761 -0.2213
 6886W        W11086   1.851   4.795  10.309  0.0289 -0.2064 -0.2798
 6887W        W11087  10.208   1.361   9.224 -0.0063 -0.0562  0.0871
 6888W        W11088   3.178   0.748  12.706 -0.1981  0.0616  0.1276
 6889W        W11089   6.378   6.204  10.374 -0.3018  0.1558 -0.0386
 6890W        W11090   8.352   6.845   3.911 -0.0230  0.1916  0.1858
 6891W        W11091   0.193   3.918  10.229  0.0526  0.0901 -0.1287
 6892W        W11092   2.286   9.340   1.746 -0.2935 -0.0188  0.0676
 6893W        W11093   5.102   1.064   1.410  0.0902  0.4066  0.0484
 6894W        W11094   3.239   7.897  11.549  0.4385 -0.1557  0.0600
 6895W        W11095   0.095   3.421   9.460  0.0850 -0.1912 -0.4317
 6896W        W11096   5.967   6.796  11.852 -0.1564  0.0550 -0.1060
 6897W        W11097   2.810   6.253  13.148  0.3351 -0.4012 -0.0731
 6898W        W11098   3.799   1.453   5.167 -0.3719  0.1526  0.1812
 6899W        W11099   8.428   7.754   3.559  0.0089  0.1402 -0.1301
 6900W        W11100   8.876   7.389   0.965 -0.0570  0.1105 -0.1400
 6901W        W11101   0.203   9.022   0.952  0.0297 -0.3019  0.1023
 6902W        W11102   6.921   7.159   1.881 -0.4076 -0.1079 -0.1835
 6903W        W11103   5.275   5.343   1.135  0.0247 -0.0031 -0.1977
 6904W        W11104   5.267   7.407  11.702  0.0066 -0.3136  0.1795
 6905W        W11105   7.474   2.405  10.319 -0.0106 -0.0547 -0.1410
 6906W        W11106   2.306   8.103  10.550 -0.2905  0.2181 -0.2288
 6907W        W11107   2.643   2.943   2.999 -0.0272  0.1290  0.1301
 6908W        W11108   0.110   6.176  12.315  0.2093 -0.0026  0.2512
 6909W        W11109   3.292   5.537  12.802 -0.3767 -0.0845  0.0166
 6910W        W11110   1.317   2.702  10.130 -0.3300 -0.0657  0.0500
 6911W        W11111   0.706   1.899  12.203  0.1444 -0.1359 -0.0826
 6912W        W11112   2.324   8.981   2.130 -0.1695  0.1273  0.0967
 6913W        W11113   5.513   9.025  10.901 -0.1484 -0.2303  0.1259
 6914W        W11114   3.694   2.965   1.401  0.0910 -0.2146 -0.0090
 6915W        W11115   0.106   6.464   1.246 -0.0117 -0.0774 -0.3359
 6916W        W11116   6.499   2.850   5.027  0.0445 -0.1072  0.0088
 6917W        W11117   5.501   3.981  10.935 -0.1415  0.1045  0.0597
 6918W        W11118   8.561   4.000   4.293 -0.5013 -0.1577 -0.5081
 6919W        W11119   6.714   7.144   0.844  0.1701 -0.0513 -0.0211
 6920W        W11120   2.830   8.682   0.739 -0.3359 -0.1080  0.0127
 6921W        W11121   4.362  10.021  10.777 -0.1036 -0.1740  0.1913
 6922W        W11122   1.345   8.789  11.350 -0.0621  0.0014 -0.0135
 6923W        W11123   9.679   4.683  10.280  0.0948 -0.0725 -0.0437
 6924W        W11124   3.804   3.744  11.309 -0.1775 -0.0285  0.3908
 6925W        W11125   4.384   0.875   8.925 -0.2099 -0.0179  0.1251
 6926W        W11126   8.031  10.347  10.453  0.2186 -0.1233 -0.0782
 6927W        W11127   4.849   1.073   1.006  0.1591  0.2077 -0.0418
 6928W        W11128   1.040   1.242   0.902  0.2924  0.0305  0.0971
 6929W        W11129   0.037   4.921   9.944 -0.2275  0.0576 -0.1539
 6930W        W11130   1.394   6.776  12.066  0.0785  0.1289 -0.0196
 6931W        W11131   4.964   0.822  11.416  0.0706  0.1404 -0.1297
 6932W        W11132  10.111   1.449  11.540 -0.1142  0.1189  0.2824
 6933W        W11133   4.174  10.052   1.559 -0.2049  0.2278 -0.0515
 6934W        W11134   5.938   4.818   4.389  0.0492 -0.0133  0.0186
 6935W        W11135   0.539   2.096   4.241  0.2276  0.1459  0.0217
 6936W        W11136   5.401   6.300  13.045  0.3497  0.0797 -0.0519
 6937W        W11137   4.704   7.020   1.786  0.1180  0.3511  0.0022
 6938W        W11138   9.435   7.897  10.810 -0.0701 -0.0540 -0.0126
 6939W        W11139   7.614   8.726  11.377  0.3375 -0.1606  0.3102
 6940W        W11140   2.224   6.526   3.996  0.3821 -0.1541  0.2945
 6941W        W11141   8.577   6.631  12.776 -0.1940 -0.0374  0.1369
 6942W        W11142   7.975   8.932  10.222  0.0758 -0.0235 -0.0058
 6943W        W11143   7.902   7.446   9.304  0.2002 -0.1816  0.0674
 6944W        W11144  10.043   8.219   2.948 -0.1801 -0.4795 -0.0613
 6945W        W11145   0.086  10.224   1.483  0.1606 -0.1178 -0.1358
 6946W        W11146   6.350   7.832   2.050 -0.0849  0.0007 -0.4966
 6947W        W11147   1.804   9.412  11.441  0.0165  0.2191 -0.0743
 6948W        W11148   9.143   5.763   4.456  0.1257  0.1226 -0.1750
 6949W        W11149   5.588   5.622  11.915  0.0780  0.3506 -0.1677
 6950W        W11150   6.077   8.851  11.543 -0.2289  0.2206 -0.1134
 6951W        W11151   6.815   7.206   2.954  0.0256 -0.0127 -0.0792
 6952W        W11152   4.777   7.508   1.625 -0.2497  0.2569  0.1397
 6953W        W11153   5.062   5.597   1.579 -0.0373  0.0606 -0.1873
 6954W        W11154   0.085   3.534   8.352 -0.0037 -0.0314  0.1246
 6955W        W11155   3.444   3.761  11.740  0.0550 -0.0158 -0.0823
 6956W        W11156   7.970   7.121   1.047 -0.0704 -0.0366  0.0227
 6957W        W11157   0.019   2.032   3.998  0.1639  0.2289  0.2477
 6958W        W11158   7.445   4.989   1.828 -0.3263  0.0872  0.0500
 6959W        W11159   6.814   0.381  12.554  0.3210 -0.4140  0.2736
 6960W        W11160   2.354   1.353   9.962  0.1294  0.0219 -0.2503
 6961W        W11161   3.967   9.658   4.664  0.2936  0.0736  0.1065
 6962W        W11162   4.721   0.397   1.456  0.0860 -0.0759 -0.2062
 6963W        W11163   7.793   7.908  11.476 -0.0194 -0.1329  0.2134
 6964W        W11164   2.955   3.538   1.655 -0.0706 -0.1643 -0.3041
 6965W        W11165   4.340   0.941  12.006  0.0514  0.1227 -0.2191
 6966W        W11166   3.356   8.906   2.190 -0.0271 -0.1479 -0.2027
 6967W        W11167  10.362   8.492  13.351 -0.1356  0.2966 -0.2450
 6968W        W11168   5.518   9.773   2.367 -0.0623 -0.2537 -0.1636
 6969W        W11169   8.899   1.529   4.734  0.3516  0.1668  0.0112
 6970W        W11170   1.616   7.635   2.884  0.2673 -0.2339 -0.0000
 6971W        W11171   2.085   9.654  13.432  0.0732  0.2658 -0.0130
 6972W        W11172   5.572   3.455  12.494  0.0199  0.1599  0.1107
 6973W        W11173  10.123   0.210  12.853 -0.1178 -0.1648  0.3028
 6974W        W11174   3.288   3.144   9.671 -0.0430  0.2924 -0.2004
 6975W        W11175   6.476   4.729   3.425  0.2131  0.1103  0.1245
 6976W        W11176   7.498   8.359  10.212  0.0290 -0.1802  0.0730
 6977W        W11177   6.834   4.939   9.568 -0.4167  0.1087 -0.0145
 6978W        W11178   2.542   4.500  13.248  0.1109  0.1689  0.0974
 6979W        W11179   6.816   5.937  11.163 -0.4813 -0.2495 -0.3507
 6980W        W11180   9.651   2.860   2.181  0.2000  0.0453  0.2533
 6981W        W11181   1.023   1.922  12.634 -0.0243 -0.1700  0.0188
 6982W        W11182   8.133   2.038   9.561 -0.0785 -0.1810 -0.1515
 6983W        W11183   9.743   2.325   9.145 -0.0659  0.2654  0.1358
 6984W        W11184   3.612   7.447  12.643  0.0429 -0.2013 -0.0928
 6985W        W11185   0.421   3.868   0.870 -0.2224 -0.0895  0.1543
 6986W        W11186   5.316   4.428  10.228 -0.5378  0.0658 -0.3650
 6987W        W11187   8.799   6.374   9.680 -0.4873 -0.0862  0.2262
 6988W        W11188   0.256   1.249   1.983 -0.0877  0.4254 -0.2788
 6989W        W11189   9.191   8.935   1.386  0.1411 -0.1259  0.0975
 6990W        W11190   1.572   1.881   3.349  0.4550 -0.1740 -0.1481
 6991W        W11191   1.885   5.485  12.380 -0.2478  0.0405  0.1098
 6992W        W11192   0.913   9.664   2.288 -0.0774  0.1149 -0.1866
 6993W        W11193   4.083   4.996  11.359  0.0698  0.0634  0.2209
 6994W        W11194   4.185   1.055   1.167  0.0934 -0.0606  0.2840
 6995W        W11195   3.910   5.468  11.947 -0.0195 -0.0311 -0.2477
 6996W        W11196   0.316   8.291  11.841  0.1195  0.1040  0.0494
 6997W        W11197   4.997   6.724   3.493  0.0499  0.2122  0.0341
 6998W        W11198   6.643   4.506  13.005  0.0870  0.1166 -0.1376
 6999W        W11199   6.379   3.302   4.263 -0.1700  0.1221 -0.2144
 7000W        W11200   4.015   2.501   3.356  0.1591 -0.2686  0.0547
 7001W        W11201   1.785   2.696   1.454 -0.0126 -0.0815 -0.1896
 7002W        W11202   0.111   6.538  10.806  0.3486  0.0242  0.0363
 7003W        W11203   7.250   3.662   1.698  0.0928 -0.2879 -0.1286
 7004W        W11204   9.907   6.486   2.547 -0.0448  0.3686 -0.2152
 7005W        W11205   9.045   5.682  11.586  0.1682  0.1258  0.2650
 7006W        W11206   4.653   3.369  10.939  0.0893  0.2161 -0.1945
 7007W        W11207   5.113   1.027   2.529 -0.0977 -0.0060 -0.1440
 7008W        W11208   2.829   1.945  12.430  0.1123 -0.1337 -0.0162
 7009W        W11209   8.398   9.199   1.810  0.2198 -0.0960 -0.2391
 7010W        W11210   0.849   3.088   2.657  0.0220  0.0862 -0.0959
 7011W        W11211   1.709   1.436  10.035 -0.1330  0.1617  0.2055
 7012W        W11212   2.302   7.370   0.116  0.1291  0.1806 -0.1246
 7013W        W11213   8.056   3.887   2.707 -0.0029 -0.1557 -0.1695
 7014W        W11214   1.763   3.415   2.908 -0.2418  0.1264 -0.1430
 7015W        W11215   4.473   8.671  10.568 -0.0135 -0.2314  0.1606
 7016W        W11216   5.411   7.396  13.033  0.0261 -0.0704 -0.1058
 7017W        W11217  10.133   3.506  10.618 -0.1539 -0.0515  0.1714
 7018W        W11218   2.795   4.487   0.300 -0.0638  0.1106  0.2696
 7019W        W11219   1.836   7.302   0.367 -0.0312  0.2597 -0.1937
 7020W        W11220   5.425   3.973  12.415 -0.0631 -0.0322 -0.0452
 7021W        W11221   6.976   9.056   1.046  0.2530  0.0977 -0.3249
 7022W        W11222   0.030   5.683  11.275  0.0022  0.0693  0.2173
 7023W        W11223   2.262   6.775   1.819  0.2472 -0.2778 -0.0922
 7024W        W11224   7.673   2.178   9.927  0.0620  0.0193  0.2006
 7025W        W11225   8.905   0.719   9.266  0.1236 -0.2823  0.0629
 7026W        W11226   6.373  10.209   9.337 -0.0262  0.2225 -0.0030
 7027W        W11227   7.529   6.698  11.895  0.0328 -0.0165 -0.1628
 7028W        W11228   4.691   2.234   3.019  0.0175 -0.0864 -0.1261
 7029W        W11229   2.389   4.148   4.095 -0.1761 -0.1490 -0.6346
 7030W        W11230   7.277   3.721  11.493 -0.2147 -0.3446  0.1096
 7031W        W11231   6.555   1.928   3.651  0.1455  0.1049 -0.0883
 7032W        W11232   3.161   3.489  10.660 -0.3424 -0.1521  0.1853
 7033W        W11233   0.225   3.658  11.803  0.2425  0.0926 -0.0705
 7034W        W11234   4.431   7.745  10.571 -0.0410  0.3090 -0.1196
 7035W        W11235   3.596   5.836   2.603  0.1388  0.1190  0.0430
 7036W        W11236   8.128   1.921  10.562  0.1755 -0.3356  0.1329
 7037W        W11237   8.346   1.390   8.928  0.0078  0.1243  0.0597
 7038W        W11238   4.518   2.260   5.197 -0.0526  0.0140 -0.1517
 7039W        W11239   7.520   8.623  12.344 -0.0667 -0.2279 -0.4057
 7040W        W11240   9.567   5.268  11.133  0.2271 -0.2316 -0.1973
 7041W        W11241   6.414   3.215  13.082  0.3105 -0.0097  0.0814
 7042W        W11242   6.192   5.028   3.767 -0.1805  0.1429 -0.0566
 7043W        W11243   3.274  10.165   3.276 -0.3327  0.2315 -0.1053
 7044W        W11244   6.108   4.216   2.838  0.1404 -0.0492 -0.0411
 7045W        W11245  10.290   7.492  13.132  0.0299 -0.1202 -0.1258
 7046W        W11246   5.863   9.601   5.039 -0.0836 -0.1412  0.0505
 7047W        W11247   3.308   1.857  12.150  0.1852 -0.4352  0.0354
 7048W        W11248   0.610   3.909   3.842  0.0635 -0.1574 -0.0031
 7049W        W11249   5.525   3.062   0.238 -0.0838  0.0285 -0.1476
 7050W        W11250   6.649   2.836  13.319 -0.0387 -0.0428 -0.2137
 7051W        W11251   5.871   9.053  13.059 -0.1242  0.2524  0.1290
 7052W        W11252   7.070   9.925   3.062  0.4667 -0.1295 -0.1974
 7053W        W11253   9.931   1.791   3.801 -0.2123 -0.0271 -0.0719
 7054W        W11254   5.956   3.369   2.844  0.3030 -0.1222  0.5219
 7055W        W11255   7.972   1.739   2.480  0.2088  0.0522  0.0978
 7056W        W11256   8.796   3.775   2.965  0.0943  0.3317  0.2069
 7057W        W11257   5.392   7.956   2.287 -0.0775 -0.2017 -0.2430
 7058W        W11258   8.869   4.681   3.702 -0.2000  0.1576 -0.1497
 7059W        W11259   8.154   4.763   2.916 -0.1364 -0.0361 -0.0336
 7060W        W11260   7.458   4.845   0.882  0.1601  0.2063  0.3374
 7061W        W11261   0.932   1.282  10.840 -0.0843 -0.5172 -0.0896
 7062W        W11262   9.571   3.281   3.866  0.1580 -0.2954 -0.1795
 7063W        W11263   7.221   8.774   0.749 -0.1929  0.2247 -0.1992
 7064W        W11264   4.886   7.486   4.088  0.0248 -0.2856  0.1811
 7065W        W11265   0.705   5.973  11.143 -0.3270  0.0783 -0.5231
 7066W        W11266   6.798   8.910  10.866 -0.0717 -0.1427 -0.1112
 7067W        W11267   9.617   4.557   2.884 -0.1935  0.0440  0.2619
 7068W        W11268   2.982   6.420   4.302  0.1960 -0.2880 -0.0614
 7069W        W11269   4.837   8.217   3.414  0.1192  0.1725 -0.2210
 7070W        W11270   6.345   9.265  11.549  0.1759  0.0221 -0.2119
 7071W        W11271   7.954   1.299   0.756  0.0538  0.2667  0.1746
 7072W        W11272   0.980   5.050   1.747 -0.1328  0.3924  0.1174
 7073W        W11273   6.030   7.905  10.117  0.0795 -0.0903  0.0634
 7074W        W11274   5.703   7.083   2.056  0.0047  0.0626  0.0980
 7075W        W11275   2.835  10.093   2.455 -0.2766  0.1210  0.0810
 7076W        W11276   9.012   6.416  13.151  0.0186  0.1868  0.1460
 7077W        W11277   0.699   0.215  10.853 -0.2406  0.3762  0.0635
 7078W        W11278   9.790   9.733   9.888 -0.0485 -0.1178 -0.0250
 7079W        W11279   3.536   0.835   2.823  0.1274  0.2663 -0.0531
 7080W        W11280   4.753  10.130   8.525 -0.1261  0.1618  0.2829
 7081W        W11281   9.853   0.904   1.022  0.1936  0.4216  0.2851
 7082W        W11282   5.450   7.245   2.929  0.0597  0.1355  0.1283
 7083W        W11283   4.427   9.889  13.064 -0.1762  0.2615  0.2788
 7084W        W11284   7.255   7.088   2.588  0.1688  0.0904  0.1242
 7085W        W11285   4.809   2.638  11.526  0.1808 -0.3280  0.0141
 7086W        W11286   8.256   3.986  12.460  0.2309 -0.1657  0.0323
 7087W        W11287   2.317   0.952  10.518 -0.0180 -0.0547 -0.0446
 7088W        W11288   1.209   9.268  11.062 -0.2734 -0.1945  0.0365
 7089W        W11289   5.378   0.023  12.054 -0.1721 -0.2757  0.0063
 7090W        W11290   9.728   4.225   3.742  0.1620  0.0077 -0.1211
 7091W        W11291   7.860   9.477  12.955  0.0529  0.0656  0.2781
 7092W        W11292   3.463   7.857   4.010 -0.1080 -0.0228 -0.0579
 7093W        W11293   2.677   4.520   1.472 -0.1802  0.1121  0.1119
 7094W        W11294   1.173   3.786  12.247 -0.1600  0.1113  0.1572
 7095W        W11295   6.770   8.754   0.397  0.0072 -0.2048 -0.0111
 7096W        W11296   7.593   2.080   2.438 -0.2037  0.2160  0.1881
 7097W        W11297   8.848   7.158   1.431 -0.3902  0.2380 -0.0096
 7098W        W11298   1.266   3.470   9.446  0.1571  0.1500 -0.0583
 7099W        W11299   6.003   9.804   2.733  0.2960 -0.1379  0.0198
 7100W        W11300   8.920   2.591   8.705  0.0515  0.1463 -0.2398
 7101W        W11301   4.318   8.481  10.085 -0.2273 -0.0718 -0.1915
 7102W        W11302   2.943   4.330  12.196 -0.1000 -0.0833  0.1053
 7103W        W11303  10.372   7.686   2.233 -0.1912  0.0748  0.1689
 7104W        W11304   6.541   3.029   2.022 -0.1777  0.0934 -0.0474
 7105W        W11305   0.968   3.949   0.122 -0.1621 -0.1362 -0.1032
 7106W        W11306   8.216   5.267   9.980 -0.1799 -0.0341  0.0802
 7107W        W11307   8.911   6.788   2.205  0.1407  0.0987  0.2631
 7108W        W11308   8.727   1.753   9.035  0.2527  0.0027 -0.2253
 7109W        W11309   2.065  10.113   1.498  0.0915 -0.0271  0.2599
 7110W        W11310   6.496   6.390   4.338 -0.1162 -0.1786 -0.2002
 7111W        W11311   5.834   6.083  13.101  0.0186  0.1277 -0.0118
 7112W        W11312   1.411   2.989   9.300 -0.0857  0.1671  0.0357
 7113W        W11313   0.570   6.463   2.843  0.1202  0.2675  0.0497
 7114W        W11314   4.540   0.745  13.290 -0.1041 -0.0167 -0.0982
 7115W        W11315   2.205   4.695   2.560  0.1691  0.0302 -0.0201
 7116W        W11316   0.423   3.001   4.441  0.0904 -0.3206 -0.1131
 7117W        W11317   4.675   8.640  10.995  0.0720 -0.0707 -0.1335
 7118W        W11318  10.339   8.548   0.376 -0.0932 -0.0370  0.0215
 7119W        W11319   4.256   8.981  10.194 -0.0448 -0.0261  0.0069
 7120W        W11320   9.532   5.440  10.688 -0.0792  0.0018  0.1533
 7121W        W11321   2.161   5.257  11.090 -0.1390  0.3548  0.0046
 7122W        W11322   6.530   3.138  10.625  0.1360 -0.0322 -0.2507
 7123W        W11323   6.275   6.357   0.687 -0.1734  0.2457  0.1721
 7124W        W11324   5.064   6.944   8.915  0.1075 -0.1061 -0.1558
 7125W        W11325   4.414   3.437  11.636  0.2810 -0.1768  0.0140
 7126W        W11326   8.865   6.117  12.723  0.1273 -0.0043 -0.1086
 7127W        W11327   0.690   1.813   3.202  0.2045  0.3357  0.0581
 7128W        W11328   4.195   4.361   4.400 -0.0525 -0.1014  0.0649
 7129W        W11329   2.980   5.610   9.972 -0.1169 -0.0137 -0.2018
 7130W        W11330   7.654   6.500  12.962  0.0553 -0.3144 -0.0813
 7131W        W11331   5.685   0.412   4.560 -0.1191  0.0588  0.0916
 7132W        W11332   6.890   5.351   2.625 -0.2019  0.2574  0.1799
 7133W        W11333   5.559   2.520  13.260 -0.2081 -0.3668 -0.1096
 7134W        W11334   7.665   3.794   9.917  0.0086  0.2392  0.2081
 7135W        W11335   2.400   5.312   0.739  0.0095 -0.0795 -0.1547
 7136W        W11336   0.741   4.183   1.834 -0.0759 -0.0509 -0.1293
 7137W        W11337   1.005   7.227   3.560 -0.0270  0.2952 -0.2136
 7138W        W11338   1.646   9.664   0.649  0.2292  0.2853  0.0508
 7139W        W11339   1.390   1.095  11.062 -0.0459  0.2014  0.0486
 7140W        W11340   0.817   6.393   1.894  0.2863 -0.2780 -0.1173
 7141W        W11341   6.781   5.314  10.570  0.0340 -0.0898  0.2114
 7142W        W11342   2.140   2.997  10.223 -0.2428  0.0638  0.1288
 7143W        W11343   7.856   8.715   1.405 -0.2656 -0.1382  0.2631
 7144W        W11344   4.946   3.231  10.531 -0.1197 -0.0058 -0.1188
 7145W        W11345   5.965   1.153  13.168  0.1818 -0.0365 -0.1937
 7146W        W11346   5.853   8.400  12.225 -0.0136 -0.2100 -0.0124
 7147W        W11347   8.379   7.699   0.372  0.0391 -0.0751 -0.0754
 7148W        W11348   7.144   9.115  10.541 -0.0327 -0.1196  0.3030
 7149W        W11349  10.262   2.392   9.825  0.1031 -0.1579 -0.0148
 7150W        W11350   1.776   6.477   2.368 -0.0920 -0.0893  0.0202
 7151W        W11351   1.928   5.241   0.812  0.0341 -0.2464 -0.0101
 7152W        W11352   0.431   6.658  13.046  0.2927 -0.0050  0.0022
 7153W        W11353   4.550   4.866  11.475 -0.2539 -0.0640 -0.0767
 7154W        W11354   2.645   7.713   0.312 -0.1482 -0.0142 -0.2910
 7155W        W11355   4.005   5.537   2.495 -0.2416  0.1933 -0.0034
 7156W        W11356  10.058   6.054   2.322 -0.3836  0.2976 -0.2860
 7157W        W11357   7.242   4.205   2.956 -0.4085  0.2720  0.3972
 7158W        W11358   1.962   4.819  10.961  0.1086  0.0175 -0.1173
 7159W        W11359   0.243   2.668   0.463 -0.5829 -0.1723 -0.0869
 7160W        W11360   5.486   9.981  12.057  0.1730 -0.1077  0.1768
 7161W        W11361   6.253   9.509   3.025 -0.2105  0.3529 -0.3988
 7162W        W11362   6.065   3.703   0.748  0.0367 -0.3750  0.2053
 7163W        W11363   8.532   0.569   3.786  0.0294  0.2231 -0.0765
 7164W        W11364   7.412   4.480  10.206  0.1375 -0.1652 -0.1894
 7165W        W11365   6.653   6.251  11.576 -0.3198 -0.2441  0.2009
 7166W        W11366   9.088   1.066   1.948 -0.0255  0.1818  0.0217
 7167W        W11367   1.070   1.575  10.397  0.4816 -0.3288  0.0333
 7168W        W11368   3.335   1.654   0.454  0.0112  0.2898  0.1685
 7169W        W11369   7.882   3.235   9.736 -0.0064  0.1458  0.4463
 7170W        W11370   4.313   7.869  11.524  0.1826 -0.0586  0.0891
 7171W        W11371   5.109   3.822  11.704 -0.1703  0.0383  0.0325
 7172W        W11372   2.415   4.822   1.827  0.3130 -0.1286  0.0049
 7173W        W11373   3.148   6.060  11.002  0.0106 -0.1393 -0.0589
 7174W        W11374   4.074   0.242   3.216 -0.1707  0.0344 -0.2377
 7175W        W11375   3.801   8.714  10.332  0.1645  0.1545 -0.2264
 7176W        W11376   9.079   4.886   4.172 -0.0965  0.1175 -0.0199
 7177W        W11377   1.200   1.280   9.995 -0.0759 -0.0651 -0.0575
 7178W        W11378   2.830   9.921  12.552  0.3596  0.1569 -0.1449
 7179W        W11379   8.861   6.557  11.792 -0.3521 -0.3412 -0.0098
 7180W        W11380   0.536   2.997  13.052 -0.2366  0.2977  0.0621
 7181W        W11381   2.462   1.662  11.748 -0.1207  0.0179 -0.1396
 7182W        W11382   5.213   5.825   3.981 -0.2414  0.4580 -0.0710
 7183W        W11383   2.062   0.573   1.698  0.2693 -0.0426  0.1213
 7184W        W11384   8.665   9.200   4.849 -0.0115 -0.0526 -0.4332
 7185W        W11385   0.824   3.763  10.554  0.3209 -0.1700 -0.2016
 7186W        W11386   7.673   1.641   8.497  0.0749 -0.0229 -0.3591
 7187W        W11387   3.830   4.156  12.605 -0.0949 -0.0682  0.0139
 7188W        W11388   3.427   0.399   3.872 -0.2193  0.0783  0.0916
 7189W        W11389   2.155   9.668  11.885 -0.1205 -0.0261  0.0381
 7190W        W11390   6.113   7.544   3.890  0.2790 -0.2295  0.0227
 7191W        W11391   4.870   9.524   1.703  0.1482 -0.0184 -0.0401
 7192W        W11392   1.112   9.418   0.805  0.0985  0.0185 -0.2944
 7193W        W11393   4.692   7.305   4.698  0.0727  0.1876 -0.0891
 7194W        W11394   3.049   3.646   3.330 -0.0602 -0.1695 -0.0210
 7195W        W11395   6.941   3.585   9.281 -0.3229  0.0180 -0.1086
 7196W        W11396   0.383   5.621   2.263 -0.2251  0.3051 -0.0310
 7197W        W11397   6.865   0.250   1.354 -0.1335  0.2049  0.1848
 7198W        W11398   3.271   8.696  12.241 -0.5226 -0.0106 -0.1965
 7199W        W11399   6.605   5.797   9.551 -0.1776  0.1202  0.0496
 7200W        W11400   8.697   2.569   2.711  0.2844  0.0816 -0.0468
 7201W        W11401   5.434   0.440  12.938  0.2178  0.2388 -0.0347
 7202W        W11402   9.486   9.122   9.429 -0.2393  0.0537  0.0312
 7203W        W11403   8.321   4.653   0.152 -0.2846  0.1271 -0.1345
 7204W        W11404   1.494   2.008   3.954  0.0000  0.0258 -0.0067
 7205W        W11405   6.158   0.021   2.966  0.1608  0.3083  0.1437
 7206W        W11406   2.218   2.055   0.569  0.0885 -0.0861  0.3944
 7207W        W11407   0.344  10.062  13.394 -0.0726 -0.2026 -0.0507
 7208W        W11408   7.200   2.324   0.203  0.0166 -0.1862  0.4472
 7209W        W11409   4.291   2.845   4.644 -0.1446 -0.1169  0.0569
 7210W        W11410   0.936   9.771  11.025 -0.0411 -0.4467 -0.1987
 7211W        W11411   6.864   0.420   9.911 -0.1712 -0.0067 -0.1487
 7212W        W11412   6.499   3.987   2.351 -0.0546 -0.0774  0.3942
 7213W        W11413   4.187  10.256   9.206  0.2106 -0.0429 -0.0261
 7214W        W11414   4.498   9.379   0.848  0.2765  0.0245 -0.0890
 7215W        W11415   5.960   5.330   0.360  0.1416  0.0750 -0.3347
 7216W        W11416   9.031   1.532  11.850 -0.0766  0.0758  0.1482
 7217W        W11417   9.166   6.164   0.640  0.1381 -0.3436 -0.1017
 7218W        W11418   7.610   5.744   3.680  0.0815  0.1101 -0.0263
 7219W        W11419   6.746   1.652   9.284  0.3456  0.1139 -0.2839
 7220W        W11420   5.724   7.795   3.649 -0.2368 -0.0354 -0.0570
 7221W        W11421   1.401   0.482  10.425 -0.1148 -0.1259 -0.0066
 7222W        W11422   3.880   0.884  11.946  0.0147  0.0546  0.2049
 7223W        W11423   9.392   7.308   9.624  0.0710 -0.0386 -0.0023
 7224W        W11424   7.152   2.866  10.061  0.1624  0.1066 -0.2004
 7225W        W11425   9.713   1.952  12.448 -0.0495 -0.1217  0.0061
 7226W        W11426   4.053   4.555  11.595  0.2901 -0.0674  0.2441
 7227W        W11427  10.378   7.277  12.690  0.1439 -0.2881 -0.1364
 7228W        W11428   0.257   1.596   4.134 -0.4202 -0.0248 -0.2633
 7229W        W11429   9.512   8.976   0.553  0.1603  0.0432  0.2838
 7230W        W11430   8.275  10.401   0.436 -0.0902  0.3362 -0.2384
 7231W        W11431   7.540   5.321   4.770  0.1545 -0.3410  0.1206
 7232W        W11432   7.530   0.208   4.546  0.0493 -0.1782 -0.1794
 7233W        W11433   3.431   1.611   3.462 -0.4608  0.0863  0.1251
 7234W        W11434   2.340   1.166  12.921 -0.0548 -0.2102 -0.0807
 7235W        W11435   1.768   6.284   1.124 -0.0211  0.1707  0.0730
 7236W        W11436   8.181  10.068   9.036 -0.0415  0.0973 -0.1606
 7237W        W11437   7.199   6.958   3.122  0.1759  0.0959  0.1943
 7238W        W11438   4.963   7.082  12.972  0.2076 -0.0084  0.1008
 7239W        W11439   4.370   7.524   3.124 -0.1493  0.3014 -0.2967
 7240W        W11440   4.232   9.230   0.482 -0.0413  0.1236 -0.2785
 7241W        W11441   1.779   4.498   0.217  0.2516 -0.3413 -0.1553
 7242W        W11442   0.789   0.909  12.192 -0.1870 -0.1003  0.0858
 7243W        W11443   7.490   5.316   3.344  0.0980 -0.0609 -0.0036
 7244W        W11444   2.909   8.300  11.544  0.0489  0.2526 -0.2473
 7245W        W11445   2.614   4.251   8.267 -0.0208 -0.1788  0.3255
 7246W        W11446   4.126  10.245  13.243  0.1136  0.3607  0.3554
 7247W        W11447   7.855  10.111   2.970  0.0077  0.1985 -0.0450
 7248W        W11448   3.065   9.895  11.744 -0.1182 -0.4329 -0.0606
 7249W        W11449   8.806   2.188  12.093 -0.4259  0.1932  0.0578
 7250W        W11450   3.383   4.615  11.539  0.0746 -0.3310  0.1026
 7251W        W11451   8.638   4.444  12.590  0.0234 -0.1738  0.0646
 7252W        W11452   8.413   1.181   0.028  0.1910  0.0305  0.0316
 7253W        W11453   4.515   4.654   4.119 -0.2462 -0.3762  0.1214
 7254W        W11454   2.767   8.103  13.402 -0.5183  0.1121 -0.0749
 7255W        W11455   7.029   5.859  12.468  0.1392  0.2595 -0.0347
 7256W        W11456   8.049   3.425   0.569  0.0033  0.0833  0.3017
 7257W        W11457   7.306   9.520  13.144  0.1304 -0.2387 -0.0262
 7258W        W11458   9.630   0.566   9.798 -0.1579  0.1572  0.1878
 7259W        W11459   9.598   2.812  12.144  0.0258  0.0822 -0.1047
 7260W        W11460   4.400   8.327  11.754 -0.4794 -0.0927 -0.2842
 7261W        W11461   6.939   0.084   8.249 -0.1201 -0.0800  0.1050
 7262W        W11462   2.307   2.490   3.829 -0.0111 -0.2882 -0.0505
 7263W        W11463   3.421   6.238   4.153  0.3302 -0.0878  0.0444
 7264W        W11464   9.565   8.492   0.328 -0.1413 -0.0307 -0.2713
 7265W        W11465   5.900   6.055   0.197 -0.1977 -0.1777 -0.0890
 7266W        W11466   5.993   0.903   3.755 -0.1809 -0.0638  0.0236
 7267W        W11467   7.580   4.553   2.187 -0.0692 -0.1665 -0.1129
 7268W        W11468   2.132   1.643  12.741 -0.2049 -0.1266  0.0830
 7269W        W11469   8.398   1.660   9.773 -0.0106  0.0211  0.0537
 7270W        W11470   8.612   3.910  10.416 -0.3415 -0.1758 -0.1129
 7271W        W11471  10.042   2.736  10.877 -0.1589 -0.3560  0.1522
 7272W        W11472   5.214   2.286   3.657 -0.0824 -0.1956 -0.1336
 7273W        W11473   2.625   1.021  13.396 -0.1122 -0.0732  0.0502
 7274W        W11474   6.467  10.428  11.290  0.1272  0.1118  0.1031
 7275W        W11475   2.445   0.516  10.788 -0.3829 -0.3540 -0.1554
 7276W        W11476   4.097   8.082  12.475  0.0908  0.1911  0.1708
 7277W        W11477   4.731   8.225  11.339 -0.0499 -0.1666  0.1155
 7278W        W11478   1.951   2.682   3.504 -0.2316 -0.3453  0.1411
 7279W        W11479   5.523   0.915   1.139  0.0999  0.1080  0.4198
 7280W        W11480   3.858   5.932   4.373  0.1674 -0.2201 -0.1743
 7281W        W11481   9.913   2.541   2.552 -0.0238 -0.2562 -0.2986
 7282W        W11482   6.084   0.425   2.551 -0.3617  0.0955 -0.0909
 7283W        W11483   6.353   8.258   2.346 -0.1466 -0.3907  0.0434
 7284W        W11484   3.838   2.720   4.917  0.0127 -0.1825  0.2630
 7285W        W11485   5.051   8.465   0.382  0.1068  0.1678 -0.0620
 7286W        W11486   1.808   4.175   4.594  0.0949 -0.0002  0.1240
 7287W        W11487   3.152   5.305   0.179 -0.3358  0.3045  0.0581
 7288W        W11488   6.277   5.495  10.426 -0.2809 -0.1586 -0.1484
 7289W        W11489   0.617   1.712   9.952  0.0039 -0.0227  0.0874
 7290W        W11490   4.207   0.092   2.613  0.1575 -0.2859 -0.2344
 7291W        W11491   7.158   6.969   0.518  0.2243  0.1165 -0.1035
 7292W        W11492   7.909   7.729   2.764 -0.1068  0.2559 -0.6116
 7293W        W11493   6.539   4.379  11.796 -0.2163  0.0174 -0.0105
 7294W        W11494   0.787   1.999   2.141 -0.0682 -0.1882  0.2856
 7295W        W11495   2.233   0.345  12.265 -0.2559 -0.1247  0.1037
 7296W        W11496   3.384   4.857  13.443 -0.0324  0.3196 -0.0093
 7297W        W11497   2.066   3.544  10.178 -0.0963  0.0782  0.0818
 7298W        W11498   9.793  10.455   3.869  0.0615 -0.1430 -0.2675
 7299W        W11499   0.739   9.261   2.522  0.3101  0.1145 -0.1272
 7300W        W11500   8.835   1.914   3.453 -0.2455  0.1275  0.4337
 7301W        W11501   8.077   2.559  12.438 -0.1012  0.1138 -0.0269
 7302W        W11502   4.760   5.178  12.997 -0.0998  0.2009 -0.1965
 7303W        W11503   1.781   6.970  10.179 -0.4294 -0.2870  0.0174
 7304W        W11504   7.639   7.364   1.327 -0.0202  0.2007 -0.2324
 7305W        W11505   7.649   0.744  13.357 -0.3275  0.0248  0.0344
 7306W        W11506   2.647   3.750   5.282  0.0357  0.0986  0.1775
 7307W        W11507   8.791   6.507  12.297 -0.3134  0.0749  0.0860
 7308W        W11508  10.069   5.198   2.270 -0.1494 -0.0906 -0.3267
 7309W        W11509   7.778   4.515   4.770  0.0175  0.1081  0.3210
 7310W        W11510   4.182   0.987   2.846  0.1004  0.0024 -0.0475
 7311W        W11511   9.517   3.403  11.280  0.0468  0.0636  0.2538
 7312W        W11512   5.178   2.172  12.284  0.0808 -0.0902  0.1380
 7313W        W11513   1.011   1.150  13.396 -0.0205  0.0167  0.0432
 7314W        W11514   7.383   7.835  12.852  0.2451  0.2073 -0.0068
 7315W        W11515   3.046  10.251   9.885 -0.0321  0.3555  0.5806
 7316W        W11516   0.808   4.662   1.462 -0.0409  0.0864  0.2683
 7317W        W11517   5.116   2.706   0.926  0.4096 -0.3675  0.4096
 7318W        W11518   1.144   0.330   2.564  0.1259 -0.0929 -0.2077
 7319W        W11519   6.633   9.717   3.286 -0.0698  0.0524  0.2351
 7320W        W11520   1.985   3.161   1.775 -0.0934 -0.1984 -0.2227
 7321W        W11521   7.327   5.814   4.097  0.1267  0.1345 -0.1713
 7322W        W11522   3.180   3.205  12.165  0.5343  0.0818 -0.1493
 7323W        W11523   2.813   8.397   3.769 -0.0570  0.1578  0.1730
 7324W        W11524   3.904   6.845   2.339 -0.1216  0.1859  0.0809
 7325W        W11525   3.949   3.136  10.255 -0.0998  0.0512  0.1720
 7326W        W11526   8.622   6.807  10.908 -0.1677  0.0520 -0.2046
 7327W        W11527   5.619   5.084   3.004 -0.4383 -0.3851  0.0477
 7328W        W11528   9.328   5.065  12.668 -0.0502 -0.0030 -0.0199
 7329W        W11529   7.138   8.063   5.331  0.1769 -0.3523  0.3876
 7330W        W11530   3.088   1.177  13.515 -0.2410 -0.2007 -0.1857
 7331W        W11531   4.340   7.101   3.691  0.0024  0.1915 -0.0850
 7332W        W11532   9.712   6.421   8.930  0.1561 -0.0101  0.0036
 7333W        W11533   6.630   2.813  12.196  0.0876 -0.0539  0.1844
 7334W        W11534   1.520   1.441   3.652 -0.2195  0.1071 -0.0100
 7335W        W11535   1.709   2.103   0.787  0.0277 -0.1463  0.0878
 7336W        W11536   5.199   3.308   1.802 -0.0137  0.2623 -0.1560
 7337W        W11537   2.541   2.438   2.084 -0.3160  0.0852  0.1321
 7338W        W11538   7.771   2.978  11.573  0.1213  0.4161 -0.0573
 7339W        W11539   6.060   6.179  12.594  0.2259 -0.1669  0.2305
 7340W        W11540   2.747   4.412   9.868 -0.3418 -0.1128 -0.1436
 7341W        W11541   5.970   5.662  11.571  0.0783 -0.0919  0.1832
 7342W        W11542   5.447   4.973  10.596 -0.4420 -0.1979  0.2519
 7343W        W11543   8.837   9.753   2.874  0.0103  0.4290  0.1080
 7344W        W11544   0.925   6.773   2.628 -0.0385  0.3930  0.0298
 7345W        W11545   8.475   7.421  10.672 -0.1404 -0.0809 -0.3096
 7346W        W11546   6.096   1.941  11.143 -0.0628 -0.3070 -0.3529
 7347W        W11547   8.798   5.516   2.161 -0.1724  0.2042 -0.0829
 7348W        W11548   0.536   1.703  12.758 -0.0075 -0.0249  0.0587
 7349W        W11549   3.868   8.974   2.288  0.1090  0.2600 -0.0596
 7350W        W11550   1.732   5.286   2.946 -0.0108 -0.3513 -0.2014
 7351W        W11551   3.467   7.893   0.479  0.0234 -0.0165 -0.0241
 7352W        W11552   2.167   1.785   2.594  0.1794 -0.1513  0.3064
 7353W        W11553  10.062   5.066  10.357  0.0015  0.0292  0.4647
 7354W        W11554   6.723   2.678  10.345  0.0013  0.2994  0.1396
 7355W        W11555   4.047   1.264   0.307  0.0607  0.1038 -0.0325
 7356W        W11556   9.896   5.679  11.916  0.2360 -0.0125  0.0610
 7357W        W11557   5.627   0.824  12.394  0.1032 -0.0830 -0.1777
 7358W        W11558   6.407   9.061  12.423 -0.0082  0.2479 -0.0401
 7359W        W11559   3.734  10.372  12.973  0.1307  0.0548  0.0925
 7360W        W11560   1.558   6.611  11.121  0.0495  0.0120  0.0371
 7361W        W11561  10.039   1.421   8.699  0.0056  0.0428 -0.0150
 7362W        W11562   5.866   8.683  11.029 -0.0159 -0.2911 -0.1175
 7363W        W11563   5.948   4.783   2.814 -0.0619  0.3502  0.0480
 7364W        W11564  10.338   5.405  11.799  0.0666  0.1934 -0.2811
 7365W        W11565   0.951   5.746   1.188  0.2312 -0.4896 -0.1407
 7366W        W11566   5.082   5.363   4.227 -0.1059 -0.0408 -0.1182
 7367W        W11567   8.214   5.763  10.674  0.0213 -0.0156 -0.3094
 7368W        W11568   2.137   6.993   0.899  0.4148  0.0316 -0.2136
 7369W        W11569   5.586   7.142  11.945 -0.1690  0.2144 -0.0712
 7370W        W11570   7.328   7.044   1.549 -0.0046 -0.0071 -0.0712
 7371W        W11571   2.110   2.795  13.221  0.0740  0.0824 -0.0186
 7372W        W11572   9.725   1.197  11.311 -0.0086 -0.1405 -0.1472
 7373W        W11573   6.958   6.559  11.905  0.0484 -0.3279  0.1752
 7374W        W11574   8.463  10.332  12.417 -0.3107 -0.1043 -0.0968
 7375W        W11575   3.118   7.056   2.501 -0.2008  0.0520  0.0411
 7376W        W11576   1.393   2.087  11.599 -0.4564  0.0632 -0.3192
 7377W        W11577   7.908   8.661   0.325 -0.2116  0.2216 -0.2142
 7378W        W11578   8.238   7.051  10.457  0.1556 -0.1315  0.2196
 7379W        W11579   7.176   7.170  12.827 -0.3176  0.0153  0.0525
 7380W        W11580   5.227   6.307  12.542 -0.0706 -0.2325  0.1396
 7381W        W11581   1.243   8.057   2.957  0.0474 -0.1003  0.0509
 7382W        W11582   7.561   6.895   5.026 -0.2350  0.0655  0.1593
 7383W        W11583   9.884   2.276   3.302 -0.2988  0.0971 -0.1109
 7384W        W11584   5.235   7.971  11.424  0.0537  0.1237  0.0745
 7385W        W11585   6.166   6.435   4.892  0.2825  0.0941  0.2202
 7386W        W11586   6.902   7.149   3.567 -0.1839 -0.0207 -0.0923
 7387W        W11587   8.874   4.458  11.919  0.0462  0.3189 -0.1261
 7388W        W11588   6.531   1.301   1.095  0.2180 -0.1747 -0.1931
 7389W        W11589   7.298   3.412   2.158 -0.0654  0.0745 -0.1031
 7390W        W11590  10.399   4.476   1.210 -0.3925 -0.1448 -0.0394
 7391W        W11591  10.378   5.273  10.759  0.2964 -0.0918 -0.1388
 7392W        W11592   1.744   4.385  13.125  0.0637  0.0315  0.1716
 7393W        W11593   2.880   5.018   2.028 -0.2695  0.3970 -0.2215
 7394W        W11594   1.963   4.957   1.588 -0.2628 -0.1951 -0.2087
 7395W        W11595   6.790   3.172   4.479 -0.1679  0.0559  0.1687
 7396W        W11596   6.791   7.370   9.748 -0.2457 -0.0316  0.2670
 7397W        W11597   1.403   6.178  12.268  0.1685  0.0798  0.2431
 7398W        W11598   8.327   0.981   2.511  0.1392  0.5596  0.2366
 7399W        W11599   1.381   7.628   1.699 -0.3177 -0.0862 -0.0340
 7400W        W11600   9.168   3.339   5.707 -0.0645  0.5381 -0.0390
 7401W        W11601   1.447  10.409   2.665  0.3054 -0.2564  0.0882
 7402W        W11602   2.849   2.185   1.369  0.0444 -0.0680 -0.2385
 7403W        W11603   6.014   9.968  12.983 -0.0043  0.1880  0.1074
 7404W        W11604   3.210   2.205  12.581  0.1987  0.0955  0.3277
 7405W        W11605   4.370   0.352   0.732 -0.2875  0.2315  0.0172
 7406W        W11606   1.777   2.657   2.768  0.0698  0.1112  0.3010
 7407W        W11607   8.019   4.595   0.938  0.2882  0.0774 -0.2033
 7408W        W11608   1.893   6.883   3.770 -0.4163 -0.1963 -0.1658
 7409W        W11609   6.896   6.456   9.497  0.2537 -0.3187  0.2195
 7410W        W11610   9.847   3.278  12.121  0.4181  0.1652  0.2503
 7411W        W11611   0.742   8.338   0.339  0.0827  0.0189  0.0128
 7412W        W11612   9.753   7.298   1.547 -0.0612 -0.1206  0.1007
 7413W        W11613   6.315   6.233   9.532 -0.2161 -0.1400 -0.1330
 7414W        W11614   4.573   8.557   0.188 -0.1596 -0.1104 -0.0428
 7415W        W11615   4.866   4.036   0.454  0.1249 -0.0475  0.1608
 7416W        W11616   7.110   8.993   4.172  0.2396  0.0924  0.0577
 7417W        W11617   5.170   6.305   0.275  0.0282 -0.0876  0.1953
 7418W        W11618   7.598   5.253   3.880  0.2768 -0.1135 -0.0510
 7419W        W11619   6.537   2.418   3.358  0.0581  0.0859  0.2307
 7420W        W11620   7.990   2.560  11.173  0.1119  0.0866 -0.0213
 7421W        W11621   3.586   2.826   3.276 -0.2542  0.1149 -0.3025
 7422W        W11622   3.391   1.354   1.942 -0.1108 -0.0444 -0.0451
 7423W        W11623   8.998   6.670  10.568  0.0211 -0.0089 -0.0294
 7424W        W11624   7.897   3.052  11.097  0.0029  0.0567  0.1235
 7425W        W11625   6.751   3.531   2.536  0.4167  0.0961 -0.0379
 7426W        W11626   0.905  10.089  11.438  0.1223  0.0108  0.1802
 7427W        W11627   5.153   8.910  11.777 -0.1407  0.0345  0.0006
 7428W        W11628   5.540   1.504   3.130  0.1241  0.0001  0.2518
 7429W        W11629   5.735   4.441  13.477  0.4102 -0.0162  0.1809
 7430W        W11630   2.713   3.617   1.159  0.3674 -0.0170 -0.4419
 7431W        W11631   6.130   2.794  11.209  0.0551  0.2083  0.0005
 7432W        W11632   4.484   4.391  13.088 -0.1590 -0.0524 -0.1071
 7433W        W11633   7.663   7.275   5.361 -0.2455 -0.2704  0.0495
 7434W        W11634   3.408   7.060  11.128  0.1503  0.1917 -0.0923
 7435W        W11635   7.294   1.261   2.691  0.0325  0.2811 -0.0425
 7436W        W11636   4.488   7.720   0.557  0.0267 -0.0088 -0.1167
 7437W        W11637   4.749   2.454   3.809 -0.2529 -0.3901  0.1199
 7438W        W11638   6.576  10.300   0.997  0.1565  0.0553  0.0201
 7439W        W11639   5.414   3.309  11.704  0.0108 -0.0104  0.0646
 7440W        W11640   5.205   0.177   2.172  0.0181 -0.0583  0.0611
 7441W        W11641   8.456   3.658  12.036  0.2415  0.0913 -0.3113
 7442W        W11642   8.684   2.236   3.125  0.0589 -0.2414  0.0891
 7443W        W11643   7.624   3.510  10.396  0.1506 -0.0613 -0.1508
 7444W        W11644   7.297   1.286   1.443 -0.1413  0.1198 -0.0561
 7445W        W11645   2.943   9.870   2.957  0.0499  0.0618 -0.3104
 7446W        W11646   7.829   5.171   0.138  0.1762  0.1392  0.0582
 7447W        W11647  10.235   3.355  12.535  0.2073  0.0625 -0.0461
 7448W        W11648   4.671   5.485   1.867  0.0726  0.3019 -0.0054
 7449W        W11649   9.047  10.089   3.549  0.2789 -0.0013 -0.1677
 7450W        W11650  10.025   2.613   0.941  0.0407 -0.2105 -0.0917
 7451W        W11651   6.348   0.743  10.447 -0.0344  0.0944 -0.1022
 7452W        W11652   4.977   6.093  12.928  0.0723 -0.2779 -0.1282
 7453W        W11653   5.495   6.599  10.388 -0.0983  0.0536 -0.1580
 7454W        W11654   7.833   7.282   3.707  0.0373  0.0839 -0.0946
 7455W        W11655   0.236   6.304   0.276  0.0419  0.2860  0.1561
 7456W        W11656   1.069   3.769   9.065 -0.1593  0.1982 -0.1329
 7457W        W11657  10.171   1.294   2.101  0.1301  0.0820 -0.0370
 7458W        W11658   1.442  10.314  12.098  0.2858 -0.0596  0.1344
 7459W        W11659   8.623   3.315   2.053 -0.1161  0.1612 -0.1235
 7460W        W11660   2.140   3.411   4.151 -0.0280  0.0253 -0.2476
 7461W        W11661   2.958   6.085   5.293 -0.1488 -0.0820  0.0957
 7462W        W11662   2.615   1.914   2.814 -0.0154 -0.1053 -0.2419
 7463W        W11663   0.518   5.718   9.938 -0.0037  0.2143  0.5095
 7464W        W11664   9.058   9.471   1.882 -0.2203 -0.0258  0.1897
 7465W        W11665   8.278   9.025   3.205  0.2274 -0.0675  0.0250
 7466W        W11666   8.699   3.840   2.023 -0.1650  0.1634 -0.0206
 7467W        W11667   2.945   8.709  12.664 -0.0975 -0.0661  0.1367
 7468W        W11668   4.304   2.254   9.301 -0.0615 -0.2855  0.1180
 7469W        W11669   1.984   0.416  11.840 -0.1252  0.1203 -0.1554
 7470W        W11670  10.091   3.787   1.993 -0.0970 -0.0275  0.0199
 7471W        W11671   1.294   9.418   2.090  0.1965  0.3964 -0.1668
 7472W        W11672   0.028   3.884   3.889  0.1409  0.6832  0.0885
 7473W        W11673   2.747   7.432   2.397  0.0333  0.0259 -0.0384
 7474W        W11674   5.367   2.482   4.758 -0.2187  0.0399  0.2226
 7475W        W11675   0.014   2.853  11.471 -0.1527 -0.4145 -0.3942
 7476W        W11676   3.073   7.566  12.549 -0.0839 -0.1426 -0.2075
 7477W        W11677   9.966   1.750   2.098  0.5730 -0.3094  0.1604
 7478W        W11678   7.857   7.462  10.746  0.2229 -0.0052 -0.1477
 7479W        W11679   2.859   2.536   9.603  0.0610 -0.0700 -0.0154
 7480W        W11680   0.384   5.815  12.935 -0.0433 -0.2986 -0.3469
 7481W        W11681   7.485   7.814  11.811 -0.2239  0.1909  0.2900
 7482W        W11682   5.580   2.905   4.845 -0.0343 -0.1409 -0.2835
 7483W        W11683   2.914   2.536  13.488 -0.3856  0.2139 -0.0559
 7484W        W11684   2.022   1.847   5.117 -0.0826  0.0853  0.4098
 7485W        W11685   4.768   7.118   8.501 -0.0162 -0.1843  0.1320
 7486W        W11686   7.343   6.500   1.772 -0.3903 -0.1464 -0.1796
 7487W        W11687   7.902   7.031  13.075 -0.0548 -0.0724 -0.1957
 7488W        W11688   1.825   7.013  13.366  0.2200  0.0787 -0.0832
 7489W        W11689   8.365   0.965   9.192 -0.0410  0.0976 -0.1173
 7490W        W11690   5.435   6.255  10.772  0.0562  0.0012  0.2083
 7491W        W11691   4.126  10.213  10.324 -0.0958  0.1503 -0.4800
 7492W        W11692   5.686   9.984  10.665  0.1238  0.0714 -0.0100
 7493W        W11693   5.106   1.014   9.483 -0.2321  0.3212  0.0644
 7494W        W11694   2.431   5.489   4.901  0.2831  0.1653  0.1726
 7495W        W11695   8.079   7.977  11.972 -0.1412  0.2620  0.1170
 7496W        W11696   5.303   4.771  12.950  0.3805  0.1380 -0.0545
 7497W        W11697   1.595   7.198  11.118 -0.1934 -0.1889  0.0131
 7498W        W11698   1.558   1.714   2.857 -0.1098 -0.0742  0.2628
 7499W        W11699   7.136   4.106  11.139 -0.1021  0.3395 -0.1404
 7500W        W11700   5.358   6.419   4.495  0.1219  0.0203 -0.0939
 7501W        W11701   3.791   2.393   0.309 -0.1336  0.1959  0.2257
 7502W        W11702   7.935   7.209   0.525 -0.1259  0.0031 -0.0079
 7503W        W11703   9.435   8.908  10.650  0.1685 -0.0956  0.1768
 7504W        W11704   5.728   6.686   2.925 -0.2515 -0.1439  0.0378
 7505W        W11705   1.177   4.089   3.725  0.1210  0.1805 -0.0587
 7506W        W11706   1.613   4.390  10.486  0.0889  0.1426  0.0590
 7507W        W11707   1.985   9.255  12.213  0.0313  0.0685  0.1399
 7508W        W11708   0.300   4.990   3.178 -0.3086 -0.3747 -0.1847
 7509W        W11709   5.505   1.260   0.514  0.1997 -0.2679 -0.0873
 7510W        W11710   6.541   9.644   2.675  0.1029  0.1345  0.0938
 7511W        W11711   7.411   9.514   4.862  0.0685 -0.0535 -0.1153
 7512W        W11712   1.980   2.944  12.767  0.2559 -0.2163 -0.2049
 7513W        W11713   3.427   9.575  10.660 -0.0227 -0.2111 -0.2057
 7514W        W11714   5.750   7.050  10.486 -0.1908 -0.0237  0.2517
 7515W        W11715   1.534   8.332  11.311 -0.0010 -0.0222 -0.2069
 7516W        W11716   4.648   8.203  10.716  0.4541  0.0593 -0.5652
 7517W        W11717   2.204   3.161   3.670  0.2896 -0.3832 -0.1084
 7518W        W11718   1.036   1.851   5.211  0.0197  0.0620 -0.3028
 7519W        W11719   5.058   6.824   9.971  0.3040 -0.1141 -0.0362
 7520W        W11720   7.541   9.615   1.877  0.2094 -0.0895  0.4487
 7521W        W11721   8.180  10.011  12.037 -0.1461  0.0219 -0.2183
 7522W        W11722   2.160   9.654  10.406 -0.0337  0.0375  0.1929
 7523W        W11723   3.520   1.457   1.460  0.1158  0.2039  0.2277
 7524W        W11724  10.142   3.183   3.802  0.1250  0.0735 -0.1278
 7525W        W11725   6.309   1.708  10.512  0.1697  0.3473  0.1896
 7526W        W11726   1.773   3.280   0.230 -0.1218  0.1610 -0.0671
 7527W        W11727   6.246   6.986   2.234  0.1110  0.3015 -0.2124
 7528W        W11728   1.640   1.598  13.481 -0.0775 -0.0600  0.1766
 7529W        W11729   4.346   3.059  10.596  0.1931 -0.2153  0.0055
 7530W        W11730   2.524   8.844  12.891  0.1823  0.2771  0.0886
 7531W        W11731   9.037  10.048   8.876  0.0215 -0.1348  0.1539
 7532W        W11732   9.520   8.974   1.061 -0.0897  0.1573  0.1022
 7533W        W11733   2.573   3.569  10.871  0.2631 -0.1379 -0.1790
 7534W        W11734   4.615   8.709   8.620  0.2424  0.1187 -0.1838
 7535W        W11735   1.417   6.045   9.438  0.2737  0.3965  0.2359
 7536W        W11736   5.214   7.245   3.347 -0.0417 -0.3005 -0.2738
 7537W        W11737   4.460   5.692   5.004  0.3229 -0.1299 -0.2875
 7538W        W11738   1.115   1.723   2.703 -0.2112 -0.2584  0.2593
 7539W        W11739   3.604   3.079   9.263  0.0018  0.5614 -0.5290
 7540W        W11740   5.910   8.821   0.456 -0.0358 -0.2455 -0.2198
 7541W        W11741  10.390   8.115  11.434  0.2101  0.4194 -0.0366
 7542W        W11742   0.359   0.250   1.370  0.3583 -0.1008 -0.1434
 7543W        W11743   2.273   6.037   1.103  0.1255  0.0289 -0.3390
 7544W        W11744   6.261   8.584  12.389  0.0347  0.2049 -0.0217
 7545W        W11745   9.110   9.857  13.454 -0.0967  0.2461  0.2054
 7546W        W11746   0.761   8.123   3.994  0.1340 -0.1947  0.0392
 7547W        W11747   8.847  10.168  10.788  0.1664  0.1263  0.1555
 7548W        W11748   5.763   2.092  10.275  0.0115  0.1505  0.0228
 7549W        W11749   1.117   0.765   2.996  0.1630 -0.0964  0.4690
 7550W        W11750   6.646   9.712   2.183 -0.1110  0.0943 -0.4033
 7551W        W11751   5.763   8.034   3.126 -0.0312  0.1213  0.2233
 7552W        W11752   2.466   6.402  12.219  0.1374 -0.0673  0.0119
 7553W        W11753   3.956   1.754  11.420  0.2963 -0.0037  0.1522
 7554W        W11754   7.792   6.457   0.863  0.1227 -0.2453  0.2727
 7555W        W11755   6.314   7.688   0.091 -0.1181  0.0457 -0.0240
 7556W        W11756   7.739   8.071   9.354  0.4965 -0.1160  0.0355
 7557W        W11757   0.596   1.340   0.222 -0.1826  0.2086  0.1775
 7558W        W11758   7.639   3.147   3.554 -0.2017  0.4723  0.0362
 7559W        W11759   1.939  10.142   2.669 -0.0563  0.0889  0.1543
 7560W        W11760   5.145   4.728   5.023 -0.3123 -0.4662  0.1076
 7561W        W11761   7.625   1.874   5.191 -0.2098 -0.3436 -0.1619
 7562W        W11762   8.684   0.229   3.011 -0.1602  0.1618  0.0471
 7563W        W11763   8.507   9.827   1.212 -0.0491  0.1443 -0.1356
 7564W        W11764   5.034  10.182   1.984 -0.2275 -0.2768 -0.0988
 7565W        W11765   6.027   8.636  13.356 -0.3004  0.1215 -0.2512
 7566W        W11766   4.536   5.287   0.641 -0.0404  0.0246 -0.3480
 7567W        W11767   6.640   2.867  12.735 -0.0492 -0.0434 -0.0592
 7568W        W11768  10.273   1.283   4.468 -0.1627 -0.0018  0.3490
 7569W        W11769   8.007   4.696  11.849 -0.0135 -0.1430 -0.2780
 7570W        W11770   6.021   9.360   0.507  0.3154 -0.1830  0.0089
 7571W        W11771   9.806   4.826   9.438 -0.1983 -0.2515  0.0386
 7572W        W11772   6.056   9.098  10.217 -0.0199  0.0902 -0.0343
 7573W        W11773   9.176   6.245   3.662  0.4890  0.2208  0.2233
 7574W        W11774   6.882   4.244  10.419  0.0931 -0.1542  0.3505
 7575W        W11775   8.249   9.440   1.366  0.0859  0.1275  0.0704
 7576W        W11776   0.221   2.835   2.975  0.0018  0.4460 -0.0805
 7577W        W11777   5.332   8.795   9.746  0.1261  0.1712 -0.0686
 7578W        W11778   1.608   2.899   1.996  0.3345 -0.3041 -0.0619
 7579W        W11779   9.714   9.423  11.592  0.0930 -0.3945  0.0637
 7580W        W11780   2.227   4.290   3.356  0.0036 -0.0269  0.0327
 7581W        W11781  10.443   9.100  10.317  0.2829 -0.1068  0.1825
 7582W        W11782   7.586   4.148   4.454 -0.0220 -0.0521  0.2097
 7583W        W11783  10.277   4.042   4.407  0.0036 -0.1083  0.2478
 7584W        W11784   0.778   4.340   2.781 -0.0595  0.2496 -0.0101
 7585W        W11785   7.374   2.045   3.249 -0.0077  0.2059  0.3442
 7586W        W11786   1.765   0.548  10.032 -0.1757  0.1219  0.1772
 7587W        W11787   8.732   5.315  11.312  0.4991 -0.3864 -0.2278
 7588W        W11788   8.399   6.738  11.319  0.0460 -0.2230 -0.0026
 7589W        W11789   0.531   2.530  13.178  0.0518 -0.0130 -0.2241
 7590W        W11790   2.136   4.080  11.440  0.2148 -0.1602 -0.3837
 7591W        W11791   2.945   1.195   3.555 -0.0638  0.0356 -0.3725
 7592W        W11792   2.189   5.633  10.513 -0.0320 -0.1901 -0.1562
 7593W        W11793   5.981  10.163   9.591  0.0289 -0.1394 -0.2623
 7594W        W11794   4.189   6.455   3.124  0.1390  0.0826 -0.0994
 7595W        W11795   8.317   7.607  11.162  0.1298  0.3374  0.0877
 7596W        W11796   6.394   0.277  12.998  0.3657  0.0973  0.1852
 7597W        W11797   7.413   7.407   0.520  0.1814 -0.3524 -0.0100
 7598W        W11798   9.817  10.015   0.548  0.1318 -0.2789 -0.2272
 7599W        W11799   7.135   2.670  10.628 -0.0617 -0.0059 -0.2204
 7600W        W11800   0.768   8.330  13.349  0.2419  0.0552  0.3147
 7601W        W11801  10.082   4.618   3.672 -0.0308 -0.2561  0.0706
 7602W        W11802   0.978   1.660   9.655 -0.2718 -0.0479 -0.2913
 7603W        W11803   6.523  10.290  10.810  0.1099 -0.1247 -0.0556
 7604W        W11804   2.196   7.666   1.600 -0.1935  0.0916  0.0576
 7605W        W11805   4.296   3.085   4.193  0.2199 -0.2277  0.0270
 7606W        W11806   5.541   1.365   5.358  0.1593  0.1289  0.4112
 7607W        W11807   3.295   3.635  11.300  0.0604 -0.1816  0.1497
 7608W        W11808   2.893   4.819  13.498  0.0715  0.4439  0.1779
 7609W        W11809   7.937   9.631   2.647  0.1214 -0.0967  0.2161
 7610W        W11810   0.508   2.599   2.097 -0.0743 -0.2433 -0.0169
 7611W        W11811   2.184   4.153  12.996  0.2260 -0.0758 -0.0811
 7612W        W11812   7.044   1.571  13.009  0.3302 -0.0585 -0.2098
 7613W        W11813   7.135   8.556  10.615  0.3039 -0.1614  0.2435
 7614W        W11814   6.645   7.919  10.220  0.0890 -0.0968  0.1334
 7615W        W11815   3.556   2.229  11.402  0.2583 -0.0009 -0.0310
 7616W        W11816   3.308   6.653  12.282  0.0554 -0.0656  0.3103
 7617W        W11817   7.784   4.233   3.016 -0.0886 -0.1231 -0.2834
 7618W        W11818   2.219   8.538   2.839 -0.0394 -0.2111  0.1033
 7619W        W11819   6.982   7.959  12.245 -0.1289  0.1969 -0.2949
 7620W        W11820   9.809   9.833  10.740  0.3302  0.3652 -0.0794
 7621W        W11821   5.886   4.174   4.292 -0.6074 -0.1471 -0.0077
 7622W        W11822   6.389   4.997   4.232  0.1230  0.0701  0.1257
 7623W        W11823   7.542   1.010   9.503  0.4053  0.1829 -0.3261
 7624W        W11824  10.172   8.103   3.428 -0.0434  0.0349 -0.1157
 7625W        W11825   2.073   7.459   3.072 -0.1987  0.5156  0.1003
 7626W        W11826   9.208   5.336   0.913  0.2033 -0.0828  0.0296
 7627W        W11827   5.594   3.481  10.847  0.1451  0.1238  0.3162
 7628W        W11828   0.377   7.053  11.034  0.0366 -0.0112 -0.0215
 7629W        W11829   1.278   2.063   2.256  0.4826 -0.0323  0.1564
 7630W        W11830   8.437   5.633   3.652 -0.0450 -0.0546 -0.2808
 7631W        W11831   5.865   7.047   0.769  0.3108  0.0422 -0.1247
 7632W        W11832   0.806   6.777   9.940  0.2391 -0.1849  0.2058
 7633W        W11833   6.719   8.644   0.945 -0.0368 -0.2621 -0.0454
 7634W        W11834   6.479   1.661   2.576  0.0757  0.0668 -0.1950
 7635W        W11835   3.945   2.020   4.103 -0.2522 -0.0746 -0.1094
 7636W        W11836   3.466   8.880   3.112 -0.0232 -0.1849  0.3343
 7637W        W11837   9.760   2.276   1.109  0.0091 -0.2117  0.0338
 7638W        W11838   4.570   2.206  11.662 -0.1409  0.0214  0.0278
 7639W        W11839   9.764   2.191   9.622  0.1641  0.2627  0.1853
 7640W        W11840   6.390   0.457  10.023  0.1401 -0.0447 -0.0937
 7641W        W11841   4.559   0.699   1.060 -0.4365 -0.0875  0.0809
 7642W        W11842   8.921   1.793   0.525 -0.0221  0.1819  0.1445
 7643W        W11843   0.649   5.179   4.508 -0.3025 -0.1246 -0.1951
 7644W        W11844   7.402   4.649  10.687 -0.0915  0.4346 -0.1087
 7645W        W11845   7.278   7.564  11.434  0.0060  0.0136  0.0066
 7646W        W11846   7.401   5.141  10.538  0.0798  0.2701  0.1636
 7647W        W11847   0.326   7.665   3.281 -0.2651 -0.3720 -0.0345
 7648W        W11848   3.650   0.705   3.299 -0.1929  0.1744 -0.0838
 7649W        W11849   5.141   2.662  12.453 -0.1086 -0.1574  0.3320
 7650W        W11850   9.162   3.421   4.036  0.1946 -0.1624 -0.1986
 7651W        W11851   7.786   8.662  10.617 -0.1178 -0.1321  0.0979
 7652W        W11852   4.955   2.353   2.025  0.0080  0.0511  0.0607
 7653W        W11853   5.107   0.265  11.733 -0.1006  0.0569  0.1556
 7654W        W11854   2.910   8.425  12.012 -0.1930  0.2260  0.1531
 7655W        W11855   5.440   1.480   4.540  0.0927  0.0789  0.2329
 7656W        W11856   4.659   9.924   2.860 -0.1662 -0.0890 -0.1006
 7657W        W11857  10.214   0.468   0.939  0.2612  0.2354  0.0061
 7658W        W11858   4.350  10.090   2.538  0.0044 -0.3127 -0.0300
 7659W        W11859   9.735   6.077   1.337  0.1020 -0.2657  0.0961
 7660W        W11860   2.365   2.594   9.316 -0.0350 -0.0819  0.1203
 7661W        W11861   4.890   3.299   9.164  0.0469  0.4931  0.2205
 7662W        W11862   7.641   3.363  12.905  0.3196  0.1327  0.0737
 7663W        W11863   7.059   4.366  11.583 -0.1513 -0.2027  0.0789
 7664W        W11864   3.278   7.736   0.891 -0.0534  0.2032 -0.0401
 7665W        W11865   3.566   0.817  13.097  0.3589 -0.1421 -0.2805
 7666W        W11866   1.818   1.325   1.372  0.3319 -0.1810  0.1048
 7667W        W11867   9.897   9.672   2.539  0.1744 -0.3944  0.0291
 7668W        W11868   1.572   8.783   2.924  0.0830 -0.1325  0.0233
 7669W        W11869   5.370   5.707  10.911  0.1764  0.4515 -0.1902
 7670W        W11870   7.043   5.504   4.678 -0.0025  0.1562 -0.2696
 7671W        W11871   0.202   0.130  11.225  0.0259  0.2228  0.0182
 7672W        W11872   6.461  10.186  13.141  0.0520 -0.1898 -0.5309
 7673W        W11873   3.801   3.281   0.564 -0.1559  0.4531  0.0944
 7674W        W11874   7.728   4.030  10.392  0.0497 -0.2251 -0.1903
 7675W        W11875   4.406   5.484  12.088 -0.1041  0.0973  0.3969
 7676W        W11876   7.457   3.019   2.461  0.0172  0.2833 -0.1490
 7677W        W11877   3.834   8.319   3.948  0.2876  0.0509  0.0820
 7678W        W11878   0.265  10.193   0.886 -0.1817  0.2776  0.1783
 7679W        W11879   9.372   8.656  12.707  0.0442 -0.1833  0.2984
 7680W        W11880  10.220   9.593  11.102  0.3797  0.1413 -0.0643
 7681W        W11881   6.788   4.922   3.940  0.2116 -0.0871  0.0122
 7682W        W11882   6.824   6.382   2.047  0.2917  0.0565  0.0318
 7683W        W11883   5.029   0.327  12.224  0.0452  0.0572 -0.1480
 7684W        W11884   6.769   9.560   3.966  0.0351  0.0984  0.0130
 7685W        W11885   2.862   9.431  13.324 -0.2211 -0.0848  0.2470
 7686W        W11886   7.326   0.400   1.533  0.0070  0.1052  0.0435
 7687W        W11887   8.944   2.530   3.499 -0.1316 -0.1929 -0.0358
 7688W        W11888   5.176   4.221  13.494  0.3569  0.1146 -0.1715
 7689W        W11889   5.685   2.608  12.336  0.0962 -0.0394 -0.0832
 7690W        W11890   5.353   8.743   4.847  0.2067  0.1410 -0.3674
 7691W        W11891   7.548   8.712   2.568 -0.3742 -0.0085 -0.1326
 7692W        W11892   9.010   3.974   1.381  0.0376  0.3217  0.1571
 7693W        W11893   4.310   5.788   9.504 -0.3018  0.1056 -0.2786
 7694W        W11894   4.993   2.171   4.695 -0.1847 -0.3412  0.1489
 7695W        W11895   4.731   5.907  12.090  0.3707 -0.1144  0.1459
 7696W        W11896   8.659  10.440   3.927 -0.1259 -0.0084  0.3104
 7697W        W11897   9.182   0.350   2.765  0.0791  0.1825  0.1728
 7698W        W11898   2.104   9.728   0.426  0.1006 -0.3933  0.2252
 7699W        W11899   8.758   4.373   1.370 -0.0193  0.2306  0.1600
 7700W        W11900   6.957   0.313   9.164 -0.0864 -0.2346 -0.1763
 7701W        W11901   9.819   5.080  12.722 -0.0782 -0.1355  0.3745
 7702W        W11902   8.236   7.603  11.644 -0.3166  0.1497  0.0318
 7703W        W11903   2.440   2.555  11.832 -0.1942  0.2649 -0.1020
 7704W        W11904   5.725   5.591   1.811 -0.1689  0.0242  0.1175
 7705W        W11905   3.713   9.579  13.374 -0.2296 -0.2726  0.1777
 7706W        W11906   8.618   8.862  11.494  0.3871  0.4884 -0.0624
 7707W        W11907   6.378   2.515  12.995  0.0472  0.4676 -0.2154
 7708W        W11908   0.846   3.086   3.175 -0.0376 -0.0147  0.2170
 7709W        W11909   1.419   7.170   0.099  0.0950  0.1525 -0.2812
 7710W        W11910   2.750   0.235   4.183 -0.1821 -0.2775  0.1352
 7711W        W11911   5.009   5.943  13.419 -0.0028 -0.1418  0.2665
 7712W        W11912   3.115   3.341   4.248 -0.1128  0.3065  0.1336
 7713W        W11913   4.251   8.051   8.699 -0.5580  0.1835  0.1250
 7714W        W11914   8.778   5.992   1.431 -0.2078 -0.0173  0.1490
 7715W        W11915   5.003   6.545  13.224 -0.1917  0.0030 -0.1900
 7716W        W11916   7.144   5.509  11.419 -0.0730 -0.0952 -0.2866
 7717W        W11917   7.460   0.722  10.318 -0.0290  0.3390 -0.3083
 7718W        W11918   9.242  10.122   9.998  0.5332  0.2656  0.1363
 7719W        W11919   4.051   9.312  11.504  0.0659 -0.0120  0.0779
 7720W        W11920   5.187   1.620  10.609 -0.3144  0.1768  0.0188
 7721W        W11921   1.034   0.029  11.719 -0.1651 -0.1737 -0.1180
 7722W        W11922   6.490   4.054   3.682  0.2335  0.0981  0.0784
 7723W        W11923   6.071   5.976  10.827  0.1022  0.0047  0.0563
 7724W        W11924   7.016   7.508  13.095 -0.2614  0.0254 -0.1131
 7725W        W11925   7.563   0.258  10.629  0.3840  0.1652 -0.0148
 7726W        W11926   4.222   2.392  11.962  0.0233  0.1459 -0.3273
 7727W        W11927   4.112   3.353   0.141  0.0767  0.0246  0.0940
 7728W        W11928   6.621   8.319   2.764 -0.2076  0.1012  0.2639
 7729W        W11929  10.372   3.777   9.115 -0.0395 -0.0295  0.3783
 7730W        W11930   3.579   1.881  13.143  0.0374  0.1039 -0.2443
 7731W        W11931   3.985   8.364   4.470  0.1042  0.1702  0.2774
 7732W        W11932   3.737   9.138   9.931 -0.1794  0.3081 -0.2368
 7733W        W11933   0.012   2.684  12.540 -0.0889  0.1684  0.0147
 7734W        W11934   8.289   0.288   0.903  0.2721 -0.1752  0.1428
 7735W        W11935  10.020   5.093   9.038 -0.1933 -0.3941  0.0890
 7736W        W11936  10.347   5.030   0.050  0.0015  0.1726  0.0912
 7737W        W11937   5.342   3.635  11.329  0.1732  0.1305 -0.3580
 7738W        W11938   9.230   7.622  12.178  0.2703 -0.3277  0.1763
 7739W        W11939   1.557   5.921   3.739 -0.0046 -0.0490  0.2069
 7740W        W11940   1.535   7.582  10.796 -0.1588 -0.0793 -0.1065
 7741W        W11941   8.849   6.483   2.749 -0.0572  0.0296 -0.1370
 7742W        W11942   0.715   3.759   4.321  0.1077  0.1712  0.0340
 7743W        W11943   7.001   0.057  10.627 -0.0778  0.2827 -0.1920
 7744W        W11944   5.500   5.964  13.491  0.1390 -0.1829 -0.0410
 7745W        W11945   3.319   2.225   9.870 -0.2890  0.1050 -0.2941
 7746W        W11946   6.766   2.982   5.469 -0.1232 -0.2196 -0.1093
 7747W        W11947   8.063   7.505  12.994 -0.0777  0.1249  0.2787
 7748W        W11948   0.450   9.021  12.577 -0.1142 -0.0892  0.1204
 7749W        W11949   3.110   4.680  10.252  0.1011 -0.0352  0.0600
 7750W        W11950   2.655   0.933   3.169  0.1092 -0.1115 -0.0953
 7751W        W11951   1.680   8.442  11.760  0.2876 -0.1001  0.1275
 7752W        W11952   4.822   0.943  12.761 -0.1512  0.3239 -0.1947
 7753W        W11953   1.144   2.672   4.596  0.0020 -0.0932 -0.2906
 7754W        W11954   1.448   5.773   0.327 -0.1928  0.2248 -0.0326
 7755W        W11955   9.637  10.293  11.249  0.0339  0.0810 -0.2516
 7756W        W11956   4.115   6.846  10.510 -0.1757 -0.0416 -0.1487
 7757W        W11957   1.943   9.517   2.103 -0.2055 -0.1085  0.0111
 7758W        W11958   6.304   8.396  10.896  0.2486 -0.2529  0.4020
 7759W        W11959   7.372  10.392   9.182  0.0978 -0.0631  0.0676
 7760W        W11960   4.296   8.061  11.087 -0.0861  0.4855  0.1121
 7761W        W11961   9.629   7.129  11.401  0.0263  0.1035 -0.2522
 7762W        W11962   8.208   7.137  10.974 -0.1957 -0.1590  0.1210
 7763W        W11963   7.086   6.894   1.121 -0.0433  0.0340  0.1109
 7764W        W11964   9.676   6.660   2.996  0.0759  0.0744 -0.4165
 7765W        W11965   6.447   2.582   9.499 -0.2932  0.2124  0.0632
 7766W        W11966   5.062   1.480   9.171 -0.2158 -0.0863  0.0405
 7767W        W11967   2.917   3.118  10.165 -0.0130 -0.0936  0.1390
 7768W        W11968   2.745  10.371  11.559 -0.2791 -0.0830 -0.1880
 7769W        W11969   2.576   6.903  12.213  0.1147 -0.0715 -0.0252
 7770W        W11970   8.024   4.022   0.979 -0.1990 -0.1411 -0.3875
 7771W        W11971   6.998   4.395   1.129 -0.2386 -0.5334 -0.0496
 7772W        W11972   9.100   2.175   3.865 -0.1433 -0.3513 -0.2585
 7773W        W11973   2.757   6.053   0.229  0.1346 -0.3551 -0.0573
 7774W        W11974   2.012   7.697   2.089 -0.1648 -0.3339  0.0544
 7775W        W11975   9.630   1.068   0.558  0.0235 -0.0100  0.1536
 7776W        W11976   7.302   6.039   1.634  0.0456  0.2281 -0.0786
 7777W        W11977   9.759   1.404  12.472 -0.0796  0.2191 -0.1865
 7778W        W11978   8.561   9.139   3.636  0.2766  0.0443  0.2185
 7779W        W11979   6.127  10.083   1.905 -0.1436 -0.0448 -0.0899
 7780W        W11980   3.592   1.806  11.097  0.1555  0.3945 -0.1393
 7781W        W11981   4.160   8.859  11.722 -0.1159  0.3967  0.0853
 7782W        W11982   6.576   9.927  12.144 -0.0320 -0.1024 -0.1801
 7783W        W11983   6.866   7.091  11.763  0.2212 -0.2076 -0.5044
 7784W        W11984   1.570   8.959  12.922  0.3176 -0.0976  0.0808
 7785W        W11985   9.106   0.195  10.859  0.2183 -0.1022  0.0995
 7786W        W11986   5.237  10.372  13.147  0.0178 -0.0388 -0.1170
 7787W        W11987   0.388   4.426   9.290  0.0928 -0.0194 -0.1892
 7788W        W11988   0.708   8.995   3.417 -0.0549 -0.1642  0.1026
 7789W        W11989  10.117   6.091  10.530 -0.1290 -0.0913 -0.5897
 7790W        W11990   8.136   3.314   2.283  0.0518  0.3460  0.1548
 7791W        W11991   2.308   3.435   0.245  0.0457  0.1154 -0.4093
 7792W        W11992   6.100   0.973   2.573 -0.0089 -0.0572  0.0915
 7793W        W11993   5.087   5.778  12.492 -0.1639  0.2364  0.1372
 7794W        W11994   2.722   4.846  12.959  0.1722 -0.2463 -0.1656
 7795W        W11995   9.156   9.175  12.174  0.0250 -0.1006 -0.0008
 7796W        W11996   1.957   6.876   4.278  0.1717 -0.1918 -0.2172
 7797W        W11997   2.586   9.948  10.631  0.3519  0.0762 -0.0332
 7798W        W11998   2.636   8.006   3.616 -0.1343  0.0144 -0.0078
 7799W        W11999   9.124   3.208  13.062 -0.0011  0.2021 -0.0166
 7800W        W12000   2.309  10.329   1.995 -0.1710  0.1927 -0.2512
 7801W        W12001   0.960   2.721  12.678  0.1702  0.0087 -0.2311
 7802W        W12002   6.355   8.251  12.938  0.0025 -0.0728  0.0923
 7803W        W12003  10.108   2.728   3.010 -0.0744  0.1214 -0.2077
 7804W        W12004   2.158   2.436   1.123  0.4193 -0.0325 -0.0547
 7805W        W12005   2.546   3.403  10.358  0.2058  0.0506 -0.0521
 7806W        W12006   9.214  10.316   1.715 -0.0613  0.3609 -0.0585
 7807W        W12007   0.221   4.683  13.145 -0.0452  0.0889  0.1603
 7808W        W12008   1.002   6.723   1.580  0.1302 -0.0584 -0.1479
 7809W        W12009   7.127   3.577  12.819  0.2689  0.0072  0.3685
 7810W        W12010   0.399   9.820  11.244 -0.2296  0.1239 -0.0090
 7811W        W12011   1.730   2.674  11.186 -0.2946 -0.2407 -0.0097
 7812W        W12012   7.897   2.570  12.959  0.3325  0.1366 -0.2253
 7813W        W12013   3.428   2.234   3.460  0.1826  0.2734 -0.0882
 7814W        W12014   2.009   9.680   1.018  0.0355 -0.1388 -0.2059
 7815W        W12015   2.842   5.886   2.717 -0.3084  0.0054 -0.1949
 7816W        W12016   3.815   8.808   4.049 -0.1362 -0.3575 -0.0458
 7817W        W12017  10.338   6.472   9.510 -0.3413  0.1034  0.0315
 7818W        W12018   3.252   5.172  10.322  0.0764  0.2189  0.0496
 7819W        W12019   2.335   7.106  13.181  0.2089 -0.0765 -0.3190
 7820W        W12020   8.089   0.980   2.980  0.0247  0.0534  0.3133
 7821W        W12021   0.997   4.741  11.732  0.3481 -0.1638  0.2731
 7822W        W12022   7.902   5.428  10.374 -0.1351  0.4116 -0.1769
 7823W        W12023   1.113   5.109   4.397 -0.0420 -0.2604  0.4263
 7824W        W12024   0.763   8.523   3.639  0.0399 -0.2120  0.0899
 7825W        W12025   5.505   1.571   8.843  0.1446  0.2031 -0.1583
 7826W        W12026   7.702   8.142   9.818  0.2124  0.0605  0.0587
 7827W        W12027   8.434   2.472   3.517 -0.0849  0.1654  0.1722
 7828W        W12028   4.269   2.290   1.284  0.3665 -0.1900 -0.0205
 7829W        W12029   1.132   3.175   4.104  0.2275 -0.1703 -0.1278
 7830W        W12030   4.389   4.716   2.397 -0.0494  0.3083  0.1021
 7831W        W12031   4.761   7.939   9.747  0.0699 -0.1171  0.2255
 7832W        W12032   6.942   9.968   2.558  0.0925 -0.2528  0.0577
 7833W        W12033   0.068   1.905   2.767  0.2014  0.0342 -0.1093
 7834W        W12034   6.017   5.129  11.752 -0.0702  0.2260  0.1511
 7835W        W12035   1.237   5.483   1.528  0.1569 -0.1827 -0.0271
 7836W        W12036   3.360   3.359  10.137 -0.2095  0.1325  0.1499
 7837W        W12037   3.992   8.711   9.754 -0.2446 -0.2179 -0.0739
 7838W        W12038   4.293   4.320  12.617  0.0856 -0.1938  0.0623
 7839W        W12039   4.144   2.343   4.825 -0.1298  0.3806  0.0193
 7840W        W12040   7.237   4.287   4.141  0.4239 -0.2258  0.0236
 7841W        W12041   2.707   2.232   3.684  0.2546 -0.0520 -0.1683
 7842W        W12042   5.859   1.978  12.577 -0.2187 -0.1354 -0.0768
 7843W        W12043   6.037   1.840   2.393 -0.0536  0.0874 -0.3973
 7844W        W12044   7.702   8.292   4.455 -0.1145  0.0477  0.1191
 7845W        W12045   5.773   4.573  11.353 -0.0371 -0.0176  0.0224
 7846W        W12046   2.763   9.886  11.391  0.1725  0.1526  0.1847
 7847W        W12047   2.320   4.201   9.795 -0.4122 -0.1464  0.3196
 7848W        W12048   3.646   8.690   3.547 -0.0034  0.0948 -0.1659
 7849W        W12049   0.924   8.893  12.293 -0.4018 -0.0655  0.2838
 7850W        W12050   5.332   2.574  11.982  0.1100 -0.2832 -0.0558
 7851W        W12051   1.704   8.561  13.147 -0.2978  0.0119  0.0316
 7852W        W12052   8.927   9.658  10.973 -0.5720 -0.1660  0.1348
 7853W        W12053   0.608   4.348  12.900 -0.0266  0.1287 -0.2642
 7854W        W12054   4.839   2.514   0.050 -0.1191  0.1979 -0.0872
 7855W        W12055   7.401   8.413   4.083 -0.0272 -0.1305 -0.0520
 7856W        W12056   2.848   7.177   3.655  0.1644 -0.0764 -0.0540
 7857W        W12057   8.110   4.393   4.147 -0.2587 -0.0586  0.1016
 7858W        W12058   5.519   5.060  11.534 -0.0699 -0.1358 -0.0080
 7859W        W12059   4.607   2.001   8.130  0.2140 -0.1299  0.0521
 7860W        W12060   9.923   0.898   2.875  0.1363 -0.0278  0.0894
 7861W        W12061   9.148   7.767   1.255 -0.0307  0.1338  0.4008
 7862W        W12062   4.090   6.973   1.840  0.0516 -0.0471  0.0500
 7863W        W12063   8.938   4.297   2.000  0.2973 -0.2815 -0.0116
 7864W        W12064   8.120   8.607   3.098 -0.2426 -0.0612 -0.5078
 7865W        W12065   5.541   0.270   9.490  0.0838  0.3016  0.0668
 7866W        W12066  10.022  10.439   4.347 -0.0736  0.0816 -0.0262
 7867W        W12067   7.799   1.893   2.914  0.1987  0.1303 -0.2884
 7868W        W12068   1.897   3.216   9.866 -0.0895 -0.2297  0.1093
 7869W        W12069   6.305   4.628   1.660  0.0598  0.1054  0.0458
 7870W        W12070   2.038  10.124  12.802  0.3342  0.2498  0.0347
 7871W        W12071   5.576   5.531  12.387  0.2834 -0.2790  0.3555
 7872W        W12072   7.382   4.387   0.597  0.1308 -0.0424  0.0249
 7873W        W12073  10.194   0.450   9.840 -0.2253 -0.0867  0.0857
 7874W        W12074   9.327   4.458   1.296  0.0453 -0.0199  0.2712
 7875W        W12075   6.224   6.717   9.511 -0.2492  0.1341  0.2600
 7876W        W12076   7.930   9.265   4.150 -0.0253 -0.0664  0.2346
 7877W        W12077   2.748   0.453   1.506  0.0656 -0.0510 -0.0015
 7878W        W12078   1.896   4.941  13.345 -0.2770 -0.0036  0.1182
 7879W        W12079   2.310   3.683   1.976 -0.0396 -0.0657 -0.0866
 7880W        W12080   8.891   0.519  10.507 -0.0557 -0.0230 -0.3655
 7881W        W12081   0.373   2.921   3.780  0.0124 -0.3129  0.0265
 7882W        W12082   9.282   2.194   1.317 -0.2037  0.2696 -0.0203
 7883W        W12083   1.085   7.766   2.218 -0.2530  0.1207 -0.3271
 7884W        W12084   4.207   4.301   1.535 -0.1915  0.0555  0.0383
 7885W        W12085   3.754   3.964   1.237 -0.0968  0.1220  0.0646
 7886W        W12086   9.712   5.627   2.408 -0.0553 -0.3209  0.1848
 7887W        W12087   2.091   1.111  13.442 -0.0592  0.0365  0.4314
 7888W        W12088   2.733   2.232  12.823 -0.1166  0.0515  0.3718
 7889W        W12089   5.431   2.503   4.210  0.0138  0.1073 -0.2135
 7890W        W12090   3.095   1.223   9.002  0.1436 -0.0291 -0.0801
 7891W        W12091   0.737   0.983   1.997  0.2402  0.0564 -0.0226
 7892W        W12092  10.261   4.058  10.813 -0.1207 -0.1905  0.0693
 7893W        W12093   7.753   9.630   5.238  0.2744  0.3530  0.0909
 7894W        W12094   7.334   1.982   0.834  0.0424  0.0380  0.3795
 7895W        W12095  10.191   6.496   3.695  0.2556  0.0974  0.0482
 7896W        W12096   9.563   0.753   2.565 -0.0645 -0.0685  0.3177
 7897W        W12097   9.567   8.231   2.739  0.2507 -0.1381 -0.1188
 7898W        W12098   5.957   7.014  12.303 -0.3278  0.0564  0.1315
 7899W        W12099   7.261   2.387  11.048 -0.1445  0.1818  0.0089
 7900W        W12100   5.809  10.155  11.674  0.2110 -0.1364  0.2261
 7901W        W12101   6.763   9.292   3.008  0.0347 -0.1336 -0.1273
 7902W        W12102   0.067   7.786  12.497  0.1316 -0.2267 -0.1852
 7903W        W12103   6.805   5.056   5.443  0.0860  0.1098  0.1019
 7904W        W12104   2.964   7.197   1.216 -0.0706 -0.0047  0.2066
 7905W        W12105   4.942   7.772  10.874  0.0313  0.2643 -0.4533
 7906W        W12106   2.390  10.002   0.090  0.2203  0.1102  0.2123
 7907W        W12107   7.639   3.748   4.705  0.2747 -0.0788  0.1643
 7908W        W12108   4.192   6.365   2.089  0.1907 -0.0316  0.1753
 7909W        W12109   3.777   0.719   3.946  0.2185 -0.2878  0.1174
 7910W        W12110   9.901   7.546   3.384  0.3469 -0.2066 -0.2928
 7911W        W12111   8.262   9.723   2.294  0.0165  0.1978  0.3248
 7912W        W12112   4.156   0.203   0.054  0.0620  0.1668 -0.2356
 7913W        W12113   3.115   5.588  12.329 -0.4417  0.0633 -0.0306
 7914W        W12114   9.105   1.451  13.165 -0.2336 -0.0171 -0.1384
 7915W        W12115   7.130   3.033   3.317  0.0043 -0.0701 -0.1406
 7916W        W12116   4.001   5.975   5.418 -0.2224 -0.0279  0.0295
 7917W        W12117   7.146   6.634   9.865 -0.0543 -0.1470  0.3650
 7918W        W12118   7.098   0.623   3.699  0.1078 -0.0851  0.0027
 7919W        W12119   1.180   4.145  10.408  0.2622 -0.3094  0.0968
 7920W        W12120   1.352   2.756  10.784  0.0300 -0.1775 -0.2613
 7921W        W12121   3.938   8.351  11.007 -0.0713  0.2249 -0.1367
 7922W        W12122   0.514   0.473  12.407 -0.1673  0.0360 -0.0869
 7923W        W12123  10.244  10.025   2.439 -0.0123 -0.0976 -0.3216
 7924W        W12124   0.247   4.241   2.701  0.1191  0.0291  0.3117
 7925W        W12125   8.262   2.915  11.529  0.0186 -0.0228  0.0743
 7926W        W12126   4.432   6.199   3.809 -0.2640 -0.0272  0.0611
 7927W        W12127   6.733   6.331   2.524 -0.2754  0.2507 -0.0169
 7928W        W12128   2.733  10.340   3.701 -0.0519 -0.0953 -0.0034
 7929W        W12129   4.415   0.637  12.787  0.1253 -0.3658  0.0830
 7930W        W12130   2.134   9.286   0.774 -0.0452  0.1217 -0.0084
 7931W        W12131   3.303   0.605   2.441  0.0581 -0.0540  0.1166
 7932W        W12132   6.405   9.780   0.736  0.1956 -0.1494 -0.1068
 7933W        W12133   6.809   3.831  11.377  0.0278 -0.3809  0.2592
 7934W        W12134   9.385   5.472   3.964  0.0314 -0.1846 -0.2234
 7935W        W12135   2.306   2.268   2.541  0.0563  0.3775  0.0720
 7936W        W12136   1.817   2.716   9.882  0.0239 -0.2158 -0.2412
 7937W        W12137   5.112   5.507   9.432  0.2104  0.0288 -0.1079
 7938W        W12138   2.601   0.427   0.182  0.0795  0.1067 -0.0095
 7939W        W12139   4.476   4.308   9.804 -0.0739  0.0487  0.0489
 7940W        W12140   0.420   4.968  13.503 -0.1952  0.0294 -0.4923
 7941W        W12141   7.617   7.724   9.039 -0.2484 -0.1760 -0.1183
 7942W        W12142   6.910   9.552  10.330 -0.2980 -0.1569  0.3879
 7943W        W12143   3.465   3.699   4.757  0.0418 -0.0447 -0.0679
 7944W        W12144   2.048   6.069  12.272 -0.1718 -0.1630  0.5891
 7945W        W12145   0.935   6.561  13.016  0.1881 -0.2672  0.1273
 7946W        W12146   5.888   8.391   9.981  0.1913  0.2644  0.0182
 7947W        W12147   2.805   8.254   2.082 -0.1717  0.0593 -0.1499
 7948W        W12148   5.240   2.597   0.439 -0.2403  0.2233 -0.1513
 7949W        W12149   5.984   2.364  11.459  0.0054 -0.0503 -0.3637
 7950W        W12150   5.940   7.938   1.806 -0.2415  0.0034  0.1624
 7951W        W12151   6.439   0.271   9.144  0.1580  0.3040  0.0319
 7952W        W12152   1.657   8.540   2.432  0.2395  0.0403  0.3341
 7953W        W12153  10.326   3.135  13.482 -0.0582 -0.0704 -0.0644
 7954W        W12154   2.462   4.074  10.891  0.2535 -0.0094 -0.3883
 7955W        W12155   8.519   5.735   5.432 -0.1514 -0.2784 -0.3833
 7956W        W12156   7.358   3.248   2.927  0.0706  0.2257 -0.2518
 7957W        W12157   9.410   7.839   4.667 -0.0226  0.0367 -0.2576
 7958W        W12158   3.824   4.056   4.609  0.0789 -0.0537  0.0124
 7959W        W12159   9.896   3.561  13.437  0.1289  0.1234 -0.1076
 7960W        W12160   0.013   1.479  11.096  0.0203 -0.0132  0.1492
 7961W        W12161   0.122   7.485   1.174  0.0807 -0.1032 -0.2127
 7962W        W12162   6.760   5.737  11.624  0.0249  0.4261  0.3238
 7963W        W12163   8.587  10.029   3.165 -0.0357  0.1256  0.0955
 7964W        W12164   4.191   4.866   1.234 -0.0022  0.2622  0.2948
 7965W        W12165   0.250   9.184   1.420 -0.0613 -0.1821 -0.3629
 7966W        W12166   6.062   8.270   0.332  0.4345  0.1559  0.0013
 7967W        W12167   8.443   0.770  10.386 -0.0339 -0.1364  0.0561
 7968W        W12168   9.653   5.509   1.502  0.2303 -0.0911 -0.1600
 7969W        W12169  10.302   0.240   1.619  0.0798  0.0817  0.3450
 7970W        W12170   0.336   8.529  11.391 -0.0501  0.0723 -0.0325
 7971W        W12171   3.288   4.153   2.419  0.0023  0.1291 -0.1429
 7972W        W12172   4.071   1.368  12.008 -0.0542  0.0769  0.0787
 7973W        W12173  10.426   1.722   1.390 -0.2424  0.1832 -0.1786
 7974W        W12174   6.610   1.654  12.662 -0.1354 -0.2532  0.0963
 7975W        W12175   1.917   3.506   2.174 -0.2468  0.0050 -0.1853
 7976W        W12176   9.988   1.331   0.764 -0.1849  0.1469 -0.1466
 7977W        W12177   7.432   8.503   3.611  0.1933  0.2219  0.0057
 7978W        W12178   3.996   2.351  10.573  0.2850 -0.0037  0.0556
 7979W        W12179   7.689   1.006   3.762 -0.0030  0.1702  0.2448
 7980W        W12180   1.669   8.914   0.058 -0.1990  0.1899  0.1584
 7981W        W12181   3.662   0.703  12.563  0.1746 -0.1082 -0.0059
 7982W        W12182   8.214   6.704  13.267 -0.1921 -0.3833  0.0649
 7983W        W12183   6.748   5.843   2.467  0.1387  0.1170 -0.1093
 7984W        W12184   1.362   1.645   0.885  0.0962 -0.1018 -0.0325
 7985W        W12185   8.792   0.531  13.436 -0.0356 -0.0448 -0.1554
 7986W        W12186   9.289   6.811  13.272 -0.1968 -0.1483 -0.2278
 7987W        W12187   8.240   0.814  12.815  0.2863  0.1635 -0.0011
 7988W        W12188   2.641   7.423  12.287 -0.0246 -0.0060 -0.0877
 7989W        W12189   7.487   9.258   9.069 -0.1504 -0.1199  0.1674
 7990W        W12190   6.848   4.165   9.646  0.0405 -0.1525  0.0670
 7991W        W12191   4.768   9.434   2.849 -0.0576  0.1680 -0.1632
 7992W        W12192   3.138   2.410   3.954  0.0701 -0.0212  0.1904
 7993W        W12193   5.826   0.900   0.627  0.1008  0.1574  0.4254
 7994W        W12194   8.956   5.682   0.582  0.2740 -0.0399  0.1531
 7995W        W12195   8.091   5.740   3.336  0.4643  0.0136 -0.2161
 7996W        W12196   6.215   8.302   1.262  0.1320 -0.3467 -0.0550
 7997W        W12197   4.660   0.908   2.111  0.3884 -0.0006  0.1924
 7998W        W12198   4.108   9.417  12.971  0.1725  0.0612 -0.1816
 7999W        W12199   5.928   4.883   1.373 -0.3459 -0.2798 -0.2750
 8000W        W12200   8.979   0.908   3.413 -0.0940 -0.3084 -0.2024
 8001W        W12201   0.800   2.114   9.479  0.0069 -0.3597  0.0356
 8002W        W12202   5.167   3.689   0.826  0.3797  0.0237  0.0297
 8003W        W12203   6.163   3.384   1.113  0.4041  0.0889  0.2022
 8004W        W12204   2.653   6.198   1.786 -0.2622 -0.0747  0.1789
 8005W        W12205   1.821   3.044   2.413 -0.1081 -0.0290  0.0743
 8006W        W12206   5.264   3.091   1.185 -0.2430 -0.0938 -0.0367
 8007W        W12207   3.528   2.465  13.439 -0.4003 -0.0517  0.1325
 8008W        W12208   2.122   5.539  11.933 -0.0718  0.2488  0.0674
 8009W        W12209   7.485   5.307  11.713 -0.1965  0.2197 -0.2160
 8010W        W12210   2.292   7.235   2.698 -0.1124  0.1598  0.0967
 8011W        W12211   7.552   2.517   3.575  0.2034 -0.1365  0.1942
 8012W        W12212   7.410   1.111   0.074 -0.0324 -0.1254 -0.2417
 8013W        W12213   0.065   8.450   3.518 -0.2538 -0.1965  0.3358
 8014W        W12214   3.212   2.341   2.762 -0.0531 -0.0641  0.0173
 8015W        W12215   9.630   4.342   8.698 -0.0577  0.1698  0.5659
 8016W        W12216   7.742   7.537   0.846  0.1426  0.2591 -0.1395
 8017W        W12217   2.271   2.835   2.654 -0.0296  0.4284 -0.0262
 8018W        W12218   4.828   9.943   0.103  0.1025 -0.2042  0.1941
 8019W        W12219   1.395   2.647  11.755 -0.0114  0.2150 -0.5891
 8020W        W12220   8.337   4.324   4.671 -0.0958  0.0137  0.0338
 8021W        W12221   5.882   2.588   9.409 -0.0991 -0.2408 -0.0097
 8022W        W12222   9.011   0.970  12.930 -0.2201  0.3537  0.2474
 8023W        W12223   8.176   6.681  10.739  0.0389  0.4119 -0.1782
 8024W        W12224   4.018   7.610  12.864  0.1194  0.2338  0.0375
 8025W        W12225   7.317   6.081   0.946  0.0841  0.0500 -0.0542
 8026W        W12226   6.629   0.734   8.390  0.0056  0.0482  0.1715
 8027W        W12227   2.449   1.321   3.457  0.2254 -0.4217 -0.1531
 8028W        W12228   3.048   1.689   2.181 -0.0329  0.1166  0.0110
 8029W        W12229   1.940   8.319   3.462 -0.0329 -0.2151 -0.1361
 8030W        W12230   5.604   5.635   0.935 -0.1881  0.0576 -0.1908
 8031W        W12231  10.336   2.851   2.566 -0.2243  0.1210  0.1986
 8032W        W12232   0.286   0.781   1.719 -0.2971  0.0720  0.1621
 8033W        W12233   9.856   3.064   2.684 -0.0183 -0.0529  0.1765
 8034W        W12234  10.236   8.430   1.687  0.0839  0.1491 -0.1666
 8035W        W12235   1.535   2.606  12.938 -0.1517  0.2897 -0.1762
 8036W        W12236   0.803   9.348  13.228  0.2792  0.1618  0.1384
 8037W        W12237   5.594   1.462  12.917 -0.0892 -0.0386 -0.0613
 8038W        W12238   5.695   5.467  13.494 -0.0677 -0.1512 -0.2624
 8039W        W12239   8.944   3.534   1.200 -0.2017 -0.1713 -0.1134
 8040W        W12240   2.109   9.528   3.843  0.0900  0.0067 -0.0505
 8041W        W12241   6.715   4.064   9.136  0.1926 -0.1220 -0.0510
 8042W        W12242   7.936   2.350   9.170 -0.0036 -0.1435 -0.1454
 8043W        W12243   6.179   7.063  12.796 -0.2149  0.2343 -0.0396
 8044W        W12244   2.430   2.210   9.607  0.0571 -0.3191  0.0001
 8045W        W12245   2.191   5.349   1.289  0.1558  0.3211  0.2961
 8046W        W12246   6.017   2.780  13.250  0.0426 -0.0915 -0.1958
 8047W        W12247   3.439   6.192  13.039 -0.0216 -0.1053  0.5123
 8048W        W12248   7.539   3.412  11.122  0.1503  0.2050 -0.1699
 8049W        W12249   4.586   5.711   3.636 -0.1662 -0.0684  0.1431
 8050W        W12250   8.785   5.948   0.178 -0.1786  0.0893 -0.1530
 8051W        W12251   7.357   3.329   3.892 -0.0014 -0.1579  0.0863
 8052W        W12252   7.707   0.600  12.878  0.1040 -0.0428  0.1131
 8053W        W12253   1.165   4.684   4.037 -0.1528  0.0834  0.2185
 8054W        W12254   0.352   6.824  12.002  0.0571  0.2630 -0.1601
 8055W        W12255   2.898   0.257  12.801  0.0446  0.1788  0.0781
 8056W        W12256   2.068  10.113   0.779  0.1442 -0.0050  0.3704
 8057W        W12257   5.157   0.827  12.365  0.2876 -0.1032  0.1760
 8058W        W12258   8.498   2.979   0.546 -0.1464  0.1316  0.0734
 8059W        W12259   0.121   3.781  11.190  0.2268 -0.0819 -0.0292
 8060W        W12260   8.173   0.178  11.297  0.1740 -0.0088  0.0502
 8061W        W12261   2.935   0.682  11.955 -0.0951 -0.1416  0.2788
 8062W        W12262   3.057   0.720   4.052  0.0337 -0.3291 -0.1795
 8063W        W12263   9.185   2.211  13.441  0.3564 -0.0177 -0.3214
 8064W        W12264   3.010   3.858  10.946  0.1871 -0.0362  0.3107
 8065W        W12265   9.559   6.918   4.998  0.1505  0.0917  0.1334
 8066W        W12266   3.787   6.151   3.335 -0.0400  0.1306  0.2337
 8067W        W12267   5.412   7.575   0.556  0.2479 -0.0415 -0.1365
 8068W        W12268   6.779   3.556  11.773 -0.0240 -0.0287  0.0875
 8069W        W12269   5.714   1.637   9.736  0.1403  0.0924  0.0017
 8070W        W12270   8.603   4.574   4.229 -0.0453  0.0547 -0.0989
 8071W        W12271   2.738   1.605   3.843  0.2593 -0.2985  0.0914
 8072W        W12272   2.020   2.216  10.491  0.0016 -0.1503  0.1740
 8073W        W12273   1.218   8.075  13.422  0.2327 -0.4390  0.0563
 8074W        W12274   3.134   3.202   2.485 -0.1406 -0.0711 -0.1792
 8075W        W12275   4.817   1.187  13.257 -0.0213  0.0415 -0.0023
 8076W        W12276   7.882   4.728   8.779  0.0249 -0.2136  0.0573
 8077W        W12277   7.882   6.786   3.856 -0.0605  0.0209 -0.0447
 8078W        W12278   1.696   8.263   2.833 -0.2908 -0.0390 -0.1504
 8079W        W12279   6.435   4.821   9.868 -0.1028  0.0358  0.0341
 8080W        W12280   2.078   1.393  10.351  0.1144 -0.2164 -0.0198
 8081W        W12281   2.555   2.360  11.139 -0.2056  0.2422 -0.0176
 8082W        W12282   7.339   2.895   2.031  0.2342  0.1202  0.2028
 8083W        W12283   8.858   1.821   4.199 -0.0672  0.1089 -0.2370
 8084W        W12284   4.035   9.462   8.690  0.0106 -0.1182 -0.0921
 8085W        W12285   4.578   3.956   0.884  0.0205 -0.0030 -0.1014
 8086W        W12286   3.569   0.190   3.247 -0.3092  0.0198 -0.1459
 8087W        W12287   9.511   3.966   1.353 -0.2090  0.0327  0.2119
 8088W        W12288   3.523   6.247  13.510  0.0527 -0.0482 -0.1323
 8089W        W12289   4.628   9.451   3.444  0.0011  0.1894  0.1356
 8090W        W12290   5.165   7.274  12.588  0.0863  0.1072  0.0659
 8091W        W12291   8.407   7.913   1.641  0.2051  0.1654  0.2214
 8092W        W12292   4.162   9.487  10.078 -0.4035 -0.1464 -0.0703
 8093W        W12293   2.316   7.964   1.223  0.1012  0.4339  0.0596
 8094W        W12294   9.616   4.662  12.520  0.2536  0.2197 -0.3323
 8095W        W12295   5.934   7.409   9.117 -0.2238  0.4601  0.0704
 8096W        W12296   6.778   2.305   1.513  0.1850 -0.4086  0.0918
 8097W        W12297   1.069   0.253  11.261  0.1052  0.1687  0.1014
 8098W        W12298   2.427   0.629   0.612 -0.1503 -0.1532  0.2678
 8099W        W12299   7.869   9.616   9.343  0.0750 -0.0802  0.0809
 8100W        W12300   1.593   2.318  12.099 -0.3305  0.2933  0.1080
 8101W        W12301   9.859   0.935  13.160 -0.0827  0.3556 -0.4010
 8102W        W12302   1.141  10.436   1.207 -0.2082  0.0559 -0.0891
 8103W        W12303   3.586   2.425   8.624 -0.0845 -0.0365  0.1884
 8104W        W12304   8.998   0.322  12.510  0.0107  0.1531  0.2241
 8105W        W12305   8.800   1.448   5.312 -0.0971 -0.0997  0.1388
 8106W        W12306   4.598   0.230  11.902 -0.1798  0.0028  0.2335
 8107W        W12307   5.428   7.943  10.877 -0.1201 -0.2619 -0.3360
 8108W        W12308   4.048   7.281   9.992 -0.3154  0.1394 -0.1326
 8109W        W12309   4.631   4.318   1.232  0.0783  0.0500 -0.0696
 8110W        W12310   5.636   2.940  12.711 -0.1371  0.1010 -0.0527
 8111W        W12311   6.044   5.768   2.269 -0.2772  0.0728  0.1329
 8112W        W12312   3.700   0.019   0.233  0.1370  0.1509 -0.0739
 8113W        W12313   5.282   9.870   0.347  0.0518 -0.0206 -0.0663
 8114W        W12314   8.209   3.049  12.911  0.1356 -0.0979  0.1248
 8115W        W12315   3.570   3.362   3.992  0.0894 -0.0816 -0.0008
 8116W        W12316   2.499   5.261  10.693  0.0389  0.1094 -0.0099
 8117W        W12317   8.374   7.255   0.295 -0.1303 -0.0665  0.0916
 8118W        W12318   0.849   5.554   2.474 -0.0815  0.0225  0.2430
 8119W        W12319   7.835   4.778   1.394  0.0096  0.0422  0.0272
 8120W        W12320   0.257   7.277   2.944  0.1805  0.2475  0.2751
 8121W        W12321   7.109   8.805  11.382  0.2128  0.0565 -0.2887
 8122W        W12322   6.568   6.577   3.824  0.1686 -0.0757 -0.0788
 8123W        W12323   8.306   6.513   4.674 -0.0379 -0.0492  0.0545
 8124W        W12324   0.992   6.832   2.113  0.5985  0.0982  0.2333
 8125W        W12325   9.157   7.136   0.611  0.3952  0.0795 -0.1079
 8126W        W12326   4.429   5.655  11.206  0.1828 -0.0601 -0.4080
 8127W        W12327   0.406   3.208  10.772  0.1654 -0.0674  0.1445
 8128W        W12328   9.940   1.939  11.492 -0.1431  0.0838  0.0997
 8129W        W12329   6.183   2.969   9.647  0.1998 -0.1649 -0.3101
 8130W        W12330   2.679   7.225  11.831  0.0595  0.0740 -0.4406
 8131W        W12331   3.106   5.986   0.916  0.1816 -0.1286  0.3383
 8132W        W12332   3.569   6.950  12.621  0.1110 -0.1685  0.2970
 8133W        W12333   5.422   0.928   1.821 -0.2454 -0.2419 -0.2713
 8134W        W12334   8.501   9.269   0.933  0.1191 -0.3523 -0.0117
 8135W        W12335   6.486   5.902   2.047 -0.1298 -0.2809  0.0283
 8136W        W12336   4.586   4.788   0.954 -0.2573 -0.0324 -0.0642
 8137W        W12337   4.415   4.243   0.429 -0.0535  0.2134 -0.6467
 8138W        W12338   8.926   5.248  10.118 -0.0916  0.1135  0.4739
 8139W        W12339   0.262   3.215   9.914  0.2649  0.0531 -0.2135
 8140W        W12340   9.035   8.895   0.012 -0.2571  0.0544  0.0119
 8141W        W12341   8.427   4.758   4.862 -0.1323 -0.0788  0.3353
 8142W        W12342  10.388   4.352   3.956 -0.2062  0.0380  0.3329
 8143W        W12343   1.261   7.569  13.363 -0.4156 -0.3567 -0.2349
 8144W        W12344   3.746   0.563   0.934  0.1772 -0.0723  0.2839
 8145W        W12345   2.829   8.182   0.572 -0.1557  0.0669  0.2280
 8146W        W12346   1.923   3.162  12.362 -0.0103  0.1349  0.1089
 8147W        W12347   0.567   1.444  11.926 -0.2106 -0.0867 -0.0449
 8148W        W12348   0.584   5.931   2.612  0.0417  0.0299 -0.2268
 8149W        W12349   3.377   9.567   3.384 -0.1538  0.1164  0.2151
 8150W        W12350   5.127   2.215   0.752 -0.1866  0.0064  0.1338
 8151W        W12351   1.073   0.004   2.198 -0.2617  0.0164 -0.2471
 8152W        W12352   7.883   9.540   4.661 -0.1787  0.1806 -0.2036
 8153W        W12353   1.857   4.737   9.812  0.0275 -0.3592 -0.1055
 8154W        W12354   2.701   4.299  11.309 -0.2252 -0.1636  0.0273
 8155W        W12355   3.106   2.435   1.871  0.0630 -0.1222 -0.0912
 8156W        W12356   1.815   9.984   1.893 -0.2698  0.2477 -0.1940
 8157W        W12357   9.601   4.619   0.834 -0.1796  0.0253  0.1477
 8158W        W12358   6.773   6.162   9.917 -0.0375 -0.1226  0.3392
 8159W        W12359   0.518   7.678   3.831  0.0115  0.0629 -0.0466
 8160W        W12360   7.201   9.633  11.981 -0.1092  0.0498 -0.0577
 8161W        W12361   9.967   4.760   1.222  0.0453 -0.0704  0.0558
 8162W        W12362   3.284   1.121   0.483  0.3974 -0.1602 -0.1486
 8163W        W12363   9.437   4.643   3.529 -0.1056 -0.2013 -0.1608
 8164W        W12364   1.988   0.246  10.908  0.0417 -0.0942  0.2247
 8165W        W12365  10.408  10.173   2.969  0.1549 -0.1295  0.2794
 8166W        W12366   6.458   7.920   3.047  0.2450  0.2972 -0.1379
 8167W        W12367   3.440   0.386  12.888  0.1717  0.0531 -0.0043
 8168W        W12368   8.053   3.986  13.181  0.0573 -0.1494  0.1603
 8169W        W12369   2.400   1.504   2.936 -0.0113  0.0131 -0.1112
 8170W        W12370   9.848   9.163   2.682  0.0887  0.0759  0.2288
 8171W        W12371   4.687   1.897   2.100  0.3749 -0.0881  0.0004
 8172W        W12372   6.137   7.615   1.490 -0.1021  0.2619  0.2799
 8173W        W12373   7.114   0.630   1.146 -0.2086 -0.0699  0.1355
 8174W        W12374   8.310   9.569  11.990  0.0351  0.2557 -0.3447
 8175W        W12375   1.060   3.696   3.973  0.3165 -0.2571  0.2409
 8176W        W12376   2.333   2.154  12.477 -0.2231  0.1692 -0.2321
 8177W        W12377   9.219   1.721   3.658 -0.0999 -0.2836 -0.1572
 8178W        W12378   4.654   5.091   3.814 -0.1933 -0.1826  0.1015
 8179W        W12379   9.851   6.056   1.825 -0.1354 -0.0311 -0.0507
 8180W        W12380   1.599   9.239   1.599 -0.1052 -0.1621  0.0383
 8181W        W12381   5.125   8.114  10.544  0.0810 -0.0561 -0.0520
 8182W        W12382   0.456   8.156  10.487  0.0584  0.2290 -0.0556
 8183W        W12383   3.877   0.273   3.661  0.2290  0.0519 -0.5005
 8184W        W12384   3.685   7.062   0.540 -0.2464  0.0714  0.0416
 8185W        W12385  10.446   5.722  10.621  0.1576 -0.1383  0.1183
 8186W        W12386   5.161   8.838  11.223  0.1957  0.0425  0.0582
 8187W        W12387   7.910   9.051  12.247  0.0876 -0.0049  0.0948
 8188W        W12388   7.336  10.293  10.940  0.2772 -0.0370 -0.3773
 8189W        W12389   9.740   6.765  13.513 -0.2549  0.5498  0.4411
 8190W        W12390   2.295   5.087  12.014 -0.2931  0.1619  0.2913
 8191W        W12391   5.464   8.873   3.527 -0.2344 -0.3152  0.0012
 8192W        W12392   7.960   3.645   8.819  0.0047 -0.0662  0.1069
 8193W        W12393   9.364   4.292  12.298  0.0352  0.0793 -0.1503
 8194W        W12394   3.802   2.805  12.540  0.1617 -0.0205 -0.0605
 8195W        W12395  10.062   4.491  10.571 -0.2169 -0.1945 -0.1663
 8196W        W12396   2.182   4.509   1.453  0.2911  0.0262 -0.0576
 8197W        W12397   8.190   4.686  10.867 -0.0306  0.1064  0.3121
 8198W        W12398   7.990   4.753   3.391  0.0602  0.1444  0.0972
 8199W        W12399   7.866   5.302   4.337  0.1979  0.2733 -0.0480
 8200W        W12400   9.239   1.162   3.785 -0.1167  0.0303  0.2110
 8201W        W12401   4.334   0.191  13.023  0.2502 -0.1841  0.0485
 8202W        W12402   9.134   1.605  10.214 -0.1247  0.1277  0.1716
 8203W        W12403   6.157   7.562  12.743  0.0928  0.1302  0.0687
 8204W        W12404   8.179   9.373  13.294  0.2469  0.3949 -0.2951
 8205W        W12405   1.161   1.547   3.150  0.1356  0.1623 -0.2675
 8206W        W12406   0.766   0.369  13.481 -0.2203 -0.0179 -0.1678
 8207W        W12407   8.942   4.080   2.513  0.3319 -0.0466 -0.0252
 8208W        W12408   6.008   0.740   9.332  0.0065  0.3205  0.2541
 8209W        W12409   5.068   1.652   4.254 -0.2586 -0.3674 -0.1057
 8210W        W12410   0.821   2.921  13.461 -0.0089  0.1799  0.0114
 8211W        W12411  10.321   3.604   3.418 -0.0029  0.0419  0.3570
 8212W        W12412   1.306   0.042  10.096 -0.1485 -0.4074 -0.2719
 8213W        W12413   7.772   1.315   9.107  0.1225  0.0658 -0.0509
 8214W        W12414   2.283   1.565   9.410  0.0557  0.0832 -0.0152
 8215W        W12415   3.720   8.793  12.725 -0.0879 -0.3275  0.1172
 8216W        W12416   9.361   8.242   9.893  0.2231 -0.0470 -0.1867
 8217W        W12417   3.502   7.398  10.728 -0.0356 -0.0586  0.1535
 8218W        W12418   3.864   5.493   4.047  0.0660  0.1734 -0.1058
 8219W        W12419   9.214   8.639   1.805 -0.0953 -0.0553  0.2297
 8220W        W12420   4.162   0.744   3.460  0.1128 -0.2002  0.2432
 8221W        W12421   0.614   3.783   1.459 -0.1973  0.1945  0.0870
 8222W        W12422   7.692   9.910  11.864 -0.0308  0.0651  0.0082
 8223W        W12423   1.300   0.592  12.099  0.0825 -0.0289 -0.2463
 8224W        W12424   8.383   4.734   3.825 -0.0432  0.1622 -0.0357
 8225W        W12425   0.615   8.649   4.159 -0.0151 -0.0359 -0.1623
 8226W        W12426   8.007   6.132   2.370  0.1375  0.0503  0.1395
 8227W        W12427   3.689   9.023   1.077  0.1797  0.2458 -0.0186
 8228W        W12428   8.283   1.220  10.021  0.2330  0.1252 -0.1090
 8229W        W12429   8.182   5.267   3.299 -0.0209  0.5682 -0.1947
 8230W        W12430   5.949   2.379   3.852  0.0109 -0.2798 -0.1124
 8231W        W12431   6.796  10.418  12.826  0.2250  0.0311 -0.0878
 8232W        W12432   7.834   5.619   8.986  0.0747  0.0172 -0.1995
 8233W        W12433   3.092   6.435   4.863 -0.1429 -0.1063  0.1274
 8234W        W12434   7.066   0.471   2.339  0.0310  0.0729  0.2972
 8235W        W12435   8.874   9.456  10.051 -0.1394 -0.0414 -0.0317
 8236W        W12436   0.700   4.228   9.647  0.3611 -0.1101 -0.2391
 8237W        W12437   1.534  10.003  13.106  0.1398  0.0738  0.0777
 8238W        W12438   8.585   3.520   1.564 -0.0110  0.2885 -0.0018
 8239W        W12439   0.907  10.409   2.813  0.0564  0.2353  0.0419
 8240W        W12440   8.742   9.239  11.812 -0.0008 -0.0204  0.0351
 8241W        W12441   9.157   9.387  13.367  0.1669  0.5383  0.0060
 8242W        W12442   6.201   8.103   9.216 -0.1200  0.1748 -0.0532
 8243W        W12443   0.828   2.780   4.229  0.0511  0.0823 -0.0270
 8244W        W12444   3.076   5.543  11.676 -0.0282  0.3767  0.1554
 8245W        W12445   7.341   6.121   9.685  0.0996 -0.2411  0.1183
 8246W        W12446   7.597   7.152   9.594 -0.2191  0.1455  0.4877
 8247W        W12447   2.172   1.866   8.512 -0.1029 -0.0035 -0.1726
 8248W        W12448   1.769   6.738   1.830 -0.0859  0.2968  0.1467
 8249W        W12449   8.438   5.852   2.337 -0.3725 -0.1552 -0.0139
 8250W        W12450   9.918   6.114   9.351 -0.1655  0.3709  0.2466
 8251W        W12451   8.459   8.507  11.205 -0.0351 -0.0073  0.1101
 8252W        W12452   2.996   7.338  10.913  0.0065 -0.2146  0.1441
 8253W        W12453   2.809   5.964   9.574  0.0955  0.0220  0.1645
 8254W        W12454   4.700   2.627   4.311  0.0446  0.1351  0.3428
 8255W        W12455   0.810   8.900   2.125  0.0262 -0.1396  0.1153
 8256W        W12456   2.058   2.598   2.259  0.0831  0.0475 -0.1107
 8257W        W12457   7.538   7.708   2.444 -0.1604  0.1300  0.2232
 8258W        W12458   1.062   8.213  12.805 -0.0421 -0.1002  0.0467
 8259W        W12459  10.021   5.583   0.580 -0.0367  0.1126 -0.1800
 8260W        W12460   4.573   2.321  10.182 -0.1547 -0.0465  0.0944
 8261W        W12461   5.305  10.367   0.130  0.2676 -0.2764 -0.0499
 8262W        W12462  10.422   9.276   0.588 -0.1491 -0.3724  0.1411
 8263W        W12463   2.347   8.250   3.906  0.0466  0.0136 -0.2365
 8264W        W12464   6.392   9.027  13.346 -0.0162  0.3575  0.1353
 8265W        W12465  10.156   4.331  11.696 -0.0056 -0.1112 -0.1346
 8266W        W12466   0.073   7.346   3.952  0.1164 -0.3436  0.0150
 8267W        W12467   8.136  10.094   1.581  0.2126  0.0466 -0.0676
 8268W        W12468   1.089  10.269  10.951 -0.0363 -0.0430  0.3214
 8269W        W12469   1.834   3.500  10.611 -0.2097 -0.5848  0.1152
 8270W        W12470   2.297   0.585   2.991  0.1355 -0.0043 -0.0859
 8271W        W12471   3.132   1.598   4.104  0.2449 -0.0009 -0.2342
 8272W        W12472   5.265   9.905   3.796 -0.1187  0.1456  0.0748
 8273W        W12473   9.089   6.432   9.129 -0.1695 -0.0451 -0.2872
 8274W        W12474   7.241   6.291   2.259 -0.1940 -0.1845  0.0564
 8275W        W12475   4.873   8.377   9.435 -0.0393 -0.3655  0.2316
 8276W        W12476   9.860   8.016  10.529  0.0731  0.0186  0.0361
 8277W        W12477   7.164   5.523  10.825  0.3028  0.0199 -0.3148
 8278W        W12478   0.990   1.281   1.672 -0.2237 -0.0396 -0.1789
 8279W        W12479   7.015   2.185   3.661 -0.2083  0.2186  0.1319
 8280W        W12480   4.405   5.904   1.860  0.1297  0.2542 -0.3381
 8281W        W12481   6.754   3.504   3.336 -0.2597 -0.2428 -0.2460
 8282W        W12482   4.232   7.262  13.287  0.0789  0.1482  0.1333
 8283W        W12483   4.738   1.218   5.001 -0.0362  0.0247 -0.2523
 8284W        W12484   5.903   9.332  12.260 -0.0138 -0.0134  0.0756
 8285W        W12485   3.954   5.381  11.015 -0.2178 -0.1076  0.0436
 8286W        W12486   1.162   8.759   0.179 -0.0177  0.1246 -0.0360
 8287W        W12487   8.029   0.090   8.300  0.1372 -0.2479  0.0167
 8288W        W12488   8.664   4.760  10.605 -0.3285  0.0127  0.1299
 8289W        W12489   4.682   1.328   4.021 -0.1874 -0.3283  0.2513
 8290W        W12490   0.272   5.117   2.152  0.2236  0.0020 -0.1286
 8291W        W12491   0.807   7.299  11.259  0.0551 -0.1865 -0.0037
 8292W        W12492   5.167   2.399   1.434  0.2895  0.1022  0.2465
 8293W        W12493   9.435   0.039   4.502 -0.2003  0.2367 -0.0253
 8294W        W12494   0.315   3.382  13.426  0.3053 -0.0167  0.1180
 8295W        W12495   8.357   0.445   0.427  0.0271 -0.0424  0.0240
 8296W        W12496   0.964   3.979  13.035 -0.0017  0.1787 -0.1299
 8297W        W12497  10.380   7.412  11.636 -0.2053  0.1738 -0.3968
 8298W        W12498   6.253   1.552   4.201 -0.1997 -0.0305 -0.1575
 8299W        W12499   6.170   1.374   2.256  0.0897  0.0176 -0.0788
 8300W        W12500   8.834   5.459   4.705 -0.4337 -0.2998 -0.0106
 8301W        W12501  10.113   9.993   3.334  0.1808  0.0683 -0.3285
 8302W        W12502   2.085   8.551   0.047 -0.1251 -0.1050 -0.2343
 8303W        W12503   3.414   0.676  11.653 -0.2347  0.1003 -0.2284
 8304W        W12504   2.932   4.891   4.529  0.2758 -0.0641  0.0572
 8305W        W12505   2.008   5.406   2.527 -0.0240 -0.1828  0.1573
 8306W        W12506   2.802   0.668   2.370  0.2386  0.2074  0.1490
 8307W        W12507   5.379   7.016   3.869  0.2265 -0.1331  0.2792
 8308W        W12508   1.121   4.458   2.231 -0.0217 -0.2128 -0.0624
 8309W        W12509   3.805   8.288   9.505  0.1671  0.1484  0.0780
 8310W        W12510   5.872   4.694  12.969 -0.1163  0.1104  0.0177
 8311W        W12511   7.470   9.724  10.126  0.1637  0.0877 -0.0654
 8312W        W12512   0.852   8.411  11.309 -0.0036 -0.0454 -0.0088
 8313W        W12513   7.010   5.201  11.820 -0.2286 -0.2435 -0.2743
 8314W        W12514   7.074   8.898   2.786  0.2890  0.0992 -0.1356
 8315W        W12515   3.540   2.016   0.127 -0.0306 -0.0335 -0.0965
 8316W        W12516   7.541   2.231  13.306 -0.1599 -0.2082  0.0518
 8317W        W12517   7.978   4.047   4.946  0.1278  0.1168  0.0633
 8318W        W12518   8.586   5.280   5.648 -0.0840 -0.2572  0.1636
 8319W        W12519   3.400   2.588  10.763 -0.0378  0.0569  0.0959
 8320W        W12520   3.973   2.173  13.406 -0.2442 -0.3305  0.3356
 8321W        W12521   4.876   8.432  11.965 -0.0773 -0.0675 -0.1093
 8322W        W12522   0.386   8.845  10.991 -0.0899  0.0751 -0.2705
 8323W        W12523   1.484   4.253   9.888 -0.0615  0.3121 -0.3165
 8324W        W12524   8.794   6.955   0.123 -0.0301 -0.0012  0.0414
 8325W        W12525   4.598   8.798  12.726  0.0400  0.0977  0.0602
 8326W        W12526   2.680   1.034  11.733 -0.0082  0.1685  0.0680
 8327W        W12527   1.764   3.669   1.728  0.1720 -0.0374  0.1091
 8328W        W12528   3.596   2.160  11.887  0.1107 -0.0188 -0.0237
 8329W        W12529   6.508   1.332   0.154  0.0666  0.1803 -0.1629
 8330W        W12530   1.700   2.198   9.870  0.1331  0.3918  0.2417
 8331W        W12531   5.479   2.376  11.533  0.0929 -0.2759  0.1366
 8332W        W12532   4.818   5.366   2.692  0.2733 -0.1277  0.1296
 8333W        W12533   1.063   6.669   1.063  0.2143 -0.1839  0.1795
 8334W        W12534   1.368   6.904   0.561  0.3057  0.1593 -0.0041
 8335W        W12535   2.537   1.783   1.430  0.3015 -0.0963  0.2696
 8336W        W12536   7.945   4.559  11.335  0.0673 -0.2480  0.2360
 8337W        W12537   9.588   4.386  11.531  0.0127 -0.3830 -0.3768
 8338W        W12538   5.863   6.621   0.420  0.3404  0.0218  0.2786
 8339W        W12539   7.416   3.241   4.402 -0.1522 -0.0351  0.0105
 8340W        W12540   6.381   9.614   1.282  0.4739 -0.1483 -0.0757
 8341W        W12541   9.724   8.464  12.347  0.2137 -0.1218  0.1598
 8342W        W12542   6.517   0.143   1.775  0.2725 -0.2688 -0.0925
 8343W        W12543   6.751   9.459  13.432  0.1067  0.4289 -0.2312
 8344W        W12544   7.489   6.213   4.338 -0.1816  0.0667  0.1511
 8345W        W12545   8.192  10.137   4.029 -0.0313  0.2123 -0.0164
 8346W        W12546   1.435   1.448   1.901  0.2199  0.1279 -0.0703
 8347W        W12547   2.557   6.262  12.702  0.2119 -0.1926 -0.0236
 8348W        W12548   0.671   7.926  12.640  0.1280  0.0073  0.1872
 8349W        W12549   4.779   9.297   4.271 -0.3077  0.3261  0.0112
 8350W        W12550   1.463   2.225   2.697  0.2771  0.1329 -0.2942
 8351W        W12551   4.597   7.975   9.156 -0.0256  0.1163 -0.1730
 8352W        W12552   9.490   7.194  12.216 -0.1375 -0.0569  0.1086
 8353W        W12553   6.230   2.003   5.122 -0.0335  0.1452  0.2379
 8354W        W12554   5.036   6.729   2.129 -0.0546  0.0498 -0.1895
 8355W        W12555   0.133   3.330   2.545 -0.2770  0.0476 -0.2876
 8356W        W12556   5.509   0.229   0.414 -0.1063 -0.0235  0.0492
 8357W        W12557   3.288   2.458   0.384  0.2141  0.0461 -0.0769
 8358W        W12558   1.916   3.877   1.263 -0.0748  0.0722 -0.1130
 8359W        W12559   2.092   5.085  11.546  0.0965  0.0102  0.0234
 8360W        W12560   5.531   5.583   3.756  0.0699  0.0443  0.1111
 8361W        W12561   8.108   3.841   1.456  0.5091  0.0791 -0.1976
 8362W        W12562   8.767   3.224   2.747 -0.1532  0.4278 -0.1507
 8363W        W12563   5.141  10.222   3.076  0.0666  0.2214  0.0400
 8364W        W12564   6.447   4.397   9.588 -0.1739 -0.1634  0.1528
 8365W        W12565   0.002   3.517   0.750 -0.2821 -0.0767  0.0635
 8366W        W12566   5.914   1.910  11.619  0.1964  0.1600 -0.3081
 8367W        W12567   8.052   7.341  12.545 -0.0313 -0.1422  0.1999
 8368W        W12568   7.626   4.530   3.718  0.0387 -0.0734 -0.0661
 8369W        W12569   1.847   5.515  11.472  0.1286 -0.1163  0.0169
 8370W        W12570   2.947   4.649  12.564 -0.1786 -0.1829 -0.0434
 8371W        W12571   2.014   0.828  13.031  0.2236 -0.0112 -0.0385
 8372W        W12572   0.495   9.457   1.832 -0.0006 -0.1194 -0.0324
 8373W        W12573   9.042   6.149  11.602  0.1221 -0.0382  0.3442
 8374W        W12574   5.704   3.446  13.464 -0.2127  0.0338  0.3956
 8375W        W12575   6.751   4.952  12.777  0.1327 -0.0488  0.2658
 8376W        W12576   3.531   9.421  11.714  0.1798  0.0037 -0.0959
 8377W        W12577   2.479   1.966  10.819 -0.0834  0.0223  0.2878
 8378W        W12578   4.978   3.027   0.323 -0.0902 -0.2113 -0.1848
 8379W        W12579   1.235   8.110  12.121 -0.2013  0.2936 -0.1343
 8380W        W12580   8.225   7.974  12.934 -0.1626  0.1767 -0.3147
 8381W        W12581   2.698   0.738  12.898 -0.0547  0.0517  0.1790
 8382W        W12582   2.621   5.562   3.009 -0.0008  0.0380 -0.1177
 8383W        W12583   9.967   4.201  12.318 -0.4644 -0.3088 -0.0008
 8384W        W12584   4.873   1.603   1.289  0.1900 -0.2130  0.2398
 8385W        W12585   8.263   0.708  12.313 -0.0055  0.1332 -0.2065
 8386W        W12586   6.287   1.615   1.689  0.2322  0.0208 -0.0909
 8387W        W12587   9.146   0.828   2.898 -0.0950 -0.3570  0.4437
 8388W        W12588   2.310   7.466   0.627  0.1298  0.1206 -0.0630
 8389W        W12589   0.799   6.103  12.876  0.1377  0.0532  0.1619
 8390W        W12590   8.929   1.493  10.771 -0.2053 -0.0943 -0.0630
 8391W        W12591   2.596   2.046  12.031  0.4130  0.0181 -0.1540
 8392W        W12592   5.401   1.019  11.914  0.2757  0.3663  0.2370
 8393W        W12593   8.773   5.777  13.187  0.0806 -0.3360 -0.2163
 8394W        W12594   8.637   2.705   9.926 -0.2936  0.0352  0.2933
 8395W        W12595   1.968   4.911   9.283  0.0172  0.0292  0.0011
 8396W        W12596   7.167   1.995   5.005  0.3553 -0.1571  0.1687
 8397W        W12597   9.799   0.772   3.904 -0.0580  0.1597 -0.0626
 8398W        W12598   4.281   5.499  10.675 -0.1764 -0.1677  0.1194
 8399W        W12599   8.596   5.121   3.625  0.0594  0.4870 -0.3340
 8400W        W12600   6.839   3.905   1.143  0.1440 -0.0799  0.1405
 8401W        W12601   3.559   2.893   0.320 -0.0240  0.0159 -0.0515
 8402W        W12602   8.841   0.241   1.854 -0.1453  0.1217  0.0544
 8403W        W12603   0.116   8.957  13.181  0.1605  0.2981 -0.5542
 8404W        W12604   7.305   2.540   2.441  0.3415  0.1717 -0.0003
 8405W        W12605   6.706   4.219  12.299  0.0485  0.0583 -0.0629
 8406W        W12606   1.215   7.477   3.211  0.1477 -0.2003 -0.1766
 8407W        W12607   1.324   1.911   0.434  0.2274  0.1274  0.1001
 8408W        W12608   4.162   7.883   2.767 -0.1257 -0.0458  0.2209
 8409W        W12609   7.490   9.669   4.353  0.0005  0.1965  0.0114
 8410W        W12610   1.114   3.298  12.168 -0.2528  0.1561 -0.0564
 8411W        W12611   5.244   8.839   2.416 -0.1270  0.2250 -0.2480
 8412W        W12612  10.189   5.710   9.614 -0.0492 -0.0692  0.0589
 8413W        W12613   9.585   3.657  13.039  0.0076 -0.2516  0.2658
 8414W        W12614   5.264   4.006   3.095 -0.3894 -0.0274  0.0059
 8415W        W12615   2.702   5.185   0.302  0.1449  0.0156 -0.2231
 8416W        W12616   9.015   3.014   3.674 -0.2275 -0.1268  0.0033
 8417W        W12617   8.506   5.662   1.796  0.2042 -0.0983 -0.1963
 8418W        W12618   9.508   3.599   0.875 -0.0591 -0.1543  0.1397
 8419W        W12619   9.550   6.916  12.587  0.0992  0.4098 -0.0693
 8420W        W12620   3.470   5.587   2.212  0.0744 -0.0009 -0.2059
 8421W        W12621   9.239   4.256   3.728 -0.2474  0.0349  0.1462
 8422W        W12622   7.188   3.194  10.484 -0.4076 -0.2083 -0.1938
 8423W        W12623   1.552   0.981  10.237 -0.0387 -0.2441 -0.0581
 8424W        W12624   0.916   4.129  12.542  0.0880  0.1037  0.3976
 8425W        W12625   7.341   3.697   0.196 -0.0800 -0.0632  0.0753
 8426W        W12626   1.793   3.991  10.803 -0.1866  0.0465  0.2221
 8427W        W12627   9.249   3.114   3.077 -0.1845  0.1775  0.3971
 8428W        W12628   9.750   7.033   3.392 -0.0877  0.2709 -0.1314
 8429W        W12629   7.541   7.091   0.149 -0.2540  0.0608  0.3295
 8430W        W12630   2.273   6.485   0.547  0.0570 -0.0941 -0.2820
 8431W        W12631   5.767  10.389  12.362 -0.0187  0.1003 -0.1549
 8432W        W12632   2.533   8.500  11.314 -0.1289 -0.1140 -0.2934
 8433W        W12633   6.729   7.551  11.483 -0.2580  0.5664  0.4634
 8434W        W12634   0.276   8.249  12.483 -0.0436 -0.1384 -0.3492
 8435W        W12635   3.545   2.842   1.910 -0.2805  0.2588  0.1073
 8436W        W12636   1.065   6.251   2.649  0.0120  0.0077  0.0824
 8437W        W12637  10.086   4.938  11.926 -0.2750  0.0895 -0.4718
 8438W        W12638   2.150   2.963   0.442  0.1167 -0.5888  0.2671
 8439W        W12639   0.291   6.370  11.857 -0.0314 -0.1220  0.0468
 8440W        W12640   4.190   8.238   0.041 -0.3258 -0.0816 -0.2853
 8441W        W12641   4.701   0.142   4.833  0.0907 -0.2287  0.1121
 8442W        W12642   3.943  10.439   1.379 -0.0716  0.1154  0.0985
 8443W        W12643   2.400   9.314  13.042  0.1626 -0.1029 -0.0524
 8444W        W12644   9.542   3.158   1.789  0.1583  0.0582  0.0806
 8445W        W12645   2.894   7.361   9.712  0.4948  0.1994 -0.1550
 8446W        W12646   5.158   7.204   0.775 -0.0946 -0.2430  0.1316
 8447W        W12647   5.838   6.090   2.887 -0.1613  0.2262 -0.1000
 8448W        W12648   3.305   0.403  11.135  0.2768 -0.1083  0.0738
 8449W        W12649   6.492   9.827  11.277 -0.0024 -0.2106 -0.4011
 8450W        W12650   9.983   7.314   3.824 -0.0129 -0.1331 -0.0133
 8451W        W12651   8.423   9.445  10.887  0.1781 -0.1567  0.0688
 8452W        W12652  10.170   7.680  10.711  0.1663  0.3694  0.1847
 8453W        W12653   6.511   5.784  10.739  0.0505  0.1053 -0.1722
 8454W        W12654   5.576  10.074   4.229  0.0884  0.2055 -0.0259
 8455W        W12655   7.970   3.835   3.231 -0.0622 -0.0910 -0.1156
 8456W        W12656   6.881   8.943  13.480 -0.3670 -0.0460  0.0566
 8457W        W12657   3.123   7.647   1.329  0.2257 -0.1743  0.0783
 8458W        W12658   8.959   0.909   4.539  0.0746 -0.0716  0.2397
 8459W        W12659   0.475   2.892   0.836 -0.2938 -0.0874 -0.1252
 8460W        W12660  10.380   5.400   4.486 -0.1503  0.0121 -0.2255
 8461W        W12661   5.800   8.660  10.551 -0.1639 -0.2398  0.0898
 8462W        W12662   2.430   2.684  12.785 -0.1831 -0.0309 -0.0701
 8463W        W12663   8.346   6.375   0.881  0.0395 -0.2848 -0.0679
 8464W        W12664   8.909  10.237  12.503 -0.2865  0.1170  0.1580
 8465W        W12665   8.236   3.948  11.613 -0.1283 -0.0689  0.0881
 8466W        W12666   5.594   7.266   9.928  0.1516  0.1738  0.2491
 8467W        W12667   1.610   8.494   0.927 -0.2095 -0.1169  0.1068
 8468W        W12668   3.863   9.986   9.432  0.0460  0.1802  0.0786
 8469W        W12669   6.446   6.600   0.201 -0.0152  0.0990  0.3412
 8470W        W12670   2.376   2.864  12.314  0.2529  0.3278  0.0907
 8471W        W12671   8.820   5.571   2.745 -0.2489 -0.0972  0.2155
 8472W        W12672   2.613   0.769   4.820 -0.2458 -0.3239  0.1134
 8473W        W12673   9.272   0.864   0.281 -0.1601  0.0951  0.0175
 8474W        W12674   1.437   2.276  10.302 -0.4783 -0.0886 -0.1122
 8475W        W12675   6.892   1.103   8.573  0.0011  0.1281 -0.2321
 8476W        W12676   9.510   7.480  11.777 -0.0425  0.0404 -0.1548
 8477W        W12677   5.874   8.494  12.819 -0.0035 -0.0243 -0.1986
 8478W        W12678   6.115   0.879   9.847  0.2851 -0.0625  0.2423
 8479W        W12679   0.168   6.108   2.347 -0.0930  0.0541 -0.0969
 8480W        W12680   2.688   6.350   0.968  0.0167 -0.1477 -0.0064
 8481W        W12681   9.724   7.511   0.639  0.0706  0.3191 -0.3123
 8482W        W12682   6.847   5.374   0.963  0.1167  0.1142  0.0102
 8483W        W12683   6.921  10.442   2.766 -0.4521 -0.0765  0.3460
 8484W        W12684   6.967   1.531   2.405 -0.0925  0.3344  0.1151
 8485W        W12685   2.294   5.893   2.017  0.0052  0.0405  0.3136
 8486W        W12686  10.103   3.665  11.083  0.1888 -0.0519  0.1359
 8487W        W12687   9.261   5.346  12.005 -0.0251  0.3878 -0.1036
 8488W        W12688   6.486   4.830  10.432 -0.4666 -0.1586  0.0463
 8489W        W12689   5.610   2.972   1.934  0.1937  0.2781  0.3330
 8490W        W12690   2.320   8.557  11.805  0.1330  0.2497 -0.1572
 8491W        W12691  10.293   9.418   1.101 -0.0285  0.0759  0.0544
 8492W        W12692   5.789   9.811   3.713  0.1323  0.0326 -0.1113
 8493W        W12693   0.538   9.239   0.548  0.0872  0.1116  0.2025
 8494W        W12694   4.622   3.129  12.303 -0.3248  0.0827  0.0360
 8495W        W12695   5.502   9.772  11.579  0.1753  0.1469  0.0333
 8496W        W12696   0.518   4.742  11.875 -0.1128  0.0443  0.1389
 8497W        W12697   4.960  10.228  12.054  0.1855 -0.2132 -0.0223
 8498W        W12698   2.726   0.408  10.320 -0.1591 -0.0261 -0.2303
 8499W        W12699   8.982   5.520   1.598 -0.2758 -0.0337  0.0389
 8500W        W12700   7.126   5.381   2.105 -0.1321 -0.0349  0.3180
 8501W        W12701   9.139   1.807   5.071 -0.0548  0.0576  0.0438
 8502W        W12702   1.441   5.423  12.788  0.2410 -0.1040  0.1824
 8503W        W12703   8.491   2.738  10.961  0.2168  0.0175 -0.0136
 8504W        W12704   8.250   0.507   9.037  0.1113 -0.1121  0.1748
 8505W        W12705   7.540   4.476  11.690 -0.1413 -0.2191  0.0887
 8506W        W12706   9.835   6.816   3.872  0.0160 -0.3219  0.0598
 8507W        W12707   6.000   7.834   8.873 -0.1653 -0.1192  0.3055
 8508W        W12708   1.251   2.412   1.902  0.1047 -0.0948 -0.0741
 8509W        W12709   5.156   3.288   4.735 -0.1425 -0.2141  0.1185
 8510W        W12710   0.459   1.288   1.501 -0.3794 -0.3877 -0.1398
 8511W        W12711   3.099   4.412   2.878 -0.0177 -0.0569  0.2709
 8512W        W12712   2.399   2.797   0.848  0.1856  0.0555  0.2078
 8513W        W12713   3.783   9.809  12.746 -0.2290 -0.0708  0.1151
 8514W        W12714   4.576   1.749   4.334  0.0454  0.3040  0.1532
 8515W        W12715   6.051   5.224  12.700 -0.0697  0.1526  0.2723
 8516W        W12716  10.151   2.775   4.895  0.1464  0.0159 -0.1360
 8517W        W12717   9.374   9.379  12.572  0.1951 -0.2521 -0.1412
 8518W        W12718   5.776   6.141  10.468  0.0219  0.0386 -0.0069
 8519W        W12719   2.851   8.143   3.157 -0.1032  0.0707 -0.0493
 8520W        W12720   8.069   3.954   4.451 -0.0236 -0.0094  0.2596
 8521W        W12721   3.884   9.863  10.921 -0.0844  0.1281 -0.2658
 8522W        W12722   2.887   4.430  10.745 -0.1859  0.4784  0.0039
 8523W        W12723   5.552   6.415   2.123 -0.0084  0.0490 -0.1883
 8524W        W12724   6.073  10.223   1.061  0.1520  0.0530  0.0043
 8525W        W12725   1.546   3.488  12.405  0.3039  0.2468  0.1152
 8526W        W12726   5.809   8.461   1.815  0.2344  0.1176  0.1079
 8527W        W12727   9.521   9.099  13.492 -0.4457  0.0825 -0.2152
 8528W        W12728   1.797   0.841   3.595 -0.0279  0.1304 -0.0353
 8529W        W12729   9.350   4.218   1.772  0.0390  0.3864 -0.2006
 8530W        W12730   0.152   7.715  10.358 -0.3266  0.0619 -0.0570
 8531W        W12731   5.330   3.202   3.371 -0.0245 -0.2378  0.3521
 8532W        W12732   0.441   7.828   0.270 -0.0612  0.3439 -0.1412
 8533W        W12733   4.139   2.295  11.314 -0.1948  0.0634  0.0888
 8534W        W12734   1.643   4.510   0.725  0.0467 -0.5597  0.1114
 8535ION    NA+12735   3.108   2.829   0.698 -0.2677 -0.1574  0.2288
 8536ION    NA+12736   3.007   7.776  10.010  0.1942 -0.1421  0.0888
 8537ION    NA+12737   2.299   2.257   4.932 -0.1516 -0.1617  0.4520
 8538ION    NA+12738   5.370   8.257   8.621 -0.0893 -0.1880 -0.2302
 8539ION    NA+12739   4.289  10.076   8.714  0.1002  0.1558  0.0943
 8540ION    NA+12740   9.729   5.917  10.857  0.2682 -0.1828  0.1017
 8541ION    NA+12741   2.302   6.999  10.122  0.1132 -0.3654 -0.0242
 8542ION    NA+12742  10.348   9.522   2.333 -0.0390  0.2565 -0.2029
 8543ION    NA+12743   6.681   8.894  11.689  0.1657  0.3516  0.1581
 8544ION    NA+12744   4.875   9.289   4.780 -0.1887 -0.0485 -0.0191
 8545ION    NA+12745   6.139   9.222   1.503  0.0582  0.1014 -0.1669
 8546ION    NA+12746   8.854   6.592   3.853  0.0419 -0.0875 -0.2723
 8547ION    NA+12747   6.106   7.431   2.189  0.2265 -0.0191 -0.0550
 8548ION    NA+12748   3.477   4.643   9.172  0.0133 -0.0490  0.0576
 8549ION    NA+12749   7.797   2.350   4.914 -0.0241  0.2692 -0.0849
 8550ION    NA+12750   1.024   3.803  11.363  0.1292 -0.0543 -0.1228
 8551ION    NA+12751   7.609   5.112  10.038 -0.3575  0.3884 -0.1343
 8552ION    NA+12752   9.684   2.195  10.146  0.3667 -0.1681  0.1420
 8553ION    NA+12753   1.471  10.247   3.624  0.1084 -0.0709  0.1312
 8554ION    NA+12754  10.412   5.669   0.843 -0.1037 -0.0770 -0.0456
 8555ION    NA+12755   2.577   3.553   0.658 -0.2527 -0.1951 -0.4881
 8556ION    NA+12756   8.848   1.362   9.932 -0.1665 -0.1477  0.2209
 8557ION    NA+12757   6.626   7.540   4.944 -0.3196 -0.1408 -0.0738
 8558ION    NA+12758   8.565   8.906   4.428 -0.3022 -0.0992 -0.1388
 8559ION    NA+12759   6.974   1.134   1.040  0.1254 -0.1979 -0.2388
 8560ION    NA+12760   5.444  10.355   4.659  0.0470 -0.1597  0.0874
 8561ION    NA+12761   2.886   0.662   9.818  0.2342 -0.2894 -0.1020
 8562ION    NA+12762   2.688  10.335   1.388  0.0028 -0.4185 -0.1643
 8563ION    NA+12763   1.954   9.210  12.759  0.0536  0.1594 -0.2910
 8564ION    NA+12764   0.348   1.290   9.280 -0.1305 -0.4055 -0.1106
 8565ION    NA+12765   1.773   1.352   9.133 -0.0743  0.4963  0.0195
 8566ION    NA+12766   8.061   6.509  11.592 -0.4053  0.1696  0.2405
 8567ION    NA+12767   8.855   4.146  12.284 -0.2701 -0.0542  0.2742
 8568ION    NA+12768   3.325   4.009   0.427 -0.1616  0.0756 -0.0817
 8569ION    NA+12769   9.124   7.609   2.166 -0.1707  0.1856 -0.2922
 8570ION    NA+12770   0.575  10.173   3.864  0.1231  0.0958  0.3344
 8571ION    NA+12771   4.115   6.086  11.130 -0.0378 -0.0826 -0.0253
 8572ION    NA+12772   2.652   4.344   8.775 -0.0777  0.1006  0.0116
 8573ION    NA+12773   9.646   0.838   8.699  0.4368 -0.1170 -0.2401
 8574ION    NA+12774   9.147   7.897   0.224  0.0521 -0.1768 -0.0357
 8575ION    NA+12775   6.831   9.405  10.806 -0.1714  0.1409 -0.2597
 8576ION    NA+12776   4.597   7.198  10.342 -0.1517  0.0077 -0.2550
 8577ION    NA+12777   1.777   7.844  10.279  0.1781 -0.1436  0.1032
 8578ION    NA+12778   1.508   8.450   3.295 -0.0297 -0.0004  0.0511
 8579ION    NA+12779   8.253   3.423   3.508 -0.0066  0.0546  0.0304
 8580ION    NA+12780   3.516   5.727  11.044 -0.3314  0.0088  0.2133
 8581ION    NA+12781   6.042   7.348  10.092  0.0343  0.3370  0.0547
 8582ION    NA+12782  10.384   3.258  10.962 -0.2943  0.1955 -0.1013
 8583ION    NA+12783   9.652   2.898   0.552  0.0309  0.3270 -0.3616
 8584ION    NA+12784   2.890   9.103  12.272 -0.0734 -0.0262 -0.0065
 8585ION    NA+12785  10.435   4.478   8.609 -0.2046  0.3321 -0.2323
 8586ION    NA+12786   4.112   0.719  12.367  0.0075  0.0552 -0.1079
 8587ION    NA+12787   1.733   8.836  10.320 -0.0851 -0.0308 -0.5076
 8588ION    NA+12788   9.248   5.232  11.529  0.3529  0.0596 -0.3406
 8589ION    NA+12789   5.017   3.009  11.939 -0.3012 -0.0356 -0.2905
 8590ION    NA+12790   6.242   0.255   3.374  0.4076  0.0438 -0.3596
 8591ION    NA+12791   0.707   6.189   0.849  0.0957 -0.2210  0.4580
 8592ION    NA+12792   0.914   2.173   2.662 -0.0975  0.2703  0.1506
 8593ION    NA+12793   1.024   7.769   1.438 -0.3452 -0.0038  0.0529
 8594ION    NA+12794   6.751   2.036   8.711  0.0868  0.0553  0.0087
 8595ION    NA+12795   4.056   2.919   9.578  0.3750  0.1449 -0.0310
 8596ION    NA+12796   2.421   0.092  13.328  0.0454  0.2204 -0.2071
 8597ION    NA+12797   5.034   6.281  11.787  0.1017 -0.1497  0.1583
 8598ION    NA+12798   9.034   8.363   3.019  0.2340 -0.0751  0.0655
 8599ION    NA+12799   3.919   6.872   2.884 -0.1261 -0.2057  0.3374
 8600ION    NA+12800   4.364   2.707   0.909  0.2289  0.2352 -0.1941
 8601ION    NA+12801   1.650   0.767   3.061 -0.0407  0.1695 -0.0951
 8602ION    NA+12802  10.138   8.603  10.434  0.2228  0.0061  0.3133
 8603ION    NA+12803   6.436   0.178  10.482 -0.0326  0.0296  0.0613
 8604ION    NA+12804   5.961   7.466   2.917 -0.0191 -0.1069 -0.0894
 8605ION    NA+12805   2.636   1.798   0.529  0.0666  0.0389  0.3686
 8606ION    NA+12806   4.781   2.066   1.300  0.1355 -0.0773 -0.0389
 8607ION    NA+12807   9.552   4.669   9.049 -0.0311 -0.0258 -0.0439
 8608ION    NA+12808   1.350   5.633  13.368  0.1665  0.1391 -0.4379
 8609ION    NA+12809   1.493   6.428   1.556 -0.3740 -0.0464  0.1590
 8610ION    NA+12810   4.171   1.532   4.177 -0.0955 -0.2667  0.3315
 8611ION    NA+12811   6.780  10.173   9.012 -0.1339  0.0430  0.1605
 8612ION    NA+12812   9.832   6.194  12.889 -0.0817 -0.1621  0.1924
 8613ION    NA+12813   3.106   2.475   4.476 -0.3514 -0.1198 -0.2387
 8614ION    NA+12814   5.423   8.870  12.786 -0.0272  0.0487  0.0751
 8615ION    NA+12815   9.594   2.991  11.690  0.0324 -0.2267 -0.2272
 8616ION    NA+12816   0.305   0.195   0.796  0.0173  0.3060  0.0712
 8617ION    NA+12817   1.873   8.381   1.433  0.0088 -0.0370 -0.0636
 8618ION    NA+12818   5.998   4.520   3.807 -0.1819 -0.0273 -0.2266
 8619ION    NA+12819   5.033   9.060   1.954  0.4060  0.0878  0.2740
 8620ION    NA+12820   8.684   2.451  13.420 -0.0737  0.0541 -0.1369
 8621ION    NA+12821   8.075   6.623  12.774  0.0290  0.0298  0.0062
 8622ION    NA+12822   0.476   9.972   1.827  0.1334  0.1642  0.1582
 8623ION    NA+12823   2.143   5.090   3.732 -0.3227 -0.0814  0.3089
 8624ION    NA+12824   1.836   1.297  13.001 -0.1676 -0.0712 -0.3397
 8625ION    CL-12825   0.034   9.899   1.999 -0.1109  0.2677 -0.0831
 8626ION    CL-12826   5.094   6.701   4.129 -0.0236  0.3040 -0.3226
 8627ION    CL-12827   9.828   3.110   0.958  0.0891 -0.4745  0.0950
 8628ION    CL-12828   0.538   1.822   1.628  0.0889  0.0394  0.1571
 8629ION    CL-12829   4.527   9.190   1.311  0.0167 -0.1754  0.0594
 8630ION    CL-12830   4.406   2.203   4.247 -0.0994 -0.0561 -0.2289
 8631ION    CL-12831   6.205   0.424  10.884 -0.1955  0.1328  0.2252
 8632ION    CL-12832   7.815   9.752   8.852 -0.1430  0.0966  0.0660
 8633ION    CL-12833   9.026   5.707  10.225 -0.4965  0.2371  0.0703
 8634ION    CL-12834   3.759   3.366   9.766  0.2078 -0.0732 -0.1145
 8635ION    CL-12835   6.811   9.175  11.281 -0.1400  0.2799  0.1044
 8636ION    CL-12836   4.381   6.935  10.002 -0.1522  0.1511  0.1003
 8637ION    CL-12837   6.814   0.791   0.695  0.1173 -0.2791 -0.0419
 8638ION    CL-12838   8.222   4.827   9.414  0.1749 -0.2123 -0.1636
 8639ION    CL-12839   3.663   6.205  11.075 -0.0115 -0.0249  0.1055
 8640ION    CL-12840   5.568   4.456   3.547 -0.1022  0.1191 -0.1970
 8641ION    CL-12841   9.751   0.401  12.436 -0.0287 -0.3989 -0.0542
 8642ION    CL-12842   8.984   3.901   3.998  0.4535  0.1050 -0.0159
 8643ION    CL-12843   5.007   9.112  12.655 -0.0691  0.1260 -0.2325
 8644ION    CL-12844   5.746   7.234  12.690 -0.0446 -0.1331 -0.0394
 8645ION    CL-12845   1.635   6.760   1.116 -0.1038  0.2997  0.1231
 8646ION    CL-12846   0.329   1.334  10.151 -0.0516  0.0165  0.2837
 8647ION    CL-12847   8.311   3.431  12.455  0.1987 -0.2605  0.2429
 8648ION    CL-12848   1.899   1.411   2.637 -0.0208  0.2284 -0.0707
 8649ION    CL-12849  10.238   6.096  11.041  0.3534 -0.0991  0.2425
 8650ION    CL-12850   3.316   9.075  12.590  0.2492 -0.2254 -0.2636
 8651ION    CL-12851  10.177   2.452   4.277  0.2160 -0.0131 -0.1916
 8652ION    CL-12852   0.489   7.911   1.352 -0.1436  0.1848  0.0401
 8653ION    CL-12853   4.357   7.009   2.725  0.2854 -0.2979  0.1064
 8654ION    CL-12854   4.803   1.510   1.813  0.2729  0.1305  0.0054
 8655ION    CL-12855   6.621   7.414   2.290 -0.3573  0.1517  0.1225
 8656ION    CL-12856   2.836   0.006   0.189  0.0873 -0.1345  0.0746
 8657ION    CL-12857   6.753   7.905   4.582 -0.0667 -0.0703 -0.0006
 8658ION    CL-12858   6.460   5.894   0.888  0.3553  0.0820 -0.0309
 8659ION    CL-12859   0.704   6.388  11.597  0.1600  0.3398 -0.0265
 8660ION    CL-12860   2.584   5.222   4.458 -0.0446  0.2915  0.0569
 8661ION    CL-12861   8.019   2.735   3.453 -0.0887 -0.1711  0.1446
 8662ION    CL-12862   1.488  10.073  10.003 -0.1575  0.1778  0.2891
 8663ION    CL-12863   8.645   2.027   9.454  0.2600  0.4204 -0.3860
 8664ION    CL-12864   4.554   2.235   0.885 -0.3768 -0.2891  0.1907
 8665ION    CL-12865   9.983   1.844  12.900 -0.1110  0.2071 -0.0211
 8666ION    CL-12866   9.315   0.622   3.711 -0.1132 -0.0611 -0.1000
 8667ION    CL-12867   8.361   8.140   3.899 -0.0128 -0.2105 -0.1643
 8668ION    CL-12868   5.980   3.760   4.576 -0.3849 -0.0228  0.3201
 8669ION    CL-12869   5.198   0.027   9.215 -0.0712  0.0722  0.0517
 8670ION    CL-12870   1.003   0.605  10.885 -0.1251 -0.0715  0.0180
 8671ION    CL-12871   2.358   1.484   0.168 -0.0562  0.3874 -0.1251
 8672ION    CL-12872   5.160   7.566   9.843 -0.2266 -0.1839  0.1255
 8673ION    CL-12873   8.171   3.975  10.636 -0.1562 -0.0727  0.0216
 8674ION    CL-12874   9.874   6.440  10.278 -0.2689 -0.2031 -0.1093
 8675ION    CL-12875   0.499   4.721   9.730  0.3144  0.2279 -0.3762
 8676ION    CL-12876   6.337   8.469  11.833 -0.2095  0.2301 -0.1063
 8677ION    CL-12877   3.075   4.508   3.717 -0.0319  0.0313 -0.2572
 8678ION    CL-12878   8.641   2.012   0.123  0.5030  0.1316 -0.2751
 8679ION    CL-12879   9.605   7.654   0.162 -0.1189  0.0367 -0.0397
 8680ION    CL-12880   0.194   6.111   0.738  0.2079 -0.2696  0.0947
 8681ION    CL-12881   1.753   5.912  13.135  0.0972  0.2263 -0.0351
 8682ION    CL-12882   1.192   0.619   0.048 -0.1441  0.1135  0.0810
 8683ION    CL-12883   9.127   7.874   2.740 -0.2592 -0.1516 -0.0488
 8684ION    CL-12884   2.716   4.926   9.709  0.2480 -0.0947 -0.0876
 8685ION    CL-12885   8.494   0.341  12.623 -0.1899  0.2039  0.2592
 8686ION    CL-12886   1.808   7.902   1.494  0.1547  0.3309 -0.1542
 8687ION    CL-12887   6.308   2.912   4.544  0.3338  0.3849 -0.1731
 8688ION    CL-12888   3.720   9.154   3.671  0.1062 -0.1399  0.3560
 8689ION    CL-12889   2.686   0.242   9.839  0.1266  0.1739  0.1074
 8690ION    CL-12890   3.961   2.985   0.969 -0.0118 -0.3301  0.1979
 8691ION    CL-12891   0.420   2.332  12.116  0.0630 -0.0554  0.1006
 8692ION    CL-12892   2.410   9.053  11.981 -0.0138  0.2435 -0.0754
 8693ION    CL-12893   6.065   7.691   3.306  0.2613 -0.0891  0.1602
 8694ION    CL-12894   8.020   6.378   0.237  0.1965  0.0812 -0.0401
 8695ION    CL-12895   5.786   0.434   3.536 -0.0469 -0.0610 -0.0896
 8696ION    CL-12896   9.329   9.583  10.709  0.1098 -0.2964 -0.4768
 8697ION    CL-12897   8.459   6.470   3.553  0.0936 -0.2607  0.0549
 8698ION    CL-12898   4.562   0.415   3.441 -0.0237  0.1145  0.4060
 8699ION    CL-12899   5.559   2.518   2.825 -0.2956  0.3572  0.0412
 8700ION    CL-12900   2.677   7.315  10.188 -0.1931 -0.0449  0.2134
 8701ION    CL-12901   8.271   9.003   3.992  0.1724  0.1626 -0.0999
 8702ION    CL-12902   9.536   5.697  11.438  0.1020  0.1059  0.0947
 8703ION    CL-12903   3.937   5.868  10.732 -0.1173  0.2332 -0.1822
 8704ION    CL-12904   7.655   1.506   9.658 -0.2874  0.0048  0.0104
 8705ION    CL-12905  10.155  10.265   0.112  0.1922  0.0879  0.1504
 8706ION    CL-12906  10.229   9.016   2.384  0.0405  0.0314  0.1205
 8707ION    CL-12907   0.085   5.681   3.643  0.3141  0.0098  0.0594
 8708ION    CL-12908   0.698   2.619   2.779  0.0077 -0.1936  0.0045
 8709ION    CL-12909   3.919   5.232   9.814  0.0205 -0.2196 -0.3016
 8710ION    CL-12910   0.410  10.029  12.841  0.0410  0.1042 -0.2723
 8711ION    CL-12911   1.810   1.299  12.518  0.0436 -0.2101 -0.1311
 8712ION    CL-12912   2.731   3.897   9.067  0.1019 -0.0471 -0.1373
 8713ION    CL-12913   8.227   9.996   9.516  0.3076 -0.0302 -0.1445
 8714ION    CL-12914   9.498   7.273   2.129 -0.2859  0.0990  0.4041
  10.45531  10.45531  13.52323
