Protein in INSANE! Membrane UpperLeaflet>POPC=1.0 LowerLeaflet>POPC=1.0
11530
    1AU     AUC    1   5.243   5.293   6.012
    1AU     AUC    2   5.528   5.333   5.855
    1AU     AUC    3   5.517   5.332   6.184
    1AU     AUC    4   4.956   5.282   5.838
    1AU     AUC    5   4.983   5.282   6.195
    1AU     AUC    6   5.056   5.536   6.038
    1AU     AUC    7   5.379   5.567   6.017
    1AU     AUC    8   5.081   5.013   5.988
    1AU     AUC    9   5.445   5.058   6.025
    1AU     AUC   10   5.275   5.120   6.274
    1AU     AUC   11   5.235   5.455   6.297
    1AU     AUC   12   5.272   5.146   5.734
    1AU     AUC   13   5.237   5.473   5.744
    1AU     AUC   14   5.845   5.348   5.685
    1AU     AUC   15   5.876   5.363   6.046
    1AU     AUC   16   5.823   5.349   6.390
    1AU     AUC   17   4.663   5.265   5.669
    1AU     AUC   18   4.632   5.255   6.031
    1AU     AUC   19   4.677   5.247   6.385
    1AU     AUC   20   4.875   5.838   6.045
    1AU     AUC   21   5.216   5.906   6.007
    1AU     AUC   22   5.537   5.893   6.009
    1AU     AUC   23   4.911   4.700   5.943
    1AU     AUC   24   5.262   4.713   5.974
    1AU     AUC   25   5.628   4.762   6.007
    1AU     AUC   26   5.289   4.897   6.557
    1AU     AUC   27   5.241   5.243   6.618
    1AU     AUC   28   5.254   5.613   6.585
    1AU     AUC   29   5.306   4.963   5.433
    1AU     AUC   30   5.264   5.304   5.437
    1AU     AUC   31   5.238   5.660   5.453
    1AU     AUC   32   5.560   5.089   6.500
    1AU     AUC   33   5.541   5.460   6.525
    1AU     AUC   34   5.585   5.111   5.557
    1AU     AUC   35   5.593   5.489   5.526
    1AU     AUC   36   4.956   5.064   6.504
    1AU     AUC   37   4.958   5.426   6.519
    1AU     AUC   38   4.954   5.144   5.517
    1AU     AUC   39   4.922   5.483   5.524
    1AU     AUC   40   5.724   5.630   5.846
    1AU     AUC   41   5.705   5.620   6.223
    1AU     AUC   42   4.752   5.548   5.840
    1AU     AUC   43   4.753   5.556   6.237
    1AU     AUC   44   5.766   5.035   5.866
    1AU     AUC   45   5.751   5.048   6.180
    1AU     AUC   46   4.747   4.976   5.810
    1AU     AUC   47   4.779   4.964   6.157
    1AU     AUC   48   5.053   5.767   6.321
    1AU     AUC   49   5.401   5.780   6.309
    1AU     AUC   50   5.090   4.805   6.253
    1AU     AUC   51   5.466   4.784   6.287
    1AU     AUC   52   5.016   5.740   5.706
    1AU     AUC   53   5.411   5.770   5.699
    1AU     AUC   54   5.045   4.827   5.664
    1AU     AUC   55   5.446   4.832   5.698
    1AU    AUSL   56   5.791   5.208   6.829
    1AU    AUSL   57   5.687   4.739   6.691
    1AU     AUL   58   5.971   4.868   6.888
    1AU       S   59   6.054   4.488   6.616
    1AU     LIG   60   6.117   4.122   6.938
    1AU     LIG   61   6.396   3.806   7.229
    1AU       S   62   5.791   5.126   7.224
    1AU     LIG   63   6.137   5.251   7.486
    1AU     LIG   64   6.069   5.142   7.925
    1AU    AUSL   65   5.390   5.051   6.741
    1AU    AUSL   66   5.102   5.354   6.929
    1AU     AUL   67   5.323   5.248   7.124
    1AU       S   68   5.541   4.846   7.123
    1AU     LIG   69   5.643   4.877   7.609
    1AU     LIG   70   5.738   4.726   8.040
    1AU       S   71   4.583   5.131   7.205
    1AU     LIG   72   4.682   5.361   7.599
    1AU     LIG   73   4.632   5.446   8.056
    1AU    AUSL   74   5.433   5.495   6.711
    1AU    AUSL   75   5.855   5.558   6.586
    1AU     AUL   76   5.707   5.502   6.966
    1AU       S   77   5.307   5.759   7.071
    1AU     LIG   78   5.586   5.939   7.392
    1AU     LIG   79   5.858   5.657   7.646
    1AU       S   80   6.091   5.650   6.749
    1AU     LIG   81   6.561   5.695   6.752
    1AU     LIG   82   6.754   5.967   7.095
    1AU    AUSL   83   5.860   5.351   5.309
    1AU    AUSL   84   5.643   5.849   5.300
    1AU     AUL   85   5.816   5.617   5.047
    1AU       S   86   5.827   5.177   4.853
    1AU     LIG   87   6.109   5.143   4.474
    1AU     LIG   88   6.204   4.993   4.030
    1AU       S   89   5.938   6.046   5.202
    1AU     LIG   90   6.074   6.446   4.985
    1AU     LIG   91   6.290   6.611   4.591
    1AU    AUSL   92   5.530   5.059   5.248
    1AU    AUSL   93   5.816   5.063   5.636
    1AU     AUL   94   5.970   5.057   5.272
    1AU       S   95   6.131   4.401   5.388
    1AU     LIG   96   6.394   4.124   5.089
    1AU     LIG   97   6.535   4.168   4.607
    1AU       S   98   5.578   4.914   4.997
    1AU     LIG   99   5.382   4.726   4.619
    1AU     LIG  100   5.663   4.663   4.225
    1AU    AUSL  101   5.435   5.476   5.329
    1AU    AUSL  102   5.136   5.143   5.104
    1AU     AUL  103   5.405   5.359   4.987
    1AU       S  104   4.962   5.219   4.797
    1AU     LIG  105   5.037   5.051   4.365
    1AU     LIG  106   4.642   4.954   4.103
    1AU       S  107   5.802   4.894   4.817
    1AU     LIG  108   5.604   5.135   4.412
    1AU     LIG  109   5.807   5.332   4.037
    1AU    AUSL  110   4.764   5.215   6.694
    1AU    AUSL  111   4.985   5.695   6.699
    1AU     AUL  112   4.855   5.522   6.987
    1AU       S  113   4.507   5.217   6.926
    1AU     LIG  114   4.268   5.504   7.269
    1AU     LIG  115   4.193   5.406   7.748
    1AU       S  116   4.614   5.909   6.854
    1AU     LIG  117   4.435   6.167   7.139
    1AU     LIG  118   4.226   6.450   7.441
    1AU    AUSL  119   5.024   4.912   6.915
    1AU    AUSL  120   4.548   4.862   6.577
    1AU     AUL  121   4.705   4.797   6.853
    1AU       S  122   4.335   4.550   6.680
    1AU     LIG  123   3.900   4.460   6.818
    1AU     LIG  124   3.653   4.391   7.228
    1AU       S  125   4.836   5.073   7.198
    1AU     LIG  126   4.906   4.897   7.585
    1AU     LIG  127   4.645   4.941   7.951
    1AU    AUSL  128   4.721   5.225   5.232
    1AU    AUSL  129   5.001   4.918   5.448
    1AU     AUL  130   4.892   4.880   5.119
    1AU       S  131   4.565   5.159   4.924
    1AU     LIG  132   4.217   5.301   4.674
    1AU     LIG  133   4.140   5.314   4.209
    1AU       S  134   4.442   4.698   5.093
    1AU     LIG  135   4.418   4.252   4.966
    1AU     LIG  136   4.222   3.889   4.724
    1AU    AUSL  137   5.026   5.546   5.252
    1AU    AUSL  138   4.611   5.566   5.476
    1AU     AUL  139   4.736   5.561   5.073
    1AU       S  140   4.373   5.736   5.310
    1AU     LIG  141   4.082   6.040   5.141
    1AU     LIG  142   4.002   6.211   4.700
    1AU       S  143   4.682   5.052   4.710
    1AU     LIG  144   4.649   5.391   4.419
    1AU     LIG  145   4.589   5.452   3.981
    1AU    AUSL  146   5.932   5.968   5.998
    1AU    AUSL  147   5.960   5.697   5.558
    1AU     AUL  148   6.060   6.069   5.698
    1AU       S  149   6.159   5.735   5.369
    1AU     LIG  150   6.500   5.698   5.042
    1AU     LIG  151   6.473   6.104   4.783
    1AU       S  152   6.454   5.934   5.973
    1AU     LIG  153   6.803   6.217   5.972
    1AU     LIG  154   7.117   6.450   5.709
    1AU    AUSL  155   5.986   5.467   5.914
    1AU    AUSL  156   6.154   5.241   6.281
    1AU     AUL  157   6.395   5.345   6.121
    1AU       S  158   6.328   5.695   5.842
    1AU     LIG  159   6.657   5.723   5.562
    1AU     LIG  160   7.092   5.826   5.697
    1AU       S  161   6.488   4.892   6.165
    1AU     LIG  162   6.814   4.694   6.352
    1AU     LIG  163   7.218   4.473   6.291
    1AU    AUSL  164   6.106   5.676   6.269
    1AU    AUSL  165   5.651   5.813   6.284
    1AU     AUL  166   5.975   5.958   6.393
    1AU       S  167   6.130   5.913   6.859
    1AU     LIG  168   6.498   6.207   6.717
    1AU     LIG  169   6.895   6.439   6.905
    1AU       S  170   6.385   5.812   6.191
    1AU     LIG  171   6.880   5.768   6.240
    1AU     LIG  172   7.359   5.758   6.423
    1AU    AUSL  173   4.612   5.732   6.093
    1AU    AUSL  174   4.604   5.570   6.513
    1AU     AUL  175   4.340   5.857   6.294
    1AU       S  176   4.483   5.660   6.711
    1AU     LIG  177   4.100   5.841   6.887
    1AU     LIG  178   3.943   6.048   7.261
    1AU       S  179   4.546   6.231   6.085
    1AU     LIG  180   4.112   6.389   5.951
    1AU     LIG  181   3.837   6.352   5.584
    1AU    AUSL  182   4.470   5.409   5.839
    1AU    AUSL  183   4.599   5.943   5.725
    1AU     AUL  184   4.339   5.738   5.790
    1AU       S  185   4.190   5.329   5.509
    1AU     LIG  186   3.814   5.683   5.451
    1AU     LIG  187   3.443   5.997   5.582
    1AU       S  188   4.423   6.160   5.561
    1AU     LIG  189   4.331   6.471   5.269
    1AU     LIG  190   3.927   6.566   5.091
    1AU    AUSL  191   4.311   5.401   6.252
    1AU    AUSL  192   4.294   5.026   5.904
    1AU     AUL  193   4.115   5.351   5.973
    1AU       S  194   4.034   4.918   6.144
    1AU     LIG  195   3.593   4.845   5.997
    1AU     LIG  196   3.284   4.622   5.714
    1AU       S  197   4.109   5.455   6.465
    1AU     LIG  198   3.723   5.720   6.468
    1AU     LIG  199   3.355   6.000   6.383
    1AU    AUSL  200   6.005   4.916   6.033
    1AU    AUSL  201   5.786   5.075   6.420
    1AU     AUL  202   6.122   4.958   6.452
    1AU       S  203   6.307   4.785   6.060
    1AU     LIG  204   6.400   4.372   6.006
    1AU     LIG  205   6.547   4.217   5.612
    1AU       S  206   6.276   4.503   6.466
    1AU     LIG  207   6.508   4.438   6.837
    1AU     LIG  208   6.457   4.327   7.281
    1AU    AUSL  209   6.218   5.166   5.728
    1AU    AUSL  210   5.844   4.586   5.808
    1AU     AUL  211   6.110   4.819   5.650
    1AU       S  212   6.502   4.968   5.858
    1AU     LIG  213   6.798   4.647   5.832
    1AU     LIG  214   7.202   4.452   5.757
    1AU       S  215   6.004   4.361   5.676
    1AU     LIG  216   6.052   3.939   5.537
    1AU     LIG  217   6.115   3.680   5.177
    1AU    AUSL  218   4.662   4.749   5.944
    1AU    AUSL  219   4.586   5.034   5.587
    1AU     AUL  220   4.319   4.752   5.766
    1AU       S  221   4.384   4.897   5.320
    1AU     LIG  222   3.983   4.605   5.246
    1AU     LIG  223   3.886   4.207   5.028
    1AU       S  224   3.965   4.744   6.360
    1AU     LIG  225   3.879   4.409   6.046
    1AU     LIG  226   3.724   4.254   5.609
    1AU    AUSL  227   4.588   5.081   6.221
    1AU    AUSL  228   4.713   4.550   6.321
    1AU     AUL  229   4.437   4.681   6.231
    1AU       S  230   4.496   4.330   6.535
    1AU     LIG  231   4.156   4.023   6.721
    1AU     LIG  232   3.815   3.697   6.827
    1AU       S  233   4.120   4.985   6.371
    1AU     LIG  234   3.667   5.148   6.425
    1AU     LIG  235   3.252   4.923   6.415
    1AU    AUSL  236   5.241   5.950   6.463
    1AU    AUSL  237   4.788   5.962   6.413
    1AU     AUL  238   5.056   6.050   6.733
    1AU       S  239   4.612   6.132   6.582
    1AU     LIG  240   4.205   6.344   6.714
    1AU     LIG  241   3.900   6.529   7.011
    1AU       S  242   5.206   6.447   6.509
    1AU     LIG  243   5.408   6.836   6.753
    1AU     LIG  244   5.391   7.317   6.855
    1AU    AUSL  245   5.035   6.193   6.150
    1AU    AUSL  246   5.345   6.215   5.774
    1AU     AUL  247   5.072   6.455   5.923
    1AU       S  248   5.276   6.628   6.325
    1AU     LIG  249   5.177   7.052   6.356
    1AU     LIG  250   4.839   7.140   6.632
    1AU       S  251   5.277   6.461   5.487
    1AU     LIG  252   5.563   6.836   5.659
    1AU     LIG  253   5.842   7.234   5.587
    1AU    AUSL  254   5.490   6.189   6.178
    1AU    AUSL  255   5.584   5.892   6.716
    1AU     AUL  256   5.569   6.156   6.527
    1AU       S  257   5.837   5.952   6.883
    1AU     LIG  258   6.019   6.255   7.194
    1AU     LIG  259   6.469   6.414   7.193
    1AU       S  260   5.477   6.472   6.189
    1AU     LIG  261   5.674   6.886   6.207
    1AU     LIG  262   5.754   7.175   6.520
    1AU    AUSL  263   5.338   4.570   6.493
    1AU    AUSL  264   5.751   4.662   6.267
    1AU     AUL  265   5.600   4.393   6.569
    1AU       S  266   4.863   4.010   6.475
    1AU     LIG  267   4.877   3.672   6.769
    1AU     LIG  268   5.170   3.328   6.918
    1AU       S  269   5.989   4.476   6.292
    1AU     LIG  270   6.215   4.027   6.433
    1AU     LIG  271   6.540   3.899   6.758
    1AU    AUSL  272   5.089   4.544   6.136
    1AU    AUSL  273   5.007   4.840   6.496
    1AU     AUL  274   4.989   4.474   6.556
    1AU       S  275   4.894   4.126   6.210
    1AU     LIG  276   4.974   3.600   6.247
    1AU     LIG  277   4.867   3.235   6.490
    1AU       S  278   4.566   4.325   6.791
    1AU     LIG  279   4.485   3.980   7.092
    1AU     LIG  280   4.044   3.923   7.256
    1AU    AUSL  281   5.492   4.372   6.096
    1AU    AUSL  282   5.058   4.445   5.725
    1AU     AUL  283   5.256   4.223   5.938
    1AU       S  284   4.861   4.164   5.685
    1AU     LIG  285   4.856   3.708   5.784
    1AU     LIG  286   4.953   3.368   5.517
    1AU       S  287   5.164   4.047   6.396
    1AU     LIG  288   5.385   3.650   6.552
    1AU     LIG  289   5.679   3.372   6.821
    1AU    AUSL  290   5.258   5.918   5.464
    1AU    AUSL  291   5.599   5.862   5.760
    1AU     AUL  292   5.617   6.145   5.537
    1AU       S  293   5.252   6.178   5.236
    1AU     LIG  294   5.553   6.572   5.080
    1AU     LIG  295   5.589   7.038   5.177
    1AU       S  296   6.178   6.001   5.221
    1AU     LIG  297   6.488   6.310   5.267
    1AU     LIG  298   6.560   6.691   5.027
    1AU    AUSL  299   5.012   5.922   5.828
    1AU    AUSL  300   4.849   5.918   5.367
    1AU     AUL  301   4.901   6.167   5.584
    1AU       S  302   5.088   6.463   5.244
    1AU     LIG  303   5.103   6.929   5.389
    1AU     LIG  304   5.220   7.398   5.406
    1AU       S  305   4.582   6.007   5.246
    1AU     LIG  306   4.498   6.216   4.860
    1AU     LIG  307   4.314   6.640   4.752
    1AU    AUSL  308   5.280   4.611   5.372
    1AU    AUSL  309   4.707   4.610   5.539
    1AU     AUL  310   4.986   4.483   5.348
    1AU       S  311   4.509   4.591   5.352
    1AU     LIG  312   4.228   4.180   5.432
    1AU     LIG  313   3.966   3.784   5.312
    1AU       S  314   4.789   4.034   5.408
    1AU     LIG  315   4.865   3.658   5.112
    1AU     LIG  316   5.058   3.350   4.789
    1AU    AUSL  317   5.430   4.679   5.802
    1AU    AUSL  318   5.691   4.704   5.418
    1AU     AUL  319   5.539   4.392   5.577
    1AU       S  320   5.106   4.014   5.483
    1AU     LIG  321   5.382   3.638   5.509
    1AU     LIG  322   5.378   3.220   5.268
    1AU       S  323   5.896   4.552   5.301
    1AU     LIG  324   5.913   4.236   4.950
    1AU     LIG  325   6.123   3.873   4.693
    2POPC   NC3  326   3.423   8.769   8.012
    2POPC   PO4  327   3.976   8.357   8.188
    2POPC   GL1  328   3.823   8.679   7.693
    2POPC   GL2  329   3.455   8.661   7.531
    2POPC   C1A  330   3.808   8.742   7.213
    2POPC   D2A  331   3.740   8.459   6.927
    2POPC   C3A  332   3.502   8.427   6.575
    2POPC   C4A  333   3.587   8.563   6.201
    2POPC   C1B  334   3.232   8.642   7.208
    2POPC   C2B  335   3.271   8.796   6.859
    2POPC   C3B  336   3.161   8.776   6.485
    2POPC   C4B  337   3.198   8.885   6.084
    3POPC   NC3  338   1.168   5.017   8.121
    3POPC   PO4  339   0.518   4.659   8.158
    3POPC   GL1  340   0.938   4.676   7.812
    3POPC   GL2  341   1.042   5.035   7.653
    3POPC   C1A  342   1.104   4.653   7.350
    3POPC   D2A  343   0.945   4.815   6.948
    3POPC   C3A  344   1.048   4.606   6.558
    3POPC   C4A  345   1.084   4.796   6.148
    3POPC   C1B  346   1.328   5.136   7.337
    3POPC   C2B  347   1.469   5.047   6.943
    3POPC   C3B  348   1.276   5.047   6.579
    3POPC   C4B  349   1.377   5.206   6.214
    4POPC   NC3  350   9.198   1.896   8.122
    4POPC   PO4  351   8.949   2.419   7.824
    4POPC   GL1  352   9.123   2.053   7.637
    4POPC   GL2  353   9.429   1.823   7.688
    4POPC   C1A  354   9.233   2.075   7.236
    4POPC   D2A  355   9.312   1.879   6.866
    4POPC   C3A  356   9.436   2.102   6.506
    4POPC   C4A  357   9.658   2.273   6.161
    4POPC   C1B  358   9.461   1.603   7.310
    4POPC   C2B  359   9.735   1.613   6.969
    4POPC   C3B  360   9.639   1.620   6.553
    4POPC   C4B  361   9.879   1.479   6.235
    5POPC   NC3  362   0.196   7.793   8.364
    5POPC   PO4  363   0.025   7.340   8.022
    5POPC   GL1  364   0.207   7.602   7.612
    5POPC   GL2  365   0.264   7.972   7.500
    5POPC   C1A  366   0.378   7.598   7.170
    5POPC   D2A  367   0.590   7.781   6.811
    5POPC   C3A  368   0.564   7.677   6.349
    5POPC   C4A  369   0.233   7.739   5.997
    5POPC   C1B  370   0.347   8.324   7.269
    5POPC   C2B  371   0.447   8.272   6.875
    5POPC   C3B  372   0.275   8.067   6.537
    5POPC   C4B  373   0.389   8.163   6.172
    6POPC   NC3  374   2.991   1.493   8.166
    6POPC   PO4  375   3.600   1.736   8.225
    6POPC   GL1  376   3.598   1.485   7.858
    6POPC   GL2  377   3.625   1.115   7.840
    6POPC   C1A  378   3.501   1.522   7.450
    6POPC   D2A  379   3.519   1.688   7.041
    6POPC   C3A  380   3.678   1.525   6.640
    6POPC   C4A  381   3.486   1.458   6.231
    6POPC   C1B  382   3.402   1.016   7.436
    6POPC   C2B  383   3.523   1.183   7.013
    6POPC   C3B  384   3.395   1.075   6.582
    6POPC   C4B  385   3.578   0.980   6.174
    7POPC   NC3  386   8.457   9.110   8.085
    7POPC   PO4  387   8.910   9.517   8.355
    7POPC   GL1  388   8.870   9.569   7.776
    7POPC   GL2  389   8.649   9.295   7.637
    7POPC   C1A  390   8.760   9.640   7.314
    7POPC   D2A  391   8.615   9.716   6.918
    7POPC   C3A  392   8.700   9.410   6.624
    7POPC   C4A  393   8.688   9.565   6.227
    7POPC   C1B  394   8.408   9.209   7.293
    7POPC   C2B  395   8.374   9.037   6.893
    7POPC   C3B  396   8.221   9.169   6.524
    7POPC   C4B  397   8.298   9.299   6.100
    8POPC   NC3  398   6.213   0.359   8.156
    8POPC   PO4  399   6.756  10.471   8.043
    8POPC   GL1  400   6.614   0.243   7.659
    8POPC   GL2  401   6.338   0.481   7.687
    8POPC   C1A  402   6.523   0.456   7.217
    8POPC   D2A  403   6.318   0.714   6.889
    8POPC   C3A  404   6.505   0.698   6.488
    8POPC   C4A  405   6.737   0.545   6.115
    8POPC   C1B  406   6.221   0.079   7.412
    8POPC   C2B  407   6.347  10.460   7.001
    8POPC   C3B  408   6.407   0.211   6.632
    8POPC   C4B  409   6.283   0.287   6.203
    9POPC   NC3  410   8.934   4.834   8.200
    9POPC   PO4  411   8.575   5.262   7.970
    9POPC   GL1  412   8.884   5.142   7.722
    9POPC   GL2  413   8.724   4.807   7.697
    9POPC   C1A  414   8.889   5.153   7.275
    9POPC   D2A  415   8.686   5.013   6.902
    9POPC   C3A  416   8.724   4.883   6.506
    9POPC   C4A  417   8.822   4.980   6.090
    9POPC   C1B  418   8.544   4.743   7.298
    9POPC   C2B  419   8.291   4.711   6.906
    9POPC   C3B  420   8.305   4.578   6.464
    9POPC   C4B  421   8.399   4.726   6.045
   10POPC   NC3  422   4.210   9.483   7.935
   10POPC   PO4  423   3.637   9.201   8.154
   10POPC   GL1  424   3.778   9.574   7.659
   10POPC   GL2  425   4.166   9.612   7.438
   10POPC   C1A  426   3.744   9.553   7.196
   10POPC   D2A  427   4.044   9.461   6.860
   10POPC   C3A  428   3.789   9.488   6.487
   10POPC   C4A  429   3.959   9.498   6.027
   10POPC   C1B  430   4.445   9.282   7.165
   10POPC   C2B  431   4.623   8.995   6.843
   10POPC   C3B  432   4.474   8.849   6.471
   10POPC   C4B  433   4.218   9.236   6.398
   11POPC   NC3  434   9.898   5.518   8.358
   11POPC   PO4  435   9.806   5.224   7.821
   11POPC   GL1  436   9.903   5.382   7.479
   11POPC   GL2  437  10.173   5.552   7.667
   11POPC   C1A  438   9.767   5.205   7.094
   11POPC   D2A  439   9.699   5.483   6.789
   11POPC   C3A  440   9.636   5.404   6.372
   11POPC   C4A  441   9.824   5.645   6.071
   11POPC   C1B  442  10.306   5.731   7.312
   11POPC   C2B  443  10.099   5.897   6.941
   11POPC   C3B  444  10.083   5.750   6.524
   11POPC   C4B  445  10.287   5.852   6.139
   12POPC   NC3  446   6.285   1.552   8.296
   12POPC   PO4  447   5.988   2.132   8.290
   12POPC   GL1  448   6.340   1.875   7.908
   12POPC   GL2  449   6.535   2.092   7.702
   12POPC   C1A  450   6.243   1.729   7.417
   12POPC   D2A  451   6.453   1.688   6.972
   12POPC   C3A  452   6.233   1.590   6.572
   12POPC   C4A  453   6.249   1.691   6.140
   12POPC   C1B  454   6.452   2.171   7.254
   12POPC   C2B  455   6.678   2.162   6.877
   12POPC   C3B  456   6.575   1.950   6.506
   12POPC   C4B  457   6.620   2.013   6.080
   13POPC   NC3  458   1.446   0.885   8.037
   13POPC   PO4  459   2.114   0.833   8.029
   13POPC   GL1  460   1.952   1.062   7.648
   13POPC   GL2  461   2.282   1.207   7.644
   13POPC   C1A  462   1.735   1.079   7.264
   13POPC   D2A  463   1.671   0.871   6.841
   13POPC   C3A  464   1.934   0.859   6.441
   13POPC   C4A  465   1.778   0.789   5.980
   13POPC   C1B  466   2.163   1.413   7.275
   13POPC   C2B  467   2.017   1.256   6.884
   13POPC   C3B  468   1.812   1.336   6.511
   13POPC   C4B  469   2.016   1.223   6.094
   14POPC   NC3  470   7.150   1.999   8.067
   14POPC   PO4  471   6.661   1.459   8.069
   14POPC   GL1  472   6.861   1.688   7.716
   14POPC   GL2  473   7.218   1.769   7.630
   14POPC   C1A  474   6.852   1.839   7.280
   14POPC   D2A  475   6.986   1.738   6.869
   14POPC   C3A  476   7.064   2.043   6.551
   14POPC   C4A  477   7.050   1.813   6.241
   14POPC   C1B  478   7.383   1.704   7.227
   14POPC   C2B  479   7.622   1.552   6.878
   14POPC   C3B  480   7.494   1.753   6.509
   14POPC   C4B  481   7.504   2.063   6.193
   15POPC   NC3  482   6.320   9.163   8.032
   15POPC   PO4  483   6.726   9.627   8.195
   15POPC   GL1  484   6.635   9.548   7.731
   15POPC   GL2  485   6.353   9.378   7.580
   15POPC   C1A  486   6.565   9.750   7.313
   15POPC   D2A  487   6.501   9.588   6.893
   15POPC   C3A  488   6.530   9.825   6.531
   15POPC   C4A  489   6.505   9.776   6.093
   15POPC   C1B  490   6.229   9.237   7.178
   15POPC   C2B  491   6.046   9.365   6.784
   15POPC   C3B  492   6.284   9.352   6.408
   15POPC   C4B  493   6.187   9.389   5.971
   16POPC   NC3  494   9.381   3.338   8.240
   16POPC   PO4  495   9.601   3.977   8.115
   16POPC   GL1  496   9.623   3.566   7.800
   16POPC   GL2  497   9.397   3.281   7.739
   16POPC   C1A  498   9.630   3.376   7.324
   16POPC   D2A  499   9.543   3.534   6.921
   16POPC   C3A  500   9.790   3.533   6.538
   16POPC   C4A  501   9.607   3.553   6.112
   16POPC   C1B  502   9.163   3.183   7.333
   16POPC   C2B  503   9.050   3.398   6.929
   16POPC   C3B  504   9.245   3.471   6.515
   16POPC   C4B  505   9.177   3.236   6.144
   17POPC   NC3  506   0.482   5.714   8.288
   17POPC   PO4  507  10.348   5.504   8.208
   17POPC   GL1  508   0.167   5.509   7.810
   17POPC   GL2  509   0.489   5.743   7.776
   17POPC   C1A  510   0.289   5.474   7.325
   17POPC   D2A  511   0.135   5.710   6.925
   17POPC   C3A  512   0.184   5.845   6.492
   17POPC   C4A  513   0.191   5.534   6.183
   17POPC   C1B  514   0.624   5.892   7.357
   17POPC   C2B  515   0.658   5.671   6.957
   17POPC   C3B  516   0.585   5.541   6.525
   17POPC   C4B  517   0.613   5.794   6.146
   18POPC   NC3  518  10.211   0.535   8.221
   18POPC   PO4  519   9.653   0.219   8.030
   18POPC   GL1  520  10.007   0.175   7.747
   18POPC   GL2  521  10.222   0.458   7.702
   18POPC   C1A  522   9.940   0.232   7.295
   18POPC   D2A  523  10.087   0.518   6.985
   18POPC   C3A  524   9.989   0.421   6.592
   18POPC   C4A  525  10.035   0.271   6.191
   18POPC   C1B  526  10.485   0.467   7.312
   18POPC   C2B  527   0.121   0.618   6.888
   18POPC   C3B  528  10.460   0.541   6.443
   18POPC   C4B  529  10.483   0.728   5.992
   19POPC   NC3  530   1.504  10.407   8.063
   19POPC   PO4  531   2.202  10.290   7.992
   19POPC   GL1  532   1.833  10.271   7.673
   19POPC   GL2  533   1.728   9.933   7.535
   19POPC   C1A  534   1.632  10.366   7.263
   19POPC   D2A  535   1.514  10.234   6.866
   19POPC   C3A  536   1.748  10.463   6.558
   19POPC   C4A  537   1.615  10.462   6.136
   19POPC   C1B  538   2.009  10.019   7.237
   19POPC   C2B  539   1.903   9.938   6.836
   19POPC   C3B  540   1.709  10.005   6.397
   19POPC   C4B  541   2.047   9.890   6.101
   20POPC   NC3  542   0.521   6.707   8.215
   20POPC   PO4  543   0.802   6.037   8.165
   20POPC   GL1  544   0.673   6.260   7.754
   20POPC   GL2  545   0.341   6.427   7.725
   20POPC   C1A  546   0.653   6.434   7.317
   20POPC   D2A  547   0.466   6.578   6.937
   20POPC   C3A  548   0.644   6.519   6.555
   20POPC   C4A  549   0.468   6.270   6.224
   20POPC   C1B  550   0.131   6.636   7.339
   20POPC   C2B  551   0.034   6.844   6.945
   20POPC   C3B  552   0.114   6.689   6.569
   20POPC   C4B  553   0.324   6.762   6.200
   21POPC   NC3  554   2.396   2.019   8.088
   21POPC   PO4  555   2.536   1.385   8.071
   21POPC   GL1  556   2.702   1.665   7.762
   21POPC   GL2  557   2.721   2.045   7.671
   21POPC   C1A  558   2.636   1.627   7.345
   21POPC   D2A  559   2.795   1.803   6.987
   21POPC   C3A  560   2.653   1.722   6.583
   21POPC   C4A  561   2.545   1.525   6.221
   21POPC   C1B  562   2.464   2.097   7.286
   21POPC   C2B  563   2.347   2.061   6.851
   21POPC   C3B  564   2.453   2.166   6.435
   21POPC   C4B  565   2.879   2.112   6.278
   22POPC   NC3  566   9.196   0.095   8.169
   22POPC   PO4  567   9.217   9.942   8.016
   22POPC   GL1  568   9.361  10.308   7.720
   22POPC   GL2  569   9.706  10.323   7.533
   22POPC   C1A  570   9.314  10.440   7.261
   22POPC   D2A  571   9.524  10.391   6.858
   22POPC   C3A  572   9.180  10.383   6.551
   22POPC   C4A  573   9.027   0.066   6.160
   22POPC   C1B  574   9.597   9.989   7.278
   22POPC   C2B  575   9.679   9.845   6.861
   22POPC   C3B  576   9.561  10.010   6.522
   22POPC   C4B  577   9.700  10.390   6.315
   23POPC   NC3  578   9.686   8.543   8.042
   23POPC   PO4  579   9.158   8.290   7.804
   23POPC   GL1  580   9.447   8.558   7.602
   23POPC   GL2  581   9.403   8.892   7.758
   23POPC   C1A  582   9.696   8.531   7.245
   23POPC   D2A  583   9.540   8.520   6.877
   23POPC   C3A  584   9.808   8.457   6.584
   23POPC   C4A  585   9.682   8.360   6.208
   23POPC   C1B  586   9.616   9.017   7.386
   23POPC   C2B  587   9.490   9.019   6.967
   23POPC   C3B  588   9.644   8.937   6.540
   23POPC   C4B  589   9.362   8.790   6.236
   24POPC   NC3  590   5.500   2.145   8.253
   24POPC   PO4  591   6.035   2.255   7.777
   24POPC   GL1  592   5.691   2.396   7.548
   24POPC   GL2  593   5.665   2.755   7.575
   24POPC   C1A  594   5.721   2.492   7.112
   24POPC   D2A  595   5.694   2.355   6.722
   24POPC   C3A  596   5.772   2.603   6.393
   24POPC   C4A  597   5.577   2.735   5.991
   24POPC   C1B  598   5.596   2.987   7.173
   24POPC   C2B  599   5.492   2.885   6.737
   24POPC   C3B  600   5.721   3.104   6.384
   24POPC   C4B  601   6.011   3.077   6.045
   25POPC   NC3  602   7.401   4.239   8.033
   25POPC   PO4  603   6.955   3.814   7.914
   25POPC   GL1  604   7.226   3.879   7.562
   25POPC   GL2  605   7.136   4.216   7.594
   25POPC   C1A  606   7.397   4.147   7.182
   25POPC   D2A  607   7.451   4.279   6.729
   25POPC   C3A  608   7.324   3.973   6.403
   25POPC   C4A  609   7.272   3.951   5.954
   25POPC   C1B  610   6.893   4.068   7.204
   25POPC   C2B  611   6.950   4.210   6.760
   25POPC   C3B  612   6.705   4.213   6.400
   25POPC   C4B  613   6.851   4.179   6.030
   26POPC   NC3  614   2.650   9.947   7.977
   26POPC   PO4  615   3.137   0.023   8.189
   26POPC   GL1  616   3.044  10.368   7.793
   26POPC   GL2  617   2.682  10.417   7.763
   26POPC   C1A  618   2.987  10.284   7.351
   26POPC   D2A  619   3.128  10.238   6.948
   26POPC   C3A  620   2.828  10.239   6.669
   26POPC   C4A  621   2.643  10.387   6.348
   26POPC   C1B  622   2.444  10.277   7.375
   26POPC   C2B  623   2.413  10.115   6.939
   26POPC   C3B  624   2.237  10.134   6.524
   26POPC   C4B  625   2.473   9.845   6.348
   27POPC   NC3  626   1.049   0.211   8.103
   27POPC   PO4  627   0.974   0.902   8.007
   27POPC   GL1  628   1.170   0.574   7.715
   27POPC   GL2  629   1.268   0.269   7.662
   27POPC   C1A  630   0.973   0.441   7.294
   27POPC   D2A  631   1.027   0.483   6.846
   27POPC   C3A  632   0.884   0.289   6.475
   27POPC   C4A  633   0.897   0.509   6.050
   27POPC   C1B  634   1.491   0.364   7.296
   27POPC   C2B  635   1.457   0.226   6.906
   27POPC   C3B  636   1.396   0.346   6.494
   27POPC   C4B  637   1.413   0.422   6.076
   28POPC   NC3  638   4.422  10.276   8.086
   28POPC   PO4  639   3.891   9.876   8.072
   28POPC   GL1  640   4.002  10.046   7.669
   28POPC   GL2  641   4.168  10.342   7.643
   28POPC   C1A  642   3.922  10.136   7.207
   28POPC   D2A  643   3.879   9.937   6.769
   28POPC   C3A  644   4.197   9.824   6.427
   28POPC   C4A  645   4.200   9.937   5.957
   28POPC   C1B  646   4.417  10.125   7.326
   28POPC   C2B  647   4.505  10.249   6.891
   28POPC   C3B  648   4.214  10.344   6.563
   28POPC   C4B  649   4.257  10.399   6.147
   29POPC   NC3  650   8.277   1.849   8.092
   29POPC   PO4  651   8.555   2.238   8.380
   29POPC   GL1  652   8.494   2.215   7.850
   29POPC   GL2  653   8.642   1.928   7.746
   29POPC   C1A  654   8.340   2.134   7.356
   29POPC   D2A  655   8.304   2.245   6.874
   29POPC   C3A  656   8.485   2.006   6.492
   29POPC   C4A  657   8.535   1.975   6.014
   29POPC   C1B  658   8.768   1.849   7.327
   29POPC   C2B  659   8.795   1.963   6.906
   29POPC   C3B  660   8.956   1.791   6.508
   29POPC   C4B  661   8.989   2.127   6.264
   30POPC   NC3  662   3.322   4.155   8.066
   30POPC   PO4  663   3.778   3.685   8.136
   30POPC   GL1  664   3.602   3.892   7.699
   30POPC   GL2  665   3.326   4.154   7.577
   30POPC   C1A  666   3.540   3.885   7.223
   30POPC   D2A  667   3.444   4.142   6.843
   30POPC   C3A  668   3.713   4.109   6.471
   30POPC   C4A  669   3.658   3.971   6.039
   30POPC   C1B  670   3.114   4.483   7.328
   30POPC   C2B  671   3.166   4.657   6.903
   30POPC   C3B  672   3.155   4.426   6.530
   30POPC   C4B  673   3.391   4.395   6.181
   31POPC   NC3  674   3.618   1.255   8.331
   31POPC   PO4  675   4.272   1.425   8.132
   31POPC   GL1  676   4.118   1.333   7.749
   31POPC   GL2  677   4.244   0.977   7.735
   31POPC   C1A  678   3.884   1.150   7.402
   31POPC   D2A  679   3.926   0.844   7.056
   31POPC   C3A  680   3.896   1.014   6.629
   31POPC   C4A  681   3.962   1.291   6.264
   31POPC   C1B  682   4.385   1.151   7.328
   31POPC   C2B  683   4.490   1.011   6.930
   31POPC   C3B  684   4.393   1.110   6.535
   31POPC   C4B  685   4.258   0.882   6.239
   32POPC   NC3  686   1.993   9.218   8.167
   32POPC   PO4  687   2.210   8.589   8.165
   32POPC   GL1  688   1.872   8.673   7.826
   32POPC   GL2  689   1.619   8.929   7.883
   32POPC   C1A  690   1.831   8.534   7.377
   32POPC   D2A  691   2.042   8.350   7.014
   32POPC   C3A  692   1.997   8.577   6.643
   32POPC   C4A  693   2.295   8.826   6.402
   32POPC   C1B  694   1.585   8.984   7.420
   32POPC   C2B  695   1.667   8.892   6.986
   32POPC   C3B  696   1.510   8.784   6.573
   32POPC   C4B  697   1.742   8.681   6.210
   33POPC   NC3  698   0.173   4.986   8.018
   33POPC   PO4  699   0.771   5.362   8.118
   33POPC   GL1  700   0.583   5.229   7.718
   33POPC   GL2  701   0.509   4.891   7.665
   33POPC   C1A  702   0.722   5.157   7.281
   33POPC   D2A  703   0.556   5.169   6.876
   33POPC   C3A  704   0.762   5.046   6.493
   33POPC   C4A  705   0.628   5.004   6.054
   33POPC   C1B  706   0.269   4.907   7.284
   33POPC   C2B  707   0.109   4.948   6.860
   33POPC   C3B  708   0.230   4.973   6.406
   33POPC   C4B  709   0.268   4.632   6.081
   34POPC   NC3  710   9.913   4.834   8.035
   34POPC   PO4  711   0.008   4.537   8.008
   34POPC   GL1  712  10.291   4.696   7.700
   34POPC   GL2  713  10.273   5.043   7.707
   34POPC   C1A  714  10.296   4.682   7.278
   34POPC   D2A  715  10.118   4.884   6.936
   34POPC   C3A  716  10.240   4.777   6.530
   34POPC   C4A  717  10.310   4.864   6.105
   34POPC   C1B  718  10.343   5.197   7.307
   34POPC   C2B  719  10.234   5.387   6.942
   34POPC   C3B  720  10.423   5.359   6.583
   34POPC   C4B  721  10.118   5.270   6.335
   35POPC   NC3  722   7.830   0.798   8.190
   35POPC   PO4  723   8.236   0.383   7.970
   35POPC   GL1  724   8.139   0.528   7.570
   35POPC   GL2  725   7.786   0.691   7.613
   35POPC   C1A  726   8.082   0.496   7.115
   35POPC   D2A  727   8.243   0.732   6.789
   35POPC   C3A  728   8.081   0.657   6.366
   35POPC   C4A  729   8.310   0.579   5.973
   35POPC   C1B  730   7.739   0.255   7.407
   35POPC   C2B  731   7.789   0.039   7.003
   35POPC   C3B  732   7.714   0.014   6.562
   35POPC   C4B  733   7.759   0.277   6.180
   36POPC   NC3  734   8.157   5.837   8.650
   36POPC   PO4  735   8.010   5.467   8.145
   36POPC   GL1  736   8.105   5.464   7.718
   36POPC   GL2  737   8.087   5.826   7.708
   36POPC   C1A  738   7.952   5.498   7.296
   36POPC   D2A  739   7.675   5.308   7.000
   36POPC   C3A  740   7.750   5.400   6.578
   36POPC   C4A  741   8.003   5.487   6.264
   36POPC   C1B  742   8.075   5.982   7.296
   36POPC   C2B  743   7.816   5.859   6.936
   36POPC   C3B  744   7.941   5.922   6.524
   36POPC   C4B  745   7.770   5.965   6.129
   37POPC   NC3  746   8.643   0.439   8.194
   37POPC   PO4  747   9.111   0.863   7.916
   37POPC   GL1  748   8.702   0.655   7.713
   37POPC   GL2  749   8.657   0.268   7.692
   37POPC   C1A  750   8.579   0.568   7.274
   37POPC   D2A  751   8.738   0.449   6.874
   37POPC   C3A  752   8.590   0.520   6.461
   37POPC   C4A  753   8.813   0.576   6.096
   37POPC   C1B  754   8.395   0.105   7.341
   37POPC   C2B  755   8.318   0.013   6.950
   37POPC   C3B  756   8.168   0.235   6.648
   37POPC   C4B  757   8.244   0.181   6.248
   38POPC   NC3  758   3.293   7.153   8.036
   38POPC   PO4  759   2.629   7.066   8.105
   38POPC   GL1  760   2.863   7.043   7.704
   38POPC   GL2  761   2.972   7.396   7.709
   38POPC   C1A  762   2.813   6.898   7.251
   38POPC   D2A  763   2.643   6.832   6.826
   38POPC   C3A  764   2.871   6.887   6.440
   38POPC   C4A  765   2.921   7.186   6.090
   38POPC   C1B  766   2.719   7.397   7.318
   38POPC   C2B  767   2.584   7.472   6.899
   38POPC   C3B  768   2.495   7.249   6.529
   38POPC   C4B  769   2.505   7.505   6.193
   39POPC   NC3  770   4.691   8.607   7.990
   39POPC   PO4  771   5.394   8.659   8.042
   39POPC   GL1  772   5.153   8.814   7.705
   39POPC   GL2  773   5.111   8.485   7.561
   39POPC   C1A  774   4.980   8.940   7.303
   39POPC   D2A  775   5.013   8.689   6.942
   39POPC   C3A  776   5.025   8.914   6.543
   39POPC   C4A  777   5.243   9.083   6.177
   39POPC   C1B  778   4.699   8.514   7.334
   39POPC   C2B  779   4.560   8.454   6.899
   39POPC   C3B  780   4.823   8.389   6.571
   39POPC   C4B  781   4.885   8.428   6.171
   40POPC   NC3  782   5.851   1.872   7.925
   40POPC   PO4  783   5.230   1.764   8.157
   40POPC   GL1  784   5.356   2.052   7.770
   40POPC   GL2  785   5.494   1.813   7.572
   40POPC   C1A  786   5.336   2.146   7.258
   40POPC   D2A  787   5.464   1.904   6.896
   40POPC   C3A  788   5.411   2.021   6.475
   40POPC   C4A  789   5.512   1.750   6.152
   40POPC   C1B  790   5.827   1.989   7.245
   40POPC   C2B  791   6.100   2.063   6.859
   40POPC   C3B  792   5.949   2.006   6.421
   40POPC   C4B  793   5.718   2.202   6.080
   41POPC   NC3  794   0.415   2.043   8.093
   41POPC   PO4  795   0.910   1.547   8.188
   41POPC   GL1  796   0.734   1.782   7.757
   41POPC   GL2  797   0.554   2.114   7.616
   41POPC   C1A  798   0.688   1.764   7.286
   41POPC   D2A  799   0.685   2.000   6.924
   41POPC   C3A  800   0.434   2.029   6.608
   41POPC   C4A  801   0.612   1.849   6.266
   41POPC   C1B  802   0.181   2.290   7.385
   41POPC   C2B  803   0.157   2.414   6.940
   41POPC   C3B  804   0.010   2.319   6.518
   41POPC   C4B  805   0.153   2.069   6.181
   42POPC   NC3  806   5.975   0.976   7.957
   42POPC   PO4  807   6.570   0.686   8.110
   42POPC   GL1  808   6.480   0.982   7.776
   42POPC   GL2  809   6.310   1.320   7.741
   42POPC   C1A  810   6.331   0.946   7.358
   42POPC   D2A  811   6.212   1.229   7.032
   42POPC   C3A  812   6.114   1.104   6.607
   42POPC   C4A  813   6.322   1.109   6.206
   42POPC   C1B  814   6.592   1.385   7.377
   42POPC   C2B  815   6.808   1.259   7.032
   42POPC   C3B  816   6.610   1.239   6.663
   42POPC   C4B  817   6.673   1.479   6.295
   43POPC   NC3  818   1.325   1.932   8.164
   43POPC   PO4  819   1.423   2.593   8.226
   43POPC   GL1  820   1.396   2.352   7.789
   43POPC   GL2  821   1.195   2.034   7.686
   43POPC   C1A  822   1.461   2.213   7.306
   43POPC   D2A  823   1.495   1.953   6.910
   43POPC   C3A  824   1.463   2.199   6.505
   43POPC   C4A  825   1.451   2.154   6.041
   43POPC   C1B  826   1.202   1.761   7.341
   43POPC   C2B  827   1.066   1.657   6.940
   43POPC   C3B  828   1.049   1.869   6.556
   43POPC   C4B  829   1.335   1.706   6.261
   44POPC   NC3  830   2.583   4.027   8.077
   44POPC   PO4  831   3.144   3.748   7.930
   44POPC   GL1  832   2.896   3.874   7.611
   44POPC   GL2  833   2.787   4.203   7.629
   44POPC   C1A  834   3.021   3.967   7.216
   44POPC   D2A  835   2.881   4.237   6.939
   44POPC   C3A  836   2.787   4.068   6.580
   44POPC   C4A  837   2.887   4.151   6.171
   44POPC   C1B  838   2.504   4.050   7.279
   44POPC   C2B  839   2.371   4.270   6.891
   44POPC   C3B  840   2.330   4.266   6.458
   44POPC   C4B  841   2.460   4.400   6.065
   45POPC   NC3  842   8.390   8.112   8.081
   45POPC   PO4  843   9.000   8.184   8.332
   45POPC   GL1  844   8.813   7.949   7.869
   45POPC   GL2  845   8.513   7.964   7.627
   45POPC   C1A  846   8.951   7.776   7.412
   45POPC   D2A  847   9.105   7.830   6.980
   45POPC   C3A  848   8.971   7.763   6.546
   45POPC   C4A  849   9.050   7.568   6.141
   45POPC   C1B  850   8.599   8.142   7.238
   45POPC   C2B  851   8.676   8.052   6.840
   45POPC   C3B  852   8.577   8.187   6.472
   45POPC   C4B  853   8.700   7.959   6.152
   46POPC   NC3  854   9.834  10.246   8.003
   46POPC   PO4  855  10.431   0.124   8.086
   46POPC   GL1  856   0.019  10.428   7.731
   46POPC   GL2  857  10.325  10.112   7.763
   46POPC   C1A  858  10.363  10.473   7.330
   46POPC   D2A  859  10.487   0.132   6.917
   46POPC   C3A  860  10.292   0.024   6.555
   46POPC   C4A  861  10.321  10.334   6.149
   46POPC   C1B  862  10.112  10.027   7.362
   46POPC   C2B  863  10.002  10.237   6.967
   46POPC   C3B  864  10.073  10.067   6.538
   46POPC   C4B  865   9.960   9.980   6.111
   47POPC   NC3  866   0.790   4.280   8.103
   47POPC   PO4  867   1.402   4.309   8.431
   47POPC   GL1  868   1.268   4.242   7.886
   47POPC   GL2  869   1.096   3.929   7.775
   47POPC   C1A  870   1.423   4.258   7.394
   47POPC   D2A  871   1.418   4.506   6.957
   47POPC   C3A  872   1.393   4.225   6.572
   47POPC   C4A  873   1.495   4.229   6.112
   47POPC   C1B  874   0.924   4.107   7.394
   47POPC   C2B  875   0.944   4.292   6.985
   47POPC   C3B  876   0.879   4.130   6.573
   47POPC   C4B  877   1.037   4.016   6.180
   48POPC   NC3  878   2.212   0.344   8.035
   48POPC   PO4  879   1.494   0.372   8.103
   48POPC   GL1  880   1.770   0.293   7.754
   48POPC   GL2  881   1.697   0.628   7.663
   48POPC   C1A  882   2.048   0.149   7.392
   48POPC   D2A  883   2.049  10.469   6.972
   48POPC   C3A  884   2.272   0.127   6.611
   48POPC   C4A  885   2.222   0.074   6.149
   48POPC   C1B  886   2.066   0.660   7.379
   48POPC   C2B  887   2.213   0.481   7.007
   48POPC   C3B  888   1.889   0.426   6.725
   48POPC   C4B  889   1.874   0.390   6.302
   49POPC   NC3  890   6.929   0.401   8.017
   49POPC   PO4  891   7.392   0.882   8.033
   49POPC   GL1  892   7.248   0.740   7.658
   49POPC   GL2  893   7.312   0.380   7.663
   49POPC   C1A  894   7.366   0.652   7.230
   49POPC   D2A  895   7.334   0.316   6.919
   49POPC   C3A  896   7.542   0.491   6.586
   49POPC   C4A  897   7.580   0.776   6.238
   49POPC   C1B  898   6.998   0.306   7.340
   49POPC   C2B  899   6.835   0.159   6.953
   49POPC   C3B  900   6.906   0.344   6.569
   49POPC   C4B  901   7.205   0.363   6.221
   50POPC   NC3  902   6.892   2.914   8.159
   50POPC   PO4  903   7.592   3.139   8.037
   50POPC   GL1  904   7.457   2.842   7.724
   50POPC   GL2  905   7.301   2.519   7.803
   50POPC   C1A  906   7.475   2.647   7.322
   50POPC   D2A  907   7.190   2.649   6.964
   50POPC   C3A  908   7.296   2.863   6.587
   50POPC   C4A  909   6.977   2.960   6.268
   50POPC   C1B  910   7.131   2.264   7.428
   50POPC   C2B  911   7.266   2.158   7.006
   50POPC   C3B  912   7.443   2.362   6.604
   50POPC   C4B  913   7.307   2.545   6.206
   51POPC   NC3  914   6.885   9.986   8.417
   51POPC   PO4  915   7.256   9.773   7.831
   51POPC   GL1  916   7.133  10.024   7.494
   51POPC   GL2  917   7.106  10.376   7.665
   51POPC   C1A  918   7.074   9.783   7.141
   51POPC   D2A  919   7.266   9.727   6.772
   51POPC   C3A  920   7.057   9.949   6.554
   51POPC   C4A  921   6.941  10.064   6.200
   51POPC   C1B  922   7.347  10.433   7.295
   51POPC   C2B  923   7.189  10.291   6.929
   51POPC   C3B  924   7.203  10.437   6.525
   51POPC   C4B  925   7.422  10.228   6.233
   52POPC   NC3  926  10.299   1.382   8.155
   52POPC   PO4  927   9.869   0.901   8.160
   52POPC   GL1  928  10.114   1.008   7.799
   52POPC   GL2  929  10.090   1.376   7.695
   52POPC   C1A  930  10.151   0.857   7.381
   52POPC   D2A  931  10.272   0.996   6.962
   52POPC   C3A  932   9.982   0.941   6.653
   52POPC   C4A  933  10.082   0.856   6.265
   52POPC   C1B  934  10.294   1.365   7.323
   52POPC   C2B  935  10.242   1.508   6.921
   52POPC   C3B  936  10.281   1.329   6.528
   52POPC   C4B  937  10.433   1.225   6.130
   53POPC   NC3  938   8.668   7.157   8.184
   53POPC   PO4  939   9.210   7.459   7.978
   53POPC   GL1  940   8.707   7.474   7.755
   53POPC   GL2  941   8.453   7.195   7.719
   53POPC   C1A  942   8.501   7.525   7.329
   53POPC   D2A  943   8.713   7.512   6.920
   53POPC   C3A  944   8.480   7.627   6.538
   53POPC   C4A  945   8.544   7.445   6.121
   53POPC   C1B  946   8.338   6.996   7.352
   53POPC   C2B  947   8.407   7.113   6.951
   53POPC   C3B  948   8.531   7.109   6.550
   53POPC   C4B  949   8.734   6.992   6.221
   54POPC   NC3  950   8.841   4.145   8.001
   54POPC   PO4  951   8.455   4.616   8.088
   54POPC   GL1  952   8.515   4.305   7.640
   54POPC   GL2  953   8.776   4.002   7.533
   54POPC   C1A  954   8.372   4.007   7.265
   54POPC   D2A  955   8.476   3.766   6.899
   54POPC   C3A  956   8.515   4.096   6.615
   54POPC   C4A  957   8.541   4.033   6.191
   54POPC   C1B  958   8.894   4.371   7.304
   54POPC   C2B  959   8.767   4.479   6.918
   54POPC   C3B  960   8.928   4.422   6.566
   54POPC   C4B  961   8.788   4.466   6.214
   55POPC   NC3  962   9.439   7.040   7.967
   55POPC   PO4  963   8.953   6.815   8.303
   55POPC   GL1  964   8.958   7.051   7.781
   55POPC   GL2  965   9.255   7.214   7.543
   55POPC   C1A  966   8.831   7.137   7.311
   55POPC   D2A  967   8.934   6.983   6.874
   55POPC   C3A  968   9.060   7.241   6.537
   55POPC   C4A  969   9.227   7.085   6.130
   55POPC   C1B  970   9.610   7.050   7.300
   55POPC   C2B  971   9.517   6.895   6.900
   55POPC   C3B  972   9.557   7.088   6.543
   55POPC   C4B  973   9.844   7.026   6.280
   56POPC   NC3  974  10.108   7.584   8.026
   56POPC   PO4  975  10.455   8.149   8.231
   56POPC   GL1  976  10.365   7.965   7.790
   56POPC   GL2  977  10.077   7.884   7.644
   56POPC   C1A  978  10.374   7.773   7.292
   56POPC   D2A  979   0.056   7.928   6.978
   56POPC   C3A  980  10.315   7.782   6.702
   56POPC   C4A  981  10.357   7.803   6.309
   56POPC   C1B  982   9.908   7.991   7.293
   56POPC   C2B  983  10.028   8.141   6.924
   56POPC   C3B  984   9.880   7.970   6.509
   56POPC   C4B  985   9.796   7.873   6.100
   57POPC   NC3  986   1.508   2.973   8.472
   57POPC   PO4  987   0.888   3.102   8.098
   57POPC   GL1  988   1.003   3.352   7.743
   57POPC   GL2  989   1.380   3.369   7.692
   57POPC   C1A  990   1.011   3.245   7.312
   57POPC   D2A  991   1.268   3.209   6.975
   57POPC   C3A  992   1.033   3.270   6.610
   57POPC   C4A  993   1.183   3.359   6.208
   57POPC   C1B  994   1.278   3.685   7.353
   57POPC   C2B  995   1.080   3.782   6.963
   57POPC   C3B  996   1.232   3.736   6.554
   57POPC   C4B  997   1.547   3.733   6.214
   58POPC   NC3  998  10.055   3.851   8.175
   58POPC   PO4  999   9.781   3.162   8.126
   58POPC   GL1 1000   9.893   3.134   7.687
   58POPC   GL2 1001  10.072   3.397   7.594
   58POPC   C1A 1002  10.049   3.006   7.280
   58POPC   D2A 1003   9.888   3.148   6.906
   58POPC   C3A 1004  10.100   3.109   6.556
   58POPC   C4A 1005  10.003   3.236   6.152
   58POPC   C1B 1006  10.060   3.582   7.182
   58POPC   C2B 1007  10.263   3.544   6.812
   58POPC   C3B 1008  10.250   3.742   6.424
   58POPC   C4B 1009  10.091   3.710   6.014
   59POPC   NC3 1010   7.129   7.820   8.377
   59POPC   PO4 1011   7.234   7.801   7.851
   59POPC   GL1 1012   7.132   7.948   7.542
   59POPC   GL2 1013   7.062   8.278   7.597
   59POPC   C1A 1014   7.152   7.750   7.190
   59POPC   D2A 1015   7.364   7.608   6.860
   59POPC   C3A 1016   7.173   7.668   6.438
   59POPC   C4A 1017   7.295   7.701   5.998
   59POPC   C1B 1018   7.278   8.277   7.207
   59POPC   C2B 1019   7.183   8.102   6.837
   59POPC   C3B 1020   7.151   8.174   6.479
   59POPC   C4B 1021   6.965   8.055   6.127
   60POPC   NC3 1022   2.684   6.603   8.118
   60POPC   PO4 1023   3.043   6.041   7.993
   60POPC   GL1 1024   2.752   6.262   7.657
   60POPC   GL2 1025   2.452   6.484   7.684
   60POPC   C1A 1026   2.862   6.372   7.200
   60POPC   D2A 1027   3.145   6.265   6.813
   60POPC   C3A 1028   3.023   6.389   6.385
   60POPC   C4A 1029   3.063   6.128   5.973
   60POPC   C1B 1030   2.301   6.287   7.317
   60POPC   C2B 1031   2.254   6.205   6.886
   60POPC   C3B 1032   2.462   6.412   6.514
   60POPC   C4B 1033   2.595   6.348   6.084
   61POPC   NC3 1034   8.124   4.297   7.967
   61POPC   PO4 1035   7.662   3.851   8.176
   61POPC   GL1 1036   7.682   3.805   7.763
   61POPC   GL2 1037   7.708   4.114   7.621
   61POPC   C1A 1038   7.690   3.692   7.324
   61POPC   D2A 1039   7.664   3.848   6.896
   61POPC   C3A 1040   8.020   3.878   6.659
   61POPC   C4A 1041   8.070   4.127   6.366
   61POPC   C1B 1042   7.907   4.195   7.215
   61POPC   C2B 1043   7.945   4.367   6.790
   61POPC   C3B 1044   7.759   4.514   6.378
   61POPC   C4B 1045   7.624   4.323   5.997
   62POPC   NC3 1046   0.184   0.485   7.940
   62POPC   PO4 1047   0.626   0.035   8.056
   62POPC   GL1 1048   0.499   0.171   7.683
   62POPC   GL2 1049   0.671   0.484   7.740
   62POPC   C1A 1050   0.378   0.074   7.270
   62POPC   D2A 1051   0.506   0.280   6.865
   62POPC   C3A 1052   0.310   0.090   6.492
   62POPC   C4A 1053   0.573   0.107   6.093
   62POPC   C1B 1054   0.487   0.575   7.342
   62POPC   C2B 1055   0.654   0.783   7.026
   62POPC   C3B 1056   0.632   0.799   6.622
   62POPC   C4B 1057   0.457   0.535   6.345
   63POPC   NC3 1058   0.194   4.459   8.428
   63POPC   PO4 1059   0.426   3.904   8.157
   63POPC   GL1 1060   0.541   4.031   7.742
   63POPC   GL2 1061   0.438   4.373   7.738
   63POPC   C1A 1062   0.377   4.064   7.318
   63POPC   D2A 1063   0.548   3.967   6.936
   63POPC   C3A 1064   0.381   4.059   6.531
   63POPC   C4A 1065   0.521   3.996   6.131
   63POPC   C1B 1066   0.615   4.515   7.351
   63POPC   C2B 1067   0.450   4.497   6.946
   63POPC   C3B 1068   0.534   4.567   6.530
   63POPC   C4B 1069   0.737   4.440   6.160
   64POPC   NC3 1070   3.982   0.669   8.103
   64POPC   PO4 1071   3.964   0.020   8.085
   64POPC   GL1 1072   3.910   0.279   7.752
   64POPC   GL2 1073   4.257   0.386   7.711
   64POPC   C1A 1074   3.924   0.180   7.326
   64POPC   D2A 1075   3.738   0.349   6.963
   64POPC   C3A 1076   3.850   0.244   6.541
   64POPC   C4A 1077   3.842   0.592   6.305
   64POPC   C1B 1078   4.425   0.150   7.332
   64POPC   C2B 1079   4.243   0.210   6.928
   64POPC   C3B 1080   4.200   0.580   6.683
   64POPC   C4B 1081   4.328   0.385   6.304
   65POPC   NC3 1082   4.972   9.538   8.209
   65POPC   PO4 1083   4.534   9.054   8.075
   65POPC   GL1 1084   4.905   9.301   7.752
   65POPC   GL2 1085   5.037   9.693   7.732
   65POPC   C1A 1086   5.144   9.425   7.332
   65POPC   D2A 1087   4.930   9.383   6.962
   65POPC   C3A 1088   5.170   9.417   6.606
   65POPC   C4A 1089   5.088   9.585   6.248
   65POPC   C1B 1090   4.683   9.654   7.420
   65POPC   C2B 1091   4.537   9.747   6.985
   65POPC   C3B 1092   4.676   9.639   6.579
   65POPC   C4B 1093   4.721   9.270   6.342
   66POPC   NC3 1094   2.746   4.991   8.142
   66POPC   PO4 1095   2.972   4.449   8.063
   66POPC   GL1 1096   2.823   4.720   7.711
   66POPC   GL2 1097   2.464   4.746   7.751
   66POPC   C1A 1098   2.711   5.030   7.369
   66POPC   D2A 1099   2.773   5.374   7.088
   66POPC   C3A 1100   2.872   5.134   6.722
   66POPC   C4A 1101   2.769   5.131   6.311
   66POPC   C1B 1102   2.536   4.552   7.324
   66POPC   C2B 1103   2.649   4.704   6.921
   66POPC   C3B 1104   2.684   4.648   6.476
   66POPC   C4B 1105   2.953   4.645   6.107
   67POPC   NC3 1106   8.868   8.531   8.065
   67POPC   PO4 1107   8.952   9.123   7.977
   67POPC   GL1 1108   8.892   8.820   7.633
   67POPC   GL2 1109   8.727   8.474   7.596
   67POPC   C1A 1110   9.098   8.693   7.258
   67POPC   D2A 1111   9.063   8.353   6.993
   67POPC   C3A 1112   9.069   8.542   6.607
   67POPC   C4A 1113   8.975   8.407   6.216
   67POPC   C1B 1114   8.534   8.684   7.265
   67POPC   C2B 1115   8.586   8.565   6.840
   67POPC   C3B 1116   8.612   8.706   6.408
   67POPC   C4B 1117   8.506   8.444   6.013
   68POPC   NC3 1118   5.284   0.466   7.921
   68POPC   PO4 1119   4.958  10.439   8.153
   68POPC   GL1 1120   4.742   0.186   7.798
   68POPC   GL2 1121   4.754   0.566   7.777
   68POPC   C1A 1122   4.906   0.281   7.364
   68POPC   D2A 1123   5.131   0.447   7.037
   68POPC   C3A 1124   5.111   0.415   6.634
   68POPC   C4A 1125   5.049   0.378   6.226
   68POPC   C1B 1126   4.553   0.657   7.363
   68POPC   C2B 1127   4.648   0.514   6.939
   68POPC   C3B 1128   4.680   0.676   6.535
   68POPC   C4B 1129   4.704   0.710   6.113
   69POPC   NC3 1130   9.357   5.354   7.972
   69POPC   PO4 1131   9.743   5.933   8.202
   69POPC   GL1 1132   9.722   5.768   7.805
   69POPC   GL2 1133   9.396   5.750   7.645
   69POPC   C1A 1134   9.828   5.907   7.400
   69POPC   D2A 1135   9.536   5.905   7.091
   69POPC   C3A 1136   9.624   5.970   6.662
   69POPC   C4A 1137   9.440   5.917   6.283
   69POPC   C1B 1138   9.381   5.439   7.313
   69POPC   C2B 1139   9.215   5.325   6.913
   69POPC   C3B 1140   9.165   5.492   6.515
   69POPC   C4B 1141   9.178   5.337   6.136
   70POPC   NC3 1142   4.327   2.787   7.886
   70POPC   PO4 1143   3.879   2.341   8.050
   70POPC   GL1 1144   3.953   2.555   7.626
   70POPC   GL2 1145   3.805   2.873   7.511
   70POPC   C1A 1146   4.286   2.498   7.276
   70POPC   D2A 1147   4.489   2.722   6.915
   70POPC   C3A 1148   4.269   2.817   6.514
   70POPC   C4A 1149   4.139   2.632   6.105
   70POPC   C1B 1150   3.817   2.625   7.130
   70POPC   C2B 1151   3.783   2.707   6.652
   70POPC   C3B 1152   3.734   2.906   6.250
   70POPC   C4B 1153   3.840   2.914   5.791
   71POPC   NC3 1154   7.002   6.950   8.401
   71POPC   PO4 1155   7.549   6.866   8.014
   71POPC   GL1 1156   7.543   6.666   7.655
   71POPC   GL2 1157   7.275   6.458   7.695
   71POPC   C1A 1158   7.331   6.745   7.235
   71POPC   D2A 1159   7.202   6.845   6.824
   71POPC   C3A 1160   7.495   6.763   6.534
   71POPC   C4A 1161   7.208   6.601   6.225
   71POPC   C1B 1162   7.206   6.233   7.282
   71POPC   C2B 1163   7.204   6.032   6.857
   71POPC   C3B 1164   7.046   6.184   6.466
   71POPC   C4B 1165   7.289   6.118   6.067
   72POPC   NC3 1166   1.099   5.682   8.100
   72POPC   PO4 1167   1.519   6.184   8.035
   72POPC   GL1 1168   1.547   5.829   7.722
   72POPC   GL2 1169   1.347   5.487   7.707
   72POPC   C1A 1170   1.526   5.699   7.281
   72POPC   D2A 1171   1.310   5.834   6.928
   72POPC   C3A 1172   1.508   5.961   6.549
   72POPC   C4A 1173   1.344   5.783   6.197
   72POPC   C1B 1174   1.036   5.562   7.368
   72POPC   C2B 1175   1.062   5.365   6.950
   72POPC   C3B 1176   1.093   5.523   6.551
   72POPC   C4B 1177   0.929   5.407   6.150
   73POPC   NC3 1178   3.590  10.249   8.133
   73POPC   PO4 1179   3.096   9.850   7.904
   73POPC   GL1 1180   3.457  10.005   7.664
   73POPC   GL2 1181   3.598  10.358   7.644
   73POPC   C1A 1182   3.445   9.954   7.222
   73POPC   D2A 1183   3.410   9.717   6.826
   73POPC   C3A 1184   3.288  10.010   6.520
   73POPC   C4A 1185   2.947   9.987   6.238
   73POPC   C1B 1186   3.485  10.458   7.247
   73POPC   C2B 1187   3.615  10.372   6.837
   73POPC   C3B 1188   3.711  10.277   6.416
   73POPC   C4B 1189   3.742   9.907   6.213
   74POPC   NC3 1190   0.239   8.353   7.927
   74POPC   PO4 1191   0.806   8.711   8.073
   74POPC   GL1 1192   0.698   8.508   7.729
   74POPC   GL2 1193   0.496   8.767   7.587
   74POPC   C1A 1194   0.826   8.476   7.323
   74POPC   D2A 1195   0.652   8.728   6.998
   74POPC   C3A 1196   0.768   8.583   6.618
   74POPC   C4A 1197   0.641   8.577   6.229
   74POPC   C1B 1198   0.189   8.833   7.267
   74POPC   C2B 1199   0.179   8.857   6.843
   74POPC   C3B 1200   0.233   8.594   6.530
   74POPC   C4B 1201   0.067   8.552   6.153
   75POPC   NC3 1202   1.091   6.398   8.031
   75POPC   PO4 1203   0.944   6.986   8.196
   75POPC   GL1 1204   1.213   6.859   7.760
   75POPC   GL2 1205   1.077   6.569   7.565
   75POPC   C1A 1206   1.466   6.721   7.315
   75POPC   D2A 1207   1.226   6.554   6.934
   75POPC   C3A 1208   1.420   6.550   6.490
   75POPC   C4A 1209   1.319   6.511   6.019
   75POPC   C1B 1210   1.108   6.162   7.352
   75POPC   C2B 1211   0.895   6.135   6.957
   75POPC   C3B 1212   1.045   6.178   6.547
   75POPC   C4B 1213   0.993   6.142   6.120
   76POPC   NC3 1214   0.046   4.067   7.924
   76POPC   PO4 1215  10.030   4.384   8.151
   76POPC   GL1 1216  10.073   4.226   7.730
   76POPC   GL2 1217  10.006   3.899   7.649
   76POPC   C1A 1218   9.938   4.292   7.299
   76POPC   D2A 1219  10.138   4.363   6.912
   76POPC   C3A 1220   9.909   4.379   6.558
   76POPC   C4A 1221  10.058   4.432   6.170
   76POPC   C1B 1222  10.347   3.982   7.309
   76POPC   C2B 1223   0.010   4.012   6.883
   76POPC   C3B 1224  10.416   4.237   6.477
   76POPC   C4B 1225  10.475   4.052   6.058
   77POPC   NC3 1226   1.900   5.894   8.132
   77POPC   PO4 1227   1.508   5.356   8.174
   77POPC   GL1 1228   1.848   5.430   7.821
   77POPC   GL2 1229   2.114   5.681   7.734
   77POPC   C1A 1230   1.821   5.305   7.394
   77POPC   D2A 1231   1.903   5.349   6.958
   77POPC   C3A 1232   1.620   5.451   6.625
   77POPC   C4A 1233   1.833   5.406   6.218
   77POPC   C1B 1234   2.020   5.858   7.334
   77POPC   C2B 1235   1.844   5.882   6.924
   77POPC   C3B 1236   2.012   5.785   6.525
   77POPC   C4B 1237   2.254   6.007   6.255
   78POPC   NC3 1238   8.442   3.387   7.900
   78POPC   PO4 1239   9.049   3.059   8.095
   78POPC   GL1 1240   8.896   3.310   7.728
   78POPC   GL2 1241   9.027   3.644   7.804
   78POPC   C1A 1242   8.702   3.462   7.313
   78POPC   D2A 1243   8.531   3.251   6.942
   78POPC   C3A 1244   8.715   3.347   6.536
   78POPC   C4A 1245   8.488   3.276   6.148
   78POPC   C1B 1246   9.156   3.695   7.365
   78POPC   C2B 1247   8.964   3.920   7.011
   78POPC   C3B 1248   8.987   3.914   6.550
   78POPC   C4B 1249   8.905   3.661   6.180
   79POPC   NC3 1250   9.716   4.258   8.473
   79POPC   PO4 1251   9.186   4.475   8.055
   79POPC   GL1 1252   9.214   4.241   7.669
   79POPC   GL2 1253   9.432   4.005   7.644
   79POPC   C1A 1254   9.408   4.374   7.288
   79POPC   D2A 1255   9.304   4.284   6.887
   79POPC   C3A 1256   9.425   4.487   6.507
   79POPC   C4A 1257   9.247   4.238   6.188
   79POPC   C1B 1258   9.633   3.888   7.289
   79POPC   C2B 1259   9.757   4.000   6.895
   79POPC   C3B 1260   9.515   3.960   6.540
   79POPC   C4B 1261   9.743   4.036   6.205
   80POPC   NC3 1262   6.234   6.714   7.722
   80POPC   PO4 1263   6.595   7.100   8.169
   80POPC   GL1 1264   6.666   7.134   7.691
   80POPC   GL2 1265   6.362   7.304   7.597
   80POPC   C1A 1266   6.759   6.871   7.274
   80POPC   D2A 1267   6.670   6.900   6.814
   80POPC   C3A 1268   6.716   6.595   6.448
   80POPC   C4A 1269   6.397   6.477   6.131
   80POPC   C1B 1270   6.596   7.368   7.196
   80POPC   C2B 1271   6.467   7.381   6.751
   80POPC   C3B 1272   6.262   7.171   6.408
   80POPC   C4B 1273   5.983   7.316   6.073
   81POPC   NC3 1274   0.749   1.135   8.344
   81POPC   PO4 1275   0.072   0.858   8.184
   81POPC   GL1 1276   0.125   0.990   7.758
   81POPC   GL2 1277   0.109   1.354   7.738
   81POPC   C1A 1278   0.150   0.957   7.316
   81POPC   D2A 1279   0.279   1.122   6.934
   81POPC   C3A 1280   0.162   0.993   6.541
   81POPC   C4A 1281   0.394   0.986   6.170
   81POPC   C1B 1282   0.301   1.450   7.336
   81POPC   C2B 1283   0.276   1.623   6.890
   81POPC   C3B 1284   0.308   1.474   6.415
   81POPC   C4B 1285   0.618   1.397   6.030
   82POPC   NC3 1286   9.308   6.122   8.163
   82POPC   PO4 1287   9.083   6.589   7.835
   82POPC   GL1 1288   9.102   6.203   7.681
   82POPC   GL2 1289   9.459   6.252   7.634
   82POPC   C1A 1290   9.082   6.154   7.252
   82POPC   D2A 1291   8.851   6.275   6.861
   82POPC   C3A 1292   9.125   6.291   6.478
   82POPC   C4A 1293   9.195   6.721   6.462
   82POPC   C1B 1294   9.383   6.554   7.277
   82POPC   C2B 1295   9.409   6.397   6.876
   82POPC   C3B 1296   9.636   6.456   6.485
   82POPC   C4B 1297   9.948   6.193   6.300
   83POPC   NC3 1298   9.554   0.696   7.871
   83POPC   PO4 1299   9.096   0.516   8.337
   83POPC   GL1 1300   9.155   0.386   7.780
   83POPC   GL2 1301   9.483   0.303   7.563
   83POPC   C1A 1302   9.083   0.497   7.322
   83POPC   D2A 1303   9.237   0.307   6.924
   83POPC   C3A 1304   9.138   0.429   6.519
   83POPC   C4A 1305   9.071   0.830   6.450
   83POPC   C1B 1306   9.591   0.607   7.212
   83POPC   C2B 1307   9.576   0.661   6.777
   83POPC   C3B 1308   9.604   0.640   6.361
   83POPC   C4B 1309   9.485   0.316   6.119
   84POPC   NC3 1310   7.169   7.004   7.800
   84POPC   PO4 1311   7.475   7.453   8.277
   84POPC   GL1 1312   7.480   7.371   7.757
   84POPC   GL2 1313   7.112   7.418   7.553
   84POPC   C1A 1314   7.550   7.371   7.313
   84POPC   D2A 1315   7.607   7.143   6.928
   84POPC   C3A 1316   7.548   7.295   6.517
   84POPC   C4A 1317   7.273   7.126   6.261
   84POPC   C1B 1318   7.091   7.241   7.127
   84POPC   C2B 1319   6.973   7.292   6.694
   84POPC   C3B 1320   6.775   7.088   6.331
   84POPC   C4B 1321   6.810   6.781   5.959
   85POPC   NC3 1322   7.767   1.748   8.121
   85POPC   PO4 1323   8.051   2.265   8.091
   85POPC   GL1 1324   8.021   1.929   7.682
   85POPC   GL2 1325   7.733   1.696   7.609
   85POPC   C1A 1326   8.084   1.698   7.251
   85POPC   D2A 1327   8.189   1.746   6.819
   85POPC   C3A 1328   7.983   1.602   6.446
   85POPC   C4A 1329   8.121   1.575   5.977
   85POPC   C1B 1330   7.737   2.068   7.285
   85POPC   C2B 1331   7.760   2.069   6.894
   85POPC   C3B 1332   7.905   2.104   6.543
   85POPC   C4B 1333   8.058   2.026   6.194
   86POPC   NC3 1334   6.916   9.199   8.151
   86POPC   PO4 1335   7.278   9.751   8.386
   86POPC   GL1 1336   7.368   9.309   7.959
   86POPC   GL2 1337   7.086   9.313   7.691
   86POPC   C1A 1338   7.487   9.104   7.481
   86POPC   D2A 1339   7.322   8.940   7.032
   86POPC   C3A 1340   7.323   9.159   6.625
   86POPC   C4A 1341   7.466   9.076   6.193
   86POPC   C1B 1342   6.805   9.245   7.339
   86POPC   C2B 1343   6.933   9.321   6.921
   86POPC   C3B 1344   6.923   9.456   6.486
   86POPC   C4B 1345   7.324   9.595   6.281
   87POPC   NC3 1346   6.920   1.065   8.116
   87POPC   PO4 1347   7.383   1.521   8.096
   87POPC   GL1 1348   7.214   1.277   7.730
   87POPC   GL2 1349   6.932   1.174   7.641
   87POPC   C1A 1350   7.287   1.203   7.292
   87POPC   D2A 1351   7.298   1.105   6.881
   87POPC   C3A 1352   7.120   1.360   6.556
   87POPC   C4A 1353   7.166   1.341   6.111
   87POPC   C1B 1354   6.849   0.844   7.355
   87POPC   C2B 1355   6.940   0.698   6.937
   87POPC   C3B 1356   7.117   0.801   6.520
   87POPC   C4B 1357   6.845   1.006   6.286
   88POPC   NC3 1358   2.559   0.917   8.118
   88POPC   PO4 1359   3.206   1.049   8.164
   88POPC   GL1 1360   3.112   1.277   7.738
   88POPC   GL2 1361   2.796   1.154   7.684
   88POPC   C1A 1362   3.063   1.370   7.269
   88POPC   D2A 1363   3.018   1.108   6.932
   88POPC   C3A 1364   2.882   1.255   6.547
   88POPC   C4A 1365   3.048   1.120   6.205
   88POPC   C1B 1366   2.609   1.118   7.278
   88POPC   C2B 1367   2.530   1.331   6.907
   88POPC   C3B 1368   2.361   1.163   6.524
   88POPC   C4B 1369   2.466   1.028   6.127
   89POPC   NC3 1370   0.514   9.081   7.998
   89POPC   PO4 1371   0.408   9.751   7.983
   89POPC   GL1 1372   0.590   9.444   7.670
   89POPC   GL2 1373   0.289   9.296   7.579
   89POPC   C1A 1374   0.617   9.177   7.236
   89POPC   D2A 1375   0.427   9.296   6.818
   89POPC   C3A 1376   0.519   9.031   6.468
   89POPC   C4A 1377   0.536   9.018   5.997
   89POPC   C1B 1378   0.427   9.649   7.273
   89POPC   C2B 1379   0.345   9.789   6.907
   89POPC   C3B 1380   0.512   9.786   6.532
   89POPC   C4B 1381   0.362   9.479   6.239
   90POPC   NC3 1382   5.690   9.008   8.016
   90POPC   PO4 1383   5.423   9.656   8.115
   90POPC   GL1 1384   5.517   9.466   7.711
   90POPC   GL2 1385   5.864   9.436   7.744
   90POPC   C1A 1386   5.583   9.152   7.361
   90POPC   D2A 1387   5.352   9.077   6.953
   90POPC   C3A 1388   5.586   9.116   6.566
   90POPC   C4A 1389   5.740   9.361   6.232
   90POPC   C1B 1390   5.886   9.600   7.337
   90POPC   C2B 1391   5.588   9.540   7.014
   90POPC   C3B 1392   5.644   9.649   6.635
   90POPC   C4B 1393   6.021   9.776   6.372
   91POPC   NC3 1394   3.771   2.801   8.115
   91POPC   PO4 1395   3.101   2.961   8.152
   91POPC   GL1 1396   3.384   2.956   7.794
   91POPC   GL2 1397   3.453   2.576   7.781
   91POPC   C1A 1398   3.236   3.013   7.370
   91POPC   D2A 1399   3.031   2.825   7.033
   91POPC   C3A 1400   3.196   2.875   6.619
   91POPC   C4A 1401   3.245   3.029   6.234
   91POPC   C1B 1402   3.329   2.501   7.359
   91POPC   C2B 1403   3.389   2.495   6.919
   91POPC   C3B 1404   3.405   2.416   6.495
   91POPC   C4B 1405   3.335   2.541   6.108
   92POPC   NC3 1406   1.873   8.228   8.094
   92POPC   PO4 1407   1.756   7.569   8.189
   92POPC   GL1 1408   1.614   7.799   7.784
   92POPC   GL2 1409   1.682   8.105   7.616
   92POPC   C1A 1410   1.698   7.662   7.326
   92POPC   D2A 1411   1.694   7.923   6.955
   92POPC   C3A 1412   1.698   7.760   6.523
   92POPC   C4A 1413   1.679   8.183   6.307
   92POPC   C1B 1414   2.067   7.988   7.373
   92POPC   C2B 1415   2.169   7.788   6.958
   92POPC   C3B 1416   2.110   8.045   6.606
   92POPC   C4B 1417   2.120   7.841   6.235
   93POPC   NC3 1418   7.689   7.753   7.976
   93POPC   PO4 1419   7.996   8.306   8.166
   93POPC   GL1 1420   7.976   8.062   7.714
   93POPC   GL2 1421   7.609   8.152   7.647
   93POPC   C1A 1422   8.125   7.873   7.288
   93POPC   D2A 1423   8.187   8.102   6.891
   93POPC   C3A 1424   8.109   7.984   6.492
   93POPC   C4A 1425   8.061   8.216   6.145
   93POPC   C1B 1426   7.624   7.888   7.300
   93POPC   C2B 1427   7.685   8.014   6.905
   93POPC   C3B 1428   7.616   7.888   6.499
   93POPC   C4B 1429   7.538   8.139   6.176
   94POPC   NC3 1430   0.586   7.503   7.906
   94POPC   PO4 1431   0.467   6.914   7.821
   94POPC   GL1 1432   0.751   6.956   7.550
   94POPC   GL2 1433   0.603   7.253   7.459
   94POPC   C1A 1434   0.797   6.911   7.129
   94POPC   D2A 1435   0.488   7.138   6.955
   94POPC   C3A 1436   0.494   7.032   6.589
   94POPC   C4A 1437   0.716   7.147   6.244
   94POPC   C1B 1438   0.147   7.169   7.335
   94POPC   C2B 1439  10.434   7.359   7.007
   94POPC   C3B 1440   0.200   7.471   6.657
   94POPC   C4B 1441   0.226   7.304   6.246
   95POPC   NC3 1442   2.195   7.474   8.071
   95POPC   PO4 1443   1.650   6.981   7.979
   95POPC   GL1 1444   1.743   7.075   7.586
   95POPC   GL2 1445   1.873   7.373   7.690
   95POPC   C1A 1446   1.696   7.178   7.160
   95POPC   D2A 1447   1.675   6.893   6.836
   95POPC   C3A 1448   1.610   7.055   6.468
   95POPC   C4A 1449   1.689   6.839   6.125
   95POPC   C1B 1450   2.193   7.453   7.383
   95POPC   C2B 1451   2.217   7.173   7.050
   95POPC   C3B 1452   1.999   7.300   6.709
   95POPC   C4B 1453   2.022   7.326   6.277
   96POPC   NC3 1454   4.249   3.515   8.033
   96POPC   PO4 1455   4.648   3.983   7.775
   96POPC   GL1 1456   4.377   3.644   7.541
   96POPC   GL2 1457   4.427   3.276   7.615
   96POPC   C1A 1458   4.269   3.484   7.115
   96POPC   D2A 1459   4.449   3.289   6.755
   96POPC   C3A 1460   4.468   3.616   6.429
   96POPC   C4A 1461   4.127   3.875   6.248
   96POPC   C1B 1462   4.272   3.010   7.294
   96POPC   C2B 1463   4.070   3.008   6.948
   96POPC   C3B 1464   3.942   3.227   6.623
   96POPC   C4B 1465   4.094   3.295   6.218
   97POPC   NC3 1466   5.109   2.915   8.162
   97POPC   PO4 1467   4.535   3.114   8.118
   97POPC   GL1 1468   4.798   2.926   7.738
   97POPC   GL2 1469   5.153   2.812   7.659
   97POPC   C1A 1470   4.793   2.909   7.280
   97POPC   D2A 1471   4.993   2.861   6.863
   97POPC   C3A 1472   4.805   2.722   6.520
   97POPC   C4A 1473   4.622   2.769   6.154
   97POPC   C1B 1474   5.241   2.631   7.242
   97POPC   C2B 1475   5.184   2.380   6.820
   97POPC   C3B 1476   5.271   2.524   6.387
   97POPC   C4B 1477   5.235   2.968   6.290
   98POPC   NC3 1478   1.785   6.562   8.062
   98POPC   PO4 1479   2.274   6.155   8.045
   98POPC   GL1 1480   1.945   6.199   7.711
   98POPC   GL2 1481   1.925   6.545   7.590
   98POPC   C1A 1482   1.653   6.208   7.331
   98POPC   D2A 1483   1.714   6.396   6.928
   98POPC   C3A 1484   1.910   6.319   6.535
   98POPC   C4A 1485   1.718   6.239   6.161
   98POPC   C1B 1486   1.986   6.735   7.227
   98POPC   C2B 1487   2.146   6.707   6.829
   98POPC   C3B 1488   2.118   6.833   6.426
   98POPC   C4B 1489   2.117   6.546   6.088
   99POPC   NC3 1490   1.278   2.900   7.919
   99POPC   PO4 1491   0.875   2.227   8.021
   99POPC   GL1 1492   0.924   2.478   7.650
   99POPC   GL2 1493   0.878   2.849   7.618
   99POPC   C1A 1494   0.942   2.246   7.278
   99POPC   D2A 1495   1.131   2.289   6.888
   99POPC   C3A 1496   0.977   2.377   6.464
   99POPC   C4A 1497   1.114   2.506   6.039
   99POPC   C1B 1498   1.095   2.734   7.220
   99POPC   C2B 1499   1.063   2.782   6.775
   99POPC   C3B 1500   1.242   2.850   6.417
   99POPC   C4B 1501   0.879   2.925   6.203
  100POPC   NC3 1502   8.270  10.438   7.931
  100POPC   PO4 1503   8.223   9.850   8.073
  100POPC   GL1 1504   7.989   9.970   7.699
  100POPC   GL2 1505   7.637  10.087   7.671
  100POPC   C1A 1506   8.038  10.193   7.304
  100POPC   D2A 1507   8.162  10.018   6.912
  100POPC   C3A 1508   8.175  10.220   6.525
  100POPC   C4A 1509   7.929  10.289   6.165
  100POPC   C1B 1510   7.572   9.961   7.229
  100POPC   C2B 1511   7.644  10.073   6.817
  100POPC   C3B 1512   7.765   9.900   6.454
  100POPC   C4B 1513   7.699   9.859   6.023
  101POPC   NC3 1514   2.012   1.324   8.051
  101POPC   PO4 1515   1.855   2.004   8.166
  101POPC   GL1 1516   1.707   1.921   7.737
  101POPC   GL2 1517   1.871   2.229   7.652
  101POPC   C1A 1518   1.713   1.677   7.312
  101POPC   D2A 1519   1.963   1.754   6.906
  101POPC   C3A 1520   2.124   1.722   6.470
  101POPC   C4A 1521   1.819   1.674   6.088
  101POPC   C1B 1522   1.961   2.117   7.268
  101POPC   C2B 1523   1.878   2.304   6.911
  101POPC   C3B 1524   1.956   2.354   6.513
  101POPC   C4B 1525   1.900   2.128   6.249
  102POPC   NC3 1526   0.460   3.346   8.211
  102POPC   PO4 1527  10.414   3.583   7.909
  102POPC   GL1 1528   0.200   3.663   7.605
  102POPC   GL2 1529   0.506   3.518   7.738
  102POPC   C1A 1530   0.204   3.595   7.161
  102POPC   D2A 1531   0.194   3.229   6.908
  102POPC   C3A 1532   0.080   3.307   6.473
  102POPC   C4A 1533   0.216   3.621   6.248
  102POPC   C1B 1534   0.693   3.643   7.356
  102POPC   C2B 1535   0.672   3.483   6.938
  102POPC   C3B 1536   0.691   3.644   6.530
  102POPC   C4B 1537   0.674   3.397   6.193
  103POPC   NC3 1538   0.327  10.200   8.117
  103POPC   PO4 1539   1.073  10.219   8.123
  103POPC   GL1 1540   0.824  10.263   7.676
  103POPC   GL2 1541   0.502  10.146   7.655
  103POPC   C1A 1542   0.747  10.080   7.225
  103POPC   D2A 1543   0.510  10.262   6.884
  103POPC   C3A 1544   0.707  10.287   6.498
  103POPC   C4A 1545   0.649  10.107   6.140
  103POPC   C1B 1546   0.180  10.079   7.370
  103POPC   C2B 1547  10.490  10.126   6.984
  103POPC   C3B 1548   0.106  10.131   6.584
  103POPC   C4B 1549   0.148   9.953   6.221
  104POPC   NC3 1550   7.681   1.227   7.872
  104POPC   PO4 1551   8.236   1.014   8.217
  104POPC   GL1 1552   8.192   1.009   7.731
  104POPC   GL2 1553   7.971   1.255   7.481
  104POPC   C1A 1554   8.277   0.958   7.270
  104POPC   D2A 1555   8.134   1.242   6.920
  104POPC   C3A 1556   8.146   1.141   6.497
  104POPC   C4A 1557   7.997   1.091   6.098
  104POPC   C1B 1558   7.764   0.980   7.179
  104POPC   C2B 1559   7.751   0.929   6.734
  104POPC   C3B 1560   7.608   1.240   6.433
  104POPC   C4B 1561   7.636   1.514   6.074
  105POPC   NC3 1562   6.845   9.973   7.894
  105POPC   PO4 1563   6.230   9.621   8.029
  105POPC   GL1 1564   6.237   9.910   7.703
  105POPC   GL2 1565   6.443  10.224   7.694
  105POPC   C1A 1566   6.124  10.065   7.299
  105POPC   D2A 1567   6.060   9.900   6.890
  105POPC   C3A 1568   6.102  10.244   6.605
  105POPC   C4A 1569   6.336  10.222   6.267
  105POPC   C1B 1570   6.707  10.300   7.335
  105POPC   C2B 1571   6.709  10.095   6.948
  105POPC   C3B 1572   6.708  10.312   6.595
  105POPC   C4B 1573   6.727   0.037   6.222
  106POPC   NC3 1574   4.855   1.943   7.977
  106POPC   PO4 1575   5.151   2.464   8.091
  106POPC   GL1 1576   4.939   2.345   7.647
  106POPC   GL2 1577   4.936   1.997   7.494
  106POPC   C1A 1578   4.798   2.388   7.202
  106POPC   D2A 1579   4.640   2.238   6.821
  106POPC   C3A 1580   4.853   2.237   6.425
  106POPC   C4A 1581   4.687   2.301   5.992
  106POPC   C1B 1582   4.814   1.850   7.115
  106POPC   C2B 1583   4.978   1.844   6.737
  106POPC   C3B 1584   5.013   1.737   6.348
  106POPC   C4B 1585   5.093   2.013   6.047
  107POPC   NC3 1586  10.234   8.500   8.055
  107POPC   PO4 1587   9.823   8.991   8.060
  107POPC   GL1 1588   9.963   8.760   7.675
  107POPC   GL2 1589   9.995   8.401   7.620
  107POPC   C1A 1590  10.168   8.743   7.285
  107POPC   D2A 1591   9.982   8.840   6.925
  107POPC   C3A 1592  10.231   8.750   6.615
  107POPC   C4A 1593  10.063   8.744   6.236
  107POPC   C1B 1594  10.341   8.277   7.363
  107POPC   C2B 1595  10.449   8.419   6.945
  107POPC   C3B 1596  10.318   8.271   6.529
  107POPC   C4B 1597  10.163   8.234   6.135
  108POPC   NC3 1598   1.955   9.879   7.978
  108POPC   PO4 1599   1.554   9.354   8.233
  108POPC   GL1 1600   1.768   9.439   7.772
  108POPC   GL2 1601   2.007   9.172   7.672
  108POPC   C1A 1602   1.979   9.517   7.322
  108POPC   D2A 1603   1.788   9.430   6.926
  108POPC   C3A 1604   1.909   9.568   6.502
  108POPC   C4A 1605   1.656   9.566   6.151
  108POPC   C1B 1606   2.107   8.987   7.293
  108POPC   C2B 1607   2.156   9.063   6.873
  108POPC   C3B 1608   1.891   9.083   6.549
  108POPC   C4B 1609   1.930   9.140   6.150
  109POPC   NC3 1610   0.855   9.823   7.929
  109POPC   PO4 1611   1.510   9.955   8.001
  109POPC   GL1 1612   1.254   9.987   7.676
  109POPC   GL2 1613   1.317  10.278   7.627
  109POPC   C1A 1614   1.259   9.961   7.242
  109POPC   D2A 1615   1.334   9.754   6.898
  109POPC   C3A 1616   1.042   9.910   6.630
  109POPC   C4A 1617   1.180   9.774   6.267
  109POPC   C1B 1618   1.119  10.457   7.283
  109POPC   C2B 1619   1.033  10.404   6.866
  109POPC   C3B 1620   1.220  10.355   6.447
  109POPC   C4B 1621   1.073   0.026   6.056
  110POPC   NC3 1622   7.644   9.692   8.103
  110POPC   PO4 1623   8.001   9.147   8.163
  110POPC   GL1 1624   7.888   9.330   7.795
  110POPC   GL2 1625   8.193   9.485   7.727
  110POPC   C1A 1626   7.783   9.515   7.404
  110POPC   D2A 1627   7.514   9.431   7.070
  110POPC   C3A 1628   7.732   9.441   6.666
  110POPC   C4A 1629   7.837   9.420   6.246
  110POPC   C1B 1630   8.248   9.699   7.335
  110POPC   C2B 1631   8.144   9.509   6.950
  110POPC   C3B 1632   8.241   9.669   6.540
  110POPC   C4B 1633   8.197   9.816   6.151
  111POPC   NC3 1634   9.283   7.917   8.056
  111POPC   PO4 1635   9.933   8.146   8.043
  111POPC   GL1 1636   9.613   8.066   7.708
  111POPC   GL2 1637   9.614   7.683   7.726
  111POPC   C1A 1638   9.420   8.109   7.279
  111POPC   D2A 1639   9.561   7.991   6.906
  111POPC   C3A 1640   9.363   8.132   6.589
  111POPC   C4A 1641   9.283   8.011   6.221
  111POPC   C1B 1642   9.474   7.607   7.307
  111POPC   C2B 1643   9.383   7.405   6.930
  111POPC   C3B 1644   9.453   7.610   6.547
  111POPC   C4B 1645   9.562   7.449   6.166
  112POPC   NC3 1646   8.661   1.091   8.012
  112POPC   PO4 1647   8.079   1.466   7.933
  112POPC   GL1 1648   8.415   1.477   7.628
  112POPC   GL2 1649   8.786   1.428   7.642
  112POPC   C1A 1650   8.511   1.427   7.195
  112POPC   D2A 1651   8.642   1.495   6.787
  112POPC   C3A 1652   8.489   1.507   6.366
  112POPC   C4A 1653   8.586   1.432   5.936
  112POPC   C1B 1654   8.803   1.045   7.361
  112POPC   C2B 1655   8.665   0.977   6.954
  112POPC   C3B 1656   8.630   1.034   6.566
  112POPC   C4B 1657   8.521   0.990   6.175
  113POPC   NC3 1658   5.292   0.163   8.391
  113POPC   PO4 1659   5.737   0.607   8.118
  113POPC   GL1 1660   5.701   0.625   7.681
  113POPC   GL2 1661   5.838   0.302   7.679
  113POPC   C1A 1662   5.554   0.449   7.269
  113POPC   D2A 1663   5.566   0.639   6.814
  113POPC   C3A 1664   5.522   0.545   6.335
  113POPC   C4A 1665   5.438   0.768   5.931
  113POPC   C1B 1666   6.031   0.532   7.308
  113POPC   C2B 1667   5.991   0.319   6.957
  113POPC   C3B 1668   5.921   0.343   6.565
  113POPC   C4B 1669   6.010   0.708   6.318
  114POPC   NC3 1670   2.058   3.483   8.145
  114POPC   PO4 1671   2.379   2.854   8.231
  114POPC   GL1 1672   2.240   3.151   7.811
  114POPC   GL2 1673   1.960   3.415   7.671
  114POPC   C1A 1674   2.167   3.095   7.350
  114POPC   D2A 1675   1.970   2.945   6.984
  114POPC   C3A 1676   2.180   3.063   6.626
  114POPC   C4A 1677   2.152   3.423   6.366
  114POPC   C1B 1678   1.717   3.375   7.290
  114POPC   C2B 1679   1.603   3.599   6.911
  114POPC   C3B 1680   1.578   3.339   6.558
  114POPC   C4B 1681   1.685   3.177   6.181
  115POPC   NC3 1682   7.836   2.686   8.072
  115POPC   PO4 1683   7.562   2.080   7.885
  115POPC   GL1 1684   7.853   2.424   7.637
  115POPC   GL2 1685   7.962   2.820   7.619
  115POPC   C1A 1686   8.006   2.517   7.225
  115POPC   D2A 1687   7.761   2.602   6.908
  115POPC   C3A 1688   8.013   2.595   6.593
  115POPC   C4A 1689   7.808   2.512   6.241
  115POPC   C1B 1690   8.210   3.006   7.316
  115POPC   C2B 1691   8.081   2.986   6.921
  115POPC   C3B 1692   7.790   3.056   6.607
  115POPC   C4B 1693   8.038   2.996   6.256
  116POPC   NC3 1694   2.960   9.472   8.169
  116POPC   PO4 1695   2.301   9.577   8.044
  116POPC   GL1 1696   2.481   9.372   7.695
  116POPC   GL2 1697   2.777   9.525   7.663
  116POPC   C1A 1698   2.472   9.388   7.235
  116POPC   D2A 1699   2.321   9.597   6.851
  116POPC   C3A 1700   2.354   9.347   6.474
  116POPC   C4A 1701   2.406   9.241   6.056
  116POPC   C1B 1702   2.725   9.831   7.324
  116POPC   C2B 1703   2.884   9.795   6.936
  116POPC   C3B 1704   2.815   9.563   6.612
  116POPC   C4B 1705   2.812   9.502   6.212
  117POPC   NC3 1706   9.467   2.817   7.934
  117POPC   PO4 1707   9.540   2.196   8.215
  117POPC   GL1 1708   9.548   2.320   7.748
  117POPC   GL2 1709   9.320   2.545   7.523
  117POPC   C1A 1710   9.697   2.331   7.304
  117POPC   D2A 1711   9.439   2.440   6.953
  117POPC   C3A 1712   9.537   2.599   6.564
  117POPC   C4A 1713   9.253   2.605   6.210
  117POPC   C1B 1714   9.562   2.841   7.275
  117POPC   C2B 1715   9.399   3.003   6.921
  117POPC   C3B 1716   9.166   2.965   6.582
  117POPC   C4B 1717   9.577   3.084   6.403
  118POPC   NC3 1718   5.624   8.249   8.013
  118POPC   PO4 1719   6.075   8.778   8.151
  118POPC   GL1 1720   6.019   8.593   7.757
  118POPC   GL2 1721   5.665   8.597   7.624
  118POPC   C1A 1722   6.036   8.785   7.342
  118POPC   D2A 1723   5.843   8.912   6.966
  118POPC   C3A 1724   5.876   8.696   6.564
  118POPC   C4A 1725   6.011   8.930   6.200
  118POPC   C1B 1726   5.467   8.658   7.227
  118POPC   C2B 1727   5.441   8.467   6.800
  118POPC   C3B 1728   5.340   8.564   6.385
  118POPC   C4B 1729   5.631   8.614   6.101
  119POPC   NC3 1730   1.188   8.991   8.151
  119POPC   PO4 1731   1.459   8.446   8.120
  119POPC   GL1 1732   1.379   8.502   7.715
  119POPC   GL2 1733   1.162   8.723   7.707
  119POPC   C1A 1734   1.338   8.399   7.292
  119POPC   D2A 1735   1.538   8.394   6.905
  119POPC   C3A 1736   1.265   8.342   6.581
  119POPC   C4A 1737   1.225   8.517   6.236
  119POPC   C1B 1738   1.066   8.914   7.342
  119POPC   C2B 1739   1.158   8.748   6.960
  119POPC   C3B 1740   1.055   8.983   6.644
  119POPC   C4B 1741   0.967   8.943   6.249
  120POPC   NC3 1742   2.778  10.302   8.356
  120POPC   PO4 1743   2.639   0.452   8.209
  120POPC   GL1 1744   2.817   0.421   7.809
  120POPC   GL2 1745   3.044   0.707   7.744
  120POPC   C1A 1746   2.606   0.302   7.406
  120POPC   D2A 1747   2.627   0.082   7.013
  120POPC   C3A 1748   2.762   0.289   6.665
  120POPC   C4A 1749   2.891   0.304   6.263
  120POPC   C1B 1750   2.929   0.721   7.297
  120POPC   C2B 1751   2.665   0.752   6.915
  120POPC   C3B 1752   2.747   0.769   6.484
  120POPC   C4B 1753   2.422   0.528   6.329
  121POPC   NC3 1754   4.221   8.000   8.342
  121POPC   PO4 1755   4.362   7.442   8.073
  121POPC   GL1 1756   4.347   7.411   7.646
  121POPC   GL2 1757   4.063   7.217   7.643
  121POPC   C1A 1758   4.297   7.331   7.198
  121POPC   D2A 1759   4.459   7.439   6.794
  121POPC   C3A 1760   4.352   7.195   6.423
  121POPC   C4A 1761   4.605   6.858   6.212
  121POPC   C1B 1762   4.038   6.910   7.319
  121POPC   C2B 1763   4.129   6.965   6.859
  121POPC   C3B 1764   3.972   6.800   6.457
  121POPC   C4B 1765   4.110   6.918   6.046
  122POPC   NC3 1766   7.918   3.430   8.188
  122POPC   PO4 1767   8.459   3.850   7.935
  122POPC   GL1 1768   8.153   3.704   7.631
  122POPC   GL2 1769   7.941   3.357   7.670
  122POPC   C1A 1770   8.188   3.514   7.253
  122POPC   D2A 1771   7.981   3.459   6.924
  122POPC   C3A 1772   8.189   3.396   6.557
  122POPC   C4A 1773   8.177   3.655   6.193
  122POPC   C1B 1774   7.715   3.166   7.297
  122POPC   C2B 1775   7.489   3.363   6.940
  122POPC   C3B 1776   7.630   3.533   6.503
  122POPC   C4B 1777   7.737   3.349   6.085
  123POPC   NC3 1778   2.574   8.449   8.434
  123POPC   PO4 1779   2.289   8.000   7.989
  123POPC   GL1 1780   2.583   7.855   7.699
  123POPC   GL2 1781   2.913   7.887   7.861
  123POPC   C1A 1782   2.551   7.884   7.259
  123POPC   D2A 1783   2.566   8.132   6.913
  123POPC   C3A 1784   2.585   7.889   6.569
  123POPC   C4A 1785   2.600   8.032   6.178
  123POPC   C1B 1786   3.007   7.811   7.405
  123POPC   C2B 1787   2.991   7.775   6.943
  123POPC   C3B 1788   2.949   7.546   6.527
  123POPC   C4B 1789   2.984   7.687   6.119
  124POPC   NC3 1790   2.505   8.401   7.860
  124POPC   PO4 1791   2.991   8.278   8.344
  124POPC   GL1 1792   3.031   8.378   7.823
  124POPC   GL2 1793   2.955   8.704   7.650
  124POPC   C1A 1794   2.885   8.301   7.338
  124POPC   D2A 1795   2.723   8.619   7.001
  124POPC   C3A 1796   2.690   8.500   6.529
  124POPC   C4A 1797   2.970   8.430   6.171
  124POPC   C1B 1798   2.883   9.036   7.300
  124POPC   C2B 1799   2.665   9.108   6.859
  124POPC   C3B 1800   2.761   9.056   6.435
  124POPC   C4B 1801   2.685   8.833   6.074
  125POPC   NC3 1802   7.819   6.478   8.065
  125POPC   PO4 1803   8.292   6.904   8.102
  125POPC   GL1 1804   8.178   6.663   7.700
  125POPC   GL2 1805   8.041   6.338   7.655
  125POPC   C1A 1806   8.229   6.495   7.240
  125POPC   D2A 1807   8.045   6.304   6.883
  125POPC   C3A 1808   8.010   6.520   6.500
  125POPC   C4A 1809   8.268   6.727   6.197
  125POPC   C1B 1810   7.722   6.353   7.310
  125POPC   C2B 1811   7.542   6.412   6.907
  125POPC   C3B 1812   7.554   6.261   6.493
  125POPC   C4B 1813   7.690   6.478   6.103
  126POPC   NC3 1814   2.613   5.853   7.946
  126POPC   PO4 1815   2.359   5.237   8.123
  126POPC   GL1 1816   2.411   5.268   7.700
  126POPC   GL2 1817   2.699   5.492   7.602
  126POPC   C1A 1818   2.304   5.444   7.306
  126POPC   D2A 1819   2.313   5.675   6.941
  126POPC   C3A 1820   2.557   5.535   6.639
  126POPC   C4A 1821   2.443   5.527   6.258
  126POPC   C1B 1822   2.633   5.864   7.290
  126POPC   C2B 1823   2.710   6.002   6.848
  126POPC   C3B 1824   2.758   5.952   6.404
  126POPC   C4B 1825   2.967   5.604   6.214
  127POPC   NC3 1826   9.274   9.454   8.075
  127POPC   PO4 1827   9.910   9.776   7.984
  127POPC   GL1 1828   9.717   9.514   7.664
  127POPC   GL2 1829   9.373   9.653   7.612
  127POPC   C1A 1830   9.689   9.489   7.210
  127POPC   D2A 1831   9.838   9.343   6.803
  127POPC   C3A 1832   9.854   9.588   6.434
  127POPC   C4A 1833   9.538   9.690   6.135
  127POPC   C1B 1834   9.203   9.374   7.308
  127POPC   C2B 1835   9.286   9.490   6.875
  127POPC   C3B 1836   9.360   9.362   6.470
  127POPC   C4B 1837   9.111   9.268   6.114
  128POPC   NC3 1838   4.661   1.312   7.910
  128POPC   PO4 1839   5.095   0.838   8.126
  128POPC   GL1 1840   5.148   0.885   7.655
  128POPC   GL2 1841   4.864   1.045   7.512
  128POPC   C1A 1842   5.293   0.908   7.207
  128POPC   D2A 1843   5.031   0.907   6.830
  128POPC   C3A 1844   5.124   0.866   6.366
  128POPC   C4A 1845   5.019   1.042   5.923
  128POPC   C1B 1846   5.107   1.388   7.270
  128POPC   C2B 1847   5.231   1.397   6.819
  128POPC   C3B 1848   4.868   1.290   6.533
  128POPC   C4B 1849   4.647   1.374   6.148
  129POPC   NC3 1850   8.730   9.866   8.135
  129POPC   PO4 1851   8.690  10.483   8.135
  129POPC   GL1 1852   8.801  10.225   7.750
  129POPC   GL2 1853   8.533   9.973   7.668
  129POPC   C1A 1854   9.050  10.031   7.391
  129POPC   D2A 1855   9.199  10.002   6.950
  129POPC   C3A 1856   9.050   9.833   6.556
  129POPC   C4A 1857   8.817  10.047   6.266
  129POPC   C1B 1858   8.560  10.122   7.239
  129POPC   C2B 1859   8.730  10.213   6.816
  129POPC   C3B 1860   8.629  10.465   6.462
  129POPC   C4B 1861   8.423  10.253   6.046
  130POPC   NC3 1862   3.415   3.403   8.055
  130POPC   PO4 1863   4.011   3.123   7.904
  130POPC   GL1 1864   3.799   3.407   7.650
  130POPC   GL2 1865   3.411   3.444   7.552
  130POPC   C1A 1866   3.789   3.322   7.224
  130POPC   D2A 1867   3.550   3.043   6.951
  130POPC   C3A 1868   3.438   3.326   6.607
  130POPC   C4A 1869   3.681   3.582   6.343
  130POPC   C1B 1870   3.321   3.464   7.097
  130POPC   C2B 1871   3.153   3.739   6.782
  130POPC   C3B 1872   3.258   3.895   6.395
  130POPC   C4B 1873   3.251   3.668   6.025
  131POPC   NC3 1874   5.261  10.093   7.998
  131POPC   PO4 1875   4.654   9.841   8.048
  131POPC   GL1 1876   4.777  10.140   7.688
  131POPC   GL2 1877   5.083  10.352   7.620
  131POPC   C1A 1878   4.921  10.052   7.226
  131POPC   D2A 1879   5.162   9.845   6.897
  131POPC   C3A 1880   5.078  10.032   6.499
  131POPC   C4A 1881   4.632  10.099   6.352
  131POPC   C1B 1882   5.249  10.433   7.225
  131POPC   C2B 1883   4.989  10.463   6.859
  131POPC   C3B 1884   4.740   0.071   6.493
  131POPC   C4B 1885   4.989  10.383   6.133
  132POPC   NC3 1886   6.433   7.631   8.027
  132POPC   PO4 1887   6.713   8.077   8.347
  132POPC   GL1 1888   6.654   8.026   7.792
  132POPC   GL2 1889   6.688   7.703   7.599
  132POPC   C1A 1890   6.723   8.082   7.271
  132POPC   D2A 1891   6.762   7.776   6.897
  132POPC   C3A 1892   6.669   7.967   6.531
  132POPC   C4A 1893   6.459   8.029   6.144
  132POPC   C1B 1894   6.308   7.784   7.321
  132POPC   C2B 1895   6.260   7.880   6.861
  132POPC   C3B 1896   6.202   7.691   6.420
  132POPC   C4B 1897   5.950   7.835   6.060
  133POPC   NC3 1898   5.359   1.159   8.341
  133POPC   PO4 1899   5.901   1.429   8.081
  133POPC   GL1 1900   5.810   1.403   7.657
  133POPC   GL2 1901   5.582   1.145   7.664
  133POPC   C1A 1902   5.647   1.477   7.246
  133POPC   D2A 1903   5.885   1.602   6.932
  133POPC   C3A 1904   5.702   1.548   6.574
  133POPC   C4A 1905   5.868   1.380   6.213
  133POPC   C1B 1906   5.797   0.988   7.295
  133POPC   C2B 1907   5.695   1.116   6.888
  133POPC   C3B 1908   5.599   1.038   6.471
  133POPC   C4B 1909   5.312   1.319   6.297
  134POPC   NC3 1910   4.712   7.718   7.930
  134POPC   PO4 1911   5.337   7.878   7.978
  134POPC   GL1 1912   5.113   7.944   7.619
  134POPC   GL2 1913   4.782   8.089   7.589
  134POPC   C1A 1914   5.180   7.677   7.276
  134POPC   D2A 1915   4.931   7.555   6.935
  134POPC   C3A 1916   5.104   7.563   6.518
  134POPC   C4A 1917   5.133   7.716   6.094
  134POPC   C1B 1918   4.839   8.059   7.148
  134POPC   C2B 1919   4.631   7.944   6.785
  134POPC   C3B 1920   4.709   7.847   6.388
  134POPC   C4B 1921   4.692   7.986   5.988
  135POPC   NC3 1922   1.044   8.236   8.074
  135POPC   PO4 1923   0.405   7.922   7.978
  135POPC   GL1 1924   0.730   8.011   7.653
  135POPC   GL2 1925   1.089   8.082   7.609
  135POPC   C1A 1926   0.737   7.978   7.249
  135POPC   D2A 1927   0.956   8.174   6.932
  135POPC   C3A 1928   0.810   8.106   6.491
  135POPC   C4A 1929   0.888   8.159   6.070
  135POPC   C1B 1930   1.249   7.864   7.275
  135POPC   C2B 1931   1.344   7.570   6.948
  135POPC   C3B 1932   1.213   7.834   6.646
  135POPC   C4B 1933   1.275   7.873   6.220
  136POPC   NC3 1934   8.660   6.583   8.043
  136POPC   PO4 1935   8.185   6.139   8.137
  136POPC   GL1 1936   8.512   6.144   7.752
  136POPC   GL2 1937   8.637   6.454   7.571
  136POPC   C1A 1938   8.579   6.057   7.278
  136POPC   D2A 1939   8.397   5.901   6.892
  136POPC   C3A 1940   8.398   6.162   6.542
  136POPC   C4A 1941   8.228   6.191   6.145
  136POPC   C1B 1942   8.701   6.651   7.189
  136POPC   C2B 1943   8.473   6.636   6.796
  136POPC   C3B 1944   8.691   6.558   6.445
  136POPC   C4B 1945   8.732   6.257   6.144
  137POPC   NC3 1946   5.619   7.530   7.991
  137POPC   PO4 1947   6.118   7.969   8.039
  137POPC   GL1 1948   5.883   7.863   7.649
  137POPC   GL2 1949   5.617   8.079   7.554
  137POPC   C1A 1950   5.719   7.745   7.197
  137POPC   D2A 1951   5.819   7.627   6.760
  137POPC   C3A 1952   5.582   7.622   6.358
  137POPC   C4A 1953   5.466   7.315   6.015
  137POPC   C1B 1954   5.358   8.158   7.220
  137POPC   C2B 1955   5.247   7.954   6.844
  137POPC   C3B 1956   5.208   8.070   6.445
  137POPC   C4B 1957   5.592   8.129   6.255
  138POPC   NC3 1958   8.416   5.680   8.072
  138POPC   PO4 1959   9.092   5.717   8.124
  138POPC   GL1 1960   8.884   5.722   7.698
  138POPC   GL2 1961   8.568   5.643   7.598
  138POPC   C1A 1962   8.942   5.673   7.239
  138POPC   D2A 1963   9.101   5.844   6.854
  138POPC   C3A 1964   8.826   5.888   6.519
  138POPC   C4A 1965   8.956   5.801   6.125
  138POPC   C1B 1966   8.475   5.479   7.222
  138POPC   C2B 1967   8.702   5.492   6.815
  138POPC   C3B 1968   8.684   5.403   6.380
  138POPC   C4B 1969   8.453   5.724   6.199
  139POPC   NC3 1970   3.827   7.991   7.920
  139POPC   PO4 1971   4.511   8.152   8.017
  139POPC   GL1 1972   4.283   7.932   7.649
  139POPC   GL2 1973   3.954   7.721   7.517
  139POPC   C1A 1974   4.331   7.833   7.201
  139POPC   D2A 1975   4.013   7.650   6.904
  139POPC   C3A 1976   4.189   7.734   6.500
  139POPC   C4A 1977   4.370   7.593   6.094
  139POPC   C1B 1978   3.813   8.019   7.200
  139POPC   C2B 1979   3.669   7.991   6.748
  139POPC   C3B 1980   3.838   8.090   6.343
  139POPC   C4B 1981   3.884   7.706   6.113
  140POPC   NC3 1982   3.284   7.929   8.273
  140POPC   PO4 1983   3.537   8.326   7.872
  140POPC   GL1 1984   3.405   8.137   7.533
  140POPC   GL2 1985   3.400   7.843   7.691
  140POPC   C1A 1986   3.328   8.155   7.103
  140POPC   D2A 1987   3.064   8.297   6.820
  140POPC   C3A 1988   3.077   8.048   6.492
  140POPC   C4A 1989   3.348   8.081   6.170
  140POPC   C1B 1990   3.454   7.688   7.256
  140POPC   C2B 1991   3.455   7.543   6.838
  140POPC   C3B 1992   3.452   7.642   6.391
  140POPC   C4B 1993   3.441   7.627   5.916
  141POPC   NC3 1994   3.495   9.638   8.047
  141POPC   PO4 1995   3.062   9.064   7.993
  141POPC   GL1 1996   3.251   9.342   7.716
  141POPC   GL2 1997   3.516   9.146   7.672
  141POPC   C1A 1998   3.170   9.527   7.300
  141POPC   D2A 1999   3.122   9.287   6.919
  141POPC   C3A 2000   3.250   9.297   6.510
  141POPC   C4A 2001   3.314   9.610   6.224
  141POPC   C1B 2002   3.447   9.106   7.268
  141POPC   C2B 2003   3.629   9.159   6.885
  141POPC   C3B 2004   3.653   8.972   6.512
  141POPC   C4B 2005   3.593   9.177   6.138
  142POPC   NC3 2006   3.489   6.173   8.051
  142POPC   PO4 2007   3.593   6.803   8.079
  142POPC   GL1 2008   3.241   6.680   7.767
  142POPC   GL2 2009   3.254   6.350   7.614
  142POPC   C1A 2010   3.292   6.732   7.279
  142POPC   D2A 2011   3.190   6.763   6.836
  142POPC   C3A 2012   3.484   6.581   6.533
  142POPC   C4A 2013   3.467   6.423   6.071
  142POPC   C1B 2014   3.479   6.265   7.207
  142POPC   C2B 2015   3.669   6.143   6.791
  142POPC   C3B 2016   3.827   6.232   6.377
  142POPC   C4B 2017   3.757   5.992   5.988
  143POPC   NC3 2018   1.941   2.492   8.088
  143POPC   PO4 2019   1.691   3.132   8.084
  143POPC   GL1 2020   1.745   2.941   7.675
  143POPC   GL2 2021   2.025   2.726   7.641
  143POPC   C1A 2022   1.663   2.676   7.307
  143POPC   D2A 2023   1.521   2.653   6.893
  143POPC   C3A 2024   1.739   2.808   6.542
  143POPC   C4A 2025   1.631   2.611   6.168
  143POPC   C1B 2026   2.204   2.562   7.234
  143POPC   C2B 2027   2.318   2.553   6.777
  143POPC   C3B 2028   2.345   2.658   6.338
  143POPC   C4B 2029   2.145   2.975   6.114
  144POPC   NC3 2030   2.675   3.170   8.113
  144POPC   PO4 2031   2.405   3.697   8.358
  144POPC   GL1 2032   2.543   3.573   7.848
  144POPC   GL2 2033   2.872   3.373   7.699
  144POPC   C1A 2034   2.383   3.557   7.405
  144POPC   D2A 2035   2.412   3.366   6.978
  144POPC   C3A 2036   2.555   3.606   6.633
  144POPC   C4A 2037   2.487   3.825   6.244
  144POPC   C1B 2038   2.852   3.473   7.246
  144POPC   C2B 2039   2.925   3.293   6.824
  144POPC   C3B 2040   2.978   3.440   6.380
  144POPC   C4B 2041   2.948   3.269   5.916
  145POPC   NC3 2042   0.747   2.662   8.108
  145POPC   PO4 2043   0.199   2.931   8.208
  145POPC   GL1 2044   0.400   2.974   7.808
  145POPC   GL2 2045   0.431   2.622   7.707
  145POPC   C1A 2046   0.481   3.137   7.380
  145POPC   D2A 2047   0.676   2.994   7.003
  145POPC   C3A 2048   0.549   3.067   6.579
  145POPC   C4A 2049   0.367   2.974   6.170
  145POPC   C1B 2050   0.568   2.598   7.292
  145POPC   C2B 2051   0.653   2.501   6.872
  145POPC   C3B 2052   0.482   2.548   6.477
  145POPC   C4B 2053   0.625   2.421   6.101
  146POPC   NC3 2054   7.799   8.729   8.162
  146POPC   PO4 2055   8.432   8.650   8.033
  146POPC   GL1 2056   8.236   8.490   7.715
  146POPC   GL2 2057   7.911   8.581   7.707
  146POPC   C1A 2058   8.126   8.378   7.310
  146POPC   D2A 2059   8.074   8.616   6.956
  146POPC   C3A 2060   8.146   8.517   6.546
  146POPC   C4A 2061   8.171   8.792   6.196
  146POPC   C1B 2062   8.003   8.933   7.435
  146POPC   C2B 2063   7.858   9.066   7.011
  146POPC   C3B 2064   7.784   8.909   6.567
  146POPC   C4B 2065   7.707   8.619   6.190
  147POPC   NC3 2066   1.239   9.751   8.308
  147POPC   PO4 2067   0.889   9.339   8.054
  147POPC   GL1 2068   1.258   9.505   7.827
  147POPC   GL2 2069   1.244   9.230   7.687
  147POPC   C1A 2070   1.479   9.514   7.364
  147POPC   D2A 2071   1.298   9.258   7.016
  147POPC   C3A 2072   1.411   9.348   6.571
  147POPC   C4A 2073   1.419   9.119   6.188
  147POPC   C1B 2074   0.987   9.501   7.372
  147POPC   C2B 2075   0.839   9.581   6.964
  147POPC   C3B 2076   0.868   9.430   6.543
  147POPC   C4B 2077   0.852   9.413   6.115
  148POPC   NC3 2078   9.624   4.392   7.923
  148POPC   PO4 2079   9.494   4.965   8.228
  148POPC   GL1 2080   9.483   4.853   7.755
  148POPC   GL2 2081   9.215   4.745   7.622
  148POPC   C1A 2082   9.782   4.762   7.377
  148POPC   D2A 2083   9.681   4.635   6.951
  148POPC   C3A 2084   9.705   4.943   6.639
  148POPC   C4A 2085   9.804   4.880   6.233
  148POPC   C1B 2086   9.324   4.905   7.240
  148POPC   C2B 2087   9.173   4.800   6.866
  148POPC   C3B 2088   9.216   4.979   6.498
  148POPC   C4B 2089   9.312   4.820   6.131
  149POPC   NC3 2090   0.971   1.321   7.795
  149POPC   PO4 2091   1.547   1.331   7.937
  149POPC   GL1 2092   1.321   1.035   7.569
  149POPC   GL2 2093   0.904   0.933   7.483
  149POPC   C1A 2094   1.268   0.843   7.158
  149POPC   D2A 2095   1.101   0.986   6.757
  149POPC   C3A 2096   1.393   0.884   6.406
  149POPC   C4A 2097   1.516   1.218   6.125
  149POPC   C1B 2098   0.763   1.256   7.169
  149POPC   C2B 2099   0.692   1.372   6.751
  149POPC   C3B 2100   0.941   1.380   6.425
  149POPC   C4B 2101   0.914   0.996   6.248
  150POPC   NC3 2102   7.869   7.183   8.161
  150POPC   PO4 2103   8.219   7.675   7.971
  150POPC   GL1 2104   8.002   7.466   7.624
  150POPC   GL2 2105   7.914   7.110   7.662
  150POPC   C1A 2106   8.027   7.361   7.175
  150POPC   D2A 2107   7.910   7.569   6.805
  150POPC   C3A 2108   7.993   7.507   6.371
  150POPC   C4A 2109   7.807   7.725   6.033
  150POPC   C1B 2110   7.839   6.866   7.311
  150POPC   C2B 2111   7.989   6.813   6.925
  150POPC   C3B 2112   8.016   7.037   6.572
  150POPC   C4B 2113   7.805   6.980   6.194
  151POPC   NC3 2114   5.903   9.902   8.167
  151POPC   PO4 2115   5.559  10.454   8.079
  151POPC   GL1 2116   5.620  10.315   7.653
  151POPC   GL2 2117   5.702   9.957   7.691
  151POPC   C1A 2118   5.755  10.451   7.227
  151POPC   D2A 2119   5.508   0.138   6.846
  151POPC   C3A 2120   5.418   0.056   6.416
  151POPC   C4A 2121   5.800   0.055   6.171
  151POPC   C1B 2122   5.486   9.964   7.296
  151POPC   C2B 2123   5.588  10.125   6.878
  151POPC   C3B 2124   5.632  10.117   6.452
  151POPC   C4B 2125   5.512   9.820   6.184
  152POPC   NC3 2126   6.297   2.522   8.052
  152POPC   PO4 2127   6.940   2.414   8.173
  152POPC   GL1 2128   6.767   2.558   7.731
  152POPC   GL2 2129   6.387   2.575   7.568
  152POPC   C1A 2130   6.768   2.587   7.262
  152POPC   D2A 2131   6.439   2.608   6.941
  152POPC   C3A 2132   6.702   2.719   6.622
  152POPC   C4A 2133   6.821   2.451   6.288
  152POPC   C1B 2134   6.110   2.814   7.289
  152POPC   C2B 2135   5.994   2.876   6.842
  152POPC   C3B 2136   6.227   2.820   6.452
  152POPC   C4B 2137   6.322   2.371   6.351
  153POPC   NC3 2138  10.190   5.913   8.038
  153POPC   PO4 2139   0.084   6.475   8.183
  153POPC   GL1 2140  10.316   6.419   7.775
  153POPC   GL2 2141   9.962   6.274   7.751
  153POPC   C1A 2142  10.308   6.237   7.347
  153POPC   D2A 2143   0.064   6.225   6.981
  153POPC   C3A 2144  10.356   6.213   6.603
  153POPC   C4A 2145  10.461   6.373   6.212
  153POPC   C1B 2146   9.883   6.507   7.343
  153POPC   C2B 2147  10.099   6.544   6.930
  153POPC   C3B 2148  10.109   6.653   6.489
  153POPC   C4B 2149   9.984   6.630   6.022
  154POPC   NC3 2150   8.172   5.035   8.043
  154POPC   PO4 2151   7.728   4.533   7.926
  154POPC   GL1 2152   7.892   4.598   7.545
  154POPC   GL2 2153   8.192   4.714   7.643
  154POPC   C1A 2154   7.749   4.697   7.127
  154POPC   D2A 2155   7.839   4.891   6.737
  154POPC   C3A 2156   7.502   4.951   6.434
  154POPC   C4A 2157   7.495   4.841   5.992
  154POPC   C1B 2158   8.120   5.025   7.301
  154POPC   C2B 2159   8.188   5.241   6.895
  154POPC   C3B 2160   8.273   5.114   6.514
  154POPC   C4B 2161   7.986   4.958   6.255
  155POPC   NC3 2162   6.290   8.351   8.257
  155POPC   PO4 2163   6.653   8.836   8.001
  155POPC   GL1 2164   6.505   8.852   7.595
  155POPC   GL2 2165   6.573   8.500   7.591
  155POPC   C1A 2166   6.510   8.785   7.125
  155POPC   D2A 2167   6.315   8.923   6.731
  155POPC   C3A 2168   6.489   8.891   6.307
  155POPC   C4A 2169   6.396   8.962   5.848
  155POPC   C1B 2170   6.241   8.309   7.366
  155POPC   C2B 2171   6.129   8.428   6.937
  155POPC   C3B 2172   6.354   8.424   6.529
  155POPC   C4B 2173   6.772   8.476   6.353
  156POPC   NC3 2174   9.378   0.929   8.301
  156POPC   PO4 2175   9.044   1.463   8.100
  156POPC   GL1 2176   9.284   1.311   7.718
  156POPC   GL2 2177   9.617   1.194   7.751
  156POPC   C1A 2178   9.316   1.034   7.331
  156POPC   D2A 2179   9.152   0.868   6.959
  156POPC   C3A 2180   9.087   1.260   6.710
  156POPC   C4A 2181   8.977   1.304   6.265
  156POPC   C1B 2182   9.791   1.203   7.295
  156POPC   C2B 2183   9.574   1.155   6.880
  156POPC   C3B 2184   9.503   1.131   6.423
  156POPC   C4B 2185   9.695   1.072   6.020
  157POPC   NC3 2186   1.714   4.268   8.107
  157POPC   PO4 2187   2.155   3.891   7.922
  157POPC   GL1 2188   1.841   4.062   7.653
  157POPC   GL2 2189   1.822   4.451   7.658
  157POPC   C1A 2190   1.853   3.889   7.262
  157POPC   D2A 2191   2.151   3.804   6.949
  157POPC   C3A 2192   1.942   3.837   6.575
  157POPC   C4A 2193   2.002   3.964   6.193
  157POPC   C1B 2194   2.029   4.380   7.268
  157POPC   C2B 2195   1.858   4.249   6.870
  157POPC   C3B 2196   1.852   4.398   6.450
  157POPC   C4B 2197   1.946   4.416   5.974
  158POPC   NC3 2198   4.017   1.834   8.040
  158POPC   PO4 2199   4.576   1.711   7.709
  158POPC   GL1 2200   4.412   2.013   7.453
  158POPC   GL2 2201   4.081   2.065   7.579
  158POPC   C1A 2202   4.198   2.032   7.055
  158POPC   D2A 2203   4.132   2.371   6.784
  158POPC   C3A 2204   4.341   2.285   6.413
  158POPC   C4A 2205   4.523   1.871   6.304
  158POPC   C1B 2206   3.977   1.668   7.362
  158POPC   C2B 2207   4.052   1.399   6.987
  158POPC   C3B 2208   4.206   1.584   6.612
  158POPC   C4B 2209   4.003   1.874   6.356
  159POPC   NC3 2210   2.790   2.626   8.193
  159POPC   PO4 2211   2.330   2.399   7.853
  159POPC   GL1 2212   2.577   2.777   7.750
  159POPC   GL2 2213   2.940   2.728   7.714
  159POPC   C1A 2214   2.679   3.019   7.397
  159POPC   D2A 2215   2.534   2.892   7.048
  159POPC   C3A 2216   2.675   2.899   6.658
  159POPC   C4A 2217   2.600   3.123   6.316
  159POPC   C1B 2218   2.790   2.496   7.370
  159POPC   C2B 2219   2.770   2.356   6.975
  159POPC   C3B 2220   2.915   2.453   6.629
  159POPC   C4B 2221   2.861   2.662   6.242
  160POPC   NC3 2222   7.338   3.553   8.041
  160POPC   PO4 2223   6.781   3.335   8.309
  160POPC   GL1 2224   6.965   3.318   7.784
  160POPC   GL2 2225   7.331   3.339   7.599
  160POPC   C1A 2226   6.949   3.521   7.294
  160POPC   D2A 2227   7.099   3.740   6.865
  160POPC   C3A 2228   6.859   3.732   6.404
  160POPC   C4A 2229   6.867   3.675   5.923
  160POPC   C1B 2230   7.109   3.028   7.354
  160POPC   C2B 2231   7.034   3.127   6.929
  160POPC   C3B 2232   7.130   3.339   6.578
  160POPC   C4B 2233   7.222   3.437   6.203
  161POPC   NC3 2234   6.564   3.590   8.008
  161POPC   PO4 2235   6.478   2.936   7.954
  161POPC   GL1 2236   6.613   3.031   7.560
  161POPC   GL2 2237   6.496   3.373   7.518
  161POPC   C1A 2238   6.590   3.053   7.136
  161POPC   D2A 2239   6.627   3.417   6.890
  161POPC   C3A 2240   6.630   3.262   6.482
  161POPC   C4A 2241   6.488   3.381   6.094
  161POPC   C1B 2242   6.169   3.324   7.146
  161POPC   C2B 2243   6.164   3.322   6.672
  161POPC   C3B 2244   6.040   3.546   6.302
  161POPC   C4B 2245   5.912   3.918   6.036
  162POPC   NC3 2246   3.464   2.177   8.163
  162POPC   PO4 2247   2.866   1.989   8.176
  162POPC   GL1 2248   3.199   1.858   7.796
  162POPC   GL2 2249   3.566   1.998   7.692
  162POPC   C1A 2250   3.177   1.981   7.321
  162POPC   D2A 2251   3.205   2.044   6.843
  162POPC   C3A 2252   3.174   1.662   6.627
  162POPC   C4A 2253   3.031   1.630   6.203
  162POPC   C1B 2254   3.692   2.130   7.242
  162POPC   C2B 2255   3.715   2.066   6.771
  162POPC   C3B 2256   3.508   1.951   6.368
  162POPC   C4B 2257   3.719   2.226   6.074
  163POPC   NC3 2258   3.989   7.054   8.119
  163POPC   PO4 2259   3.520   7.559   8.107
  163POPC   GL1 2260   3.585   7.381   7.668
  163POPC   GL2 2261   3.566   7.036   7.602
  163POPC   C1A 2262   3.762   7.311   7.229
  163POPC   D2A 2263   3.631   7.057   6.898
  163POPC   C3A 2264   3.821   7.290   6.551
  163POPC   C4A 2265   3.706   7.234   6.137
  163POPC   C1B 2266   3.234   7.233   7.314
  163POPC   C2B 2267   3.050   7.237   6.914
  163POPC   C3B 2268   3.292   7.168   6.515
  163POPC   C4B 2269   3.333   6.908   6.176
  164POPC   NC3 2270   1.912   5.111   8.206
  164POPC   PO4 2271   1.493   4.674   8.040
  164POPC   GL1 2272   1.613   4.949   7.730
  164POPC   GL2 2273   1.984   4.944   7.724
  164POPC   C1A 2274   1.711   4.790   7.298
  164POPC   D2A 2275   1.962   4.772   6.896
  164POPC   C3A 2276   1.774   4.949   6.529
  164POPC   C4A 2277   1.579   4.732   6.193
  164POPC   C1B 2278   2.203   4.944   7.321
  164POPC   C2B 2279   2.362   5.123   6.921
  164POPC   C3B 2280   2.268   5.112   6.500
  164POPC   C4B 2281   2.174   4.756   6.275
  165POPC   NC3 2282   6.857   8.416   8.042
  165POPC   PO4 2283   7.339   8.837   8.173
  165POPC   GL1 2284   7.128   8.805   7.783
  165POPC   GL2 2285   7.407   8.639   7.645
  165POPC   C1A 2286   6.980   8.730   7.358
  165POPC   D2A 2287   6.945   8.555   6.934
  165POPC   C3A 2288   6.854   8.882   6.674
  165POPC   C4A 2289   6.983   8.965   6.276
  165POPC   C1B 2290   7.652   8.608   7.260
  165POPC   C2B 2291   7.573   8.512   6.827
  165POPC   C3B 2292   7.306   8.654   6.519
  165POPC   C4B 2293   7.210   8.537   6.095
  166POPC   NC3 2294   3.121   0.504   8.235
  166POPC   PO4 2295   3.675   0.809   8.397
  166POPC   GL1 2296   3.517   0.621   7.922
  166POPC   GL2 2297   3.377   0.290   7.830
  166POPC   C1A 2298   3.573   0.544   7.431
  166POPC   D2A 2299   3.373   0.705   7.027
  166POPC   C3A 2300   3.417   0.543   6.607
  166POPC   C4A 2301   3.236   0.639   6.230
  166POPC   C1B 2302   3.134   0.271   7.435
  166POPC   C2B 2303   3.165   0.242   6.967
  166POPC   C3B 2304   3.240   0.049   6.535
  166POPC   C4B 2305   3.454   0.145   6.142
  167POPC   NC3 2306   4.065   8.818   8.108
  167POPC   PO4 2307   4.035   9.164   7.650
  167POPC   GL1 2308   4.332   8.834   7.612
  167POPC   GL2 2309   4.281   8.476   7.705
  167POPC   C1A 2310   4.313   8.790   7.177
  167POPC   D2A 2311   4.090   8.915   6.818
  167POPC   C3A 2312   4.015   8.612   6.495
  167POPC   C4A 2313   4.005   8.877   6.123
  167POPC   C1B 2314   4.201   8.319   7.287
  167POPC   C2B 2315   4.152   8.162   6.834
  167POPC   C3B 2316   4.348   8.215   6.440
  167POPC   C4B 2317   4.385   8.482   6.125
  168POPC   NC3 2318   9.976   2.328   8.127
  168POPC   PO4 2319  10.457   1.841   8.111
  168POPC   GL1 2320   0.061   1.885   7.693
  168POPC   GL2 2321  10.252   2.083   7.636
  168POPC   C1A 2322  10.490   1.842   7.253
  168POPC   D2A 2323  10.329   2.023   6.901
  168POPC   C3A 2324  10.445   1.814   6.562
  168POPC   C4A 2325  10.310   1.715   6.191
  168POPC   C1B 2326   9.984   1.921   7.287
  168POPC   C2B 2327   9.825   2.097   6.863
  168POPC   C3B 2328  10.006   2.060   6.456
  168POPC   C4B 2329  10.185   2.328   6.123
  169POPC   NC3 2330   1.336   7.282   8.134
  169POPC   PO4 2331   0.922   7.780   8.041
  169POPC   GL1 2332   1.008   7.560   7.614
  169POPC   GL2 2333   1.339   7.406   7.633
  169POPC   C1A 2334   0.889   7.499   7.142
  169POPC   D2A 2335   0.869   7.383   6.702
  169POPC   C3A 2336   1.214   7.378   6.451
  169POPC   C4A 2337   1.130   7.408   6.032
  169POPC   C1B 2338   1.200   7.153   7.340
  169POPC   C2B 2339   1.220   7.079   6.918
  169POPC   C3B 2340   1.020   6.892   6.586
  169POPC   C4B 2341   1.189   6.945   6.194
  170POPC   NC3 2342  10.326   3.124   7.993
  170POPC   PO4 2343   9.903   2.666   7.836
  170POPC   GL1 2344  10.167   2.583   7.580
  170POPC   GL2 2345  10.438   2.606   7.772
  170POPC   C1A 2346  10.194   2.426   7.197
  170POPC   D2A 2347   9.917   2.620   6.926
  170POPC   C3A 2348  10.060   2.595   6.538
  170POPC   C4A 2349   9.863   2.737   6.177
  170POPC   C1B 2350   0.061   2.802   7.351
  170POPC   C2B 2351  10.379   2.838   6.931
  170POPC   C3B 2352   0.048   2.815   6.553
  170POPC   C4B 2353  10.358   2.892   6.177
  171POPC   NC3 2354  10.114   9.364   8.016
  171POPC   PO4 2355   0.045   8.822   7.909
  171POPC   GL1 2356  10.311   9.135   7.616
  171POPC   GL2 2357  10.340   9.551   7.620
  171POPC   C1A 2358  10.117   9.239   7.241
  171POPC   D2A 2359  10.341   9.239   6.863
  171POPC   C3A 2360  10.184   9.203   6.443
  171POPC   C4A 2361   0.049   9.056   6.236
  171POPC   C1B 2362  10.425   9.644   7.222
  171POPC   C2B 2363  10.180   9.724   6.904
  171POPC   C3B 2364  10.404   9.654   6.549
  171POPC   C4B 2365  10.315   9.571   6.130
  172POPC   NC3 2366   0.016   6.877   7.959
  172POPC   PO4 2367   9.880   7.166   8.013
  172POPC   GL1 2368  10.134   7.079   7.687
  172POPC   GL2 2369  10.260   7.372   7.588
  172POPC   C1A 2370  10.160   6.956   7.270
  172POPC   D2A 2371  10.003   7.077   6.868
  172POPC   C3A 2372  10.318   7.132   6.561
  172POPC   C4A 2373  10.355   6.979   6.185
  172POPC   C1B 2374   9.960   7.449   7.313
  172POPC   C2B 2375   9.879   7.597   6.923
  172POPC   C3B 2376   9.941   7.470   6.520
  172POPC   C4B 2377  10.103   7.421   6.131
  173POPC   NC3 2378   8.693   2.614   8.145
  173POPC   PO4 2379   8.156   3.057   8.041
  173POPC   GL1 2380   8.510   2.901   7.737
  173POPC   GL2 2381   8.432   2.595   7.536
  173POPC   C1A 2382   8.719   2.924   7.305
  173POPC   D2A 2383   8.500   2.715   6.942
  173POPC   C3A 2384   8.456   2.907   6.532
  173POPC   C4A 2385   8.803   2.901   6.207
  173POPC   C1B 2386   8.766   2.387   7.228
  173POPC   C2B 2387   8.953   2.458   6.827
  173POPC   C3B 2388   8.718   2.480   6.481
  173POPC   C4B 2389   8.350   2.430   6.252
  174POPC   NC3 2390   6.411   0.680   4.067
  174POPC   PO4 2391   6.821   0.179   3.986
  174POPC   GL1 2392   6.589   0.308   4.345
  174POPC   GL2 2393   6.251   0.208   4.279
  174POPC   C1A 2394   6.693   0.578   4.699
  174POPC   D2A 2395   6.640   0.336   5.050
  174POPC   C3A 2396   6.565   0.500   5.417
  174POPC   C4A 2397   6.605   0.214   5.757
  174POPC   C1B 2398   6.211   0.431   4.682
  174POPC   C2B 2399   6.100   0.307   5.106
  174POPC   C3B 2400   6.126   0.307   5.535
  174POPC   C4B 2401   6.313   0.653   5.851
  175POPC   NC3 2402   5.631   2.166   3.928
  175POPC   PO4 2403   6.114   1.565   3.847
  175POPC   GL1 2404   6.116   1.706   4.288
  175POPC   GL2 2405   5.752   1.801   4.292
  175POPC   C1A 2406   5.965   1.713   4.749
  175POPC   D2A 2407   5.655   1.790   5.078
  175POPC   C3A 2408   5.821   1.960   5.463
  175POPC   C4A 2409   5.873   1.693   5.803
  175POPC   C1B 2410   5.638   2.091   4.639
  175POPC   C2B 2411   5.318   2.146   4.951
  175POPC   C3B 2412   5.344   2.222   5.360
  175POPC   C4B 2413   5.353   2.322   5.767
  176POPC   NC3 2414   0.049   9.572   4.041
  176POPC   PO4 2415   0.597   9.902   3.742
  176POPC   GL1 2416   0.634   9.627   4.124
  176POPC   GL2 2417   0.466   9.294   4.141
  176POPC   C1A 2418   0.771   9.613   4.551
  176POPC   D2A 2419   0.896   9.610   4.978
  176POPC   C3A 2420   0.642   9.381   5.228
  176POPC   C4A 2421   0.627   9.379   5.654
  176POPC   C1B 2422   0.254   9.211   4.560
  176POPC   C2B 2423   0.163   9.352   4.973
  176POPC   C3B 2424   0.185   9.228   5.390
  176POPC   C4B 2425   0.129   9.366   5.800
  177POPC   NC3 2426   3.531   0.987   3.748
  177POPC   PO4 2427   3.402   0.344   3.971
  177POPC   GL1 2428   3.438   0.414   4.363
  177POPC   GL2 2429   3.634   0.147   4.399
  177POPC   C1A 2430   3.469   0.498   4.789
  177POPC   D2A 2431   3.707   0.581   5.122
  177POPC   C3A 2432   3.611   0.791   5.473
  177POPC   C4A 2433   3.567   0.554   5.852
  177POPC   C1B 2434   3.275   0.035   4.664
  177POPC   C2B 2435   3.139   0.207   5.052
  177POPC   C3B 2436   3.253   0.434   5.397
  177POPC   C4B 2437   3.114   0.365   5.797
  178POPC   NC3 2438   2.967   4.352   4.012
  178POPC   PO4 2439   2.388   4.474   3.753
  178POPC   GL1 2440   2.443   4.368   4.185
  178POPC   GL2 2441   2.590   4.035   4.206
  178POPC   C1A 2442   2.575   4.340   4.613
  178POPC   D2A 2443   2.443   4.172   4.995
  178POPC   C3A 2444   2.558   4.410   5.347
  178POPC   C4A 2445   2.806   4.364   5.697
  178POPC   C1B 2446   2.946   4.001   4.573
  178POPC   C2B 2447   2.922   3.960   5.003
  178POPC   C3B 2448   3.138   4.064   5.385
  178POPC   C4B 2449   3.233   4.111   5.799
  179POPC   NC3 2450   9.487   8.026   3.639
  179POPC   PO4 2451   8.847   8.047   3.864
  179POPC   GL1 2452   9.127   8.086   4.272
  179POPC   GL2 2453   9.490   8.001   4.376
  179POPC   C1A 2454   9.146   7.942   4.717
  179POPC   D2A 2455   9.440   7.973   5.065
  179POPC   C3A 2456   9.204   7.872   5.414
  179POPC   C4A 2457   9.414   7.930   5.763
  179POPC   C1B 2458   9.614   7.665   4.651
  179POPC   C2B 2459   9.817   7.604   5.032
  179POPC   C3B 2460   9.756   7.731   5.431
  179POPC   C4B 2461   9.821   7.496   5.731
  180POPC   NC3 2462   9.429   6.507   3.855
  180POPC   PO4 2463   9.921   6.981   3.990
  180POPC   GL1 2464   9.778   6.709   4.358
  180POPC   GL2 2465   9.406   6.620   4.372
  180POPC   C1A 2466   9.696   6.616   4.782
  180POPC   D2A 2467   9.676   6.355   5.163
  180POPC   C3A 2468   9.689   6.584   5.576
  180POPC   C4A 2469   9.468   6.609   6.016
  180POPC   C1B 2470   9.307   6.312   4.766
  180POPC   C2B 2471   9.173   6.234   5.175
  180POPC   C3B 2472   9.210   6.394   5.559
  180POPC   C4B 2473   9.189   6.193   5.930
  181POPC   NC3 2474   3.216   7.231   4.062
  181POPC   PO4 2475   3.820   7.428   3.977
  181POPC   GL1 2476   3.626   7.397   4.423
  181POPC   GL2 2477   3.232   7.428   4.528
  181POPC   C1A 2478   3.604   7.419   4.893
  181POPC   D2A 2479   3.364   7.253   5.231
  181POPC   C3A 2480   3.544   7.208   5.626
  181POPC   C4A 2481   3.663   6.816   5.808
  181POPC   C1B 2482   3.107   7.021   4.776
  181POPC   C2B 2483   3.150   6.793   5.185
  181POPC   C3B 2484   3.054   7.011   5.581
  181POPC   C4B 2485   3.064   7.462   5.646
  182POPC   NC3 2486   9.695   9.928   3.986
  182POPC   PO4 2487   9.121   9.860   4.269
  182POPC   GL1 2488   9.202  10.155   4.540
  182POPC   GL2 2489   9.442  10.269   4.262
  182POPC   C1A 2490   9.213   9.949   4.958
  182POPC   D2A 2491   9.516   9.900   5.282
  182POPC   C3A 2492   9.448   9.978   5.714
  182POPC   C4A 2493   9.295  10.132   6.120
  182POPC   C1B 2494   9.659  10.414   4.591
  182POPC   C2B 2495   9.550  10.355   4.992
  182POPC   C3B 2496   9.628  10.387   5.403
  182POPC   C4B 2497   9.411  10.469   5.775
  183POPC   NC3 2498   9.538   2.658   3.804
  183POPC   PO4 2499   9.737   2.285   4.353
  183POPC   GL1 2500   9.397   2.588   4.321
  183POPC   GL2 2501   9.185   2.842   4.116
  183POPC   C1A 2502   9.470   2.769   4.717
  183POPC   D2A 2503   9.557   2.536   5.063
  183POPC   C3A 2504   9.428   2.737   5.405
  183POPC   C4A 2505   9.572   2.597   5.784
  183POPC   C1B 2506   9.013   2.858   4.527
  183POPC   C2B 2507   9.089   3.014   4.947
  183POPC   C3B 2508   9.004   3.032   5.367
  183POPC   C4B 2509   9.113   2.857   5.788
  184POPC   NC3 2510   8.819   7.617   4.047
  184POPC   PO4 2511   8.344   8.095   4.204
  184POPC   GL1 2512   8.656   8.210   4.448
  184POPC   GL2 2513   8.714   7.853   4.473
  184POPC   C1A 2514   8.709   8.150   4.878
  184POPC   D2A 2515   8.504   7.919   5.210
  184POPC   C3A 2516   8.535   8.129   5.588
  184POPC   C4A 2517   8.932   8.173   5.762
  184POPC   C1B 2518   8.716   7.613   4.818
  184POPC   C2B 2519   8.527   7.400   5.122
  184POPC   C3B 2520   8.458   7.450   5.559
  184POPC   C4B 2521   8.784   7.697   5.724
  185POPC   NC3 2522   4.678   0.573   3.813
  185POPC   PO4 2523   5.314   0.190   3.920
  185POPC   GL1 2524   5.104   0.403   4.298
  185POPC   GL2 2525   4.765   0.389   4.273
  185POPC   C1A 2526   5.279   0.681   4.667
  185POPC   D2A 2527   5.166   0.828   5.062
  185POPC   C3A 2528   5.035   0.479   5.300
  185POPC   C4A 2529   4.989   0.512   5.738
  185POPC   C1B 2530   4.782   0.397   4.709
  185POPC   C2B 2531   4.588   0.270   5.079
  185POPC   C3B 2532   4.670   0.152   5.512
  185POPC   C4B 2533   4.643   0.182   5.962
  186POPC   NC3 2534   5.730  10.466   3.903
  186POPC   PO4 2535   5.385  10.052   3.595
  186POPC   GL1 2536   5.421  10.231   4.180
  186POPC   GL2 2537   5.767  10.200   4.350
  186POPC   C1A 2538   5.352  10.206   4.643
  186POPC   D2A 2539   5.383  10.116   5.106
  186POPC   C3A 2540   5.303  10.321   5.519
  186POPC   C4A 2541   5.428  10.249   5.963
  186POPC   C1B 2542   5.818  10.266   4.820
  186POPC   C2B 2543   5.827  10.396   5.243
  186POPC   C3B 2544   5.783  10.402   5.656
  186POPC   C4B 2545   5.903  10.105   6.014
  187POPC   NC3 2546  10.421   7.997   3.995
  187POPC   PO4 2547   9.845   8.067   3.928
  187POPC   GL1 2548  10.000   8.050   4.304
  187POPC   GL2 2549  10.009   7.714   4.317
  187POPC   C1A 2550   9.844   8.139   4.691
  187POPC   D2A 2551  10.049   8.054   5.001
  187POPC   C3A 2552   9.877   8.193   5.303
  187POPC   C4A 2553   9.861   8.220   5.730
  187POPC   C1B 2554  10.327   7.759   4.630
  187POPC   C2B 2555   0.008   7.829   5.030
  187POPC   C3B 2556  10.321   7.926   5.416
  187POPC   C4B 2557  10.207   7.818   5.812
  188POPC   NC3 2558   2.818   1.612   4.000
  188POPC   PO4 2559   2.735   0.940   3.868
  188POPC   GL1 2560   2.589   1.198   4.158
  188POPC   GL2 2561   2.962   1.197   4.283
  188POPC   C1A 2562   2.538   1.230   4.570
  188POPC   D2A 2563   2.721   0.999   4.895
  188POPC   C3A 2564   2.393   0.863   5.197
  188POPC   C4A 2565   2.350   0.986   5.622
  188POPC   C1B 2566   3.063   1.434   4.654
  188POPC   C2B 2567   2.925   1.452   5.070
  188POPC   C3B 2568   2.725   1.215   5.366
  188POPC   C4B 2569   2.801   1.248   5.794
  189POPC   NC3 2570   5.652   8.839   3.889
  189POPC   PO4 2571   6.165   8.305   3.876
  189POPC   GL1 2572   5.893   8.353   4.254
  189POPC   GL2 2573   5.755   8.657   4.340
  189POPC   C1A 2574   5.844   8.350   4.720
  189POPC   D2A 2575   5.991   8.512   5.108
  189POPC   C3A 2576   5.787   8.221   5.354
  189POPC   C4A 2577   5.696   8.224   5.766
  189POPC   C1B 2578   5.636   8.962   4.656
  189POPC   C2B 2579   5.747   9.004   5.071
  189POPC   C3B 2580   5.598   8.870   5.457
  189POPC   C4B 2581   5.663   9.048   5.842
  190POPC   NC3 2582   7.380   1.229   3.906
  190POPC   PO4 2583   6.805   0.845   3.903
  190POPC   GL1 2584   7.053   0.977   4.237
  190POPC   GL2 2585   7.067   1.297   4.292
  190POPC   C1A 2586   7.011   0.977   4.695
  190POPC   D2A 2587   7.057   1.125   5.119
  190POPC   C3A 2588   6.894   0.872   5.458
  190POPC   C4A 2589   7.104   0.834   5.897
  190POPC   C1B 2590   7.251   1.427   4.691
  190POPC   C2B 2591   7.081   1.643   4.977
  190POPC   C3B 2592   7.070   1.633   5.372
  190POPC   C4B 2593   7.110   1.281   5.624
  191POPC   NC3 2594   5.870   7.935   3.948
  191POPC   PO4 2595   5.236   8.084   3.960
  191POPC   GL1 2596   5.467   8.088   4.350
  191POPC   GL2 2597   5.791   7.886   4.445
  191POPC   C1A 2598   5.386   8.036   4.778
  191POPC   D2A 2599   5.138   8.149   5.113
  191POPC   C3A 2600   5.187   7.912   5.479
  191POPC   C4A 2601   5.506   7.754   5.769
  191POPC   C1B 2602   5.836   7.843   4.889
  191POPC   C2B 2603   5.666   7.689   5.267
  191POPC   C3B 2604   5.960   7.762   5.560
  191POPC   C4B 2605   6.204   8.128   5.690
  192POPC   NC3 2606   8.054   4.110   3.626
  192POPC   PO4 2607   7.880   4.758   4.034
  192POPC   GL1 2608   7.919   4.485   4.513
  192POPC   GL2 2609   8.105   4.089   4.505
  192POPC   C1A 2610   8.036   4.347   4.931
  192POPC   D2A 2611   8.103   4.018   5.186
  192POPC   C3A 2612   7.967   4.218   5.526
  192POPC   C4A 2613   8.110   4.178   5.891
  192POPC   C1B 2614   7.790   3.915   4.794
  192POPC   C2B 2615   7.593   3.942   5.181
  192POPC   C3B 2616   7.611   3.883   5.608
  192POPC   C4B 2617   7.736   3.846   6.076
  193POPC   NC3 2618   0.320   0.503   3.681
  193POPC   PO4 2619  10.080   0.413   3.843
  193POPC   GL1 2620   9.959   0.212   4.251
  193POPC   GL2 2621  10.147   0.482   4.370
  193POPC   C1A 2622  10.181  10.492   4.614
  193POPC   D2A 2623  10.303   0.032   5.017
  193POPC   C3A 2624  10.175   0.246   5.344
  193POPC   C4A 2625  10.231   0.361   5.733
  193POPC   C1B 2626   9.876   0.361   4.724
  193POPC   C2B 2627   9.723   0.316   5.129
  193POPC   C3B 2628   9.730   0.334   5.598
  193POPC   C4B 2629   9.831   0.617   5.900
  194POPC   NC3 2630   7.236   8.575   4.026
  194POPC   PO4 2631   6.843   8.979   3.681
  194POPC   GL1 2632   6.870   8.867   4.247
  194POPC   GL2 2633   7.156   8.683   4.489
  194POPC   C1A 2634   6.795   8.837   4.742
  194POPC   D2A 2635   7.156   8.750   5.045
  194POPC   C3A 2636   7.079   8.569   5.472
  194POPC   C4A 2637   6.834   8.723   5.821
  194POPC   C1B 2638   7.507   8.531   4.674
  194POPC   C2B 2639   7.761   8.533   5.038
  194POPC   C3B 2640   7.601   8.507   5.449
  194POPC   C4B 2641   7.461   8.811   5.742
  195POPC   NC3 2642   3.830   9.564   3.906
  195POPC   PO4 2643   4.484   9.713   3.865
  195POPC   GL1 2644   4.420   9.365   4.223
  195POPC   GL2 2645   4.164   9.127   4.230
  195POPC   C1A 2646   4.460   9.115   4.650
  195POPC   D2A 2647   4.203   9.166   5.051
  195POPC   C3A 2648   4.463   9.161   5.444
  195POPC   C4A 2649   4.405   9.267   5.904
  195POPC   C1B 2650   4.066   9.441   4.606
  195POPC   C2B 2651   4.034   9.649   5.061
  195POPC   C3B 2652   4.134   9.543   5.497
  195POPC   C4B 2653   3.971   9.157   5.648
  196POPC   NC3 2654   8.761   0.331   3.884
  196POPC   PO4 2655   9.187   0.902   3.972
  196POPC   GL1 2656   9.127   0.722   4.328
  196POPC   GL2 2657   8.910   0.453   4.354
  196POPC   C1A 2658   9.094   0.800   4.716
  196POPC   D2A 2659   8.872   0.911   5.054
  196POPC   C3A 2660   8.973   0.703   5.396
  196POPC   C4A 2661   8.649   0.587   5.607
  196POPC   C1B 2662   8.645   0.525   4.714
  196POPC   C2B 2663   8.669   0.379   5.116
  196POPC   C3B 2664   8.792   0.128   5.449
  196POPC   C4B 2665   8.620   0.160   5.865
  197POPC   NC3 2666  10.190   2.833   3.943
  197POPC   PO4 2667   9.828   2.296   3.759
  197POPC   GL1 2668  10.168   2.392   4.161
  197POPC   GL2 2669  10.428   2.619   4.339
  197POPC   C1A 2670  10.240   2.372   4.709
  197POPC   D2A 2671  10.037   2.682   4.983
  197POPC   C3A 2672   9.941   2.650   5.411
  197POPC   C4A 2673  10.081   2.879   5.749
  197POPC   C1B 2674  10.288   2.925   4.603
  197POPC   C2B 2675  10.432   3.018   5.006
  197POPC   C3B 2676  10.459   2.784   5.351
  197POPC   C4B 2677   0.095   2.918   5.725
  198POPC   NC3 2678   8.298   3.547   3.811
  198POPC   PO4 2679   8.919   3.263   3.888
  198POPC   GL1 2680   8.663   3.324   4.238
  198POPC   GL2 2681   8.761   3.652   4.247
  198POPC   C1A 2682   8.740   3.277   4.687
  198POPC   D2A 2683   8.487   3.201   5.059
  198POPC   C3A 2684   8.572   3.346   5.448
  198POPC   C4A 2685   8.831   3.274   5.787
  198POPC   C1B 2686   8.547   3.763   4.642
  198POPC   C2B 2687   8.557   3.742   5.088
  198POPC   C3B 2688   8.496   3.896   5.480
  198POPC   C4B 2689   8.547   3.689   5.831
  199POPC   NC3 2690   7.947   7.117   3.823
  199POPC   PO4 2691   8.585   7.184   3.886
  199POPC   GL1 2692   8.254   7.281   4.261
  199POPC   GL2 2693   7.899   7.193   4.325
  199POPC   C1A 2694   8.224   7.229   4.741
  199POPC   D2A 2695   7.989   7.076   5.128
  199POPC   C3A 2696   7.939   7.305   5.515
  199POPC   C4A 2697   8.095   7.309   5.920
  199POPC   C1B 2698   7.684   7.190   4.735
  199POPC   C2B 2699   7.584   7.435   5.127
  199POPC   C3B 2700   7.353   7.411   5.519
  199POPC   C4B 2701   7.574   7.308   5.886
  200POPC   NC3 2702   0.411   7.824   3.803
  200POPC   PO4 2703   0.081   8.434   3.985
  200POPC   GL1 2704   0.345   8.111   4.234
  200POPC   GL2 2705   0.252   7.766   4.286
  200POPC   C1A 2706   0.357   8.116   4.687
  200POPC   D2A 2707   0.496   8.011   5.107
  200POPC   C3A 2708   0.262   8.202   5.406
  200POPC   C4A 2709   0.055   8.185   5.799
  200POPC   C1B 2710   0.333   7.609   4.655
  200POPC   C2B 2711   0.386   7.498   5.073
  200POPC   C3B 2712   0.292   7.688   5.484
  200POPC   C4B 2713   0.571   7.984   5.723
  201POPC   NC3 2714   7.301   7.168   3.813
  201POPC   PO4 2715   7.696   6.738   3.992
  201POPC   GL1 2716   7.428   7.001   4.292
  201POPC   GL2 2717   7.397   7.367   4.274
  201POPC   C1A 2718   7.216   6.879   4.673
  201POPC   D2A 2719   7.363   6.723   5.082
  201POPC   C3A 2720   7.561   6.950   5.417
  201POPC   C4A 2721   7.425   6.842   5.838
  201POPC   C1B 2722   7.216   7.377   4.666
  201POPC   C2B 2723   7.145   7.191   5.082
  201POPC   C3B 2724   7.038   7.004   5.491
  201POPC   C4B 2725   7.003   7.251   5.869
  202POPC   NC3 2726   8.868  10.214   4.090
  202POPC   PO4 2727   8.442   9.697   3.908
  202POPC   GL1 2728   8.536   9.939   4.356
  202POPC   GL2 2729   8.501  10.318   4.435
  202POPC   C1A 2730   8.710  10.051   4.796
  202POPC   D2A 2731   8.513  10.390   5.071
  202POPC   C3A 2732   8.467  10.236   5.506
  202POPC   C4A 2733   8.524   9.829   5.752
  202POPC   C1B 2734   8.823   0.048   4.666
  202POPC   C2B 2735   9.037  10.424   5.015
  202POPC   C3B 2736   9.136  10.261   5.393
  202POPC   C4B 2737   8.910  10.227   5.786
  203POPC   NC3 2738   9.545   5.727   3.661
  203POPC   PO4 2739   9.651   6.227   4.167
  203POPC   GL1 2740   9.707   5.917   4.422
  203POPC   GL2 2741   9.580   5.629   4.288
  203POPC   C1A 2742   9.681   5.952   4.824
  203POPC   D2A 2743   9.544   5.819   5.170
  203POPC   C3A 2744   9.544   6.019   5.513
  203POPC   C4A 2745   9.693   6.164   5.880
  203POPC   C1B 2746   9.310   5.558   4.672
  203POPC   C2B 2747   9.424   5.350   5.056
  203POPC   C3B 2748   9.300   5.454   5.466
  203POPC   C4B 2749   9.372   5.683   5.834
  204POPC   NC3 2750   6.431   1.949   3.927
  204POPC   PO4 2751   6.061   2.456   3.878
  204POPC   GL1 2752   6.106   2.214   4.272
  204POPC   GL2 2753   6.452   2.106   4.389
  204POPC   C1A 2754   6.131   2.255   4.736
  204POPC   D2A 2755   6.173   2.037   5.104
  204POPC   C3A 2756   6.244   2.256   5.463
  204POPC   C4A 2757   6.164   2.106   5.866
  204POPC   C1B 2758   6.441   1.837   4.716
  204POPC   C2B 2759   6.613   1.792   5.139
  204POPC   C3B 2760   6.468   1.795   5.569
  204POPC   C4B 2761   6.786   1.620   5.826
  205POPC   NC3 2762   1.832   3.387   3.835
  205POPC   PO4 2763   1.628   2.829   3.873
  205POPC   GL1 2764   1.752   3.122   4.265
  205POPC   GL2 2765   1.687   3.534   4.300
  205POPC   C1A 2766   1.683   3.230   4.710
  205POPC   D2A 2767   1.834   3.069   5.086
  205POPC   C3A 2768   1.823   3.282   5.441
  205POPC   C4A 2769   2.197   3.127   5.629
  205POPC   C1B 2770   2.015   3.606   4.663
  205POPC   C2B 2771   1.948   3.706   5.113
  205POPC   C3B 2772   2.166   3.635   5.514
  205POPC   C4B 2773   1.966   3.518   5.907
  206POPC   NC3 2774   6.344   3.587   3.939
  206POPC   PO4 2775   6.848   3.883   3.943
  206POPC   GL1 2776   6.685   3.702   4.344
  206POPC   GL2 2777   6.406   3.477   4.418
  206POPC   C1A 2778   6.609   3.702   4.810
  206POPC   D2A 2779   6.567   3.454   5.149
  206POPC   C3A 2780   6.518   3.715   5.539
  206POPC   C4A 2781   6.411   3.871   5.978
  206POPC   C1B 2782   6.198   3.331   4.780
  206POPC   C2B 2783   6.166   3.152   5.205
  206POPC   C3B 2784   6.378   3.240   5.594
  206POPC   C4B 2785   6.096   3.503   5.789
  207POPC   NC3 2786   9.796   7.434   3.940
  207POPC   PO4 2787   0.027   7.559   3.863
  207POPC   GL1 2788  10.418   7.387   4.276
  207POPC   GL2 2789  10.306   7.069   4.301
  207POPC   C1A 2790  10.486   7.263   4.735
  207POPC   D2A 2791  10.267   7.158   5.095
  207POPC   C3A 2792  10.248   7.431   5.421
  207POPC   C4A 2793  10.474   7.380   5.795
  207POPC   C1B 2794   9.984   7.271   4.599
  207POPC   C2B 2795   9.748   7.109   4.952
  207POPC   C3B 2796   9.838   7.088   5.390
  207POPC   C4B 2797  10.103   7.055   5.751
  208POPC   NC3 2798   0.145  10.010   3.685
  208POPC   PO4 2799   0.455   0.114   3.935
  208POPC   GL1 2800   0.284  10.376   4.269
  208POPC   GL2 2801   0.318  10.035   4.176
  208POPC   C1A 2802   0.226  10.484   4.717
  208POPC   D2A 2803   0.473   0.030   5.111
  208POPC   C3A 2804   0.459  10.261   5.488
  208POPC   C4A 2805   0.250  10.294   5.866
  208POPC   C1B 2806   0.469  10.035   4.616
  208POPC   C2B 2807   0.422   9.798   4.993
  208POPC   C3B 2808   0.235   9.737   5.406
  208POPC   C4B 2809   0.384   9.803   5.809
  209POPC   NC3 2810   3.881   0.422   4.001
  209POPC   PO4 2811   4.281   0.782   3.679
  209POPC   GL1 2812   4.316   0.644   4.164
  209POPC   GL2 2813   4.252   0.305   4.335
  209POPC   C1A 2814   4.359   0.705   4.619
  209POPC   D2A 2815   4.181   0.713   5.044
  209POPC   C3A 2816   4.363   0.586   5.404
  209POPC   C4A 2817   4.361   0.545   5.795
  209POPC   C1B 2818   3.995   0.335   4.717
  209POPC   C2B 2819   4.083   0.199   5.140
  209POPC   C3B 2820   3.917   0.351   5.531
  209POPC   C4B 2821   3.971   0.274   5.957
  210POPC   NC3 2822   1.923   8.190   3.813
  210POPC   PO4 2823   2.117   7.485   3.764
  210POPC   GL1 2824   2.120   7.618   4.207
  210POPC   GL2 2825   2.028   7.990   4.288
  210POPC   C1A 2826   2.304   7.635   4.625
  210POPC   D2A 2827   2.451   7.756   5.046
  210POPC   C3A 2828   2.226   7.626   5.418
  210POPC   C4A 2829   2.109   7.530   5.822
  210POPC   C1B 2830   1.946   7.964   4.744
  210POPC   C2B 2831   2.015   8.012   5.171
  210POPC   C3B 2832   1.785   7.892   5.506
  210POPC   C4B 2833   1.704   7.846   5.931
  211POPC   NC3 2834   1.759   9.731   4.014
  211POPC   PO4 2835   2.049  10.335   3.813
  211POPC   GL1 2836   1.962  10.187   4.212
  211POPC   GL2 2837   1.593  10.219   4.217
  211POPC   C1A 2838   2.072  10.150   4.667
  211POPC   D2A 2839   2.186  10.354   5.078
  211POPC   C3A 2840   2.081  10.119   5.454
  211POPC   C4A 2841   1.964  10.285   5.819
  211POPC   C1B 2842   1.505  10.207   4.665
  211POPC   C2B 2843   1.727  10.130   5.052
  211POPC   C3B 2844   1.573  10.186   5.460
  211POPC   C4B 2845   1.698   9.860   5.735
  212POPC   NC3 2846   2.319   5.652   3.816
  212POPC   PO4 2847   1.691   5.371   3.708
  212POPC   GL1 2848   1.845   5.454   4.156
  212POPC   GL2 2849   1.522   5.528   4.319
  212POPC   C1A 2850   1.945   5.532   4.643
  212POPC   D2A 2851   2.215   5.817   4.946
  212POPC   C3A 2852   2.321   5.761   5.412
  212POPC   C4A 2853   2.220   5.632   5.838
  212POPC   C1B 2854   1.523   5.798   4.691
  212POPC   C2B 2855   1.740   5.780   5.089
  212POPC   C3B 2856   1.839   5.583   5.521
  212POPC   C4B 2857   1.774   5.808   5.927
  213POPC   NC3 2858   3.107   9.511   3.927
  213POPC   PO4 2859   3.754   9.110   3.825
  213POPC   GL1 2860   3.687   9.259   4.298
  213POPC   GL2 2861   3.610   9.620   4.362
  213POPC   C1A 2862   3.649   9.193   4.747
  213POPC   D2A 2863   3.704   9.094   5.171
  213POPC   C3A 2864   3.637   9.469   5.374
  213POPC   C4A 2865   3.484   9.509   5.774
  213POPC   C1B 2866   3.303   9.569   4.662
  213POPC   C2B 2867   3.208   9.323   5.028
  213POPC   C3B 2868   3.125   9.465   5.428
  213POPC   C4B 2869   2.994   9.738   5.791
  214POPC   NC3 2870   1.749   7.206   3.837
  214POPC   PO4 2871   2.217   6.787   3.913
  214POPC   GL1 2872   2.091   7.070   4.215
  214POPC   GL2 2873   1.772   7.041   4.348
  214POPC   C1A 2874   2.175   7.142   4.649
  214POPC   D2A 2875   2.305   7.274   5.032
  214POPC   C3A 2876   2.177   7.106   5.424
  214POPC   C4A 2877   2.068   7.017   5.853
  214POPC   C1B 2878   1.779   7.461   4.602
  214POPC   C2B 2879   1.845   7.542   5.063
  214POPC   C3B 2880   1.734   7.375   5.501
  214POPC   C4B 2881   1.624   7.334   5.960
  215POPC   NC3 2882   1.771   6.480   3.991
  215POPC   PO4 2883   2.344   6.089   3.947
  215POPC   GL1 2884   2.048   6.128   4.244
  215POPC   GL2 2885   2.174   6.461   4.313
  215POPC   C1A 2886   1.923   6.121   4.670
  215POPC   D2A 2887   1.829   6.319   5.077
  215POPC   C3A 2888   1.869   6.092   5.466
  215POPC   C4A 2889   2.121   6.140   5.794
  215POPC   C1B 2890   2.029   6.645   4.679
  215POPC   C2B 2891   2.202   6.716   5.091
  215POPC   C3B 2892   2.123   6.596   5.534
  215POPC   C4B 2893   1.741   6.522   5.731
  216POPC   NC3 2894   4.648   2.095   4.097
  216POPC   PO4 2895   5.281   1.848   4.021
  216POPC   GL1 2896   5.213   1.976   4.402
  216POPC   GL2 2897   4.891   2.062   4.534
  216POPC   C1A 2898   5.185   1.700   4.752
  216POPC   D2A 2899   4.966   1.801   5.092
  216POPC   C3A 2900   5.225   1.663   5.370
  216POPC   C4A 2901   5.399   1.826   5.679
  216POPC   C1B 2902   4.812   2.355   4.863
  216POPC   C2B 2903   4.851   2.422   5.301
  216POPC   C3B 2904   4.914   2.064   5.574
  216POPC   C4B 2905   4.648   1.808   5.815
  217POPC   NC3 2906   7.924   9.984   3.854
  217POPC   PO4 2907   7.573   0.205   3.870
  217POPC   GL1 2908   7.771   0.187   4.288
  217POPC   GL2 2909   8.031  10.443   4.239
  217POPC   C1A 2910   7.734   0.082   4.727
  217POPC   D2A 2911   7.982  10.446   5.087
  217POPC   C3A 2912   7.720  10.357   5.420
  217POPC   C4A 2913   7.594  10.464   5.814
  217POPC   C1B 2914   8.051  10.177   4.623
  217POPC   C2B 2915   8.231   9.972   4.970
  217POPC   C3B 2916   8.143   9.844   5.364
  217POPC   C4B 2917   8.038  10.073   5.723
  218POPC   NC3 2918   4.997   7.689   3.975
  218POPC   PO4 2919   4.608   7.965   4.271
  218POPC   GL1 2920   4.974   7.891   4.471
  218POPC   GL2 2921   4.973   8.234   4.531
  218POPC   C1A 2922   4.976   7.711   4.911
  218POPC   D2A 2923   4.709   7.552   5.255
  218POPC   C3A 2924   4.809   7.571   5.713
  218POPC   C4A 2925   4.803   7.349   6.156
  218POPC   C1B 2926   4.678   8.147   4.883
  218POPC   C2B 2927   4.646   8.064   5.326
  218POPC   C3B 2928   4.863   8.296   5.643
  218POPC   C4B 2929   5.218   8.180   5.914
  219POPC   NC3 2930   2.707   8.655   3.972
  219POPC   PO4 2931   3.231   9.134   4.159
  219POPC   GL1 2932   3.043   8.742   4.345
  219POPC   GL2 2933   2.685   8.801   4.438
  219POPC   C1A 2934   2.955   8.461   4.721
  219POPC   D2A 2935   2.836   8.576   5.090
  219POPC   C3A 2936   2.944   8.389   5.419
  219POPC   C4A 2937   2.957   8.723   5.670
  219POPC   C1B 2938   2.449   8.663   4.775
  219POPC   C2B 2939   2.345   8.817   5.155
  219POPC   C3B 2940   2.480   8.638   5.505
  219POPC   C4B 2941   2.562   8.403   5.848
  220POPC   NC3 2942   6.342   7.155   4.096
  220POPC   PO4 2943   6.920   7.442   3.908
  220POPC   GL1 2944   6.802   7.381   4.352
  220POPC   GL2 2945   6.714   7.043   4.474
  220POPC   C1A 2946   6.742   7.439   4.822
  220POPC   D2A 2947   6.640   7.171   5.166
  220POPC   C3A 2948   6.598   7.286   5.559
  220POPC   C4A 2949   6.452   7.139   5.938
  220POPC   C1B 2950   6.336   7.105   4.756
  220POPC   C2B 2951   6.139   6.991   5.143
  220POPC   C3B 2952   6.300   6.842   5.521
  220POPC   C4B 2953   6.055   6.794   5.893
  221POPC   NC3 2954   1.015   4.661   3.868
  221POPC   PO4 2955   1.161   5.288   4.043
  221POPC   GL1 2956   1.198   5.084   4.373
  221POPC   GL2 2957   1.273   4.748   4.307
  221POPC   C1A 2958   1.341   5.059   4.755
  221POPC   D2A 2959   1.556   5.324   4.986
  221POPC   C3A 2960   1.485   5.211   5.393
  221POPC   C4A 2961   1.615   5.023   5.787
  221POPC   C1B 2962   0.942   4.713   4.615
  221POPC   C2B 2963   0.943   4.913   5.028
  221POPC   C3B 2964   1.131   4.818   5.430
  221POPC   C4B 2965   1.065   5.116   5.754
  222POPC   NC3 2966   3.018   0.634   4.045
  222POPC   PO4 2967   2.411   0.249   4.072
  222POPC   GL1 2968   2.565   0.350   4.432
  222POPC   GL2 2969   2.931   0.263   4.356
  222POPC   C1A 2970   2.364   0.263   4.821
  222POPC   D2A 2971   2.350   0.317   5.247
  222POPC   C3A 2972   2.352   0.056   5.573
  222POPC   C4A 2973   2.617   0.216   5.857
  222POPC   C1B 2974   2.947   0.539   4.716
  222POPC   C2B 2975   2.787   0.546   5.130
  222POPC   C3B 2976   2.828   0.737   5.521
  222POPC   C4B 2977   2.792   0.710   5.960
  223POPC   NC3 2978   8.512   5.704   3.966
  223POPC   PO4 2979   9.210   5.637   3.968
  223POPC   GL1 2980   8.910   5.630   4.311
  223POPC   GL2 2981   8.717   5.926   4.379
  223POPC   C1A 2982   8.747   5.506   4.713
  223POPC   D2A 2983   8.907   5.269   5.047
  223POPC   C3A 2984   8.794   5.294   5.449
  223POPC   C4A 2985   8.781   5.445   5.834
  223POPC   C1B 2986   8.880   5.998   4.792
  223POPC   C2B 2987   9.047   5.748   5.120
  223POPC   C3B 2988   8.968   5.862   5.551
  223POPC   C4B 2989   8.575   5.953   5.768
  224POPC   NC3 2990   3.383  10.364   3.955
  224POPC   PO4 2991   2.812   9.915   3.865
  224POPC   GL1 2992   3.173   9.918   4.254
  224POPC   GL2 2993   3.497  10.133   4.419
  224POPC   C1A 2994   3.096  10.034   4.713
  224POPC   D2A 2995   3.232  10.220   5.100
  224POPC   C3A 2996   3.301   9.991   5.478
  224POPC   C4A 2997   3.364  10.056   5.930
  224POPC   C1B 2998   3.722  10.365   4.808
  224POPC   C2B 2999   3.598   0.077   5.191
  224POPC   C3B 3000   3.505   0.002   5.624
  224POPC   C4B 3001   3.799  10.316   5.915
  225POPC   NC3 3002   6.694  10.229   3.943
  225POPC   PO4 3003   6.047  10.047   3.941
  225POPC   GL1 3004   6.288  10.192   4.307
  225POPC   GL2 3005   6.635  10.313   4.421
  225POPC   C1A 3006   6.305  10.146   4.757
  225POPC   D2A 3007   6.170  10.007   5.165
  225POPC   C3A 3008   6.325  10.343   5.432
  225POPC   C4A 3009   6.221  10.440   5.851
  225POPC   C1B 3010   6.826  10.105   4.762
  225POPC   C2B 3011   6.690  10.097   5.145
  225POPC   C3B 3012   6.711   9.897   5.516
  225POPC   C4B 3013   6.652  10.192   5.830
  226POPC   NC3 3014   6.554   8.664   3.911
  226POPC   PO4 3015   6.901   8.135   4.021
  226POPC   GL1 3016   6.696   8.390   4.388
  226POPC   GL2 3017   6.356   8.540   4.357
  226POPC   C1A 3018   6.516   8.450   4.840
  226POPC   D2A 3019   6.661   8.687   5.211
  226POPC   C3A 3020   6.420   8.569   5.527
  226POPC   C4A 3021   6.391   8.493   5.999
  226POPC   C1B 3022   6.147   8.792   4.669
  226POPC   C2B 3023   6.263   8.953   5.062
  226POPC   C3B 3024   6.089   9.006   5.460
  226POPC   C4B 3025   5.975   8.652   5.738
  227POPC   NC3 3026   7.133   1.861   3.873
  227POPC   PO4 3027   6.706   2.364   3.997
  227POPC   GL1 3028   6.952   2.157   4.320
  227POPC   GL2 3029   7.008   1.808   4.370
  227POPC   C1A 3030   6.876   2.056   4.768
  227POPC   D2A 3031   7.084   2.133   5.122
  227POPC   C3A 3032   6.877   2.088   5.526
  227POPC   C4A 3033   7.061   2.205   5.911
  227POPC   C1B 3034   7.355   1.983   4.665
  227POPC   C2B 3035   7.545   1.885   5.055
  227POPC   C3B 3036   7.434   2.007   5.458
  227POPC   C4B 3037   7.281   1.773   5.811
  228POPC   NC3 3038   9.449   1.273   3.951
  228POPC   PO4 3039  10.037   1.455   3.884
  228POPC   GL1 3040   9.808   1.443   4.271
  228POPC   GL2 3041   9.748   1.086   4.327
  228POPC   C1A 3042   9.833   1.399   4.737
  228POPC   D2A 3043   9.822   1.093   5.076
  228POPC   C3A 3044   9.717   1.155   5.499
  228POPC   C4A 3045   9.771   1.495   5.740
  228POPC   C1B 3046   9.391   1.195   4.570
  228POPC   C2B 3047   9.314   1.172   4.987
  228POPC   C3B 3048   9.231   1.147   5.403
  228POPC   C4B 3049   9.299   1.312   5.845
  229POPC   NC3 3050   9.337   5.140   4.010
  229POPC   PO4 3051   9.844   5.434   3.886
  229POPC   GL1 3052   9.778   5.103   4.291
  229POPC   GL2 3053   9.540   4.794   4.318
  229POPC   C1A 3054   9.702   4.986   4.752
  229POPC   D2A 3055   9.687   4.750   5.133
  229POPC   C3A 3056   9.640   5.049   5.453
  229POPC   C4A 3057   9.608   5.208   5.883
  229POPC   C1B 3058   9.201   5.000   4.613
  229POPC   C2B 3059   9.232   4.905   4.984
  229POPC   C3B 3060   9.153   4.915   5.356
  229POPC   C4B 3061   9.155   5.052   5.723
  230POPC   NC3 3062   7.121   0.510   3.812
  230POPC   PO4 3063   7.692   0.792   3.996
  230POPC   GL1 3064   7.417   0.569   4.277
  230POPC   GL2 3065   7.049   0.491   4.331
  230POPC   C1A 3066   7.332   0.570   4.720
  230POPC   D2A 3067   7.118   0.591   5.100
  230POPC   C3A 3068   7.394   0.742   5.446
  230POPC   C4A 3069   7.484   0.502   5.827
  230POPC   C1B 3070   7.007   0.170   4.718
  230POPC   C2B 3071   7.310   0.106   5.052
  230POPC   C3B 3072   7.344   0.215   5.434
  230POPC   C4B 3073   7.032   0.413   5.633
  231POPC   NC3 3074   1.969   4.370   3.953
  231POPC   PO4 3075   2.094   3.706   4.015
  231POPC   GL1 3076   2.033   4.019   4.328
  231POPC   GL2 3077   1.667   4.099   4.295
  231POPC   C1A 3078   2.062   4.351   4.665
  231POPC   D2A 3079   2.088   4.520   5.106
  231POPC   C3A 3080   2.119   4.150   5.395
  231POPC   C4A 3081   2.314   4.020   5.790
  231POPC   C1B 3082   1.685   3.989   4.729
  231POPC   C2B 3083   1.661   4.280   5.061
  231POPC   C3B 3084   1.679   4.369   5.517
  231POPC   C4B 3085   1.786   3.973   5.748
  232POPC   NC3 3086   2.470   7.184   3.867
  232POPC   PO4 3087   2.999   7.604   3.888
  232POPC   GL1 3088   2.745   7.418   4.264
  232POPC   GL2 3089   2.586   7.060   4.338
  232POPC   C1A 3090   2.713   7.344   4.719
  232POPC   D2A 3091   2.908   7.433   5.075
  232POPC   C3A 3092   2.649   7.353   5.397
  232POPC   C4A 3093   2.531   7.238   5.767
  232POPC   C1B 3094   2.562   6.829   4.725
  232POPC   C2B 3095   2.665   6.923   5.151
  232POPC   C3B 3096   2.601   6.763   5.597
  232POPC   C4B 3097   2.514   6.853   6.078
  233POPC   NC3 3098   3.970   1.355   3.975
  233POPC   PO4 3099   3.290   1.336   3.917
  233POPC   GL1 3100   3.534   1.215   4.235
  233POPC   GL2 3101   3.439   0.903   4.252
  233POPC   C1A 3102   3.635   1.324   4.640
  233POPC   D2A 3103   3.434   1.416   5.028
  233POPC   C3A 3104   3.674   1.441   5.405
  233POPC   C4A 3105   3.683   1.256   5.775
  233POPC   C1B 3106   3.265   0.956   4.650
  233POPC   C2B 3107   3.213   0.880   5.079
  233POPC   C3B 3108   3.227   1.132   5.428
  233POPC   C4B 3109   3.236   0.931   5.791
  234POPC   NC3 3110   2.036   8.797   3.719
  234POPC   PO4 3111   2.193   8.932   4.287
  234POPC   GL1 3112   1.912   8.775   4.568
  234POPC   GL2 3113   1.742   8.421   4.565
  234POPC   C1A 3114   1.900   8.974   4.932
  234POPC   D2A 3115   1.780   8.988   5.302
  234POPC   C3A 3116   2.102   9.026   5.572
  234POPC   C4A 3117   2.197   8.778   5.904
  234POPC   C1B 3118   1.995   8.456   4.936
  234POPC   C2B 3119   1.987   8.500   5.380
  234POPC   C3B 3120   1.854   8.395   5.802
  234POPC   C4B 3121   2.154   8.356   6.188
  235POPC   NC3 3122   6.854   2.774   4.170
  235POPC   PO4 3123   7.417   3.062   3.910
  235POPC   GL1 3124   7.359   2.875   4.288
  235POPC   GL2 3125   7.336   2.505   4.246
  235POPC   C1A 3126   7.271   2.970   4.703
  235POPC   D2A 3127   7.478   2.957   5.088
  235POPC   C3A 3128   7.287   2.999   5.503
  235POPC   C4A 3129   7.381   2.996   5.960
  235POPC   C1B 3130   7.151   2.471   4.675
  235POPC   C2B 3131   7.041   2.651   5.063
  235POPC   C3B 3132   7.145   2.510   5.471
  235POPC   C4B 3133   6.987   2.694   5.834
  236POPC   NC3 3134   7.172   3.599   3.805
  236POPC   PO4 3135   7.820   3.695   3.802
  236POPC   GL1 3136   7.439   3.536   4.201
  236POPC   GL2 3137   7.084   3.322   4.221
  236POPC   C1A 3138   7.391   3.467   4.642
  236POPC   D2A 3139   7.652   3.446   5.003
  236POPC   C3A 3140   7.435   3.467   5.334
  236POPC   C4A 3141   7.373   3.462   5.742
  236POPC   C1B 3142   6.864   3.281   4.628
  236POPC   C2B 3143   7.036   3.256   5.057
  236POPC   C3B 3144   6.942   3.397   5.474
  236POPC   C4B 3145   6.891   3.187   5.831
  237POPC   NC3 3146   2.500   3.526   3.886
  237POPC   PO4 3147   3.076   3.875   3.964
  237POPC   GL1 3148   2.799   3.590   4.311
  237POPC   GL2 3149   2.454   3.377   4.357
  237POPC   C1A 3150   2.508   3.780   4.657
  237POPC   D2A 3151   2.457   3.676   5.089
  237POPC   C3A 3152   2.648   3.882   5.427
  237POPC   C4A 3153   2.796   3.797   5.829
  237POPC   C1B 3154   2.624   3.293   4.765
  237POPC   C2B 3155   2.436   3.180   5.165
  237POPC   C3B 3156   2.627   3.360   5.531
  237POPC   C4B 3157   2.461   3.426   5.940
  238POPC   NC3 3158   9.624   0.418   3.832
  238POPC   PO4 3159   9.140   0.042   3.918
  238POPC   GL1 3160   9.398   0.273   4.264
  238POPC   GL2 3161   9.618   0.589   4.313
  238POPC   C1A 3162   9.359   0.318   4.687
  238POPC   D2A 3163   9.148   0.406   5.007
  238POPC   C3A 3164   9.273   0.272   5.373
  238POPC   C4A 3165   9.114   0.369   5.761
  238POPC   C1B 3166   9.606   0.775   4.745
  238POPC   C2B 3167   9.473   0.742   5.186
  238POPC   C3B 3168   9.438   0.742   5.614
  238POPC   C4B 3169   9.281   0.790   6.003
  239POPC   NC3 3170   8.513   8.487   4.015
  239POPC   PO4 3171   9.150   8.621   4.195
  239POPC   GL1 3172   8.979   8.612   4.533
  239POPC   GL2 3173   8.703   8.756   4.452
  239POPC   C1A 3174   8.958   8.670   4.947
  239POPC   D2A 3175   9.009   8.356   5.237
  239POPC   C3A 3176   8.975   8.624   5.566
  239POPC   C4A 3177   8.841   8.838   5.946
  239POPC   C1B 3178   8.461   8.603   4.764
  239POPC   C2B 3179   8.515   8.499   5.181
  239POPC   C3B 3180   8.471   8.637   5.542
  239POPC   C4B 3181   8.374   8.952   5.760
  240POPC   NC3 3182   1.937   0.215   4.025
  240POPC   PO4 3183   1.821   0.812   3.850
  240POPC   GL1 3184   2.144   0.653   4.234
  240POPC   GL2 3185   1.976   0.444   4.471
  240POPC   C1A 3186   2.294   0.754   4.691
  240POPC   D2A 3187   1.970   0.555   5.007
  240POPC   C3A 3188   2.024   0.607   5.470
  240POPC   C4A 3189   2.248   0.576   5.874
  240POPC   C1B 3190   1.858   0.108   4.725
  240POPC   C2B 3191   1.631   0.120   5.089
  240POPC   C3B 3192   1.861   0.117   5.426
  240POPC   C4B 3193   1.863   0.271   5.822
  241POPC   NC3 3194   4.284   3.630   3.947
  241POPC   PO4 3195   4.695   3.255   3.953
  241POPC   GL1 3196   4.508   3.359   4.354
  241POPC   GL2 3197   4.191   3.241   4.367
  241POPC   C1A 3198   4.469   3.404   4.830
  241POPC   D2A 3199   4.486   3.313   5.293
  241POPC   C3A 3200   4.409   3.705   5.564
  241POPC   C4A 3201   4.432   4.069   5.897
  241POPC   C1B 3202   4.086   3.058   4.746
  241POPC   C2B 3203   3.961   3.120   5.169
  241POPC   C3B 3204   4.039   3.324   5.548
  241POPC   C4B 3205   3.975   3.626   5.840
  242POPC   NC3 3206   0.376   8.799   3.980
  242POPC   PO4 3207   0.715   8.187   3.835
  242POPC   GL1 3208   0.780   8.395   4.293
  242POPC   GL2 3209   0.472   8.557   4.408
  242POPC   C1A 3210   0.853   8.766   4.635
  242POPC   D2A 3211   0.575   8.930   5.003
  242POPC   C3A 3212   0.659   8.858   5.480
  242POPC   C4A 3213   0.467   8.501   5.765
  242POPC   C1B 3214   0.133   8.709   4.640
  242POPC   C2B 3215   0.053   8.856   5.026
  242POPC   C3B 3216   0.191   8.716   5.376
  242POPC   C4B 3217   0.128   8.868   5.763
  243POPC   NC3 3218   1.272   2.583   4.034
  243POPC   PO4 3219   1.357   3.365   3.818
  243POPC   GL1 3220   1.247   3.164   4.184
  243POPC   GL2 3221   1.070   3.454   4.275
  243POPC   C1A 3222   1.211   3.055   4.624
  243POPC   D2A 3223   0.907   3.210   4.920
  243POPC   C3A 3224   0.903   3.142   5.359
  243POPC   C4A 3225   0.946   3.238   5.780
  243POPC   C1B 3226   1.297   3.591   4.642
  243POPC   C2B 3227   1.364   3.443   5.061
  243POPC   C3B 3228   1.224   3.510   5.464
  243POPC   C4B 3229   1.473   3.445   5.800
  244POPC   NC3 3230   6.045   2.855   4.101
  244POPC   PO4 3231   5.480   2.819   3.906
  244POPC   GL1 3232   5.535   2.840   4.334
  244POPC   GL2 3233   5.688   2.513   4.311
  244POPC   C1A 3234   5.497   3.011   4.788
  244POPC   D2A 3235   5.740   2.855   5.192
  244POPC   C3A 3236   5.737   3.040   5.600
  244POPC   C4A 3237   5.353   3.181   5.825
  244POPC   C1B 3238   5.752   2.579   4.751
  244POPC   C2B 3239   5.775   2.355   5.134
  244POPC   C3B 3240   5.796   2.476   5.587
  244POPC   C4B 3241   6.058   2.577   5.980
  245POPC   NC3 3242   0.251   4.523   3.954
  245POPC   PO4 3243   0.759   5.010   3.737
  245POPC   GL1 3244   0.729   5.008   4.201
  245POPC   GL2 3245   0.485   4.818   4.425
  245POPC   C1A 3246   0.713   5.195   4.643
  245POPC   D2A 3247   0.466   5.068   5.006
  245POPC   C3A 3248   0.636   4.985   5.435
  245POPC   C4A 3249   0.670   4.644   5.698
  245POPC   C1B 3250   0.101   4.835   4.720
  245POPC   C2B 3251   0.063   4.778   5.171
  245POPC   C3B 3252   0.164   4.826   5.594
  245POPC   C4B 3253   0.160   5.134   5.892
  246POPC   NC3 3254   4.357  10.139   3.958
  246POPC   PO4 3255   3.671  10.005   3.940
  246POPC   GL1 3256   3.968   9.983   4.240
  246POPC   GL2 3257   4.020  10.339   4.292
  246POPC   C1A 3258   3.937   9.930   4.648
  246POPC   D2A 3259   3.595   9.886   4.936
  246POPC   C3A 3260   3.765  10.088   5.289
  246POPC   C4A 3261   3.794   9.884   5.670
  246POPC   C1B 3262   4.229  10.364   4.689
  246POPC   C2B 3263   4.368  10.052   5.001
  246POPC   C3B 3264   4.283  10.039   5.436
  246POPC   C4B 3265   4.213  10.439   5.635
  247POPC   NC3 3266   6.234   9.607   3.997
  247POPC   PO4 3267   6.819   9.822   4.094
  247POPC   GL1 3268   6.536   9.774   4.447
  247POPC   GL2 3269   6.312   9.484   4.468
  247POPC   C1A 3270   6.473   9.694   4.900
  247POPC   D2A 3271   6.150   9.445   5.061
  247POPC   C3A 3272   6.157   9.533   5.468
  247POPC   C4A 3273   6.235   9.917   5.688
  247POPC   C1B 3274   6.527   9.238   4.715
  247POPC   C2B 3275   6.728   9.213   5.126
  247POPC   C3B 3276   6.668   9.339   5.585
  247POPC   C4B 3277   6.675   9.306   6.068
  248POPC   NC3 3278   0.802   7.031   4.108
  248POPC   PO4 3279   1.453   6.860   3.975
  248POPC   GL1 3280   1.255   7.047   4.346
  248POPC   GL2 3281   1.090   7.392   4.354
  248POPC   C1A 3282   1.170   7.020   4.773
  248POPC   D2A 3283   1.299   6.955   5.178
  248POPC   C3A 3284   0.932   6.932   5.389
  248POPC   C4A 3285   0.877   7.017   5.789
  248POPC   C1B 3286   1.261   7.526   4.763
  248POPC   C2B 3287   1.346   7.622   5.200
  248POPC   C3B 3288   1.215   7.353   5.535
  248POPC   C4B 3289   1.382   6.943   5.707
  249POPC   NC3 3290   4.163   7.142   3.899
  249POPC   PO4 3291   4.630   7.496   3.785
  249POPC   GL1 3292   4.476   7.446   4.232
  249POPC   GL2 3293   4.161   7.285   4.384
  249POPC   C1A 3294   4.559   7.398   4.696
  249POPC   D2A 3295   4.494   7.071   5.012
  249POPC   C3A 3296   4.346   7.218   5.386
  249POPC   C4A 3297   4.484   7.176   5.804
  249POPC   C1B 3298   4.024   7.121   4.792
  249POPC   C2B 3299   3.876   7.068   5.232
  249POPC   C3B 3300   4.090   6.815   5.550
  249POPC   C4B 3301   4.481   6.662   5.733
  250POPC   NC3 3302   4.808   8.298   4.015
  250POPC   PO4 3303   4.731   8.947   3.968
  250POPC   GL1 3304   4.900   8.718   4.320
  250POPC   GL2 3305   5.230   8.555   4.204
  250POPC   C1A 3306   4.919   8.779   4.775
  250POPC   D2A 3307   4.874   8.570   5.184
  250POPC   C3A 3308   4.806   8.801   5.574
  250POPC   C4A 3309   4.754   8.882   6.025
  250POPC   C1B 3310   5.358   8.529   4.635
  250POPC   C2B 3311   5.466   8.548   5.060
  250POPC   C3B 3312   5.315   8.458   5.479
  250POPC   C4B 3313   5.212   8.695   5.847
  251POPC   NC3 3314   7.762   5.102   4.340
  251POPC   PO4 3315   8.281   5.268   3.980
  251POPC   GL1 3316   8.276   5.187   4.357
  251POPC   GL2 3317   8.261   4.848   4.363
  251POPC   C1A 3318   8.210   5.347   4.728
  251POPC   D2A 3319   7.862   5.195   4.989
  251POPC   C3A 3320   7.906   5.242   5.425
  251POPC   C4A 3321   7.873   5.217   5.843
  251POPC   C1B 3322   8.151   4.834   4.784
  251POPC   C2B 3323   8.146   4.780   5.180
  251POPC   C3B 3324   7.876   4.731   5.473
  251POPC   C4B 3325   7.954   4.667   5.852
  252POPC   NC3 3326   7.578   9.050   3.767
  252POPC   PO4 3327   8.123   8.612   3.759
  252POPC   GL1 3328   7.897   8.785   4.131
  252POPC   GL2 3329   8.214   8.810   4.297
  252POPC   C1A 3330   7.835   8.910   4.609
  252POPC   D2A 3331   8.052   9.017   4.990
  252POPC   C3A 3332   7.968   8.901   5.414
  252POPC   C4A 3333   7.883   9.057   5.867
  252POPC   C1B 3334   8.015   8.454   4.581
  252POPC   C2B 3335   8.152   8.196   4.943
  252POPC   C3B 3336   8.087   8.307   5.383
  252POPC   C4B 3337   8.025   8.560   5.773
  253POPC   NC3 3338   8.822   1.208   4.033
  253POPC   PO4 3339   8.386   0.697   3.871
  253POPC   GL1 3340   8.395   1.039   4.241
  253POPC   GL2 3341   8.667   0.949   4.452
  253POPC   C1A 3342   8.410   1.381   4.612
  253POPC   D2A 3343   8.429   1.662   4.997
  253POPC   C3A 3344   8.410   1.432   5.420
  253POPC   C4A 3345   8.399   1.019   5.677
  253POPC   C1B 3346   8.901   1.289   4.690
  253POPC   C2B 3347   8.896   1.456   5.109
  253POPC   C3B 3348   8.895   1.461   5.550
  253POPC   C4B 3349   8.886   1.033   5.802
  254POPC   NC3 3350   1.335   5.657   3.826
  254POPC   PO4 3351   0.731   5.976   3.776
  254POPC   GL1 3352   0.976   6.024   4.143
  254POPC   GL2 3353   0.959   5.692   4.247
  254POPC   C1A 3354   1.076   6.029   4.608
  254POPC   D2A 3355   0.829   6.024   4.997
  254POPC   C3A 3356   0.983   6.013   5.403
  254POPC   C4A 3357   0.985   5.742   5.775
  254POPC   C1B 3358   1.105   5.515   4.656
  254POPC   C2B 3359   1.151   5.630   5.070
  254POPC   C3B 3360   1.373   5.714   5.429
  254POPC   C4B 3361   1.417   5.488   5.806
  255POPC   NC3 3362   7.234   9.584   3.990
  255POPC   PO4 3363   7.368   8.989   4.159
  255POPC   GL1 3364   7.202   9.272   4.395
  255POPC   GL2 3365   6.864   9.370   4.328
  255POPC   C1A 3366   7.159   9.179   4.776
  255POPC   D2A 3367   7.313   9.293   5.107
  255POPC   C3A 3368   7.132   9.089   5.436
  255POPC   C4A 3369   7.096   9.164   5.836
  255POPC   C1B 3370   6.929   9.605   4.700
  255POPC   C2B 3371   6.963   9.670   5.112
  255POPC   C3B 3372   7.150   9.608   5.492
  255POPC   C4B 3373   6.983   9.660   5.901
  256POPC   NC3 3374   0.405   3.740   4.166
  256POPC   PO4 3375   0.711   3.228   3.893
  256POPC   GL1 3376   0.411   3.204   4.239
  256POPC   GL2 3377   0.614   3.367   4.468
  256POPC   C1A 3378   0.155   3.278   4.613
  256POPC   D2A 3379   0.333   3.507   4.982
  256POPC   C3A 3380   0.211   3.345   5.393
  256POPC   C4A 3381   0.443   3.274   5.763
  256POPC   C1B 3382   0.782   3.668   4.718
  256POPC   C2B 3383   0.887   3.668   5.119
  256POPC   C3B 3384   0.686   3.604   5.456
  256POPC   C4B 3385   0.816   3.721   5.833
  257POPC   NC3 3386   7.242   0.071   4.148
  257POPC   PO4 3387   7.487   9.971   4.018
  257POPC   GL1 3388   7.287   9.831   4.412
  257POPC   GL2 3389   7.111  10.130   4.356
  257POPC   C1A 3390   7.400   9.751   4.847
  257POPC   D2A 3391   7.719   9.972   5.071
  257POPC   C3A 3392   7.628   9.845   5.495
  257POPC   C4A 3393   7.301  10.027   5.762
  257POPC   C1B 3394   7.336  10.227   4.736
  257POPC   C2B 3395   7.234  10.113   5.189
  257POPC   C3B 3396   6.999  10.345   5.487
  257POPC   C4B 3397   7.096  10.480   5.899
  258POPC   NC3 3398   0.185   3.715   3.666
  258POPC   PO4 3399   0.671   4.080   3.976
  258POPC   GL1 3400   0.512   4.225   4.364
  258POPC   GL2 3401   0.212   4.397   4.447
  258POPC   C1A 3402   0.365   4.006   4.732
  258POPC   D2A 3403   0.525   4.007   5.099
  258POPC   C3A 3404   0.257   3.870   5.362
  258POPC   C4A 3405   0.275   3.743   5.763
  258POPC   C1B 3406   0.493   4.513   4.828
  258POPC   C2B 3407   0.747   4.462   5.201
  258POPC   C3B 3408   0.721   4.153   5.549
  258POPC   C4B 3409   0.330   4.249   5.730
  259POPC   NC3 3410   9.116   7.296   3.669
  259POPC   PO4 3411   9.417   7.703   4.001
  259POPC   GL1 3412   9.256   7.355   4.191
  259POPC   GL2 3413   9.511   7.148   4.344
  259POPC   C1A 3414   9.163   7.418   4.615
  259POPC   D2A 3415   9.188   7.533   5.016
  259POPC   C3A 3416   9.422   7.356   5.306
  259POPC   C4A 3417   9.319   7.439   5.722
  259POPC   C1B 3418   9.309   6.953   4.743
  259POPC   C2B 3419   9.346   6.749   5.162
  259POPC   C3B 3420   9.300   6.926   5.579
  259POPC   C4B 3421   9.619   7.046   5.837
  260POPC   NC3 3422   2.801   2.451   3.868
  260POPC   PO4 3423   2.370   3.071   3.861
  260POPC   GL1 3424   2.493   2.862   4.240
  260POPC   GL2 3425   2.516   2.518   4.293
  260POPC   C1A 3426   2.473   2.820   4.699
  260POPC   D2A 3427   2.796   2.856   5.023
  260POPC   C3A 3428   2.651   2.810   5.452
  260POPC   C4A 3429   2.580   2.874   5.870
  260POPC   C1B 3430   2.900   2.557   4.585
  260POPC   C2B 3431   3.211   2.534   4.917
  260POPC   C3B 3432   3.121   2.588   5.335
  260POPC   C4B 3433   2.966   2.530   5.757
  261POPC   NC3 3434   8.921   4.323   3.913
  261POPC   PO4 3435   9.584   3.900   3.915
  261POPC   GL1 3436   9.272   3.965   4.233
  261POPC   GL2 3437   9.284   4.324   4.289
  261POPC   C1A 3438   9.406   3.984   4.665
  261POPC   D2A 3439   9.468   3.751   5.034
  261POPC   C3A 3440   9.370   3.987   5.379
  261POPC   C4A 3441   9.484   4.023   5.775
  261POPC   C1B 3442   9.352   4.496   4.700
  261POPC   C2B 3443   9.241   4.443   5.154
  261POPC   C3B 3444   9.456   4.538   5.534
  261POPC   C4B 3445   9.616   4.473   5.941
  262POPC   NC3 3446   5.066   2.991   3.947
  262POPC   PO4 3447   4.533   2.499   3.895
  262POPC   GL1 3448   4.753   2.601   4.287
  262POPC   GL2 3449   5.088   2.463   4.190
  262POPC   C1A 3450   4.905   2.847   4.689
  262POPC   D2A 3451   4.921   3.006   5.140
  262POPC   C3A 3452   4.762   2.905   5.561
  262POPC   C4A 3453   4.850   3.174   5.969
  262POPC   C1B 3454   5.259   2.493   4.599
  262POPC   C2B 3455   5.277   2.640   5.052
  262POPC   C3B 3456   5.283   2.755   5.501
  262POPC   C4B 3457   5.056   2.687   5.913
  263POPC   NC3 3458   0.288   6.143   3.884
  263POPC   PO4 3459   0.616   6.752   3.811
  263POPC   GL1 3460   0.601   6.423   4.171
  263POPC   GL2 3461   0.247   6.338   4.332
  263POPC   C1A 3462   0.618   6.226   4.592
  263POPC   D2A 3463   0.516   6.465   4.963
  263POPC   C3A 3464   0.550   6.272   5.351
  263POPC   C4A 3465   0.652   6.115   5.759
  263POPC   C1B 3466   0.092   6.254   4.726
  263POPC   C2B 3467  10.483   6.486   5.057
  263POPC   C3B 3468   0.209   6.643   5.374
  263POPC   C4B 3469   0.449   6.568   5.750
  264POPC   NC3 3470   0.593   1.456   3.816
  264POPC   PO4 3471   0.837   0.818   3.732
  264POPC   GL1 3472   0.669   1.049   4.133
  264POPC   GL2 3473   0.345   1.242   4.209
  264POPC   C1A 3474   0.646   1.161   4.608
  264POPC   D2A 3475   0.541   0.955   5.001
  264POPC   C3A 3476   0.617   1.095   5.399
  264POPC   C4A 3477   0.774   0.971   5.765
  264POPC   C1B 3478   0.141   1.107   4.615
  264POPC   C2B 3479   0.055   0.882   4.978
  264POPC   C3B 3480   0.028   0.856   5.423
  264POPC   C4B 3481   0.216   1.128   5.720
  265POPC   NC3 3482   6.570   7.847   3.873
  265POPC   PO4 3483   6.052   7.509   4.031
  265POPC   GL1 3484   6.334   7.639   4.327
  265POPC   GL2 3485   6.619   7.871   4.381
  265POPC   C1A 3486   6.277   7.617   4.751
  265POPC   D2A 3487   6.229   7.508   5.163
  265POPC   C3A 3488   6.447   7.750   5.440
  265POPC   C4A 3489   6.361   7.632   5.857
  265POPC   C1B 3490   6.260   8.087   4.582
  265POPC   C2B 3491   6.263   8.067   5.057
  265POPC   C3B 3492   6.666   8.174   5.275
  265POPC   C4B 3493   6.747   8.222   5.709
  266POPC   NC3 3494   8.058   1.042   3.854
  266POPC   PO4 3495   7.686   1.514   3.683
  266POPC   GL1 3496   7.806   1.318   4.177
  266POPC   GL2 3497   7.535   1.100   4.377
  266POPC   C1A 3498   7.996   1.096   4.547
  266POPC   D2A 3499   8.135   0.926   4.928
  266POPC   C3A 3500   7.846   0.956   5.278
  266POPC   C4A 3501   7.967   1.233   5.613
  266POPC   C1B 3502   7.555   1.033   4.837
  266POPC   C2B 3503   7.498   1.372   5.142
  266POPC   C3B 3504   7.550   1.467   5.535
  266POPC   C4B 3505   7.537   1.085   5.829
  267POPC   NC3 3506   0.612   5.454   3.873
  267POPC   PO4 3507   0.214   4.967   4.050
  267POPC   GL1 3508   0.350   5.342   4.292
  267POPC   GL2 3509   0.402   5.749   4.243
  267POPC   C1A 3510   0.198   5.436   4.686
  267POPC   D2A 3511   0.026   5.303   5.046
  267POPC   C3A 3512   0.253   5.311   5.420
  267POPC   C4A 3513   0.555   5.439   5.761
  267POPC   C1B 3514   0.624   5.709   4.636
  267POPC   C2B 3515   0.526   5.603   5.081
  267POPC   C3B 3516   0.345   5.820   5.466
  267POPC   C4B 3517   0.177   6.037   5.865
  268POPC   NC3 3518   9.227   6.049   4.185
  268POPC   PO4 3519   8.624   6.185   3.886
  268POPC   GL1 3520   8.679   6.407   4.241
  268POPC   GL2 3521   8.974   6.488   4.144
  268POPC   C1A 3522   8.520   6.348   4.643
  268POPC   D2A 3523   8.390   6.272   5.035
  268POPC   C3A 3524   8.628   6.279   5.385
  268POPC   C4A 3525   8.452   6.466   5.762
  268POPC   C1B 3526   8.948   6.621   4.605
  268POPC   C2B 3527   8.841   6.601   5.042
  268POPC   C3B 3528   8.843   6.733   5.496
  268POPC   C4B 3529   8.964   6.666   5.927
  269POPC   NC3 3530   5.606   9.838   3.924
  269POPC   PO4 3531   5.920   9.231   3.971
  269POPC   GL1 3532   5.827   9.584   4.305
  269POPC   GL2 3533   5.505   9.765   4.416
  269POPC   C1A 3534   5.953   9.776   4.692
  269POPC   D2A 3535   5.710   9.735   5.059
  269POPC   C3A 3536   5.746   9.916   5.466
  269POPC   C4A 3537   5.819   9.669   5.820
  269POPC   C1B 3538   5.398   9.460   4.690
  269POPC   C2B 3539   5.367   9.347   5.101
  269POPC   C3B 3540   5.609   9.392   5.455
  269POPC   C4B 3541   5.383   9.463   5.858
  270POPC   NC3 3542   4.361   2.939   3.949
  270POPC   PO4 3543   3.928   2.421   4.016
  270POPC   GL1 3544   4.228   2.393   4.284
  270POPC   GL2 3545   4.187   2.719   4.366
  270POPC   C1A 3546   4.193   2.230   4.667
  270POPC   D2A 3547   4.307   2.294   5.070
  270POPC   C3A 3548   3.954   2.287   5.316
  270POPC   C4A 3549   3.953   2.439   5.681
  270POPC   C1B 3550   4.430   2.673   4.705
  270POPC   C2B 3551   4.455   2.788   5.116
  270POPC   C3B 3552   4.254   2.810   5.497
  270POPC   C4B 3553   4.352   3.069   5.850
  271POPC   NC3 3554   3.450   2.177   4.028
  271POPC   PO4 3555   3.914   1.734   3.717
  271POPC   GL1 3556   3.641   1.713   4.186
  271POPC   GL2 3557   3.265   1.698   4.276
  271POPC   C1A 3558   3.519   1.814   4.678
  271POPC   D2A 3559   3.680   1.913   5.101
  271POPC   C3A 3560   3.483   1.891   5.492
  271POPC   C4A 3561   3.238   1.560   5.731
  271POPC   C1B 3562   3.054   1.994   4.650
  271POPC   C2B 3563   3.152   2.026   5.084
  271POPC   C3B 3564   3.037   2.099   5.506
  271POPC   C4B 3565   3.238   2.044   5.930
  272POPC   NC3 3566   7.826   3.291   4.034
  272POPC   PO4 3567   8.213   3.951   4.024
  272POPC   GL1 3568   8.195   3.583   4.292
  272POPC   GL2 3569   7.875   3.559   4.454
  272POPC   C1A 3570   8.261   3.282   4.598
  272POPC   D2A 3571   8.133   3.549   4.899
  272POPC   C3A 3572   8.114   3.516   5.312
  272POPC   C4A 3573   8.066   3.717   5.691
  272POPC   C1B 3574   7.788   3.117   4.644
  272POPC   C2B 3575   7.978   3.030   5.034
  272POPC   C3B 3576   7.814   3.140   5.450
  272POPC   C4B 3577   8.144   3.230   5.772
  273POPC   NC3 3578   2.269   0.937   3.830
  273POPC   PO4 3579   2.338   1.614   3.876
  273POPC   GL1 3580   2.108   1.409   4.224
  273POPC   GL2 3581   1.976   1.115   4.244
  273POPC   C1A 3582   2.068   1.430   4.677
  273POPC   D2A 3583   2.359   1.379   5.026
  273POPC   C3A 3584   2.177   1.429   5.395
  273POPC   C4A 3585   2.331   1.460   5.783
  273POPC   C1B 3586   1.828   0.948   4.650
  273POPC   C2B 3587   1.928   1.059   5.082
  273POPC   C3B 3588   1.840   1.057   5.514
  273POPC   C4B 3589   1.728   1.385   5.690
  274POPC   NC3 3590   7.223   7.785   3.992
  274POPC   PO4 3591   7.597   8.312   4.022
  274POPC   GL1 3592   7.304   8.170   4.345
  274POPC   GL2 3593   7.343   7.839   4.488
  274POPC   C1A 3594   7.073   8.234   4.722
  274POPC   D2A 3595   7.303   8.275   5.082
  274POPC   C3A 3596   7.168   8.056   5.397
  274POPC   C4A 3597   7.270   8.172   5.753
  274POPC   C1B 3598   7.238   7.784   4.955
  274POPC   C2B 3599   6.932   7.621   5.284
  274POPC   C3B 3600   6.865   7.722   5.732
  274POPC   C4B 3601   6.743   7.580   6.181
  275POPC   NC3 3602   4.196   2.107   3.802
  275POPC   PO4 3603   4.549   1.641   4.092
  275POPC   GL1 3604   4.418   1.793   4.438
  275POPC   GL2 3605   4.110   1.889   4.282
  275POPC   C1A 3606   4.509   1.871   4.863
  275POPC   D2A 3607   4.513   1.859   5.311
  275POPC   C3A 3608   4.405   2.204   5.568
  275POPC   C4A 3609   4.210   2.108   5.954
  275POPC   C1B 3610   4.010   1.754   4.728
  275POPC   C2B 3611   4.093   1.616   5.137
  275POPC   C3B 3612   4.002   1.837   5.546
  275POPC   C4B 3613   3.737   1.752   5.910
  276POPC   NC3 3614   2.459   9.289   4.217
  276POPC   PO4 3615   1.951   9.380   3.760
  276POPC   GL1 3616   1.915   9.335   4.258
  276POPC   GL2 3617   1.651   9.099   4.284
  276POPC   C1A 3618   2.095   9.405   4.730
  276POPC   D2A 3619   2.362   9.336   5.091
  276POPC   C3A 3620   2.137   9.544   5.412
  276POPC   C4A 3621   2.027   9.483   5.804
  276POPC   C1B 3622   1.602   9.291   4.660
  276POPC   C2B 3623   1.693   9.538   5.024
  276POPC   C3B 3624   1.626   9.465   5.429
  276POPC   C4B 3625   1.630   9.181   5.740
  277POPC   NC3 3626   4.990   1.478   4.156
  277POPC   PO4 3627   4.942   0.952   3.732
  277POPC   GL1 3628   4.747   0.914   4.189
  277POPC   GL2 3629   4.556   1.184   4.325
  277POPC   C1A 3630   4.821   0.918   4.664
  277POPC   D2A 3631   4.671   0.785   5.046
  277POPC   C3A 3632   4.772   0.901   5.465
  277POPC   C4A 3633   4.489   1.041   5.793
  277POPC   C1B 3634   4.720   1.414   4.737
  277POPC   C2B 3635   4.931   1.288   5.119
  277POPC   C3B 3636   4.835   1.395   5.552
  277POPC   C4B 3637   5.063   1.534   5.892
  278POPC   NC3 3638   0.781   0.512   4.086
  278POPC   PO4 3639   0.183   0.806   3.991
  278POPC   GL1 3640   0.360   0.695   4.379
  278POPC   GL2 3641   0.202   0.385   4.343
  278POPC   C1A 3642   0.517   0.440   4.744
  278POPC   D2A 3643   0.761   0.446   5.114
  278POPC   C3A 3644   0.519   0.612   5.426
  278POPC   C4A 3645   0.440   0.584   5.840
  278POPC   C1B 3646  10.483   0.439   4.736
  278POPC   C2B 3647   0.132   0.410   5.158
  278POPC   C3B 3648   0.200   0.216   5.570
  278POPC   C4B 3649   0.098   0.244   6.048
  279POPC   NC3 3650   0.476   2.216   3.910
  279POPC   PO4 3651   0.679   1.693   4.188
  279POPC   GL1 3652   0.389   1.752   4.418
  279POPC   GL2 3653   0.533   2.122   4.434
  279POPC   C1A 3654   0.341   1.531   4.814
  279POPC   D2A 3655   0.237   1.354   5.204
  279POPC   C3A 3656   0.456   1.547   5.555
  279POPC   C4A 3657   0.213   1.639   5.916
  279POPC   C1B 3658   0.674   1.930   4.800
  279POPC   C2B 3659   0.457   1.891   5.152
  279POPC   C3B 3660   0.259   2.003   5.482
  279POPC   C4B 3661   0.487   2.039   5.816
  280POPC   NC3 3662   9.920   4.309   3.917
  280POPC   PO4 3663   0.050   3.981   4.008
  280POPC   GL1 3664  10.291   4.155   4.263
  280POPC   GL2 3665  10.037   3.935   4.276
  280POPC   C1A 3666  10.339   4.196   4.700
  280POPC   D2A 3667   0.089   4.274   5.062
  280POPC   C3A 3668  10.379   4.209   5.437
  280POPC   C4A 3669  10.377   4.468   5.794
  280POPC   C1B 3670   9.844   4.216   4.593
  280POPC   C2B 3671   9.670   4.249   5.010
  280POPC   C3B 3672   9.832   4.244   5.414
  280POPC   C4B 3673  10.001   4.127   5.770
  281POPC   NC3 3674   2.568   6.483   3.921
  281POPC   PO4 3675   2.908   6.915   3.985
  281POPC   GL1 3676   2.831   6.600   4.349
  281POPC   GL2 3677   2.647   6.254   4.370
  281POPC   C1A 3678   2.929   6.481   4.783
  281POPC   D2A 3679   2.774   6.434   5.190
  281POPC   C3A 3680   3.034   6.446   5.562
  281POPC   C4A 3681   2.975   6.654   5.950
  281POPC   C1B 3682   2.413   6.299   4.781
  281POPC   C2B 3683   2.311   6.238   5.227
  281POPC   C3B 3684   2.563   6.217   5.596
  281POPC   C4B 3685   2.644   5.871   5.894
  282POPC   NC3 3686   2.483  10.291   3.977
  282POPC   PO4 3687   2.274   9.722   4.194
  282POPC   GL1 3688   2.643   9.929   4.373
  282POPC   GL2 3689   2.812  10.267   4.356
  282POPC   C1A 3690   2.569  10.062   4.788
  282POPC   D2A 3691   2.397   9.890   5.131
  282POPC   C3A 3692   2.594  10.083   5.512
  282POPC   C4A 3693   2.481  10.191   5.925
  282POPC   C1B 3694   2.784   0.001   4.749
  282POPC   C2B 3695   2.705  10.444   5.164
  282POPC   C3B 3696   2.977  10.447   5.517
  282POPC   C4B 3697   3.002  10.400   5.964
  283POPC   NC3 3698   5.367   0.683   3.989
  283POPC   PO4 3699   6.020   0.898   3.938
  283POPC   GL1 3700   5.845   0.536   4.300
  283POPC   GL2 3701   5.593   0.222   4.343
  283POPC   C1A 3702   5.720   0.443   4.775
  283POPC   D2A 3703   5.642   0.710   5.138
  283POPC   C3A 3704   5.850   0.712   5.499
  283POPC   C4A 3705   5.845   0.474   5.906
  283POPC   C1B 3706   5.273   0.184   4.714
  283POPC   C2B 3707   5.419   0.171   5.114
  283POPC   C3B 3708   5.523   0.321   5.499
  283POPC   C4B 3709   5.398   0.239   5.904
  284POPC   NC3 3710   4.516   1.160   3.770
  284POPC   PO4 3711   3.890   0.894   4.009
  284POPC   GL1 3712   4.014   1.014   4.373
  284POPC   GL2 3713   4.100   1.362   4.445
  284POPC   C1A 3714   3.836   0.865   4.712
  284POPC   D2A 3715   3.840   1.100   5.084
  284POPC   C3A 3716   4.066   1.014   5.464
  284POPC   C4A 3717   3.968   0.844   5.848
  284POPC   C1B 3718   4.274   1.177   4.803
  284POPC   C2B 3719   4.440   1.231   5.204
  284POPC   C3B 3720   4.326   1.456   5.571
  284POPC   C4B 3721   4.219   1.595   5.971
  285POPC   NC3 3722   3.231   5.237   4.053
  285POPC   PO4 3723   2.667   5.357   3.824
  285POPC   GL1 3724   2.385   5.329   4.207
  285POPC   GL2 3725   2.311   5.681   4.322
  285POPC   C1A 3726   2.383   5.288   4.673
  285POPC   D2A 3727   2.556   5.450   5.040
  285POPC   C3A 3728   2.735   5.424   5.425
  285POPC   C4A 3729   2.673   5.356   5.842
  285POPC   C1B 3730   2.617   5.795   4.640
  285POPC   C2B 3731   2.704   5.940   5.082
  285POPC   C3B 3732   2.938   5.907   5.469
  285POPC   C4B 3733   3.133   5.593   5.735
  286POPC   NC3 3734   4.814   9.384   3.890
  286POPC   PO4 3735   5.142   9.853   4.060
  286POPC   GL1 3736   4.839   9.647   4.326
  286POPC   GL2 3737   4.909   9.269   4.374
  286POPC   C1A 3738   4.524   9.669   4.673
  286POPC   D2A 3739   4.533   9.553   5.129
  286POPC   C3A 3740   4.649   9.682   5.573
  286POPC   C4A 3741   4.628   9.696   6.050
  286POPC   C1B 3742   4.903   9.343   4.801
  286POPC   C2B 3743   4.913   9.115   5.172
  286POPC   C3B 3744   5.160   9.142   5.538
  286POPC   C4B 3745   4.908   9.325   5.841
  287POPC   NC3 3746   7.865   5.240   3.784
  287POPC   PO4 3747   7.722   5.811   3.926
  287POPC   GL1 3748   7.911   5.586   4.266
  287POPC   GL2 3749   8.223   5.718   4.373
  287POPC   C1A 3750   7.851   5.689   4.726
  287POPC   D2A 3751   8.043   5.635   5.150
  287POPC   C3A 3752   7.727   5.726   5.515
  287POPC   C4A 3753   7.514   5.581   5.932
  287POPC   C1B 3754   8.365   5.841   4.781
  287POPC   C2B 3755   8.544   5.740   5.193
  287POPC   C3B 3756   8.352   5.549   5.553
  287POPC   C4B 3757   8.105   5.727   5.839
  288POPC   NC3 3758   9.785   9.257   3.706
  288POPC   PO4 3759  10.484   9.128   3.900
  288POPC   GL1 3760  10.257   9.209   4.265
  288POPC   GL2 3761  10.052   9.543   4.232
  288POPC   C1A 3762  10.228   9.043   4.669
  288POPC   D2A 3763  10.170   9.198   5.074
  288POPC   C3A 3764  10.243   8.992   5.453
  288POPC   C4A 3765  10.176   9.115   5.890
  288POPC   C1B 3766  10.264   9.570   4.656
  288POPC   C2B 3767  10.304   9.703   5.094
  288POPC   C3B 3768  10.235   9.523   5.500
  288POPC   C4B 3769   9.922   9.578   5.811
  289POPC   NC3 3770   9.254   9.046   4.093
  289POPC   PO4 3771   9.429   9.598   3.783
  289POPC   GL1 3772   9.542   9.476   4.257
  289POPC   GL2 3773   9.573   9.763   4.482
  289POPC   C1A 3774   9.788   9.358   4.713
  289POPC   D2A 3775   9.786   9.485   5.205
  289POPC   C3A 3776   9.776   9.165   5.567
  289POPC   C4A 3777   9.691   9.188   6.070
  289POPC   C1B 3778   9.283   9.415   4.699
  289POPC   C2B 3779   9.082   9.189   5.041
  289POPC   C3B 3780   9.171   9.334   5.433
  289POPC   C4B 3781   9.418   9.474   5.709
  290POPC   NC3 3782   8.902   9.675   3.919
  290POPC   PO4 3783   8.680   9.020   4.027
  290POPC   GL1 3784   8.834   9.308   4.341
  290POPC   GL2 3785   8.513   9.436   4.345
  290POPC   C1A 3786   8.773   9.523   4.775
  290POPC   D2A 3787   8.737   9.548   5.246
  290POPC   C3A 3788   8.986   9.794   5.500
  290POPC   C4A 3789   9.047   9.740   5.927
  290POPC   C1B 3790   8.421   9.131   4.651
  290POPC   C2B 3791   8.567   9.012   5.065
  290POPC   C3B 3792   8.753   9.059   5.439
  290POPC   C4B 3793   8.733   9.353   5.759
  291POPC   NC3 3794   2.471   4.922   3.851
  291POPC   PO4 3795   3.137   4.792   4.028
  291POPC   GL1 3796   2.813   5.032   4.238
  291POPC   GL2 3797   2.559   4.849   4.367
  291POPC   C1A 3798   2.875   5.211   4.658
  291POPC   D2A 3799   2.868   5.031   5.085
  291POPC   C3A 3800   3.127   5.093   5.478
  291POPC   C4A 3801   3.117   5.098   5.933
  291POPC   C1B 3802   2.378   4.780   4.761
  291POPC   C2B 3803   2.384   4.927   5.166
  291POPC   C3B 3804   2.649   4.905   5.536
  291POPC   C4B 3805   2.550   4.878   5.945
  292POPC   NC3 3806  10.198   8.765   3.918
  292POPC   PO4 3807   9.645   8.626   3.692
  292POPC   GL1 3808   9.898   8.538   4.216
  292POPC   GL2 3809  10.233   8.550   4.353
  292POPC   C1A 3810   9.905   8.646   4.712
  292POPC   D2A 3811  10.073   8.678   5.071
  292POPC   C3A 3812   9.844   8.676   5.446
  292POPC   C4A 3813   9.737   8.731   5.852
  292POPC   C1B 3814  10.349   8.273   4.637
  292POPC   C2B 3815  10.471   8.346   5.031
  292POPC   C3B 3816  10.297   8.425   5.436
  292POPC   C4B 3817  10.216   8.595   5.787
  293POPC   NC3 3818   8.288   9.240   3.926
  293POPC   PO4 3819   7.695   9.499   3.735
  293POPC   GL1 3820   7.680   9.404   4.197
  293POPC   GL2 3821   7.994   9.292   4.320
  293POPC   C1A 3822   7.642   9.361   4.677
  293POPC   D2A 3823   7.811   9.474   5.102
  293POPC   C3A 3824   7.649   9.298   5.475
  293POPC   C4A 3825   7.504   9.445   5.834
  293POPC   C1B 3826   8.116   9.578   4.645
  293POPC   C2B 3827   8.308   9.467   5.020
  293POPC   C3B 3828   8.269   9.343   5.444
  293POPC   C4B 3829   8.011   9.545   5.757
  294POPC   NC3 3830   0.994   8.556   3.858
  294POPC   PO4 3831   1.473   8.197   3.971
  294POPC   GL1 3832   1.293   8.419   4.292
  294POPC   GL2 3833   1.246   8.775   4.238
  294POPC   C1A 3834   1.157   8.371   4.714
  294POPC   D2A 3835   1.015   8.557   5.099
  294POPC   C3A 3836   0.875   8.337   5.466
  294POPC   C4A 3837   0.952   8.590   5.822
  294POPC   C1B 3838   1.397   8.819   4.644
  294POPC   C2B 3839   1.523   8.635   5.006
  294POPC   C3B 3840   1.466   8.578   5.428
  294POPC   C4B 3841   1.432   8.737   5.823
  295POPC   NC3 3842   1.437   0.935   4.103
  295POPC   PO4 3843   1.067   1.446   3.751
  295POPC   GL1 3844   1.078   1.394   4.247
  295POPC   GL2 3845   1.101   1.095   4.421
  295POPC   C1A 3846   1.028   1.500   4.731
  295POPC   D2A 3847   0.779   1.494   5.111
  295POPC   C3A 3848   0.997   1.404   5.500
  295POPC   C4A 3849   1.096   1.379   5.922
  295POPC   C1B 3850   1.352   1.092   4.807
  295POPC   C2B 3851   1.440   1.259   5.218
  295POPC   C3B 3852   1.339   1.053   5.591
  295POPC   C4B 3853   1.249   0.852   5.909
  296POPC   NC3 3854   7.992   1.756   3.927
  296POPC   PO4 3855   7.418   1.629   4.133
  296POPC   GL1 3856   7.722   1.792   4.361
  296POPC   GL2 3857   7.733   2.137   4.238
  296POPC   C1A 3858   7.968   1.638   4.700
  296POPC   D2A 3859   7.995   1.425   5.101
  296POPC   C3A 3860   7.982   1.710   5.461
  296POPC   C4A 3861   7.780   1.908   5.799
  296POPC   C1B 3862   7.840   2.151   4.693
  296POPC   C2B 3863   8.033   2.012   5.059
  296POPC   C3B 3864   7.958   2.213   5.444
  296POPC   C4B 3865   8.041   2.365   5.834
  297POPC   NC3 3866   2.501   1.936   3.594
  297POPC   PO4 3867   3.005   2.037   4.026
  297POPC   GL1 3868   2.653   2.029   4.292
  297POPC   GL2 3869   2.460   1.741   4.353
  297POPC   C1A 3870   2.557   2.209   4.704
  297POPC   D2A 3871   2.746   2.353   5.079
  297POPC   C3A 3872   2.576   2.302   5.490
  297POPC   C4A 3873   2.543   2.343   5.949
  297POPC   C1B 3874   2.627   1.710   4.735
  297POPC   C2B 3875   2.600   1.861   5.139
  297POPC   C3B 3876   2.738   1.692   5.502
  297POPC   C4B 3877   2.746   1.859   5.862
  298POPC   NC3 3878  10.404   0.132   4.022
  298POPC   PO4 3879  10.251   9.931   3.923
  298POPC   GL1 3880  10.312  10.129   4.280
  298POPC   GL2 3881   9.982  10.104   4.356
  298POPC   C1A 3882  10.438  10.056   4.722
  298POPC   D2A 3883   0.106  10.160   5.129
  298POPC   C3A 3884  10.387  10.284   5.499
  298POPC   C4A 3885  10.380   9.939   5.790
  298POPC   C1B 3886   9.926   9.982   4.772
  298POPC   C2B 3887  10.013  10.121   5.159
  298POPC   C3B 3888   9.939  10.034   5.575
  298POPC   C4B 3889   9.927  10.411   5.832
  299POPC   NC3 3890   1.021   9.543   3.807
  299POPC   PO4 3891   0.823   8.957   3.974
  299POPC   GL1 3892   0.958   9.206   4.302
  299POPC   GL2 3893   1.229   9.427   4.287
  299POPC   C1A 3894   1.085   9.215   4.728
  299POPC   D2A 3895   1.341   9.142   5.075
  299POPC   C3A 3896   1.122   9.297   5.407
  299POPC   C4A 3897   1.042   9.084   5.773
  299POPC   C1B 3898   1.309   9.700   4.662
  299POPC   C2B 3899   1.297   9.885   5.084
  299POPC   C3B 3900   1.248   9.796   5.485
  299POPC   C4B 3901   1.282   9.527   5.833
  300POPC   NC3 3902   7.990   0.437   3.898
  300POPC   PO4 3903   8.492  10.459   3.950
  300POPC   GL1 3904   8.405   0.300   4.269
  300POPC   GL2 3905   8.177   0.586   4.349
  300POPC   C1A 3906   8.243   0.197   4.685
  300POPC   D2A 3907   8.171   0.429   5.054
  300POPC   C3A 3908   8.293   0.229   5.434
  300POPC   C4A 3909   8.095   0.084   5.778
  300POPC   C1B 3910   7.840   0.588   4.652
  300POPC   C2B 3911   7.669   0.474   5.074
  300POPC   C3B 3912   7.819   0.403   5.462
  300POPC   C4B 3913   7.911   0.738   5.742
  301POPC   NC3 3914   4.081   8.774   3.833
  301POPC   PO4 3915   4.420   8.251   3.753
  301POPC   GL1 3916   4.360   8.468   4.180
  301POPC   GL2 3917   4.061   8.627   4.304
  301POPC   C1A 3918   4.474   8.556   4.622
  301POPC   D2A 3919   4.395   8.709   5.040
  301POPC   C3A 3920   4.422   8.511   5.445
  301POPC   C4A 3921   4.329   8.791   5.752
  301POPC   C1B 3922   3.994   8.811   4.684
  301POPC   C2B 3923   3.806   8.606   5.021
  301POPC   C3B 3924   3.950   8.684   5.422
  301POPC   C4B 3925   3.943   8.479   5.835
  302POPC   NC3 3926   9.944   3.559   3.953
  302POPC   PO4 3927   0.058   3.303   3.836
  302POPC   GL1 3928  10.408   3.538   4.223
  302POPC   GL2 3929  10.107   3.378   4.396
  302POPC   C1A 3930  10.404   3.704   4.677
  302POPC   D2A 3931  10.310   3.504   5.092
  302POPC   C3A 3932  10.321   3.668   5.534
  302POPC   C4A 3933  10.438   3.366   5.898
  302POPC   C1B 3934   9.885   3.679   4.690
  302POPC   C2B 3935   9.992   3.886   5.079
  302POPC   C3B 3936   9.812   3.734   5.472
  302POPC   C4B 3937   9.937   3.362   5.665
  303POPC   NC3 3938   0.908   6.400   3.742
  303POPC   PO4 3939   1.469   6.125   3.886
  303POPC   GL1 3940   1.446   6.216   4.293
  303POPC   GL2 3941   1.192   6.491   4.257
  303POPC   C1A 3942   1.467   6.356   4.703
  303POPC   D2A 3943   1.346   6.118   5.048
  303POPC   C3A 3944   1.404   6.304   5.419
  303POPC   C4A 3945   1.380   6.083   5.780
  303POPC   C1B 3946   0.990   6.548   4.682
  303POPC   C2B 3947   1.001   6.490   5.153
  303POPC   C3B 3948   0.970   6.493   5.642
  303POPC   C4B 3949   0.819   6.619   6.087
  304POPC   NC3 3950  10.007   5.883   4.012
  304POPC   PO4 3951   0.153   5.606   3.820
  304POPC   GL1 3952  10.390   5.534   4.285
  304POPC   GL2 3953  10.078   5.503   4.324
  304POPC   C1A 3954  10.268   5.745   4.716
  304POPC   D2A 3955   0.047   5.840   5.030
  304POPC   C3A 3956  10.363   5.647   5.358
  304POPC   C4A 3957  10.471   5.592   5.741
  304POPC   C1B 3958   9.818   5.481   4.696
  304POPC   C2B 3959   9.931   5.469   5.105
  304POPC   C3B 3960   9.815   5.529   5.505
  304POPC   C4B 3961  10.013   5.835   5.659
  305POPC   NC3 3962   8.408   4.794   3.878
  305POPC   PO4 3963   9.121   4.727   4.013
  305POPC   GL1 3964   8.856   4.652   4.358
  305POPC   GL2 3965   8.754   5.001   4.301
  305POPC   C1A 3966   8.871   4.599   4.826
  305POPC   D2A 3967   8.673   4.797   5.184
  305POPC   C3A 3968   8.746   4.761   5.613
  305POPC   C4A 3969   9.049   4.535   5.804
  305POPC   C1B 3970   8.605   5.020   4.731
  305POPC   C2B 3971   8.393   5.212   5.158
  305POPC   C3B 3972   8.329   5.037   5.600
  305POPC   C4B 3973   8.361   5.234   6.006
  306POPC   NC3 3974   1.077   2.953   3.744
  306POPC   PO4 3975   0.913   2.297   4.106
  306POPC   GL1 3976   0.965   2.417   4.448
  306POPC   GL2 3977   1.281   2.425   4.522
  306POPC   C1A 3978   0.793   2.434   4.795
  306POPC   D2A 3979   0.852   2.727   5.081
  306POPC   C3A 3980   1.068   2.628   5.448
  306POPC   C4A 3981   0.841   2.356   5.647
  306POPC   C1B 3982   1.292   2.509   4.972
  306POPC   C2B 3983   1.344   2.914   5.112
  306POPC   C3B 3984   1.384   3.035   5.500
  306POPC   C4B 3985   1.315   2.942   5.918
  307POPC   NC3 3986   8.009   8.157   3.901
  307POPC   PO4 3987   7.635   7.492   3.839
  307POPC   GL1 3988   7.847   7.692   4.242
  307POPC   GL2 3989   7.827   8.024   4.362
  307POPC   C1A 3990   8.077   7.722   4.683
  307POPC   D2A 3991   8.069   7.599   5.115
  307POPC   C3A 3992   8.107   7.811   5.512
  307POPC   C4A 3993   8.282   7.819   5.915
  307POPC   C1B 3994   7.683   8.068   4.770
  307POPC   C2B 3995   7.707   7.962   5.171
  307POPC   C3B 3996   7.607   7.832   5.547
  307POPC   C4B 3997   7.776   8.132   5.744
  308POPC   NC3 3998   4.332   7.840   3.916
  308POPC   PO4 3999   3.833   8.383   3.888
  308POPC   GL1 4000   3.949   8.130   4.252
  308POPC   GL2 4001   4.046   7.779   4.317
  308POPC   C1A 4002   4.033   8.273   4.674
  308POPC   D2A 4003   4.213   8.237   5.067
  308POPC   C3A 4004   4.071   8.144   5.478
  308POPC   C4A 4005   4.195   8.055   5.930
  308POPC   C1B 4006   4.230   7.791   4.757
  308POPC   C2B 4007   4.221   7.731   5.185
  308POPC   C3B 4008   4.291   7.678   5.598
  308POPC   C4B 4009   4.015   7.361   5.761
  309POPC   NC3 4010   0.829  10.269   3.908
  309POPC   PO4 4011   1.299   9.837   4.003
  309POPC   GL1 4012   1.040  10.000   4.304
  309POPC   GL2 4013   1.097  10.388   4.351
  309POPC   C1A 4014   0.972  10.073   4.733
  309POPC   D2A 4015   0.808  10.146   5.115
  309POPC   C3A 4016   0.747   9.842   5.419
  309POPC   C4A 4017   0.884   9.819   5.825
  309POPC   C1B 4018   0.979   0.096   4.776
  309POPC   C2B 4019   1.101   0.064   5.227
  309POPC   C3B 4020   1.039  10.262   5.580
  309POPC   C4B 4021   1.309  10.108   5.918
  310POPC   NC3 4022   3.409   8.800   3.912
  310POPC   PO4 4023   3.175   8.282   3.639
  310POPC   GL1 4024   3.416   8.387   4.187
  310POPC   GL2 4025   3.561   8.738   4.381
  310POPC   C1A 4026   3.501   8.320   4.647
  310POPC   D2A 4027   3.322   8.298   5.061
  310POPC   C3A 4028   3.533   8.405   5.425
  310POPC   C4A 4029   3.335   8.427   5.798
  310POPC   C1B 4030   3.312   8.818   4.779
  310POPC   C2B 4031   3.256   8.820   5.211
  310POPC   C3B 4032   3.348   9.035   5.559
  310POPC   C4B 4033   3.610   8.843   5.775
  311POPC   NC3 4034   8.664   2.885   3.956
  311POPC   PO4 4035   9.121   2.397   3.817
  311POPC   GL1 4036   8.899   2.418   4.233
  311POPC   GL2 4037   8.541   2.538   4.309
  311POPC   C1A 4038   8.830   2.376   4.687
  311POPC   D2A 4039   9.051   2.511   5.066
  311POPC   C3A 4040   8.924   2.488   5.489
  311POPC   C4A 4041   8.802   2.467   5.944
  311POPC   C1B 4042   8.553   2.808   4.716
  311POPC   C2B 4043   8.569   2.704   5.165
  311POPC   C3B 4044   8.594   2.852   5.599
  311POPC   C4B 4045   8.370   2.801   5.933
  312POPC   NC3 4046   8.842   1.976   3.580
  312POPC   PO4 4047   8.389   1.506   3.932
  312POPC   GL1 4048   8.355   1.780   4.298
  312POPC   GL2 4049   8.690   1.938   4.298
  312POPC   C1A 4050   8.352   2.069   4.654
  312POPC   D2A 4051   8.521   2.190   5.042
  312POPC   C3A 4052   8.425   1.975   5.407
  312POPC   C4A 4053   8.464   2.336   5.606
  312POPC   C1B 4054   8.836   1.830   4.734
  312POPC   C2B 4055   8.960   1.960   5.173
  312POPC   C3B 4056   8.884   1.978   5.618
  312POPC   C4B 4057   8.991   1.725   5.976
  313POPC   NC3 4058   7.909   4.286   4.081
  313POPC   PO4 4059   8.478   4.357   3.706
  313POPC   GL1 4060   8.427   4.389   4.169
  313POPC   GL2 4061   8.616   4.135   4.275
  313POPC   C1A 4062   8.442   4.450   4.621
  313POPC   D2A 4063   8.542   4.247   5.008
  313POPC   C3A 4064   8.414   4.406   5.395
  313POPC   C4A 4065   8.563   4.326   5.781
  313POPC   C1B 4066   8.912   4.136   4.598
  313POPC   C2B 4067   8.999   4.015   5.012
  313POPC   C3B 4068   8.900   4.193   5.421
  313POPC   C4B 4069   8.957   4.024   5.833
  314POPC   NC3 4070   3.497   8.029   3.847
  314POPC   PO4 4071   2.933   8.278   4.126
  314POPC   GL1 4072   3.151   7.922   4.301
  314POPC   GL2 4073   3.501   7.876   4.318
  314POPC   C1A 4074   3.255   7.871   4.764
  314POPC   D2A 4075   3.307   7.747   5.183
  314POPC   C3A 4076   3.280   7.979   5.537
  314POPC   C4A 4077   2.965   8.082   5.816
  314POPC   C1B 4078   3.738   7.864   4.687
  314POPC   C2B 4079   3.756   7.978   5.095
  314POPC   C3B 4080   3.748   7.748   5.492
  314POPC   C4B 4081   3.693   8.054   5.815
  315POPC   NC3 4082   2.799   8.020   3.773
  315POPC   PO4 4083   2.285   8.455   3.940
  315POPC   GL1 4084   2.459   8.292   4.307
  315POPC   GL2 4085   2.557   7.926   4.236
  315POPC   C1A 4086   2.407   8.161   4.722
  315POPC   D2A 4087   2.433   8.299   5.125
  315POPC   C3A 4088   2.428   8.113   5.456
  315POPC   C4A 4089   2.196   8.032   5.782
  315POPC   C1B 4090   2.777   7.841   4.626
  315POPC   C2B 4091   2.866   8.043   5.026
  315POPC   C3B 4092   2.829   7.835   5.389
  315POPC   C4B 4093   2.607   7.732   5.755
  316POPC   NC3 4094   0.352   2.916   3.829
  316POPC   PO4 4095   0.803   2.545   3.677
  316POPC   GL1 4096   0.750   2.766   4.114
  316POPC   GL2 4097   0.451   2.605   4.263
  316POPC   C1A 4098   0.730   2.883   4.565
  316POPC   D2A 4099   0.435   2.980   4.916
  316POPC   C3A 4100   0.464   2.903   5.361
  316POPC   C4A 4101   0.669   2.818   5.758
  316POPC   C1B 4102   0.293   2.516   4.703
  316POPC   C2B 4103   0.420   2.418   5.160
  316POPC   C3B 4104   0.329   2.479   5.613
  316POPC   C4B 4105   0.151   2.529   6.029
  317POPC   NC3 4106   2.056   2.630   3.900
  317POPC   PO4 4107   1.540   2.186   4.063
  317POPC   GL1 4108   1.726   2.538   4.305
  317POPC   GL2 4109   2.036   2.680   4.395
  317POPC   C1A 4110   1.666   2.720   4.727
  317POPC   D2A 4111   1.786   2.558   5.155
  317POPC   C3A 4112   1.599   2.553   5.558
  317POPC   C4A 4113   1.786   2.885   5.773
  317POPC   C1B 4114   2.115   2.462   4.771
  317POPC   C2B 4115   2.302   2.622   5.138
  317POPC   C3B 4116   2.172   2.614   5.555
  317POPC   C4B 4117   2.062   2.482   5.943
  318POPC   NC3 4118  10.209   1.920   3.872
  318POPC   PO4 4119   0.095   2.518   3.895
  318POPC   GL1 4120   0.061   2.109   4.244
  318POPC   GL2 4121  10.198   1.955   4.392
  318POPC   C1A 4122   0.108   2.018   4.736
  318POPC   D2A 4123  10.449   1.776   5.115
  318POPC   C3A 4124  10.261   1.958   5.493
  318POPC   C4A 4125  10.317   2.383   5.644
  318POPC   C1B 4126   9.999   1.895   4.821
  318POPC   C2B 4127   9.947   2.191   5.166
  318POPC   C3B 4128   9.811   2.177   5.609
  318POPC   C4B 4129   9.949   1.923   5.929
  319POPC   NC3 4130   7.760   6.280   3.894
  319POPC   PO4 4131   8.145   6.751   3.610
  319POPC   GL1 4132   8.153   6.778   4.148
  319POPC   GL2 4133   8.168   6.437   4.223
  319POPC   C1A 4134   7.996   6.772   4.593
  319POPC   D2A 4135   7.865   6.596   4.981
  319POPC   C3A 4136   8.103   6.588   5.365
  319POPC   C4A 4137   7.967   6.797   5.748
  319POPC   C1B 4138   8.023   6.203   4.599
  319POPC   C2B 4139   7.921   6.098   5.034
  319POPC   C3B 4140   8.151   6.050   5.428
  319POPC   C4B 4141   7.953   6.253   5.737
  320POPC   NC3 4142   5.049  10.248   3.835
  320POPC   PO4 4143   4.477   0.089   3.927
  320POPC   GL1 4144   4.606  10.399   4.331
  320POPC   GL2 4145   4.921  10.208   4.344
  320POPC   C1A 4146   4.737  10.379   4.772
  320POPC   D2A 4147   4.973  10.426   5.123
  320POPC   C3A 4148   4.825  10.145   5.432
  320POPC   C4A 4149   4.623  10.179   5.828
  320POPC   C1B 4150   4.969   9.910   4.734
  320POPC   C2B 4151   5.016   9.734   5.127
  320POPC   C3B 4152   5.228   9.777   5.491
  320POPC   C4B 4153   5.063   9.916   5.874
  321POPC   NC3 4154   7.701   2.755   3.722
  321POPC   PO4 4155   8.233   3.070   3.908
  321POPC   GL1 4156   8.130   2.890   4.298
  321POPC   GL2 4157   7.837   2.689   4.235
  321POPC   C1A 4158   8.136   2.568   4.637
  321POPC   D2A 4159   8.049   2.517   5.059
  321POPC   C3A 4160   8.121   2.730   5.463
  321POPC   C4A 4161   7.837   2.821   5.833
  321POPC   C1B 4162   7.639   2.622   4.655
  321POPC   C2B 4163   7.530   2.422   5.038
  321POPC   C3B 4164   7.631   2.595   5.420
  321POPC   C4B 4165   7.538   2.388   5.793
  322POPC   NC3 4166   3.759   2.851   3.968
  322POPC   PO4 4167   3.235   2.601   4.037
  322POPC   GL1 4168   3.387   2.450   4.439
  322POPC   GL2 4169   3.677   2.684   4.439
  322POPC   C1A 4170   3.678   2.305   4.761
  322POPC   D2A 4171   3.904   2.638   4.963
  322POPC   C3A 4172   3.644   2.726   5.344
  322POPC   C4A 4173   3.465   2.395   5.634
  322POPC   C1B 4174   3.336   2.941   4.613
  322POPC   C2B 4175   3.259   3.073   5.033
  322POPC   C3B 4176   3.075   3.076   5.437
  322POPC   C4B 4177   3.315   2.893   5.750
  323POPC   NC3 4178   1.157   3.789   3.888
  323POPC   PO4 4179   1.424   4.425   3.895
  323POPC   GL1 4180   1.149   4.256   4.191
  323POPC   GL2 4181   0.985   3.972   4.353
  323POPC   C1A 4182   1.317   4.323   4.597
  323POPC   D2A 4183   1.220   4.506   4.985
  323POPC   C3A 4184   1.194   4.302   5.382
  323POPC   C4A 4185   1.119   4.412   5.809
  323POPC   C1B 4186   0.881   4.159   4.761
  323POPC   C2B 4187   1.241   3.987   4.984
  323POPC   C3B 4188   1.502   3.892   5.334
  323POPC   C4B 4189   1.286   3.927   5.745
  324POPC   NC3 4190   9.490   8.358   4.029
  324POPC   PO4 4191   9.803   9.050   4.102
  324POPC   GL1 4192   9.558   8.846   4.419
  324POPC   GL2 4193   9.499   8.488   4.503
  324POPC   C1A 4194   9.424   8.912   4.778
  324POPC   D2A 4195   9.656   9.001   5.088
  324POPC   C3A 4196   9.379   8.878   5.378
  324POPC   C4A 4197   9.302   8.967   5.766
  324POPC   C1B 4198   9.356   8.390   4.797
  324POPC   C2B 4199   9.529   8.489   5.095
  324POPC   C3B 4200   9.438   8.364   5.489
  324POPC   C4B 4201   9.333   8.440   5.871
  325POPC   NC3 4202   5.716   1.294   3.874
  325POPC   PO4 4203   5.215   1.075   4.179
  325POPC   GL1 4204   5.639   0.996   4.316
  325POPC   GL2 4205   5.937   1.237   4.330
  325POPC   C1A 4206   5.829   0.942   4.726
  325POPC   D2A 4207   5.991   1.254   5.030
  325POPC   C3A 4208   5.835   1.230   5.465
  325POPC   C4A 4209   5.916   0.998   5.896
  325POPC   C1B 4210   5.597   1.397   4.630
  325POPC   C2B 4211   5.448   1.277   5.050
  325POPC   C3B 4212   5.307   1.145   5.474
  325POPC   C4B 4213   5.507   1.304   5.843
  326POPC   NC3 4214  10.358   1.120   3.879
  326POPC   PO4 4215   0.179   1.773   3.815
  326POPC   GL1 4216  10.444   1.557   4.197
  326POPC   GL2 4217  10.250   1.224   4.339
  326POPC   C1A 4218  10.367   1.568   4.653
  326POPC   D2A 4219  10.278   1.299   4.975
  326POPC   C3A 4220  10.087   1.472   5.325
  326POPC   C4A 4221  10.277   1.505   5.722
  326POPC   C1B 4222  10.122   0.913   4.656
  326POPC   C2B 4223  10.108   0.667   5.038
  326POPC   C3B 4224  10.000   0.737   5.434
  326POPC   C4B 4225  10.137   1.020   5.758
  327POPC   NC3 4226   1.082   1.867   4.026
  327POPC   PO4 4227   1.576   1.380   4.102
  327POPC   GL1 4228   1.462   1.728   4.388
  327POPC   GL2 4229   1.156   1.918   4.492
  327POPC   C1A 4230   1.517   1.664   4.834
  327POPC   D2A 4231   1.251   1.742   5.209
  327POPC   C3A 4232   1.325   2.091   5.512
  327POPC   C4A 4233   1.399   1.749   5.755
  327POPC   C1B 4234   1.161   2.056   4.837
  327POPC   C2B 4235   0.926   2.155   5.188
  327POPC   C3B 4236   0.852   1.879   5.515
  327POPC   C4B 4237   0.984   1.964   5.956
  328POPC   NC3 4238   9.293   3.530   3.913
  328POPC   PO4 4239   9.804   3.118   3.937
  328POPC   GL1 4240   9.537   3.219   4.297
  328POPC   GL2 4241   9.178   3.308   4.347
  328POPC   C1A 4242   9.517   3.300   4.746
  328POPC   D2A 4243   9.768   3.341   5.125
  328POPC   C3A 4244   9.475   3.259   5.468
  328POPC   C4A 4245   9.575   3.083   5.882
  328POPC   C1B 4246   9.094   3.609   4.659
  328POPC   C2B 4247   9.001   3.499   5.080
  328POPC   C3B 4248   8.966   3.669   5.457
  328POPC   C4B 4249   9.234   3.588   5.779
  329POPC   NC3 4250   9.467   2.147   4.026
  329POPC   PO4 4251   9.110   1.566   4.052
  329POPC   GL1 4252   9.197   1.891   4.369
  329POPC   GL2 4253   9.538   1.830   4.447
  329POPC   C1A 4254   9.263   2.139   4.760
  329POPC   D2A 4255   9.469   2.036   5.123
  329POPC   C3A 4256   9.341   2.236   5.442
  329POPC   C4A 4257   9.257   2.212   5.857
  329POPC   C1B 4258   9.369   1.642   4.813
  329POPC   C2B 4259   9.538   1.553   5.235
  329POPC   C3B 4260   9.365   1.758   5.607
  329POPC   C4B 4261   9.476   1.785   6.077
  330POPC   NC3 4262   0.250   7.142   3.864
  330POPC   PO4 4263   0.062   6.562   3.926
  330POPC   GL1 4264   0.260   6.831   4.264
  330POPC   GL2 4265   0.372   7.172   4.378
  330POPC   C1A 4266   0.216   6.801   4.707
  330POPC   D2A 4267   0.449   6.986   5.060
  330POPC   C3A 4268   0.209   7.147   5.405
  330POPC   C4A 4269   0.369   7.071   5.810
  330POPC   C1B 4270   0.710   7.263   4.701
  330POPC   C2B 4271   0.893   7.359   5.094
  330POPC   C3B 4272   0.682   7.363   5.475
  330POPC   C4B 4273   0.654   7.498   5.875
  331POPC   NC3 4274   1.509   5.017   3.931
  331POPC   PO4 4275   2.121   4.781   4.118
  331POPC   GL1 4276   2.027   5.024   4.430
  331POPC   GL2 4277   1.706   5.029   4.401
  331POPC   C1A 4278   1.965   5.051   4.868
  331POPC   D2A 4279   2.064   5.359   5.136
  331POPC   C3A 4280   2.261   5.252   5.522
  331POPC   C4A 4281   2.116   5.122   5.916
  331POPC   C1B 4282   1.667   4.679   4.690
  331POPC   C2B 4283   1.610   4.786   5.130
  331POPC   C3B 4284   1.913   4.907   5.397
  331POPC   C4B 4285   2.206   4.666   5.624
  332POPC   NC3 4286   1.086   7.946   3.951
  332POPC   PO4 4287   0.603   7.443   4.005
  332POPC   GL1 4288   0.753   7.785   4.313
  332POPC   GL2 4289   1.094   7.940   4.432
  332POPC   C1A 4290   0.792   7.770   4.766
  332POPC   D2A 4291   1.020   7.991   5.027
  332POPC   C3A 4292   0.897   7.810   5.376
  332POPC   C4A 4293   1.063   7.808   5.754
  332POPC   C1B 4294   1.459   7.974   4.652
  332POPC   C2B 4295   1.536   8.124   5.054
  332POPC   C3B 4296   1.330   8.095   5.432
  332POPC   C4B 4297   1.360   8.228   5.846
  333POPC   NC3 4298  10.084   6.532   4.004
  333POPC   PO4 4299  10.434   5.995   4.144
  333POPC   GL1 4300  10.163   6.227   4.395
  333POPC   GL2 4301  10.314   6.569   4.434
  333POPC   C1A 4302  10.074   6.276   4.808
  333POPC   D2A 4303  10.071   6.015   5.158
  333POPC   C3A 4304  10.392   6.149   5.440
  333POPC   C4A 4305  10.213   6.250   5.812
  333POPC   C1B 4306  10.171   6.805   4.735
  333POPC   C2B 4307  10.034   6.706   5.133
  333POPC   C3B 4308  10.193   6.635   5.486
  333POPC   C4B 4309  10.471   6.695   5.809
  334POPC   NC3 4310   3.481   3.719   3.860
  334POPC   PO4 4311   3.940   3.304   3.941
  334POPC   GL1 4312   3.656   3.238   4.297
  334POPC   GL2 4313   3.323   3.427   4.297
  334POPC   C1A 4314   3.638   3.335   4.745
  334POPC   D2A 4315   3.487   3.525   5.128
  334POPC   C3A 4316   3.549   3.251   5.475
  334POPC   C4A 4317   3.575   3.306   5.929
  334POPC   C1B 4318   3.113   3.489   4.718
  334POPC   C2B 4319   2.938   3.472   5.140
  334POPC   C3B 4320   3.133   3.572   5.525
  334POPC   C4B 4321   3.539   3.749   5.599
  335POPC   NC3 4322  10.382   5.230   3.888
  335POPC   PO4 4323  10.296   4.544   3.834
  335POPC   GL1 4324  10.318   4.679   4.256
  335POPC   GL2 4325  10.303   5.017   4.331
  335POPC   C1A 4326  10.100   4.666   4.652
  335POPC   D2A 4327  10.120   4.472   5.049
  335POPC   C3A 4328  10.120   4.663   5.417
  335POPC   C4A 4329   9.949   4.792   5.758
  335POPC   C1B 4330  10.207   5.173   4.683
  335POPC   C2B 4331  10.120   5.007   5.057
  335POPC   C3B 4332  10.245   5.152   5.461
  335POPC   C4B 4333  10.108   5.272   5.842
  336POPC   NC3 4334   6.386   1.188   3.802
  336POPC   PO4 4335   6.740   1.764   3.631
  336POPC   GL1 4336   6.641   1.532   4.126
  336POPC   GL2 4337   6.556   1.159   4.268
  336POPC   C1A 4338   6.736   1.449   4.628
  336POPC   D2A 4339   6.565   1.236   4.997
  336POPC   C3A 4340   6.653   1.335   5.414
  336POPC   C4A 4341   6.669   1.114   5.834
  336POPC   C1B 4342   6.331   0.966   4.634
  336POPC   C2B 4343   6.256   0.798   5.064
  336POPC   C3B 4344   6.293   0.983   5.472
  336POPC   C4B 4345   6.248   1.362   5.750
  337POPC   NC3 4346   2.360   9.656   3.753
  337POPC   PO4 4347   2.759   9.158   3.885
  337POPC   GL1 4348   2.888   9.455   4.356
  337POPC   GL2 4349   2.974   9.202   4.571
  337POPC   C1A 4350   2.787   9.607   4.784
  337POPC   D2A 4351   2.898   9.819   5.153
  337POPC   C3A 4352   2.645   9.584   5.457
  337POPC   C4A 4353   2.482   9.692   5.850
  337POPC   C1B 4354   2.774   9.047   4.880
  337POPC   C2B 4355   2.794   9.057   5.281
  337POPC   C3B 4356   2.607   9.111   5.618
  337POPC   C4B 4357   2.936   9.226   5.834
  338POPC   NC3 4358   6.462   2.571   3.663
  338POPC   PO4 4359   6.427   3.132   4.027
  338POPC   GL1 4360   6.462   2.965   4.437
  338POPC   GL2 4361   6.403   2.619   4.362
  338POPC   C1A 4362   6.516   2.928   4.888
  338POPC   D2A 4363   6.217   2.646   5.118
  338POPC   C3A 4364   6.205   2.778   5.560
  338POPC   C4A 4365   6.483   2.891   5.976
  338POPC   C1B 4366   6.611   2.469   4.706
  338POPC   C2B 4367   6.615   2.331   5.105
  338POPC   C3B 4368   6.652   2.582   5.440
  338POPC   C4B 4369   6.557   2.429   5.830
  339POPC   NC3 4370   1.251   1.021   3.624
  339POPC   PO4 4371   1.250   0.497   4.085
  339POPC   GL1 4372   1.188   0.556   4.467
  339POPC   GL2 4373   1.409   0.275   4.561
  339POPC   C1A 4374   0.940   0.763   4.760
  339POPC   D2A 4375   1.036   0.899   5.197
  339POPC   C3A 4376   1.029   0.566   5.529
  339POPC   C4A 4377   0.757   0.194   5.619
  339POPC   C1B 4378   1.313   0.493   4.955
  339POPC   C2B 4379   1.532   0.743   5.219
  339POPC   C3B 4380   1.533   0.561   5.586
  339POPC   C4B 4381   1.390   0.129   5.663
  340POPC   NC3 4382   1.828   1.753   3.985
  340POPC   PO4 4383   2.331   2.237   3.905
  340POPC   GL1 4384   2.143   2.154   4.363
  340POPC   GL2 4385   1.946   1.885   4.432
  340POPC   C1A 4386   2.154   1.953   4.858
  340POPC   D2A 4387   2.125   2.155   5.247
  340POPC   C3A 4388   2.279   1.909   5.567
  340POPC   C4A 4389   2.274   1.912   6.012
  340POPC   C1B 4390   1.691   2.162   4.689
  340POPC   C2B 4391   1.615   2.093   5.089
  340POPC   C3B 4392   1.762   1.808   5.383
  340POPC   C4B 4393   1.836   2.063   5.735
  341POPC   NC3 4394   8.530   6.698   3.864
  341POPC   PO4 4395   9.135   6.872   3.846
  341POPC   GL1 4396   8.888   6.977   4.251
  341POPC   GL2 4397   8.740   7.275   4.398
  341POPC   C1A 4398   8.496   6.842   4.502
  341POPC   D2A 4399   8.369   6.770   4.942
  341POPC   C3A 4400   8.441   6.970   5.342
  341POPC   C4A 4401   8.446   6.972   5.785
  341POPC   C1B 4402   8.799   7.092   4.795
  341POPC   C2B 4403   8.974   7.086   5.135
  341POPC   C3B 4404   8.930   7.307   5.426
  341POPC   C4B 4405   8.881   7.200   5.795
  342W        W 4406   1.289   4.687  10.456
  343W        W 4407   6.561   2.886   1.427
  344W        W 4408   6.513   8.535   9.176
  345W        W 4409   2.637   8.748  11.373
  346W        W 4410   6.218   6.127   1.307
  347W        W 4411   8.628   1.954   1.215
  348W        W 4412   3.755   7.514  11.552
  349W        W 4413   3.847   1.825   1.718
  350W        W 4414   6.946   3.254   0.073
  351W        W 4415   3.767   7.473   2.334
  352W        W 4416   7.644   7.484   3.074
  353W        W 4417   7.255   2.914  10.936
  354W        W 4418   6.634   6.051   2.553
  355W        W 4419  10.423   4.074   2.350
  356W        W 4420   0.729   2.877  11.587
  357W        W 4421   2.109   0.942  11.409
  358W        W 4422   0.743   2.513   8.753
  359W        W 4423   3.844   2.359  10.514
  360W        W 4424   7.601   0.735  11.920
  361W        W 4425   7.977   6.277  10.364
  362W        W 4426   9.611   5.038   1.972
  363W        W 4427   2.667   7.891   2.251
  364W        W 4428   3.758   6.448  10.490
  365W        W 4429   3.655   8.966   2.268
  366W        W 4430   5.594   9.693   1.305
  367W        W 4431   2.558   8.892   9.199
  368W        W 4432   4.954   4.818   1.664
  369W        W 4433   6.093   7.998   0.893
  370W        W 4434   9.192   3.289   9.338
  371W        W 4435  10.267   4.674   1.626
  372W        W 4436   8.586   9.395   3.180
  373W        W 4437   9.812   1.691  10.523
  374W        W 4438   4.623   4.389  10.878
  375W        W 4439   2.840   9.545   0.911
  376W        W 4440   3.924   8.609  11.470
  377W        W 4441  10.438   0.169   9.899
  378W        W 4442   8.543   8.313  10.369
  379W        W 4443   2.224   4.343   3.289
  380W        W 4444   3.345   9.670   0.982
  381W        W 4445   1.136   4.467   1.803
  382W        W 4446   6.147   8.560  10.898
  383W        W 4447   1.664   6.046   3.401
  384W        W 4448   1.545   9.243   0.405
  385W        W 4449   0.406   1.159   3.093
  386W        W 4450   2.187   7.817  10.970
  387W        W 4451   6.791   9.039  10.345
  388W        W 4452   3.060   7.690  11.925
  389W        W 4453   6.086   7.786  10.626
  390W        W 4454   2.588   5.242   2.843
  391W        W 4455   6.627   8.443  11.108
  392W        W 4456   9.069   9.510   3.038
  393W        W 4457   4.643  10.255   0.036
  394W        W 4458   7.264   6.247   3.861
  395W        W 4459   3.542   4.120   2.684
  396W        W 4460   1.512   9.643   3.570
  397W        W 4461  10.207   9.588   0.146
  398W        W 4462   3.745   7.710   9.956
  399W        W 4463   7.509  10.488   1.382
  400W        W 4464   5.166   4.588   8.231
  401W        W 4465   0.316   9.553  10.111
  402W        W 4466   9.679   9.409   2.386
  403W        W 4467   6.035   3.968   1.264
  404W        W 4468   7.200   1.309  10.339
  405W        W 4469   8.391   7.646   0.765
  406W        W 4470   3.784   0.260  10.072
  407W        W 4471   9.315   4.423   3.084
  408W        W 4472   2.355   3.245   9.337
  409W        W 4473   7.898   4.490  10.887
  410W        W 4474   7.974   7.619   3.451
  411W        W 4475   5.620   6.977   0.436
  412W        W 4476   9.086   9.157   2.157
  413W        W 4477   5.609   7.326   1.863
  414W        W 4478   8.428   6.285   8.649
  415W        W 4479   1.096   9.222   9.646
  416W        W 4480   8.060  10.177  10.195
  417W        W 4481   1.903  10.431   3.307
  418W        W 4482   7.886   0.961   2.275
  419W        W 4483   6.866   4.665   0.044
  420W        W 4484   8.878   3.480   2.370
  421W        W 4485   1.696   2.015   2.296
  422W        W 4486   9.681   8.349   0.798
  423W        W 4487   5.457   7.459  10.011
  424W        W 4488   1.330   7.445  10.920
  425W        W 4489   6.057   4.760  11.449
  426W        W 4490   0.926   9.549   0.422
  427W        W 4491   1.364   9.896   2.406
  428W        W 4492   4.129   4.502   0.206
  429W        W 4493   4.078   9.466   9.881
  430W        W 4494   4.816   3.210  10.299
  431W        W 4495   5.187   7.948   8.956
  432W        W 4496   6.059   9.992   2.740
  433W        W 4497   8.871   4.813  11.828
  434W        W 4498   0.813   7.512   3.109
  435W        W 4499   0.847   4.944   2.658
  436W        W 4500   4.380  10.400  10.010
  437W        W 4501   3.846   0.442  11.453
  438W        W 4502   0.021   6.998  11.328
  439W        W 4503   8.436   3.126   8.854
  440W        W 4504   3.604   6.415   3.657
  441W        W 4505   4.261   8.474   0.750
  442W        W 4506   4.267   8.838  11.108
  443W        W 4507   1.933   5.618   3.331
  444W        W 4508   7.597   8.582   1.276
  445W        W 4509   5.169   7.220   3.916
  446W        W 4510   6.452   9.796  11.491
  447W        W 4511   7.166   0.887   9.180
  448W        W 4512   4.783  10.454  10.589
  449W        W 4513   9.028   5.620   3.486
  450W        W 4514   1.674   6.644   9.339
  451W        W 4515   8.430   4.025   2.201
  452W        W 4516   8.985   6.582   1.456
  453W        W 4517   7.457   7.710   2.662
  454W        W 4518   6.998   5.994   3.096
  455W        W 4519   1.836   6.599  10.878
  456W        W 4520   8.713   3.407   0.062
  457W        W 4521   7.172   0.799   1.001
  458W        W 4522   1.900   5.271   9.098
  459W        W 4523   9.044   5.473  10.122
  460W        W 4524  10.248   5.009   0.726
  461W        W 4525   2.846   4.693   3.584
  462W        W 4526   0.960   7.011   1.333
  463W        W 4527   0.882   4.435  10.284
  464W        W 4528   6.990   4.898   0.998
  465W        W 4529   6.411   2.047   9.527
  466W        W 4530   7.507   0.506  11.289
  467W        W 4531   5.634   8.501  10.843
  468W        W 4532   3.756   7.079   9.139
  469W        W 4533  10.131   7.583  10.404
  470W        W 4534   9.347   1.838  10.362
  471W        W 4535   1.603   1.938   1.770
  472W        W 4536   7.058   3.136   3.075
  473W        W 4537   4.014   0.358   8.711
  474W        W 4538   4.781   4.889   8.438
  475W        W 4539   5.039   2.587   0.352
  476W        W 4540   6.691   6.680  11.920
  477W        W 4541   7.738   0.482   2.305
  478W        W 4542   4.543   9.671   8.522
  479W        W 4543   8.400   0.836   2.303
  480W        W 4544   5.268   9.146  11.974
  481W        W 4545   4.704   6.589  10.717
  482W        W 4546   6.721   3.098   0.981
  483W        W 4547   0.850   2.122   0.696
  484W        W 4548   8.423   7.364   3.353
  485W        W 4549   1.309  10.323   3.280
  486W        W 4550   6.439   6.953   3.317
  487W        W 4551   3.764   8.494   0.889
  488W        W 4552   5.684   8.433   2.688
  489W        W 4553   2.690   6.142   8.349
  490W        W 4554   3.708   8.703   3.508
  491W        W 4555   2.141   8.537   1.636
  492W        W 4556   7.264   6.492  10.712
  493W        W 4557   1.183   5.622   9.019
  494W        W 4558   7.715   6.801   9.261
  495W        W 4559   4.558   7.111  10.734
  496W        W 4560   5.478   3.726   8.177
  497W        W 4561   3.165   4.107   9.757
  498W        W 4562   8.964   1.323   9.732
  499W        W 4563   0.060   3.167   2.681
  500W        W 4564   6.013   4.759   2.482
  501W        W 4565   7.750   8.959  11.490
  502W        W 4566   4.121   2.592   9.443
  503W        W 4567  10.024   0.184  10.205
  504W        W 4568   7.567   0.123   3.364
  505W        W 4569   0.739   2.512  10.748
  506W        W 4570   3.214   6.744   2.488
  507W        W 4571   1.158   2.361   9.705
  508W        W 4572   4.100   6.244   1.971
  509W        W 4573   3.829   5.014  10.622
  510W        W 4574   9.240   2.769  11.371
  511W        W 4575   5.543   4.895   3.725
  512W        W 4576   8.563   9.872   1.660
  513W        W 4577   2.436   9.189   1.224
  514W        W 4578   4.506   4.548   9.993
  515W        W 4579   6.764   7.527   1.315
  516W        W 4580   4.657   9.299  11.558
  517W        W 4581   5.191   3.604   3.266
  518W        W 4582   8.924   6.003   0.849
  519W        W 4583   2.787   3.696   3.175
  520W        W 4584   6.992   4.399   3.908
  521W        W 4585   4.827   9.841  10.305
  522W        W 4586  10.379   6.090   8.881
  523W        W 4587   5.275   4.070   0.195
  524W        W 4588   9.477   4.250   0.734
  525W        W 4589   5.303   4.130  10.328
  526W        W 4590  10.254   4.253  10.088
  527W        W 4591   4.287  10.108   2.718
  528W        W 4592   2.648   1.337   3.113
  529W        W 4593   6.168   3.458   3.109
  530W        W 4594   6.936   0.371   2.004
  531W        W 4595   2.775   1.418   1.013
  532W        W 4596   5.967   3.136   8.845
  533W        W 4597   3.149   2.236   9.538
  534W        W 4598   9.133   4.176   9.571
  535W        W 4599   8.459   2.449   0.394
  536W        W 4600   5.694   5.462   9.470
  537W        W 4601   2.705   1.514   9.098
  538W        W 4602   8.899   4.293  10.525
  539W        W 4603   2.217   9.958   9.001
  540W        W 4604   5.757   7.172  11.881
  541W        W 4605   8.465   3.892   2.734
  542W        W 4606  10.179   9.570   2.323
  543W        W 4607   9.327   5.080  11.016
  544W        W 4608   7.941   6.439   2.270
  545W        W 4609   6.935   4.765   9.782
  546W        W 4610   1.265   5.130   2.374
  547W        W 4611   9.645   0.429  10.439
  548W        W 4612   9.801   0.377   1.238
  549W        W 4613   4.787   1.772   1.944
  550W        W 4614   5.316   7.370   0.299
  551W        W 4615   0.527   4.014  11.389
  552W        W 4616   7.970   5.647   3.458
  553W        W 4617   4.245   8.272  11.175
  554W        W 4618   4.736   9.856   2.694
  555W        W 4619   1.335   9.770   1.401
  556W        W 4620  10.345   1.180   1.356
  557W        W 4621   7.918   5.427   9.377
  558W        W 4622   3.868   0.677   9.773
  559W        W 4623   0.494   0.826   2.732
  560W        W 4624   3.757   9.521   0.649
  561W        W 4625   1.590   1.967  10.986
  562W        W 4626   5.473   2.624   9.240
  563W        W 4627   3.489   3.375   0.366
  564W        W 4628   4.068   8.243  10.293
  565W        W 4629   9.131   1.467   8.731
  566W        W 4630   8.033   6.243  11.719
  567W        W 4631   8.085   4.620  10.440
  568W        W 4632   3.262   0.896   8.717
  569W        W 4633   2.322   8.181   1.341
  570W        W 4634   0.650   6.052   3.271
  571W        W 4635   3.530   6.713   3.210
  572W        W 4636   8.244   3.409   0.258
  573W        W 4637   3.035   0.102   0.951
  574W        W 4638   2.650  10.234   8.846
  575W        W 4639   3.749   1.416   1.396
  576W        W 4640   2.076   5.089   9.736
  577W        W 4641   4.235   0.222  11.760
  578W        W 4642   9.909   4.881  10.030
  579W        W 4643   5.443   1.299  10.015
  580W        W 4644   9.978   8.542   9.485
  581W        W 4645   0.767   4.034   9.974
  582W        W 4646   9.343   0.483   9.531
  583W        W 4647   3.928   5.926   3.216
  584W        W 4648  10.268   7.429   8.488
  585W        W 4649   5.182   8.226   1.430
  586W        W 4650   7.058   1.540  10.824
  587W        W 4651  10.248   1.649   2.896
  588W        W 4652   2.278   2.691   0.660
  589W        W 4653  10.348   9.397   9.002
  590W        W 4654   1.740   3.325  11.490
  591W        W 4655   7.867   9.359   2.098
  592W        W 4656   9.947   3.761   1.147
  593W        W 4657   1.260   0.045  10.324
  594W        W 4658   1.489   8.971   9.397
  595W        W 4659   7.936   8.495  10.709
  596W        W 4660  10.098   4.319   3.362
  597W        W 4661   5.559   5.002  11.357
  598W        W 4662   1.742   2.708   2.920
  599W        W 4663   0.079   4.248   3.545
  600W        W 4664   8.371   0.484  11.255
  601W        W 4665  10.350  10.381   1.248
  602W        W 4666   1.020   4.783   3.136
  603W        W 4667   4.526   6.216   8.544
  604W        W 4668  10.169   3.404   3.483
  605W        W 4669  10.392   5.150  10.082
  606W        W 4670   8.938   5.252   2.294
  607W        W 4671   9.420   6.122   3.262
  608W        W 4672  10.288   0.625  10.088
  609W        W 4673   4.273   3.755   2.722
  610W        W 4674  10.357  10.078  10.760
  611W        W 4675   7.107   3.289  10.593
  612W        W 4676   4.957   2.138   9.693
  613W        W 4677   6.362   3.560   8.505
  614W        W 4678  10.388   3.773   1.449
  615W        W 4679   9.554   5.854   2.399
  616W        W 4680   5.078   2.609   9.565
  617W        W 4681   1.768  10.286  11.656
  618W        W 4682   3.635   1.291  10.398
  619W        W 4683   8.353  10.054  10.915
  620W        W 4684   2.894   1.269   0.233
  621W        W 4685   2.407   8.389   9.103
  622W        W 4686  10.249  10.201   1.741
  623W        W 4687   9.725   2.672   0.461
  624W        W 4688   0.380   1.171   1.742
  625W        W 4689   2.106   5.550   9.525
  626W        W 4690   8.032   6.981   1.407
  627W        W 4691   0.320   9.531   9.596
  628W        W 4692   5.325   5.033   1.391
  629W        W 4693   5.340   0.207   1.175
  630W        W 4694   9.497   7.966   9.941
  631W        W 4695   9.761   7.835  11.855
  632W        W 4696   3.746   2.283   3.578
  633W        W 4697   9.884   3.821   9.292
  634W        W 4698   6.534   7.439  10.137
  635W        W 4699   7.675   3.178   9.281
  636W        W 4700   3.206   0.603   3.565
  637W        W 4701   0.959   3.940   8.982
  638W        W 4702   8.457   0.349  11.724
  639W        W 4703   0.817   0.465   8.958
  640W        W 4704   7.080   4.087   2.581
  641W        W 4705   9.549  10.479   8.518
  642W        W 4706   5.156   7.235   1.658
  643W        W 4707   6.041   2.057   2.157
  644W        W 4708   9.571   7.045  11.519
  645W        W 4709   5.192   7.628   2.588
  646W        W 4710   7.487   7.644   8.946
  647W        W 4711   3.586   5.160   1.219
  648W        W 4712   7.874   3.982  11.005
  649W        W 4713   6.131   5.976   2.743
  650W        W 4714   6.161   1.879   9.109
  651W        W 4715   7.913   4.344   0.468
  652W        W 4716   5.803   8.381  10.011
  653W        W 4717   7.137   5.951  11.805
  654W        W 4718   0.921   1.409   9.795
  655W        W 4719   9.951   6.234   0.905
  656W        W 4720   8.159   5.640   0.584
  657W        W 4721   2.824   5.043   9.546
  658W        W 4722   0.396   1.248  11.853
  659W        W 4723   8.056   5.468   1.299
  660W        W 4724   4.547   9.858   2.205
  661W        W 4725   2.598   1.985  11.802
  662W        W 4726   1.800   4.652   8.464
  663W        W 4727   6.032   3.238   0.738
  664W        W 4728   0.122   9.308   2.493
  665W        W 4729   6.531   1.385   1.334
  666W        W 4730   7.185   0.389   9.408
  667W        W 4731   2.120   6.582   9.005
  668W        W 4732   7.006   3.190   0.568
  669W        W 4733   2.458   9.666   0.207
  670W        W 4734   4.017   3.268  10.031
  671W        W 4735   5.058   3.529   2.793
  672W        W 4736   8.806   8.408  11.864
  673W        W 4737   4.578   0.595  10.498
  674W        W 4738   4.243   0.931   9.979
  675W        W 4739   5.164   0.860   8.901
  676W        W 4740   9.969   0.309   0.220
  677W        W 4741   6.053   9.640   0.020
  678W        W 4742   6.525   4.744  11.674
  679W        W 4743   2.294   1.310   8.496
  680W        W 4744   1.761   4.674  10.609
  681W        W 4745   4.209   7.985   1.649
  682W        W 4746   4.624   0.527   1.003
  683W        W 4747   7.473   0.148  10.863
  684W        W 4748   0.104   4.944  11.280
  685W        W 4749   4.042   2.881  10.384
  686W        W 4750   7.957   6.804   0.922
  687W        W 4751   7.870   9.023   1.349
  688W        W 4752   5.671   4.515  10.301
  689W        W 4753   2.101   8.586  11.425
  690W        W 4754   5.665   7.571   2.331
  691W        W 4755   7.722   1.857  11.383
  692W        W 4756   0.517   6.968  11.134
  693W        W 4757   2.818   4.512   1.510
  694W        W 4758   9.857   1.203  10.675
  695W        W 4759   6.004   0.646   1.460
  696W        W 4760   0.714   0.673  10.346
  697W        W 4761   9.569   2.614   9.981
  698W        W 4762   3.574   9.182   1.797
  699W        W 4763   1.498   5.591   2.393
  700W        W 4764   4.978   6.592   9.013
  701W        W 4765   6.407   0.731   9.498
  702W        W 4766   2.366   3.060  10.970
  703W        W 4767   4.606   6.046   2.841
  704W        W 4768   5.194   2.229   0.021
  705W        W 4769   3.775   9.851   2.736
  706W        W 4770   3.028   7.963  10.038
  707W        W 4771   3.817   8.218   1.872
  708W        W 4772   2.477   0.953   2.191
  709W        W 4773   3.002   1.119  11.364
  710W        W 4774   0.346   2.399   9.149
  711W        W 4775   8.486   7.177   1.598
  712W        W 4776   2.286   1.220   1.721
  713W        W 4777   4.153   1.776   0.206
  714W        W 4778   5.651   7.924   2.845
  715W        W 4779   2.772   7.019  11.330
  716W        W 4780   7.169   1.714   2.331
  717W        W 4781   7.318   8.561  11.512
  718W        W 4782   1.236   3.340   8.763
  719W        W 4783   0.924   3.699  11.252
  720W        W 4784   1.875   4.147   1.266
  721W        W 4785   7.979   8.349   9.726
  722W        W 4786   2.061   7.628  10.052
  723W        W 4787   6.191   3.041   2.237
  724W        W 4788   1.197  10.003  11.687
  725W        W 4789   6.436   6.997  10.517
  726W        W 4790   5.764   6.581   8.493
  727W        W 4791   0.890   2.624   0.597
  728W        W 4792   9.961   6.119  11.971
  729W        W 4793   9.401   8.712  11.314
  730W        W 4794   9.222   5.225  10.529
  731W        W 4795   8.883   2.816   3.115
  732W        W 4796   0.501   9.548   3.386
  733W        W 4797   1.397   6.710   1.393
  734W        W 4798   6.531   8.016  11.384
  735W        W 4799   6.140   8.477   8.836
  736W        W 4800   0.998  10.184   2.236
  737W        W 4801   2.804   2.177   1.259
  738W        W 4802   5.142   3.603   0.040
  739W        W 4803   7.551   4.538   3.701
  740W        W 4804   5.996   0.567  10.628
  741W        W 4805   0.784   0.133   2.290
  742W        W 4806  10.176  10.232   9.982
  743W        W 4807   3.522   8.846  11.683
  744W        W 4808   2.792   5.073   1.852
  745W        W 4809   1.473   0.977   2.568
  746W        W 4810   6.596   6.503   2.185
  747W        W 4811   2.585   7.000   9.720
  748W        W 4812   4.755   7.530   2.305
  749W        W 4813   0.004   3.454  11.947
  750W        W 4814   3.241   8.961   1.473
  751W        W 4815   4.637  10.236   3.510
  752W        W 4816   9.113   8.793   1.813
  753W        W 4817   6.139  10.482   2.673
  754W        W 4818   6.443   3.385   2.670
  755W        W 4819   4.521   3.094   8.928
  756W        W 4820   4.658   0.785   3.350
  757W        W 4821   2.172   8.040   2.425
  758W        W 4822   8.659   1.788   1.995
  759W        W 4823   9.509   6.989   8.872
  760W        W 4824   7.401   2.299   8.799
  761W        W 4825   2.753   1.658   0.558
  762W        W 4826   7.719   8.613   8.874
  763W        W 4827   3.260   4.516   1.770
  764W        W 4828   9.859   8.767   1.024
  765W        W 4829   0.237   9.860  10.536
  766W        W 4830   9.386   5.114  10.032
  767W        W 4831   7.913   4.566   1.531
  768W        W 4832   3.364   9.470   1.440
  769W        W 4833   0.689   5.628   9.584
  770W        W 4834   4.032   6.631   9.210
  771W        W 4835   5.851   1.649   1.923
  772W        W 4836   7.316  10.038   9.200
  773W        W 4837   6.737   4.684   9.072
  774W        W 4838   2.318   8.214  10.676
  775W        W 4839   4.592   8.327   8.507
  776W        W 4840   5.616   8.789   9.694
  777W        W 4841   8.333   9.463  11.787
  778W        W 4842   7.321   7.847  11.033
  779W        W 4843   6.832   9.804   1.672
  780W        W 4844   7.668   2.630  10.970
  781W        W 4845   7.079   6.895   0.848
  782W        W 4846   0.470  10.298  10.480
  783W        W 4847   1.291   7.955   9.102
  784W        W 4848   1.855   8.390   0.261
  785W        W 4849   1.697   3.827   0.420
  786W        W 4850   8.493   9.032   9.263
  787W        W 4851   2.361   5.726  11.895
  788W        W 4852   6.392   4.016   9.722
  789W        W 4853   9.792   2.819   1.464
  790W        W 4854   3.184   7.485   0.392
  791W        W 4855   1.821   5.717   0.517
  792W        W 4856   6.227   5.546   3.029
  793W        W 4857   9.970   9.975   0.370
  794W        W 4858   4.568  10.406   9.168
  795W        W 4859  10.486   7.932   1.833
  796W        W 4860   3.722   7.055  11.854
  797W        W 4861   8.344   1.244   9.084
  798W        W 4862   9.138   8.041   0.617
  799W        W 4863   1.263   5.525   0.595
  800W        W 4864   2.273  10.024   2.536
  801W        W 4865   3.754   8.434  11.937
  802W        W 4866   0.791   0.179  10.472
  803W        W 4867   9.564   8.940   0.183
  804W        W 4868   4.891   1.639   3.683
  805W        W 4869   3.414  10.371  10.379
  806W        W 4870   3.099   8.527  10.353
  807W        W 4871   4.905   4.172  11.272
  808W        W 4872   6.204   1.408   0.244
  809W        W 4873   9.090   5.522  10.940
  810W        W 4874   0.390   6.042   8.877
  811W        W 4875   7.018   2.724   1.718
  812W        W 4876   2.660   3.212   1.972
  813W        W 4877   1.872   7.947   1.449
  814W        W 4878   1.920  10.395   2.667
  815W        W 4879   8.581   4.681  10.574
  816W        W 4880   9.855   8.313   3.328
  817W        W 4881   3.896   3.405   0.695
  818W        W 4882   5.092   4.642   3.673
  819W        W 4883   3.564   7.870   9.433
  820W        W 4884   5.101   8.465   8.887
  821W        W 4885   4.599   6.832   3.477
  822W        W 4886   6.933   8.044   2.538
  823W        W 4887   0.051   3.701   8.837
  824W        W 4888   8.498   9.965   2.163
  825W        W 4889   0.361   9.903   1.707
  826W        W 4890   6.921  10.500   9.687
  827W        W 4891   6.507   6.621   9.786
  828W        W 4892  10.243   6.190   3.667
  829W        W 4893   7.666   8.878   1.978
  830W        W 4894   9.117   7.562  11.961
  831W        W 4895  10.007   3.284  10.975
  832W        W 4896   6.117   0.051   0.713
  833W        W 4897   1.241   3.615  10.110
  834W        W 4898   9.850   1.972   8.587
  835W        W 4899   0.288   2.688   1.500
  836W        W 4900   9.364   8.364   1.997
  837W        W 4901   2.799   7.431   3.437
  838W        W 4902   0.096   6.582   0.709
  839W        W 4903   8.127   9.336   8.628
  840W        W 4904   2.910   1.630  10.512
  841W        W 4905   2.352   7.013   8.788
  842W        W 4906   3.269   8.446  10.928
  843W        W 4907   4.011   6.178   8.346
  844W        W 4908   5.525   3.851   3.586
  845W        W 4909   1.701   8.045   9.382
  846W        W 4910   7.550   8.379   1.841
  847W        W 4911  10.434   4.205   1.176
  848W        W 4912   7.766   6.426  10.792
  849W        W 4913   7.118   7.472   3.219
  850W        W 4914   9.678   6.475  10.741
  851W        W 4915   3.159   2.650   0.988
  852W        W 4916   2.989   1.773   0.061
  853W        W 4917   3.285   4.897  11.552
  854W        W 4918   5.178   5.747  11.863
  855W        W 4919   1.339   3.314   1.192
  856W        W 4920   9.021   3.566  10.839
  857W        W 4921   8.187   8.804   0.404
  858W        W 4922   2.740   6.968   1.451
  859W        W 4923   9.823   7.340   1.782
  860W        W 4924   5.163  10.477  11.357
  861W        W 4925   5.749   8.049   3.438
  862W        W 4926   3.343   9.396   3.469
  863W        W 4927  10.398   0.863   1.798
  864W        W 4928   7.352   6.704   3.634
  865W        W 4929   7.496   4.901  11.799
  866W        W 4930   6.462   8.853   2.529
  867W        W 4931   6.971   7.496   1.800
  868W        W 4932   1.916   4.775   2.549
  869W        W 4933   7.613   9.129   9.981
  870W        W 4934   0.262   4.266   0.470
  871W        W 4935   7.095   2.715   8.837
  872W        W 4936   8.143   3.226   1.504
  873W        W 4937   1.289   6.224   1.515
  874W        W 4938   4.246   4.684  11.727
  875W        W 4939  10.441   7.523  10.015
  876W        W 4940   9.601   0.669   9.936
  877W        W 4941   9.931   0.713  10.784
  878W        W 4942   4.175   4.604   3.687
  879W        W 4943   3.587   9.046   9.101
  880W        W 4944   3.307   9.269   2.462
  881W        W 4945   5.004   7.671   0.047
  882W        W 4946   8.616   5.059  11.375
  883W        W 4947   0.408   0.511   9.263
  884W        W 4948   0.938   8.571  10.237
  885W        W 4949   4.218   2.334   2.972
  886W        W 4950   0.467   8.326   1.231
  887W        W 4951   1.839   8.878   1.881
  888W        W 4952   5.564   3.218   8.052
  889W        W 4953   3.813   0.382   0.446
  890W        W 4954   1.188   5.155   9.706
  891W        W 4955   8.997   9.361   3.522
  892W        W 4956   1.628   0.943   1.096
  893W        W 4957   7.617   1.051   1.140
  894W        W 4958   9.989  10.036   1.250
  895W        W 4959   1.241   5.019   0.378
  896W        W 4960   1.741   0.723   9.477
  897W        W 4961   1.817   6.684   2.269
  898W        W 4962   7.833   8.958  10.426
  899W        W 4963  10.445   3.143   8.751
  900W        W 4964  10.332   7.939   8.721
  901W        W 4965   9.135   9.592  10.948
  902W        W 4966  10.114   9.948   8.983
  903W        W 4967   2.387   7.262   0.947
  904W        W 4968  10.060   9.080   0.347
  905W        W 4969   0.286   0.691  10.675
  906W        W 4970   4.787   0.828   2.176
  907W        W 4971   4.525   8.699   3.565
  908W        W 4972  10.379   8.575   0.230
  909W        W 4973   3.271   2.095  10.809
  910W        W 4974   6.513   0.741  11.274
  911W        W 4975   0.051   3.265   2.170
  912W        W 4976   5.114   7.192   2.181
  913W        W 4977   1.134   3.791   2.396
  914W        W 4978   7.630   9.276  11.900
  915W        W 4979   9.844   1.243   0.504
  916W        W 4980   5.625   7.698  10.436
  917W        W 4981   2.810   7.432   0.724
  918W        W 4982   8.458   3.595   3.291
  919W        W 4983   0.652   5.610  11.863
  920W        W 4984   2.179   9.560   1.474
  921W        W 4985   5.477   7.662   3.748
  922W        W 4986   0.474   8.470   0.390
  923W        W 4987   5.944   7.558  11.576
  924W        W 4988   6.627   7.190   0.828
  925W        W 4989   8.764   7.323   0.904
  926W        W 4990   4.969   0.773   2.675
  927W        W 4991   4.427   6.929  11.209
  928W        W 4992   7.480   5.022   3.558
  929W        W 4993   3.072   3.010   1.749
  930W        W 4994   8.628   3.296   1.739
  931W        W 4995   1.357   2.827   3.320
  932W        W 4996   7.545   8.559  10.276
  933W        W 4997   4.848   3.104   2.245
  934W        W 4998   5.814   2.245   9.213
  935W        W 4999   6.502   9.346  10.730
  936W        W 5000   7.115   7.397   0.926
  937W        W 5001   5.000   5.500   2.130
  938W        W 5002   4.630   7.607   9.040
  939W        W 5003   0.529   9.907   0.274
  940W        W 5004   3.093   2.828  10.310
  941W        W 5005   0.290   5.548   1.872
  942W        W 5006  10.343   9.950   2.777
  943W        W 5007   9.913   9.558   9.275
  944W        W 5008   7.116   9.881   2.149
  945W        W 5009   5.635   5.970   2.927
  946W        W 5010  10.066   2.522   2.873
  947W        W 5011   8.386   2.942   0.305
  948W        W 5012   3.804   7.052  11.334
  949W        W 5013   6.100   6.546  10.102
  950W        W 5014   8.034   5.579   2.385
  951W        W 5015   5.217   7.666   2.061
  952W        W 5016   6.015   9.570   0.518
  953W        W 5017   9.957  10.374   3.886
  954W        W 5018   6.069   0.017  11.268
  955W        W 5019   6.534   4.014   0.024
  956W        W 5020   7.732   2.470   0.652
  957W        W 5021   1.911   4.826   3.640
  958W        W 5022   6.574   9.135   9.897
  959W        W 5023   1.398   0.561   2.938
  960W        W 5024   9.517   6.972  10.752
  961W        W 5025   9.122   3.042   2.345
  962W        W 5026   9.861   0.920   3.849
  963W        W 5027   0.597   4.712   8.672
  964W        W 5028   3.315   6.160  10.500
  965W        W 5029   6.065   7.077   3.676
  966W        W 5030   2.790   3.695   2.129
  967W        W 5031   3.572   6.484   2.206
  968W        W 5032   5.239   2.104   1.234
  969W        W 5033   3.390   5.001   0.788
  970W        W 5034   2.666   0.179   9.279
  971W        W 5035   4.593   4.588   1.946
  972W        W 5036  10.022   7.292   2.263
  973W        W 5037   7.073   8.340   8.569
  974W        W 5038   5.228   2.214   2.113
  975W        W 5039   1.205   5.236   2.960
  976W        W 5040   8.119   1.791   9.031
  977W        W 5041   6.674   5.413   9.488
  978W        W 5042   6.506   4.134   0.942
  979W        W 5043   4.982   1.408  10.199
  980W        W 5044   2.190   6.069   8.556
  981W        W 5045   0.946   6.834   2.818
  982W        W 5046   7.155   3.115   2.046
  983W        W 5047   7.471   6.594   1.005
  984W        W 5048   2.920   9.557  11.779
  985W        W 5049   0.723   2.343   2.158
  986W        W 5050   4.579   8.205   9.939
  987W        W 5051   2.425   9.391   3.215
  988W        W 5052   4.552   1.242   9.418
  989W        W 5053   3.902   3.650   3.559
  990W        W 5054   6.273   1.543   9.455
  991W        W 5055   4.733   6.517   4.153
  992W        W 5056   6.228   1.418   3.268
  993W        W 5057   9.508   4.135  11.347
  994W        W 5058   2.302   7.954   3.581
  995W        W 5059   1.633   5.526   1.884
  996W        W 5060   8.699   1.564   1.524
  997W        W 5061   1.290   9.482   9.247
  998W        W 5062   0.824   6.850   8.693
  999W        W 5063   2.947   1.465   2.743
 1000W        W 5064   5.624   9.521   9.931
 1001W        W 5065   0.549   1.798   1.367
 1002W        W 5066   5.538   6.964   0.953
 1003W        W 5067   5.507   4.864  10.854
 1004W        W 5068   1.751   9.977  10.835
 1005W        W 5069   3.793   4.940  11.616
 1006W        W 5070   0.024   6.215  10.898
 1007W        W 5071   8.369   2.783  11.424
 1008W        W 5072   6.797   8.503  11.572
 1009W        W 5073   1.326   0.539   1.151
 1010W        W 5074   0.941   7.321   2.653
 1011W        W 5075   1.221   0.609   1.667
 1012W        W 5076   5.204   5.613   9.424
 1013W        W 5077   7.675   4.728   8.718
 1014W        W 5078   3.733   4.558   2.451
 1015W        W 5079   9.555   9.749   9.612
 1016W        W 5080   5.829   3.273   3.918
 1017W        W 5081   9.081   3.108  11.026
 1018W        W 5082   8.167   1.740   1.281
 1019W        W 5083   0.703   9.910  11.785
 1020W        W 5084   8.689   8.962   0.496
 1021W        W 5085   6.954   7.948   9.344
 1022W        W 5086   9.080   2.609  10.903
 1023W        W 5087   7.558   0.988   8.860
 1024W        W 5088   4.089   4.706  10.270
 1025W        W 5089   4.507   8.946   1.655
 1026W        W 5090   3.548   0.008   0.194
 1027W        W 5091   6.746   6.125   1.281
 1028W        W 5092   7.669   1.753   2.313
 1029W        W 5093   7.946   1.939  10.020
 1030W        W 5094   5.987   4.568   3.822
 1031W        W 5095   2.819   6.032   0.558
 1032W        W 5096   4.924  10.495   0.405
 1033W        W 5097   1.891   6.117   8.974
 1034W        W 5098   8.940   9.395   0.787
 1035W        W 5099   6.496   8.899  11.533
 1036W        W 5100   8.660   0.214  10.388
 1037W        W 5101  10.040   2.634  10.128
 1038W        W 5102   1.312   2.421   2.983
 1039W        W 5103   1.995   7.600   2.653
 1040W        W 5104   4.233   9.953   0.163
 1041W        W 5105   0.255   8.610   9.940
 1042W        W 5106   9.433   6.570  11.677
 1043W        W 5107   2.082   7.600   8.694
 1044W        W 5108   7.495   3.146  11.820
 1045W        W 5109   4.074   6.617   0.440
 1046W        W 5110   4.101   6.620   0.952
 1047W        W 5111   8.436  10.035   0.738
 1048W        W 5112   5.063   6.715   3.830
 1049W        W 5113   6.506   3.506   0.062
 1050W        W 5114   0.268   3.723   2.224
 1051W        W 5115   0.696   6.444   9.015
 1052W        W 5116   9.070   5.016   0.367
 1053W        W 5117   9.610   3.137   2.263
 1054W        W 5118   3.448   4.659   9.116
 1055W        W 5119   9.726   7.278  10.386
 1056W        W 5120   6.705   3.967   8.473
 1057W        W 5121   1.297   4.165  10.022
 1058W        W 5122   4.239   4.689  10.760
 1059W        W 5123   8.154   9.561  10.934
 1060W        W 5124   4.472   6.901   9.344
 1061W        W 5125   9.771   9.860   2.157
 1062W        W 5126   7.411   4.676   0.279
 1063W        W 5127   8.562   3.775   0.919
 1064W        W 5128   0.078   1.948  10.703
 1065W        W 5129   4.375   5.244   1.010
 1066W        W 5130   9.288   8.842   9.888
 1067W        W 5131   5.869   0.450   9.106
 1068W        W 5132   9.943   2.213   9.305
 1069W        W 5133   4.075   7.869   9.336
 1070W        W 5134   6.563   2.808   1.939
 1071W        W 5135   3.571   1.424   3.495
 1072W        W 5136   1.772   1.682   9.084
 1073W        W 5137   5.993  10.411   1.171
 1074W        W 5138   9.999   6.129   9.632
 1075W        W 5139   2.771   4.728   3.057
 1076W        W 5140   9.009   0.952   1.688
 1077W        W 5141   2.739   5.506   0.267
 1078W        W 5142   5.892   4.851   1.985
 1079W        W 5143   2.657  10.216   0.214
 1080W        W 5144   5.594   9.756   3.223
 1081W        W 5145   0.013   2.320   0.437
 1082W        W 5146   5.695   1.908   2.541
 1083W        W 5147   5.997  10.087   0.452
 1084W        W 5148   2.638   2.691  11.275
 1085W        W 5149   4.830   8.595   1.474
 1086W        W 5150   8.086   8.129   3.409
 1087W        W 5151   0.790  10.323   3.337
 1088W        W 5152   5.608   5.944   9.472
 1089W        W 5153   2.871   7.890   0.973
 1090W        W 5154   0.331   2.609   3.289
 1091W        W 5155   6.574   1.189  11.518
 1092W        W 5156   5.978   0.843   0.937
 1093W        W 5157   7.909   7.799   0.688
 1094W        W 5158   1.822   5.507   1.391
 1095W        W 5159   2.702   3.392  11.750
 1096W        W 5160   1.388   6.470   3.522
 1097W        W 5161   3.320   8.391   2.114
 1098W        W 5162   6.618   6.686   0.881
 1099W        W 5163   3.304   8.671   1.052
 1100W        W 5164   7.409   0.275   2.882
 1101W        W 5165   0.505   3.376  11.824
 1102W        W 5166   3.796   8.808   2.755
 1103W        W 5167   2.761   4.317   1.034
 1104W        W 5168   6.016   3.676   0.469
 1105W        W 5169   2.328   8.118   0.389
 1106W        W 5170   9.953   6.329  10.326
 1107W        W 5171   9.805   8.973   9.954
 1108W        W 5172   1.612   3.891   2.285
 1109W        W 5173   2.801   9.519   3.531
 1110W        W 5174   9.908   5.461   1.921
 1111W        W 5175   2.171   7.361   9.150
 1112W        W 5176  10.489   1.133   9.882
 1113W        W 5177   3.125  10.277   1.945
 1114W        W 5178   7.011  10.348   1.245
 1115W        W 5179   0.426   9.337   1.005
 1116W        W 5180   4.525   0.475   2.982
 1117W        W 5181   3.403   3.551   0.851
 1118W        W 5182   7.163  10.349  10.508
 1119W        W 5183   5.080  10.483  11.904
 1120W        W 5184   4.790   9.974   9.341
 1121W        W 5185   7.230   8.845   0.807
 1122W        W 5186   5.401   5.776   9.896
 1123W        W 5187   9.333   9.066   3.042
 1124W        W 5188   3.526   3.099  10.087
 1125W        W 5189   1.282   8.175  10.150
 1126W        W 5190   4.100   4.186  10.881
 1127W        W 5191   9.463   3.247   2.731
 1128W        W 5192   5.718  10.032   9.822
 1129W        W 5193   4.610   9.444   1.507
 1130W        W 5194   9.269   8.567   8.871
 1131W        W 5195   3.423   1.809  11.761
 1132W        W 5196   3.499   6.212   3.198
 1133W        W 5197   0.029   4.066  11.324
 1134W        W 5198   6.493   6.118  10.997
 1135W        W 5199   5.590   8.770   1.504
 1136W        W 5200   1.309   6.955  10.516
 1137W        W 5201   4.745   1.694   9.570
 1138W        W 5202   4.567   9.571   9.539
 1139W        W 5203   6.025   1.058   9.463
 1140W        W 5204   9.617   6.671   2.669
 1141W        W 5205   6.684   7.938  10.379
 1142W        W 5206   9.937   2.612   9.621
 1143W        W 5207  10.383   4.716   1.142
 1144W        W 5208   4.305   2.239   2.482
 1145W        W 5209   3.837   9.833  10.889
 1146W        W 5210   7.773   7.034   2.831
 1147W        W 5211   9.022   7.969  10.126
 1148W        W 5212   3.245   7.269  11.684
 1149W        W 5213   7.527   7.388  10.951
 1150W        W 5214  10.445   3.284   9.238
 1151W        W 5215   4.030   6.535   2.441
 1152W        W 5216   3.277   6.227   1.377
 1153W        W 5217   5.544   5.339  11.753
 1154W        W 5218   3.704   4.589   9.894
 1155W        W 5219  10.275   9.370   1.572
 1156W        W 5220   1.263   7.601   1.187
 1157W        W 5221   0.675   1.963  10.873
 1158W        W 5222   9.112   0.377   3.528
 1159W        W 5223  10.356   6.159   9.974
 1160W        W 5224   0.808  10.271   9.577
 1161W        W 5225   9.877   8.590   0.407
 1162W        W 5226   6.070   9.447   1.453
 1163W        W 5227   0.860   1.647   0.991
 1164W        W 5228   0.358   3.682  11.029
 1165W        W 5229   8.132   8.691  11.210
 1166W        W 5230   0.366   7.858   1.441
 1167W        W 5231   4.743   8.607   0.970
 1168W        W 5232   4.696   5.149   0.272
 1169W        W 5233   5.651   2.128   1.847
 1170W        W 5234   5.439   6.482   0.389
 1171W        W 5235   9.296   9.628   0.527
 1172W        W 5236   2.795   8.097   8.993
 1173W        W 5237   3.560   9.392  10.815
 1174W        W 5238   7.621   2.708   9.044
 1175W        W 5239   0.393   6.673  10.407
 1176W        W 5240   9.394   3.920  10.884
 1177W        W 5241   9.747   0.893   2.234
 1178W        W 5242   9.085   4.465   1.270
 1179W        W 5243   8.445  10.012   9.917
 1180W        W 5244   3.749   4.570  10.874
 1181W        W 5245   7.234   0.313   2.406
 1182W        W 5246   2.108   0.282   0.133
 1183W        W 5247   7.592   5.177   0.239
 1184W        W 5248   8.076   0.844   0.937
 1185W        W 5249   6.404  10.289  11.579
 1186W        W 5250   5.001   5.708   8.947
 1187W        W 5251   8.164   0.732  10.864
 1188W        W 5252   0.677   2.390   1.647
 1189W        W 5253   6.514   5.084   9.948
 1190W        W 5254   5.630   3.130  11.413
 1191W        W 5255   9.779   2.580  10.563
 1192W        W 5256   8.376   2.645   3.039
 1193W        W 5257   3.145   8.830  11.264
 1194W        W 5258   4.136   7.986   9.826
 1195W        W 5259   6.029   2.788  11.460
 1196W        W 5260   9.838   5.292   2.391
 1197W        W 5261   2.625   2.386   9.749
 1198W        W 5262   3.640   0.359   2.494
 1199W        W 5263   4.611   3.277   3.141
 1200W        W 5264   0.236   7.910   2.340
 1201W        W 5265   4.240   5.466   3.231
 1202W        W 5266   3.370   5.473   2.722
 1203W        W 5267   3.826   7.448   9.509
 1204W        W 5268   3.913   5.816   7.978
 1205W        W 5269   0.804   3.563   9.753
 1206W        W 5270   9.824   6.291   2.343
 1207W        W 5271   1.673   0.305  11.382
 1208W        W 5272   9.563   3.662  11.942
 1209W        W 5273   2.667   8.829   3.200
 1210W        W 5274   5.155   8.567   2.390
 1211W        W 5275   8.809   4.591   8.646
 1212W        W 5276   2.177   4.197   9.551
 1213W        W 5277   9.840   3.063  10.359
 1214W        W 5278   9.731   2.679   9.162
 1215W        W 5279   8.479   8.582   0.776
 1216W        W 5280   2.138   3.901   3.541
 1217W        W 5281   2.424   7.507   9.576
 1218W        W 5282   3.622   9.012  11.200
 1219W        W 5283   4.346   4.010   2.275
 1220W        W 5284   5.218   7.171  11.827
 1221W        W 5285   0.765   3.266   1.069
 1222W        W 5286   1.432   2.592  11.102
 1223W        W 5287   2.265   7.005  11.490
 1224W        W 5288   5.684   6.407   9.355
 1225W        W 5289   4.315   3.135  10.956
 1226W        W 5290   7.640   5.831  11.794
 1227W        W 5291   1.647   5.354   9.597
 1228W        W 5292   4.229   3.142   9.440
 1229W        W 5293   0.398   2.263   2.865
 1230W        W 5294   0.392   6.375   1.637
 1231W        W 5295   1.391  10.232   8.975
 1232W        W 5296   7.103   4.717  11.009
 1233W        W 5297   9.711   3.656  11.445
 1234W        W 5298   4.462   5.739   8.798
 1235W        W 5299   8.947   8.918   9.081
 1236W        W 5300   4.990   1.330   8.679
 1237W        W 5301   5.509  10.353  11.692
 1238W        W 5302   8.050   2.785   1.207
 1239W        W 5303   9.393  10.490   0.014
 1240W        W 5304   4.187   8.890   9.050
 1241W        W 5305   2.142   1.812   2.524
 1242W        W 5306   9.999   0.469   2.047
 1243W        W 5307   3.475   8.115   9.865
 1244W        W 5308   6.453   6.791   1.782
 1245W        W 5309   6.179   3.256  10.206
 1246W        W 5310   3.293   8.563   0.130
 1247W        W 5311   0.605   9.895   8.430
 1248W        W 5312   8.948   2.778   8.569
 1249W        W 5313   5.508   6.585   4.066
 1250W        W 5314   9.532   1.695   8.997
 1251W        W 5315   9.625   4.261   9.453
 1252W        W 5316   4.540   4.207   2.749
 1253W        W 5317   5.612   5.168   0.224
 1254W        W 5318   1.605   9.101  11.275
 1255W        W 5319   9.273   7.687  11.452
 1256W        W 5320   9.921   0.787   0.718
 1257W        W 5321   3.735   6.003   1.690
 1258W        W 5322   0.373   2.108   3.422
 1259W        W 5323   5.607  10.280  11.187
 1260W        W 5324   6.003  10.460   8.964
 1261W        W 5325   7.825   2.283   9.527
 1262W        W 5326   4.629   1.222   2.475
 1263W        W 5327   6.449   4.417   9.408
 1264W        W 5328   9.613   4.748  10.770
 1265W        W 5329   3.365   5.214  10.759
 1266W        W 5330   4.532   6.439   3.169
 1267W        W 5331   2.183  10.416   0.465
 1268W        W 5332   9.810   5.655   9.435
 1269W        W 5333   4.285   2.161   1.982
 1270W        W 5334  10.335   6.726   3.499
 1271W        W 5335   7.042   1.259  11.253
 1272W        W 5336   7.417   8.281  10.748
 1273W        W 5337   9.697  10.091   9.255
 1274W        W 5338   6.575   2.793   8.953
 1275W        W 5339   0.016  10.383   2.575
 1276W        W 5340   4.505   2.310   9.844
 1277W        W 5341   6.586   2.205   3.322
 1278W        W 5342   9.924   1.292   2.554
 1279W        W 5343   2.403   5.951   9.487
 1280W        W 5344   5.743   3.768   3.138
 1281W        W 5345   8.120   1.796   3.433
 1282W        W 5346   2.714   1.497   2.298
 1283W        W 5347   1.849   2.589  10.044
 1284W        W 5348   8.937   3.703   2.908
 1285W        W 5349   1.213   5.593  11.888
 1286W        W 5350   0.919   1.292  11.224
 1287W        W 5351   0.342   4.483   0.960
 1288W        W 5352   1.227   3.126  10.327
 1289W        W 5353  10.464   4.570   3.088
 1290W        W 5354   7.007   3.582   3.319
 1291W        W 5355   3.720   0.939   9.374
 1292W        W 5356   4.852   1.857  10.575
 1293W        W 5357   5.595  10.389   0.795
 1294W        W 5358   3.631   6.195  10.928
 1295W        W 5359  10.319   8.232   2.226
 1296W        W 5360   4.075   4.698  11.248
 1297W        W 5361  10.299   3.491   2.967
 1298W        W 5362   1.564  10.148  10.384
 1299W        W 5363   8.032  10.376   1.309
 1300W        W 5364   4.711   2.057   2.754
 1301W        W 5365   7.461   4.530   1.821
 1302W        W 5366   3.136   3.799  10.601
 1303W        W 5367   5.174   5.148   0.486
 1304W        W 5368   4.743   4.516  11.622
 1305W        W 5369   8.285   1.340   2.246
 1306W        W 5370   4.680   8.497   0.457
 1307W        W 5371   5.180   1.586   1.286
 1308W        W 5372   0.097   4.770   3.524
 1309W        W 5373   1.357   9.388  10.090
 1310W        W 5374   5.489   3.810  10.730
 1311W        W 5375   3.810  10.303   9.834
 1312W        W 5376   9.220   4.475   0.114
 1313W        W 5377   5.037   4.072   1.154
 1314W        W 5378   4.911   5.586   1.209
 1315W        W 5379   7.529   1.768  10.848
 1316W        W 5380   2.306   9.437   9.144
 1317W        W 5381   2.662   7.947   3.231
 1318W        W 5382   7.507   7.125   8.907
 1319W        W 5383   3.798   6.262   0.722
 1320W        W 5384   0.572   0.339   0.263
 1321W        W 5385   3.142   3.299   2.195
 1322W        W 5386   4.910   2.074   0.410
 1323W        W 5387   6.898   2.222   8.908
 1324W        W 5388   6.491  10.192   2.415
 1325W        W 5389  10.345   6.586   9.578
 1326W        W 5390   4.591   5.027  10.096
 1327W        W 5391   9.494   0.555   0.891
 1328W        W 5392   7.509   3.307   3.214
 1329W        W 5393   3.355   5.891   4.059
 1330W        W 5394   0.033   1.835   0.598
 1331W        W 5395   8.102   1.714  11.041
 1332W        W 5396   7.883   3.459  11.140
 1333W        W 5397   4.786   2.008  11.074
 1334W        W 5398   4.485   5.706   0.214
 1335W        W 5399   8.809   6.087   2.753
 1336W        W 5400   4.021   3.631   0.266
 1337W        W 5401   4.171   2.724   0.703
 1338W        W 5402   7.442   9.890  10.586
 1339W        W 5403   9.832   6.654   3.597
 1340W        W 5404   8.552   1.869   9.288
 1341W        W 5405   3.150   7.844   3.377
 1342W        W 5406   7.487   6.090  10.472
 1343W        W 5407   0.251   2.207   1.841
 1344W        W 5408   3.120   8.493   9.819
 1345W        W 5409   9.817   9.838  10.105
 1346W        W 5410   5.919   1.068   3.448
 1347W        W 5411   3.856   2.686   1.205
 1348W        W 5412   7.294   9.010  10.346
 1349W        W 5413   9.787  10.350   1.922
 1350W        W 5414   9.801   0.367   9.232
 1351W        W 5415   5.968   2.195   9.682
 1352W        W 5416   5.654   0.844   8.671
 1353W        W 5417   0.436   6.788   9.920
 1354W        W 5418   2.555   5.609   0.736
 1355W        W 5419   1.232   3.239   9.766
 1356W        W 5420   0.775   5.700  10.913
 1357W        W 5421   0.349   3.412   0.778
 1358W        W 5422   7.972   4.791   2.914
 1359W        W 5423   7.017   6.977   8.972
 1360W        W 5424   5.579   9.325   0.405
 1361W        W 5425   2.708   3.885   0.728
 1362W        W 5426   8.315   8.528  11.701
 1363W        W 5427   2.459   6.884   0.082
 1364W        W 5428   7.724   8.627   0.780
 1365W        W 5429   1.775   9.892   2.701
 1366W        W 5430   5.066   4.179  10.767
 1367W        W 5431   0.421   5.586   3.260
 1368W        W 5432   7.281   0.288   1.046
 1369W        W 5433   7.544   2.168   2.717
 1370W        W 5434   5.686   2.477  10.012
 1371W        W 5435   0.326   4.170  10.913
 1372W        W 5436   6.956   3.733   1.712
 1373W        W 5437   3.842   9.631   0.173
 1374W        W 5438   3.254   9.311   9.481
 1375W        W 5439   8.153  10.478  11.879
 1376W        W 5440   3.872   5.766   0.665
 1377W        W 5441   8.374   0.207   1.523
 1378W        W 5442   8.875   2.291   9.340
 1379W        W 5443   1.900   2.802  10.896
 1380W        W 5444   7.082   6.610   9.846
 1381W        W 5445   2.465   3.767   1.149
 1382W        W 5446   6.082   7.028   1.502
 1383W        W 5447   1.809   7.444   1.297
 1384W        W 5448   5.963   6.116  10.387
 1385W        W 5449   9.333   1.467   9.396
 1386W        W 5450   9.464   4.219   1.741
 1387W        W 5451   8.918   8.585  11.082
 1388W        W 5452   8.943   4.254   3.413
 1389W        W 5453   3.677   7.180   3.355
 1390W        W 5454   3.142   4.021   1.842
 1391W        W 5455   2.808   7.896  11.509
 1392W        W 5456   3.384   8.016   0.200
 1393W        W 5457   3.819   5.063   8.571
 1394W        W 5458   0.470   7.351   0.559
 1395W        W 5459   2.849   7.606  10.392
 1396W        W 5460   5.960   3.564  10.808
 1397W        W 5461   2.191   6.911   9.383
 1398W        W 5462   5.053   5.499   2.646
 1399W        W 5463   9.355   1.017   0.427
 1400W        W 5464   4.977   8.104  10.812
 1401W        W 5465   0.374   8.118   3.371
 1402W        W 5466   4.640   0.825   0.150
 1403W        W 5467   6.586   4.208   2.801
 1404W        W 5468   0.026   7.068   9.777
 1405W        W 5469   1.287   3.548  10.614
 1406W        W 5470   2.623   5.540   1.732
 1407W        W 5471   0.686   9.849  10.312
 1408W        W 5472   3.104   9.699   2.278
 1409W        W 5473   1.761   8.010   8.827
 1410W        W 5474   8.551   9.458  11.320
 1411W        W 5475   5.931   3.080  10.618
 1412W        W 5476   7.004  10.443   9.188
 1413W        W 5477   0.684   2.250  10.017
 1414W        W 5478   6.036   7.330   3.068
 1415W        W 5479   5.475   6.079  10.290
 1416W        W 5480   5.509   9.417  11.425
 1417W        W 5481   4.260   4.491   3.201
 1418W        W 5482   7.194   5.182   2.376
 1419W        W 5483   3.436   7.035   2.834
 1420W        W 5484   1.869   5.847   3.824
 1421W        W 5485   8.808   6.869  10.244
 1422W        W 5486   1.269   7.645  10.031
 1423W        W 5487   3.973   8.755  10.283
 1424W        W 5488   5.071  10.065   1.367
 1425W        W 5489   6.950   5.646   8.682
 1426W        W 5490   2.890  10.378   9.661
 1427W        W 5491   6.774   2.937  10.792
 1428W        W 5492   3.031  10.297   9.179
 1429W        W 5493   8.110   2.901   9.952
 1430W        W 5494   0.925   5.635   3.455
 1431W        W 5495   3.410   9.772   9.331
 1432W        W 5496   1.587   1.754   8.584
 1433W        W 5497   9.878   4.693   9.535
 1434W        W 5498   1.180   3.445   0.738
 1435W        W 5499   9.830   5.360   3.377
 1436W        W 5500   7.863   2.439  11.410
 1437W        W 5501   7.096   5.758   9.555
 1438W        W 5502   4.193   5.274   1.957
 1439W        W 5503   5.970   4.757  10.684
 1440W        W 5504   8.488   2.867   0.923
 1441W        W 5505   0.919   6.544   3.257
 1442W        W 5506   9.524   1.336  10.279
 1443W        W 5507   3.392   4.351   0.311
 1444W        W 5508   9.368   4.984   2.430
 1445W        W 5509   9.327   3.275  11.457
 1446W        W 5510   9.505   4.686  10.268
 1447W        W 5511   2.824   8.379   2.252
 1448W        W 5512   0.431   5.882   1.520
 1449W        W 5513   8.532   8.348   3.525
 1450W        W 5514   5.317   1.856   3.515
 1451W        W 5515   7.640   5.827   9.570
 1452W        W 5516   3.534   8.005  10.919
 1453W        W 5517   3.171   6.248   2.399
 1454W        W 5518   1.395   0.946  10.385
 1455W        W 5519   5.166   5.189  11.063
 1456W        W 5520   5.728   4.399  11.967
 1457W        W 5521   6.961   6.465   8.979
 1458W        W 5522   7.023   2.836  10.290
 1459W        W 5523   7.957   8.598   1.639
 1460W        W 5524   9.780   9.791  11.917
 1461W        W 5525   1.731   1.136  11.685
 1462W        W 5526  10.365   4.497   0.699
 1463W        W 5527   5.650   4.227   0.479
 1464W        W 5528   9.733   3.055   3.456
 1465W        W 5529   6.027   1.280   1.191
 1466W        W 5530   0.260   0.943   2.271
 1467W        W 5531   3.619   0.752  10.220
 1468W        W 5532   4.427  10.488   1.531
 1469W        W 5533   8.831   3.267   3.372
 1470W        W 5534   4.250   0.834   9.463
 1471W        W 5535   6.468   2.469   0.405
 1472W        W 5536   6.572   0.311  10.929
 1473W        W 5537   2.738  10.332  11.160
 1474W        W 5538   5.297   9.754   1.716
 1475W        W 5539   3.269   1.378   1.180
 1476W        W 5540   2.289   0.035  11.022
 1477W        W 5541   1.360   5.724   1.478
 1478W        W 5542   7.946   0.296  11.540
 1479W        W 5543   9.082   3.737   0.166
 1480W        W 5544   1.726   1.195   9.256
 1481W        W 5545   7.141   1.279   1.215
 1482W        W 5546   9.793   3.303   1.280
 1483W        W 5547   3.618   5.066   3.125
 1484W        W 5548   8.522   5.208   1.254
 1485W        W 5549   8.366   3.646   9.421
 1486W        W 5550   2.697   8.148  10.361
 1487W        W 5551   3.621   7.477   0.734
 1488W        W 5552   6.008   5.126   9.279
 1489W        W 5553   8.366   9.259   0.248
 1490W        W 5554   7.063   9.407   1.455
 1491W        W 5555   6.183   7.536   9.319
 1492W        W 5556   8.109   4.014   0.828
 1493W        W 5557   8.189   9.961   9.473
 1494W        W 5558   0.826   0.591   1.014
 1495W        W 5559   7.321   5.080   0.652
 1496W        W 5560  10.466   1.350  11.372
 1497W        W 5561   3.820   9.294  10.363
 1498W        W 5562   2.762   7.400   2.310
 1499W        W 5563   8.974   3.163   0.927
 1500W        W 5564   4.021   7.459  11.989
 1501W        W 5565   6.758   7.749  11.028
 1502W        W 5566   9.502   4.072   3.423
 1503W        W 5567   1.650   5.138   3.252
 1504W        W 5568   4.673   9.974   9.843
 1505W        W 5569   0.943   8.199   0.401
 1506W        W 5570   9.934   3.642   1.676
 1507W        W 5571   8.823   6.117  11.365
 1508W        W 5572   5.164   7.988   3.226
 1509W        W 5573   1.275   2.105  11.396
 1510W        W 5574   6.480   6.506   2.691
 1511W        W 5575   0.662   5.655   9.071
 1512W        W 5576   1.792   4.386   9.227
 1513W        W 5577   8.528   4.713   0.994
 1514W        W 5578   0.886   8.960  10.858
 1515W        W 5579   6.222   7.931   8.566
 1516W        W 5580   6.002   9.013   1.711
 1517W        W 5581   8.154   4.997   9.534
 1518W        W 5582   2.748   4.226   8.857
 1519W        W 5583   9.489   9.390  10.624
 1520W        W 5584   3.722   7.670   3.212
 1521W        W 5585   0.858   6.019  11.338
 1522W        W 5586   9.935   2.408   1.167
 1523W        W 5587   8.590   1.462   1.060
 1524W        W 5588   3.261   2.908   0.501
 1525W        W 5589   4.090   4.969   3.291
 1526W        W 5590   0.323   7.802   8.855
 1527W        W 5591   3.781   0.889   2.232
 1528W        W 5592  10.268   0.817  11.427
 1529W        W 5593  10.246   0.970   2.278
 1530W        W 5594   3.365   4.258   2.229
 1531W        W 5595   0.826   7.391   9.431
 1532W        W 5596   5.747   6.328  11.641
 1533W        W 5597   1.943   1.538   0.220
 1534W        W 5598   2.839   0.916   2.916
 1535W        W 5599   1.942   2.207   1.426
 1536W        W 5600   2.578   8.011   9.452
 1537W        W 5601   4.200   2.758   9.920
 1538W        W 5602   6.974   7.907   1.038
 1539W        W 5603   6.771  10.047   8.923
 1540W        W 5604   3.191   6.662   1.057
 1541W        W 5605   4.269   7.519   2.057
 1542W        W 5606   6.019   5.749   2.203
 1543W        W 5607   8.827   7.421  11.498
 1544W        W 5608   3.336   0.410   0.664
 1545W        W 5609  10.220   0.466  11.807
 1546W        W 5610   2.454  10.432  10.006
 1547W        W 5611   7.722   6.506   3.328
 1548W        W 5612   9.031   9.862   1.458
 1549W        W 5613   5.142   9.574  10.739
 1550W        W 5614   7.883   5.708  11.208
 1551W        W 5615  10.358   1.651   1.574
 1552W        W 5616   1.749   3.567   0.844
 1553W        W 5617   4.971   5.099   3.398
 1554W        W 5618   3.742   3.653   2.627
 1555W        W 5619   4.185   4.212   0.918
 1556W        W 5620   3.671   0.318  10.557
 1557W        W 5621   6.691   0.630   3.230
 1558W        W 5622   0.760   4.771   0.315
 1559W        W 5623   6.843   2.686   3.280
 1560W        W 5624   0.937   1.743   9.400
 1561W        W 5625   7.704   9.024   8.567
 1562W        W 5626   8.178   3.190   9.290
 1563W        W 5627   5.473   8.020  10.829
 1564W        W 5628   3.583   3.657  10.889
 1565W        W 5629   5.046   7.842   9.918
 1566W        W 5630   3.272   6.197   0.819
 1567W        W 5631   1.130   9.450   2.271
 1568W        W 5632   2.586   8.067   2.734
 1569W        W 5633   5.088  10.407   9.272
 1570W        W 5634   8.381   4.425   2.883
 1571W        W 5635   9.977   4.151   1.481
 1572W        W 5636   2.155   2.717   2.589
 1573W        W 5637   9.242   0.297  11.502
 1574W        W 5638   9.866   7.966  10.618
 1575W        W 5639   5.111   7.490   8.237
 1576W        W 5640   1.626   9.877   9.953
 1577W        W 5641   1.232   5.662   9.549
 1578W        W 5642   6.547   5.997  11.502
 1579W        W 5643   4.504   4.489   0.579
 1580W        W 5644   1.207   4.732   9.359
 1581W        W 5645   8.632   6.265   1.260
 1582W        W 5646   3.575   9.989   1.404
 1583W        W 5647  10.488   2.821  11.136
 1584W        W 5648   6.158   4.667   2.945
 1585W        W 5649  10.407   9.476   1.083
 1586W        W 5650   9.841   9.284  11.931
 1587W        W 5651   5.053   3.734   8.500
 1588W        W 5652   2.727   0.658   9.457
 1589W        W 5653   7.946   5.417  10.750
 1590W        W 5654   5.136   2.352   0.791
 1591W        W 5655   8.278   7.840   2.295
 1592W        W 5656   1.887   2.357  11.178
 1593W        W 5657   3.212   3.783   2.442
 1594W        W 5658   7.065   8.517   2.735
 1595W        W 5659   7.536   3.346   2.699
 1596W        W 5660   1.401   4.748   3.496
 1597W        W 5661   3.237   1.934   2.945
 1598W        W 5662   8.301  10.319   1.846
 1599W        W 5663   2.405   2.445   1.377
 1600W        W 5664   3.467   6.908   1.959
 1601W        W 5665   7.663   0.018   2.509
 1602W        W 5666   1.335   6.957   8.982
 1603W        W 5667   7.205  10.330   2.657
 1604W        W 5668   6.530   2.226   2.318
 1605W        W 5669   1.812   9.153   2.325
 1606W        W 5670   3.672   7.225  10.057
 1607W        W 5671   2.820   2.595   1.905
 1608W        W 5672   4.904   0.248   2.596
 1609W        W 5673   7.684   1.908   3.182
 1610W        W 5674   2.949   3.609   1.096
 1611W        W 5675   3.571   2.627   0.195
 1612W        W 5676   6.729   0.146   1.557
 1613W        W 5677   8.435   4.595   2.003
 1614W        W 5678   7.956   6.050   3.135
 1615W        W 5679   1.053   9.967   9.264
 1616W        W 5680   8.508   9.255  10.425
 1617W        W 5681   8.078   0.509   9.691
 1618W        W 5682   0.218  10.395   1.594
 1619W        W 5683   8.411   0.713   9.063
 1620W        W 5684   4.735   6.442   9.440
 1621W        W 5685   3.205   9.104  11.981
 1622W        W 5686  10.055   9.940   9.572
 1623W        W 5687  10.081   4.733  10.944
 1624W        W 5688   2.162   1.675  11.724
 1625W        W 5689   1.069   0.784  11.167
 1626W        W 5690   8.883   8.003   0.153
 1627W        W 5691   3.900   5.143   0.807
 1628W        W 5692   5.565   5.889   1.016
 1629W        W 5693  10.285   8.864   9.763
 1630W        W 5694   0.220   7.940   9.342
 1631W        W 5695   6.223   6.505   3.156
 1632W        W 5696   3.174   6.054   3.588
 1633W        W 5697   9.486   2.948   9.576
 1634W        W 5698   6.447   1.861   0.471
 1635W        W 5699   0.858   1.278   2.879
 1636W        W 5700   1.716   1.489   2.389
 1637W        W 5701   5.288   7.513   9.260
 1638W        W 5702   8.835   9.987  10.745
 1639W        W 5703   8.237   7.863   0.299
 1640W        W 5704   1.404   1.974   9.519
 1641W        W 5705   4.161   9.948   9.996
 1642W        W 5706   4.940   6.485   1.452
 1643W        W 5707   2.021   8.014   0.946
 1644W        W 5708   1.272   0.763   9.041
 1645W        W 5709   6.961   0.417  10.005
 1646W        W 5710   7.191   1.836   3.351
 1647W        W 5711   3.645   1.748   0.213
 1648W        W 5712   3.239   3.601   2.931
 1649W        W 5713   2.123   3.851   0.158
 1650W        W 5714   9.447   3.252  10.017
 1651W        W 5715   8.282   6.283  10.806
 1652W        W 5716   6.644   5.005   0.441
 1653W        W 5717   1.079   5.155  11.415
 1654W        W 5718   0.461   1.312  10.013
 1655W        W 5719   9.845   7.643   2.655
 1656W        W 5720  10.384   6.967   2.412
 1657W        W 5721   4.237   5.133  11.024
 1658W        W 5722   3.094   8.199  11.822
 1659W        W 5723   1.030   9.991   0.177
 1660W        W 5724   9.614   6.215   9.962
 1661W        W 5725   8.719   6.035   2.244
 1662W        W 5726   7.507   2.414   3.190
 1663W        W 5727   4.109   0.319   2.271
 1664W        W 5728   1.940   1.713  10.637
 1665W        W 5729   1.742   4.059  11.822
 1666W        W 5730   0.481   2.687  10.191
 1667W        W 5731   6.913   2.572   9.296
 1668W        W 5732   6.974   5.861   0.873
 1669W        W 5733   6.212   0.920  11.932
 1670W        W 5734   2.933   5.584   2.961
 1671W        W 5735  10.334   3.716   1.968
 1672W        W 5736   9.191   3.755  11.349
 1673W        W 5737   6.226   4.011   3.143
 1674W        W 5738   6.282  10.092   0.867
 1675W        W 5739   0.679   0.873   1.410
 1676W        W 5740   8.765   4.623   0.312
 1677W        W 5741   4.580   4.771  11.224
 1678W        W 5742   1.430   1.875  10.492
 1679W        W 5743   5.802   9.858   1.751
 1680W        W 5744   5.146   8.549  11.589
 1681W        W 5745   4.071   7.516   0.973
 1682W        W 5746   4.686   5.560   2.983
 1683W        W 5747   4.568   0.343   2.033
 1684W        W 5748   9.483   1.171   8.993
 1685W        W 5749  10.221   1.871  11.063
 1686W        W 5750   6.649   7.600   8.540
 1687W        W 5751   7.929   6.049   2.632
 1688W        W 5752   5.025   3.345   8.948
 1689W        W 5753   3.680   6.342  11.769
 1690W        W 5754   7.890   5.934  10.736
 1691W        W 5755   3.796   5.941   2.702
 1692W        W 5756   4.227   5.181  11.554
 1693W        W 5757   6.578   5.714   3.365
 1694W        W 5758   2.987   4.697   8.928
 1695W        W 5759   2.712   3.758   2.652
 1696W        W 5760   0.819   2.820   3.269
 1697W        W 5761   6.010   9.150   0.194
 1698W        W 5762   5.530   8.938   1.983
 1699W        W 5763   7.015   6.078  11.309
 1700W        W 5764   1.355   9.126  11.745
 1701W        W 5765   3.426   8.009   2.933
 1702W        W 5766   2.636   4.081   9.347
 1703W        W 5767   5.050   3.636   3.761
 1704W        W 5768   7.086   2.832  11.846
 1705W        W 5769   8.169   4.142   1.334
 1706W        W 5770   5.171   3.289  11.242
 1707W        W 5771   5.652   1.870   1.397
 1708W        W 5772   4.040   3.241   1.884
 1709W        W 5773   7.376   0.793   2.122
 1710W        W 5774   7.028   1.427  11.722
 1711W        W 5775   7.999   4.068   2.895
 1712W        W 5776   5.251   1.690   0.510
 1713W        W 5777   9.439   0.816   3.570
 1714W        W 5778   8.372   8.850   1.391
 1715W        W 5779  10.121   7.115  10.088
 1716W        W 5780   0.417   2.249  10.464
 1717W        W 5781   4.059   1.976   3.309
 1718W        W 5782   3.052   1.688   1.970
 1719W        W 5783   8.410   5.975  10.414
 1720W        W 5784   2.236   0.907   9.447
 1721W        W 5785   0.420   3.882  11.885
 1722W        W 5786  10.017   1.763   2.353
 1723W        W 5787   4.212   9.613  10.388
 1724W        W 5788   5.231   6.638   9.466
 1725W        W 5789   9.076   1.300   3.590
 1726W        W 5790   5.404   5.572   1.379
 1727W        W 5791   7.476   6.249   9.312
 1728W        W 5792   5.203   4.794   0.857
 1729W        W 5793   1.711   9.415  11.942
 1730W        W 5794   2.829   8.830   0.200
 1731W        W 5795   0.297   5.029   3.128
 1732W        W 5796   8.908   4.604   1.712
 1733W        W 5797   4.762  10.332   2.957
 1734W        W 5798   5.702   4.522  11.187
 1735W        W 5799   7.680  10.398  10.456
 1736W        W 5800   8.147   6.757  11.557
 1737W        W 5801   0.463   7.241   0.043
 1738W        W 5802   7.450   4.824   9.458
 1739W        W 5803   5.982   7.874  10.116
 1740W        W 5804   0.120   7.498  10.508
 1741W        W 5805   7.930   9.260   9.587
 1742W        W 5806   6.262   7.013  10.035
 1743W        W 5807   8.592   5.126   0.364
 1744W        W 5808   9.402   4.693   0.528
 1745W        W 5809   5.527   4.787   2.334
 1746W        W 5810   5.585   3.632  11.257
 1747W        W 5811   7.998   8.817   9.897
 1748W        W 5812   9.465   0.345   0.427
 1749W        W 5813   8.971   7.256   9.390
 1750W        W 5814   8.871   8.084   9.652
 1751W        W 5815   7.649   5.605  10.384
 1752W        W 5816   5.069   1.279   2.853
 1753W        W 5817   2.195   0.772   0.310
 1754W        W 5818   3.608   3.531   9.843
 1755W        W 5819  10.342   6.053   1.997
 1756W        W 5820   4.253   3.696   0.965
 1757W        W 5821   9.346   7.464   9.092
 1758W        W 5822   2.154   3.791   1.539
 1759W        W 5823   9.050   6.225  11.828
 1760W        W 5824   4.701   1.322   3.313
 1761W        W 5825  10.446   1.866   2.093
 1762W        W 5826   9.721   5.127  10.449
 1763W        W 5827   1.497   1.703   9.995
 1764W        W 5828   1.256   3.392   3.317
 1765W        W 5829   4.697   9.829   0.307
 1766W        W 5830  10.009   8.507   1.429
 1767W        W 5831   2.175   5.038  10.712
 1768W        W 5832   9.569   2.220   8.967
 1769W        W 5833   4.782   7.632  10.736
 1770W        W 5834   8.210   5.375  11.416
 1771W        W 5835   6.915   0.359   2.855
 1772W        W 5836   7.073   9.835   1.188
 1773W        W 5837   2.949   8.359  11.345
 1774W        W 5838   3.235   1.036   3.316
 1775W        W 5839   6.566   5.706   9.065
 1776W        W 5840   7.874   4.523   9.567
 1777W        W 5841   4.272   4.058   0.418
 1778W        W 5842   9.612   0.327   1.721
 1779W        W 5843   9.605   7.908   3.128
 1780W        W 5844   2.220   6.420   2.065
 1781W        W 5845   9.991   6.854  10.521
 1782W        W 5846   2.637   0.787   1.703
 1783W        W 5847   8.319   2.318   9.276
 1784W        W 5848  10.114   7.460  11.784
 1785W        W 5849   7.536   4.383   9.199
 1786W        W 5850   0.405   3.657   3.215
 1787W        W 5851   7.978   7.358   8.772
 1788W        W 5852   1.058   8.355   0.934
 1789W        W 5853   0.873   1.613   2.466
 1790W        W 5854   0.334   1.402   0.735
 1791W        W 5855   9.428   0.797   1.411
 1792W        W 5856   0.482   4.797  11.879
 1793W        W 5857   6.142   2.738   9.972
 1794W        W 5858   6.655   0.901   9.066
 1795W        W 5859   7.237   8.317   9.523
 1796W        W 5860   4.570   9.486  10.045
 1797W        W 5861   7.055   3.683   8.754
 1798W        W 5862   0.840   7.059   0.343
 1799W        W 5863   6.425   8.727   3.439
 1800W        W 5864   8.049  10.409   3.267
 1801W        W 5865   8.318   3.735  11.036
 1802W        W 5866  10.129   6.579   2.747
 1803W        W 5867   7.389   5.711  11.365
 1804W        W 5868   6.018   5.644  10.830
 1805W        W 5869   1.654   7.359   9.891
 1806W        W 5870   3.836   2.730   1.761
 1807W        W 5871   2.121   0.089   1.395
 1808W        W 5872   8.378   7.444   2.010
 1809W        W 5873   4.241   4.981   2.345
 1810W        W 5874   8.834   2.121  10.369
 1811W        W 5875   4.698   5.499   0.713
 1812W        W 5876   4.653   7.883   0.434
 1813W        W 5877   7.445   2.724  11.473
 1814W        W 5878   9.127   7.075  11.748
 1815W        W 5879  10.438   6.963   2.966
 1816W        W 5880   6.495   4.918   9.477
 1817W        W 5881   6.023   5.231  10.492
 1818W        W 5882   1.612   9.633  10.470
 1819W        W 5883   0.227   9.009  10.347
 1820W        W 5884   9.949   9.457   9.783
 1821W        W 5885   2.832   4.710  11.169
 1822W        W 5886   5.408   4.094  11.167
 1823W        W 5887  10.391   0.217   3.467
 1824W        W 5888   3.719   2.870   2.799
 1825W        W 5889   2.379   3.647  11.150
 1826W        W 5890   4.200   7.066   1.223
 1827W        W 5891   6.984   5.435   1.871
 1828W        W 5892   5.955   9.454   9.134
 1829W        W 5893   1.181   6.510   9.175
 1830W        W 5894   4.659   4.054   0.790
 1831W        W 5895  10.229   8.818  11.259
 1832W        W 5896   1.216   1.846   2.158
 1833W        W 5897  10.009   0.957   9.828
 1834W        W 5898   7.095   0.841   2.966
 1835W        W 5899   0.188   0.793   1.382
 1836W        W 5900   2.903   5.784   9.860
 1837W        W 5901   8.089   7.727   1.728
 1838W        W 5902   2.183   9.820   3.000
 1839W        W 5903   0.263   2.598  11.544
 1840W        W 5904   2.970   5.216  11.323
 1841W        W 5905   0.280   5.237  11.694
 1842W        W 5906   2.789   3.194   1.361
 1843W        W 5907   6.734   6.532   3.153
 1844W        W 5908   7.861   5.798   0.958
 1845W        W 5909   7.556   4.668  11.279
 1846W        W 5910   0.257   0.932  11.462
 1847W        W 5911   1.452   1.825   3.633
 1848W        W 5912   8.546   6.383   9.434
 1849W        W 5913   5.144   4.267   0.673
 1850W        W 5914   5.726  10.310   2.948
 1851W        W 5915   5.685   2.882   1.432
 1852W        W 5916   0.205  10.065  11.883
 1853W        W 5917   2.697   2.368   0.814
 1854W        W 5918   4.495   0.266  10.911
 1855W        W 5919   3.391   9.471   2.939
 1856W        W 5920   9.981   9.379  10.297
 1857W        W 5921   9.047   9.409   9.953
 1858W        W 5922   3.623   4.530  11.398
 1859W        W 5923   1.798   1.256   1.920
 1860W        W 5924   6.749   5.055   8.297
 1861W        W 5925   8.546   9.517   9.980
 1862W        W 5926   9.412   1.469   0.198
 1863W        W 5927   6.093   5.434   0.819
 1864W        W 5928   9.198   0.429   2.680
 1865W        W 5929   2.915   5.480  10.824
 1866W        W 5930   4.129   3.607  10.860
 1867W        W 5931   1.447  10.402   2.357
 1868W        W 5932   4.993   2.715  10.556
 1869W        W 5933   4.055   1.274   9.634
 1870W        W 5934   1.776   4.782  11.104
 1871W        W 5935   9.368  10.163   2.245
 1872W        W 5936   3.218   7.519   1.021
 1873W        W 5937   5.623   0.757  10.235
 1874W        W 5938   3.292   2.723   9.808
 1875W        W 5939   3.129   9.099   8.539
 1876W        W 5940   9.932   0.201  10.810
 1877W        W 5941   5.601   5.510   0.657
 1878W        W 5942   2.279   6.918  10.469
 1879W        W 5943   5.786   3.997  10.349
 1880W        W 5944   8.587  10.272  11.689
 1881W        W 5945   3.745   5.054  10.103
 1882W        W 5946   1.933   3.365   0.364
 1883W        W 5947   6.484   3.856   0.503
 1884W        W 5948   8.911   0.190  11.904
 1885W        W 5949   6.433   6.320   9.158
 1886W        W 5950   8.296   4.703   0.503
 1887W        W 5951   6.120   2.320   3.124
 1888W        W 5952   4.532   6.651  11.662
 1889W        W 5953   9.165   1.924  11.988
 1890W        W 5954   1.471   0.755  10.836
 1891W        W 5955   1.680   8.847   8.384
 1892W        W 5956   3.781   5.188   1.678
 1893W        W 5957   2.504   6.239   2.833
 1894W        W 5958  10.221   0.335   8.924
 1895W        W 5959  10.012   2.766  10.984
 1896W        W 5960   6.210   7.454   8.805
 1897W        W 5961   5.498   4.292   9.884
 1898W        W 5962   8.800   8.982  10.089
 1899W        W 5963   8.353   2.675  10.532
 1900W        W 5964   5.432   9.196   1.260
 1901W        W 5965   3.295   2.618  10.863
 1902W        W 5966   9.212   0.969   9.415
 1903W        W 5967   7.252   3.207   8.403
 1904W        W 5968   6.140   6.980   0.991
 1905W        W 5969   5.683   0.234  10.419
 1906W        W 5970   9.734   8.448   9.930
 1907W        W 5971   0.437   7.030   9.472
 1908W        W 5972   2.589   3.364   0.814
 1909W        W 5973   0.739   6.504   9.530
 1910W        W 5974   1.695   8.190   2.300
 1911W        W 5975   7.894   2.886  10.409
 1912W        W 5976   4.697   0.834   9.711
 1913W        W 5977   9.843   1.418   8.690
 1914W        W 5978   5.729   2.959  10.171
 1915W        W 5979   4.280   9.000   9.961
 1916W        W 5980   5.514   8.355   0.217
 1917W        W 5981   1.440   0.447   0.651
 1918W        W 5982   4.161   9.743   1.285
 1919W        W 5983   2.032   5.545  10.504
 1920W        W 5984   7.819   7.481   9.757
 1921W        W 5985   2.314   8.783  11.857
 1922W        W 5986   3.038   1.710   8.709
 1923W        W 5987   5.208   8.932   3.319
 1924W        W 5988   6.058   0.918  10.006
 1925W        W 5989   6.165   7.599   2.167
 1926W        W 5990   2.153   7.765   0.076
 1927W        W 5991   7.552   9.939   2.470
 1928W        W 5992   8.591   2.633   3.516
 1929W        W 5993  10.492   5.150   1.710
 1930W        W 5994   9.822   4.574   1.832
 1931W        W 5995   7.902   7.168  10.659
 1932W        W 5996   8.143   8.152   1.478
 1933W        W 5997   4.684   3.430  11.165
 1934W        W 5998   9.235   0.286   2.191
 1935W        W 5999   7.448   0.825  10.451
 1936W        W 6000   0.064   0.344   1.139
 1937W        W 6001   1.374   3.681  11.595
 1938W        W 6002   9.990   5.454   0.522
 1939W        W 6003  10.064   9.355   3.262
 1940W        W 6004   3.630   4.060  11.230
 1941W        W 6005   4.968   9.071   1.423
 1942W        W 6006   4.638   8.418  11.957
 1943W        W 6007   1.563   5.264  11.302
 1944W        W 6008   1.661   0.782   2.099
 1945W        W 6009   3.815   9.596   1.642
 1946W        W 6010   2.766   1.832   3.146
 1947W        W 6011   1.845   4.031   3.131
 1948W        W 6012   9.849   2.049   2.731
 1949W        W 6013   6.426   8.010   2.364
 1950W        W 6014   2.858   6.441  10.586
 1951W        W 6015   3.084   5.059   2.800
 1952W        W 6016   1.245   9.070  10.486
 1953W        W 6017   2.197   7.049   3.438
 1954W        W 6018   5.140   4.716   9.233
 1955W        W 6019   8.748   6.224   9.912
 1956W        W 6020   2.246   7.361   0.431
 1957W        W 6021   6.870   4.253   9.859
 1958W        W 6022   4.642   6.082  10.960
 1959W        W 6023   7.445   4.489   4.202
 1960W        W 6024   2.757   0.994  11.814
 1961W        W 6025   8.991   8.027  11.099
 1962W        W 6026   8.897   6.326   9.034
 1963W        W 6027   7.626   4.137  11.437
 1964W        W 6028   9.735   6.209   2.851
 1965W        W 6029   9.302   2.350  10.498
 1966W        W 6030   8.179   4.632   2.462
 1967W        W 6031   0.418   6.996   2.412
 1968W        W 6032  10.453   2.251  11.354
 1969W        W 6033   2.686   6.884   3.526
 1970W        W 6034   8.016   9.071   3.510
 1971W        W 6035   5.495   8.848   0.311
 1972W        W 6036   2.503   9.869  11.752
 1973W        W 6037   4.504   3.180   9.887
 1974W        W 6038   2.215  10.294   0.971
 1975W        W 6039   0.859   9.008  11.784
 1976W        W 6040   3.577  10.493   1.208
 1977W        W 6041   8.305   5.136   0.793
 1978W        W 6042   7.424   0.656   8.495
 1979W        W 6043   0.753   1.119   2.382
 1980W        W 6044   9.553   0.171   9.973
 1981W        W 6045   9.053   2.864   3.613
 1982W        W 6046   6.600   7.118  10.995
 1983W        W 6047   5.622   7.895   9.228
 1984W        W 6048   1.986   6.977   0.228
 1985W        W 6049   5.996   4.106   3.598
 1986W        W 6050   2.778  10.044   0.977
 1987W        W 6051   9.658   3.435   9.567
 1988W        W 6052   0.704   8.562   2.481
 1989W        W 6053   0.660   8.658   0.837
 1990W        W 6054   5.876   9.942   8.923
 1991W        W 6055   7.636   3.196  10.755
 1992W        W 6056   3.563   0.296   9.077
 1993W        W 6057   2.896   2.139  10.474
 1994W        W 6058   3.909   1.324   0.318
 1995W        W 6059   0.352   5.849  10.654
 1996W        W 6060   8.336   4.745  11.030
 1997W        W 6061   3.323   9.456  10.359
 1998W        W 6062   5.089   6.202   3.756
 1999W        W 6063   7.159   4.289  11.334
 2000W        W 6064   5.479   0.927   2.657
 2001W        W 6065   7.902   2.777   3.252
 2002W        W 6066   0.361   2.516   9.653
 2003W        W 6067  10.331   7.389   3.277
 2004W        W 6068   5.762   2.706   0.944
 2005W        W 6069   7.445   2.684  10.517
 2006W        W 6070   2.231   2.894   8.950
 2007W        W 6071   6.868   8.083   1.502
 2008W        W 6072   6.524   0.620   1.675
 2009W        W 6073  10.005   8.310   9.020
 2010W        W 6074   7.373   8.708   9.224
 2011W        W 6075   3.390   3.197   3.831
 2012W        W 6076   8.365   1.277   2.738
 2013W        W 6077   9.290   1.594   3.237
 2014W        W 6078   7.244   7.629   1.391
 2015W        W 6079   0.762   1.891   2.874
 2016W        W 6080   1.291   8.059   2.021
 2017W        W 6081   5.766   3.893   2.276
 2018W        W 6082   5.005   0.419   9.679
 2019W        W 6083  10.338   7.468   9.513
 2020W        W 6084   9.627  10.307   3.098
 2021W        W 6085   5.173   8.048   9.465
 2022W        W 6086   0.451   4.534  10.001
 2023W        W 6087   5.187   9.047  11.483
 2024W        W 6088   9.135   8.332  11.478
 2025W        W 6089   2.828   9.236   2.260
 2026W        W 6090   7.765   9.452   3.208
 2027W        W 6091  10.255   8.410   9.998
 2028W        W 6092   2.723   0.731   0.253
 2029W        W 6093   1.482   7.606   0.730
 2030W        W 6094   8.069   1.417  10.371
 2031W        W 6095   3.812   7.589  11.031
 2032W        W 6096   4.200   4.491   2.262
 2033W        W 6097   7.412   7.955   0.732
 2034W        W 6098   9.049   1.604  11.584
 2035W        W 6099   1.240   8.576   3.238
 2036W        W 6100   0.468   1.398  11.366
 2037W        W 6101   9.860   8.382  10.975
 2038W        W 6102   3.788   0.390   0.947
 2039W        W 6103   8.543   1.370   0.566
 2040W        W 6104   5.726   2.887   2.339
 2041W        W 6105   3.393   5.719   3.212
 2042W        W 6106   8.424   2.786   9.522
 2043W        W 6107   8.899   6.206   1.780
 2044W        W 6108   2.328   0.352   3.230
 2045W        W 6109   8.663   9.034   1.794
 2046W        W 6110   6.713   1.794   9.192
 2047W        W 6111   1.506   9.950   9.455
 2048W        W 6112   1.866   8.073  11.463
 2049W        W 6113   1.677   6.167   8.513
 2050W        W 6114   1.314   1.076   1.825
 2051W        W 6115  10.077   6.968  11.591
 2052W        W 6116   3.600   2.299   9.092
 2053W        W 6117   2.316   5.692   2.740
 2054W        W 6118   7.422   2.623   9.510
 2055W        W 6119   2.390   9.648  11.299
 2056W        W 6120   1.251   9.388  11.023
 2057W        W 6121  10.419   5.701  10.877
 2058W        W 6122   9.974   1.365  11.528
 2059W        W 6123   0.322   1.470   9.511
 2060W        W 6124  10.391   2.406   9.515
 2061W        W 6125   6.184   6.497   0.734
 2062W        W 6126   2.358   9.637  10.117
 2063W        W 6127   1.075   7.412  10.439
 2064W        W 6128   4.583   5.166   8.812
 2065W        W 6129   5.143   9.544   2.652
 2066W        W 6130   2.369   2.119   0.512
 2067W        W 6131   3.868   4.147   4.036
 2068W        W 6132   4.701   2.412   3.152
 2069W        W 6133   2.733   4.608   8.493
 2070W        W 6134   5.549   4.382   3.560
 2071W        W 6135   5.239   0.888  11.428
 2072W        W 6136   4.519   4.666   1.435
 2073W        W 6137   5.639   0.744   3.124
 2074W        W 6138   1.484   8.917   1.526
 2075W        W 6139   1.107   8.989  11.321
 2076W        W 6140   2.344   6.027   2.354
 2077W        W 6141   0.787   2.625   9.261
 2078W        W 6142   3.897   1.904  10.245
 2079W        W 6143   0.880   7.685   1.869
 2080W        W 6144   5.288   4.449  11.507
 2081W        W 6145   5.254  10.496  10.840
 2082W        W 6146   2.857   3.994   1.418
 2083W        W 6147   7.444   6.106  11.012
 2084W        W 6148   5.921   3.182   9.761
 2085W        W 6149   8.452   9.517   9.469
 2086W        W 6150   9.610  10.176  11.607
 2087W        W 6151   8.295   5.097  10.480
 2088W        W 6152   2.648   7.122   9.190
 2089W        W 6153   6.256   9.362   8.716
 2090W        W 6154   0.820   5.257   0.526
 2091W        W 6155  10.102   1.431   9.709
 2092W        W 6156   6.500   1.131   1.879
 2093W        W 6157   0.061   9.517   2.979
 2094W        W 6158   9.487   2.891  11.796
 2095W        W 6159   3.669   9.338  11.789
 2096W        W 6160   9.858   5.198   2.890
 2097W        W 6161   6.576   4.341   0.434
 2098W        W 6162   8.290  10.461  11.278
 2099W        W 6163   9.222   6.139   2.164
 2100W        W 6164   0.450   2.055   0.389
 2101W        W 6165   3.023   8.700  11.729
 2102W        W 6166   5.474   2.152   0.449
 2103W        W 6167   8.976   7.525  11.012
 2104W        W 6168   8.738   3.563  11.267
 2105W        W 6169   5.031   5.204   9.080
 2106W        W 6170   8.982   8.367  10.617
 2107W        W 6171   2.281   4.867   8.462
 2108W        W 6172   3.692   0.866   0.185
 2109W        W 6173   4.262   9.246   3.731
 2110W        W 6174   9.091   2.375   8.866
 2111W        W 6175   2.678   0.566   2.514
 2112W        W 6176   8.490   7.939  10.967
 2113W        W 6177   7.040   3.571   2.274
 2114W        W 6178   3.629  10.376   8.777
 2115W        W 6179   6.249   6.739  11.057
 2116W        W 6180   3.549   1.720   2.153
 2117W        W 6181   9.828   1.530  11.048
 2118W        W 6182   3.757   0.400   1.462
 2119W        W 6183  10.059  10.250   3.403
 2120W        W 6184   8.369   8.105   1.019
 2121W        W 6185   8.824   9.244  11.834
 2122W        W 6186   2.957   7.706   2.891
 2123W        W 6187   9.952   9.281  10.780
 2124W        W 6188   5.657   6.699   9.759
 2125W        W 6189   7.948   6.219  11.211
 2126W        W 6190   7.467   0.320   1.907
 2127W        W 6191   6.827   9.404  11.581
 2128W        W 6192   8.143   1.336   0.867
 2129W        W 6193   1.179   2.625  11.561
 2130W        W 6194   8.912   9.971   2.472
 2131W        W 6195   4.968   5.988  10.070
 2132W        W 6196   1.007   4.704   2.227
 2133W        W 6197   2.793   8.902  10.885
 2134W        W 6198   4.256   0.306   0.711
 2135W        W 6199  10.386   0.385  10.520
 2136W        W 6200   4.045   9.845   2.296
 2137W        W 6201   9.109   3.851  10.434
 2138W        W 6202   5.731   0.204   1.483
 2139W        W 6203   3.241   3.481   8.621
 2140W        W 6204   3.633   9.035   0.802
 2141W        W 6205   0.838   0.770   9.374
 2142W        W 6206   2.396   1.244   0.344
 2143W        W 6207   0.865   6.956   9.743
 2144W        W 6208   1.750   2.206   8.759
 2145W        W 6209   3.421   1.413  11.373
 2146W        W 6210   5.781   7.376   1.237
 2147W        W 6211   0.795   5.852   0.779
 2148W        W 6212   6.091   8.017   9.071
 2149W        W 6213   1.950  10.412  10.151
 2150W        W 6214   6.151   1.675   2.469
 2151W        W 6215   1.805   6.764   3.592
 2152W        W 6216   1.394   5.929  10.974
 2153W        W 6217   1.489   2.637   1.770
 2154W        W 6218   7.886   1.692   0.572
 2155W        W 6219   9.747   1.817   0.367
 2156W        W 6220   2.078   5.425   0.921
 2157W        W 6221   3.991   6.485   3.313
 2158W        W 6222   4.260   9.554   1.866
 2159W        W 6223   2.843   5.539  11.732
 2160W        W 6224   9.296   9.901   3.302
 2161W        W 6225   7.996   2.282   3.002
 2162W        W 6226   2.203   2.212   3.294
 2163W        W 6227   8.005  10.163   2.315
 2164W        W 6228   6.917  10.338  11.460
 2165W        W 6229   2.746   3.629   8.761
 2166W        W 6230   7.825   8.482  11.615
 2167W        W 6231   9.106  10.294  11.576
 2168W        W 6232   6.967   2.709   0.339
 2169W        W 6233   3.109   0.882   1.458
 2170W        W 6234   1.051   4.951   8.870
 2171W        W 6235   0.695  10.342   1.422
 2172W        W 6236   7.092   2.297   0.059
 2173W        W 6237   6.540   4.672   2.596
 2174W        W 6238   8.577   2.741  10.033
 2175W        W 6239   3.638   7.966  10.385
 2176W        W 6240   9.061   6.996   1.179
 2177W        W 6241   8.029   4.419   3.246
 2178W        W 6242   1.404   4.669  11.468
 2179W        W 6243   4.704   8.922  10.735
 2180W        W 6244   6.697   7.202  11.895
 2181W        W 6245   7.977   9.856   8.557
 2182W        W 6246   9.482   4.116   2.253
 2183W        W 6247   9.382   8.022  10.483
 2184W        W 6248   5.031   3.299  10.756
 2185W        W 6249   5.659   5.828  11.678
 2186W        W 6250   3.684   9.532   8.955
 2187W        W 6251   4.064  10.456   9.052
 2188W        W 6252   5.638   8.480   2.184
 2189W        W 6253   3.318   6.641  10.851
 2190W        W 6254   1.659   6.626   0.066
 2191W        W 6255   8.066   1.230  10.871
 2192W        W 6256   3.271   6.648  10.326
 2193W        W 6257   9.481   1.793   2.460
 2194W        W 6258   8.928   0.853   3.374
 2195W        W 6259   7.342   4.375  11.834
 2196W        W 6260   1.184   2.735  10.674
 2197W        W 6261   1.171   4.517   0.520
 2198W        W 6262   3.380   2.045   1.813
 2199W        W 6263   2.186   7.013  10.968
 2200W        W 6264   4.511   3.187   0.811
 2201W        W 6265   5.655   6.040   0.560
 2202W        W 6266   5.354   6.827   1.913
 2203W        W 6267   1.727   3.633   1.338
 2204W        W 6268   7.629   4.048   9.584
 2205W        W 6269   9.334   7.585   1.764
 2206W        W 6270   6.976   1.936  11.709
 2207W        W 6271   1.702   5.218  10.807
 2208W        W 6272   2.845   0.565   0.810
 2209W        W 6273   9.535   7.001   9.378
 2210W        W 6274   2.622   4.123   1.872
 2211W        W 6275   2.440   6.260  11.944
 2212W        W 6276   6.185   4.708   1.586
 2213W        W 6277   0.604   8.151   0.784
 2214W        W 6278   8.997   8.325   9.227
 2215W        W 6279   9.612   1.627   8.253
 2216W        W 6280   6.465   5.211   9.066
 2217W        W 6281   3.689   5.718  11.195
 2218W        W 6282   2.556   5.580  10.434
 2219W        W 6283   5.347   1.745  10.390
 2220W        W 6284   5.273   1.286   0.160
 2221W        W 6285   8.829   7.840   1.005
 2222W        W 6286   8.778   5.082  10.336
 2223W        W 6287   6.711   5.655   2.869
 2224W        W 6288   3.187   5.298   0.423
 2225W        W 6289   8.668   2.258   0.809
 2226W        W 6290   0.685   7.935  10.972
 2227W        W 6291   8.551   8.991   8.648
 2228W        W 6292   3.349   3.052   3.169
 2229W        W 6293   2.309   0.247   2.727
 2230W        W 6294   5.220   2.133   2.637
 2231W        W 6295   6.953   8.022   9.857
 2232W        W 6296   1.880   0.134   2.213
 2233W        W 6297   2.876   9.896  10.875
 2234W        W 6298   4.021   9.108  11.483
 2235W        W 6299   1.875   2.180   3.693
 2236W        W 6300   7.089   4.054   3.550
 2237W        W 6301   0.323   0.509   9.772
 2238W        W 6302   8.958   2.301   2.812
 2239W        W 6303   2.867   2.681   1.404
 2240W        W 6304   7.135   7.951   3.007
 2241W        W 6305   3.202   1.816   9.197
 2242W        W 6306   4.622   1.287   1.991
 2243W        W 6307   9.437   9.251   9.604
 2244W        W 6308   0.388   0.744   8.756
 2245W        W 6309  10.298   8.316  11.239
 2246W        W 6310   5.422   0.393   8.849
 2247W        W 6311   0.812  10.327  11.482
 2248W        W 6312   8.458   9.513   0.695
 2249W        W 6313   7.965   2.319   3.507
 2250W        W 6314   3.489   8.905  10.326
 2251W        W 6315   4.220   6.044   0.953
 2252W        W 6316   5.268  10.489   9.760
 2253W        W 6317   7.352   8.402   3.168
 2254W        W 6318   6.648   0.215   2.458
 2255W        W 6319   1.605   9.578   2.097
 2256W        W 6320   4.360   1.960  10.465
 2257W        W 6321   1.522   4.694   2.260
 2258W        W 6322   3.162   9.452   8.991
 2259W        W 6323   8.957   1.117  11.367
 2260W        W 6324   3.077   2.203  11.745
 2261W        W 6325   3.371   8.361   9.334
 2262W        W 6326   1.396   7.551   9.492
 2263W        W 6327   0.927   7.391  11.911
 2264W        W 6328   5.151   9.063   2.824
 2265W        W 6329   6.926   6.975   1.835
 2266W        W 6330   1.868   2.155  10.358
 2267W        W 6331   8.990   0.519   0.305
 2268W        W 6332   7.654   6.904   9.754
 2269W        W 6333   6.668   1.159   0.008
 2270W        W 6334   1.415   5.135  11.794
 2271W        W 6335   4.576   9.303  11.056
 2272W        W 6336   4.647   9.375   3.423
 2273W        W 6337   3.365   7.876  11.539
 2274W        W 6338   1.048  10.471  11.926
 2275W        W 6339   8.911   1.538   0.271
 2276W        W 6340   3.652   5.570   1.975
 2277W        W 6341   6.194   1.861  10.458
 2278W        W 6342   3.037   6.907   3.130
 2279W        W 6343   1.077   1.895   1.387
 2280W        W 6344   7.340   9.671  11.045
 2281W        W 6345   8.179   9.468   2.867
 2282W        W 6346   3.290   4.268   8.788
 2283W        W 6347   2.289   9.090  11.438
 2284W        W 6348   1.528   6.179   2.914
 2285W        W 6349   8.181   2.563  11.005
 2286W        W 6350   5.660   2.046  11.989
 2287W        W 6351   1.565   1.780   1.260
 2288W        W 6352   0.424   7.117  10.655
 2289W        W 6353   0.445   2.125  11.459
 2290W        W 6354   1.398   3.878   8.689
 2291W        W 6355   1.947   7.012   0.964
 2292W        W 6356   0.957   0.268   0.636
 2293W        W 6357   3.707   2.206   3.038
 2294W        W 6358   8.984   4.160   0.439
 2295W        W 6359   2.376   8.615   0.338
 2296W        W 6360   1.771   4.243  10.981
 2297W        W 6361   1.958   8.417   8.568
 2298W        W 6362   4.251   7.054   0.189
 2299W        W 6363   9.189   7.479   2.327
 2300W        W 6364   0.676   3.935   2.897
 2301W        W 6365   2.137   8.006   9.694
 2302W        W 6366   7.080   6.700   4.071
 2303W        W 6367   9.437   6.170   0.708
 2304W        W 6368   7.696   9.705   0.847
 2305W        W 6369   1.049   9.445   2.788
 2306W        W 6370   6.890   1.295   2.189
 2307W        W 6371   2.303   4.830   3.279
 2308W        W 6372   3.810   8.456   1.398
 2309W        W 6373   8.904   8.375   0.959
 2310W        W 6374   3.966   6.723   1.979
 2311W        W 6375   9.171   3.598   8.887
 2312W        W 6376   5.531   9.878   2.172
 2313W        W 6377   0.476   6.143  11.664
 2314W        W 6378   8.804   6.676   0.559
 2315W        W 6379   6.124   1.853  11.548
 2316W        W 6380  10.433   1.341   1.955
 2317W        W 6381   9.851   1.747  10.010
 2318W        W 6382   9.986   1.175   0.011
 2319W        W 6383   8.988   1.985   1.602
 2320W        W 6384   7.986   2.722   1.713
 2321W        W 6385   1.582   5.359   0.224
 2322W        W 6386   0.862   8.045  10.519
 2323W        W 6387   6.676   7.983   0.252
 2324W        W 6388   5.475   5.204   2.673
 2325W        W 6389  10.480   8.485   2.661
 2326W        W 6390   9.964   2.625   3.378
 2327W        W 6391   3.128   3.527   1.740
 2328W        W 6392   9.852   3.242  11.838
 2329W        W 6393   7.192   3.037   9.310
 2330W        W 6394   1.389   0.495   8.594
 2331W        W 6395   3.463   4.165  10.757
 2332W        W 6396   7.663   6.025   8.307
 2333W        W 6397   4.831   2.790   0.924
 2334W        W 6398   1.724   5.850   9.717
 2335W        W 6399   7.403   6.077   1.804
 2336W        W 6400   4.145   8.846   2.384
 2337W        W 6401   4.537   3.637  10.127
 2338W        W 6402   0.733   1.651   0.495
 2339W        W 6403   1.587   6.477   1.854
 2340W        W 6404   4.331   0.993  11.403
 2341W        W 6405   7.002   7.601  10.141
 2342W        W 6406   1.689   0.057   0.363
 2343W        W 6407   4.396   2.641  11.057
 2344W        W 6408   4.231   3.399  11.414
 2345W        W 6409   3.545   1.722   0.869
 2346W        W 6410   6.455   0.210   1.985
 2347W        W 6411   5.071   4.080   8.114
 2348W        W 6412   3.196   4.646  10.040
 2349W        W 6413   1.444   0.760  11.877
 2350W        W 6414   8.961   8.485  10.107
 2351W        W 6415   8.966   7.942   1.554
 2352W        W 6416   2.914   0.275   0.402
 2353W        W 6417   9.971   8.780  11.936
 2354W        W 6418   2.226   6.038  10.991
 2355W        W 6419   3.627   2.596   0.741
 2356W        W 6420  10.160   8.716  10.743
 2357W        W 6421   1.857   7.422  11.138
 2358W        W 6422   0.222   0.259   8.858
 2359W        W 6423   7.461   7.542  11.436
 2360W        W 6424   8.546   6.566  11.786
 2361W        W 6425   9.632   6.625   0.894
 2362W        W 6426   7.240   3.185   1.019
 2363W        W 6427   7.667   9.104   9.070
 2364W        W 6428   8.911   7.854  10.616
 2365W        W 6429   3.345   6.917   8.520
 2366W        W 6430   6.685   1.679  10.256
 2367W        W 6431   3.297   7.885   0.681
 2368W        W 6432   4.574   9.843   3.172
 2369W        W 6433   9.696  10.214   9.792
 2370W        W 6434   9.867   5.441  11.521
 2371W        W 6435   7.943  10.168   0.857
 2372W        W 6436   6.616   8.754   2.988
 2373W        W 6437   0.415   1.465   2.692
 2374W        W 6438   0.141   6.738  10.887
 2375W        W 6439   7.463   5.518   1.717
 2376W        W 6440   6.694   1.669   9.729
 2377W        W 6441   6.437   5.774   1.618
 2378W        W 6442   3.378   9.766  11.631
 2379W        W 6443   4.772   1.247  11.887
 2380W        W 6444   1.160   6.072   3.268
 2381W        W 6445   6.283   3.658   0.939
 2382W        W 6446   8.136   3.070  10.822
 2383W        W 6447   7.167   5.467   2.786
 2384W        W 6448   5.682  10.273   2.448
 2385W        W 6449   1.380   6.570  10.201
 2386W        W 6450   8.123   7.532  10.327
 2387W        W 6451   8.015   2.269   2.480
 2388W        W 6452   7.059   3.355  11.591
 2389W        W 6453   2.739   8.817  10.047
 2390W        W 6454  10.076   0.157   1.609
 2391W        W 6455   1.846   6.470   3.188
 2392W        W 6456   1.670   9.213  10.764
 2393W        W 6457   2.707   4.456   0.039
 2394W        W 6458   4.480   6.607   2.693
 2395W        W 6459   1.398   7.221   1.508
 2396W        W 6460   2.241   6.019  10.453
 2397W        W 6461   7.434   4.542   1.315
 2398W        W 6462   4.701   9.357   0.067
 2399W        W 6463   8.767   5.198   3.267
 2400W        W 6464   9.779   6.957   0.535
 2401W        W 6465   4.847   5.033   1.210
 2402W        W 6466   3.140   6.440   8.325
 2403W        W 6467   2.590   3.872  11.929
 2404W        W 6468   7.484   7.513   1.861
 2405W        W 6469   6.937   0.868   1.895
 2406W        W 6470   9.471   1.511   0.716
 2407W        W 6471   7.515   5.482   1.195
 2408W        W 6472   5.035   9.656   2.165
 2409W        W 6473   2.001   2.867   9.409
 2410W        W 6474   6.910   5.600  11.512
 2411W        W 6475   9.817   5.612   0.045
 2412W        W 6476   4.258   8.354   9.194
 2413W        W 6477   2.345   2.258   2.800
 2414W        W 6478   6.997   4.189   0.185
 2415W        W 6479   0.353   7.494   3.407
 2416W        W 6480   7.017   9.857  11.771
 2417W        W 6481   5.110   5.394  11.508
 2418W        W 6482   3.809   6.471   9.631
 2419W        W 6483   2.938   9.874   9.469
 2420W        W 6484   7.942   3.330  11.626
 2421W        W 6485   3.542   4.320   9.501
 2422W        W 6486   0.798   1.149   0.967
 2423W        W 6487   7.078   5.822   4.089
 2424W        W 6488   3.755   9.907   8.582
 2425W        W 6489   4.198   7.953   0.676
 2426W        W 6490   9.091   2.375   0.565
 2427W        W 6491   8.466   2.842   1.552
 2428W        W 6492   9.377   4.598   2.091
 2429W        W 6493   8.209   1.031   1.844
 2430W        W 6494   2.960   9.246   3.143
 2431W        W 6495   5.008   0.350   3.080
 2432W        W 6496   8.521   7.986   1.855
 2433W        W 6497   8.115   6.639   9.522
 2434W        W 6498   5.200   4.639  10.520
 2435W        W 6499   6.041  10.150   9.412
 2436W        W 6500   8.330   1.709   0.261
 2437W        W 6501   1.942   7.381   1.803
 2438W        W 6502   3.240   9.401   0.572
 2439W        W 6503   3.987   1.143   3.519
 2440W        W 6504   9.908   1.304   9.235
 2441W        W 6505   5.904   4.101  11.421
 2442W        W 6506   7.977   5.630   1.845
 2443W        W 6507   7.556   8.200   2.754
 2444W        W 6508  10.315   7.990   2.661
 2445W        W 6509  10.140   6.752   0.873
 2446W        W 6510   5.722  10.289  10.669
 2447W        W 6511   5.657   0.727  11.696
 2448W        W 6512   4.225  10.318  10.850
 2449W        W 6513   3.713   6.946   2.415
 2450W        W 6514   7.035   9.947   3.662
 2451W        W 6515   3.274   3.810  11.502
 2452W        W 6516   1.197   5.653  11.381
 2453W        W 6517   2.115   3.175   0.787
 2454W        W 6518  10.489   7.004  10.416
 2455W        W 6519   4.010   2.262   9.873
 2456W        W 6520   5.918   2.666   9.524
 2457W        W 6521   3.575   6.559  11.321
 2458W        W 6522   4.737   3.197   9.386
 2459W        W 6523   3.838   2.409   2.589
 2460W        W 6524   6.419   6.678   3.755
 2461W        W 6525   0.154   6.603   2.640
 2462W        W 6526   8.647   6.460   3.456
 2463W        W 6527   4.553   7.986   9.463
 2464W        W 6528   3.662   1.364  11.843
 2465W        W 6529   5.707   7.898   8.723
 2466W        W 6530   0.840   5.026   1.262
 2467W        W 6531   0.973   3.291  10.931
 2468W        W 6532   6.557   4.366   1.401
 2469W        W 6533   6.986   2.015  10.967
 2470W        W 6534   7.619   6.695  10.364
 2471W        W 6535   4.121   9.620   9.244
 2472W        W 6536   5.028   7.748   1.606
 2473W        W 6537   1.124   8.958   3.550
 2474W        W 6538   4.082   3.114   1.044
 2475W        W 6539   1.244   1.483   3.275
 2476W        W 6540   3.830   9.850   9.606
 2477W        W 6541   3.288   1.348   1.679
 2478W        W 6542   8.462  10.259   0.230
 2479W        W 6543   3.266   8.942   2.867
 2480W        W 6544   8.027   8.191   1.992
 2481W        W 6545   0.745   9.035  10.363
 2482W        W 6546   7.317   2.855   3.415
 2483W        W 6547   9.239  10.347   0.532
 2484W        W 6548   5.961   0.332   1.913
 2485W        W 6549   7.168   4.186   1.580
 2486W        W 6550   6.149   9.091   3.224
 2487W        W 6551   8.656   3.574   9.002
 2488W        W 6552  10.474   5.312   0.383
 2489W        W 6553   8.943   2.509   1.498
 2490W        W 6554   6.484   1.941   8.708
 2491W        W 6555   6.151   7.813   3.174
 2492W        W 6556  10.007   9.227   0.845
 2493W        W 6557  10.459   8.003  10.253
 2494W        W 6558   7.966   7.308   0.807
 2495W        W 6559   3.279   9.963   8.857
 2496W        W 6560   5.984   9.122   9.532
 2497W        W 6561   8.831   0.429   3.063
 2498W        W 6562   4.405   7.053   8.439
 2499W        W 6563   1.170   8.524   2.282
 2500W        W 6564   8.626   7.066  11.801
 2501W        W 6565   5.233   8.687   1.150
 2502W        W 6566   3.663   3.843   3.116
 2503W        W 6567   6.042   1.219   1.693
 2504W        W 6568  10.371   5.638   3.126
 2505W        W 6569   3.278   0.256   2.137
 2506W        W 6570  10.408   5.749   0.691
 2507W        W 6571   9.394   2.700   3.303
 2508W        W 6572  10.072   3.038   0.365
 2509W        W 6573   1.708   7.060   3.207
 2510W        W 6574   3.617   6.725   0.687
 2511W        W 6575   8.164   7.099   9.735
 2512W        W 6576   4.208   7.037   2.335
 2513W        W 6577   5.634   8.924   9.179
 2514W        W 6578   9.308   3.320   1.410
 2515W        W 6579   8.824   7.150   2.189
 2516W        W 6580   3.524   7.505   0.026
 2517W        W 6581   2.785   6.451   1.361
 2518W        W 6582   3.063   3.150   0.902
 2519W        W 6583   8.592   3.309   0.626
 2520W        W 6584   7.459   1.383   9.170
 2521W        W 6585   0.489   9.428  10.571
 2522W        W 6586   7.389   6.741   1.531
 2523W        W 6587   5.215   4.010   4.268
 2524W        W 6588   1.260   9.431   1.757
 2525W        W 6589   8.034   3.802   9.816
 2526W        W 6590   8.146   7.069   9.194
 2527W        W 6591   1.261   0.488   9.485
 2528W        W 6592   5.594   3.179   1.011
 2529W        W 6593   1.681   2.196   0.941
 2530W        W 6594   8.474   0.162   3.469
 2531W        W 6595   2.861   8.356   1.228
 2532W        W 6596   5.461   9.898   8.583
 2533W        W 6597   0.769   6.123  10.377
 2534W        W 6598   6.695   0.130   3.358
 2535W        W 6599   2.312   6.253   1.256
 2536W        W 6600   8.451   2.179   3.286
 2537W        W 6601   2.239   0.440  10.717
 2538W        W 6602   3.160   2.758   2.810
 2539W        W 6603   0.348   0.188   2.006
 2540W        W 6604   7.488   7.697  10.068
 2541W        W 6605   6.993   8.400   9.078
 2542W        W 6606   7.286   9.566   3.396
 2543W        W 6607   2.386   0.797  10.384
 2544W        W 6608   4.697   8.370   1.929
 2545W        W 6609   5.562   8.120  11.767
 2546W        W 6610   0.193   3.615  11.500
 2547W        W 6611   8.894   9.121  11.084
 2548W        W 6612  10.379   6.505  10.525
 2549W        W 6613   0.344   2.827   8.810
 2550W        W 6614   0.042   1.652   9.897
 2551W        W 6615   1.425  10.040  11.232
 2552W        W 6616   4.484   5.176   1.540
 2553W        W 6617   6.126   2.549   2.161
 2554W        W 6618   3.250   0.904  11.934
 2555W        W 6619   2.142   6.643   9.848
 2556W        W 6620   8.072   4.122   1.830
 2557W        W 6621   8.024   8.194   2.534
 2558W        W 6622   7.067   8.577  10.507
 2559W        W 6623   7.607   2.303   1.687
 2560W        W 6624   9.317   4.063   2.736
 2561W        W 6625   9.977   4.229   0.957
 2562W        W 6626   7.472   9.446   0.430
 2563W        W 6627   9.051   0.775   0.772
 2564W        W 6628   3.078   5.622  10.343
 2565W        W 6629   6.484   5.429   8.606
 2566W        W 6630   5.681   3.026  11.948
 2567W        W 6631   4.260   0.791   1.393
 2568W        W 6632   2.769   9.276  11.263
 2569W        W 6633   3.610   2.733  11.257
 2570W        W 6634   7.182   9.360   0.932
 2571W        W 6635   5.695   1.876   9.977
 2572W        W 6636   3.678   2.129   0.549
 2573W        W 6637   0.016   5.198   9.061
 2574W        W 6638   4.654   9.824  11.268
 2575W        W 6639  10.112   4.997   1.981
 2576W        W 6640   7.466   9.301   1.765
 2577W        W 6641   4.283   7.591  10.797
 2578W        W 6642   3.182   4.584  11.919
 2579W        W 6643  10.197   4.969  10.502
 2580W        W 6644   5.593   5.531  11.240
 2581W        W 6645   0.490   4.607   2.906
 2582W        W 6646   8.120   3.884   0.326
 2583W        W 6647   2.418   8.510   2.510
 2584W        W 6648   1.296   4.208   9.282
 2585W        W 6649   7.966   0.795  11.368
 2586W        W 6650   3.366   0.887   1.921
 2587W        W 6651   5.655   5.001   0.701
 2588W        W 6652   1.965   1.626   1.560
 2589W        W 6653   4.074   5.758   9.180
 2590W        W 6654   6.533   8.436   1.251
 2591W        W 6655   3.668   6.674   8.852
 2592W        W 6656   1.795   1.050   0.167
 2593W        W 6657   5.145   7.353   3.047
 2594W        W 6658   6.124   8.645   2.928
 2595W        W 6659   1.379   5.894   0.259
 2596W        W 6660   3.058   6.513  11.357
 2597W        W 6661   0.869   9.311   8.975
 2598W        W 6662   3.123   9.952  10.255
 2599W        W 6663   2.514   7.204   1.912
 2600W        W 6664   0.394   7.749  10.151
 2601W        W 6665   7.266   3.647   0.778
 2602W        W 6666   2.932   1.709   1.445
 2603W        W 6667   1.949   3.082   3.223
 2604W        W 6668   3.731   1.879  10.752
 2605W        W 6669   9.364   2.853  10.388
 2606W        W 6670   0.842   1.379   1.457
 2607W        W 6671   1.314   3.486   2.013
 2608W        W 6672   3.055   8.810   2.420
 2609W        W 6673  10.285   9.856  10.305
 2610W        W 6674   3.773  10.438  11.715
 2611W        W 6675   1.400   5.190   9.189
 2612W        W 6676   1.322   8.302   0.064
 2613W        W 6677   6.092   4.779  10.180
 2614W        W 6678   1.345   2.347   3.572
 2615W        W 6679   3.462   5.020   3.647
 2616W        W 6680   3.983   5.724   0.167
 2617W        W 6681   6.692   3.666  10.508
 2618W        W 6682   8.465   1.862   9.891
 2619W        W 6683   2.719   6.728   2.749
 2620W        W 6684   4.251   9.868   0.714
 2621W        W 6685   8.184   6.509   1.295
 2622W        W 6686   8.959   0.103   9.510
 2623W        W 6687   5.067   9.402  10.235
 2624W        W 6688   6.514  10.303  11.102
 2625W        W 6689   7.210   7.266  11.786
 2626W        W 6690   6.591   1.240  11.016
 2627W        W 6691   2.027   1.846  11.223
 2628W        W 6692   9.567   5.504  10.772
 2629W        W 6693   0.513   4.638   2.355
 2630W        W 6694   9.415   4.737   1.563
 2631W        W 6695   8.468   4.266   8.999
 2632W        W 6696   8.317   8.786  10.446
 2633W        W 6697   6.749   8.439   9.630
 2634W        W 6698   6.469   8.074   9.418
 2635W        W 6699   2.253   3.400  11.969
 2636W        W 6700   6.452   7.914   9.915
 2637W        W 6701   0.732   5.414   2.809
 2638W        W 6702   2.784   0.742   8.585
 2639W        W 6703   8.607   0.485  10.807
 2640W        W 6704   7.495   6.216  11.502
 2641W        W 6705   1.964   0.829  10.931
 2642W        W 6706   6.074   9.956   3.293
 2643W        W 6707   8.909  10.404   2.178
 2644W        W 6708   6.425   5.513  11.659
 2645W        W 6709   7.055   4.440   9.399
 2646W        W 6710   8.608   5.911   0.461
 2647W        W 6711   5.807   9.920   0.883
 2648W        W 6712   1.959   3.885   2.645
 2649W        W 6713   7.386   2.246  11.237
 2650W        W 6714   5.677   7.844   1.897
 2651W        W 6715  10.344   0.764   8.639
 2652W        W 6716   1.462   8.467   8.677
 2653W        W 6717   9.831   3.855   0.653
 2654W        W 6718   0.875   2.211  11.733
 2655W        W 6719   9.732   0.265  11.734
 2656W        W 6720   2.135   0.848   3.332
 2657W        W 6721   4.837   6.876   1.890
 2658W        W 6722   0.268  10.378   0.316
 2659W        W 6723   1.628   0.744   9.974
 2660W        W 6724   9.240   2.725   0.206
 2661W        W 6725   8.850   0.682   2.104
 2662W        W 6726   4.412   6.585   8.180
 2663W        W 6727   4.023   2.893   9.031
 2664W        W 6728   8.558   3.361  10.767
 2665W        W 6729   9.951   3.526  10.533
 2666W        W 6730   8.885   4.537   9.164
 2667W        W 6731   0.491   9.050   1.673
 2668W        W 6732   5.144   0.414   0.199
 2669W        W 6733   8.230   8.102   8.613
 2670W        W 6734   4.395   1.652   3.620
 2671W        W 6735   7.707   0.318   9.405
 2672W        W 6736   8.901   4.714   3.113
 2673W        W 6737   3.816   5.365  11.864
 2674W        W 6738   2.835   2.106   1.748
 2675W        W 6739   7.528  10.481   9.016
 2676W        W 6740   2.533  10.168   9.348
 2677W        W 6741   7.822   5.306   0.807
 2678W        W 6742   6.551   7.719  11.822
 2679W        W 6743   3.093   4.294   9.264
 2680W        W 6744   4.788   7.342   0.377
 2681W        W 6745   7.916   8.026  11.803
 2682W        W 6746   3.800   3.319  10.540
 2683W        W 6747   2.191   5.703   9.049
 2684W        W 6748   0.015   6.104  11.881
 2685W        W 6749  10.199   0.316   2.556
 2686W        W 6750   3.219   9.111   9.950
 2687W        W 6751   9.438   4.734   1.037
 2688W        W 6752   6.005   1.244   2.221
 2689W        W 6753   8.729   6.700   8.725
 2690W        W 6754   2.848   2.873  10.810
 2691W        W 6755   5.087   8.144  11.901
 2692W        W 6756   9.308   2.863   0.678
 2693W        W 6757   1.377   4.173   1.449
 2694W        W 6758   7.423   9.508  10.260
 2695W        W 6759   4.080   0.588  10.362
 2696W        W 6760   4.229   1.898   8.887
 2697W        W 6761   8.941   5.612   2.972
 2698W        W 6762   4.503   2.838  10.581
 2699W        W 6763   2.825   4.588   2.031
 2700W        W 6764   7.659   8.494  11.142
 2701W        W 6765  10.275   2.374   1.990
 2702W        W 6766  10.260  10.403   0.337
 2703W        W 6767  10.168   2.672  11.506
 2704W        W 6768   7.873   2.253   9.012
 2705W        W 6769   8.095   0.915  11.889
 2706W        W 6770   4.100   5.146   2.806
 2707W        W 6771   3.251   4.662   8.456
 2708W        W 6772   8.507  10.231  10.426
 2709W        W 6773   8.120   5.694   9.786
 2710W        W 6774   3.186   3.965   3.447
 2711W        W 6775   9.510   6.229   1.231
 2712W        W 6776   5.006   1.263   9.707
 2713W        W 6777   3.056   8.296   3.152
 2714W        W 6778   0.405  10.010  11.391
 2715W        W 6779   0.702   4.803   9.248
 2716W        W 6780   1.803   4.674   3.073
 2717W        W 6781   8.362  10.124   3.575
 2718W        W 6782   2.443   8.211  11.257
 2719W        W 6783   7.141  10.462   1.750
 2720W        W 6784   2.869   1.856  10.999
 2721W        W 6785   1.168   5.097   0.883
 2722W        W 6786   6.396   5.277  10.830
 2723W        W 6787   5.656   6.535   2.236
 2724W        W 6788   4.538   1.472  10.434
 2725W        W 6789   2.466   1.215   2.645
 2726W        W 6790   4.136   7.404   9.922
 2727W        W 6791   5.452   1.298   8.919
 2728W        W 6792   3.716   6.010   2.215
 2729W        W 6793   6.121   0.799   1.973
 2730W        W 6794   0.283   6.347   9.761
 2731W        W 6795   6.190   8.509  11.411
 2732W        W 6796  10.325   8.973   1.168
 2733W        W 6797   4.227   2.473   3.457
 2734W        W 6798   7.662   1.178  10.090
 2735W        W 6799  10.185   2.626   0.686
 2736W        W 6800   3.662   6.517   1.180
 2737W        W 6801   6.255   6.928   2.840
 2738W        W 6802   9.016   1.296   0.746
 2739W        W 6803   9.116   7.924   2.067
 2740W        W 6804   2.794   8.999   1.687
 2741W        W 6805   2.641   1.481  11.816
 2742W        W 6806   0.307   9.457   1.999
 2743W        W 6807   1.305   6.853   0.442
 2744W        W 6808   4.781   2.143   3.596
 2745W        W 6809  10.229   3.062   1.214
 2746W        W 6810   5.507   3.794   9.968
 2747W        W 6811   7.815   4.224  10.038
 2748W        W 6812   4.869   1.679  11.471
 2749W        W 6813   6.468  10.335   0.402
 2750W        W 6814   2.530   1.883   0.968
 2751W        W 6815   7.003   7.895   8.849
 2752W        W 6816   0.307  10.204  10.943
 2753W        W 6817  10.457   6.112   9.393
 2754W        W 6818   3.780   7.929  11.872
 2755W        W 6819   1.209   0.896   0.822
 2756W        W 6820   5.210   1.362   3.384
 2757W        W 6821   2.292   5.239   1.407
 2758W        W 6822   2.739   4.994   1.345
 2759W        W 6823   0.787   9.569   9.408
 2760W        W 6824   3.418   4.422   4.273
 2761W        W 6825   4.051   9.302  10.964
 2762W        W 6826   3.036   7.128  10.876
 2763W        W 6827   0.889   2.052   3.611
 2764W        W 6828   9.632   5.128   9.588
 2765W        W 6829   8.609   3.791   0.392
 2766W        W 6830   0.406  10.477   9.252
 2767W        W 6831   4.544   5.691  10.049
 2768W        W 6832   3.131  10.464   8.706
 2769W        W 6833   7.087   8.823   3.189
 2770W        W 6834   7.909   2.785   9.501
 2771W        W 6835   9.311   9.070  11.691
 2772W        W 6836   5.605   0.914   9.727
 2773W        W 6837   8.271   4.194  11.770
 2774W        W 6838   8.837   5.469   9.144
 2775W        W 6839   5.000   3.531   4.266
 2776W        W 6840   4.391   4.299  11.335
 2777W        W 6841   9.500   5.933  11.801
 2778W        W 6842   2.753   4.380   9.772
 2779W        W 6843   2.180   6.059   3.215
 2780W        W 6844   5.147   1.079   1.411
 2781W        W 6845   7.772  10.416   9.849
 2782W        W 6846   4.670   2.197   8.849
 2783W        W 6847   0.409   0.010   9.777
 2784W        W 6848   8.498   0.785   2.821
 2785W        W 6849   6.548   7.405  11.415
 2786W        W 6850   4.376   8.774  11.645
 2787W        W 6851   3.787   9.941   0.950
 2788W        W 6852   8.417   2.642   2.015
 2789W        W 6853   9.567   8.661   1.611
 2790W        W 6854   2.086   9.400  10.510
 2791W        W 6855   0.043   4.535   2.579
 2792W        W 6856   8.425   4.737   3.305
 2793W        W 6857   8.468   9.707   8.531
 2794W        W 6858   2.679   7.848  10.822
 2795W        W 6859   4.425   1.993   1.001
 2796W        W 6860   6.074   7.678   2.679
 2797W        W 6861   1.697   6.349   9.867
 2798W        W 6862   7.984   0.342   1.101
 2799W        W 6863   1.828   0.479   1.221
 2800W        W 6864   8.066   1.445   9.864
 2801W        W 6865   7.430   2.655  10.016
 2802W        W 6866   8.906   3.970   2.451
 2803W        W 6867   3.172   0.226   3.225
 2804W        W 6868   9.957   5.659  11.055
 2805W        W 6869   2.870   5.656   3.461
 2806W        W 6870   8.800   4.216   9.996
 2807W        W 6871   9.888   7.078  11.127
 2808W        W 6872   8.389   5.836   2.673
 2809W        W 6873   8.374   3.533   2.328
 2810W        W 6874   4.593   2.756   9.594
 2811W        W 6875   4.505   6.147   9.836
 2812W        W 6876   0.401   9.786   0.762
 2813W        W 6877   0.498   4.622  11.048
 2814W        W 6878   1.740   4.614   1.483
 2815W        W 6879   5.269   8.399   9.869
 2816W        W 6880   5.492   4.632   1.737
 2817W        W 6881   0.927   4.443   8.968
 2818W        W 6882   2.806   8.609   8.851
 2819W        W 6883   0.983   0.987  10.714
 2820W        W 6884   0.344   7.514   9.690
 2821W        W 6885   4.772   4.588   2.982
 2822W        W 6886   5.108   5.917   1.831
 2823W        W 6887   8.423   4.245  10.334
 2824W        W 6888   6.985   9.406   1.959
 2825W        W 6889   2.259   6.487   3.505
 2826W        W 6890   5.246   1.396  11.178
 2827W        W 6891   7.414   4.198   0.487
 2828W        W 6892   0.321   8.873   2.683
 2829W        W 6893   2.446   0.261   1.024
 2830W        W 6894   7.882   1.368   2.577
 2831W        W 6895   8.221   6.008   2.213
 2832W        W 6896  10.216   8.889  10.275
 2833W        W 6897   1.367   8.812  10.908
 2834W        W 6898   4.252   1.248  10.969
 2835W        W 6899   1.881   8.448   1.203
 2836W        W 6900   3.922   8.802   9.501
 2837W        W 6901   5.236   2.359   3.699
 2838W        W 6902   0.833   9.023   1.146
 2839W        W 6903   7.400   1.817   1.855
 2840W        W 6904   7.637   9.522   8.750
 2841W        W 6905   5.911   0.387   8.596
 2842W        W 6906   8.028   3.831  11.474
 2843W        W 6907   1.319   4.462  10.958
 2844W        W 6908   0.421   4.973   0.686
 2845W        W 6909   8.898   5.802   0.066
 2846W        W 6910   6.979   1.350   8.980
 2847W        W 6911   7.802   9.858  11.159
 2848W        W 6912   6.863   8.550   0.409
 2849W        W 6913   5.158   0.840   9.965
 2850W        W 6914   5.592   5.017  10.342
 2851W        W 6915   3.633   8.576   9.947
 2852W        W 6916   8.784  10.370   1.673
 2853W        W 6917   2.571   3.571   0.326
 2854W        W 6918   8.481   1.443   9.562
 2855W        W 6919   5.031   5.692  10.910
 2856W        W 6920   8.580   9.112   1.005
 2857W        W 6921   3.357   2.649  11.694
 2858W        W 6922   0.122   7.406   2.317
 2859W        W 6923   5.685   2.155  10.421
 2860W        W 6924   5.920   6.065   9.032
 2861W        W 6925   9.476   6.633   9.722
 2862W        W 6926   1.172   4.689   9.940
 2863W        W 6927   9.385   2.292   2.508
 2864W        W 6928   4.696   4.647   8.906
 2865W        W 6929   4.211   2.752   2.676
 2866W        W 6930   3.124   5.319   1.391
 2867W        W 6931   0.893   7.025   2.238
 2868W        W 6932   8.417   0.271   0.245
 2869W        W 6933   1.742   1.241  10.737
 2870W        W 6934  10.416   8.102   0.530
 2871W        W 6935   7.187  10.003   9.705
 2872W        W 6936   3.563   2.862  10.530
 2873W        W 6937   4.140   4.772   4.174
 2874W        W 6938   3.937  10.315  10.342
 2875W        W 6939   0.445   9.976   9.351
 2876W        W 6940   6.091  10.423   2.179
 2877W        W 6941   6.564   8.580  10.595
 2878W        W 6942   2.459   0.581   8.972
 2879W        W 6943   5.622   6.001   1.976
 2880W        W 6944   7.591   4.024   1.940
 2881W        W 6945   9.483   8.564  11.813
 2882W        W 6946   1.902   0.330   9.812
 2883W        W 6947   8.836   7.542   1.847
 2884W        W 6948   7.582   4.193   3.324
 2885W        W 6949   3.234   7.859   9.037
 2886W        W 6950   3.702   8.703   0.398
 2887W        W 6951   1.255   2.360   8.671
 2888W        W 6952   1.212   2.422   0.945
 2889W        W 6953   3.755   9.063   9.906
 2890W        W 6954   0.357   3.250   0.299
 2891W        W 6955   4.368   2.631  11.732
 2892W        W 6956   0.260   7.425   9.194
 2893W        W 6957   8.543   7.507  10.624
 2894W        W 6958   5.261   6.179   2.280
 2895W        W 6959  10.390   0.431   0.659
 2896W        W 6960   1.356   1.204   9.958
 2897W        W 6961   6.947   5.620   8.177
 2898W        W 6962   4.211   8.273  11.713
 2899W        W 6963  10.363   5.439   2.159
 2900W        W 6964   4.470   6.537   8.978
 2901W        W 6965   4.235   4.908   9.095
 2902W        W 6966   1.386   8.471   1.300
 2903W        W 6967   3.464   5.368  11.501
 2904W        W 6968   3.246   3.327  10.451
 2905W        W 6969   3.648   4.035   9.920
 2906W        W 6970   1.791   9.872   1.708
 2907W        W 6971   4.025   2.099   9.361
 2908W        W 6972   9.362   7.517  10.106
 2909W        W 6973   7.563   0.607   3.569
 2910W        W 6974   2.045   9.613   2.364
 2911W        W 6975   0.619   5.377   0.976
 2912W        W 6976   0.394   3.325   8.971
 2913W        W 6977   6.659   6.036   8.278
 2914W        W 6978   2.435   1.678  10.798
 2915W        W 6979   9.224   7.529   0.810
 2916W        W 6980   8.968   1.203  11.887
 2917W        W 6981   6.039   4.676   9.535
 2918W        W 6982   3.116   5.675   9.405
 2919W        W 6983   6.736   6.420   0.416
 2920W        W 6984  10.495   0.753   9.111
 2921W        W 6985   5.513   1.803   3.018
 2922W        W 6986   3.777   5.478   9.806
 2923W        W 6987   6.949   9.357   9.516
 2924W        W 6988   5.798   7.431   8.490
 2925W        W 6989   8.467   9.366   1.447
 2926W        W 6990   2.132   8.871  10.535
 2927W        W 6991   1.703   9.384   1.490
 2928W        W 6992   9.894   5.890   3.274
 2929W        W 6993   0.995   9.400   3.311
 2930W        W 6994   6.515   4.215   3.741
 2931W        W 6995   6.517   8.916  10.990
 2932W        W 6996   6.776   3.622   0.855
 2933W        W 6997   1.752   3.567  11.936
 2934W        W 6998   1.509   8.043   1.021
 2935W        W 6999   0.767   5.693   1.946
 2936W        W 7000   1.716   1.765   2.860
 2937W        W 7001   7.232   6.720   9.365
 2938W        W 7002   2.174   5.688  11.382
 2939W        W 7003   4.773   9.945  10.783
 2940W        W 7004   7.808   5.096  10.353
 2941W        W 7005   9.758   5.024   0.429
 2942W        W 7006   3.417   8.830   9.546
 2943W        W 7007  10.411   8.862  11.732
 2944W        W 7008   6.457   5.604   9.904
 2945W        W 7009   1.167   4.044   2.836
 2946W        W 7010   9.482   9.134   1.818
 2947W        W 7011   1.854  10.253   9.231
 2948W        W 7012   8.370   4.662  11.953
 2949W        W 7013   4.057  10.462   0.165
 2950W        W 7014   2.572   1.613   1.814
 2951W        W 7015   0.300   9.094   9.830
 2952W        W 7016   8.494   1.219   0.067
 2953W        W 7017   5.068  10.387   0.903
 2954W        W 7018   7.447   0.340   9.841
 2955W        W 7019   6.040   9.539   2.997
 2956W        W 7020   8.787   4.524  11.008
 2957W        W 7021   8.506   4.707  10.054
 2958W        W 7022   0.973   2.614   0.055
 2959W        W 7023   6.678   2.410   1.313
 2960W        W 7024   3.841   2.212   0.060
 2961W        W 7025   7.044   4.676   2.404
 2962W        W 7026   5.996   6.165  10.896
 2963W        W 7027   2.479   3.078   3.347
 2964W        W 7028   6.611   7.262   9.106
 2965W        W 7029  10.260   8.775   0.699
 2966W        W 7030   4.116   0.010  11.320
 2967W        W 7031   2.643  10.432   0.682
 2968W        W 7032   7.933   6.371   8.558
 2969W        W 7033   2.711   9.034   2.725
 2970W        W 7034   0.716   2.183   9.515
 2971W        W 7035   5.999   3.748   1.824
 2972W        W 7036   2.144   2.862  10.405
 2973W        W 7037   7.623   6.071   7.792
 2974W        W 7038  10.436   3.864   3.257
 2975W        W 7039   1.363   1.199  11.050
 2976W        W 7040   2.623   8.389  11.746
 2977W        W 7041   2.873   4.170   2.344
 2978W        W 7042   1.370   7.179   2.303
 2979W        W 7043   9.320   4.270   9.042
 2980W        W 7044   9.053   7.117   8.696
 2981W        W 7045   9.929   5.732   0.943
 2982W        W 7046   7.521   6.792   2.447
 2983W        W 7047   7.126   5.202   7.924
 2984W        W 7048   4.099   3.650   9.350
 2985W        W 7049   2.168   7.960   3.018
 2986W        W 7050   8.571   0.237   8.861
 2987W        W 7051   0.301   8.418   2.232
 2988W        W 7052   9.597   8.095  11.415
 2989W        W 7053   2.817   9.544  10.326
 2990W        W 7054   3.858   2.671  11.768
 2991W        W 7055   8.858   7.299   2.696
 2992W        W 7056   2.340   2.553   0.186
 2993W        W 7057   8.309   8.759   3.240
 2994W        W 7058   1.776   3.316  10.531
 2995W        W 7059  10.376   0.585  10.980
 2996W        W 7060   1.136   0.692  10.002
 2997W        W 7061   9.436   1.299  11.319
 2998W        W 7062   9.515   6.081   9.479
 2999W        W 7063   6.116   4.228   1.716
 3000W        W 7064   5.448   7.091   8.238
 3001W        W 7065   5.584   9.342   2.827
 3002W        W 7066   0.908   8.162   1.696
 3003W        W 7067   4.627   7.517   0.825
 3004W        W 7068   4.122   3.798  10.378
 3005W        W 7069   0.263   0.723   0.451
 3006W        W 7070   3.665   7.463   1.348
 3007W        W 7071   3.841   5.200   8.075
 3008W        W 7072   1.238   8.547   1.784
 3009W        W 7073   4.768   2.243   1.725
 3010W        W 7074   6.525   2.230  10.977
 3011W        W 7075   8.963   8.203   2.478
 3012W        W 7076   9.098   3.718   3.436
 3013W        W 7077  10.442   3.799   9.344
 3014W        W 7078   6.607   8.179   0.770
 3015W        W 7079   8.867   9.474   0.280
 3016W        W 7080   5.651   8.369   9.009
 3017W        W 7081   2.231   3.747   9.289
 3018W        W 7082   9.136   6.505  10.075
 3019W        W 7083   3.356   3.159   9.583
 3020W        W 7084   5.244   1.800   9.359
 3021W        W 7085   3.992   8.025  10.764
 3022W        W 7086   6.915   4.257  10.867
 3023W        W 7087   0.851   8.001   3.259
 3024W        W 7088   8.337   9.742  10.410
 3025W        W 7089   5.003   7.115  10.467
 3026W        W 7090   0.956   0.927   0.017
 3027W        W 7091   0.890  10.410   9.069
 3028W        W 7092   7.823   4.018   8.977
 3029W        W 7093   3.709   5.475   3.960
 3030W        W 7094   6.531   2.639  11.396
 3031W        W 7095   8.764   7.651   3.564
 3032W        W 7096   6.928   1.780   0.220
 3033W        W 7097   1.240   3.962  10.927
 3034W        W 7098   4.043   3.048   8.491
 3035W        W 7099  10.401   9.744   1.912
 3036W        W 7100   3.061   2.625   0.097
 3037W        W 7101   0.388   1.012   3.585
 3038W        W 7102   0.048   2.642   2.807
 3039W        W 7103   7.591   2.241   2.195
 3040W        W 7104   1.296   8.104   3.033
 3041W        W 7105   9.441   7.336  11.100
 3042W        W 7106   1.749   4.356   3.499
 3043W        W 7107   3.143   1.818   2.452
 3044W        W 7108   4.402   2.002  11.401
 3045W        W 7109   4.518   1.277   8.911
 3046W        W 7110   2.196   0.681   0.899
 3047W        W 7111   9.963   5.857  10.090
 3048W        W 7112   9.366   3.795   9.322
 3049W        W 7113   3.442   4.303   3.154
 3050W        W 7114   6.647   1.132   3.157
 3051W        W 7115   9.352   1.997   9.380
 3052W        W 7116   5.646   0.324   0.475
 3053W        W 7117   8.384   7.351   0.342
 3054W        W 7118   3.705   4.629   3.912
 3055W        W 7119   0.835   6.165   1.775
 3056W        W 7120   0.217   5.579   8.749
 3057W        W 7121   9.026   6.229   0.379
 3058W        W 7122   8.736   3.540  10.250
 3059W        W 7123   8.574   6.931  11.279
 3060W        W 7124   9.876   6.610  11.944
 3061W        W 7125   3.830   4.642   2.931
 3062W        W 7126   4.951   9.023   0.362
 3063W        W 7127   6.712  10.053   9.863
 3064W        W 7128   6.230   5.902   8.641
 3065W        W 7129   8.991   7.473   1.349
 3066W        W 7130   5.561   7.959   0.799
 3067W        W 7131   5.313   3.102  10.399
 3068W        W 7132   5.957   1.388   0.697
 3069W        W 7133   5.786   3.639   0.940
 3070W        W 7134   1.391   6.361   0.438
 3071W        W 7135   3.646   3.109  11.576
 3072W        W 7136   0.551   6.418   2.923
 3073W        W 7137   4.642   6.983   0.934
 3074W        W 7138   0.833   6.903  11.843
 3075W        W 7139   9.434   3.787   0.953
 3076W        W 7140   7.528   1.170   2.921
 3077W        W 7141   7.023   2.151   1.030
 3078W        W 7142   8.910   4.035  10.991
 3079W        W 7143   3.586   7.570   8.782
 3080W        W 7144   3.261   0.751   9.277
 3081W        W 7145   3.684   4.166   1.083
 3082W        W 7146  10.348   7.452   1.743
 3083W        W 7147   6.054   9.939   1.316
 3084W        W 7148  10.417  10.355   9.073
 3085W        W 7149   8.617   8.080   0.587
 3086W        W 7150   7.585   7.579   1.016
 3087W        W 7151   5.351   7.500   8.743
 3088W        W 7152   2.217   1.417   2.197
 3089W        W 7153   6.456   4.061  10.764
 3090W        W 7154   9.929   8.429  10.406
 3091W        W 7155   1.616   4.273   2.737
 3092W        W 7156   2.381   8.148   1.908
 3093W        W 7157   8.369   3.128  11.811
 3094W        W 7158   6.731  10.230  11.949
 3095W        W 7159   9.914   3.533  10.022
 3096W        W 7160   5.249   4.535   1.279
 3097W        W 7161   3.019   1.809   3.579
 3098W        W 7162   0.950   4.092   8.522
 3099W        W 7163   7.174   8.087   3.552
 3100W        W 7164   6.845   8.343   3.182
 3101W        W 7165   5.539   6.375  10.731
 3102W        W 7166   2.129   8.949   3.229
 3103W        W 7167   6.049   8.542   1.383
 3104W        W 7168   1.862   4.537  11.991
 3105W        W 7169   9.977   0.391   9.721
 3106W        W 7170   6.107   8.160   2.799
 3107W        W 7171   3.891   5.931   4.107
 3108W        W 7172   5.067   5.145   9.590
 3109W        W 7173   7.012   9.008  10.793
 3110W        W 7174   8.917   1.713  10.083
 3111W        W 7175   7.322   0.952   1.561
 3112W        W 7176   9.878   4.816   9.014
 3113W        W 7177   2.840   2.727   3.240
 3114W        W 7178   7.886   2.457  10.047
 3115W        W 7179   4.692   1.069  10.709
 3116W        W 7180   7.126   5.690  10.506
 3117W        W 7181   2.736   3.159   2.476
 3118W        W 7182   6.008   5.245   9.965
 3119W        W 7183   1.346   6.669   2.516
 3120W        W 7184   7.826   5.201   3.220
 3121W        W 7185   9.763   1.729   9.482
 3122W        W 7186   6.530   3.149  11.217
 3123W        W 7187   7.052   0.924   3.471
 3124W        W 7188   5.985   0.033   0.238
 3125W        W 7189   7.420   8.525   0.382
 3126W        W 7190   8.447   4.811   8.953
 3127W        W 7191   8.608   5.745   1.269
 3128W        W 7192   8.926   6.458   2.445
 3129W        W 7193   7.477   2.649   2.485
 3130W        W 7194   3.729   5.092  11.131
 3131W        W 7195   3.006   9.390  10.794
 3132W        W 7196   4.044   0.433   9.238
 3133W        W 7197   4.013   1.840   2.300
 3134W        W 7198   8.144   0.538   1.954
 3135W        W 7199   8.143   5.555  10.286
 3136W        W 7200   3.790  10.369   3.228
 3137W        W 7201   5.139   9.026   9.454
 3138W        W 7202   0.171   3.099  11.537
 3139W        W 7203   8.827   5.060  10.891
 3140W        W 7204   0.886   9.979   0.675
 3141W        W 7205   5.454   5.115   3.190
 3142W        W 7206   7.903   0.770   9.193
 3143W        W 7207   9.563   1.212   9.778
 3144W        W 7208   2.279   4.345   9.063
 3145W        W 7209   9.304   8.044  11.856
 3146W        W 7210   5.131   9.957   3.039
 3147W        W 7211   5.582   5.360  10.754
 3148W        W 7212   2.259   6.592   2.536
 3149W        W 7213   5.687   2.147  11.486
 3150W        W 7214   5.920   1.401   9.098
 3151W        W 7215   7.704   5.167   8.424
 3152W        W 7216   9.858   0.228   3.402
 3153W        W 7217   0.504   4.201   8.767
 3154W        W 7218  10.402   2.328  10.376
 3155W        W 7219   4.823   6.931   3.000
 3156W        W 7220   9.441   1.011  10.890
 3157W        W 7221   9.915   9.352   1.936
 3158W        W 7222   3.688   2.648   8.695
 3159W        W 7223   7.909   6.824   8.788
 3160W        W 7224   4.670   5.262  11.296
 3161W        W 7225   1.876   7.554  11.650
 3162W        W 7226   4.599   7.297   3.303
 3163W        W 7227   6.226   6.420  11.881
 3164W        W 7228   8.514   5.566   2.185
 3165W        W 7229   0.794   0.321  11.311
 3166W        W 7230   5.175   2.316  11.506
 3167W        W 7231   5.008   8.461   3.483
 3168W        W 7232   2.645   0.830   9.944
 3169W        W 7233   8.744   7.691   2.362
 3170W        W 7234   1.050   1.911   9.901
 3171W        W 7235   8.399  10.371   9.188
 3172W        W 7236   6.046   3.761   2.710
 3173W        W 7237   9.831   9.999   2.646
 3174W        W 7238   7.424   9.810   2.955
 3175W        W 7239   6.900   5.194  10.726
 3176W        W 7240   9.449   3.693   3.047
 3177W        W 7241   4.175   7.254  10.414
 3178W        W 7242   8.548   7.825  10.236
 3179W        W 7243   9.343   1.098   3.176
 3180W        W 7244   1.356   2.764   9.964
 3181W        W 7245   2.172   3.977  10.815
 3182W        W 7246   2.219   5.437   0.366
 3183W        W 7247   4.777   2.752   1.456
 3184W        W 7248   6.197   5.588   9.469
 3185W        W 7249   6.920   0.236  11.769
 3186W        W 7250   0.617   6.332   8.523
 3187W        W 7251   1.827   3.409   9.337
 3188W        W 7252   5.126   6.120   9.597
 3189W        W 7253   6.416   5.104  11.320
 3190W        W 7254   2.335   5.548  10.896
 3191W        W 7255   8.689   5.528  10.574
 3192W        W 7256   0.749   7.445  11.057
 3193W        W 7257   4.534   1.751   0.550
 3194W        W 7258   1.944   2.733   1.560
 3195W        W 7259   0.756   5.191   3.266
 3196W        W 7260   8.612   7.581  11.950
 3197W        W 7261   9.690   1.299   3.498
 3198W        W 7262   2.422   9.119   0.286
 3199W        W 7263   6.003   6.567   8.980
 3200W        W 7264   4.694   2.438  11.396
 3201W        W 7265   2.289   9.143  10.944
 3202W        W 7266   9.072   0.252  10.979
 3203W        W 7267   1.036   1.247   0.498
 3204W        W 7268   7.185   6.091   8.081
 3205W        W 7269   0.527   0.319   3.233
 3206W        W 7270   9.131   8.408   1.498
 3207W        W 7271   6.960   5.949   3.598
 3208W        W 7272   8.339   7.076  10.247
 3209W        W 7273   1.419   3.532  11.118
 3210W        W 7274   3.725   3.585  11.430
 3211W        W 7275   8.102   1.854   9.538
 3212W        W 7276   1.235   2.362   2.286
 3213W        W 7277   5.245   2.408   1.642
 3214W        W 7278   1.264   1.983   2.666
 3215W        W 7279   8.898   9.849   9.738
 3216W        W 7280   9.874  10.458   2.403
 3217W        W 7281   3.408   9.891   0.512
 3218W        W 7282   4.530   5.549  10.878
 3219W        W 7283   3.823   4.383   0.602
 3220W        W 7284   5.310   2.853   0.715
 3221W        W 7285   7.907   7.938   9.009
 3222W        W 7286   0.186   6.444   0.220
 3223W        W 7287   5.226   6.708  10.980
 3224W        W 7288   3.491   5.513   4.417
 3225W        W 7289   7.840   4.415   1.013
 3226W        W 7290   4.740   5.572   3.482
 3227W        W 7291   9.834   3.639   2.220
 3228W        W 7292   7.993   1.319  11.365
 3229W        W 7293   2.172   5.227   2.515
 3230W        W 7294   5.789   0.350   0.965
 3231W        W 7295   0.236   9.074   3.172
 3232W        W 7296   0.930   8.273   9.331
 3233W        W 7297   3.849   8.293   2.788
 3234W        W 7298   2.741  10.461   2.713
 3235W        W 7299   8.642   5.039   1.761
 3236W        W 7300   3.571   3.063   0.952
 3237W        W 7301  10.019   0.787   2.696
 3238W        W 7302   6.133   4.332  10.490
 3239W        W 7303   8.455   4.099   3.265
 3240W        W 7304   0.018  10.378   8.552
 3241W        W 7305   7.368   3.528   9.497
 3242W        W 7306   9.275   8.078   1.137
 3243W        W 7307   5.548   5.231   8.966
 3244W        W 7308   4.183   8.525  10.711
 3245W        W 7309   1.935   0.240   0.781
 3246W        W 7310   1.003   0.795   2.696
 3247W        W 7311   2.685   0.219   8.676
 3248W        W 7312   8.421   9.073   9.753
 3249W        W 7313   9.952   7.558   0.257
 3250W        W 7314  10.301   9.342  11.726
 3251W        W 7315   0.242   4.702   9.022
 3252W        W 7316   3.768   9.429   1.142
 3253W        W 7317   4.725  10.336  11.099
 3254W        W 7318   2.703   6.008   1.055
 3255W        W 7319   2.427   0.377   0.526
 3256W        W 7320   9.345   0.852  10.398
 3257W        W 7321   5.995   9.538  11.505
 3258W        W 7322   0.740   1.460  10.778
 3259W        W 7323   6.888   7.213  10.453
 3260W        W 7324   6.153   7.494   9.824
 3261W        W 7325  10.063   1.789   0.780
 3262W        W 7326   6.230   3.953   9.252
 3263W        W 7327   8.515   6.682   9.863
 3264W        W 7328   2.176   0.541   2.335
 3265W        W 7329   4.068   8.415   3.255
 3266W        W 7330   4.151   5.634   3.714
 3267W        W 7331   1.332   3.228   9.257
 3268W        W 7332   8.953   3.202   2.803
 3269W        W 7333   9.191   2.267  11.307
 3270W        W 7334   8.959   5.441   1.507
 3271W        W 7335   6.219   4.462  11.041
 3272W        W 7336   0.409   3.213  10.814
 3273W        W 7337   5.626   6.152   3.795
 3274W        W 7338   1.702   8.946   2.800
 3275W        W 7339   8.013   5.571   2.901
 3276W        W 7340   5.660   1.206  11.443
 3277W        W 7341   2.913   5.440   2.469
 3278W        W 7342   0.505  10.240   2.442
 3279W        W 7343   1.909   8.425   9.078
 3280W        W 7344   3.113   6.151  10.977
 3281W        W 7345   3.249   5.321   9.770
 3282W        W 7346   7.823   3.651   1.620
 3283W        W 7347   6.779  10.067   0.801
 3284W        W 7348   1.175   0.509  10.515
 3285W        W 7349   0.251  10.097  10.058
 3286W        W 7350   0.966  10.379   2.737
 3287W        W 7351   3.309   8.942  10.799
 3288W        W 7352   8.125   8.929   8.948
 3289W        W 7353  10.360   8.361  11.751
 3290W        W 7354   2.152   2.766  11.374
 3291W        W 7355   6.380   0.893   1.246
 3292W        W 7356   0.782   9.459   1.411
 3293W        W 7357   6.588   8.218   8.804
 3294W        W 7358   7.528   8.670   9.746
 3295W        W 7359   6.245  10.105   0.009
 3296W        W 7360   9.539   1.936   0.982
 3297W        W 7361   0.848   6.513   1.390
 3298W        W 7362  10.372   2.411  10.871
 3299W        W 7363   6.945  10.374   2.220
 3300W        W 7364   1.875   2.350   1.912
 3301W        W 7365   1.986   4.595   9.885
 3302W        W 7366   5.167   9.452   3.179
 3303W        W 7367   5.441   0.948   3.567
 3304W        W 7368   8.960   3.239   9.813
 3305W        W 7369  10.191   4.908   0.215
 3306W        W 7370   3.873   7.789   2.737
 3307W        W 7371   3.822   8.226   0.442
 3308W        W 7372   8.686   9.975   9.306
 3309W        W 7373   4.617   6.877   1.430
 3310W        W 7374   3.800   5.941  10.507
 3311W        W 7375   9.286   4.440  11.021
 3312W        W 7376   8.333   7.585   9.853
 3313W        W 7377   9.881   4.616   1.281
 3314W        W 7378   9.480   7.628   1.251
 3315W        W 7379   3.180   4.018   0.871
 3316W        W 7380   2.896   4.390   0.546
 3317W        W 7381   0.483   2.798  11.126
 3318W        W 7382   8.810   2.589  11.589
 3319W        W 7383   8.169   6.018   0.188
 3320W        W 7384   3.399   0.281  11.688
 3321W        W 7385   6.461   7.938   1.243
 3322W        W 7386   0.786   3.503   1.526
 3323W        W 7387   9.512   6.669  11.178
 3324W        W 7388   6.494   5.669   0.633
 3325W        W 7389   7.453   9.815   0.048
 3326W        W 7390   4.292   0.844   2.045
 3327W        W 7391   3.682   2.297  11.034
 3328W        W 7392   7.811   4.829   0.647
 3329W        W 7393  10.316   1.334   0.795
 3330W        W 7394   4.625   3.217   1.313
 3331W        W 7395   8.034   0.880   8.689
 3332W        W 7396   2.003   1.737   3.468
 3333W        W 7397   5.940   4.052  10.910
 3334W        W 7398   4.097   8.404   8.694
 3335W        W 7399   8.784   4.299  11.891
 3336W        W 7400   6.016   5.121   8.750
 3337W        W 7401   1.519   9.454   2.595
 3338W        W 7402   2.210   8.925   2.723
 3339W        W 7403   8.052   8.407  10.218
 3340W        W 7404   1.037   0.244   3.133
 3341W        W 7405   7.311   4.009   9.984
 3342W        W 7406   1.687   2.132   3.224
 3343W        W 7407   0.917   5.265   9.289
 3344W        W 7408   8.151   5.063   1.606
 3345W        W 7409   2.553   9.924   3.341
 3346W        W 7410   5.457   4.824  11.831
 3347W        W 7411  10.340   9.845   3.293
 3348W        W 7412  10.464   6.128   1.493
 3349W        W 7413   4.258   7.496   2.556
 3350W        W 7414   6.614   9.758   2.129
 3351W        W 7415  10.415   1.425  11.886
 3352W        W 7416   8.965   7.062   1.678
 3353W        W 7417   0.264   9.462   1.474
 3354W        W 7418   7.873   3.566   2.144
 3355W        W 7419   2.969   5.111   0.001
 3356W        W 7420   5.480   6.559   8.929
 3357W        W 7421   6.050   2.250   8.767
 3358W        W 7422   3.823   7.117   8.609
 3359W        W 7423   3.822   8.903  10.743
 3360W        W 7424   8.114   8.961   0.879
 3361W        W 7425   5.208   2.666  10.097
 3362W        W 7426   0.984   9.488  10.566
 3363W        W 7427   3.146   1.368  11.799
 3364W        W 7428   7.473   5.592   8.086
 3365W        W 7429   6.724  10.476  10.150
 3366W        W 7430   6.699   5.062   2.289
 3367W        W 7431   0.311   0.290   2.490
 3368W        W 7432   6.899   9.422  11.054
 3369W        W 7433   5.988   8.965   2.226
 3370W        W 7434  10.137   4.271   9.350
 3371W        W 7435   9.169   6.445   2.903
 3372W        W 7436   7.123   1.901  10.462
 3373W        W 7437   5.950   5.123  11.031
 3374W        W 7438   2.688   5.524   1.229
 3375W        W 7439   6.953   2.514  11.055
 3376W        W 7440   9.511   1.168   1.817
 3377W        W 7441   1.761   0.343  10.886
 3378W        W 7442   4.949  10.070  11.596
 3379W        W 7443   6.473   3.098   9.815
 3380W        W 7444   1.197   3.956   0.575
 3381W        W 7445   0.439   6.246   1.154
 3382W        W 7446   5.145   5.736   0.758
 3383W        W 7447   2.582   8.634  10.484
 3384W        W 7448   9.556   9.542   2.847
 3385W        W 7449   1.329   7.040  11.955
 3386W        W 7450   2.332   8.068   8.704
 3387W        W 7451   6.433   8.860   1.967
 3388W        W 7452   9.352   8.653   0.568
 3389W        W 7453  10.343   5.030   2.912
 3390W        W 7454   4.668   7.779   3.209
 3391W        W 7455   7.555   8.067  11.433
 3392W        W 7456   4.714   7.051  11.955
 3393W        W 7457   3.350   2.174   0.142
 3394W        W 7458   4.663   9.407   2.453
 3395W        W 7459   4.976   9.066   0.901
 3396W        W 7460   1.109  10.483   1.838
 3397W        W 7461   6.330   9.284  11.797
 3398W        W 7462   4.547   0.863   8.140
 3399W        W 7463   8.108   6.716  11.048
 3400W        W 7464  10.374   2.322   3.486
 3401W        W 7465   8.733   8.090   8.825
 3402W        W 7466   4.678   3.629  10.623
 3403W        W 7467   7.231   4.728   8.987
 3404W        W 7468   4.146   8.145   1.156
 3405W        W 7469   3.533   5.604   1.467
 3406W        W 7470   8.452   2.165   2.772
 3407W        W 7471  10.341   1.817   3.385
 3408W        W 7472   6.535   6.113  10.420
 3409W        W 7473   8.996   2.371   3.312
 3410W        W 7474   4.246   4.913   0.481
 3411W        W 7475   5.061   7.600  11.536
 3412W        W 7476   8.866   0.623  11.261
 3413W        W 7477   5.126   0.500   3.548
 3414W        W 7478   2.046   8.895   9.306
 3415W        W 7479   5.588   1.411   2.534
 3416W        W 7480   5.048   4.307   1.685
 3417W        W 7481   7.140  10.466   3.652
 3418W        W 7482   9.400   4.539  11.649
 3419W        W 7483   4.602   1.502   1.011
 3420W        W 7484   6.595  10.381  10.618
 3421W        W 7485   6.494   3.538   9.483
 3422W        W 7486   6.100   5.111   0.412
 3423W        W 7487   2.870   1.322   3.573
 3424W        W 7488   4.462   8.590  10.287
 3425W        W 7489   3.478   1.908   3.405
 3426W        W 7490   5.736   5.551   3.189
 3427W        W 7491   7.049   7.364  11.134
 3428W        W 7492   7.398   3.388   0.281
 3429W        W 7493   3.681   5.983   1.141
 3430W        W 7494   6.299   6.417   8.582
 3431W        W 7495   5.382   1.724   2.158
 3432W        W 7496   4.751   2.174   2.251
 3433W        W 7497   1.058   7.875   0.770
 3434W        W 7498   7.192   8.376   2.247
 3435W        W 7499   5.943   5.625   1.730
 3436W        W 7500   7.981   0.921   3.354
 3437W        W 7501   5.443   4.316   8.959
 3438W        W 7502   7.717   6.381   1.402
 3439W        W 7503   6.040   6.018   3.277
 3440W        W 7504  10.174   3.181  11.451
 3441W        W 7505   9.897   7.043   1.352
 3442W        W 7506   8.037   6.687  10.042
 3443W        W 7507   9.844   1.867  11.419
 3444W        W 7508   6.421   5.154   0.009
 3445W        W 7509   9.419   5.428  11.772
 3446W        W 7510   4.066   0.434   2.780
 3447W        W 7511  10.301   4.422   0.210
 3448W        W 7512   1.807   2.155   9.271
 3449W        W 7513   0.259   0.422  11.697
 3450W        W 7514   1.306   1.386   0.997
 3451W        W 7515  10.353   5.189  10.913
 3452W        W 7516   4.375   2.599   1.145
 3453W        W 7517   1.736   8.440  10.030
 3454W        W 7518   4.790   4.520   1.011
 3455W        W 7519   1.266   6.765  11.539
 3456W        W 7520   3.251   7.389   3.161
 3457W        W 7521   1.256   1.401  10.553
 3458W        W 7522   1.404  10.379  10.823
 3459W        W 7523   0.420   3.767   0.394
 3460W        W 7524   3.737   7.996   8.489
 3461W        W 7525   2.516   1.230  11.401
 3462W        W 7526   5.110   4.605   2.108
 3463W        W 7527   2.860   9.357   0.251
 3464W        W 7528   3.918   1.874  11.238
 3465W        W 7529   9.425   4.685   8.728
 3466W        W 7530   2.852   8.465   9.364
 3467W        W 7531  10.278   5.197   1.249
 3468W        W 7532   6.080   0.934  11.445
 3469W        W 7533  10.371   7.733  10.868
 3470W        W 7534   3.228   0.348  10.272
 3471W        W 7535   4.718   0.456   0.499
 3472W        W 7536   6.931   5.767  10.045
 3473W        W 7537   7.212   9.026  11.695
 3474W        W 7538   6.524   7.777   1.722
 3475W        W 7539   1.600   9.441   9.639
 3476W        W 7540   4.290   6.109   2.440
 3477W        W 7541   8.572   6.810   2.501
 3478W        W 7542   5.183   0.352   0.707
 3479W        W 7543   8.514   0.415   9.942
 3480W        W 7544   1.428   7.243  11.451
 3481W        W 7545   9.982   6.992   9.069
 3482W        W 7546   7.113   7.390   8.665
 3483W        W 7547   4.175   9.358   8.794
 3484W        W 7548   2.608   6.661   1.833
 3485W        W 7549   6.198   2.319  11.776
 3486W        W 7550   5.003   3.336   1.795
 3487W        W 7551   9.329   6.635   0.487
 3488W        W 7552   8.871   2.848   1.918
 3489W        W 7553  10.277   7.428   9.002
 3490W        W 7554   4.914   6.380   8.195
 3491W        W 7555   9.823   5.705   2.809
 3492W        W 7556   7.959   1.414   3.098
 3493W        W 7557   5.554   6.118   8.667
 3494W        W 7558   0.311   8.115   9.808
 3495W        W 7559   1.015   2.698   1.924
 3496W        W 7560   8.427   8.557   1.811
 3497W        W 7561   6.822   6.487   8.479
 3498W        W 7562   1.058   2.603   1.409
 3499W        W 7563   7.424   0.016  11.399
 3500W        W 7564   9.548   2.029  10.819
 3501W        W 7565   8.361   5.207   9.968
 3502W        W 7566   2.062   7.405  10.615
 3503W        W 7567   0.262   2.721  10.661
 3504W        W 7568   5.745   3.886   0.093
 3505W        W 7569   2.834   7.867   0.447
 3506W        W 7570   7.475   0.498   8.992
 3507W        W 7571   3.177   1.508   3.190
 3508W        W 7572   2.397   0.627  11.842
 3509W        W 7573   4.697   6.380  10.251
 3510W        W 7574   2.111  10.359   1.855
 3511W        W 7575   3.328   5.061   8.776
 3512W        W 7576   9.116   8.670   2.801
 3513W        W 7577   8.468   7.424   9.403
 3514W        W 7578   4.266   0.786   8.952
 3515W        W 7579  10.470   9.789   9.312
 3516W        W 7580   1.300   8.891   9.990
 3517W        W 7581   7.401   3.549   1.912
 3518W        W 7582   1.663   5.719   9.214
 3519W        W 7583   5.630   2.194   0.928
 3520W        W 7584   6.835   9.113   0.606
 3521W        W 7585   6.054   7.474   0.790
 3522W        W 7586   4.189   2.230   0.451
 3523W        W 7587   5.158   5.158  10.567
 3524W        W 7588   9.656  10.402   1.425
 3525W        W 7589   4.060   1.219   9.122
 3526W        W 7590   0.441   1.871   9.067
 3527W        W 7591   3.024   7.394   8.862
 3528W        W 7592   1.453   7.587   1.861
 3529W        W 7593   6.474   4.090   8.027
 3530W        W 7594   7.685   5.879   1.440
 3531W        W 7595   6.896   2.187   0.529
 3532W        W 7596   8.431   4.643   1.487
 3533W        W 7597   9.008   3.647   0.677
 3534W        W 7598   3.284   6.965  11.286
 3535W        W 7599   7.396   7.052  11.326
 3536W        W 7600   5.543   1.249   2.039
 3537W        W 7601  10.414   8.735   2.218
 3538W        W 7602  10.259   1.519  10.707
 3539W        W 7603   0.344   8.859   1.205
 3540W        W 7604   2.901   1.162   1.957
 3541W        W 7605   2.616   3.599   1.636
 3542W        W 7606   3.157   5.777   1.137
 3543W        W 7607   8.436   8.400   0.237
 3544W        W 7608   0.344   0.522  11.179
 3545W        W 7609   9.866   3.746   2.728
 3546W        W 7610   2.357   8.635  10.959
 3547W        W 7611   0.351   6.758  11.708
 3548W        W 7612  10.408   7.055   1.405
 3549W        W 7613   4.110   6.156   3.685
 3550W        W 7614   3.875  10.426   2.707
 3551W        W 7615  10.029  10.449  11.492
 3552W        W 7616   6.032   9.095   2.715
 3553W        W 7617   0.019   9.920   0.391
 3554W        W 7618   8.573   1.892  11.201
 3555W        W 7619   9.110   6.504   0.959
 3556W        W 7620  10.450   5.660  10.119
 3557W        W 7621   4.528   6.432   0.697
 3558W        W 7622   8.138   4.874  11.498
 3559W        W 7623   9.546   5.025  11.478
 3560W        W 7624   9.464   3.574   0.458
 3561W        W 7625   7.556   6.026   3.468
 3562W        W 7626  10.386   1.173   9.381
 3563W        W 7627  10.469   4.772  11.793
 3564W        W 7628   5.331   9.498   3.667
 3565W        W 7629   8.361   9.866   3.131
 3566W        W 7630   5.077   9.509   9.744
 3567W        W 7631   4.700   8.395   2.581
 3568W        W 7632   5.838   4.024   9.600
 3569W        W 7633   6.484   6.209   3.521
 3570W        W 7634   8.637   8.568   2.680
 3571W        W 7635   1.695   6.520  11.557
 3572W        W 7636   5.507   7.831   1.377
 3573W        W 7637   8.875  10.321   3.474
 3574W        W 7638   0.881   3.189   1.943
 3575W        W 7639   2.858  10.314   3.183
 3576W        W 7640  10.334   9.068   2.843
 3577W        W 7641   4.243   3.181   0.374
 3578W        W 7642   5.435   9.894  11.524
 3579W        W 7643   9.761   0.432   8.692
 3580W        W 7644   6.883   0.094   0.261
 3581W        W 7645   3.731   4.635   3.417
 3582W        W 7646   8.580   6.904   9.414
 3583W        W 7647   7.608   6.070   8.828
 3584W        W 7648   8.809   0.053   0.436
 3585W        W 7649   4.415   5.950   3.323
 3586W        W 7650   2.061   5.216  11.195
 3587W        W 7651   7.673   4.110   1.438
 3588W        W 7652   1.585   1.305   1.444
 3589W        W 7653   7.668   8.521   2.360
 3590W        W 7654   6.896   5.108   8.812
 3591W        W 7655   1.797   6.030   1.256
 3592W        W 7656   0.973   2.827  11.112
 3593W        W 7657   5.917   5.132   2.928
 3594W        W 7658   5.484  10.366   8.866
 3595W        W 7659   2.181   3.342  10.209
 3596W        W 7660   9.717   0.321   2.918
 3597W        W 7661   6.143   8.488   2.399
 3598W        W 7662   2.275   1.749   3.023
 3599W        W 7663   6.014   7.944   9.601
 3600W        W 7664   7.617   3.115   2.270
 3601W        W 7665   7.434  10.105   3.409
 3602W        W 7666   4.495   3.614   0.527
 3603W        W 7667   3.843   6.688  10.929
 3604W        W 7668   6.955   1.250   2.693
 3605W        W 7669   1.487   8.318  10.833
 3606W        W 7670   8.269   9.887  11.392
 3607W        W 7671  10.402   0.271  11.373
 3608W        W 7672   9.406   9.161   9.105
 3609W        W 7673   6.451   2.607   9.548
 3610W        W 7674   3.625   1.269   8.856
 3611W        W 7675   5.961   9.020   0.677
 3612W        W 7676   9.329   9.887  11.308
 3613W        W 7677   4.197   6.659   3.750
 3614W        W 7678   4.670   9.178   8.690
 3615W        W 7679   0.103   1.883   2.586
 3616W        W 7680   7.161   9.693   8.876
 3617W        W 7681   6.686   4.487  11.266
 3618W        W 7682   0.909   6.593  10.559
 3619W        W 7683   9.003   4.276  11.426
 3620W        W 7684   6.527   7.677   0.825
 3621W        W 7685   9.740   2.681   2.500
 3622W        W 7686   8.094  10.419   2.758
 3623W        W 7687  10.039   0.079   8.417
 3624W        W 7688   6.401   9.282   2.291
 3625W        W 7689   4.122   4.278   8.546
 3626W        W 7690   1.139   6.442   2.093
 3627W        W 7691   1.985   8.954   1.366
 3628W        W 7692   4.218   7.005   8.919
 3629W        W 7693   2.120   0.779   1.875
 3630W        W 7694   9.964   0.823   8.995
 3631W        W 7695   6.979   5.033   3.466
 3632W        W 7696   5.236   5.288   0.963
 3633W        W 7697   8.789   9.927  11.273
 3634W        W 7698   8.590   5.682  10.036
 3635W        W 7699   4.720   0.830   9.174
 3636W        W 7700   4.296   9.481   0.372
 3637W        W 7701   0.362   9.488   9.094
 3638W        W 7702   5.659   8.297   1.683
 3639W        W 7703   7.036   4.503   2.896
 3640W        W 7704   4.694   8.128   8.979
 3641W        W 7705   2.127   5.567   1.817
 3642W        W 7706  10.290   3.588   2.465
 3643W        W 7707   5.557   2.263  10.979
 3644W        W 7708   7.471   5.639   8.600
 3645W        W 7709   5.134   3.536   2.283
 3646W        W 7710   0.695   9.441  11.986
 3647W        W 7711   0.906   5.998   8.772
 3648W        W 7712   7.323   8.908   2.382
 3649W        W 7713   3.745   7.952   0.904
 3650W        W 7714   1.820   3.424   2.141
 3651W        W 7715   0.815   0.748   0.502
 3652W        W 7716   6.929   3.453   1.295
 3653W        W 7717   3.845   3.202   0.027
 3654W        W 7718   8.078   7.896   9.502
 3655W        W 7719   4.313   0.147  10.449
 3656W        W 7720   0.957   4.690  11.229
 3657W        W 7721   5.410   6.611   8.031
 3658W        W 7722   3.717   4.837   0.423
 3659W        W 7723   2.868   5.953   1.551
 3660W        W 7724   7.174   8.087   0.296
 3661W        W 7725   3.170   1.373   0.690
 3662W        W 7726   5.023   6.657  11.830
 3663W        W 7727   8.021   1.247   1.395
 3664W        W 7728   7.087   3.590   2.790
 3665W        W 7729   1.183   9.839  10.245
 3666W        W 7730   5.085   0.875   0.466
 3667W        W 7731  10.465   6.648  10.060
 3668W        W 7732   6.079   5.980   0.833
 3669W        W 7733   7.128   0.466   1.531
 3670W        W 7734   4.294  10.432   3.138
 3671W        W 7735   4.032   1.774   0.706
 3672W        W 7736   0.475   9.518  11.494
 3673W        W 7737   6.044   3.642   8.890
 3674W        W 7738   0.520   2.799   1.947
 3675W        W 7739   8.908   7.112  10.699
 3676W        W 7740   9.084   2.165   1.106
 3677W        W 7741   6.825   8.045   2.029
 3678W        W 7742   5.717   7.570  10.929
 3679W        W 7743   0.761   0.528  10.844
 3680W        W 7744   5.499   6.910  11.467
 3681W        W 7745   1.922   9.498   3.287
 3682W        W 7746   5.045   8.776   1.898
 3683W        W 7747   2.294   3.309   1.289
 3684W        W 7748   0.723   0.361   2.760
 3685W        W 7749   1.285   6.967   3.506
 3686W        W 7750   5.140   4.143   3.778
 3687W        W 7751   6.273   3.282   1.790
 3688W        W 7752   8.835   7.610   0.472
 3689W        W 7753   5.889   3.016   3.164
 3690W        W 7754   3.085   9.908   1.388
 3691W        W 7755  10.478   8.403   9.538
 3692W        W 7756   7.433   8.170   8.924
 3693W        W 7757   5.951   4.934  11.916
 3694W        W 7758   1.926   3.411   2.815
 3695W        W 7759   0.878   8.396   2.920
 3696W        W 7760   0.077   7.643  11.690
 3697W        W 7761   4.089   3.384   8.906
 3698W        W 7762   8.390   4.568   9.420
 3699W        W 7763   4.544   2.143   9.354
 3700W        W 7764   2.608   4.274  11.016
 3701W        W 7765   2.851   6.667  10.020
 3702W        W 7766   4.984   2.816   9.093
 3703W        W 7767   8.836   4.763   3.605
 3704W        W 7768   3.283  10.159   0.965
 3705W        W 7769   1.874   2.842   0.363
 3706W        W 7770   7.396  10.171  11.002
 3707W        W 7771  10.106   7.813   0.892
 3708W        W 7772   1.481   4.128  11.370
 3709W        W 7773   6.849   5.568   2.384
 3710W        W 7774   9.475   6.326   0.120
 3711W        W 7775   2.332   1.305   3.480
 3712W        W 7776   2.243   2.209  10.026
 3713W        W 7777   8.564   4.558  11.481
 3714W        W 7778   8.499   8.114   9.290
 3715W        W 7779   5.028   6.205   8.674
 3716W        W 7780   5.170  10.042   2.492
 3717W        W 7781   1.045   4.214   3.613
 3718W        W 7782   7.474   1.652   2.781
 3719W        W 7783   7.442   4.772   2.706
 3720W        W 7784   0.687   0.872   9.859
 3721W        W 7785   5.054   2.451  11.026
 3722W        W 7786   7.575   2.184   0.238
 3723W        W 7787   1.392   2.431   0.436
 3724W        W 7788   1.284   8.468   9.723
 3725W        W 7789   8.178   0.967  10.041
 3726W        W 7790   5.963   8.660  10.425
 3727W        W 7791   8.902   8.477   0.426
 3728W        W 7792   3.220   2.283   3.620
 3729W        W 7793   0.945   6.048  11.887
 3730W        W 7794  10.163   7.930  11.554
 3731W        W 7795   5.609   3.896   8.643
 3732W        W 7796   6.950   7.553   2.703
 3733W        W 7797   6.843   5.141  11.733
 3734W        W 7798   9.831   6.457   0.450
 3735W        W 7799   0.977   2.599  10.249
 3736W        W 7800   3.635   0.307   3.005
 3737W        W 7801   8.630   9.734   1.132
 3738W        W 7802   6.134   6.020   3.829
 3739W        W 7803   6.676   7.575   2.208
 3740W        W 7804   5.303   4.065   9.446
 3741W        W 7805   9.494   2.275   0.268
 3742W        W 7806   0.506   7.685   0.964
 3743W        W 7807   6.972   1.754   2.809
 3744W        W 7808   8.203   0.105  10.651
 3745W        W 7809   3.744   1.372  10.926
 3746W        W 7810   7.816   3.597   0.034
 3747W        W 7811   4.143   0.855   3.099
 3748W        W 7812   3.613   5.542   9.325
 3749W        W 7813   2.702   6.602   9.034
 3750W        W 7814   8.916   3.011   1.410
 3751W        W 7815   5.500   2.635  10.531
 3752W        W 7816   5.191   3.059   0.225
 3753W        W 7817   4.256   1.646   9.331
 3754W        W 7818   4.308   5.136  10.514
 3755W        W 7819   1.291   7.671   3.323
 3756W        W 7820  10.221   2.990   3.059
 3757W        W 7821   5.757   7.393   9.054
 3758W        W 7822   4.810   7.933   2.769
 3759W        W 7823   3.736   4.186   9.051
 3760W        W 7824   4.793   2.872  11.909
 3761W        W 7825   4.683   5.095   2.035
 3762W        W 7826   1.452   5.283   8.688
 3763W        W 7827   3.819   3.221  11.069
 3764W        W 7828   5.558   4.209   7.976
 3765W        W 7829   1.466   3.094  10.870
 3766W        W 7830   0.059   4.198   9.044
 3767W        W 7831   2.407   8.920   9.674
 3768W        W 7832   9.861   1.413   1.030
 3769W        W 7833   3.157   1.170  10.591
 3770W        W 7834   6.795   0.425   1.132
 3771W        W 7835   7.882   7.443   0.308
 3772W        W 7836   7.949   1.888  10.547
 3773W        W 7837   1.497   7.728  11.364
 3774W        W 7838  10.493  10.303   3.127
 3775W        W 7839   4.163   1.343   2.733
 3776W        W 7840   0.966   4.942   1.736
 3777W        W 7841   5.562   5.673   0.173
 3778W        W 7842   2.761   7.440   1.260
 3779W        W 7843  10.279   1.828  10.296
 3780W        W 7844   1.539   4.453   9.667
 3781W        W 7845   8.629   8.333   1.402
 3782W        W 7846   7.812   0.449  10.564
 3783W        W 7847   5.164   3.622  10.355
 3784W        W 7848   4.992   5.475   9.962
 3785W        W 7849   1.595   5.643   0.967
 3786W        W 7850   1.920   2.897   2.040
 3787W        W 7851  10.209  10.085   2.277
 3788W        W 7852   1.826   4.098   9.916
 3789W        W 7853   6.122   5.566   3.548
 3790W        W 7854   5.564   6.958   1.468
 3791W        W 7855   7.631   5.004   1.660
 3792W        W 7856   5.698   5.594  10.308
 3793W        W 7857   1.905   4.310   2.321
 3794W        W 7858   7.680   3.766   0.512
 3795W        W 7859   3.009   9.041  10.408
 3796W        W 7860   0.043   4.633  10.813
 3797W        W 7861   3.532   9.974   2.302
 3798W        W 7862   3.285   0.442   1.665
 3799W        W 7863   9.799   7.425   8.794
 3800W        W 7864   2.481   4.795   8.918
 3801W        W 7865   0.224   1.361  10.881
 3802W        W 7866   6.949   5.441   0.514
 3803W        W 7867   0.860   9.925   1.185
 3804W        W 7868   6.409   8.853   0.456
 3805W        W 7869   7.169   7.591   9.663
 3806W        W 7870   7.459   3.218  11.299
 3807W        W 7871   9.979   1.864   1.838
 3808W        W 7872   3.085   7.953  11.090
 3809W        W 7873   0.416   7.417   2.770
 3810W        W 7874   4.494   6.428   1.207
 3811W        W 7875   4.995   3.032   9.822
 3812W        W 7876   0.886   3.938   1.243
 3813W        W 7877   1.988   9.554  10.979
 3814W        W 7878   1.163   2.226   1.799
 3815W        W 7879   7.907   2.400  10.556
 3816W        W 7880   5.709   1.608  11.756
 3817W        W 7881   5.582   1.262   3.053
 3818W        W 7882  10.236   7.731   2.228
 3819W        W 7883   9.388   5.446   2.172
 3820W        W 7884   0.899   4.152   0.201
 3821W        W 7885   0.360   7.235  10.142
 3822W        W 7886   4.722   5.049  10.821
 3823W        W 7887  10.358   3.452   9.726
 3824W        W 7888   9.357   2.641   2.147
 3825W        W 7889   4.957   6.463   2.857
 3826W        W 7890   7.454   6.568   8.882
 3827W        W 7891   8.929   5.586   9.640
 3828W        W 7892   7.329   5.213  10.458
 3829W        W 7893   8.368   4.245  10.863
 3830W        W 7894   8.197   1.810  11.567
 3831W        W 7895  10.483   7.106  11.896
 3832W        W 7896   3.274   7.217   2.314
 3833W        W 7897   6.028   0.383   3.305
 3834W        W 7898   9.388   3.382  10.514
 3835W        W 7899   0.809   0.257   9.450
 3836W        W 7900   8.312   9.892   8.975
 3837W        W 7901   5.885   0.413   2.811
 3838W        W 7902   0.363   0.198  10.777
 3839W        W 7903   9.406   9.208  11.170
 3840W        W 7904   2.025   9.385   1.910
 3841W        W 7905   0.866   6.525  10.051
 3842W        W 7906   7.016   5.617  11.015
 3843W        W 7907   2.102   5.235   3.021
 3844W        W 7908   8.628   7.178   8.983
 3845W        W 7909   4.742  10.294   2.430
 3846W        W 7910   7.597   9.976  10.091
 3847W        W 7911   2.366   8.450   3.013
 3848W        W 7912   8.739   2.008   0.355
 3849W        W 7913   0.177   5.616   0.033
 3850W        W 7914   6.417   8.938   1.421
 3851W        W 7915   9.161   5.766  10.509
 3852W        W 7916   7.805   4.119  11.994
 3853W        W 7917   2.379   6.029   1.777
 3854W        W 7918   4.161   1.850   2.805
 3855W        W 7919   6.008   6.730   4.058
 3856W        W 7920   2.107   7.162   9.824
 3857W        W 7921   4.002   7.938   2.256
 3858W        W 7922   4.680   0.881   8.644
 3859W        W 7923   7.298  10.003   1.627
 3860W        W 7924   7.021   2.217   3.051
 3861W        W 7925   1.922   3.327  11.023
 3862W        W 7926   1.199   9.732   8.825
 3863W        W 7927   7.445   3.724  11.126
 3864W        W 7928   5.949   3.475   1.404
 3865W        W 7929   2.356   3.144   2.850
 3866W        W 7930   7.378  10.489   0.328
 3867W        W 7931   7.836   6.522   2.768
 3868W        W 7932   2.888   6.949  11.845
 3869W        W 7933   4.966   4.676   0.430
 3870W        W 7934   2.378   4.797   2.751
 3871W        W 7935   0.664   0.621   2.292
 3872W        W 7936   9.965   4.523  10.450
 3873W        W 7937   7.158   0.436   3.308
 3874W        W 7938   1.660   1.623  11.797
 3875W        W 7939  10.209   0.624   1.386
 3876W        W 7940   9.381   4.658   9.760
 3877W        W 7941   2.824   7.029   0.410
 3878W        W 7942   8.413   6.501   0.833
 3879W        W 7943   1.364   4.371   3.167
 3880W        W 7944   3.617   6.483   1.696
 3881W        W 7945   1.288   0.241   9.030
 3882W        W 7946  10.250   6.715   0.324
 3883W        W 7947   6.945   3.678   0.355
 3884W        W 7948   4.405   0.090   2.655
 3885W        W 7949   7.490   8.787  10.761
 3886W        W 7950   3.391   1.030  11.028
 3887W        W 7951   4.647   2.346  10.714
 3888W        W 7952   4.938   8.475  10.439
 3889W        W 7953   9.311   8.469   3.341
 3890W        W 7954   4.716   9.389   2.935
 3891W        W 7955   6.120   4.061   8.614
 3892W        W 7956   9.234   7.972   8.936
 3893W        W 7957   8.135   8.391   9.042
 3894W        W 7958   7.135   2.264   1.509
 3895W        W 7959   3.374   0.573   9.795
 3896W        W 7960   2.309   7.811  11.574
 3897W        W 7961   0.441   5.203   0.192
 3898W        W 7962   1.964   4.567   0.891
 3899W        W 7963   2.824   5.953   0.050
 3900W        W 7964   6.194   1.905   3.459
 3901W        W 7965   2.597   2.534  10.271
 3902W        W 7966   6.678   0.314   9.370
 3903W        W 7967   2.891  10.360  10.663
 3904W        W 7968   8.641   4.241   1.229
 3905W        W 7969  10.254   4.496   8.757
 3906W        W 7970   6.724   1.249  10.528
 3907W        W 7971   7.545   5.641   3.097
 3908W        W 7972   5.261   6.147   9.122
 3909W        W 7973   2.355   6.762   1.163
 3910W        W 7974   4.732   3.291   0.209
 3911W        W 7975   6.043   7.548   1.672
 3912W        W 7976   7.028   6.464   1.781
 3913W        W 7977   9.779   3.493   8.534
 3914W        W 7978   4.158   1.246  11.828
 3915W        W 7979   7.962   7.490   2.657
 3916W        W 7980   7.819   9.923   9.084
 3917W        W 7981  10.217   3.664  11.315
 3918W        W 7982   2.627   5.042   2.349
 3919W        W 7983   1.296   1.842   9.024
 3920W        W 7984   5.077   4.629  11.040
 3921W        W 7985   9.377   6.438   1.757
 3922W        W 7986   5.164   8.551  11.067
 3923W        W 7987   3.701  10.443   2.214
 3924W        W 7988   9.425   7.184   1.496
 3925W        W 7989   7.419   2.080   0.705
 3926W        W 7990   5.175   7.687  11.053
 3927W        W 7991  10.379   0.701   9.596
 3928W        W 7992   4.075  10.363   0.883
 3929W        W 7993   7.565   3.578   9.959
 3930W        W 7994   4.702   1.728   9.069
 3931W        W 7995   0.223   8.641  11.404
 3932W        W 7996   0.890   5.701   0.292
 3933W        W 7997   7.058   6.705   2.269
 3934W        W 7998  10.081   3.730  11.804
 3935W        W 7999   5.663   0.776   2.196
 3936W        W 8000   4.272   9.090  10.527
 3937W        W 8001   1.266  10.435   9.444
 3938W        W 8002   6.964   9.954  10.766
 3939W        W 8003   7.930   4.104   2.360
 3940W        W 8004   2.657   0.825   3.378
 3941W        W 8005   1.699   8.327   1.786
 3942W        W 8006   9.005   0.882   2.851
 3943W        W 8007   6.950   9.028   2.730
 3944W        W 8008   2.646   2.743   2.765
 3945W        W 8009   4.612   3.672   1.558
 3946W        W 8010   0.467   0.772  11.993
 3947W        W 8011   0.343   5.351   9.878
 3948W        W 8012   2.307   9.000   1.747
 3949W        W 8013   3.718   8.953   1.335
 3950W        W 8014   8.489   0.331   9.403
 3951W        W 8015   7.016   0.321  11.264
 3952W        W 8016  10.339   4.979   2.417
 3953W        W 8017   4.605   6.887  10.270
 3954W        W 8018   7.213   8.999   0.276
 3955W        W 8019   6.223   4.331  11.756
 3956W        W 8020   4.170   0.945   8.488
 3957W        W 8021   1.916  10.427  10.652
 3958W        W 8022   7.980  10.497   0.370
 3959W        W 8023   4.324   5.768   8.309
 3960W        W 8024   9.908  10.333  11.978
 3961W        W 8025   6.110   2.330  11.268
 3962W        W 8026   8.906   4.762   2.190
 3963W        W 8027   5.242   6.650   8.505
 3964W        W 8028   6.960   2.403  10.559
 3965W        W 8029   1.074   9.105   0.238
 3966W        W 8030   5.466   4.680   0.343
 3967W        W 8031   6.960   7.715   0.571
 3968W        W 8032   9.999   3.182   2.612
 3969W        W 8033   2.401   2.930  11.823
 3970W        W 8034   2.613   6.096   3.522
 3971W        W 8035   9.410   9.003   2.543
 3972W        W 8036   6.848   9.054   1.153
 3973W        W 8037   2.362   7.668   1.732
 3974W        W 8038   9.534   8.310   9.253
 3975W        W 8039   3.699  10.340  10.813
 3976W        W 8040   9.769   4.286  10.906
 3977W        W 8041   6.499   1.459   2.785
 3978W        W 8042   5.666   2.377   2.352
 3979W        W 8043   1.215   9.556  11.988
 3980W        W 8044   6.285   7.438   1.239
 3981W        W 8045   5.603   7.378   2.793
 3982W        W 8046   8.283   0.118   8.436
 3983W        W 8047   1.687   0.489   2.524
 3984W        W 8048   7.411   5.199   8.904
 3985W        W 8049   2.731   3.588   9.269
 3986W        W 8050   2.712   0.306  10.890
 3987W        W 8051   5.076   2.260   9.181
 3988W        W 8052   2.327  10.308   2.993
 3989W        W 8053   4.292   1.667   1.905
 3990W        W 8054   4.325   6.598   9.704
 3991W        W 8055   0.758   8.880   9.862
 3992W        W 8056   6.925   9.876  11.272
 3993W        W 8057   7.233   1.729  11.315
 3994W        W 8058   9.312   5.644   9.274
 3995W        W 8059   6.185   3.120   3.576
 3996W        W 8060   0.753   8.557   1.969
 3997W        W 8061   9.332   1.946   8.609
 3998W        W 8062   4.763   8.863  11.277
 3999W        W 8063   5.279   9.862  10.087
 4000W        W 8064   1.355   7.995   1.515
 4001W        W 8065   1.239   2.937   0.392
 4002W        W 8066   1.763   5.959  10.212
 4003W        W 8067   9.371   0.699   1.931
 4004W        W 8068   2.260   2.247  11.520
 4005W        W 8069   4.540   3.908  11.015
 4006W        W 8070   0.905   7.056  10.791
 4007W        W 8071   1.499   0.284   3.367
 4008W        W 8072   0.561   1.788   9.830
 4009W        W 8073   9.527   7.121   0.997
 4010W        W 8074   0.327   7.337   1.459
 4011W        W 8075   3.213   4.817   1.273
 4012W        W 8076   2.811   5.925   2.078
 4013W        W 8077   4.232   7.938   8.853
 4014W        W 8078   6.021   4.320   8.176
 4015W        W 8079   6.488   3.347   0.557
 4016W        W 8080   2.889   7.817   8.584
 4017W        W 8081   7.116   0.925  11.884
 4018W        W 8082   3.174   0.251   9.417
 4019W        W 8083   2.686   9.948   2.823
 4020W        W 8084   8.548   7.927   3.209
 4021W        W 8085   6.958   9.515   2.958
 4022W        W 8086   6.062   7.117   2.001
 4023W        W 8087   6.584   7.412   3.127
 4024W        W 8088   1.165   0.748   2.211
 4025W        W 8089   4.542   9.775  11.781
 4026W        W 8090   0.010   4.639  10.284
 4027W        W 8091  10.467   7.585   1.228
 4028W        W 8092   2.640   4.328  11.531
 4029W        W 8093   5.202   1.721   9.860
 4030W        W 8094   4.545   0.398   9.436
 4031W        W 8095   5.134   1.181   2.337
 4032W        W 8096   6.120   7.269  10.819
 4033W        W 8097   0.384   0.675   1.847
 4034W        W 8098   5.729   5.183   1.638
 4035W        W 8099   4.948   0.464   8.613
 4036W        W 8100   7.985   9.371   0.581
 4037W        W 8101   4.231   5.649  10.472
 4038W        W 8102   9.734   8.925  10.482
 4039W        W 8103   4.292   6.205  10.533
 4040W        W 8104   8.560   9.062   3.547
 4041W        W 8105   0.746   3.579  10.281
 4042W        W 8106   2.287   7.680   1.227
 4043W        W 8107   1.005   8.767   9.428
 4044W        W 8108   4.617   4.055   8.797
 4045W        W 8109   3.351   3.820   1.340
 4046W        W 8110   7.544   2.772   1.463
 4047W        W 8111   9.564   5.575  10.259
 4048W        W 8112   3.135   6.462   2.910
 4049W        W 8113   9.525   9.386  10.097
 4050W        W 8114   2.558   7.628   8.949
 4051W        W 8115   7.506   3.646  11.625
 4052W        W 8116  10.362   5.706   1.197
 4053W        W 8117   4.635   4.712   3.454
 4054W        W 8118   2.771   1.300  10.923
 4055W        W 8119   7.878   0.268   1.607
 4056W        W 8120   1.542   5.652  10.553
 4057W        W 8121   7.531   7.063   0.163
 4058W        W 8122   0.391   9.049  10.876
 4059W        W 8123   2.857   7.505  11.164
 4060W        W 8124   6.572   9.459   1.321
 4061W        W 8125   5.636  10.414   1.930
 4062W        W 8126   7.411   5.330   9.500
 4063W        W 8127   8.022   2.271   1.388
 4064W        W 8128   6.021   3.673   9.925
 4065W        W 8129   5.817   7.459   0.324
 4066W        W 8130   3.402   7.946   1.882
 4067W        W 8131   5.685   6.902   9.232
 4068W        W 8132   6.057   9.076  10.836
 4069W        W 8133   8.458   6.446   2.122
 4070W        W 8134   0.354   8.546   1.675
 4071W        W 8135   6.913   5.009   2.777
 4072W        W 8136   4.140   3.900   8.914
 4073W        W 8137   9.038   4.021   1.524
 4074W        W 8138   4.946   6.900   8.136
 4075W        W 8139   6.130   1.395  11.240
 4076W        W 8140   7.941   9.030   2.979
 4077W        W 8141   3.269   7.106   0.734
 4078W        W 8142   4.963   0.418  10.780
 4079W        W 8143   4.066   3.955   1.383
 4080W        W 8144   6.536   2.964   0.251
 4081W        W 8145   2.263   3.512   3.211
 4082W        W 8146   1.678   7.170   0.574
 4083W        W 8147   6.037   3.158  11.108
 4084W        W 8148   4.686   3.791   3.028
 4085W        W 8149  10.281   4.125   2.852
 4086W        W 8150   7.960   3.702   3.282
 4087W        W 8151   8.448   0.657   3.347
 4088W        W 8152   8.408   1.700   3.017
 4089W        W 8153   1.357   6.493  10.786
 4090W        W 8154   4.058   5.621   1.624
 4091W        W 8155   3.261   2.410   3.153
 4092W        W 8156   2.672   9.307   9.868
 4093W        W 8157   6.215   1.766   9.934
 4094W        W 8158   0.761   4.110   1.708
 4095W        W 8159   5.573   7.020   8.724
 4096W        W 8160   6.170   8.535   0.826
 4097W        W 8161   9.169   5.957  10.001
 4098W        W 8162   3.784   3.597   1.154
 4099W        W 8163   9.066   4.617   2.649
 4100W        W 8164   9.875   0.949   1.212
 4101W        W 8165   5.041   9.496   9.241
 4102W        W 8166   2.391   2.587  10.773
 4103W        W 8167   1.368   6.568   0.903
 4104W        W 8168   2.911   8.923   9.586
 4105W        W 8169   0.941   3.804   3.292
 4106W        W 8170   4.210   1.218   1.686
 4107W        W 8171   0.685   7.336   8.915
 4108W        W 8172   5.559   3.821   1.414
 4109W        W 8173   9.060   0.334   9.980
 4110W        W 8174   0.989   3.045   2.864
 4111W        W 8175   2.960   7.204   2.725
 4112W        W 8176   3.154   3.825   9.065
 4113W        W 8177   8.350   0.313   2.960
 4114W        W 8178   9.779   8.993  11.518
 4115W        W 8179   5.074   6.707   0.764
 4116W        W 8180   0.002   2.834   1.918
 4117W        W 8181   8.663   6.634  10.814
 4118W        W 8182   4.262   9.110   2.812
 4119W        W 8183   9.970   3.103   9.327
 4120W        W 8184   7.448   9.305  10.723
 4121W        W 8185   5.983   5.299  11.502
 4122W        W 8186   9.420   4.284  10.545
 4123W        W 8187   6.700   4.289   2.316
 4124W        W 8188   3.729   9.831  10.310
 4125W        W 8189   7.294   2.201   9.276
 4126W        W 8190   9.740   0.770   0.219
 4127W        W 8191   5.060   3.739  11.010
 4128W        W 8192   0.498   8.270  10.246
 4129W        W 8193   0.832   7.861   2.730
 4130W        W 8194   5.120   3.089   3.063
 4131W        W 8195   9.914   0.275   0.739
 4132W        W 8196   7.492   6.289   0.012
 4133W        W 8197   3.567   1.106   9.844
 4134W        W 8198   8.284   4.283   9.843
 4135W        W 8199   2.251   3.267  11.462
 4136W        W 8200   4.133   6.154   8.855
 4137W        W 8201   4.596   4.653   0.103
 4138W        W 8202   7.889   1.370   8.857
 4139W        W 8203   9.540   0.873   2.766
 4140W        W 8204   6.647   2.295   1.812
 4141W        W 8205   4.764   1.869   1.390
 4142W        W 8206   5.784  10.345   3.432
 4143W        W 8207   4.352   7.430   9.444
 4144W        W 8208   5.793   3.172   1.884
 4145W        W 8209  10.409   3.290  10.599
 4146W        W 8210   5.147   9.079  10.966
 4147W        W 8211   8.612   2.880  10.963
 4148W        W 8212   5.536   0.678   1.246
 4149W        W 8213   4.207   7.757  10.307
 4150W        W 8214   2.471   5.660   8.425
 4151W        W 8215   1.341   6.094   2.440
 4152W        W 8216   4.704   4.967   0.738
 4153W        W 8217   0.300   7.985  10.625
 4154W        W 8218   7.449   6.083   0.894
 4155W        W 8219   4.615   5.225   2.588
 4156W        W 8220   5.236  10.061  10.564
 4157W        W 8221   5.750   6.219   9.886
 4158W        W 8222  10.407   1.141   2.906
 4159W        W 8223   7.518   1.108   3.424
 4160W        W 8224   5.689   9.036  10.147
 4161W        W 8225   2.709   5.708   9.057
 4162W        W 8226   3.626   1.612   9.913
 4163W        W 8227   5.707   2.385   1.399
 4164W        W 8228   3.404   5.776   9.964
 4165W        W 8229   8.025   2.931   0.678
 4166W        W 8230   3.406   6.097  11.393
 4167W        W 8231   2.459   6.524   8.595
 4168W        W 8232   2.386   1.946   1.483
 4169W        W 8233   4.575   5.596   1.814
 4170W        W 8234   6.906   2.143   9.597
 4171W        W 8235   0.355   0.030  11.343
 4172W        W 8236   8.381   6.937   2.035
 4173W        W 8237   6.446   3.370   1.320
 4174W        W 8238   9.405   6.202  10.416
 4175W        W 8239   9.013   6.833   9.123
 4176W        W 8240   2.451   2.877   1.633
 4177W        W 8241   0.787   8.357   9.810
 4178W        W 8242   1.941   8.459   2.682
 4179W        W 8243   2.710   9.232   8.841
 4180W        W 8244   8.923   9.105   9.569
 4181W        W 8245   5.959   6.770  11.610
 4182W        W 8246   8.683   4.993   9.362
 4183W        W 8247   5.049   2.711   3.396
 4184W        W 8248   1.675   3.238   1.688
 4185W        W 8249   4.285   6.446  11.002
 4186W        W 8250   2.704   9.103  11.772
 4187W        W 8251   0.785   9.407   1.909
 4188W        W 8252   7.453  10.292   2.110
 4189W        W 8253   9.782   4.366   9.947
 4190W        W 8254   4.093   0.385   3.312
 4191W        W 8255   4.519   8.952   0.659
 4192W        W 8256   7.256   5.749   2.162
 4193W        W 8257   0.780   3.735  10.768
 4194W        W 8258   3.084   2.234   2.167
 4195W        W 8259  10.423   9.853   1.420
 4196W        W 8260   5.916   9.583   3.595
 4197W        W 8261   6.930   8.157  10.782
 4198W        W 8262   0.782   5.173   2.165
 4199W        W 8263   0.494   1.898   2.252
 4200W        W 8264   1.139   6.440   8.633
 4201W        W 8265   4.493   1.722   2.385
 4202W        W 8266   0.830   3.050   8.964
 4203W        W 8267   2.720   6.480   0.843
 4204W        W 8268   0.474   7.738  11.386
 4205W        W 8269   3.713   0.435   1.974
 4206W        W 8270   0.835   1.795  11.394
 4207W        W 8271   4.953   4.257   9.117
 4208W        W 8272   7.744   0.806   1.792
 4209W        W 8273   5.497   6.659   3.562
 4210W        W 8274   1.261   6.062   9.926
 4211W        W 8275   9.997   4.027   0.217
 4212W        W 8276   8.415   1.148   3.221
 4213W        W 8277  10.245   5.459   2.659
 4214W        W 8278   5.762   7.065  10.078
 4215W        W 8279   7.476   2.710   1.971
 4216W        W 8280   9.196  10.313   9.867
 4217W        W 8281   0.315   5.442  11.055
 4218W        W 8282   4.768   7.944  10.327
 4219W        W 8283   8.869   1.449   9.208
 4220W        W 8284   1.216   3.985   1.933
 4221W        W 8285   3.743   5.832  11.709
 4222W        W 8286   6.563   8.353   2.719
 4223W        W 8287   3.235   6.966   9.043
 4224W        W 8288   1.367   2.272  11.882
 4225W        W 8289   7.881   9.472  10.509
 4226W        W 8290   6.739   4.023   9.325
 4227W        W 8291   8.391   2.612  11.907
 4228W        W 8292   8.054   9.987   0.392
 4229W        W 8293   7.591   6.595   0.491
 4230W        W 8294   8.758   9.530   2.240
 4231W        W 8295   4.671   4.189   3.379
 4232W        W 8296   6.018   8.583   9.352
 4233W        W 8297   3.741   1.315   1.915
 4234W        W 8298   0.859   6.916   9.209
 4235W        W 8299   7.868   1.811   0.050
 4236W        W 8300   6.675   6.489  11.339
 4237W        W 8301  10.419   8.252   3.117
 4238W        W 8302   9.606   3.862   8.857
 4239W        W 8303   4.221   7.409  11.277
 4240W        W 8304  10.409   9.425   0.582
 4241W        W 8305   4.665   8.924   3.140
 4242W        W 8306   3.184   3.726  10.086
 4243W        W 8307   6.058   9.568  10.989
 4244W        W 8308  10.486   9.699  11.424
 4245W        W 8309   1.518   3.701   2.937
 4246W        W 8310   7.618   1.304  10.623
 4247W        W 8311   8.387   7.061  10.791
 4248W        W 8312   4.278   5.241   8.385
 4249W        W 8313   2.310   3.915   8.809
 4250W        W 8314   4.758   6.035   1.021
 4251W        W 8315   1.894   3.059  11.900
 4252W        W 8316   3.311   7.150  10.456
 4253W        W 8317   9.328   2.841   1.688
 4254W        W 8318   3.580   2.724   2.290
 4255W        W 8319   4.714   7.023   2.470
 4256W        W 8320   6.115   2.236  10.143
 4257W        W 8321   1.814   5.995   1.763
 4258W        W 8322   7.799   9.746  11.668
 4259W        W 8323   6.670   6.158  11.960
 4260W        W 8324   9.397   9.064   1.299
 4261W        W 8325   9.428  10.482   2.642
 4262W        W 8326   1.934   9.756   0.709
 4263W        W 8327   2.055   9.948  10.409
 4264W        W 8328   0.383   2.898   0.708
 4265W        W 8329   2.167   4.505  10.848
 4266W        W 8330   3.305   4.446   3.647
 4267W        W 8331   0.035   2.824   0.339
 4268W        W 8332  10.308   8.214  10.733
 4269W        W 8333   5.242   9.478   0.772
 4270W        W 8334   4.795   2.327   1.183
 4271W        W 8335   1.715   8.476  11.778
 4272W        W 8336   3.213   7.199   1.406
 4273W        W 8337   0.310   5.202   3.584
 4274W        W 8338   8.894   6.299   8.420
 4275W        W 8339   6.953   4.073   0.683
 4276W        W 8340   1.345   7.852   0.305
 4277W        W 8341   2.854   9.842   1.875
 4278W        W 8342   2.115   6.634  11.802
 4279W        W 8343   1.934   9.435  11.476
 4280W        W 8344   5.959   4.326   9.067
 4281W        W 8345   8.012   9.717   9.906
 4282W        W 8346   8.127   8.663   2.683
 4283W        W 8347   9.373   1.702   9.849
 4284W        W 8348   3.585   3.597   2.141
 4285W        W 8349   3.564   9.538   9.912
 4286W        W 8350   1.383   3.201  11.852
 4287W        W 8351   2.198   3.731   9.812
 4288W        W 8352   3.212   8.853   3.404
 4289W        W 8353   8.370   5.250  10.955
 4290W        W 8354   3.271   0.660   2.980
 4291W        W 8355   3.756   4.601   8.332
 4292W        W 8356  10.228   6.054   2.845
 4293W        W 8357   6.548   4.868   1.277
 4294W        W 8358   3.731   4.525   1.963
 4295W        W 8359   2.615   1.976   8.884
 4296W        W 8360   4.410  10.099  10.432
 4297W        W 8361   7.061   2.305  10.064
 4298W        W 8362   9.570   2.986  10.829
 4299W        W 8363   1.694   7.557   9.064
 4300W        W 8364   6.693   6.207   4.005
 4301W        W 8365   1.801   7.052  11.762
 4302W        W 8366   0.019  10.235   9.578
 4303W        W 8367   0.270   3.106   1.197
 4304W        W 8368   9.482   5.644   0.717
 4305W        W 8369   9.025   5.001   8.946
 4306W        W 8370   8.518   6.618   1.655
 4307W        W 8371   0.866   4.773  10.722
 4308W        W 8372   2.313   4.757  11.256
 4309W        W 8373   3.843   8.294   9.519
 4310W        W 8374   2.087   1.017   1.300
 4311W        W 8375   6.342   9.813   9.180
 4312W        W 8376   5.078   4.236   8.613
 4313W        W 8377   6.139   2.249   1.672
 4314W        W 8378   4.679   5.878  10.497
 4315W        W 8379  10.316   2.986  11.904
 4316W        W 8380   8.423   4.259   0.250
 4317W        W 8381   7.825   9.015   2.471
 4318W        W 8382   2.843   8.534   2.779
 4319W        W 8383   3.368  10.365   2.927
 4320W        W 8384   0.019  10.459   0.772
 4321W        W 8385   2.744  10.307  11.690
 4322W        W 8386   8.170   6.616   3.129
 4323W        W 8387   0.262   6.546   9.281
 4324W        W 8388   4.140   9.237   1.429
 4325W        W 8389   3.477   0.358   8.576
 4326W        W 8390   6.548   3.661   1.992
 4327W        W 8391   8.960  10.196   0.063
 4328W        W 8392   0.378   8.954   2.169
 4329W        W 8393   1.334   1.293   0.033
 4330W        W 8394   8.863   9.984   2.988
 4331W        W 8395   0.561   0.980  11.030
 4332W        W 8396   5.977   6.470   3.596
 4333W        W 8397   6.167   0.961  10.939
 4334W        W 8398   7.878   0.835   0.361
 4335W        W 8399   9.589   7.371  11.899
 4336W        W 8400   2.364   1.116   8.971
 4337W        W 8401   1.999   9.824  11.826
 4338W        W 8402   3.355   7.476  11.230
 4339W        W 8403   0.042   2.665   1.050
 4340W        W 8404   2.755   2.195  11.373
 4341W        W 8405   5.232   9.995   0.008
 4342W        W 8406   6.520   8.386   1.755
 4343W        W 8407   4.728   5.507  11.825
 4344W        W 8408   1.671   7.929   9.893
 4345W        W 8409   1.314   2.773   2.596
 4346W        W 8410  10.155   7.269   0.978
 4347W        W 8411   6.556  10.261   9.392
 4348W        W 8412   4.154   8.507   9.866
 4349W        W 8413   5.978   0.002  11.755
 4350W        W 8414   0.114   5.329   0.885
 4351W        W 8415  10.274   6.552   9.072
 4352W        W 8416   8.123   4.106   9.384
 4353W        W 8417   3.358   2.393  10.411
 4354W        W 8418   7.675   5.268  11.421
 4355W        W 8419   6.615   6.908   0.383
 4356W        W 8420   6.127   1.867   0.058
 4357W        W 8421   9.300   0.302   1.304
 4358W        W 8422   5.917   5.737   9.868
 4359W        W 8423   9.029   5.709   2.467
 4360W        W 8424   9.525  10.499   0.934
 4361W        W 8425   0.484   6.079   9.370
 4362W        W 8426   7.493   6.141   2.940
 4363W        W 8427   6.098   6.112   9.506
 4364W        W 8428   6.708   3.059   9.366
 4365W        W 8429   0.818   8.999   2.698
 4366W        W 8430   4.921   2.678   1.960
 4367W        W 8431   3.069   0.224  11.300
 4368W        W 8432   4.228   1.065  10.475
 4369W        W 8433  10.408   6.965   8.753
 4370W        W 8434   3.720   3.342   3.023
 4371W        W 8435   7.601   3.993   4.350
 4372W        W 8436   9.351   6.165  11.379
 4373W        W 8437   2.687   7.413  11.658
 4374W        W 8438   0.523   7.745  11.925
 4375W        W 8439   7.165   4.964   1.912
 4376W        W 8440   0.313   5.004   2.638
 4377W        W 8441   4.133   6.270   2.887
 4378W        W 8442   3.604   3.763  10.370
 4379W        W 8443   5.567   1.662   0.925
 4380W        W 8444   3.743   0.756   8.902
 4381W        W 8445   7.537   1.342  11.122
 4382W        W 8446   2.730   9.754   9.012
 4383W        W 8447   4.723  10.036   0.805
 4384W        W 8448   6.678   8.484   2.240
 4385W        W 8449   5.048   4.012   9.883
 4386W        W 8450   6.909   0.781   9.608
 4387W        W 8451   2.125   6.893   1.897
 4388W        W 8452   8.814   2.914   0.004
 4389W        W 8453   5.096   6.675   2.342
 4390W        W 8454   0.768   2.229   1.172
 4391W        W 8455   9.023   8.886   0.873
 4392W        W 8456   9.856   8.198   2.808
 4393W        W 8457   3.326   7.594  10.223
 4394W        W 8458   4.897   6.204  11.564
 4395W        W 8459   7.055   5.383   0.997
 4396W        W 8460   7.916   6.299   0.904
 4397W        W 8461   8.339   5.922  11.360
 4398W        W 8462   6.321   2.717  10.924
 4399W        W 8463   8.345   6.354   2.614
 4400W        W 8464  10.014   6.168  10.980
 4401W        W 8465   2.084   8.500   2.140
 4402W        W 8466   8.948   2.647   1.003
 4403W        W 8467   9.464   5.457   1.680
 4404W        W 8468   4.086   8.895   0.984
 4405W        W 8469   2.586   9.995  10.441
 4406W        W 8470   5.074   9.562   1.275
 4407W        W 8471   7.059   7.482   9.168
 4408W        W 8472  10.136   6.665  10.974
 4409W        W 8473   4.126   3.760  11.791
 4410W        W 8474   9.938   3.020   8.809
 4411W        W 8475   2.894   9.903  11.402
 4412W        W 8476   5.522   0.745   0.730
 4413W        W 8477   0.285   6.952   3.395
 4414W        W 8478   5.585  10.358   9.377
 4415W        W 8479   7.925   3.303   9.713
 4416W        W 8480   7.388   1.423   8.633
 4417W        W 8481   5.446   5.542   1.872
 4418W        W 8482   9.545   4.498   2.611
 4419W        W 8483   9.941   4.081   1.979
 4420W        W 8484   9.294   8.841  10.814
 4421W        W 8485   5.988   3.527   9.386
 4422W        W 8486   2.830   8.332   0.258
 4423W        W 8487   1.481   4.703   0.913
 4424W        W 8488   9.773   8.883  11.019
 4425W        W 8489   9.829   5.193   0.972
 4426W        W 8490   1.457   6.166   9.438
 4427W        W 8491   8.063   6.131   9.506
 4428W        W 8492   5.190   0.287  10.320
 4429W        W 8493   4.987   3.762   0.518
 4430W        W 8494   2.711   1.191  10.327
 4431W        W 8495   8.548   1.718   2.505
 4432W        W 8496   4.574   3.843  11.526
 4433W        W 8497   5.215  10.006   9.605
 4434W        W 8498   1.381   6.678   3.048
 4435W        W 8499   0.409   8.192   2.750
 4436W        W 8500   6.100   4.267   2.630
 4437W        W 8501   8.055   0.209  10.153
 4438W        W 8502   3.533   9.909   3.184
 4439W        W 8503   5.453   8.578  10.330
 4440W        W 8504   9.400   7.290   0.366
 4441W        W 8505   2.369   7.102   2.496
 4442W        W 8506   2.789   1.833   9.514
 4443W        W 8507   2.360   7.761  10.447
 4444W        W 8508   6.120   4.178   0.260
 4445W        W 8509   4.303   8.053   2.872
 4446W        W 8510   2.688   4.600   9.329
 4447W        W 8511  10.369   8.429   1.778
 4448W        W 8512   1.809   0.307   8.897
 4449W        W 8513   2.222   4.141  11.297
 4450W        W 8514   4.793   6.052   0.023
 4451W        W 8515   6.043   0.845   2.547
 4452W        W 8516   4.675   9.094   9.207
 4453W        W 8517   8.513   1.089   1.417
 4454W        W 8518   8.378   2.640   2.526
 4455W        W 8519   4.683  10.338   1.933
 4456W        W 8520   9.052   0.714  10.799
 4457W        W 8521   0.759   8.490   3.418
 4458W        W 8522   6.118   1.683   1.480
 4459W        W 8523   5.228   8.196   2.758
 4460W        W 8524   0.317   1.685   1.789
 4461W        W 8525   7.399   7.171  10.496
 4462W        W 8526   8.319   5.161   3.018
 4463W        W 8527   6.995   5.426   3.782
 4464W        W 8528  10.291   4.205  11.760
 4465W        W 8529   0.355   7.577   1.897
 4466W        W 8530   9.912   5.518   1.408
 4467W        W 8531   5.651   3.513  11.762
 4468W        W 8532   4.072   2.390  11.373
 4469W        W 8533   6.030   4.093   0.770
 4470W        W 8534   8.006   3.574  10.669
 4471W        W 8535   3.135   0.302   2.651
 4472W        W 8536   5.747   9.152  11.768
 4473W        W 8537   2.833   0.755  10.595
 4474W        W 8538   6.689   1.400   0.459
 4475W        W 8539   7.400   5.574   9.954
 4476W        W 8540   4.182   3.450   1.430
 4477W        W 8541   3.589  10.043   0.007
 4478W        W 8542   4.264   9.614   2.748
 4479W        W 8543   5.625   6.585  10.270
 4480W        W 8544   9.384   1.513  10.780
 4481W        W 8545   8.261   3.746  10.269
 4482W        W 8546   0.694   5.506  11.383
 4483W        W 8547   0.436   1.894   0.886
 4484W        W 8548   4.176   7.057   0.705
 4485W        W 8549   4.227   0.733  11.833
 4486W        W 8550   5.294   8.563   9.348
 4487W        W 8551   1.779   2.126   9.832
 4488W        W 8552   3.329   6.125   9.573
 4489W        W 8553   7.044  10.086   0.319
 4490W        W 8554   1.656   7.753   3.696
 4491W        W 8555   8.439   3.283   9.812
 4492W        W 8556   6.566   2.131  11.483
 4493W        W 8557   1.803   6.993  10.268
 4494W        W 8558   0.369   6.034   2.016
 4495W        W 8559   5.943   7.098   9.610
 4496W        W 8560   2.687   5.156   3.352
 4497W        W 8561   1.869   0.358   1.757
 4498W        W 8562   1.700   7.971  11.942
 4499W        W 8563   6.277   8.260  10.295
 4500W        W 8564   7.019   2.198   2.527
 4501W        W 8565   6.161   8.970   9.059
 4502W        W 8566   8.890   6.192  10.412
 4503W        W 8567   6.337   2.778   3.214
 4504W        W 8568   7.091   2.721   1.209
 4505W        W 8569   9.926   6.485  11.440
 4506W        W 8570   9.509   3.784   1.446
 4507W        W 8571   0.848   6.067   2.290
 4508W        W 8572   7.781   8.144   1.041
 4509W        W 8573   4.286   3.257   3.568
 4510W        W 8574   0.547   8.963   0.211
 4511W        W 8575   5.676   0.276   2.340
 4512W        W 8576   2.182   0.355  10.228
 4513W        W 8577   9.863   6.573   9.389
 4514W        W 8578   3.788   2.977   0.476
 4515W        W 8579   8.853   4.603   9.664
 4516W        W 8580   0.973   9.439  11.534
 4517W        W 8581   1.326   1.448   2.756
 4518W        W 8582   1.806   5.737  11.989
 4519W        W 8583   7.896   7.149  11.196
 4520W        W 8584   9.195   0.072   3.107
 4521W        W 8585   1.501   9.506   0.876
 4522W        W 8586   8.568   0.255   2.009
 4523W        W 8587  10.419   4.195   1.745
 4524W        W 8588   7.172   5.168   1.443
 4525W        W 8589   8.455  10.434   2.390
 4526W        W 8590   3.186   3.320  11.548
 4527W        W 8591   4.641   6.857   0.443
 4528W        W 8592   3.396   5.730  10.764
 4529W        W 8593   9.720   5.666   8.916
 4530W        W 8594   7.870   9.088  10.961
 4531W        W 8595   2.932   0.499  11.783
 4532W        W 8596   9.106   3.751   9.930
 4533W        W 8597   5.706   5.278   2.214
 4534W        W 8598   4.249  10.312   2.242
 4535W        W 8599   0.460   8.083   1.892
 4536W        W 8600   0.908   6.626  11.084
 4537W        W 8601   0.886   3.672   8.168
 4538W        W 8602   5.732   6.886   2.763
 4539W        W 8603   8.364   2.130  10.776
 4540W        W 8604   6.746   0.786  10.836
 4541W        W 8605   5.813   1.522  10.325
 4542W        W 8606   8.258   7.266  11.519
 4543W        W 8607   5.065   9.099   2.311
 4544W        W 8608   6.990   5.284   9.853
 4545W        W 8609   9.835   5.946   0.464
 4546W        W 8610   6.960   3.284   9.764
 4547W        W 8611   4.751   3.801   2.499
 4548W        W 8612   8.658   7.182   9.843
 4549W        W 8613   5.535   7.619   3.238
 4550W        W 8614   3.554   7.147  10.898
 4551W        W 8615   3.015   0.685  11.060
 4552W        W 8616   8.058   8.972  11.921
 4553W        W 8617   9.827   5.113  11.916
 4554W        W 8618   8.934   1.825   9.596
 4555W        W 8619   6.141   3.784  11.784
 4556W        W 8620   7.371   0.318  10.347
 4557W        W 8621   1.129   2.212  10.910
 4558W        W 8622   3.305   3.306   1.325
 4559W        W 8623   8.938   7.811   2.854
 4560W        W 8624   4.746   9.419   0.602
 4561W        W 8625   7.061   1.758   1.419
 4562W        W 8626   2.224   8.638  10.071
 4563W        W 8627   4.331   9.726  10.870
 4564W        W 8628   3.137   5.563   1.845
 4565W        W 8629   5.718   3.090   9.294
 4566W        W 8630   7.190   8.075  10.321
 4567W        W 8631   6.677   5.330   1.474
 4568W        W 8632   9.827   0.774  11.693
 4569W        W 8633   3.931   9.795  11.700
 4570W        W 8634   3.686   6.962   1.504
 4571W        W 8635   1.477   0.199   1.492
 4572W        W 8636   6.061   5.804  11.324
 4573W        W 8637   3.842   4.058   2.212
 4574W        W 8638   4.040   4.218   2.683
 4575W        W 8639   3.237   4.759   3.245
 4576W        W 8640   9.140   6.904   2.562
 4577W        W 8641   2.640   8.407   3.493
 4578W        W 8642   3.841   0.858   1.704
 4579W        W 8643   4.843   6.705   9.857
 4580W        W 8644   2.572   0.225  11.461
 4581W        W 8645   3.340   3.132  10.914
 4582W        W 8646   9.528   9.434   3.321
 4583W        W 8647   6.968   2.917  11.358
 4584W        W 8648   1.249   1.569   1.732
 4585W        W 8649   5.085   6.941   1.232
 4586W        W 8650   7.048   7.214   2.304
 4587W        W 8651   7.996   6.962   2.370
 4588W        W 8652   5.483   3.789   2.688
 4589W        W 8653   8.752   9.806   3.454
 4590W        W 8654   3.652   4.717   1.506
 4591W        W 8655   5.975   8.336  11.950
 4592W        W 8656   1.254   8.084   2.533
 4593W        W 8657   7.880   0.401   2.811
 4594W        W 8658   1.877   8.790  10.966
 4595W        W 8659   1.875   9.462  10.056
 4596W        W 8660   4.674   2.855   2.871
 4597W        W 8661   9.916   1.395   1.551
 4598W        W 8662   6.176   0.396   2.379
 4599W        W 8663   6.599   7.038   1.323
 4600W        W 8664   3.823   4.093   0.155
 4601W        W 8665   3.678   0.728   3.317
 4602W        W 8666   7.833   5.285   9.870
 4603W        W 8667   7.104   8.493  10.004
 4604W        W 8668   4.714   9.027  10.228
 4605W        W 8669   0.824   0.929   1.890
 4606W        W 8670   4.251   7.494   0.470
 4607W        W 8671   2.759   1.045   0.671
 4608W        W 8672   2.762   0.414   2.996
 4609W        W 8673   7.651   3.296   0.722
 4610W        W 8674   4.183   5.337  10.057
 4611W        W 8675   0.538   2.788   2.829
 4612W        W 8676   4.259   4.387   9.031
 4613W        W 8677   7.376   3.863   0.088
 4614W        W 8678   1.920   6.472  10.334
 4615W        W 8679   3.704   4.582  11.957
 4616W        W 8680   8.455   9.034   2.826
 4617W        W 8681   6.421   8.098  10.812
 4618W        W 8682  10.440   6.477  11.340
 4619W        W 8683   6.059   5.564   8.994
 4620W        W 8684   0.734   5.917   2.775
 4621W        W 8685   0.041   6.597   1.229
 4622W        W 8686   8.661  10.468  10.869
 4623W        W 8687   0.017   2.642   9.997
 4624W        W 8688   9.834   5.163  11.049
 4625W        W 8689   5.058   2.818  11.418
 4626W        W 8690   0.601   9.001  11.330
 4627W        W 8691   2.576   2.302   8.498
 4628W        W 8692   8.706   1.009   9.361
 4629W        W 8693   3.501   4.169  11.764
 4630W        W 8694   8.806   8.865  10.618
 4631W        W 8695   8.483   5.044   2.247
 4632W        W 8696   1.137   2.933   0.922
 4633W        W 8697   9.379   6.508   9.227
 4634W        W 8698   7.111   8.349   0.807
 4635W        W 8699   9.858   2.332   1.681
 4636W        W 8700   5.623   4.732   2.840
 4637W        W 8701   2.936  10.421  10.165
 4638W        W 8702   4.523   0.553   2.489
 4639W        W 8703   6.754   6.211   9.916
 4640W        W 8704   5.921   8.580   3.415
 4641W        W 8705   3.063   8.088   2.578
 4642W        W 8706   5.123   9.043   8.936
 4643W        W 8707   6.547   3.613   9.997
 4644W        W 8708   2.547   3.304   9.849
 4645W        W 8709   0.968   6.166  10.854
 4646W        W 8710   8.955   7.406   3.180
 4647W        W 8711   6.882   6.498   3.639
 4648W        W 8712  10.330   4.701   9.804
 4649W        W 8713   5.476   0.445   1.847
 4650W        W 8714   5.497   3.605   1.919
 4651W        W 8715   8.518   7.711   1.414
 4652W        W 8716   6.490   4.552   4.126
 4653W        W 8717   1.802   9.801   1.190
 4654W        W 8718   8.631   4.133   9.491
 4655W        W 8719   0.368   2.882  11.951
 4656W        W 8720   5.010   8.595   2.958
 4657W        W 8721   8.298   5.221   3.497
 4658W        W 8722   8.034  10.317   8.820
 4659W        W 8723  10.430   2.491  11.947
 4660W        W 8724   4.291   8.593   2.823
 4661W        W 8725   9.550  10.068  10.890
 4662W        W 8726   3.900   4.644   9.366
 4663W        W 8727   1.173   7.439   9.045
 4664W        W 8728   4.780   2.093  11.766
 4665W        W 8729   8.767   0.128  11.367
 4666W        W 8730   3.863   5.573   8.437
 4667W        W 8731   3.738   2.288   1.509
 4668W        W 8732   2.231   2.371   9.032
 4669W        W 8733   7.394   4.587   0.814
 4670W        W 8734   5.167   0.851   9.434
 4671W        W 8735   7.039   8.478   1.774
 4672W        W 8736   9.309   3.209   3.215
 4673W        W 8737   0.822   1.002   8.885
 4674W        W 8738   1.175   7.990  11.067
 4675W        W 8739  10.493   0.526   2.173
 4676W        W 8740   5.665   7.038  10.966
 4677W        W 8741   6.567  10.121   3.458
 4678W        W 8742   8.513   1.482  10.844
 4679W        W 8743   7.539   4.804  10.727
 4680W        W 8744   4.681   4.686  10.464
 4681W        W 8745   3.763   0.899  11.680
 4682W        W 8746   9.596   3.838  10.309
 4683W        W 8747   8.680   3.204   9.351
 4684W        W 8748   3.320   5.520  11.980
 4685W        W 8749   5.693   4.800   9.878
 4686W        W 8750   0.255   0.822  10.174
 4687W        W 8751   3.203   5.917   8.494
 4688W        W 8752   1.845   7.903  10.440
 4689W        W 8753   6.590  10.228   1.868
 4690W        W 8754   8.081   9.863   1.888
 4691W        W 8755   4.628   7.872  11.184
 4692W        W 8756   2.611   0.889   1.155
 4693W        W 8757   6.210   7.407   0.009
 4694W        W 8758   9.339   2.474   9.526
 4695W        W 8759   1.820   6.759   2.771
 4696W        W 8760   1.659   6.853   9.804
 4697W        W 8761   0.232   2.009   9.502
 4698W        W 8762   8.534   6.061  11.814
 4699W        W 8763   3.171   2.846   8.848
 4700W        W 8764   9.879   0.843   1.719
 4701W        W 8765   5.471   8.993   0.800
 4702W        W 8766   6.117   3.263  11.658
 4703W        W 8767   9.990   1.723  11.917
 4704W        W 8768   3.013   4.101  11.821
 4705W        W 8769   1.761   1.299  10.240
 4706W        W 8770   3.573   0.065  11.249
 4707W        W 8771   0.386   6.928   8.967
 4708W        W 8772   7.061   5.695   1.382
 4709W        W 8773   5.497   2.854   9.713
 4710W        W 8774   8.452   2.126   1.674
 4711W        W 8775   8.469   9.755   0.239
 4712W        W 8776   6.447   9.346   0.353
 4713W        W 8777   6.960   4.668   4.350
 4714W        W 8778   8.555   3.798   9.862
 4715W        W 8779   3.232   2.332   1.437
 4716W        W 8780   1.371   5.206   1.380
 4717W        W 8781   0.177   0.707   3.189
 4718W        W 8782   7.897   5.003  11.042
 4719W        W 8783   0.704   4.975   9.763
 4720W        W 8784  10.282   5.667   9.631
 4721W        W 8785  10.297   3.488   8.418
 4722W        W 8786   9.119   4.736  10.637
 4723W        W 8787   7.626   0.409   0.359
 4724W        W 8788   5.266   4.051   2.280
 4725W        W 8789   9.843   9.848   3.129
 4726W        W 8790   1.962   8.290  11.021
 4727W        W 8791   9.252   4.054  11.803
 4728W        W 8792   1.401   5.545  10.047
 4729W        W 8793   2.241   8.470   9.565
 4730W        W 8794   8.441   6.426  11.291
 4731W        W 8795   8.327   8.329   3.012
 4732W        W 8796   7.681   9.977   1.298
 4733W        W 8797   7.081   3.588  10.173
 4734W        W 8798   9.396   5.999  10.902
 4735W        W 8799   7.783  10.237   1.733
 4736W        W 8800   4.740   5.797   9.540
 4737W        W 8801   6.169   6.250   2.300
 4738W        W 8802   7.525   2.177  10.262
 4739W        W 8803   6.605   0.222   0.688
 4740W        W 8804   6.143   0.830   8.426
 4741W        W 8805   7.379   0.873   0.396
 4742W        W 8806   9.591   3.887   9.793
 4743W        W 8807  10.391   9.203   2.040
 4744W        W 8808   6.150   8.054   1.900
 4745W        W 8809  10.209   1.561   0.335
 4746W        W 8810   7.101   5.090   0.174
 4747W        W 8811   8.596   3.056   2.317
 4748W        W 8812   2.811   5.190   9.031
 4749W        W 8813   8.251   6.200   9.954
 4750W        W 8814   4.218   6.721  10.560
 4751W        W 8815   3.643   3.669   8.928
 4752W        W 8816   0.758   3.569   8.680
 4753W        W 8817   4.318   3.306  10.455
 4754W        W 8818   3.690   6.723  10.051
 4755W        W 8819   0.783   0.748   3.166
 4756W        W 8820   2.782   8.349  10.858
 4757W        W 8821   4.670   4.928   9.351
 4758W        W 8822   5.521   5.865  10.763
 4759W        W 8823   5.316   5.062   1.937
 4760W        W 8824   7.528   0.778   9.550
 4761W        W 8825   5.136   6.206  11.041
 4762W        W 8826   6.507   6.096   3.036
 4763W        W 8827   5.491   1.340   9.458
 4764W        W 8828  10.429   3.511   0.459
 4765W        W 8829   2.473   5.228  11.499
 4766W        W 8830  10.169   3.924   3.689
 4767W        W 8831   9.400   6.631   2.218
 4768W        W 8832   2.661   1.191   9.493
 4769W        W 8833  10.405   9.123  10.891
 4770W        W 8834   0.872   3.112   0.062
 4771W        W 8835   4.616   6.375   3.665
 4772W        W 8836   2.452   5.163  12.000
 4773W        W 8837   7.762   0.654  10.078
 4774W        W 8838   0.848   0.270   3.631
 4775W        W 8839   3.111  10.439   1.435
 4776W        W 8840   8.391   7.277   2.474
 4777W        W 8841   8.451   7.561   2.879
 4778W        W 8842   0.845   7.663   0.345
 4779W        W 8843   0.938   9.509   0.921
 4780W        W 8844   0.918   9.869  11.267
 4781W        W 8845   8.733   9.781  11.781
 4782W        W 8846   1.047   6.322   2.796
 4783W        W 8847  10.433   9.967   0.908
 4784W        W 8848   4.575   2.984  11.426
 4785W        W 8849   1.829   0.868   2.908
 4786W        W 8850   1.707   2.548   2.350
 4787W        W 8851   5.981   0.529   0.129
 4788W        W 8852   8.042   4.885   1.141
 4789W        W 8853   2.676   2.403   2.407
 4790W        W 8854   0.285   3.640  10.515
 4791W        W 8855   3.630   6.215  10.049
 4792W        W 8856   6.570   5.222   0.906
 4793W        W 8857   6.588   5.936   9.522
 4794W        W 8858   6.691   8.685   0.854
 4795W        W 8859   2.330   0.750   2.850
 4796W        W 8860   6.768   9.114   0.023
 4797W        W 8861   1.731   3.145   8.916
 4798W        W 8862   4.972   7.323   9.946
 4799W        W 8863   1.910  10.025   0.286
 4800W        W 8864   8.853   1.843   8.483
 4801W        W 8865   6.560   0.679   2.202
 4802W        W 8866   9.581   6.595   3.168
 4803W        W 8867   2.248   3.404   8.852
 4804W        W 8868   1.769   7.455   0.169
 4805W        W 8869   1.314   6.114  10.448
 4806W        W 8870   3.857   4.633   8.836
 4807W        W 8871   3.771   8.565   9.070
 4808W        W 8872   4.088   2.389   8.935
 4809W        W 8873   1.200   7.983   9.646
 4810W        W 8874   4.189   4.793   8.117
 4811W        W 8875   3.939   2.740  10.869
 4812W        W 8876   4.028   0.001   1.832
 4813W        W 8877   6.571   9.974   1.273
 4814W        W 8878   7.009   6.198   2.212
 4815W        W 8879   4.296  10.046   9.474
 4816W        W 8880   3.658   0.813   0.686
 4817W        W 8881  10.405   3.572   0.981
 4818W        W 8882   1.235   1.074  11.556
 4819W        W 8883   9.587   7.872   0.795
 4820W        W 8884   5.553   3.457   8.961
 4821W        W 8885   7.006   2.421  11.554
 4822W        W 8886   0.991   4.202  11.331
 4823W        W 8887   9.454   0.023  10.707
 4824W        W 8888   1.245  10.222   9.908
 4825W        W 8889   4.335   0.492  11.340
 4826W        W 8890   2.711   9.979   9.938
 4827W        W 8891   4.147   2.935   3.161
 4828W        W 8892  10.463   9.430  10.509
 4829W        W 8893   3.278   8.431   1.584
 4830W        W 8894   3.356   3.199   2.644
 4831W        W 8895   3.247   5.128  10.250
 4832W        W 8896   5.240   0.007   2.287
 4833W        W 8897   9.490   1.865   1.496
 4834W        W 8898   4.147   8.914   3.286
 4835W        W 8899   2.337   5.284   8.780
 4836W        W 8900   7.933   8.450   0.122
 4837W        W 8901   0.492   4.323   9.288
 4838W        W 8902   4.657   7.005   3.955
 4839W        W 8903   9.867   4.671   0.763
 4840W        W 8904   8.148   9.033   1.816
 4841W        W 8905   0.685   9.878  10.817
 4842W        W 8906   5.182   0.424  11.664
 4843W        W 8907   4.923   7.065   9.485
 4844W        W 8908   9.749   4.160  11.803
 4845W        W 8909   1.338   5.774   8.536
 4846W        W 8910   5.731   9.891  10.333
 4847W        W 8911   2.363   4.582   2.278
 4848W        W 8912   4.142   6.906  10.070
 4849W        W 8913   6.942   4.414   1.052
 4850W        W 8914   5.745  10.057   0.012
 4851W        W 8915   9.416   3.044   8.671
 4852W        W 8916   8.113   4.344  11.312
 4853W        W 8917   6.631   9.956  10.364
 4854W        W 8918   5.472   3.620   4.039
 4855W        W 8919   2.949   6.422  11.867
 4856W        W 8920   6.825   6.997   3.680
 4857W        W 8921   2.346  10.458   2.302
 4858W        W 8922   9.732   2.181  10.250
 4859W        W 8923   6.977   4.624   0.547
 4860W        W 8924   3.683   9.500   2.172
 4861W        W 8925   0.271   4.176   3.054
 4862W        W 8926   3.062   0.441   8.930
 4863W        W 8927   0.710   6.670   1.896
 4864W        W 8928   6.645   2.586  11.907
 4865W        W 8929   6.356   9.160   3.711
 4866W        W 8930   4.700   1.832  10.066
 4867W        W 8931   0.670   3.678   2.492
 4868W        W 8932   4.524   0.353   8.919
 4869W        W 8933   0.875   6.354   0.891
 4870W        W 8934   0.339   2.317  11.004
 4871W        W 8935  10.380   0.850   0.953
 4872W        W 8936   3.608   3.671  11.935
 4873W        W 8937   7.571   8.771  11.949
 4874W        W 8938   8.526   1.368  10.082
 4875W        W 8939   7.119   7.630  10.634
 4876W        W 8940   0.346  10.035   1.211
 4877W        W 8941   5.127   6.907   0.277
 4878W        W 8942   4.919   0.038   1.411
 4879W        W 8943   4.340   7.015   1.824
 4880W        W 8944   6.459   0.317   9.838
 4881W        W 8945   0.772  10.381   0.358
 4882W        W 8946   8.387   3.149  10.328
 4883W        W 8947   2.985   5.313   0.884
 4884W        W 8948   5.972   3.212   2.686
 4885W        W 8949   2.420   6.469   9.440
 4886W        W 8950   4.939   3.215   3.511
 4887W        W 8951   6.942   0.805  10.372
 4888W        W 8952   6.338   4.583   2.089
 4889W        W 8953   1.889   8.429  10.520
 4890W        W 8954   2.633   0.724  11.399
 4891W        W 8955   7.806   1.285   8.362
 4892W        W 8956   9.466   6.717   1.346
 4893W        W 8957   0.986   0.243   1.373
 4894W        W 8958   7.177   7.704   2.237
 4895W        W 8959   5.135   7.592  10.381
 4896W        W 8960   9.432   9.534   1.528
 4897W        W 8961  10.498   8.498   1.293
 4898W        W 8962   7.383   6.689   2.934
 4899W        W 8963   8.613   2.181   8.881
 4900W        W 8964   8.197   9.976  11.882
 4901W        W 8965   2.117   2.551   8.569
 4902W        W 8966   6.647   4.905   1.798
 4903W        W 8967   0.171   8.487   0.808
 4904W        W 8968   9.261   2.752   2.752
 4905W        W 8969   4.409   6.185  11.438
 4906W        W 8970   3.122  10.315   0.484
 4907W        W 8971   8.948   1.188  10.763
 4908W        W 8972   2.800   1.254   8.623
 4909W        W 8973   8.853   2.614  10.455
 4910W        W 8974   7.818   4.981   9.143
 4911W        W 8975   0.830   4.471   9.645
 4912W        W 8976   6.414   2.858  10.434
 4913W        W 8977   0.228   8.985   0.664
 4914W        W 8978   6.461   1.143   2.402
 4915W        W 8979   5.938   3.662   4.250
 4916W        W 8980   6.480   7.366   2.630
 4917W        W 8981   7.568   3.782   2.947
 4918W        W 8982   9.648   3.234   1.773
 4919W        W 8983   9.381   1.799  11.239
 4920W        W 8984   9.470   7.777   0.292
 4921W        W 8985   1.470   8.788   0.126
 4922W        W 8986   7.036   5.470   9.141
 4923W        W 8987   0.034   4.162  10.507
 4924W        W 8988   7.699   8.088  10.395
 4925W        W 8989   0.793   7.043   3.327
 4926W        W 8990   0.618   9.837   2.144
 4927W        W 8991   2.198   1.290  11.012
 4928W        W 8992   3.295   6.011  11.872
 4929W        W 8993   0.014   3.323  11.099
 4930W        W 8994   8.550   3.311   1.187
 4931W        W 8995   4.494   6.468   1.716
 4932W        W 8996   5.987   2.609  10.445
 4933W        W 8997   1.715   8.003   2.776
 4934W        W 8998   6.963   9.481  10.012
 4935W        W 8999   7.200   6.568  11.209
 4936W        W 9000   2.491   7.545   2.753
 4937W        W 9001   7.271   1.688   0.962
 4938W        W 9002   6.260   4.486   3.392
 4939W        W 9003   6.017   0.422  10.096
 4940W        W 9004   0.143   4.717   1.986
 4941W        W 9005   0.546   4.094   3.478
 4942W        W 9006   9.947   3.522   0.267
 4943W        W 9007   7.934   7.187   1.896
 4944W        W 9008   4.686   3.948   3.929
 4945W        W 9009  10.044   9.057   2.384
 4946W        W 9010   8.498   4.995   8.453
 4947W        W 9011   7.477   4.149  10.440
 4948W        W 9012   2.231   1.144  11.869
 4949W        W 9013   0.782   3.687   2.004
 4950W        W 9014   9.099   1.665   1.201
 4951W        W 9015   4.429   4.203  11.890
 4952W        W 9016   5.576   1.395   1.547
 4953W        W 9017   7.473   0.756   2.621
 4954W        W 9018   6.640   4.714   3.657
 4955W        W 9019   0.993   8.997   1.660
 4956W        W 9020   1.974   6.231   9.454
 4957W        W 9021   3.688   2.677   3.273
 4958W        W 9022   2.338   4.252  10.029
 4959W        W 9023   7.611   7.972   3.255
 4960W        W 9024   8.847   8.933   3.147
 4961W        W 9025   0.176   4.762   0.299
 4962W        W 9026   2.773   4.813  11.654
 4963W        W 9027   6.253   8.371   9.768
 4964W        W 9028   1.033   3.546   2.857
 4965W        W 9029   6.854   8.980   2.213
 4966W        W 9030   2.656   8.512   1.669
 4967W        W 9031   6.962   3.822  11.322
 4968W        W 9032  10.301   8.923   3.417
 4969W        W 9033   1.964   2.549  11.833
 4970W        W 9034   5.618   0.887   9.196
 4971W        W 9035   7.532   8.736   2.808
 4972W        W 9036   0.856   4.314   3.152
 4973W        W 9037   5.427   3.301   9.932
 4974W        W 9038   3.061   4.091   2.869
 4975W        W 9039   7.838   4.524  11.698
 4976W        W 9040   1.397   2.998   2.134
 4977W        W 9041   7.593   9.777   1.971
 4978W        W 9042   0.796   3.156   0.568
 4979W        W 9043   3.603   6.427   2.720
 4980W        W 9044   2.763   9.078   0.693
 4981W        W 9045   9.143   6.556   3.424
 4982W        W 9046   5.471   0.609  10.695
 4983W        W 9047   0.860   9.860   2.588
 4984W        W 9048   7.517  10.061   8.708
 4985W        W 9049   4.208   7.771  11.626
 4986W        W 9050   1.991   1.009   2.423
 4987W        W 9051   2.167  10.084   1.437
 4988W        W 9052   3.626   1.958   2.602
 4989W        W 9053   7.439   4.273  10.925
 4990W        W 9054   7.224   1.810   8.951
 4991W        W 9055   8.574   6.841   1.192
 4992W        W 9056   7.939   2.714   2.224
 4993W        W 9057   9.434   5.575   9.769
 4994W        W 9058   4.632   7.867   1.914
 4995W        W 9059   4.820   0.330  11.301
 4996W        W 9060   6.396   0.858  10.467
 4997W        W 9061   1.629   2.820  10.446
 4998W        W 9062   0.697   1.677   3.335
 4999W        W 9063   4.529   7.114   9.812
 5000W        W 9064   2.020   3.083   8.497
 5001W        W 9065   9.802   5.914  10.587
 5002W        W 9066   4.859   7.577   9.507
 5003W        W 9067   3.408   6.559   9.291
 5004W        W 9068   0.482   2.563   0.320
 5005W        W 9069   1.842   4.200   8.740
 5006W        W 9070   2.239   1.617   8.897
 5007W        W 9071   2.716   3.798   9.781
 5008W        W 9072   4.819   1.173  11.391
 5009W        W 9073   1.649   5.185   0.708
 5010W        W 9074   9.918   6.106   9.130
 5011W        W 9075   9.009   4.232   2.034
 5012W        W 9076   9.195  10.081   9.386
 5013W        W 9077   6.511   9.490  10.250
 5014W        W 9078   8.265   4.518   8.566
 5015W        W 9079   8.823   2.082  11.625
 5016W        W 9080   8.108   9.263  10.109
 5017W        W 9081   9.953   2.142   3.232
 5018W        W 9082  10.216   5.656   9.106
 5019W        W 9083   7.110   6.777  10.327
 5020W        W 9084   9.972  10.274  10.505
 5021W        W 9085   2.260   0.802   8.541
 5022W        W 9086   4.744   5.997   0.528
 5023W        W 9087   8.102   6.726  10.546
 5024W        W 9088   1.186   1.972   3.191
 5025W        W 9089   8.445   5.499   1.680
 5026W        W 9090   5.545   3.340   2.931
 5027W        W 9091  10.330   7.461   2.743
 5028W        W 9092   8.850   4.221   2.909
 5029W        W 9093   0.193   5.655   9.281
 5030W        W 9094   7.595   4.628  10.257
 5031W        W 9095   6.244   0.208   1.512
 5032W        W 9096   4.299  10.044   1.761
 5033W        W 9097   7.961   9.575   0.124
 5034W        W 9098   6.467   4.561   9.913
 5035W        W 9099   9.286   8.357   9.707
 5036W        W 9100   4.165   2.226  10.884
 5037W        W 9101   0.336   4.957   1.193
 5038W        W 9102   3.875   7.206   1.919
 5039W        W 9103   1.614  10.372   1.842
 5040W        W 9104   4.710   7.435   2.807
 5041W        W 9105   8.880   9.845   8.848
 5042W        W 9106   2.105   7.186   2.923
 5043W        W 9107   1.729   1.285   3.242
 5044W        W 9108   8.067   2.136   0.412
 5045W        W 9109   7.033   6.250  10.322
 5046W        W 9110   0.712   4.338  11.753
 5047W        W 9111   5.931   7.841   0.004
 5048W        W 9112  10.340   0.923  10.508
 5049W        W 9113   9.959   6.022   1.411
 5050W        W 9114   7.513   3.630  10.485
 5051W        W 9115   1.435   0.061   0.986
 5052W        W 9116   5.941   6.593   0.291
 5053W        W 9117   2.675   7.452   0.175
 5054W        W 9118   0.230   4.061  10.057
 5055W        W 9119   5.944  10.044  11.540
 5056W        W 9120   9.319   7.897   9.450
 5057W        W 9121   4.442   0.431   8.410
 5058W        W 9122   7.932   7.671  11.339
 5059W        W 9123   6.145   5.927  11.815
 5060W        W 9124   1.850   8.966  11.701
 5061W        W 9125   6.431   6.911  11.525
 5062W        W 9126   4.740   3.380  11.696
 5063W        W 9127   8.485   2.199   2.263
 5064W        W 9128   6.905   5.149  11.232
 5065W        W 9129   5.582   7.881  11.325
 5066W        W 9130   9.405   3.722   1.934
 5067W        W 9131   2.937   0.641   2.082
 5068W        W 9132   5.289   0.455  11.156
 5069W        W 9133   2.869   8.575   0.735
 5070W        W 9134   4.062   1.543  10.584
 5071W        W 9135   1.833   4.922  11.598
 5072W        W 9136   2.808   0.139   2.247
 5073W        W 9137   4.152   0.786   0.893
 5074W        W 9138   6.143   6.752   2.348
 5075W        W 9139   3.686   6.117   0.238
 5076W        W 9140   8.815   5.970  10.869
 5077W        W 9141   7.896   9.925   3.341
 5078W        W 9142   4.114   7.490   3.541
 5079W        W 9143   2.584   7.127   3.071
 5080W        W 9144   2.751   1.245   1.488
 5081W        W 9145   1.965   7.521   0.823
 5082W        W 9146   1.228   5.755   2.831
 5083W        W 9147   8.491   7.429  11.113
 5084W        W 9148   3.942   6.778   2.885
 5085W        W 9149   6.989   7.618   0.071
 5086W        W 9150   7.935   0.089   2.075
 5087W        W 9151   0.233   2.325   2.356
 5088W        W 9152   7.984   0.915   2.815
 5089W        W 9153   5.808   3.450   8.476
 5090W        W 9154   5.253   4.638   3.183
 5091W        W 9155   6.500   1.974   2.781
 5092W        W 9156   6.632   0.672  11.769
 5093W        W 9157   1.916   9.914  11.327
 5094W        W 9158   4.711   0.903   1.673
 5095W        W 9159   9.873   8.355   1.912
 5096W        W 9160   7.567   5.713   2.595
 5097W        W 9161   0.319  10.448   3.491
 5098W        W 9162   8.149   1.825   2.183
 5099W        W 9163   8.995   1.169   1.233
 5100W        W 9164   3.859   6.461   4.098
 5101W        W 9165   6.890   3.191   8.804
 5102W        W 9166   8.714   0.399   2.522
 5103W        W 9167   1.150   6.884   1.809
 5104W        W 9168   7.935   0.939  10.474
 5105W        W 9169   9.054   9.480  11.452
 5106W        W 9170   5.062   1.273   0.907
 5107W        W 9171   9.922   0.450  11.278
 5108W        W 9172   5.937   1.063  10.497
 5109W        W 9173   9.982   6.537   1.337
 5110W        W 9174   5.574  10.206   1.411
 5111W        W 9175   7.461   2.894   0.449
 5112W        W 9176   8.570   1.632   8.833
 5113W        W 9177   6.095   9.922   2.197
 5114W        W 9178   2.294   4.659   0.254
 5115W        W 9179   1.703   8.767   0.596
 5116W        W 9180   0.315   1.187   9.048
 5117W        W 9181  10.308   5.269  11.871
 5118W        W 9182   4.049   6.659  11.933
 5119W        W 9183   8.229   0.983   9.533
 5120W        W 9184   4.324   1.761  10.952
 5121W        W 9185   5.718   5.273   1.122
 5122W        W 9186   1.680   3.144  10.061
 5123W        W 9187  10.112   7.828   3.083
 5124W        W 9188   5.581   8.891  11.186
 5125W        W 9189   4.728   0.277  10.109
 5126W        W 9190   3.644   2.451   9.574
 5127W        W 9191   3.637   2.231  11.578
 5128W        W 9192   0.500   6.345  10.778
 5129W        W 9193   8.994   0.375   1.709
 5130W        W 9194   7.140   6.679   0.219
 5131W        W 9195   7.549   9.484   1.286
 5132W        W 9196   1.635   2.540   9.568
 5133W        W 9197   1.383   6.089   8.942
 5134W        W 9198   2.475   4.149   0.371
 5135W        W 9199   0.889   8.989   2.189
 5136W        W 9200   2.291   0.561   1.425
 5137W        W 9201   6.434   9.344  11.257
 5138W        W 9202   1.578   8.568   3.624
 5139W        W 9203  10.188   6.984   1.889
 5140W        W 9204  10.359   9.317   9.505
 5141W        W 9205   0.740   9.417  11.050
 5142W        W 9206   2.494   5.123   0.922
 5143W        W 9207   0.812   2.382  11.256
 5144W        W 9208   4.169   1.230   1.179
 5145W        W 9209   6.013   5.713   0.405
 5146W        W 9210   2.248   4.244  11.854
 5147W        W 9211   9.076   8.795   0.057
 5148W        W 9212   9.456  10.010   0.229
 5149W        W 9213   4.774   6.542  11.215
 5150W        W 9214   9.372   2.178   1.914
 5151W        W 9215   1.750   7.155   9.396
 5152W        W 9216   3.894   5.479  10.805
 5153W        W 9217   4.628   3.760   0.041
 5154W        W 9218   4.352   4.279  10.430
 5155W        W 9219   2.833   0.937   9.051
 5156W        W 9220   5.310   6.239  11.894
 5157W        W 9221   4.200   0.308   1.222
 5158W        W 9222   3.175   2.372   0.571
 5159W        W 9223   8.921   1.655  10.582
 5160W        W 9224  10.357   3.719  10.228
 5161W        W 9225   6.291   9.032  10.369
 5162W        W 9226   9.609   3.363   9.046
 5163W        W 9227   1.719   9.023  10.289
 5164W        W 9228   6.112   3.639  11.289
 5165W        W 9229   0.824   1.197   3.387
 5166W        W 9230   3.537  10.482   1.720
 5167W        W 9231   5.020   9.581   8.727
 5168W        W 9232   0.354   9.105  11.768
 5169W        W 9233   2.250   8.771   8.796
 5170W        W 9234   0.359   1.301   1.242
 5171W        W 9235   6.458   3.834   1.497
 5172W        W 9236   2.813   5.925   2.592
 5173W        W 9237   0.228   5.478   2.793
 5174W        W 9238   0.893   4.430   2.656
 5175W        W 9239   3.525   2.163   9.989
 5176W        W 9240   4.702   6.095   9.078
 5177W        W 9241   7.020   6.373   0.875
 5178W        W 9242   8.105   8.680   2.178
 5179W        W 9243   5.184   7.207  10.935
 5180W        W 9244   8.956   1.567  11.093
 5181W        W 9245   9.814   4.317   8.970
 5182W        W 9246   0.367   1.420   2.204
 5183W        W 9247   1.322   7.645   2.804
 5184W        W 9248   0.480   6.003   0.165
 5185W        W 9249   6.248   6.499  10.602
 5186W        W 9250   8.284   3.657   1.840
 5187W        W 9251   9.007   6.079   9.475
 5188W        W 9252   0.648   5.360  10.520
 5189W        W 9253   2.198   0.289   8.556
 5190W        W 9254   1.646   8.686   2.323
 5191W        W 9255   5.633   8.508   0.707
 5192W        W 9256   5.217   6.014   0.328
 5193W        W 9257   4.541   1.914   3.210
 5194W        W 9258   4.089   3.759   9.855
 5195W        W 9259   2.910   6.036  11.517
 5196W        W 9260   0.877   1.388  11.739
 5197W        W 9261   6.279   1.683   0.959
 5198W        W 9262   8.214   0.371   2.438
 5199W        W 9263   9.499   7.058   2.962
 5200W        W 9264   3.153   8.054  10.566
 5201W        W 9265  10.166   2.180   9.928
 5202W        W 9266   7.712   8.980   0.393
 5203W        W 9267   5.846   6.523   1.355
 5204W        W 9268   4.563  10.058   1.302
 5205W        W 9269   7.121   8.572  11.042
 5206W        W 9270   1.453   6.113  11.780
 5207W        W 9271   8.679   5.572  11.200
 5208W        W 9272   2.156   7.895   9.167
 5209W        W 9273   4.237   4.075   3.657
 5210W        W 9274   1.672   9.969   3.191
 5211W        W 9275   7.220   4.089   8.483
 5212W        W 9276   8.045   9.459   9.124
 5213W        W 9277   1.956   5.027   0.113
 5214W        W 9278   4.292   8.377   2.268
 5215W        W 9279   0.406   4.172   2.547
 5216W        W 9280   5.408   6.378   1.704
 5217W        W 9281   7.339   9.010   1.313
 5218W        W 9282   7.711   3.744   1.025
 5219W        W 9283   1.351   4.731   2.740
 5220W        W 9284   4.262   6.192   9.377
 5221W        W 9285   6.093   3.044   1.201
 5222W        W 9286   6.175   9.985  10.573
 5223W        W 9287   7.656   1.844   9.272
 5224W        W 9288   8.106   7.576  11.877
 5225W        W 9289  10.250   1.876   9.524
 5226W        W 9290   5.079   5.055   2.382
 5227W        W 9291   5.797   8.184  10.482
 5228W        W 9292   9.216   5.506   8.777
 5229W        W 9293   1.717  10.282   1.309
 5230W        W 9294   2.684   2.280   9.275
 5231W        W 9295   7.736   6.041   0.469
 5232W        W 9296   4.341   8.591   1.302
 5233W        W 9297   6.891   3.949   1.231
 5234W        W 9298   9.438   5.609   3.167
 5235W        W 9299   5.094   8.604   0.114
 5236W        W 9300   4.825   2.287  10.246
 5237W        W 9301   9.349   1.972   2.925
 5238W        W 9302   2.419   2.781   2.158
 5239W        W 9303   8.784   1.158   2.460
 5240W        W 9304   1.457   9.503   3.089
 5241W        W 9305   7.213   0.569  10.844
 5242W        W 9306   0.804   4.178   2.214
 5243W        W 9307  10.224   4.497   2.148
 5244W        W 9308   5.390   6.088   3.350
 5245W        W 9309   8.628   0.485   0.675
 5246W        W 9310   4.524   4.044   9.324
 5247W        W 9311   6.591   7.424   0.357
 5248W        W 9312   1.478  10.201   0.068
 5249W        W 9313   0.882   2.026   8.509
 5250W        W 9314   2.933   8.108   1.850
 5251W        W 9315   8.479   6.480  10.331
 5252W        W 9316   2.116   4.209   1.860
 5253W        W 9317   4.987  10.006   8.413
 5254W        W 9318   2.037   1.842   1.085
 5255W        W 9319   0.374   3.420   9.476
 5256W        W 9320   9.466   3.292   0.886
 5257W        W 9321   4.956   7.803   1.119
 5258W        W 9322   6.541   3.760   3.498
 5259W        W 9323   9.910   3.060   9.846
 5260W        W 9324   0.485   5.067   1.690
 5261W        W 9325   2.178   2.004   8.573
 5262W        W 9326   9.073   8.672   2.303
 5263W        W 9327   9.486   0.011   9.454
 5264W        W 9328   6.445   8.210  11.839
 5265W        W 9329  10.436   9.766   9.830
 5266W        W 9330   9.688   2.162   9.742
 5267W        W 9331   8.933   0.666   1.262
 5268W        W 9332   9.424   7.435   9.613
 5269W        W 9333   4.864   1.357   0.453
 5270W        W 9334   2.006   6.175   2.736
 5271W        W 9335   6.096   2.233   2.622
 5272W        W 9336   9.765   9.489   0.414
 5273W        W 9337   9.889   1.188   3.035
 5274W        W 9338   3.404   2.806   1.413
 5275W        W 9339   1.772   5.152   2.198
 5276W        W 9340   4.588   3.660   3.511
 5277W        W 9341   4.614   0.943   0.663
 5278W        W 9342   7.585   8.865   3.300
 5279W        W 9343   1.681   5.732  11.494
 5280W        W 9344   4.852   4.391   9.592
 5281W        W 9345   5.545   7.446   0.757
 5282W        W 9346   7.807   8.012  10.933
 5283W        W 9347   3.204   5.550   8.914
 5284W        W 9348   3.919   6.149  11.349
 5285W        W 9349   9.272  10.451   1.794
 5286W        W 9350   6.990   0.797   2.441
 5287W        W 9351   5.216   7.046   2.659
 5288W        W 9352   0.438   6.851   1.482
 5289W        W 9353   2.958   3.232   3.482
 5290W        W 9354   0.881   2.381   2.672
 5291W        W 9355  10.002   4.117  11.354
 5292W        W 9356   0.106   6.029   8.430
 5293W        W 9357   5.045   7.053   3.454
 5294W        W 9358   9.725   2.888   2.968
 5295W        W 9359   7.403  10.012  11.485
 5296W        W 9360  10.420   3.097   0.756
 5297W        W 9361   9.453   9.504   1.002
 5298W        W 9362   4.622   8.117   0.905
 5299W        W 9363   8.886   9.948   0.495
 5300W        W 9364   4.281   0.411   9.902
 5301W        W 9365   8.441   5.422   9.485
 5302W        W 9366  10.414   2.127   9.083
 5303W        W 9367   2.567   9.668   2.279
 5304W        W 9368   5.277   7.412   1.195
 5305W        W 9369   1.735   6.168   0.760
 5306W        W 9370   9.509   0.496  10.966
 5307W        W 9371  10.043   8.837   1.887
 5308W        W 9372   9.712   0.842   9.438
 5309W        W 9373   9.297   5.951   2.815
 5310W        W 9374   5.215   8.277   1.935
 5311W        W 9375   2.144   0.420   9.334
 5312W        W 9376   4.007  10.248   1.376
 5313W        W 9377   0.330   0.289  10.250
 5314W        W 9378   4.060   4.994   1.316
 5315W        W 9379   3.190   0.865   0.446
 5316W        W 9380  10.043   2.417   8.835
 5317W        W 9381  10.324   5.191   3.387
 5318W        W 9382   9.066   3.224   0.409
 5319W        W 9383   6.975  10.446  10.954
 5320W        W 9384   4.058   4.463   1.350
 5321W        W 9385   6.039   9.033  11.354
 5322W        W 9386   1.970   4.241  10.405
 5323W        W 9387   7.566   1.444  11.637
 5324W        W 9388   2.895   9.828   0.478
 5325W        W 9389   7.643   5.234   2.709
 5326W        W 9390   0.974   8.422   8.848
 5327W        W 9391  10.298   4.532  11.358
 5328W        W 9392   0.754   4.509   1.349
 5329W        W 9393   3.074   0.979   9.697
 5330W        W 9394   1.190   8.894   8.959
 5331W        W 9395   7.492   3.812   2.422
 5332W        W 9396   5.215   5.857  11.380
 5333W        W 9397   4.350   7.082   2.858
 5334W        W 9398   7.476   3.737   3.444
 5335W        W 9399   0.224   3.151   3.191
 5336W        W 9400   7.425   7.020   1.971
 5337W        W 9401   2.705   6.500   3.214
 5338W        W 9402   5.121   2.605   2.867
 5339W        W 9403   2.369   6.873   0.615
 5340W        W 9404   9.027   6.916   3.060
 5341W        W 9405   8.361   0.882   0.486
 5342W        W 9406   5.367   6.520   1.203
 5343W        W 9407   2.270   7.557   2.223
 5344W        W 9408   5.041   9.501  11.238
 5345W        W 9409   9.805   0.743   3.244
 5346W        W 9410   9.366   2.872   1.185
 5347W        W 9411   0.802   7.423   9.956
 5348W        W 9412   5.190   4.727   8.736
 5349W        W 9413   6.433   1.401   8.980
 5350W        W 9414   1.507   2.766   1.258
 5351W        W 9415   9.414   8.530  10.361
 5352W        W 9416   0.652   6.468   0.030
 5353W        W 9417   1.387   8.469   9.190
 5354W        W 9418   7.568   7.076   1.164
 5355W        W 9419   4.278   6.770   4.248
 5356W        W 9420   0.488   0.352   1.436
 5357W        W 9421   8.175   8.007  10.553
 5358W        W 9422   4.140   6.149  11.898
 5359W        W 9423   7.981   5.848   9.114
 5360W        W 9424   9.963   7.855   1.796
 5361W        W 9425   5.609   8.957  10.645
 5362W        W 9426   7.828   1.386   1.978
 5363W        W 9427   0.111   0.254   2.944
 5364W        W 9428   1.260   3.673   1.542
 5365W        W 9429   8.401   7.007   0.723
 5366W        W 9430   1.277   7.046   9.486
 5367W        W 9431   4.107   5.365   8.868
 5368W        W 9432   6.140   3.534   2.268
 5369W        W 9433   9.858   2.749   1.987
 5370W        W 9434   6.554   6.151   0.812
 5371W        W 9435   9.412   4.731   9.256
 5372W        W 9436   1.556   1.304   0.548
 5373W        W 9437   9.466   5.627  11.276
 5374W        W 9438   0.765   2.988  10.542
 5375W        W 9439   2.434   5.597   3.231
 5376W        W 9440   0.630   9.396   2.412
 5377W        W 9441   2.418   0.387   9.768
 5378W        W 9442   9.965   1.869   1.285
 5379W        W 9443   2.241   7.305  11.903
 5380W        W 9444   6.941   3.774  11.843
 5381W        W 9445   4.613   8.321   3.176
 5382W        W 9446   5.606   9.843  10.869
 5383W        W 9447   8.348   6.637   9.033
 5384W        W 9448   8.830   9.873  10.243
 5385W        W 9449   4.536   9.072   1.152
 5386W        W 9450   3.195   9.182   1.023
 5387W        W 9451   3.732   8.063   8.996
 5388W        W 9452   6.000   3.608   3.564
 5389W        W 9453   8.369   0.052   0.846
 5390W        W 9454   2.017   9.433   0.340
 5391W        W 9455   4.726   1.488  11.014
 5392W        W 9456   2.321   9.187   2.285
 5393W        W 9457   6.596   4.812  10.904
 5394W        W 9458   0.235   7.410  11.047
 5395W        W 9459   9.247   1.895   0.492
 5396W        W 9460   4.173   0.458   1.746
 5397W        W 9461   2.287   4.360   8.540
 5398W        W 9462   4.116   3.553   2.292
 5399W        W 9463   7.389   6.511   8.365
 5400W        W 9464   2.915   0.366   9.856
 5401W        W 9465   4.723   7.067   8.950
 5402W        W 9466   0.782   3.105   9.496
 5403W        W 9467   0.033   1.167   0.346
 5404W        W 9468   7.507   5.659   9.115
 5405W        W 9469   1.274   1.904   0.858
 5406W        W 9470   5.145   8.961  10.474
 5407W        W 9471  10.403   0.052  10.919
 5408W        W 9472   3.161   7.706   2.251
 5409W        W 9473   2.854   6.142   9.334
 5410W        W 9474   7.069   6.944  10.856
 5411W        W 9475   0.360   5.019  10.772
 5412W        W 9476   3.754   1.272   0.865
 5413W        W 9477   9.085   0.263   0.816
 5414W        W 9478   7.932   3.354  10.219
 5415W        W 9479   8.151   2.733   9.042
 5416W        W 9480   9.878   9.779  10.618
 5417W        W 9481   4.379   8.795   8.504
 5418W        W 9482   6.289  10.334   9.828
 5419W        W 9483  10.320   4.752   9.286
 5420W        W 9484   3.195   6.267   0.285
 5421W        W 9485   5.038   3.836   1.876
 5422W        W 9486  10.214   5.737  11.727
 5423W        W 9487   3.335   5.264   2.244
 5424W        W 9488   1.239   6.566   9.693
 5425W        W 9489   1.685   7.855  10.920
 5426W        W 9490   7.277   7.181   9.981
 5427W        W 9491   5.753   1.781  10.758
 5428W        W 9492   3.044   3.257   9.978
 5429W        W 9493   7.288   6.111   9.881
 5430W        W 9494   6.428   1.208   0.850
 5431W        W 9495   7.568   0.205  11.878
 5432W        W 9496   1.957   9.375   2.811
 5433W        W 9497   8.733   6.964   3.458
 5434W        W 9498   0.459   6.924   2.922
 5435W        W 9499   6.191   0.152   9.408
 5436W        W 9500   1.916   7.599   9.533
 5437W        W 9501   7.151   4.550  10.511
 5438W        W 9502   5.232   2.653   2.368
 5439W        W 9503   5.693   3.906   9.144
 5440W        W 9504   4.272   9.991   8.921
 5441W        W 9505   3.397   7.422   1.842
 5442W        W 9506   5.665   0.281  11.447
 5443W        W 9507   1.252   7.097  10.033
 5444W        W 9508   7.465   8.267  11.911
 5445W        W 9509   2.910   1.038   2.444
 5446W        W 9510   0.062   7.527   0.200
 5447W        W 9511   5.053   7.555   3.491
 5448W        W 9512   1.273   3.803   9.641
 5449W        W 9513   4.695   4.730   2.437
 5450W        W 9514   4.205   9.372   0.870
 5451W        W 9515   3.188   1.456   9.586
 5452W        W 9516   3.188   7.087   3.576
 5453W        W 9517   1.159   5.385   1.869
 5454W        W 9518  10.038   7.030   9.584
 5455W        W 9519   9.642   7.552   8.267
 5456W        W 9520   7.530   8.177   9.910
 5457W        W 9521  10.046   6.381   3.226
 5458W        W 9522   6.531   0.249  11.431
 5459W        W 9523   1.969   4.773   8.938
 5460W        W 9524   5.643   0.905   1.681
 5461W        W 9525   2.402  10.468  10.520
 5462W        W 9526   0.143   9.799   2.361
 5463W        W 9527   2.611   4.315   2.775
 5464W        W 9528   6.102   8.803  11.835
 5465W        W 9529   4.705   6.027   1.528
 5466W        W 9530   7.526   4.279   2.817
 5467W        W 9531   5.276   3.592   0.943
 5468W        W 9532   4.574   5.915   3.830
 5469W        W 9533   9.936   9.721   3.597
 5470W        W 9534   3.427   1.830   1.367
 5471W        W 9535   4.423   5.679   1.278
 5472W        W 9536   7.682   9.968   9.578
 5473W        W 9537   6.039   9.482  10.481
 5474W        W 9538   8.343   7.010   8.597
 5475W        W 9539   8.523   8.032   2.684
 5476W        W 9540   2.877   7.583   1.828
 5477W        W 9541   1.901   1.301   3.732
 5478W        W 9542   3.606   9.183   0.281
 5479W        W 9543   1.403   7.099   1.003
 5480W        W 9544   1.680   0.214   9.375
 5481W        W 9545   6.724   6.563  10.804
 5482W        W 9546   5.622   9.834   9.350
 5483W        W 9547   0.334   0.957   9.510
 5484W        W 9548  10.452   6.165   0.979
 5485W        W 9549   5.072   6.155  10.561
 5486W        W 9550   0.108   9.186  11.336
 5487W        W 9551   7.100   7.134   1.375
 5488W        W 9552   4.976  10.480   8.772
 5489W        W 9553   3.750   6.199   9.173
 5490W        W 9554   3.330   0.474   1.166
 5491W        W 9555   4.808   2.920  10.987
 5492W        W 9556   2.743   3.234  11.264
 5493W        W 9557   6.498   9.901   3.008
 5494W        W 9558   4.247   9.540  11.382
 5495W        W 9559   0.721   9.125   0.646
 5496W        W 9560   9.064   2.326   8.351
 5497W        W 9561   9.961   6.628   9.911
 5498W        W 9562   5.160  10.011  11.103
 5499W        W 9563   7.052   2.656   2.793
 5500W        W 9564   3.801   2.942   9.667
 5501W        W 9565   3.221   2.367  11.285
 5502W        W 9566   6.574   3.776   8.923
 5503W        W 9567   1.032   7.901  11.905
 5504W        W 9568  10.340   3.120  10.118
 5505W        W 9569   3.065   2.777   2.310
 5506W        W 9570   0.485   5.640   2.372
 5507W        W 9571   7.738   1.548   1.055
 5508W        W 9572   1.149   9.730   9.740
 5509W        W 9573   2.163   6.129   9.934
 5510W        W 9574   9.241   6.571   8.715
 5511W        W 9575   0.137   5.982   3.427
 5512W        W 9576   8.092   6.461   0.439
 5513W        W 9577   7.544   1.920   1.346
 5514W        W 9578   9.830   3.363   3.075
 5515W        W 9579   5.439   2.969   8.870
 5516W        W 9580   5.978   6.617   1.846
 5517W        W 9581   6.173   0.835   3.054
 5518W        W 9582   7.592   1.587   9.729
 5519W        W 9583   0.441   6.478  11.269
 5520W        W 9584   6.286   6.146   0.340
 5521W        W 9585   3.794   3.171   2.361
 5522W        W 9586   2.834   0.444   1.311
 5523W        W 9587   3.728   9.523  11.308
 5524W        W 9588   0.689   3.670   3.699
 5525W        W 9589   7.983   6.675   1.808
 5526W        W 9590   9.243   2.802   9.113
 5527W        W 9591   1.285   0.990   9.511
 5528W        W 9592   1.379   1.482   9.529
 5529W        W 9593   1.848   3.786  11.267
 5530W        W 9594   9.070   5.283  11.422
 5531W        W 9595   4.216   8.008   0.154
 5532W        W 9596   5.062   4.100   2.769
 5533W        W 9597   3.739   3.301   9.289
 5534W        W 9598   6.080   3.258   0.189
 5535W        W 9599   3.537   8.015   2.412
 5536W        W 9600   3.324   0.692  10.633
 5537W        W 9601   0.114   7.069   0.891
 5538W        W 9602   4.498   7.594   0.047
 5539W        W 9603   1.886   0.818  10.425
 5540W        W 9604   7.427   5.368   4.057
 5541W        W 9605   1.788   6.664   0.598
 5542W        W 9606   3.945   5.535   1.131
 5543W        W 9607   8.596   8.838   2.255
 5544W        W 9608   5.058   4.898  11.483
 5545W        W 9609   9.076   5.757  11.587
 5546W        W 9610   5.251   6.420   9.974
 5547W        W 9611   5.696   6.471   0.833
 5548W        W 9612   2.427  10.411   3.480
 5549W        W 9613   2.475   0.855  10.937
 5550W        W 9614   1.037   5.683  10.456
 5551W        W 9615   7.120   2.236   2.016
 5552W        W 9616   3.986   0.314  10.944
 5553W        W 9617   7.463   6.284   2.456
 5554W        W 9618   2.282   1.935   9.299
 5555W        W 9619   5.934   7.553   3.545
 5556W        W 9620   4.430  10.339   0.503
 5557W        W 9621   4.117   6.620   8.601
 5558W        W 9622   5.744   2.529  11.830
 5559W        W 9623   6.963   7.132   9.528
 5560W        W 9624   7.406   2.241  10.744
 5561W        W 9625   6.438   5.678   0.139
 5562W        W 9626   3.360   9.562   8.527
 5563W        W 9627   2.169   5.920   0.875
 5564W        W 9628   5.991   2.815   0.433
 5565W        W 9629   6.508   2.459   8.553
 5566W        W 9630   0.820   2.813   2.387
 5567W        W 9631   2.079   8.460   0.724
 5568W        W 9632   4.214   6.106   0.428
 5569W        W 9633   5.717   1.275  10.926
 5570W        W 9634   6.399   9.121   0.917
 5571W        W 9635   0.044   6.438   3.110
 5572W        W 9636   5.147   1.826   8.840
 5573W        W 9637   5.902   0.960   0.432
 5574W        W 9638   2.058   9.952   3.496
 5575W        W 9639   4.668   9.431  10.571
 5576W        W 9640   7.036   8.580   1.263
 5577W        W 9641   1.746   8.538   9.538
 5578W        W 9642   8.038   7.897   2.957
 5579W        W 9643   6.108   0.489  11.124
 5580W        W 9644   1.155   0.423   0.180
 5581W        W 9645   1.511   4.260   0.256
 5582W        W 9646   9.332   4.600   3.561
 5583W        W 9647   3.151   3.620   9.566
 5584W        W 9648   8.888   8.808  11.546
 5585W        W 9649   9.774   7.435   0.699
 5586W        W 9650   3.279   1.570  10.878
 5587W        W 9651   7.400   1.634   0.467
 5588W        W 9652   5.918   8.035   2.344
 5589W        W 9653   6.997   2.782   9.753
 5590W        W 9654   2.656   2.863   0.972
 5591W        W 9655   3.032   9.788   3.174
 5592W        W 9656   9.565   7.181   2.468
 5593W        W 9657   8.174   6.237   3.566
 5594W        W 9658   4.705   0.324  11.955
 5595W        W 9659   0.259   5.426   1.373
 5596W        W 9660   5.989   8.003   1.412
 5597W        W 9661   6.572   3.644  11.030
 5598W        W 9662   7.112   1.362   3.170
 5599W        W 9663   9.980   7.081   2.727
 5600W        W 9664   9.830   0.980  11.213
 5601W        W 9665   5.235   3.154   9.385
 5602W        W 9666   9.376   6.067   8.965
 5603W        W 9667   1.325   9.965   1.899
 5604W        W 9668   6.969   8.092  11.827
 5605W        W 9669   3.126   6.661   0.560
 5606W        W 9670   7.285  10.394  10.028
 5607W        W 9671   7.517   2.375   1.142
 5608W        W 9672   6.590   2.110  10.009
 5609W        W 9673   9.458   1.054   0.931
 5610W        W 9674   2.247   9.134  10.100
 5611W        W 9675   8.083   1.413  11.850
 5612W        W 9676   5.631   3.400   2.371
 5613W        W 9677   3.809   5.953   9.612
 5614W        W 9678  10.452   1.958   0.049
 5615W        W 9679   4.143   1.307   2.231
 5616W        W 9680   4.683   9.294   1.979
 5617W        W 9681   7.845   5.611   0.196
 5618W        W 9682   5.544   8.914   2.502
 5619W        W 9683   0.795   5.189  10.990
 5620W        W 9684   8.983   4.580   0.781
 5621W        W 9685   5.226   9.955   9.053
 5622W        W 9686   0.213   6.947   0.365
 5623W        W 9687   8.019   4.513   9.057
 5624W        W 9688   0.267   2.821   2.378
 5625W        W 9689   7.456   3.144  10.255
 5626W        W 9690   1.441   9.226   3.851
 5627W        W 9691   2.266  10.034  10.922
 5628W        W 9692   8.888   8.846   1.357
 5629W        W 9693   6.555   7.859   2.853
 5630W        W 9694   0.933   8.633   0.128
 5631W        W 9695   4.185   6.108   1.471
 5632W        W 9696   6.560   8.664   0.003
 5633W        W 9697   2.422   1.728   0.190
 5634W        W 9698   0.193   9.958   8.874
 5635W        W 9699   7.581   8.028   2.242
 5636W        W 9700   2.274   5.111   1.998
 5637W        W 9701   2.721   3.567  10.274
 5638W        W 9702   5.281   2.641   1.187
 5639W        W 9703   5.935   9.019   1.189
 5640W        W 9704   7.896   3.236   3.535
 5641W        W 9705   4.678   7.934  11.703
 5642W        W 9706   1.958   8.937   0.197
 5643W        W 9707  10.480   0.250   9.388
 5644W        W 9708   4.989   4.465  10.099
 5645W        W 9709   0.475  10.397   2.925
 5646W        W 9710   4.571   2.847   3.469
 5647W        W 9711   7.259   3.180   1.549
 5648W        W 9712   8.415   8.126   9.844
 5649W        W 9713   1.572   8.547  11.299
 5650W        W 9714   0.862   7.986   1.227
 5651W        W 9715   8.155   3.643   1.224
 5652W        W 9716   1.921   7.872   1.970
 5653W        W 9717   2.868   9.409   1.398
 5654W        W 9718   8.498   2.446   1.251
 5655W        W 9719   1.838   1.185   9.746
 5656W        W 9720   3.309   5.029   1.777
 5657W        W 9721   7.098   5.971   9.073
 5658W        W 9722   0.123   5.390  10.509
 5659W        W 9723   6.079  10.280   1.693
 5660W        W 9724   4.082   2.906  11.374
 5661W        W 9725   6.433   9.321   9.336
 5662W        W 9726   6.917   8.959  11.297
 5663W        W 9727   3.477   2.207   1.020
 5664W        W 9728   3.342   6.731  11.748
 5665W        W 9729   0.596   4.977  11.414
 5666W        W 9730  10.363   5.428  11.351
 5667W        W 9731   5.543   4.115   1.840
 5668W        W 9732   0.804   2.321   3.184
 5669W        W 9733   5.223   7.037   9.080
 5670W        W 9734   3.258   5.157   9.278
 5671W        W 9735   0.512   8.265   9.049
 5672W        W 9736   0.991   7.374   0.777
 5673W        W 9737   1.009   2.133   0.228
 5674W        W 9738   7.854   6.645   0.011
 5675W        W 9739   9.331   0.584   3.133
 5676W        W 9740   4.632   4.455   3.891
 5677W        W 9741   6.426   0.157  11.959
 5678W        W 9742  10.488   3.929   0.153
 5679W        W 9743   6.102   9.337   9.988
 5680W        W 9744   4.569   5.309   9.690
 5681W        W 9745   8.528   5.907   9.581
 5682W        W 9746   9.906   8.290  11.982
 5683W        W 9747   5.629   1.809   9.007
 5684W        W 9748   1.242   0.318  11.032
 5685W        W 9749   3.250   8.327   8.824
 5686W        W 9750   9.469   7.835  10.974
 5687W        W 9751   9.937   9.796   1.689
 5688W        W 9752   5.703   3.474  10.350
 5689W        W 9753   7.397   3.128   8.863
 5690W        W 9754   1.839   7.904   0.470
 5691W        W 9755   1.348   3.827   1.050
 5692W        W 9756   5.142   8.641   0.630
 5693W        W 9757   0.748   0.887  11.547
 5694W        W 9758   1.408   0.236   9.888
 5695W        W 9759   8.160   5.998   1.347
 5696W        W 9760   9.489   5.717   1.227
 5697W        W 9761   0.879   5.426  10.025
 5698W        W 9762   3.666   5.901   3.641
 5699W        W 9763   3.502  10.318   9.379
 5700W        W 9764   7.692   1.842   8.719
 5701W        W 9765   1.294   4.959  10.957
 5702W        W 9766   7.705   6.395   9.763
 5703W        W 9767   5.083   3.634   1.402
 5704W        W 9768   1.213  10.258   1.401
 5705W        W 9769   6.600   3.258   3.290
 5706W        W 9770   0.852   3.996   9.461
 5707W        W 9771   1.330   7.860  10.556
 5708W        W 9772   3.410   7.547   2.695
 5709W        W 9773   2.813   4.071  10.202
 5710W        W 9774   1.666   2.799  11.506
 5711W        W 9775   0.861   6.470  11.569
 5712W        W 9776   5.464   8.410   3.178
 5713W        W 9777   2.176   3.271   1.788
 5714W        W 9778   5.994   5.451  11.981
 5715W        W 9779   7.673   0.104   0.768
 5716W        W 9780   2.125   9.333   9.621
 5717W        W 9781   7.666   1.214   0.654
 5718W        W 9782   3.713   3.623   1.656
 5719W        W 9783   7.127  10.453   3.145
 5720W        W 9784   5.683   0.784  11.135
 5721W        W 9785   7.988   2.623   0.251
 5722W        W 9786   3.324   0.731  11.465
 5723W        W 9787   8.776   2.282   9.856
 5724W        W 9788   2.768   1.481   9.902
 5725W        W 9789   6.942   4.942  10.256
 5726W        W 9790   4.446   5.160   3.604
 5727W        W 9791   1.249   9.283   1.262
 5728W        W 9792   2.401   5.678   9.956
 5729W        W 9793   3.214   3.309   9.118
 5730W        W 9794   9.124   3.298   1.896
 5731W        W 9795   5.500   3.719   0.507
 5732W        W 9796   0.197   9.569  11.952
 5733W        W 9797   5.108   3.146   1.170
 5734W        W 9798   5.698   6.432   3.147
 5735W        W 9799  10.308   7.185  10.847
 5736W        W 9800   9.888   9.046   1.459
 5737W        W 9801   6.885   9.931   2.631
 5738W        W 9802   4.608   2.384   0.699
 5739W        W 9803   1.341   0.872   0.350
 5740W        W 9804   6.146   0.064  10.765
 5741W        W 9805   3.770   5.003   2.145
 5742W        W 9806   1.256   1.018   3.090
 5743W        W 9807   3.878   0.892  11.186
 5744W        W 9808   7.428   9.560   9.763
 5745W        W 9809   7.033   8.143  11.310
 5746W        W 9810  10.074  10.431   2.882
 5747W        W 9811   1.848   1.691   9.592
 5748W        W 9812   4.745  10.456   9.656
 5749W        W 9813   6.361   9.869   8.651
 5750W        W 9814   2.889   7.580   9.343
 5751W        W 9815   2.416   6.115  11.464
 5752W        W 9816   7.613   5.390   2.185
 5753W        W 9817   4.556   3.109   1.820
 5754W        W 9818   8.952   0.477   9.134
 5755W        W 9819   8.324   2.236  10.262
 5756W        W 9820   9.156  10.318   1.290
 5757W        W 9821   6.965   6.088  10.799
 5758W        W 9822   4.443   7.736   1.242
 5759W        W 9823   9.466   2.197   3.413
 5760W        W 9824   4.147   7.005   3.327
 5761W        W 9825   4.592   8.816   2.148
 5762W        W 9826   2.154   2.396   9.555
 5763W        W 9827   4.673   8.380  11.448
 5764W        W 9828   4.523   5.459   9.216
 5765W        W 9829   5.176   0.954  10.930
 5766W        W 9830   9.459   4.890   2.940
 5767W        W 9831  10.435   2.866   3.507
 5768W        W 9832   4.624   0.442   1.509
 5769W        W 9833   3.441   5.646   8.114
 5770W        W 9834   8.609   0.977   0.916
 5771W        W 9835   1.462   9.299   8.760
 5772W        W 9836   2.210   6.415   0.784
 5773W        W 9837   2.908   4.800   0.868
 5774W        W 9838   8.097   8.525   1.130
 5775W        W 9839   8.881   7.414  10.256
 5776W        W 9840   0.980  10.201  10.550
 5777W        W 9841   7.355   4.109   1.024
 5778W        W 9842   1.164   6.520  11.999
 5779W        W 9843   2.488   9.589  10.774
 5780W        W 9844   7.103   9.929  10.208
 5781W        W 9845   3.077   8.008   9.537
 5782W        W 9846   0.426   5.217   9.386
 5783W        W 9847   9.061   7.998   3.340
 5784W        W 9848   0.308   8.611  11.921
 5785W        W 9849   7.469   5.529   3.580
 5786W        W 9850   0.536   8.627  10.610
 5787W        W 9851   8.376   9.467   1.934
 5788W        W 9852   8.956   6.617  11.497
 5789W        W 9853   0.882   2.128   9.038
 5790W        W 9854   7.510   6.522   1.998
 5791W        W 9855   4.540   4.149   1.311
 5792W        W 9856   0.451   4.552  10.529
 5793W        W 9857   3.713   0.796   2.755
 5794W        W 9858   5.535   3.307  10.856
 5795W        W 9859   2.503   1.735  11.342
 5796W        W 9860   2.363   0.313   1.908
 5797W        W 9861   3.177   5.263   3.275
 5798W        W 9862   4.228  10.206  11.730
 5799W        W 9863   0.580   4.635   3.435
 5800W        W 9864   9.151   6.636  10.576
 5801W        W 9865  10.268   7.198   0.487
 5802W        W 9866   0.729   6.069   9.846
 5803W        W 9867   0.187   8.144   0.093
 5804W        W 9868   2.128   2.105   0.026
 5805W        W 9869   3.666   5.028   4.222
 5806W        W 9870   4.636   5.724   2.417
 5807W        W 9871   7.528   2.635   0.001
 5808W        W 9872   8.987   9.440  10.467
 5809W        W 9873   9.987  10.234  11.046
 5810W        W 9874   3.338   8.383   0.613
 5811W        W 9875   0.956  10.392   0.976
 5812W        W 9876   8.449   1.761  10.406
 5813W        W 9877   3.154   4.795   0.386
 5814W        W 9878   5.645   2.303   2.890
 5815W        W 9879   0.502   1.120  10.506
 5816W        W 9880   3.638   8.155   3.383
 5817W        W 9881   9.360   9.423   0.059
 5818W        W 9882   1.714   3.772  10.285
 5819W        W 9883   6.218   7.679  11.124
 5820W        W 9884   2.606  10.383   1.331
 5821W        W 9885   9.095   9.864   0.951
 5822W        W 9886   0.669   8.234  11.970
 5823W        W 9887   9.969   4.624  11.792
 5824W        W 9888   1.482   3.443   2.513
 5825W        W 9889   3.801   9.321   2.667
 5826W        W 9890   3.070   9.603   9.876
 5827W        W 9891   0.388   3.901   9.615
 5828W        W 9892   1.377   3.707   9.157
 5829W        W 9893   0.875   8.573   1.392
 5830W        W 9894   4.053   7.479   9.007
 5831W        W 9895   3.334   0.465   0.160
 5832W        W 9896   9.461   9.992   1.747
 5833W        W 9897   2.316   5.975   0.372
 5834W        W 9898   3.813   0.423  11.953
 5835W        W 9899   1.090   9.949   3.528
 5836W        W 9900   9.507   3.446  11.018
 5837W        W 9901   2.109   4.365   2.787
 5838W        W 9902   5.061   7.112   8.586
 5839W        W 9903   4.233   1.801   9.819
 5840W        W 9904   0.494  10.297   0.788
 5841W        W 9905   2.684   5.940  10.788
 5842W        W 9906   0.789   0.319   9.963
 5843W        W 9907   6.565   1.642  11.839
 5844W        W 9908   4.545   5.057   3.077
 5845W        W 9909   3.963   5.069   3.779
 5846W        W 9910   1.945   4.701   1.984
 5847W        W 9911   1.849   7.023   8.917
 5848W        W 9912   8.283   2.350   9.769
 5849W        W 9913   4.654   5.014  11.761
 5850W        W 9914   5.102   4.980  10.106
 5851W        W 9915   0.208   7.053   1.917
 5852W        W 9916  10.303   0.063   2.098
 5853W        W 9917   6.778   7.011   9.991
 5854W        W 9918   1.054   3.975  10.426
 5855W        W 9919   6.961   4.507   1.942
 5856W        W 9920   5.965   6.450   2.720
 5857W        W 9921   1.977   9.779   9.431
 5858W        W 9922   3.066  10.009  11.994
 5859W        W 9923   2.581   6.603  11.569
 5860W        W 9924   4.719   0.725  11.630
 5861W        W 9925   7.136   1.708   9.980
 5862W        W 9926   2.609  10.288   1.845
 5863W        W 9927  10.066   9.527   2.796
 5864W        W 9928   2.169   2.283   2.321
 5865W        W 9929   1.297   3.104  11.355
 5866W        W 9930   3.757   9.346   9.472
 5867W        W 9931   0.504  10.484  11.867
 5868W        W 9932   0.963   3.359  11.623
 5869W        W 9933  10.333   7.941   9.738
 5870W        W 9934   6.121   6.638   9.476
 5871W        W 9935   0.493   5.727  10.186
 5872W        W 9936   6.726   5.041   4.063
 5873W        W 9937   7.849   3.107   0.196
 5874W        W 9938   3.769   7.144   0.372
 5875W        W 9939   6.487   4.093  10.206
 5876W        W 9940   7.680   8.427   3.553
 5877W        W 9941   6.627   2.612  10.049
 5878W        W 9942   5.979   5.691   1.239
 5879W        W 9943   4.136   4.266   1.808
 5880W        W 9944  10.473  10.402  10.378
 5881W        W 9945   5.547   9.586  11.943
 5882W        W 9946   5.516   0.235   3.203
 5883W        W 9947   6.442   4.040  11.364
 5884W        W 9948   9.467   1.298   2.309
 5885W        W 9949   8.333   5.757  10.876
 5886W        W 9950   5.718   2.140   3.396
 5887W        W 9951   3.099   9.371   1.864
 5888W        W 9952   5.028   5.037   2.891
 5889W        W 9953   2.515   2.757   9.391
 5890W        W 9954   0.338   3.028   9.816
 5891W        W 9955   4.108   3.882  11.292
 5892W        W 9956   1.287   9.001   2.518
 5893W        W 9957   1.958   0.407   3.558
 5894W        W 9958   7.861   8.474   3.087
 5895W        W 9959   6.493   7.287   1.763
 5896W        W 9960   7.262   0.851   9.980
 5897W        W 9961   1.253   8.163   3.528
 5898W        W 9962   6.569   5.723   3.874
 5899W        W 9963   2.309   5.189  10.202
 5900W        W 9964   5.044   3.429   8.058
 5901W        W 9965   1.147   4.312   0.999
 5902W        W 9966   1.607   4.945   9.908
 5903W        W 9967   8.609   1.544   3.470
 5904W        W 9968   3.536   3.128   1.905
 5905W        W 9969   2.195   5.243   3.552
 5906W        W 9970   5.546   2.628   3.302
 5907W        W 9971   7.239   6.211   0.443
 5908W        W 9972   5.229   1.350  11.676
 5909W        W 9973   9.121   7.039   0.689
 5910W        W 9974   2.296   2.793   9.890
 5911W        W 9975  10.029   4.027  10.513
 5912W        W 9976  10.079   1.331  10.219
 5913W        W 9977   7.712   9.474   2.673
 5914W        W 9978   0.855   1.629  10.286
 5915W        W 9979   3.774   8.458  11.019
 5916W        W 9980   3.080   0.026  11.997
 5917W        W 9981   1.990   9.350   1.022
 5918W        W 9982   5.362   6.855   3.108
 5919W        W 9983   9.723  10.411   0.435
 5920W        W 9984   4.308   2.437  10.309
 5921W        W 9985   7.702   8.011   0.287
 5922W        W 9986   4.709   1.387   1.504
 5923W        W 9987   6.588   9.690  11.980
 5924W        W 9988   3.275   5.765   2.306
 5925W        W 9989   6.026   4.296   9.983
 5926W        W 9990   5.017   1.331   9.198
 5927W        W 9991   6.981   9.491  10.536
 5928W        W 9992   0.599   6.614   0.513
 5929W        W 9993   8.909  10.377   9.044
 5930W        W 9994   9.142   7.031   9.824
 5931W        W 9995   9.355   5.158   0.758
 5932W        W 9996   9.908   7.540   9.848
 5933W        W 9997   9.661   0.441   2.435
 5934W        W 9998   2.319   9.781   1.048
 5935W        W 9999   8.191   3.136   2.000
 5936W        W10000   3.321   1.282   2.269
 5937W        W10001   6.033   1.811   2.966
 5938W        W10002   6.054   7.385  10.328
 5939W        W10003   2.430   9.470   2.712
 5940W        W10004   7.237   1.212   9.605
 5941W        W10005   2.700   1.982  10.038
 5942W        W10006   8.641   9.534  10.829
 5943W        W10007   9.346   7.111   2.013
 5944W        W10008   5.724   6.083   2.459
 5945W        W10009   3.921   1.357  11.396
 5946W        W10010   3.245   4.316   1.295
 5947W        W10011   4.536   4.063   9.844
 5948W        W10012   5.199   5.605   3.134
 5949W        W10013   7.980   3.625   2.654
 5950W        W10014   2.786   3.362  10.742
 5951W        W10015   4.762  10.028   8.849
 5952W        W10016   1.866  10.309   8.721
 5953W        W10017   7.407   5.005   9.959
 5954W        W10018   1.908   2.330   0.470
 5955W        W10019   1.091   5.555   1.082
 5956W        W10020  10.270   8.038   1.388
 5957W        W10021   0.826   8.098  11.469
 5958W        W10022   0.988   0.142   8.603
 5959W        W10023   5.429   7.576   4.244
 5960W        W10024   0.027   5.850   2.458
 5961W        W10025   5.447   0.374   9.389
 5962W        W10026  10.459   7.001   9.270
 5963W        W10027   4.603   7.404  11.610
 5964W        W10028   1.315   2.364   9.192
 5965W        W10029   6.977   7.675  11.533
 5966W        W10030   5.288   2.165  10.088
 5967W        W10031   5.476   4.003  11.684
 5968W        W10032   3.300   5.550   3.677
 5969W        W10033   1.779   7.585   3.130
 5970W        W10034   9.039   1.535   2.205
 5971W        W10035   4.375   4.526   9.503
 5972W        W10036   6.590   2.110   0.039
 5973W        W10037   4.634  10.467  11.577
 5974W        W10038   3.185   7.059   9.986
 5975W        W10039   4.625   4.404   8.412
 5976W        W10040   3.232   9.921   2.724
 5977W        W10041   3.406   3.500   3.408
 5978W        W10042   5.774   5.602   8.579
 5979W        W10043   6.056  10.072  11.045
 5980W        W10044   2.555   9.434   1.823
 5981W        W10045   2.935   6.055   3.130
 5982W        W10046   9.991   9.734   0.819
 5983W        W10047   9.775   1.683   3.089
 5984W        W10048   5.573   4.376   8.466
 5985W        W10049   2.544   9.160  10.505
 5986W        W10050   1.260  10.324   0.538
 5987W        W10051   9.223   0.857   2.384
 5988W        W10052   5.078   8.170   0.414
 5989W        W10053  10.222   8.846   9.087
 5990W        W10054   9.467   1.400   2.797
 5991W        W10055  10.029   1.779   9.036
 5992W        W10056   2.510   8.234   0.862
 5993W        W10057   8.463   1.070  10.518
 5994W        W10058   3.738   7.074   1.014
 5995W        W10059   6.635   6.592  10.272
 5996W        W10060   3.034   2.694   9.334
 5997W        W10061   8.920   6.074   3.241
 5998W        W10062   8.689   3.880   3.746
 5999W        W10063   9.114  10.270  11.057
 6000W        W10064   9.782   8.923   3.312
 6001W        W10065   5.708   4.759   9.000
 6002W        W10066   0.266   2.221   1.280
 6003W        W10067   2.656   3.848  10.732
 6004W        W10068  10.267   2.645   1.509
 6005W        W10069   3.381   8.479   2.618
 6006W        W10070   5.486   2.263   8.805
 6007W        W10071   3.707   4.126   3.554
 6008W        W10072   5.610   4.902   8.508
 6009W        W10073   3.326   7.518   9.723
 6010W        W10074   4.667   8.128   1.448
 6011W        W10075   9.020   1.640   2.706
 6012W        W10076   9.504   9.948   1.242
 6013W        W10077   8.696   2.704   9.062
 6014W        W10078   2.624   3.060  10.331
 6015W        W10079   2.275   3.834  10.316
 6016W        W10080   0.624   7.581  10.576
 6017W        W10081   6.694   1.665  11.300
 6018W        W10082   8.560   8.847   0.007
 6019W        W10083   2.274   9.870   1.913
 6020W        W10084   6.363   0.480   8.997
 6021W        W10085   7.339   5.733   0.220
 6022W        W10086   9.878   9.208   8.905
 6023W        W10087   6.717   7.868   3.354
 6024W        W10088   1.838   6.534   1.124
 6025W        W10089   8.089   9.430   1.087
 6026W        W10090   7.425   5.609   0.698
 6027W        W10091   0.284   4.746   9.551
 6028W        W10092   1.647   1.978   0.179
 6029W        W10093   2.221  10.290  11.951
 6030W        W10094   5.704   1.586   0.271
 6031W        W10095   0.759   1.266   9.330
 6032W        W10096   2.638   5.507   9.524
 6033W        W10097   2.755   4.247   3.280
 6034W        W10098   8.901  10.444   2.701
 6035W        W10099   1.840   3.720   8.933
 6036W        W10100   7.909  10.364   9.340
 6037W        W10101   5.215   1.892   1.697
 6038W        W10102   6.602   3.067  11.729
 6039W        W10103   6.394   3.289  10.708
 6040W        W10104   8.126   5.718  11.773
 6041W        W10105   8.951   5.306  11.966
 6042W        W10106   1.863   1.269   8.767
 6043W        W10107   8.792   0.175   1.234
 6044W        W10108   3.325   8.155   1.127
 6045W        W10109   0.701   9.843   8.930
 6046W        W10110   4.234   7.564   3.054
 6047W        W10111   5.533   4.988   9.429
 6048W        W10112   2.399   9.977   0.595
 6049W        W10113   1.780   5.696   2.836
 6050W        W10114   6.519  10.463   1.119
 6051W        W10115   5.068   0.796  10.457
 6052W        W10116   6.038   2.249  10.775
 6053W        W10117   8.108   9.688   2.396
 6054W        W10118   7.267   7.965   1.802
 6055W        W10119   4.192   1.483   3.202
 6056W        W10120   4.099   2.632   2.194
 6057W        W10121   0.267   9.618  11.004
 6058W        W10122   6.915   1.332   1.664
 6059W        W10123   5.161   9.279   1.835
 6060W        W10124   8.193   2.435   0.842
 6061W        W10125   3.792   0.881  10.692
 6062W        W10126   6.016   7.221   2.500
 6063W        W10127   3.306   5.795   0.439
 6064W        W10128   6.926   8.856   9.408
 6065W        W10129   7.664   7.614  10.533
 6066W        W10130   3.480   5.504   0.849
 6067W        W10131   2.020   5.362  11.731
 6068W        W10132   8.559   0.715   0.053
 6069W        W10133   0.396   2.388   0.798
 6070W        W10134   9.722   7.862   9.081
 6071W        W10135   1.796   2.677   0.848
 6072W        W10136   7.885  10.335  10.979
 6073W        W10137   9.145   0.345  10.473
 6074W        W10138   5.813   8.354   8.471
 6075W        W10139   5.112   5.171  11.974
 6076W        W10140   4.699   7.374   1.813
 6077W        W10141   4.305   4.681   2.746
 6078W        W10142   0.997   5.585   2.396
 6079W        W10143   6.128   0.473  11.643
 6080W        W10144   7.935   5.220  11.852
 6081W        W10145   7.155   1.705   9.455
 6082W        W10146   5.706   7.541   9.570
 6083W        W10147   9.311   8.754   9.392
 6084W        W10148   7.536   4.987   1.110
 6085W        W10149   8.817   0.719  10.317
 6086W        W10150   1.729   1.780   0.650
 6087W        W10151   1.691   0.817   1.586
 6088W        W10152   1.204   5.210   3.535
 6089W        W10153  10.244   2.777   2.377
 6090W        W10154  10.495   8.907   1.640
 6091W        W10155   5.678   1.693  11.252
 6092W        W10156   8.079   1.286   0.349
 6093W        W10157   2.185  10.467   9.565
 6094W        W10158   2.650   6.357  11.091
 6095W        W10159   4.165   9.424   3.222
 6096W        W10160   8.844   5.087   0.830
 6097W        W10161   9.532   9.067   0.778
 6098W        W10162   9.307   9.849  10.035
 6099W        W10163   2.861   3.151   9.481
 6100W        W10164   3.121   6.215  10.041
 6101W        W10165   6.670   3.217   2.242
 6102W        W10166   6.994   6.961   3.192
 6103W        W10167   8.678   2.391  11.125
 6104W        W10168   3.141   4.405  11.435
 6105W        W10169   4.190   0.038   9.551
 6106W        W10170   6.652   7.586   9.559
 6107W        W10171   2.445   1.642  10.290
 6108W        W10172   0.233   5.715  11.546
 6109W        W10173   8.407   7.761  11.475
 6110W        W10174   0.213   1.793  11.172
 6111W        W10175   4.585   9.576   9.028
 6112W        W10176   3.539   2.819   9.219
 6113W        W10177   0.073   1.350  10.347
 6114W        W10178   7.623   0.637   0.810
 6115W        W10179   2.192   8.155  10.171
 6116W        W10180   8.992   1.230  10.257
 6117W        W10181   3.831   8.031  11.356
 6118W        W10182   8.995   5.520   0.492
 6119W        W10183   6.469   4.428   8.418
 6120W        W10184   7.940   2.821  11.763
 6121W        W10185   6.394   0.976   0.395
 6122W        W10186   7.059   5.525   3.282
 6123W        W10187   3.465   5.029   0.025
 6124W        W10188   4.630   0.243   3.425
 6125W        W10189   1.590  10.142   3.687
 6126W        W10190   3.616   3.153   8.806
 6127W        W10191   2.877   4.658   2.537
 6128W        W10192   7.104   4.040   2.082
 6129W        W10193   9.800   7.424   3.141
 6130W        W10194   2.673   5.008   0.444
 6131W        W10195   8.864   7.748   9.255
 6132W        W10196   6.868   1.227   9.971
 6133W        W10197   5.896   8.142   0.445
 6134W        W10198   7.191   4.876   3.932
 6135W        W10199   4.570   0.001   1.009
 6136W        W10200   8.541   4.057  11.353
 6137W        W10201   3.170   5.683  11.226
 6138W        W10202   5.630   2.649   1.894
 6139W        W10203   6.416   8.844   9.539
 6140W        W10204   2.578   1.972   2.169
 6141W        W10205   3.366   9.805   1.838
 6142W        W10206   0.654   7.573   8.440
 6143W        W10207   5.625   8.316   1.174
 6144W        W10208   2.479   4.808   9.861
 6145W        W10209   0.244   4.352  11.970
 6146W        W10210   3.715   0.869   1.203
 6147W        W10211   0.466   3.820   9.120
 6148W        W10212   5.927   9.538   2.487
 6149W        W10213   1.712   3.810   1.804
 6150W        W10214   4.785   6.264   2.424
 6151W        W10215   1.745   8.093   3.314
 6152W        W10216   1.752   3.923   9.429
 6153W        W10217   4.723   0.768  11.103
 6154W        W10218   9.898   8.496  11.499
 6155W        W10219   0.399   6.187   2.492
 6156W        W10220   2.345   1.743   9.761
 6157W        W10221   8.005   5.087   2.081
 6158W        W10222   5.488  10.330  10.192
 6159W        W10223   3.281   2.323   2.616
 6160W        W10224   1.769   3.549   3.353
 6161W        W10225   5.134   9.551   0.271
 6162W        W10226   6.024   1.288   2.797
 6163W        W10227   8.971   2.026   2.361
 6164W        W10228   9.135   5.082   1.840
 6165W        W10229   0.709   7.188   1.784
 6166W        W10230   2.269   4.160   0.889
 6167W        W10231   7.139   1.248   0.710
 6168W        W10232   7.601   2.846   0.963
 6169W        W10233   6.797   6.938   2.700
 6170W        W10234   9.479   8.415   2.490
 6171W        W10235   1.210   2.802   9.468
 6172W        W10236   2.234   9.341  11.874
 6173W        W10237   7.497   5.630  10.861
 6174W        W10238   0.392   0.858   0.919
 6175W        W10239   5.583   4.287   2.604
 6176W        W10240   1.426   3.403   0.310
 6177W        W10241   8.918   9.471   1.766
 6178W        W10242   4.701   5.761  11.364
 6179W        W10243   7.239   2.548   0.742
 6180W        W10244   3.703   7.963   1.428
 6181W        W10245   7.737  10.221   0.005
 6182W        W10246   0.389   5.971  11.148
 6183W        W10247   0.788   0.423  11.808
 6184W        W10248   3.112   3.568   0.007
 6185W        W10249   0.356   8.571   3.101
 6186W        W10250   4.245   9.191   9.478
 6187W        W10251   2.375   3.077   0.343
 6188W        W10252   3.233   2.780   3.566
 6189W        W10253   5.209   3.844   8.970
 6190W        W10254   2.830   8.867   1.180
 6191W        W10255  10.325   5.649   1.689
 6192W        W10256   0.959   2.118  10.435
 6193W        W10257   5.541   2.643   0.296
 6194W        W10258   6.463   4.287   8.910
 6195W        W10259   3.254   9.279  11.485
 6196W        W10260   3.760   4.696   1.004
 6197W        W10261   0.814   1.432   1.972
 6198W        W10262   9.537   1.592  11.724
 6199W        W10263   8.082   8.283   0.608
 6200W        W10264   1.815   5.102  10.332
 6201W        W10265   9.984   6.419   1.851
 6202W        W10266   4.938   6.438   0.339
 6203W        W10267   3.372   9.896  10.685
 6204W        W10268   6.570   2.460   2.867
 6205W        W10269   5.314   3.300   8.498
 6206W        W10270   8.943   3.151   8.908
 6207W        W10271   3.206   1.369  10.120
 6208W        W10272   9.776   6.542   8.873
 6209W        W10273   9.936   6.992   8.534
 6210W        W10274   4.607   1.550   2.861
 6211W        W10275   4.624   2.654   2.382
 6212W        W10276   3.982   4.247  11.644
 6213W        W10277   4.437   8.730   9.509
 6214W        W10278   6.240   6.911   0.012
 6215W        W10279   6.113   4.934   0.920
 6216W        W10280   2.772  10.123   2.321
 6217W        W10281   2.138  10.027   9.860
 6218W        W10282   4.689   0.995  10.200
 6219W        W10283   6.567   1.913   1.363
 6220W        W10284   6.062  10.403  10.278
 6221W        W10285   9.338   9.594   2.050
 6222W        W10286   8.682   5.488   8.470
 6223W        W10287   5.483   1.232   0.599
 6224W        W10288   0.647   9.860   9.814
 6225W        W10289   6.852   0.891   1.387
 6226W        W10290   5.223   3.202  11.736
 6227W        W10291   6.063   2.679   9.039
 6228W        W10292   0.496   9.113   3.615
 6229W        W10293   8.140   3.587   8.943
 6230W        W10294   0.696   1.800   0.000
 6231W        W10295   0.978   6.039   9.296
 6232W        W10296   8.083   7.590  10.855
 6233W        W10297   7.957   9.465   1.599
 6234W        W10298   6.954   3.778   9.699
 6235W        W10299   6.067   2.079   1.170
 6236W        W10300   9.305   7.492  10.616
 6237W        W10301   6.642   2.969   2.860
 6238W        W10302   5.631   9.362   1.701
 6239W        W10303   7.085   8.603  11.970
 6240W        W10304   2.848   2.378  10.913
 6241W        W10305   8.544   9.433   8.958
 6242W        W10306   1.290   6.053   1.001
 6243W        W10307   5.256   1.845  10.934
 6244W        W10308   9.085   6.989  11.175
 6245W        W10309   0.013   1.707   1.102
 6246W        W10310   6.580   0.782  10.003
 6247W        W10311   6.039   3.800   8.172
 6248W        W10312   9.248   2.189   9.998
 6249W        W10313   4.080   6.630   1.479
 6250W        W10314   5.201   8.974   9.962
 6251W        W10315   6.110   2.790   1.698
 6252W        W10316   5.234   4.687   9.721
 6253W        W10317   1.682   3.936   3.819
 6254W        W10318   7.364   5.174  11.021
 6255W        W10319   4.528   3.606   9.609
 6256W        W10320   2.005   1.352   2.807
 6257W        W10321   3.094   2.288   8.973
 6258W        W10322   9.471   8.281   0.269
 6259W        W10323   0.837   1.581   8.903
 6260W        W10324   3.831   7.696   1.845
 6261W        W10325   5.598   9.350  10.942
 6262W        W10326   0.715   2.983   1.507
 6263W        W10327   6.911   5.951   1.776
 6264W        W10328   3.072   4.053  11.079
 6265W        W10329   3.082   8.951   9.111
 6266W        W10330   9.853   2.229   0.686
 6267W        W10331   7.958   6.169   1.795
 6268W        W10332  10.238   0.752   0.298
 6269W        W10333   7.512   3.600   8.990
 6270W        W10334   5.929   0.546   9.608
 6271W        W10335   7.915   4.552   2.044
 6272W        W10336   6.902   0.301  10.535
 6273W        W10337   2.175   0.478  11.234
 6274W        W10338   3.314   0.741   2.425
 6275W        W10339   5.814   0.040   9.809
 6276W        W10340  10.216   1.316   3.406
 6277W        W10341   1.234   4.269  11.795
 6278W        W10342   6.685   6.094   8.777
 6279W        W10343   7.993   0.412   3.345
 6280W        W10344   1.426   0.325   2.049
 6281W        W10345   0.328   3.804   1.731
 6282W        W10346   7.934   9.962  10.644
 6283W        W10347   4.140   2.694   0.193
 6284W        W10348   9.542   5.206   9.074
 6285W        W10349   4.180   3.760   1.843
 6286W        W10350   6.631   3.809   2.477
 6287W        W10351   7.715   3.159   1.778
 6288W        W10352   5.379   0.433   2.743
 6289W        W10353   4.926   9.802   3.561
 6290W        W10354   3.801   2.121   8.572
 6291W        W10355   5.481   5.273   9.900
 6292W        W10356   3.110   4.771  10.592
 6293W        W10357   6.969   4.082  10.366
 6294W        W10358   0.263   1.781   3.055
 6295W        W10359   5.577   0.274  11.962
 6296W        W10360   3.309  10.287   3.450
 6297W        W10361   3.448   7.540   3.647
 6298W        W10362   1.255   1.699   0.376
 6299W        W10363   1.754   8.622   4.102
 6300W        W10364   3.740   1.176   3.077
 6301W        W10365   6.034   8.046  11.527
 6302W        W10366   2.865   3.140   0.180
 6303W        W10367   4.251   5.705   9.641
 6304W        W10368   3.674   8.694   1.829
 6305W        W10369   5.561   9.825   0.434
 6306W        W10370   2.281   4.745  11.756
 6307W        W10371   4.176   0.887   2.555
 6308W        W10372   6.776   3.245   1.734
 6309W        W10373   2.455   7.317  10.188
 6310W        W10374   7.925   0.332  11.044
 6311W        W10375   7.359   3.699   1.393
 6312W        W10376   9.848   5.973  11.442
 6313W        W10377   6.167   7.040   9.157
 6314W        W10378   9.156   0.881   9.922
 6315W        W10379   2.759   5.120  10.478
 6316W        W10380   7.492   2.888   2.932
 6317W        W10381   2.261   5.758   1.354
 6318W        W10382   1.219   0.477  11.543
 6319W        W10383   9.460   1.075  11.855
 6320W        W10384   6.099   8.818   9.939
 6321W        W10385   1.413   3.913   3.401
 6322W        W10386   4.833   8.904  11.818
 6323W        W10387   3.299   5.971   2.787
 6324W        W10388   9.079   2.698   9.990
 6325W        W10389   5.243   3.112   2.576
 6326W        W10390   8.958   4.950   1.327
 6327W        W10391   3.768   3.155   1.445
 6328W        W10392   3.207   7.753   1.461
 6329W        W10393  10.116   3.921   9.740
 6330W        W10394   0.022   0.365   1.673
 6331W        W10395   7.097   3.789  10.777
 6332W        W10396   7.906   3.135   8.818
 6333W        W10397   0.150   7.792   3.009
 6334W        W10398   8.443   5.141  11.858
 6335W        W10399   9.065   5.523   1.018
 6336W        W10400   5.761   1.590   3.432
 6337W        W10401   4.056   1.402  10.113
 6338W        W10402   3.202   8.863   1.959
 6339W        W10403   3.343   0.044   9.870
 6340W        W10404   2.440   6.465  10.239
 6341W        W10405   9.358   5.857   0.278
 6342W        W10406   3.125   6.559   3.494
 6343W        W10407   3.807  10.051   1.875
 6344W        W10408   3.341  10.033   9.787
 6345W        W10409   5.026   0.230   1.875
 6346W        W10410   5.288   8.087  10.326
 6347W        W10411   1.371   9.012   2.023
 6348W        W10412   1.391   2.267  10.145
 6349W        W10413   1.835   2.609   3.424
 6350W        W10414   0.196   3.744   2.748
 6351W        W10415   5.757   6.575  11.162
 6352W        W10416   8.022   9.379  11.390
 6353W        W10417   6.174   1.857  11.050
 6354W        W10418   5.101   8.094  11.356
 6355W        W10419   4.524   1.370   9.907
 6356W        W10420   6.138   7.072   0.483
 6357W        W10421   3.062   1.854   0.970
 6358W        W10422   6.985   4.690   1.479
 6359W        W10423   1.003  10.143   8.624
 6360W        W10424   6.345   8.275   3.234
 6361W        W10425   2.466   4.266  10.518
 6362W        W10426   2.126   0.782   9.934
 6363W        W10427   7.208   9.803   0.706
 6364W        W10428   9.526   1.677   1.970
 6365W        W10429   1.796   9.331   9.177
 6366W        W10430   5.587   8.669  11.819
 6367W        W10431   9.766   4.595  11.308
 6368W        W10432   7.123   5.937   2.622
 6369W        W10433   1.838   5.672  10.992
 6370W        W10434   9.358   4.944  11.962
 6371W        W10435   3.179   1.299   9.096
 6372W        W10436   7.872  10.251  11.504
 6373W        W10437   1.544   0.211  11.878
 6374W        W10438   6.365   5.589   2.519
 6375W        W10439   8.561   0.990  11.044
 6376W        W10440   0.634   4.587   1.862
 6377W        W10441   7.510   7.116   0.663
 6378W        W10442   6.644   4.735   3.132
 6379W        W10443   8.526  10.350   3.060
 6380W        W10444   7.993   1.833   2.741
 6381W        W10445   7.055   0.476   0.615
 6382W        W10446   2.239   3.227   2.344
 6383W        W10447   3.200   4.709   9.548
 6384W        W10448   9.282   9.861  10.530
 6385W        W10449   5.335   3.082   2.079
 6386W        W10450   4.225   7.957   3.390
 6387W        W10451   2.368   4.071   2.378
 6388W        W10452   0.730   4.221   0.698
 6389W        W10453   9.413   9.675   9.113
 6390W        W10454   5.743   1.151  11.974
 6391W        W10455   8.867   2.329   1.959
 6392W        W10456   6.944   0.413   8.942
 6393W        W10457   8.976   5.691   1.949
 6394W        W10458   1.715   3.772  10.781
 6395W        W10459   9.620   3.547   3.523
 6396W        W10460   8.461   8.478  10.857
 6397W        W10461   8.093   0.440   0.609
 6398W        W10462   0.793   3.129  10.044
 6399W        W10463   6.217   9.596   0.979
 6400W        W10464   5.315   9.943   0.951
 6401W        W10465  10.074   3.216   2.059
 6402W        W10466  10.385   9.298  10.019
 6403W        W10467   6.037   7.160  11.299
 6404W        W10468   2.344   1.473   1.263
 6405W        W10469   6.712   3.222  10.260
 6406W        W10470   3.672   9.099   3.171
 6407W        W10471   2.857   6.132   8.810
 6408W        W10472   3.297   4.761   2.240
 6409W        W10473   3.594  10.465   0.699
 6410W        W10474   8.891   7.594   8.771
 6411W        W10475   9.718   8.747   9.071
 6412W        W10476  10.408   2.155   2.987
 6413W        W10477   2.375   2.111  10.513
 6414W        W10478   2.058   3.231   9.744
 6415W        W10479   6.890   1.789   1.902
 6416W        W10480   9.934   1.350   2.052
 6417W        W10481   9.816   9.089   2.840
 6418W        W10482   2.961   4.294  10.641
 6419W        W10483   5.594   4.474   9.417
 6420W        W10484   5.576   3.320   3.459
 6421W        W10485   0.433   7.257  11.541
 6422W        W10486   2.181   3.767  11.640
 6423W        W10487  10.091   3.513   8.938
 6424W        W10488   2.722   3.134   8.981
 6425W        W10489   8.611   3.858  10.627
 6426W        W10490   3.777   3.131   3.489
 6427W        W10491   7.277   7.176   2.801
 6428W        W10492   1.868   5.013   1.153
 6429W        W10493   6.839   9.827   9.370
 6430W        W10494   3.599   5.022   2.626
 6431W        W10495   0.381   7.852   0.453
 6432W        W10496   8.984   9.367   1.281
 6433W        W10497   5.796   1.763   9.482
 6434W        W10498   2.180   6.511   0.295
 6435W        W10499   5.321   2.870  10.955
 6436W        W10500   8.958   9.535   9.302
 6437W        W10501   7.201   5.246   8.431
 6438W        W10502   5.145   6.632  10.449
 6439W        W10503   9.487   4.057   0.267
 6440W        W10504   8.341   1.843   0.774
 6441W        W10505   9.139   6.101   3.697
 6442W        W10506   8.828   8.386   3.112
 6443W        W10507   1.712   0.548   0.237
 6444W        W10508   1.299  10.475  11.461
 6445W        W10509   9.981   8.554   2.456
 6446W        W10510   8.449   6.004   1.763
 6447W        W10511   1.231   7.202   3.060
 6448W        W10512   5.660   8.293   9.534
 6449W        W10513   4.291   4.770   8.611
 6450W        W10514   9.968   7.911  11.105
 6451W        W10515   7.318   5.107   3.090
 6452W        W10516   8.052   2.279   1.960
 6453W        W10517   6.458   9.837   0.456
 6454W        W10518   4.986   3.658   9.385
 6455W        W10519   6.172   6.324  11.367
 6456W        W10520   1.872   0.356   2.998
 6457W        W10521   2.197   4.691   9.423
 6458W        W10522   6.522   9.611   9.738
 6459W        W10523   4.940   8.045   2.289
 6460W        W10524   4.424   2.610   1.805
 6461W        W10525  10.256   9.643  10.958
 6462W        W10526   6.191   5.178   2.283
 6463W        W10527   5.469   3.329   1.496
 6464W        W10528   0.793   7.821   9.069
 6465W        W10529   6.241  10.416   3.165
 6466W        W10530   6.325   2.830   0.802
 6467W        W10531   5.444   1.147  10.501
 6468W        W10532   4.683   2.747  10.108
 6469W        W10533   1.816   6.157   2.252
 6470W        W10534   6.235   5.023   3.315
 6471W        W10535   1.616   6.548   8.843
 6472W        W10536   6.087   6.112   1.813
 6473W        W10537   5.698   4.316   1.385
 6474W        W10538   3.815   7.739   0.365
 6475W        W10539   0.404   6.445   3.475
 6476W        W10540   0.876   4.963  10.253
 6477W        W10541   0.159  10.204   2.068
 6478W        W10542   5.273   2.702  11.858
 6479W        W10543   9.570   3.122   0.267
 6480W        W10544  10.209   6.506   8.557
 6481W        W10545   5.252  10.434   2.819
 6482W        W10546   7.412   9.115   9.514
 6483W        W10547   4.476   6.462   0.144
 6484W        W10548   8.657   9.579   2.722
 6485W        W10549   2.387   4.234   1.406
 6486W        W10550  10.359   2.189   0.945
 6487W        W10551   7.979   7.916  10.018
 6488W        W10552   1.455   9.589  11.492
 6489W        W10553   5.541   7.186   3.512
 6490W        W10554   2.848   6.912   8.651
 6491W        W10555   3.019   3.502   0.536
 6492W        W10556   0.379  10.008   3.253
 6493W        W10557   5.497   9.377   2.253
 6494W        W10558   7.693   3.275   1.260
 6495W        W10559   6.195   4.084   4.105
 6496W        W10560   8.092   0.725   1.443
 6497W        W10561   0.411   4.113   1.334
 6498W        W10562   3.536   0.530  11.052
 6499W        W10563   4.787   9.855   1.747
 6500W        W10564   5.027   6.538   3.353
 6501W        W10565   1.845   1.388   0.988
 6502W        W10566   6.215   5.177   1.776
 6503W        W10567  10.042   5.798   2.337
 6504W        W10568   8.618   1.655  11.840
 6505W        W10569   6.045   8.548   1.898
 6506W        W10570   7.378   9.209   2.963
 6507W        W10571   8.865   8.354   1.940
 6508W        W10572   7.404   1.241   2.435
 6509W        W10573   9.573   9.499  11.556
 6510W        W10574   0.953   6.867   0.824
 6511W        W10575   6.996   0.791  11.409
 6512W        W10576   1.235   1.313   2.258
 6513W        W10577   1.634   9.057   3.382
 6514W        W10578   4.046   5.885  10.064
 6515W        W10579   2.649   2.488  11.786
 6516W        W10580   1.589   7.441  10.402
 6517W        W10581   1.170   1.002   1.331
 6518W        W10582   6.131   4.464   1.119
 6519W        W10583   3.346   2.573   1.871
 6520W        W10584   5.818   2.705  10.950
 6521W        W10585   8.327   7.302   1.148
 6522W        W10586   6.236   7.778   0.411
 6523W        W10587   0.551   4.064  10.446
 6524W        W10588   6.542   2.729   2.436
 6525W        W10589   2.190   2.822   1.141
 6526W        W10590   0.636  10.296   1.913
 6527W        W10591   6.292   1.346  10.247
 6528W        W10592   8.909   4.003   9.093
 6529W        W10593   8.816   2.799   0.526
 6530W        W10594   3.193   6.717   1.553
 6531W        W10595   5.193   0.887   1.895
 6532W        W10596   8.063   7.731   1.171
 6533W        W10597   8.267  10.475   9.713
 6534W        W10598   1.768   3.032   2.509
 6535W        W10599   1.791   6.115  10.700
 6536W        W10600   9.435   2.394   1.419
 6537W        W10601   4.949   6.390   1.945
 6538W        W10602   9.409   5.428   2.690
 6539W        W10603   4.809   8.646   9.881
 6540W        W10604   2.167   6.534  11.264
 6541W        W10605   4.612   3.335   2.633
 6542W        W10606   5.703   0.233  10.942
 6543W        W10607   1.403   8.526   2.750
 6544W        W10608   2.727   6.031  10.286
 6545W        W10609   2.792   2.215   0.241
 6546W        W10610   3.759   5.422   3.456
 6547W        W10611   4.574   6.054   2.017
 6548W        W10612   6.438   2.320   9.100
 6549W        W10613   1.839   2.244   2.739
 6550W        W10614   8.872   1.329   3.080
 6551W        W10615   7.181   1.064  10.805
 6552W        W10616   2.381   2.339   1.863
 6553W        W10617   0.930   1.129  10.229
 6554W        W10618   6.588   0.792   2.747
 6555W        W10619   0.391   9.865   2.783
 6556W        W10620   4.512   2.616   9.114
 6557W        W10621   2.209   1.414   9.372
 6558W        W10622   3.694   5.359   0.377
 6559W        W10623   8.558   6.358   0.241
 6560W        W10624   7.235  10.315  11.872
 6561W        W10625   3.619   8.450  10.530
 6562W        W10626   4.699   8.909   2.633
 6563W        W10627   7.927   2.719   2.744
 6564W        W10628   3.209   0.922   0.952
 6565W        W10629   1.586   3.114   0.721
 6566W        W10630   5.433   8.036   2.338
 6567W        W10631   9.361   3.646   2.447
 6568W        W10632   4.258   5.676  11.741
 6569W        W10633   1.028   2.840   8.504
 6570W        W10634   9.081   6.418  11.026
 6571W        W10635   3.773   6.954  10.487
 6572W        W10636   8.814   3.754   1.934
 6573W        W10637   9.912   7.737   3.540
 6574W        W10638   6.610   0.525   0.262
 6575W        W10639   3.304   6.597   9.782
 6576W        W10640  10.074   9.314  11.280
 6577W        W10641   5.788   4.288   3.094
 6578W        W10642   5.615   3.205   0.459
 6579W        W10643   0.744   8.949   3.191
 6580W        W10644   7.806   7.159  10.164
 6581W        W10645   8.478   6.011   9.083
 6582W        W10646   1.465   0.049   2.857
 6583W        W10647   0.428   0.329   0.762
 6584W        W10648   3.628   5.485  10.348
 6585W        W10649   8.852  10.304   0.877
 6586W        W10650   8.593   8.573   8.992
 6587W        W10651   5.846   4.382   2.163
 6588W        W10652   0.191   6.504   8.746
 6589W        W10653   6.536   6.781   8.858
 6590W        W10654   0.120   8.615  10.914
 6591W        W10655   7.856   3.654   9.358
 6592W        W10656   3.006   7.086   1.873
 6593W        W10657   7.866   7.615   2.169
 6594W        W10658   5.171  10.224   1.853
 6595W        W10659   5.670   4.121   4.006
 6596W        W10660   5.489   7.615  11.830
 6597W        W10661   6.168   2.803  11.948
 6598W        W10662   4.902   8.754   8.472
 6599W        W10663   5.515   0.752   0.202
 6600W        W10664   8.356   6.002   0.887
 6601W        W10665   5.141   5.994   2.758
 6602W        W10666   8.578   4.189   1.733
 6603W        W10667   6.205   3.726  10.408
 6604W        W10668   2.180   2.303   0.953
 6605W        W10669   9.432   5.361   0.273
 6606W        W10670   7.457   3.089   9.749
 6607W        W10671   5.808   4.751   3.317
 6608W        W10672   1.981   6.128  11.721
 6609W        W10673   4.144   4.895   9.782
 6610W        W10674   5.902   1.385   9.827
 6611W        W10675   1.851   6.942   1.456
 6612W        W10676   4.992   1.669   2.502
 6613W        W10677   3.764   2.256   2.073
 6614W        W10678   6.969   6.280   9.461
 6615W        W10679   3.407   1.900  11.252
 6616W        W10680   1.789   0.847   0.639
 6617W        W10681   3.335   4.495   0.809
 6618W        W10682   9.769   4.211   2.969
 6619W        W10683   4.458  10.415   8.639
 6620W        W10684   0.261   6.194  10.276
 6621W        W10685   3.314   1.130   2.789
 6622W        W10686   1.831   5.673   8.676
 6623W        W10687   8.586   8.456   8.485
 6624W        W10688   5.084   1.415  10.690
 6625W        W10689   0.776   5.480   1.487
 6626W        W10690   9.269   8.202   2.906
 6627W        W10691   6.520   5.610  11.176
 6628W        W10692  10.358   5.968  11.310
 6629W        W10693   9.478   6.888   0.073
 6630W        W10694   9.675   2.500  11.520
 6631W        W10695   7.565   8.381   8.449
 6632W        W10696   7.938   1.389   9.370
 6633W        W10697   0.801   7.510   1.387
 6634W        W10698   0.903   3.595   0.283
 6635W        W10699   1.604   0.800  11.325
 6636W        W10700  10.258   7.456  11.290
 6637W        W10701   8.423   8.059  11.872
 6638W        W10702   7.027   2.284   3.583
 6639W        W10703   3.110   3.552  11.086
 6640W        W10704   0.327   5.786   1.008
 6641W        W10705   4.264   0.741  10.878
 6642W        W10706   7.967   6.955   0.433
 6643W        W10707   1.398   7.561  11.847
 6644W        W10708   4.967   3.521   9.881
 6645W        W10709   1.898   7.207   2.297
 6646W        W10710   1.287   6.318  11.288
 6647W        W10711   4.197   8.555   1.798
 6648W        W10712   4.960  10.306  10.129
 6649W        W10713   7.977   4.098  10.525
 6650W        W10714   8.939   2.799   9.519
 6651W        W10715   2.407   6.165   9.021
 6652W        W10716   1.013   8.475  10.725
 6653W        W10717   8.980   9.953   1.958
 6654W        W10718   1.242   9.032   3.028
 6655W        W10719   7.241   3.956   9.254
 6656W        W10720   7.182   0.481   0.122
 6657W        W10721   8.719  10.433   9.968
 6658W        W10722   2.774   6.895   2.273
 6659W        W10723   4.739   7.354  11.143
 6660W        W10724   2.206   3.709   0.656
 6661W        W10725   4.764   3.603   1.000
 6662W        W10726   9.318   1.804   3.682
 6663W        W10727   9.883   3.798  10.962
 6664W        W10728   6.403   9.554   3.380
 6665W        W10729   3.323   4.593   2.755
 6666W        W10730   3.291   7.035   0.179
 6667W        W10731   6.711   9.561   0.847
 6668W        W10732   5.648   9.242   3.332
 6669W        W10733   4.249   1.302   0.698
 6670W        W10734   8.811   3.806  11.723
 6671W        W10735  10.039   2.224   0.221
 6672W        W10736   6.103   0.924   8.967
 6673W        W10737   6.327   0.749   3.549
 6674W        W10738   9.139   1.480   1.707
 6675W        W10739   2.291  10.238  11.439
 6676W        W10740   0.692   7.876   9.563
 6677W        W10741   4.328   3.083   2.285
 6678W        W10742   2.465   9.708   9.580
 6679W        W10743   0.777   1.911   1.822
 6680W        W10744   5.571   9.842   2.719
 6681W        W10745   0.017   0.693   2.669
 6682W        W10746   0.370   5.000  10.248
 6683W        W10747   2.852   7.439   9.878
 6684W        W10748   8.681   1.239   1.940
 6685W        W10749   9.958   4.823   3.242
 6686W        W10750  10.100   8.640   2.984
 6687W        W10751   2.662   6.239   9.817
 6688W        W10752   6.627   5.707  10.694
 6689W        W10753   2.162   8.239  11.867
 6690W        W10754   5.274   6.931  10.056
 6691W        W10755   0.242   5.981   2.931
 6692W        W10756   1.010   7.622  11.459
 6693W        W10757   8.118   3.504   0.736
 6694W        W10758  10.435  10.205  11.309
 6695W        W10759   0.558   9.384   2.915
 6696W        W10760   6.462   2.344  10.485
 6697W        W10761   4.213   7.077  11.673
 6698W        W10762   6.392   5.125   2.748
 6699W        W10763   2.221   1.633   0.652
 6700W        W10764   9.015   1.890   9.014
 6701W        W10765   2.248   2.681   3.089
 6702W        W10766   0.364   3.605   1.257
 6703W        W10767   8.846   8.614   9.621
 6704W        W10768   5.986   2.333   0.250
 6705W        W10769   6.317   9.812   1.724
 6706W        W10770   2.561   7.333  10.739
 6707W        W10771   3.226   8.892   0.526
 6708W        W10772   3.313   4.201  10.268
 6709W        W10773   0.015   8.394   9.037
 6710W        W10774   7.409  10.204   0.949
 6711W        W10775   3.156   1.846   9.893
 6712W        W10776   8.088   3.138   2.501
 6713W        W10777   6.017   4.586   8.618
 6714W        W10778   4.604   4.089   1.840
 6715W        W10779   0.212   9.021   8.911
 6716W        W10780   4.125   3.250   2.736
 6717W        W10781   2.665   5.663  11.256
 6718W        W10782   7.050  10.474   0.724
 6719W        W10783   2.296   1.174   0.846
 6720W        W10784   3.835   5.458   2.444
 6721W        W10785   4.032   4.140   9.478
 6722W        W10786   9.791   5.954   1.918
 6723W        W10787   3.235  10.225  11.060
 6724W        W10788   0.030   7.579   0.719
 6725W        W10789   4.115   5.947  10.919
 6726W        W10790   7.000   3.359  11.081
 6727W        W10791   1.268   9.973   2.894
 6728W        W10792   7.402  10.426   9.515
 6729W        W10793   2.308   7.530   3.265
 6730W        W10794  10.295   1.220   8.876
 6731W        W10795   5.185   6.042   1.324
 6732W        W10796   8.350   3.076   3.347
 6733W        W10797   9.968   6.938   3.204
 6734W        W10798   6.978   9.981   3.154
 6735W        W10799   4.285   1.670   1.402
 6736W        W10800   6.565   3.558  11.548
 6737W        W10801   1.334  10.004   0.948
 6738W        W10802   3.678   5.771   8.862
 6739W        W10803   9.970   3.367   0.773
 6740W        W10804   4.469   7.929   2.403
 6741W        W10805   6.501   5.693   1.129
 6742W        W10806   0.908   6.204   0.395
 6743W        W10807   0.873   5.979   1.290
 6744W        W10808  10.328   3.986   0.646
 6745W        W10809   6.559   7.043   2.230
 6746W        W10810   9.524  10.250  10.278
 6747W        W10811   9.585   2.407   2.958
 6748W        W10812   6.388   1.812   1.890
 6749W        W10813   2.207   8.962   0.742
 6750W        W10814   5.086   7.209   0.765
 6751W        W10815   3.278   6.093   1.897
 6752W        W10816   7.574  10.061   0.483
 6753W        W10817   0.391   9.423   0.405
 6754W        W10818   6.974   4.232   8.914
 6755W        W10819   5.699   6.036   1.477
 6756W        W10820   9.194   3.286  11.933
 6757W        W10821   6.583   8.644  10.077
 6758W        W10822   4.657   8.476  10.947
 6759W        W10823   9.937   3.827   3.242
 6760W        W10824   5.114   0.865  11.923
 6761W        W10825   0.247   5.848   9.757
 6762W        W10826   5.543   1.158   1.090
 6763W        W10827   4.176   3.520   3.159
 6764W        W10828   2.275   6.707   3.036
 6765W        W10829   7.662   0.859  10.931
 6766W        W10830   6.868   9.447   2.456
 6767W        W10831  10.224   7.894   9.232
 6768W        W10832   2.594   8.796   2.117
 6769W        W10833   8.984   6.674   0.064
 6770W        W10834   1.610   8.993   1.034
 6771W        W10835   8.009   0.442   0.032
 6772W        W10836   2.324   4.718   1.222
 6773W        W10837   2.599   9.849   1.455
 6774W        W10838   6.703   5.400  10.304
 6775W        W10839   7.513   2.753   8.498
 6776W        W10840   8.856   1.779   0.778
 6777W        W10841   1.232   5.454  10.913
 6778W        W10842   5.304   6.461  11.431
 6779W        W10843   2.366   8.658   1.156
 6780W        W10844   5.489   0.425   9.898
 6781W        W10845   8.878   2.590   2.394
 6782W        W10846   6.672   9.002   8.987
 6783W        W10847   5.410   7.129   9.603
 6784W        W10848   0.275   8.263   8.600
 6785W        W10849   8.562   4.265   0.728
 6786W        W10850   8.925   3.092  10.321
 6787W        W10851   5.125   0.872   3.164
 6788W        W10852   7.633   1.242   0.107
 6789W        W10853   7.642   9.153   0.893
 6790W        W10854   5.557   4.336  10.743
 6791W        W10855   9.811   2.887   0.929
 6792W        W10856   1.753  10.229   0.754
 6793W        W10857   2.393   4.673   1.739
 6794W        W10858   6.354   8.348   0.355
 6795W        W10859   0.250   4.559   1.507
 6796W        W10860   5.224   2.910   1.624
 6797W        W10861   6.693   9.525   8.937
 6798W        W10862   3.508   8.545   3.090
 6799W        W10863   1.421   8.602  10.412
 6800W        W10864   8.923   6.673   1.993
 6801W        W10865   1.751   8.581   3.142
 6802W        W10866   5.196   4.124   3.265
 6803W        W10867   8.200   9.541   3.493
 6804W        W10868   6.185   9.869  10.059
 6805W        W10869   7.770   5.957  10.041
 6806W        W10870   4.167   0.882   0.383
 6807W        W10871   9.852   7.437   9.325
 6808W        W10872   4.283   0.415   0.225
 6809W        W10873   7.165   6.107   8.587
 6810W        W10874   1.252   9.855  10.790
 6811W        W10875   9.376   0.540  11.953
 6812W        W10876  10.257   5.785   0.223
 6813W        W10877   1.627   0.780   3.370
 6814W        W10878   2.456   4.608   0.727
 6815W        W10879   5.541   7.943   9.871
 6816W        W10880   5.189   5.656  10.409
 6817W        W10881   4.722   9.120   9.722
 6818W        W10882   8.338   3.260  11.271
 6819W        W10883  10.044  10.447   9.452
 6820W        W10884   6.877   8.965   1.673
 6821W        W10885   3.239   0.196  10.804
 6822W        W10886   4.475   8.074  10.704
 6823W        W10887   6.814   4.276  11.704
 6824W        W10888   9.845   4.776   2.339
 6825W        W10889   5.786   6.142   0.100
 6826W        W10890   5.112   1.396   1.822
 6827W        W10891   3.562   4.655  10.392
 6828W        W10892   5.643   8.403  11.352
 6829W        W10893   4.583   1.014   2.914
 6830W        W10894   0.550   3.323   2.830
 6831W        W10895   0.123   8.887   9.390
 6832W        W10896   4.972   1.700   0.047
 6833W        W10897  10.387   3.291   1.649
 6834W        W10898   8.997   0.983   8.937
 6835W        W10899   6.415   0.334  10.397
 6836W        W10900   3.327   9.586   0.106
 6837W        W10901   9.939   4.200   2.474
 6838W        W10902  10.249   2.246   2.484
 6839W        W10903   1.220   3.053   1.605
 6840W        W10904   2.982   1.741  11.501
 6841W        W10905   5.429   5.687   2.366
 6842W        W10906   8.881   3.669   9.480
 6843W        W10907   0.747   3.307   3.341
 6844W        W10908   3.952   8.920  11.967
 6845W        W10909   9.483   7.009   3.471
 6846W        W10910   6.510   5.473   2.025
 6847W        W10911   7.589   0.577   1.333
 6848W        W10912   5.592   7.048   2.301
 6849W        W10913   7.134   1.311   0.201
 6850W        W10914   5.450  10.383   0.285
 6851W        W10915   8.556  10.228   8.662
 6852W        W10916   8.889   7.155   0.238
 6853W        W10917   4.064   7.133  10.887
 6854W        W10918   8.858   5.088   9.837
 6855W        W10919   3.740   5.083   9.090
 6856W        W10920   0.384   2.251  11.933
 6857W        W10921   7.258   8.797   8.723
 6858W        W10922   0.021   9.431   3.506
 6859W        W10923   0.294   1.728  11.716
 6860W        W10924   1.774   2.089  11.623
 6861W        W10925   7.613   2.230   8.355
 6862W        W10926   4.147   4.015   3.154
 6863W        W10927   3.259  10.281  11.577
 6864W        W10928   7.575   1.665  10.262
 6865W        W10929   9.277   5.139   3.364
 6866W        W10930   9.568  10.009   0.740
 6867W        W10931   0.579   3.290  11.292
 6868W        W10932   1.762   2.631   9.032
 6869W        W10933   4.902   6.044   3.255
 6870W        W10934   9.894   6.801   2.267
 6871W        W10935   2.476   5.543   2.228
 6872W        W10936   5.011   1.752   3.093
 6873W        W10937   6.757   2.595   0.830
 6874W        W10938   5.459   2.235   9.597
 6875W        W10939   6.403   1.204   9.782
 6876W        W10940   7.959   2.287  11.879
 6877W        W10941   1.292   2.820   8.940
 6878W        W10942   1.262   7.360   0.332
 6879W        W10943   4.938   1.869   0.889
 6880W        W10944   0.837   4.272  10.826
 6881W        W10945   7.380   9.093  11.178
 6882W        W10946  10.039   5.210   9.308
 6883W        W10947   4.321   3.126  11.863
 6884W        W10948   3.400   1.299   0.259
 6885W        W10949   9.940   5.381   9.915
 6886W        W10950   7.477   4.064   3.863
 6887W        W10951   6.255   4.047   2.191
 6888W        W10952   2.109   1.884   1.975
 6889W        W10953   0.635   7.559   2.320
 6890W        W10954   6.431   3.301   8.984
 6891W        W10955   9.704   6.834   1.784
 6892W        W10956   5.649   8.855   3.003
 6893W        W10957  10.418   1.422   2.460
 6894W        W10958   0.323   4.225   2.044
 6895W        W10959   3.959   1.771  11.733
 6896W        W10960   0.360   1.764  10.308
 6897W        W10961   6.635   3.732   2.997
 6898W        W10962   8.600   5.540   0.810
 6899W        W10963   7.971   4.814   3.536
 6900W        W10964   7.156   9.424  11.989
 6901W        W10965   1.792   6.158  11.220
 6902W        W10966   2.617   7.940  11.983
 6903W        W10967   8.503   0.903  11.562
 6904W        W10968  10.096   5.493  10.487
 6905W        W10969   8.458   5.656   3.176
 6906W        W10970   3.705   0.243   9.565
 6907W        W10971   6.030   9.453   1.991
 6908W        W10972   0.901   0.640   8.464
 6909W        W10973   0.519  10.339   8.719
 6910W        W10974   9.027   9.346   8.817
 6911W        W10975   6.148   1.375  11.740
 6912W        W10976   0.058   8.512  10.409
 6913W        W10977   6.512   9.807  10.954
 6914W        W10978   2.681   2.623   8.894
 6915W        W10979   7.904   2.954  11.270
 6916W        W10980   0.879   3.511   9.224
 6917W        W10981   6.638   4.494  10.479
 6918W        W10982   2.583   5.130  11.005
 6919W        W10983   8.615   5.578  11.686
 6920W        W10984   4.421   1.328   0.236
 6921W        W10985   5.211   6.228   0.804
 6922W        W10986   6.422  10.077   8.182
 6923W        W10987   4.237   5.677   2.746
 6924W        W10988   9.970   7.991  10.108
 6925W        W10989   2.414   7.747   0.731
 6926W        W10990   8.988   3.622   1.184
 6927W        W10991   7.338   5.400  11.801
 6928W        W10992   8.325   3.688  11.853
 6929W        W10993   6.451   7.115   9.580
 6930W        W10994   9.973   7.079   0.082
 6931W        W10995   3.800   5.510   2.963
 6932W        W10996  10.479   0.913  11.888
 6933W        W10997   7.621  10.299   2.971
 6934W        W10998   5.116  10.415   3.341
 6935W        W10999   9.531   4.241   1.232
 6936W        W11000   7.566   4.676   3.194
 6937W        W11001   3.217  10.351   2.442
 6938W        W11002   6.950   3.140   3.657
 6939W        W11003   9.365   8.341  10.946
 6940W        W11004   7.996   7.110   3.279
 6941W        W11005   7.544   7.859   9.444
 6942W        W11006   8.455   3.358   2.818
 6943W        W11007   4.606   3.559   2.077
 6944W        W11008   6.466   4.970  10.443
 6945W        W11009   7.546   1.434   1.517
 6946W        W11010   6.024   4.593   0.553
 6947W        W11011   3.866   7.286   2.840
 6948W        W11012   8.564   0.662   1.674
 6949W        W11013   8.514   1.407  11.383
 6950W        W11014   1.237   4.700   1.356
 6951W        W11015   7.455   7.752  11.902
 6952W        W11016  10.339   2.762   9.118
 6953W        W11017   7.932   9.923   2.827
 6954W        W11018   4.487   6.619   2.188
 6955W        W11019   0.827   4.707   0.860
 6956W        W11020   7.069   4.736  11.542
 6957W        W11021   5.199   2.228  10.592
 6958W        W11022   1.692   4.718   0.449
 6959W        W11023   8.521  10.231   1.257
 6960W        W11024   0.112   8.021   1.000
 6961W        W11025   4.627   7.422  10.306
 6962W        W11026   8.401   9.011  11.518
 6963W        W11027   7.156   9.199   9.059
 6964W        W11028   6.274   6.082   9.978
 6965W        W11029   9.878  10.446   8.929
 6966W        W11030   5.938   1.907   0.601
 6967W        W11031   2.759   2.738   0.479
 6968W        W11032   0.281   5.156   2.173
 6969W        W11033   4.060   9.054   1.909
 6970W        W11034   1.886   5.097   1.670
 6971W        W11035   9.022   4.081   0.945
 6972W        W11036   0.403   5.607   0.521
 6973W        W11037   6.705   4.233   3.279
 6974W        W11038  10.434   7.875   3.482
 6975W        W11039   1.987   1.729  10.108
 6976W        W11040   7.589   0.699   3.098
 6977W        W11041   7.585   2.024   3.694
 6978W        W11042   1.217   8.638  11.689
 6979W        W11043   2.777   5.299  10.000
 6980W        W11044   2.423   2.617   3.560
 6981W        W11045  10.322   2.148   1.517
 6982W        W11046   5.996   1.743   8.655
 6983W        W11047   9.373   8.598   1.103
 6984W        W11048   0.760   3.718   0.793
 6985W        W11049   4.168   7.446   1.554
 6986W        W11050   6.328   4.669   0.147
 6987W        W11051   3.573   1.939   9.525
 6988W        W11052   3.135   6.392   3.981
 6989W        W11053   8.592   4.855   2.712
 6990W        W11054   9.370   0.159   8.982
 6991W        W11055   3.641   4.160   1.618
 6992W        W11056   1.618   4.192   0.792
 6993W        W11057   3.387   7.415   9.236
 6994W        W11058   9.899   9.062   9.440
 6995W        W11059   5.646   4.533   0.895
 6996W        W11060   2.227   4.692  10.334
 6997W        W11061  10.026   2.125  10.662
 6998W        W11062   9.244   9.842  11.801
 6999W        W11063   5.118  10.039   0.498
 7000W        W11064   1.186   0.332   2.524
 7001W        W11065   7.471   0.977  11.474
 7002W        W11066   9.977   2.293  11.175
 7003W        W11067   3.379   1.817  10.369
 7004W        W11068   7.999   4.796   9.975
 7005W        W11069   9.359   7.528   2.856
 7006W        W11070   6.396   0.347   2.915
 7007W        W11071   1.723   4.868   9.410
 7008W        W11072   3.649   1.450   9.373
 7009W        W11073   9.914   8.047   0.438
 7010W        W11074   8.849   1.007   0.361
 7011W        W11075   5.505   7.202  10.498
 7012W        W11076   2.395   9.446   0.682
 7013W        W11077   3.837   4.233  10.414
 7014W        W11078   4.798   4.256   2.295
 7015W        W11079   4.602   2.415   0.155
 7016W        W11080   8.422   5.557   0.155
 7017W        W11081   3.666  10.065  11.328
 7018W        W11082   9.062   4.784  11.345
 7019W        W11083   9.641   7.079   9.918
 7020W        W11084   4.625   8.651   8.935
 7021W        W11085   4.793   4.044  10.336
 7022W        W11086   1.962   0.794   9.002
 7023W        W11087   8.416  10.018   2.661
 7024W        W11088  10.205   5.660   3.604
 7025W        W11089   5.207   2.226   3.188
 7026W        W11090   6.898   5.550   0.019
 7027W        W11091   2.251   0.023   9.018
 7028W        W11092   8.117   5.130   2.573
 7029W        W11093   8.303   0.589  10.387
 7030W        W11094  10.046   5.267   8.796
 7031W        W11095   9.242   9.024  10.347
 7032W        W11096  10.054   4.613   2.774
 7033W        W11097   9.014   4.668  10.144
 7034W        W11098   5.775   4.806   1.301
 7035W        W11099   7.218   6.380   3.293
 7036W        W11100   1.693   3.585   9.812
 7037W        W11101   7.562   4.869   2.220
 7038W        W11102   3.727   1.804   9.012
 7039W        W11103   8.595   5.378   2.657
 7040W        W11104   4.066   9.934   3.157
 7041W        W11105   4.223   2.937   1.488
 7042W        W11106   7.109   4.547   3.413
 7043W        W11107   6.924   6.950  11.457
 7044W        W11108   9.782   4.503   0.255
 7045W        W11109   6.637   4.142   1.844
 7046W        W11110   2.640   6.818  10.871
 7047W        W11111   6.903   9.580   0.379
 7048W        W11112   1.677   3.474   8.503
 7049W        W11113  10.498   3.991   8.420
 7050W        W11114   5.477   9.501   8.957
 7051W        W11115   8.951   7.597   9.770
 7052W        W11116   1.311   3.834   0.072
 7053W        W11117   1.022   4.631   8.424
 7054W        W11118   4.558   3.592   9.078
 7055W        W11119   5.526   1.624   8.531
 7056W        W11120   0.850   7.922  10.039
 7057W        W11121  10.432  10.486  11.815
 7058W        W11122   1.442   2.267   1.384
 7059W        W11123   7.376   9.425   2.294
 7060W        W11124   5.537   6.712  11.946
 7061W        W11125   8.851   2.405   0.076
 7062W        W11126   6.424   3.019   8.504
 7063W        W11127   8.959   0.708  11.744
 7064W        W11128   0.295   4.492  11.486
 7065W        W11129   4.737   6.690   8.573
 7066W        W11130   6.702   6.734   9.336
 7067W        W11131   0.558   1.160   0.334
 7068W        W11132   9.260   2.414  11.793
 7069W        W11133   5.291   1.859  11.664
 7070W        W11134   1.185   1.797  11.862
 7071W        W11135   0.061   4.282   9.615
 7072W        W11136   1.022   3.283   2.414
 7073W        W11137   2.716   7.906   1.453
 7074W        W11138   3.286   6.045   9.058
 7075W        W11139   9.806   2.238   2.205
 7076W        W11140   4.276   2.196   1.461
 7077W        W11141   6.539   6.306   1.700
 7078W        W11142   3.083   6.563   2.015
 7079W        W11143   5.438   6.457   2.699
 7080W        W11144   0.824   9.834   3.096
 7081W        W11145   2.754   0.323   3.541
 7082W        W11146   7.877   2.041   0.945
 7083W        W11147   0.499   6.710   1.000
 7084W        W11148   2.205   1.255  10.503
 7085W        W11149   8.453   0.546   1.146
 7086W        W11150   7.889   1.857   1.719
 7087W        W11151   6.516   5.965   2.086
 7088W        W11152   6.683  10.376   2.874
 7089W        W11153   6.997   6.421   2.719
 7090W        W11154   4.285   2.151  11.865
 7091W        W11155   6.499   9.334   1.796
 7092W        W11156   6.112   2.727   2.734
 7093W        W11157   0.703   8.574  11.597
 7094W        W11158   2.284   7.212   1.449
 7095W        W11159   4.170  10.015  11.261
 7096W        W11160  10.302   6.484   2.262
 7097W        W11161  10.330   1.803  11.551
 7098W        W11162   9.300   4.226  10.062
 7099W        W11163   1.321   6.930  11.056
 7100W        W11164   3.738   7.483  10.529
 7101W        W11165   1.312   1.568  11.427
 7102W        W11166   9.575   0.022  11.213
 7103W        W11167   1.148   1.703  10.963
 7104W        W11168   0.389   3.286   1.778
 7105W        W11169   6.530   4.657   0.820
 7106W        W11170   0.039   9.104   0.176
 7107W        W11171   1.816   3.153   1.197
 7108W        W11172   9.862   7.492  10.839
 7109W        W11173   1.438   9.806   0.448
 7110W        W11174   1.610   4.313   1.904
 7111W        W11175   4.662   1.013   1.166
 7112W        W11176   6.919   6.633   1.310
 7113W        W11177   2.816   6.996  10.410
 7114W        W11178   3.533   7.013   9.595
 7115W        W11179   5.108   0.567   1.489
 7116W        W11180   1.991   4.279   0.443
 7117W        W11181   2.769   9.358   9.351
 7118W        W11182   9.328   8.991   3.561
 7119W        W11183   8.387   7.696   8.972
 7120W        W11184   4.037   6.999   9.582
 7121W        W11185   4.314   6.237   4.150
 7122W        W11186   0.805   0.390   1.848
 7123W        W11187   9.468   2.451   0.912
 7124W        W11188   9.858   5.042   1.535
 7125W        W11189   2.539   7.826   9.969
 7126W        W11190  10.192   0.480   3.065
 7127W        W11191   2.840   0.235   1.761
 7128W        W11192   3.320   4.777  11.057
 7129W        W11193   3.584   6.226   8.634
 7130W        W11194   9.554   2.512  11.020
 7131W        W11195   9.598   8.624   2.938
 7132W        W11196   5.526   9.350   9.461
 7133W        W11197   8.462   8.615   9.973
 7134W        W11198   7.883   5.416   8.841
 7135W        W11199   7.011   2.672   2.255
 7136W        W11200   2.658   1.880   2.655
 7137W        W11201   9.769   7.552  11.416
 7138W        W11202   6.935   3.512   9.226
 7139W        W11203   2.276   3.477  10.682
 7140W        W11204   9.172   9.117   0.435
 7141W        W11205   6.547   0.010   8.942
 7142W        W11206   9.012   2.066  10.871
 7143W        W11207   0.933   7.109  11.386
 7144W        W11208   1.421   5.606   3.288
 7145W        W11209   0.323   2.914   9.314
 7146W        W11210  10.311   5.992  10.478
 7147W        W11211   9.159   5.164   9.431
 7148W        W11212   0.528   3.242   2.300
 7149W        W11213   7.476   2.191  11.724
 7150W        W11214   0.214   1.459   3.439
 7151W        W11215  10.263   4.235  10.929
 7152W        W11216  10.369   2.931   9.610
 7153W        W11217   5.475   7.856   0.284
 7154W        W11218   4.771   7.349   1.302
 7155W        W11219   4.617   2.845   0.440
 7156W        W11220   2.368   7.424  11.231
 7157W        W11221   9.328   9.994   2.774
 7158W        W11222   6.532   5.258   3.646
 7159W        W11223   3.611   0.251   3.522
 7160W        W11224   6.228   5.676  10.347
 7161W        W11225   2.584   0.183   0.009
 7162W        W11226   1.450   4.922   1.825
 7163W        W11227   1.838   8.958   9.804
 7164W        W11228  10.274   1.090  10.983
 7165W        W11229   4.292   4.727   0.965
 7166W        W11230   1.822  10.383  11.155
 7167W        W11231   0.367   6.149   0.640
 7168W        W11232   6.778   1.704   0.869
 7169W        W11233   0.908   3.856  11.750
 7170W        W11234   6.146   3.286   8.122
 7171W        W11235   3.598   6.627   0.193
 7172W        W11236   6.992   5.022   9.351
 7173W        W11237   7.350   9.500  11.521
 7174W        W11238   4.614   9.609   1.043
 7175W        W11239   2.603   4.709  10.722
 7176W        W11240   5.672   7.138   4.012
 7177W        W11241   9.648   7.625   2.163
 7178W        W11242   9.720   2.982  11.333
 7179W        W11243   6.205   5.252   1.292
 7180W        W11244   0.324   3.155  10.316
 7181W        W11245   0.485   8.552   9.472
 7182W        W11246   3.793   8.472   2.310
 7183W        W11247   9.615   8.776   2.147
 7184W        W11248   8.348   2.285  11.495
 7185W        W11249   0.182   2.145   9.990
 7186W        W11250   4.990   0.395   9.143
 7187W        W11251   5.104   7.710   0.638
 7188W        W11252  10.029  10.275   0.811
 7189W        W11253   2.298   6.465  10.728
 7190W        W11254   4.993   5.341   1.644
 7191W        W11255   9.465   1.344   1.340
 7192W        W11256   1.876   4.437  11.485
 7193W        W11257   7.697   6.651  11.351
 7194W        W11258   6.656   5.250   3.152
 7195W        W11259   1.264   5.907   1.965
 7196W        W11260   7.135   4.024   3.067
 7197W        W11261   1.825   6.168   0.240
 7198W        W11262   7.556   7.293   2.385
 7199W        W11263   5.529   9.432  10.438
 7200W        W11264   2.692   6.393   2.326
 7201W        W11265   4.057   9.047   0.479
 7202W        W11266   6.085   2.378   0.744
 7203W        W11267   0.816   8.085   2.252
 7204W        W11268   3.179   6.512   8.828
 7205W        W11269   1.711   8.867   8.913
 7206W        W11270   1.288   5.206  10.456
 7207W        W11271   5.585   2.813   2.813
 7208W        W11272   3.227   1.849   0.498
 7209W        W11273   1.626   6.994   1.908
 7210W        W11274   6.214   3.051   9.363
 7211W        W11275   4.825   7.995   3.619
 7212W        W11276   7.506   9.557   9.259
 7213W        W11277   6.653   1.719   2.360
 7214W        W11278   2.800   2.832   9.877
 7215W        W11279  10.270   2.806  10.542
 7216W        W11280   1.790   6.925  11.272
 7217W        W11281   5.941   8.105  11.018
 7218W        W11282   4.152   5.743   2.126
 7219W        W11283   9.974   7.581   1.352
 7220W        W11284   0.827   9.426  10.040
 7221W        W11285   4.187   5.589  11.256
 7222W        W11286   1.337   8.158  11.561
 7223W        W11287   8.587   3.767   1.450
 7224W        W11288   6.888   0.915   0.411
 7225W        W11289   4.738   5.388  10.417
 7226W        W11290   9.848   8.061   2.322
 7227W        W11291   7.103  10.379   8.695
 7228W        W11292   8.113   8.170  11.321
 7229W        W11293   3.039   2.358  10.032
 7230W        W11294   7.571   6.869  10.890
 7231W        W11295   4.091   4.269   9.972
 7232W        W11296  10.294   6.221   0.485
 7233W        W11297   6.413   9.686   2.576
 7234W        W11298   5.060   9.572  11.746
 7235W        W11299   8.647   4.408   2.447
 7236W        W11300   1.627   7.241   2.733
 7237W        W11301   7.487   7.055   3.299
 7238W        W11302   9.406   5.192   1.269
 7239W        W11303   8.301   9.227   2.383
 7240W        W11304   0.319   8.174  11.601
 7241W        W11305   9.809   1.800   3.581
 7242W        W11306   8.468   8.319   2.266
 7243W        W11307   6.920   4.628   8.582
 7244W        W11308   0.588   7.195   1.041
 7245W        W11309   0.781  10.436  10.961
 7246W        W11310   4.177   9.345   2.318
 7247W        W11311   6.511   2.152   0.895
 7248W        W11312   0.796   7.002  10.273
 7249W        W11313   2.821   5.864   3.945
 7250W        W11314   4.071   6.624  11.430
 7251W        W11315   5.932   6.894  10.530
 7252W        W11316   8.361   8.579   9.472
 7253W        W11317   9.428   0.668   9.035
 7254W        W11318   8.092   5.183   0.341
 7255W        W11319   4.781   4.187   0.282
 7256W        W11320   9.867   0.870  10.304
 7257W        W11321   2.900   6.630   9.497
 7258W        W11322   6.840   5.921   0.372
 7259W        W11323  10.454   6.593   1.738
 7260W        W11324   7.389   4.474   9.811
 7261W        W11325   7.969   3.227   2.999
 7262W        W11326   1.387   4.692   0.027
 7263W        W11327   6.278   0.414   1.067
 7264W        W11328   3.114   0.849  10.180
 7265W        W11329   9.491   8.047   1.628
 7266W        W11330   2.113   4.986   0.615
 7267W        W11331   4.211   9.368  11.881
 7268W        W11332   2.807   6.974   0.942
 7269W        W11333   2.765   3.811  11.438
 7270W        W11334   1.709  10.336   9.720
 7271W        W11335   0.878   5.509   8.603
 7272W        W11336   5.884   6.884   3.252
 7273W        W11337   7.405   7.561   0.394
 7274W        W11338   5.204   0.536   2.275
 7275W        W11339   3.274   9.685  11.138
 7276W        W11340   9.264   7.067  10.316
 7277W        W11341   4.979   5.575   0.289
 7278W        W11342   1.776   1.405  11.263
 7279W        W11343   0.557   5.178   8.893
 7280W        W11344   5.736   9.416   0.910
 7281W        W11345   4.979   6.980  11.407
 7282W        W11346   0.878   9.890   1.692
 7283W        W11347   1.690   9.804   8.990
 7284W        W11348   8.978   6.598   9.586
 7285W        W11349   9.912   2.662  11.973
 7286W        W11350   8.118   8.634   8.544
 7287W        W11351   1.983   5.662   2.308
 7288W        W11352   7.884   7.491   9.257
 7289W        W11353   5.533   5.725   9.022
 7290W        W11354   0.313   3.544   9.985
 7291W        W11355  10.369   6.600  11.829
 7292W        W11356   3.336   3.067  11.990
 7293W        W11357   4.552   7.688   9.891
 7294W        W11358   8.422   2.111  11.973
 7295W        W11359   6.525   7.520  10.642
 7296W        W11360   2.839   2.294   2.911
 7297W        W11361   7.425   2.081   9.763
 7298W        W11362   3.641   5.020   9.596
 7299W        W11363   9.396   7.907   2.516
 7300W        W11364   5.954   8.654   0.329
 7301W        W11365   3.607   3.819   9.419
 7302W        W11366   0.287   6.558   2.137
 7303W        W11367   2.362   5.149   9.290
 7304W        W11368   9.792   8.073   1.224
 7305W        W11369   9.345  10.144   8.880
 7306W        W11370   7.368   1.754  11.976
 7307W        W11371   1.492   3.158   2.936
 7308W        W11372   0.779  10.311  10.086
 7309W        W11373   0.854   7.628   3.607
 7310W        W11374   1.234   1.295   9.077
 7311W        W11375   8.087   0.285   9.062
 7312W        W11376   5.083   0.767   0.995
 7313ION    NA+11377   6.455   4.869   8.679
 7314ION    NA+11378   1.841  10.073   2.208
 7315ION    NA+11379   7.755   7.049  11.703
 7316ION    NA+11380   9.058   5.980   1.340
 7317ION    NA+11381   5.495   3.580   9.494
 7318ION    NA+11382   7.900   4.757   0.139
 7319ION    NA+11383   5.516   4.056   0.957
 7320ION    NA+11384   6.207   1.443  10.738
 7321ION    NA+11385   2.629   8.332   9.876
 7322ION    NA+11386   2.740   4.598  10.247
 7323ION    NA+11387   1.513   2.366  10.637
 7324ION    NA+11388  10.102   4.991  11.457
 7325ION    NA+11389   2.687   0.352  10.320
 7326ION    NA+11390   0.595   9.093   9.392
 7327ION    NA+11391   5.156   4.591   2.636
 7328ION    NA+11392   4.195   8.539   0.227
 7329ION    NA+11393   7.455   4.362   2.314
 7330ION    NA+11394   1.147   7.643   2.305
 7331ION    NA+11395   8.855   0.612   9.616
 7332ION    NA+11396   3.717   2.626  10.083
 7333ION    NA+11397   7.324   1.286   1.947
 7334ION    NA+11398   4.993   3.255   0.663
 7335ION    NA+11399   4.220   5.412   0.515
 7336ION    NA+11400   0.617   8.420  11.111
 7337ION    NA+11401   0.677   2.724   1.076
 7338ION    NA+11402   8.275   1.534   1.762
 7339ION    NA+11403   0.804   2.699   9.783
 7340ION    NA+11404   1.502   2.734   0.005
 7341ION    NA+11405   7.070   8.991   9.889
 7342ION    NA+11406   8.444   6.191   3.096
 7343ION    NA+11407   2.927   9.507   2.711
 7344ION    NA+11408   8.929   9.143   2.655
 7345ION    NA+11409   2.405   2.139  11.029
 7346ION    NA+11410   0.909   5.162  11.966
 7347ION    NA+11411   9.656   2.091  11.835
 7348ION    NA+11412   7.052   7.175   0.369
 7349ION    NA+11413   2.303   1.260   9.967
 7350ION    NA+11414   4.983   4.089  11.781
 7351ION    NA+11415   6.545   7.769   9.029
 7352ION    NA+11416   8.627   8.235  11.400
 7353ION    NA+11417   2.700   6.494   0.325
 7354ION    NA+11418   1.665   5.191   2.719
 7355ION    NA+11419   5.141   8.230   0.921
 7356ION    NA+11420   5.625   6.082  11.216
 7357ION    NA+11421   3.046   7.121   9.503
 7358ION    NA+11422   6.718   9.157   3.247
 7359ION    NA+11423   1.713   7.088  10.777
 7360ION    NA+11424  10.499   1.617   9.148
 7361ION    NA+11425   1.434   8.285   0.565
 7362ION    NA+11426   7.887   8.740   9.371
 7363ION    NA+11427   8.391   9.074  10.911
 7364ION    NA+11428   4.399   1.497  11.421
 7365ION    NA+11429   3.114   2.874  11.292
 7366ION    NA+11430   3.803   3.888   0.664
 7367ION    NA+11431   7.666   7.867   1.469
 7368ION    NA+11432   9.019   5.123   2.809
 7369ION    NA+11433   6.638   1.709   3.188
 7370ION    NA+11434   3.449   8.390  11.444
 7371ION    NA+11435   9.891   9.519   1.267
 7372ION    NA+11436   7.082   3.112   2.557
 7373ION    NA+11437   6.189   2.556   1.235
 7374ION    NA+11438   4.001   2.274   0.939
 7375ION    NA+11439   6.030   9.656   9.597
 7376ION    NA+11440   9.961   9.827  11.393
 7377ION    NA+11441   9.029  10.338  10.409
 7378ION    NA+11442   1.199   9.098   0.754
 7379ION    NA+11443   8.464   7.005   2.975
 7380ION    NA+11444   3.727   1.671   3.045
 7381ION    NA+11445   6.073   6.961   8.676
 7382ION    NA+11446   6.571   0.717   0.779
 7383ION    NA+11447   8.445   6.854   0.230
 7384ION    NA+11448   7.069   6.440  11.690
 7385ION    NA+11449   1.424   4.485   8.849
 7386ION    NA+11450   1.675   0.350  10.351
 7387ION    NA+11451   2.983   3.959   0.302
 7388ION    NA+11452   2.094   0.192  11.644
 7389ION    NA+11453   3.861  10.099   0.464
 7390ION    CL-11454   5.847   5.562   2.653
 7391ION    CL-11455   8.167   9.868   1.346
 7392ION    CL-11456   6.203   0.543   0.586
 7393ION    CL-11457   6.572   1.703  10.770
 7394ION    CL-11458   7.458   7.242   9.413
 7395ION    CL-11459  10.169   8.329   0.949
 7396ION    CL-11460   4.080   5.274   9.428
 7397ION    CL-11461   1.590   7.678   2.351
 7398ION    CL-11462   1.920   5.492  10.015
 7399ION    CL-11463   9.375   7.612   3.446
 7400ION    CL-11464   5.540   2.632  11.368
 7401ION    CL-11465   2.951   9.881   8.412
 7402ION    CL-11466   4.108   6.397  10.107
 7403ION    CL-11467   2.333   3.953   2.984
 7404ION    CL-11468   1.208   8.681   0.575
 7405ION    CL-11469  10.459   5.170   9.581
 7406ION    CL-11470   9.166   9.503   2.536
 7407ION    CL-11471   2.122   8.435   3.452
 7408ION    CL-11472  10.250   7.907   0.046
 7409ION    CL-11473   0.281   1.594   0.226
 7410ION    CL-11474   7.787   7.427   1.464
 7411ION    CL-11475   7.708   8.333   9.317
 7412ION    CL-11476   2.908   2.917  11.686
 7413ION    CL-11477   4.246   5.262   0.092
 7414ION    CL-11478   0.659   8.802   9.058
 7415ION    CL-11479   2.026   6.470   1.600
 7416ION    CL-11480   7.928   6.365   9.076
 7417ION    CL-11481   7.356   6.787  11.765
 7418ION    CL-11482   5.495   7.385  11.352
 7419ION    CL-11483   2.765   2.260   3.430
 7420ION    CL-11484   0.976   4.778  11.749
 7421ION    CL-11485   0.289   3.940   0.869
 7422ION    CL-11486   8.648   6.582   2.968
 7423ION    CL-11487   1.055   8.494  11.219
 7424ION    CL-11488  10.210   9.998  11.736
 7425ION    CL-11489   7.246   6.196   1.336
 7426ION    CL-11490   9.691   6.158   3.669
 7427ION    CL-11491   3.903   1.918   1.188
 7428ION    CL-11492   2.901   3.160   2.964
 7429ION    CL-11493   6.238   4.745   9.049
 7430ION    CL-11494   4.481   1.669  11.825
 7431ION    CL-11495   1.905   0.588  11.740
 7432ION    CL-11496   7.859   2.151  10.990
 7433ION    CL-11497   9.846   8.029   9.570
 7434ION    CL-11498   9.707   9.620  11.075
 7435ION    CL-11499   6.502   9.274   2.864
 7436ION    CL-11500  10.068   2.213  11.713
 7437ION    CL-11501   3.410   3.869   0.435
 7438ION    CL-11502   2.264   3.710   2.017
 7439ION    CL-11503   8.858   7.928  11.629
 7440ION    CL-11504   3.678   1.466   2.647
 7441ION    CL-11505  10.380   3.753  10.817
 7442ION    CL-11506   7.343   8.155   1.325
 7443ION    CL-11507   6.750   1.262   9.423
 7444ION    CL-11508   4.137   4.792   1.790
 7445ION    CL-11509   9.344   5.944   1.678
 7446ION    CL-11510   0.246   8.154  11.097
 7447ION    CL-11511   6.337   6.612   1.306
 7448ION    CL-11512   8.650   0.921   9.864
 7449ION    CL-11513   8.819   3.105  11.510
 7450ION    CL-11514   9.376   0.784  11.400
 7451ION    CL-11515   4.812   8.425   9.381
 7452ION    CL-11516   0.053   0.335   0.179
 7453ION    CL-11517   5.089   4.488  11.980
 7454ION    CL-11518   3.802  10.010   9.107
 7455ION    CL-11519   1.282   4.275   2.356
 7456ION    CL-11520   8.140   7.067  11.969
 7457ION    CL-11521   8.864   1.885   3.137
 7458ION    CL-11522   3.257   7.584  10.744
 7459ION    CL-11523   9.582   6.678  10.259
 7460ION    CL-11524   4.447   8.901   0.154
 7461ION    CL-11525   7.723   5.940   2.177
 7462ION    CL-11526   1.488   4.204  10.536
 7463ION    CL-11527   0.740   6.565   2.427
 7464ION    CL-11528   8.382   5.538   8.912
 7465ION    CL-11529  10.047   3.986   8.627
 7466ION    CL-11530   5.078   3.721  11.526
  10.50000  10.50000  12.00000
