Protein in INSANE! Membrane UpperLeaflet>POPC=1.0 LowerLeaflet>POPC=1.0
12914
    1AU     AUC    1   5.747   5.831   6.010
    1AU     AUC    2   6.027   5.843   5.835
    1AU     AUC    3   6.027   5.821   6.184
    1AU     AUC    4   5.460   5.822   5.840
    1AU     AUC    5   5.476   5.860   6.195
    1AU     AUC    6   5.570   6.108   6.006
    1AU     AUC    7   5.937   6.106   6.001
    1AU     AUC    8   5.557   5.562   6.014
    1AU     AUC    9   5.910   5.543   6.008
    1AU     AUC   10   5.749   5.659   6.288
    1AU     AUC   11   5.742   6.005   6.277
    1AU     AUC   12   5.744   5.668   5.730
    1AU     AUC   13   5.764   5.988   5.730
    1AU     AUC   14   6.342   5.851   5.663
    1AU     AUC   15   6.360   5.790   6.025
    1AU     AUC   16   6.308   5.791   6.356
    1AU     AUC   17   5.154   5.813   5.670
    1AU     AUC   18   5.135   5.849   6.034
    1AU     AUC   19   5.182   5.885   6.386
    1AU     AUC   20   5.399   6.414   5.976
    1AU     AUC   21   5.754   6.428   5.960
    1AU     AUC   22   6.123   6.387   5.990
    1AU     AUC   23   5.358   5.284   6.014
    1AU     AUC   24   5.712   5.234   5.998
    1AU     AUC   25   6.069   5.238   5.991
    1AU     AUC   26   5.729   5.488   6.579
    1AU     AUC   27   5.771   5.863   6.620
    1AU     AUC   28   5.764   6.198   6.559
    1AU     AUC   29   5.772   5.497   5.449
    1AU     AUC   30   5.765   5.826   5.394
    1AU     AUC   31   5.746   6.142   5.436
    1AU     AUC   32   6.024   5.637   6.502
    1AU     AUC   33   6.064   6.004   6.492
    1AU     AUC   34   6.084   5.693   5.502
    1AU     AUC   35   6.080   6.020   5.542
    1AU     AUC   36   5.441   5.695   6.521
    1AU     AUC   37   5.466   6.063   6.493
    1AU     AUC   38   5.448   5.643   5.544
    1AU     AUC   39   5.421   5.957   5.502
    1AU     AUC   40   6.279   6.111   5.857
    1AU     AUC   41   6.248   6.104   6.200
    1AU     AUC   42   5.246   6.121   5.834
    1AU     AUC   43   5.267   6.174   6.188
    1AU     AUC   44   6.217   5.526   5.829
    1AU     AUC   45   6.190   5.474   6.191
    1AU     AUC   46   5.224   5.522   5.858
    1AU     AUC   47   5.280   5.574   6.219
    1AU     AUC   48   5.577   6.367   6.268
    1AU     AUC   49   5.939   6.313   6.256
    1AU     AUC   50   5.542   5.360   6.310
    1AU     AUC   51   5.876   5.316   6.286
    1AU     AUC   52   5.560   6.262   5.692
    1AU     AUC   53   5.950   6.308   5.700
    1AU     AUC   54   5.551   5.360   5.711
    1AU     AUC   55   5.944   5.378   5.706
    1AU    AUSL   56   6.296   5.763   6.701
    1AU    AUSL   57   6.009   5.338   6.668
    1AU     AUL   58   6.333   5.360   6.847
    1AU       S   59   6.359   4.950   6.655
    1AU     LIG   60   6.254   4.824   7.011
    1AU     LIG   61   6.390   4.443   7.179
    1AU     LIG   62   6.619   4.125   7.404
    1AU     LIG   63   6.835   3.968   7.785
    1AU     LIG   64   6.888   3.674   8.145
    1AU       S   65   6.573   5.740   6.771
    1AU     LIG   66   6.532   5.650   7.233
    1AU     LIG   67   6.644   5.481   7.675
    1AU     LIG   68   6.877   5.400   8.093
    1AU     LIG   69   7.233   5.495   8.415
    1AU     LIG   70   7.514   5.611   8.786
    1AU    AUSL   71   5.907   5.681   6.897
    1AU    AUSL   72   5.623   6.030   6.905
    1AU     AUL   73   5.823   5.985   7.238
    1AU       S   74   6.048   5.628   7.068
    1AU     LIG   75   5.929   5.477   7.436
    1AU     LIG   76   6.175   5.271   7.788
    1AU     LIG   77   6.422   5.097   8.165
    1AU     LIG   78   6.432   4.883   8.603
    1AU     LIG   79   6.471   4.882   9.077
    1AU       S   80   5.438   5.758   7.152
    1AU     LIG   81   5.471   5.672   7.624
    1AU     LIG   82   5.189   5.644   7.996
    1AU     LIG   83   5.030   5.708   8.430
    1AU     LIG   84   5.099   5.988   8.822
    1AU     LIG   85   5.052   6.062   9.285
    1AU    AUSL   86   6.031   6.100   6.843
    1AU    AUSL   87   6.386   6.165   6.580
    1AU     AUL   88   6.310   6.040   6.986
    1AU       S   89   5.910   6.401   6.980
    1AU     LIG   90   6.154   6.360   7.361
    1AU     LIG   91   6.373   6.469   7.780
    1AU     LIG   92   6.353   6.513   8.278
    1AU     LIG   93   6.384   6.664   8.737
    1AU     LIG   94   6.667   6.728   9.107
    1AU       S   95   6.466   6.420   6.774
    1AU     LIG   96   6.837   6.203   6.839
    1AU     LIG   97   7.160   6.363   7.167
    1AU     LIG   98   7.439   6.602   7.482
    1AU     LIG   99   7.743   6.732   7.832
    1AU     LIG  100   8.188   6.833   7.997
    1AU    AUSL  101   6.302   5.976   5.275
    1AU    AUSL  102   6.087   6.310   5.475
    1AU     AUL  103   6.198   6.348   5.139
    1AU       S  104   6.277   6.028   4.823
    1AU     LIG  105   6.639   5.872   4.627
    1AU     LIG  106   6.746   5.592   4.286
    1AU     LIG  107   6.850   5.508   3.836
    1AU     LIG  108   7.220   5.417   3.536
    1AU     LIG  109   7.643   5.473   3.308
    1AU       S  110   6.529   6.561   5.367
    1AU     LIG  111   6.671   6.687   4.935
    1AU     LIG  112   6.908   6.783   4.515
    1AU     LIG  113   7.196   6.941   4.178
    1AU     LIG  114   7.475   7.056   3.809
    1AU     LIG  115   7.763   7.347   3.557
    1AU    AUSL  116   6.071   5.649   5.109
    1AU    AUSL  117   6.427   5.597   5.426
    1AU     AUL  118   6.486   5.724   5.118
    1AU       S  119   6.599   5.275   5.204
    1AU     LIG  120   6.719   4.873   4.947
    1AU     LIG  121   6.940   4.462   4.856
    1AU     LIG  122   7.227   4.229   4.566
    1AU     LIG  123   7.555   4.296   4.218
    1AU     LIG  124   8.012   4.405   4.094
    1AU       S  125   6.158   5.887   4.821
    1AU     LIG  126   6.269   5.505   4.625
    1AU     LIG  127   6.334   5.296   4.190
    1AU     LIG  128   6.406   5.261   3.709
    1AU     LIG  129   6.527   5.120   3.253
    1AU     LIG  130   6.753   4.968   2.843
    1AU    AUSL  131   5.878   6.018   5.236
    1AU    AUSL  132   5.654   5.628   5.223
    1AU     AUL  133   5.799   5.641   4.947
    1AU       S  134   5.345   5.661   4.809
    1AU     LIG  135   5.389   5.345   4.537
    1AU     LIG  136   5.152   5.156   4.186
    1AU     LIG  137   4.964   5.152   3.755
    1AU     LIG  138   4.970   5.020   3.294
    1AU     LIG  139   4.921   4.969   2.819
    1AU       S  140   5.937   6.081   4.854
    1AU     LIG  141   6.052   5.924   4.356
    1AU     LIG  142   6.351   5.776   4.003
    1AU     LIG  143   6.469   5.745   3.544
    1AU     LIG  144   6.496   5.836   3.089
    1AU     LIG  145   6.470   6.116   2.723
    1AU    AUSL  146   5.227   5.961   6.755
    1AU    AUSL  147   5.510   6.314   6.615
    1AU     AUL  148   5.382   6.264   6.960
    1AU       S  149   5.273   5.888   7.224
    1AU     LIG  150   5.026   5.527   7.368
    1AU     LIG  151   4.775   5.429   7.772
    1AU     LIG  152   4.587   5.459   8.218
    1AU     LIG  153   4.214   5.390   8.517
    1AU     LIG  154   3.874   5.551   8.815
    1AU       S  155   5.082   6.556   6.713
    1AU     LIG  156   5.113   6.687   7.144
    1AU     LIG  157   4.955   6.915   7.534
    1AU     LIG  158   4.824   7.284   7.803
    1AU     LIG  159   4.659   7.424   8.234
    1AU     LIG  160   4.543   7.627   8.658
    1AU    AUSL  161   5.536   5.669   6.687
    1AU    AUSL  162   5.098   5.563   6.630
    1AU     AUL  163   5.067   5.735   6.843
    1AU       S  164   4.946   5.282   6.865
    1AU     LIG  165   4.511   5.138   6.697
    1AU     LIG  166   4.221   4.798   6.877
    1AU     LIG  167   3.978   4.586   7.227
    1AU     LIG  168   3.781   4.356   7.590
    1AU     LIG  169   3.413   4.334   7.903
    1AU       S  170   5.470   5.607   7.071
    1AU     LIG  171   5.469   5.253   7.341
    1AU     LIG  172   5.240   5.192   7.744
    1AU     LIG  173   5.020   5.175   8.171
    1AU     LIG  174   4.869   4.982   8.580
    1AU     LIG  175   4.919   4.924   9.050
    1AU    AUSL  176   5.243   5.732   5.280
    1AU    AUSL  177   5.428   5.355   5.451
    1AU     AUL  178   5.461   5.346   5.124
    1AU       S  179   5.139   5.640   4.957
    1AU     LIG  180   4.891   5.430   4.640
    1AU     LIG  181   4.722   5.443   4.203
    1AU     LIG  182   4.609   5.552   3.760
    1AU     LIG  183   4.288   5.634   3.410
    1AU     LIG  184   3.933   5.672   3.071
    1AU       S  185   5.041   5.214   5.259
    1AU     LIG  186   4.836   4.803   5.122
    1AU     LIG  187   4.558   4.489   4.939
    1AU     LIG  188   4.316   4.247   4.611
    1AU     LIG  189   4.252   4.077   4.166
    1AU     LIG  190   4.280   3.873   3.739
    1AU    AUSL  191   5.497   6.026   5.072
    1AU    AUSL  192   5.029   6.075   5.427
    1AU     AUL  193   5.145   6.078   5.098
    1AU       S  194   4.733   6.248   5.259
    1AU     LIG  195   4.560   6.499   4.893
    1AU     LIG  196   4.594   6.750   4.514
    1AU     LIG  197   4.358   6.853   4.119
    1AU     LIG  198   3.938   6.892   3.889
    1AU     LIG  199   3.590   7.162   3.730
    1AU       S  200   5.426   5.889   4.774
    1AU     LIG  201   5.152   5.794   4.374
    1AU     LIG  202   5.129   5.619   3.947
    1AU     LIG  203   5.054   5.612   3.497
    1AU     LIG  204   5.109   5.847   3.101
    1AU     LIG  205   4.887   5.988   2.717
    1AU    AUSL  206   6.474   6.250   6.042
    1AU    AUSL  207   6.466   6.154   5.619
    1AU     AUL  208   6.737   6.418   5.867
    1AU       S  209   6.590   6.317   5.441
    1AU     LIG  210   6.722   6.188   5.047
    1AU     LIG  211   7.062   6.362   4.769
    1AU     LIG  212   7.400   6.621   4.536
    1AU     LIG  213   7.701   6.834   4.233
    1AU     LIG  214   7.976   7.119   3.975
    1AU       S  215   6.996   6.138   6.165
    1AU     LIG  216   7.401   6.345   6.103
    1AU     LIG  217   7.864   6.443   6.031
    1AU     LIG  218   8.295   6.608   6.049
    1AU     LIG  219   8.593   6.927   6.193
    1AU     LIG  220   8.712   7.316   6.428
    1AU    AUSL  221   6.701   5.905   5.869
    1AU    AUSL  222   6.668   5.534   6.171
    1AU     AUL  223   6.969   5.584   5.957
    1AU       S  224   6.908   6.023   6.025
    1AU     LIG  225   7.343   5.910   5.852
    1AU     LIG  226   7.821   5.975   5.829
    1AU     LIG  227   8.269   6.146   5.754
    1AU     LIG  228   8.709   6.273   5.547
    1AU     LIG  229   9.093   6.343   5.288
    1AU       S  230   6.868   5.144   6.137
    1AU     LIG  231   7.271   5.010   6.275
    1AU     LIG  232   7.716   4.854   6.265
    1AU     LIG  233   8.176   4.710   6.270
    1AU     LIG  234   8.650   4.831   6.323
    1AU     LIG  235   9.111   4.751   6.467
    1AU    AUSL  236   6.509   5.904   6.281
    1AU    AUSL  237   6.325   6.524   6.325
    1AU     AUL  238   6.621   6.319   6.349
    1AU       S  239   6.520   6.693   6.625
    1AU     LIG  240   6.891   6.723   6.904
    1AU     LIG  241   7.208   6.962   7.170
    1AU     LIG  242   7.376   7.397   7.330
    1AU     LIG  243   7.545   7.870   7.357
    1AU     LIG  244   7.918   8.131   7.519
    1AU       S  245   6.853   5.917   6.360
    1AU     LIG  246   7.311   5.955   6.489
    1AU     LIG  247   7.755   6.036   6.339
    1AU     LIG  248   8.227   6.153   6.297
    1AU     LIG  249   8.582   6.434   6.507
    1AU     LIG  250   9.003   6.600   6.667
    1AU    AUSL  251   5.073   6.392   6.021
    1AU    AUSL  252   5.148   6.188   6.411
    1AU     AUL  253   4.832   6.492   6.255
    1AU       S  254   5.004   6.348   6.656
    1AU     LIG  255   4.885   6.214   7.067
    1AU     LIG  256   4.706   6.467   7.433
    1AU     LIG  257   4.429   6.694   7.764
    1AU     LIG  258   4.070   6.777   8.089
    1AU     LIG  259   3.701   6.972   8.327
    1AU       S  260   5.069   6.775   5.941
    1AU     LIG  261   4.621   6.765   5.854
    1AU     LIG  262   4.204   7.026   5.897
    1AU     LIG  263   3.796   7.313   5.928
    1AU     LIG  264   3.368   7.568   5.904
    1AU     LIG  265   2.919   7.751   5.957
    1AU    AUSL  266   5.035   6.001   5.834
    1AU    AUSL  267   5.156   6.447   5.612
    1AU     AUL  268   4.853   6.326   5.710
    1AU       S  269   4.668   5.796   5.474
    1AU     LIG  270   4.282   6.066   5.518
    1AU     LIG  271   3.854   6.209   5.306
    1AU     LIG  272   3.372   6.226   5.417
    1AU     LIG  273   2.969   6.496   5.392
    1AU     LIG  274   2.610   6.685   5.151
    1AU       S  275   4.981   6.706   5.438
    1AU     LIG  276   4.889   6.992   5.047
    1AU     LIG  277   4.904   7.420   4.797
    1AU     LIG  278   4.772   7.890   4.693
    1AU     LIG  279   4.475   8.246   4.534
    1AU     LIG  280   4.116   8.567   4.496
    1AU    AUSL  281   4.814   6.040   6.210
    1AU    AUSL  282   4.787   5.671   5.902
    1AU     AUL  283   4.628   5.991   5.919
    1AU       S  284   4.559   5.583   6.145
    1AU     LIG  285   4.287   5.544   5.744
    1AU     LIG  286   3.901   5.284   5.656
    1AU     LIG  287   3.442   5.163   5.598
    1AU     LIG  288   2.963   5.131   5.716
    1AU     LIG  289   2.521   5.051   5.559
    1AU       S  290   4.691   6.035   6.439
    1AU     LIG  291   4.232   6.115   6.428
    1AU     LIG  292   3.793   6.183   6.661
    1AU     LIG  293   3.403   6.456   6.764
    1AU     LIG  294   2.915   6.412   6.758
    1AU     LIG  295   2.462   6.549   6.615
    1AU    AUSL  296   6.398   5.232   6.031
    1AU    AUSL  297   6.297   5.492   6.383
    1AU     AUL  298   6.596   5.382   6.426
    1AU       S  299   6.568   5.050   6.016
    1AU     LIG  300   6.866   4.643   5.980
    1AU     LIG  301   7.335   4.554   6.022
    1AU     LIG  302   7.776   4.383   6.066
    1AU     LIG  303   8.175   4.175   6.196
    1AU     LIG  304   8.441   3.810   6.370
    1AU       S  305   6.501   4.946   6.496
    1AU     LIG  306   6.727   4.657   6.795
    1AU     LIG  307   6.925   4.420   7.122
    1AU     LIG  308   7.156   4.171   7.434
    1AU     LIG  309   7.489   4.167   7.771
    1AU     LIG  310   7.891   4.150   8.027
    1AU    AUSL  311   6.402   5.616   5.841
    1AU    AUSL  312   6.351   5.209   5.612
    1AU     AUL  313   6.629   5.431   5.671
    1AU       S  314   6.836   5.120   5.916
    1AU     LIG  315   7.264   5.000   5.763
    1AU     LIG  316   7.719   4.797   5.752
    1AU     LIG  317   8.168   4.575   5.776
    1AU     LIG  318   8.647   4.631   5.710
    1AU     LIG  319   9.011   4.738   5.430
    1AU       S  320   6.551   5.058   5.384
    1AU     LIG  321   6.525   4.571   5.343
    1AU     LIG  322   6.683   4.133   5.166
    1AU     LIG  323   6.944   3.859   4.874
    1AU     LIG  324   7.301   3.529   4.795
    1AU     LIG  325   7.664   3.206   4.687
    1AU    AUSL  326   4.989   5.312   6.051
    1AU    AUSL  327   5.093   5.557   5.636
    1AU     AUL  328   4.752   5.371   5.767
    1AU       S  329   4.937   5.381   5.345
    1AU     LIG  330   4.503   5.136   5.351
    1AU     LIG  331   4.202   4.841   5.082
    1AU     LIG  332   3.942   4.565   4.763
    1AU     LIG  333   3.822   4.258   4.405
    1AU     LIG  334   3.573   4.103   4.016
    1AU       S  335   4.521   5.329   6.174
    1AU     LIG  336   4.335   5.032   5.854
    1AU     LIG  337   3.910   4.793   5.825
    1AU     LIG  338   3.434   4.794   5.986
    1AU     LIG  339   3.071   4.602   6.258
    1AU     LIG  340   2.646   4.381   6.382
    1AU    AUSL  341   5.057   5.701   6.239
    1AU    AUSL  342   5.296   5.323   6.341
    1AU     AUL  343   4.932   5.352   6.388
    1AU       S  344   4.998   5.096   6.758
    1AU     LIG  345   4.841   4.791   6.483
    1AU     LIG  346   4.509   4.462   6.602
    1AU     LIG  347   4.172   4.250   6.891
    1AU     LIG  348   3.862   4.016   7.187
    1AU     LIG  349   3.549   3.634   7.257
    1AU       S  350   4.547   5.604   6.307
    1AU     LIG  351   4.064   5.725   6.153
    1AU     LIG  352   3.647   5.597   5.972
    1AU     LIG  353   3.333   5.303   6.068
    1AU     LIG  354   2.963   5.103   6.227
    1AU     LIG  355   2.650   4.895   6.462
    1AU    AUSL  356   5.741   6.642   6.472
    1AU    AUSL  357   5.333   6.564   6.312
    1AU     AUL  358   5.538   6.656   6.714
    1AU       S  359   5.200   6.753   6.411
    1AU     LIG  360   5.150   7.055   6.770
    1AU     LIG  361   4.937   7.271   7.154
    1AU     LIG  362   4.732   7.637   7.396
    1AU     LIG  363   4.433   8.025   7.430
    1AU     LIG  364   4.066   8.341   7.505
    1AU       S  365   5.781   6.979   6.434
    1AU     LIG  366   5.885   7.050   6.836
    1AU     LIG  367   5.990   7.490   6.991
    1AU     LIG  368   5.947   7.827   7.343
    1AU     LIG  369   6.012   8.088   7.762
    1AU     LIG  370   5.973   8.483   8.045
    1AU    AUSL  371   5.592   6.776   6.056
    1AU    AUSL  372   5.904   6.690   5.714
    1AU     AUL  373   5.823   7.039   5.831
    1AU       S  374   5.612   7.039   6.250
    1AU     LIG  375   5.733   7.461   6.519
    1AU     LIG  376   5.627   7.855   6.779
    1AU     LIG  377   5.453   8.305   6.839
    1AU     LIG  378   5.408   8.784   6.907
    1AU     LIG  379   5.389   9.241   6.787
    1AU       S  380   5.623   6.922   5.439
    1AU     LIG  381   5.987   7.251   5.407
    1AU     LIG  382   6.194   7.685   5.329
    1AU     LIG  383   6.508   8.065   5.271
    1AU     LIG  384   6.716   8.505   5.231
    1AU     LIG  385   6.641   8.957   5.137
    1AU    AUSL  386   5.967   6.564   6.116
    1AU    AUSL  387   5.986   6.305   6.491
    1AU     AUL  388   6.060   6.630   6.554
    1AU       S  389   6.356   6.532   6.888
    1AU     LIG  390   6.640   6.449   7.256
    1AU     LIG  391   6.929   6.692   7.520
    1AU     LIG  392   7.217   7.034   7.694
    1AU     LIG  393   7.246   7.403   8.002
    1AU     LIG  394   7.208   7.621   8.429
    1AU       S  395   6.043   6.927   6.210
    1AU     LIG  396   6.226   7.245   6.508
    1AU     LIG  397   6.378   7.691   6.645
    1AU     LIG  398   6.714   8.068   6.670
    1AU     LIG  399   6.867   8.524   6.749
    1AU     LIG  400   6.867   8.938   6.947
    1AU    AUSL  401   5.692   5.147   6.444
    1AU    AUSL  402   6.105   5.115   6.309
    1AU     AUL  403   5.899   5.033   6.699
    1AU       S  404   5.726   4.656   6.497
    1AU     LIG  405   5.510   4.583   6.850
    1AU     LIG  406   5.434   4.128   6.924
    1AU     LIG  407   5.479   3.653   6.956
    1AU     LIG  408   5.516   3.338   7.324
    1AU     LIG  409   5.515   3.234   7.808
    1AU       S  410   6.243   4.921   6.380
    1AU     LIG  411   6.259   4.472   6.593
    1AU     LIG  412   6.585   4.159   6.806
    1AU     LIG  413   6.926   3.898   7.038
    1AU     LIG  414   7.090   3.460   7.177
    1AU     LIG  415   7.393   3.093   7.337
    1AU    AUSL  416   5.380   4.959   6.163
    1AU    AUSL  417   5.440   5.273   6.753
    1AU     AUL  418   5.374   4.984   6.519
    1AU       S  419   5.513   4.578   6.327
    1AU     LIG  420   5.176   4.368   6.523
    1AU     LIG  421   5.156   3.897   6.561
    1AU     LIG  422   5.136   3.430   6.597
    1AU     LIG  423   4.926   2.997   6.618
    1AU     LIG  424   4.905   2.666   6.940
    1AU       S  425   5.215   5.175   6.930
    1AU     LIG  426   5.004   4.680   6.987
    1AU     LIG  427   4.575   4.489   7.122
    1AU     LIG  428   4.290   4.227   7.415
    1AU     LIG  429   4.143   4.070   7.844
    1AU     LIG  430   4.212   3.870   8.282
    1AU    AUSL  431   5.807   4.898   6.109
    1AU    AUSL  432   5.573   5.130   5.821
    1AU     AUL  433   5.457   4.781   5.908
    1AU       S  434   5.841   4.686   5.683
    1AU     LIG  435   5.522   4.322   5.662
    1AU     LIG  436   5.293   3.910   5.533
    1AU     LIG  437   5.126   3.461   5.435
    1AU     LIG  438   4.910   3.014   5.389
    1AU     LIG  439   4.780   2.631   5.114
    1AU       S  440   5.822   4.692   6.231
    1AU     LIG  441   5.879   4.221   6.277
    1AU     LIG  442   5.781   3.841   6.560
    1AU     LIG  443   6.010   3.444   6.747
    1AU     LIG  444   6.150   2.973   6.785
    1AU     LIG  445   6.106   2.469   6.751
    1AU    AUSL  446   5.724   6.477   5.356
    1AU    AUSL  447   6.288   6.532   5.785
    1AU     AUL  448   6.066   6.684   5.443
    1AU       S  449   5.657   6.817   5.244
    1AU     LIG  450   5.955   6.999   4.976
    1AU     LIG  451   6.010   7.461   4.886
    1AU     LIG  452   6.061   7.764   4.515
    1AU     LIG  453   6.114   8.059   4.156
    1AU     LIG  454   5.990   8.496   4.106
    1AU       S  455   6.513   6.689   5.570
    1AU     LIG  456   6.978   6.738   5.367
    1AU     LIG  457   7.175   6.865   4.949
    1AU     LIG  458   7.315   7.205   4.631
    1AU     LIG  459   7.513   7.672   4.627
    1AU     LIG  460   7.691   8.140   4.687
    1AU    AUSL  461   5.537   6.486   5.760
    1AU    AUSL  462   5.454   6.165   5.461
    1AU     AUL  463   5.379   6.460   5.328
    1AU       S  464   5.447   6.845   5.596
    1AU     LIG  465   5.497   7.383   5.524
    1AU     LIG  466   5.667   7.821   5.356
    1AU     LIG  467   5.445   8.264   5.271
    1AU     LIG  468   5.392   8.773   5.313
    1AU     LIG  469   5.398   9.282   5.260
    1AU       S  470   4.937   6.489   5.206
    1AU     LIG  471   5.086   6.589   4.800
    1AU     LIG  472   5.059   6.965   4.493
    1AU     LIG  473   4.973   7.112   4.032
    1AU     LIG  474   4.890   7.364   3.620
    1AU     LIG  475   4.596   7.714   3.475
    1AU    AUSL  476   5.761   5.091   5.430
    1AU    AUSL  477   5.170   5.127   5.716
    1AU     AUL  478   5.437   4.972   5.475
    1AU       S  479   4.993   5.098   5.484
    1AU     LIG  480   4.754   4.794   5.651
    1AU     LIG  481   4.391   4.568   5.467
    1AU     LIG  482   4.139   4.293   5.153
    1AU     LIG  483   3.837   4.032   4.879
    1AU     LIG  484   3.460   3.707   4.846
    1AU       S  485   5.827   4.695   5.510
    1AU     LIG  486   5.886   4.308   5.275
    1AU     LIG  487   5.617   3.953   5.121
    1AU     LIG  488   5.475   3.520   5.042
    1AU     LIG  489   5.462   3.192   4.703
    1AU     LIG  490   5.651   2.979   4.328
    1AU    AUSL  491   5.999   5.112   5.807
    1AU    AUSL  492   6.014   5.425   5.454
    1AU     AUL  493   6.087   5.061   5.416
    1AU       S  494   6.107   4.757   5.773
    1AU     LIG  495   6.049   4.250   5.768
    1AU     LIG  496   5.809   3.888   5.584
    1AU     LIG  497   5.940   3.520   5.296
    1AU     LIG  498   6.213   3.152   5.132
    1AU     LIG  499   6.535   2.786   5.195
    1AU       S  500   6.344   5.253   5.096
    1AU     LIG  501   6.215   4.805   5.007
    1AU     LIG  502   6.422   4.415   4.824
    1AU     LIG  503   6.701   4.152   4.513
    1AU     LIG  504   6.992   4.141   4.119
    1AU     LIG  505   7.117   3.949   3.702
    2POPC   NC3  506   2.040   7.973   8.229
    2POPC   PO4  507   2.459   8.410   8.259
    2POPC   GL1  508   2.344   8.301   7.788
    2POPC   GL2  509   2.210   7.941   7.748
    2POPC   C1A  510   2.265   8.204   7.322
    2POPC   D2A  511   2.203   8.376   6.899
    2POPC   C3A  512   2.221   8.242   6.457
    2POPC   C4A  513   2.383   8.439   6.059
    2POPC   C1B  514   1.834   7.901   7.437
    2POPC   C2B  515   1.736   7.798   7.015
    2POPC   C3B  516   1.799   7.838   6.568
    2POPC   C4B  517   1.720   8.152   6.275
    3POPC   NC3  518   1.935   2.707   8.245
    3POPC   PO4  519   1.604   3.265   8.015
    3POPC   GL1  520   1.796   2.996   7.678
    3POPC   GL2  521   2.120   2.962   7.801
    3POPC   C1A  522   1.733   2.759   7.245
    3POPC   D2A  523   1.801   2.563   6.805
    3POPC   C3A  524   1.643   2.865   6.493
    3POPC   C4A  525   1.754   2.998   6.080
    3POPC   C1B  526   2.251   2.804   7.371
    3POPC   C2B  527   2.418   2.811   6.977
    3POPC   C3B  528   2.365   2.675   6.605
    3POPC   C4B  529   2.125   2.799   6.349
    4POPC   NC3  530   8.138   9.770   8.001
    4POPC   PO4  531   8.318   9.134   8.133
    4POPC   GL1  532   8.398   9.382   7.756
    4POPC   GL2  533   8.080   9.560   7.549
    4POPC   C1A  534   8.489   9.334   7.339
    4POPC   D2A  535   8.213   9.523   7.019
    4POPC   C3A  536   8.367   9.612   6.619
    4POPC   C4A  537   8.386   9.393   6.196
    4POPC   C1B  538   7.788   9.834   7.284
    4POPC   C2B  539   7.698  10.023   6.850
    4POPC   C3B  540   7.646   9.823   6.457
    4POPC   C4B  541   8.006   9.711   6.279
    5POPC   NC3  542   1.933   0.539   7.946
    5POPC   PO4  543   1.524   0.021   8.056
    5POPC   GL1  544   1.645   0.129   7.625
    5POPC   GL2  545   1.971   0.300   7.513
    5POPC   C1A  546   1.720   0.061   7.177
    5POPC   D2A  547   1.862   0.342   6.867
    5POPC   C3A  548   1.872   0.162   6.481
    5POPC   C4A  549   1.718   0.189   6.077
    5POPC   C1B  550   1.920   0.688   7.261
    5POPC   C2B  551   1.826   0.848   6.822
    5POPC   C3B  552   2.005   0.682   6.402
    5POPC   C4B  553   1.933   0.599   5.922
    6POPC   NC3  554   7.214   9.390   8.022
    6POPC   PO4  555   7.654   9.876   8.044
    6POPC   GL1  556   7.510   9.664   7.686
    6POPC   GL2  557   7.174   9.841   7.686
    6POPC   C1A  558   7.596   9.365   7.322
    6POPC   D2A  559   7.695   9.507   6.877
    6POPC   C3A  560   7.628   9.316   6.449
    6POPC   C4A  561   7.755   9.388   5.978
    6POPC   C1B  562   7.247   9.725   7.254
    6POPC   C2B  563   7.156   9.692   6.865
    6POPC   C3B  564   7.183   9.539   6.472
    6POPC   C4B  565   7.294   9.656   6.069
    7POPC   NC3  566  10.893   0.410   7.990
    7POPC   PO4  567   0.068   0.722   8.076
    7POPC   GL1  568   0.121   0.537   7.696
    7POPC   GL2  569  11.283   0.469   7.615
    7POPC   C1A  570   0.143   0.653   7.285
    7POPC   D2A  571  11.295   0.644   7.019
    7POPC   C3A  572  11.433   0.512   6.629
    7POPC   C4A  573  11.252   0.535   6.238
    7POPC   C1B  574  10.923   0.391   7.331
    7POPC   C2B  575  10.822   0.486   6.903
    7POPC   C3B  576  10.909   0.290   6.525
    7POPC   C4B  577  10.655   0.101   6.194
    8POPC   NC3  578  10.565   7.250   8.096
    8POPC   PO4  579  10.592   7.910   8.110
    8POPC   GL1  580  10.652   7.627   7.727
    8POPC   GL2  581  10.357   7.414   7.670
    8POPC   C1A  582  10.691   7.510   7.260
    8POPC   D2A  583  10.676   7.690   6.833
    8POPC   C3A  584  10.472   7.457   6.482
    8POPC   C4A  585  10.633   7.453   6.070
    8POPC   C1B  586  10.159   7.482   7.285
    8POPC   C2B  587  10.310   7.266   6.930
    8POPC   C3B  588  10.125   7.070   6.591
    8POPC   C4B  589   9.958   7.374   6.300
    9POPC   NC3  590   1.925   8.922   7.974
    9POPC   PO4  591   1.857   8.288   7.945
    9POPC   GL1  592   1.950   8.557   7.589
    9POPC   GL2  593   2.274   8.783   7.607
    9POPC   C1A  594   1.792   8.380   7.202
    9POPC   D2A  595   1.719   8.296   6.778
    9POPC   C3A  596   1.838   8.601   6.460
    9POPC   C4A  597   1.870   8.592   6.009
    9POPC   C1B  598   2.129   8.822   7.167
    9POPC   C2B  599   2.217   8.855   6.706
    9POPC   C3B  600   2.147   8.962   6.259
    9POPC   C4B  601   1.937   9.291   6.005
   10POPC   NC3  602   9.390   1.739   8.066
   10POPC   PO4  603   8.747   1.957   7.999
   10POPC   GL1  604   8.847   1.953   7.571
   10POPC   GL2  605   8.973   2.309   7.611
   10POPC   C1A  606   8.917   1.737   7.142
   10POPC   D2A  607   9.171   1.982   6.793
   10POPC   C3A  608   9.356   1.858   6.438
   10POPC   C4A  609   9.045   1.964   6.136
   10POPC   C1B  610   8.978   2.250   7.188
   10POPC   C2B  611   8.708   2.118   6.870
   10POPC   C3B  612   8.638   1.964   6.474
   10POPC   C4B  613   8.582   2.193   6.069
   11POPC   NC3  614  11.269   5.947   8.058
   11POPC   PO4  615  10.675   6.307   8.051
   11POPC   GL1  616  10.940   6.151   7.690
   11POPC   GL2  617  11.000   5.773   7.667
   11POPC   C1A  618  11.051   6.032   7.241
   11POPC   D2A  619  11.324   5.812   6.917
   11POPC   C3A  620  11.163   5.823   6.479
   11POPC   C4A  621  11.070   6.213   6.260
   11POPC   C1B  622  11.248   5.545   7.366
   11POPC   C2B  623  11.449   5.313   7.031
   11POPC   C3B  624  11.473   5.413   6.593
   11POPC   C4B  625  11.259   5.410   6.181
   12POPC   NC3  626   0.388   0.268   8.047
   12POPC   PO4  627   0.844   0.784   7.949
   12POPC   GL1  628   0.634   0.575   7.664
   12POPC   GL2  629   0.772   0.279   7.583
   12POPC   C1A  630   0.670   0.689   7.249
   12POPC   D2A  631   0.476   0.567   6.867
   12POPC   C3A  632   0.626   0.756   6.503
   12POPC   C4A  633   0.767   0.686   6.074
   12POPC   C1B  634   0.447   0.220   7.279
   12POPC   C2B  635   0.250   0.101   6.876
   12POPC   C3B  636   0.384   0.236   6.462
   12POPC   C4B  637   0.262   0.579   6.205
   13POPC   NC3  638   2.968   2.868   8.105
   13POPC   PO4  639   2.395   2.727   8.211
   13POPC   GL1  640   2.594   2.792   7.759
   13POPC   GL2  641   2.827   2.570   7.666
   13POPC   C1A  642   2.749   2.952   7.327
   13POPC   D2A  643   2.741   3.218   6.948
   13POPC   C3A  644   2.758   3.005   6.591
   13POPC   C4A  645   2.892   2.661   6.378
   13POPC   C1B  646   2.634   2.434   7.288
   13POPC   C2B  647   2.757   2.441   6.854
   13POPC   C3B  648   2.601   2.251   6.479
   13POPC   C4B  649   2.477   2.462   6.129
   14POPC   NC3  650  11.277   8.775   8.028
   14POPC   PO4  651  10.633   8.877   7.861
   14POPC   GL1  652  10.880   8.628   7.594
   14POPC   GL2  653  11.206   8.755   7.534
   14POPC   C1A  654  10.888   8.696   7.147
   14POPC   D2A  655  11.202   8.707   6.837
   14POPC   C3A  656  10.982   8.843   6.493
   14POPC   C4A  657  10.888   8.752   6.083
   14POPC   C1B  658  11.354   9.080   7.251
   14POPC   C2B  659  11.252   9.258   6.837
   14POPC   C3B  660  11.465   9.071   6.525
   14POPC   C4B  661  11.363   8.848   6.144
   15POPC   NC3  662   8.600  11.353   8.013
   15POPC   PO4  663   9.080  10.951   8.294
   15POPC   GL1  664   8.920  11.030   7.788
   15POPC   GL2  665   9.025  11.247   7.529
   15POPC   C1A  666   8.753  10.859   7.339
   15POPC   D2A  667   8.873  11.064   6.910
   15POPC   C3A  668   8.940  10.881   6.462
   15POPC   C4A  669   8.954  10.944   5.999
   15POPC   C1B  670   8.591  11.343   7.331
   15POPC   C2B  671   8.496  11.411   6.905
   15POPC   C3B  672   8.744  11.409   6.515
   15POPC   C4B  673   9.159  11.365   6.379
   16POPC   NC3  674   6.901  11.347   7.839
   16POPC   PO4  675   6.869  10.668   8.060
   16POPC   GL1  676   6.667  10.873   7.660
   16POPC   GL2  677   6.611  11.225   7.440
   16POPC   C1A  678   6.784  10.809   7.244
   16POPC   D2A  679   6.756  11.051   6.877
   16POPC   C3A  680   6.719  10.839   6.459
   16POPC   C4A  681   6.510  11.043   6.080
   16POPC   C1B  682   6.273  11.362   7.127
   16POPC   C2B  683   6.244  11.183   6.713
   16POPC   C3B  684   6.602  11.342   6.492
   16POPC   C4B  685   6.533   0.143   6.253
   17POPC   NC3  686   0.503   8.095   8.123
   17POPC   PO4  687   0.020   7.674   7.868
   17POPC   GL1  688   0.216   8.013   7.655
   17POPC   GL2  689   0.573   8.107   7.630
   17POPC   C1A  690   0.209   8.112   7.227
   17POPC   D2A  691   0.440   8.078   6.870
   17POPC   C3A  692   0.196   8.038   6.503
   17POPC   C4A  693   0.176   8.183   6.089
   17POPC   C1B  694   0.646   8.419   7.335
   17POPC   C2B  695   0.729   8.516   6.910
   17POPC   C3B  696   0.893   8.189   6.648
   17POPC   C4B  697   0.709   7.986   6.303
   18POPC   NC3  698   4.004  11.048   7.917
   18POPC   PO4  699   4.650  11.411   8.044
   18POPC   GL1  700   4.395  11.420   7.683
   18POPC   GL2  701   4.399  11.088   7.605
   18POPC   C1A  702   4.388  11.408   7.197
   18POPC   D2A  703   4.297   0.076   6.776
   18POPC   C3A  704   4.219  11.318   6.407
   18POPC   C4A  705   4.221  11.378   5.951
   18POPC   C1B  706   4.322  10.900   7.233
   18POPC   C2B  707   4.342  11.019   6.814
   18POPC   C3B  708   4.591  10.884   6.475
   18POPC   C4B  709   4.433  10.928   6.087
   19POPC   NC3  710   5.820  11.127   7.999
   19POPC   PO4  711   6.507  11.214   8.051
   19POPC   GL1  712   6.220  11.080   7.710
   19POPC   GL2  713   6.078  11.390   7.616
   19POPC   C1A  714   6.188  10.884   7.264
   19POPC   D2A  715   5.837  10.761   6.963
   19POPC   C3A  716   5.793  10.873   6.517
   19POPC   C4A  717   6.011  11.094   6.194
   19POPC   C1B  718   5.784  11.231   7.305
   19POPC   C2B  719   5.716  11.244   6.877
   19POPC   C3B  720   5.675  11.368   6.482
   19POPC   C4B  721   5.467   0.116   6.238
   20POPC   NC3  722   6.585   0.986   8.088
   20POPC   PO4  723   6.274   1.566   7.979
   20POPC   GL1  724   6.505   1.316   7.677
   20POPC   GL2  725   6.467   0.966   7.606
   20POPC   C1A  726   6.574   1.393   7.242
   20POPC   D2A  727   6.539   1.619   6.857
   20POPC   C3A  728   6.394   1.414   6.492
   20POPC   C4A  729   6.303   1.394   6.048
   20POPC   C1B  730   6.805   0.940   7.327
   20POPC   C2B  731   6.696   1.027   6.907
   20POPC   C3B  732   6.874   0.978   6.530
   20POPC   C4B  733   6.745   1.163   6.183
   21POPC   NC3  734   0.390   6.297   8.140
   21POPC   PO4  735   0.586   7.002   8.046
   21POPC   GL1  736   0.300   6.814   7.717
   21POPC   GL2  737   0.450   6.488   7.667
   21POPC   C1A  738   0.118   6.746   7.276
   21POPC   D2A  739   0.228   6.546   6.890
   21POPC   C3A  740   0.042   6.747   6.553
   21POPC   C4A  741   0.217   6.878   6.165
   21POPC   C1B  742   0.604   6.616   7.263
   21POPC   C2B  743   0.731   6.419   6.858
   21POPC   C3B  744   0.555   6.579   6.465
   21POPC   C4B  745   0.531   6.470   6.032
   22POPC   NC3  746   2.384   6.228   8.148
   22POPC   PO4  747   2.216   6.828   8.087
   22POPC   GL1  748   1.898   6.825   7.792
   22POPC   GL2  749   1.870   6.485   7.718
   22POPC   C1A  750   1.884   6.938   7.374
   22POPC   D2A  751   1.924   6.764   6.961
   22POPC   C3A  752   2.107   6.949   6.593
   22POPC   C4A  753   2.225   6.743   6.183
   22POPC   C1B  754   2.055   6.302   7.318
   22POPC   C2B  755   1.898   6.253   6.881
   22POPC   C3B  756   1.908   6.455   6.473
   22POPC   C4B  757   1.786   6.338   6.050
   23POPC   NC3  758  11.082   7.718   8.030
   23POPC   PO4  759  10.938   8.443   8.131
   23POPC   GL1  760  10.918   8.140   7.757
   23POPC   GL2  761  11.252   8.246   7.688
   23POPC   C1A  762  11.072   7.871   7.364
   23POPC   D2A  763  11.177   7.615   6.974
   23POPC   C3A  764  11.096   7.811   6.542
   23POPC   C4A  765  11.065   7.957   6.120
   23POPC   C1B  766  11.248   8.339   7.243
   23POPC   C2B  767  11.302   8.188   6.825
   23POPC   C3B  768  11.265   8.364   6.396
   23POPC   C4B  769  11.243   8.379   5.937
   24POPC   NC3  770   0.122   4.258   8.274
   24POPC   PO4  771   0.747   4.436   8.240
   24POPC   GL1  772   0.438   4.281   7.859
   24POPC   GL2  773   0.295   4.538   7.660
   24POPC   C1A  774   0.349   4.106   7.393
   24POPC   D2A  775   0.469   4.196   6.940
   24POPC   C3A  776   0.304   4.016   6.555
   24POPC   C4A  777   0.389   4.086   6.099
   24POPC   C1B  778   0.566   4.559   7.294
   24POPC   C2B  779   0.623   4.663   6.836
   24POPC   C3B  780   0.427   4.524   6.442
   24POPC   C4B  781   0.083   4.511   6.151
   25POPC   NC3  782   1.142   1.138   8.071
   25POPC   PO4  783   1.528   1.627   8.062
   25POPC   GL1  784   1.236   1.520   7.707
   25POPC   GL2  785   1.216   1.158   7.587
   25POPC   C1A  786   1.263   1.540   7.245
   25POPC   D2A  787   1.025   1.465   6.848
   25POPC   C3A  788   1.255   1.580   6.507
   25POPC   C4A  789   1.357   1.436   6.126
   25POPC   C1B  790   1.133   1.018   7.186
   25POPC   C2B  791   1.179   0.962   6.781
   25POPC   C3B  792   1.056   1.087   6.412
   25POPC   C4B  793   1.179   0.979   6.006
   26POPC   NC3  794   1.225   9.625   8.103
   26POPC   PO4  795   1.674   9.271   7.793
   26POPC   GL1  796   1.473   9.665   7.585
   26POPC   GL2  797   1.180   9.855   7.673
   26POPC   C1A  798   1.405   9.763   7.163
   26POPC   D2A  799   1.234   9.419   6.958
   26POPC   C3A  800   1.347   9.382   6.551
   26POPC   C4A  801   1.248   9.509   6.176
   26POPC   C1B  802   0.947   9.688   7.369
   26POPC   C2B  803   0.926   9.841   6.971
   26POPC   C3B  804   1.130   9.836   6.602
   26POPC   C4B  805   0.872   9.821   6.251
   27POPC   NC3  806   5.293   2.547   8.204
   27POPC   PO4  807   5.481   1.938   8.073
   27POPC   GL1  808   5.400   1.729   7.671
   27POPC   GL2  809   5.760   1.750   7.548
   27POPC   C1A  810   5.333   1.902   7.232
   27POPC   D2A  811   5.634   2.074   6.915
   27POPC   C3A  812   5.495   2.092   6.479
   27POPC   C4A  813   5.709   2.170   6.088
   27POPC   C1B  814   5.657   1.525   7.184
   27POPC   C2B  815   5.539   1.601   6.746
   27POPC   C3B  816   5.868   1.742   6.458
   27POPC   C4B  817   6.113   1.843   6.104
   28POPC   NC3  818   7.696   0.276   7.941
   28POPC   PO4  819   7.143  11.431   8.233
   28POPC   GL1  820   7.155   0.275   7.792
   28POPC   GL2  821   7.313   0.620   7.810
   28POPC   C1A  822   7.236   0.168   7.297
   28POPC   D2A  823   6.980   0.053   6.922
   28POPC   C3A  824   7.127  11.497   6.503
   28POPC   C4A  825   7.009   0.153   6.081
   28POPC   C1B  826   7.262   0.666   7.353
   28POPC   C2B  827   7.421   0.507   6.947
   28POPC   C3B  828   7.453   0.388   6.511
   28POPC   C4B  829   7.274   0.596   6.143
   29POPC   NC3  830   8.004   8.786   8.124
   29POPC   PO4  831   8.589   8.594   8.117
   29POPC   GL1  832   8.356   8.809   7.721
   29POPC   GL2  833   8.022   9.046   7.701
   29POPC   C1A  834   8.035   8.635   7.387
   29POPC   D2A  835   7.879   8.773   6.954
   29POPC   C3A  836   8.129   8.643   6.602
   29POPC   C4A  837   7.988   8.537   6.202
   29POPC   C1B  838   8.037   9.122   7.285
   29POPC   C2B  839   8.349   8.987   6.996
   29POPC   C3B  840   8.369   9.087   6.596
   29POPC   C4B  841   8.018   9.055   6.298
   30POPC   NC3  842   6.351   9.594   8.181
   30POPC   PO4  843   6.824   9.162   8.073
   30POPC   GL1  844   6.743   9.545   7.760
   30POPC   GL2  845   6.423   9.775   7.698
   30POPC   C1A  846   6.745   9.613   7.282
   30POPC   D2A  847   6.708   9.467   6.842
   30POPC   C3A  848   6.721   9.756   6.474
   30POPC   C4A  849   6.799   9.450   6.137
   30POPC   C1B  850   6.228   9.663   7.322
   30POPC   C2B  851   6.325   9.780   6.944
   30POPC   C3B  852   6.202   9.665   6.550
   30POPC   C4B  853   6.148   9.833   6.175
   31POPC   NC3  854   2.332   5.384   8.228
   31POPC   PO4  855   3.044   5.327   8.164
   31POPC   GL1  856   2.709   5.495   7.832
   31POPC   GL2  857   2.576   5.842   7.817
   31POPC   C1A  858   2.670   5.532   7.338
   31POPC   D2A  859   2.843   5.415   6.896
   31POPC   C3A  860   2.680   5.482   6.463
   31POPC   C4A  861   2.912   5.583   6.065
   31POPC   C1B  862   2.632   6.033   7.384
   31POPC   C2B  863   2.769   5.927   6.941
   31POPC   C3B  864   2.712   6.000   6.472
   31POPC   C4B  865   2.308   6.162   6.279
   32POPC   NC3  866   8.105   2.059   8.224
   32POPC   PO4  867   7.908   1.563   7.816
   32POPC   GL1  868   8.111   1.813   7.549
   32POPC   GL2  869   8.324   2.034   7.750
   32POPC   C1A  870   8.426   1.643   7.274
   32POPC   D2A  871   8.492   1.574   6.829
   32POPC   C3A  872   8.063   1.628   6.641
   32POPC   C4A  873   7.799   1.589   6.255
   32POPC   C1B  874   8.435   2.154   7.339
   32POPC   C2B  875   8.237   2.003   6.963
   32POPC   C3B  876   8.139   2.151   6.576
   32POPC   C4B  877   8.204   1.885   6.216
   33POPC   NC3  878   4.579  10.933   8.051
   33POPC   PO4  879   4.195  10.352   8.248
   33POPC   GL1  880   4.518  10.277   7.733
   33POPC   GL2  881   4.277  10.398   7.444
   33POPC   C1A  882   4.717  10.290   7.288
   33POPC   D2A  883   4.639  10.603   6.951
   33POPC   C3A  884   4.729  10.386   6.554
   33POPC   C4A  885   4.740  10.514   6.135
   33POPC   C1B  886   4.004  10.133   7.227
   33POPC   C2B  887   3.917   9.965   6.826
   33POPC   C3B  888   3.924  10.162   6.403
   33POPC   C4B  889   4.266  10.456   6.320
   34POPC   NC3  890   7.412   8.150   8.009
   34POPC   PO4  891   6.834   8.254   7.977
   34POPC   GL1  892   7.139   8.462   7.666
   34POPC   GL2  893   7.481   8.392   7.567
   34POPC   C1A  894   7.121   8.451   7.207
   34POPC   D2A  895   7.252   8.185   6.835
   34POPC   C3A  896   7.128   8.270   6.397
   34POPC   C4A  897   6.785   8.102   6.140
   34POPC   C1B  898   7.635   8.364   7.150
   34POPC   C2B  899   7.724   8.337   6.706
   34POPC   C3B  900   7.625   8.183   6.306
   34POPC   C4B  901   7.687   8.279   5.873
   35POPC   NC3  902   0.960   6.784   7.881
   35POPC   PO4  903   0.935   6.143   8.107
   35POPC   GL1  904   0.987   6.324   7.672
   35POPC   GL2  905   1.342   6.455   7.698
   35POPC   C1A  906   1.088   6.541   7.250
   35POPC   D2A  907   0.989   6.856   6.914
   35POPC   C3A  908   1.080   6.646   6.491
   35POPC   C4A  909   1.040   6.500   6.051
   35POPC   C1B  910   1.581   6.479   7.288
   35POPC   C2B  911   1.456   6.591   6.869
   35POPC   C3B  912   1.578   6.846   6.557
   35POPC   C4B  913   1.491   6.746   6.149
   36POPC   NC3  914   3.255   5.737   8.120
   36POPC   PO4  915   3.035   6.305   8.284
   36POPC   GL1  916   3.052   6.163   7.768
   36POPC   GL2  917   3.055   5.822   7.627
   36POPC   C1A  918   3.134   6.174   7.239
   36POPC   D2A  919   3.248   5.983   6.776
   36POPC   C3A  920   3.178   6.233   6.344
   36POPC   C4A  921   3.314   6.421   5.921
   36POPC   C1B  922   3.176   5.666   7.209
   36POPC   C2B  923   3.554   5.591   6.940
   36POPC   C3B  924   3.663   5.684   6.516
   36POPC   C4B  925   3.295   5.746   6.325
   37POPC   NC3  926   8.340   0.599   8.005
   37POPC   PO4  927   8.118   0.009   8.027
   37POPC   GL1  928   8.336   0.194   7.656
   37POPC   GL2  929   8.070   0.447   7.579
   37POPC   C1A  930   8.423   0.348   7.200
   37POPC   D2A  931   8.102   0.321   6.846
   37POPC   C3A  932   8.197   0.392   6.400
   37POPC   C4A  933   8.308   0.093   6.026
   37POPC   C1B  934   7.840   0.653   7.218
   37POPC   C2B  935   7.824   0.741   6.749
   37POPC   C3B  936   7.795   0.684   6.275
   37POPC   C4B  937   7.681   0.680   5.828
   38POPC   NC3  938   1.548   2.589   7.889
   38POPC   PO4  939   1.001   2.921   8.060
   38POPC   GL1  940   1.021   2.696   7.703
   38POPC   GL2  941   1.288   2.924   7.612
   38POPC   C1A  942   1.165   2.519   7.294
   38POPC   D2A  943   1.300   2.670   6.900
   38POPC   C3A  944   1.358   2.463   6.502
   38POPC   C4A  945   1.373   2.631   6.092
   38POPC   C1B  946   1.008   3.107   7.339
   38POPC   C2B  947   0.877   2.981   6.955
   38POPC   C3B  948   1.069   3.023   6.588
   38POPC   C4B  949   0.885   2.902   6.219
   39POPC   NC3  950   0.579   2.713   8.104
   39POPC   PO4  951   0.738   2.112   7.955
   39POPC   GL1  952   0.543   2.437   7.679
   39POPC   GL2  953   0.266   2.691   7.686
   39POPC   C1A  954   0.658   2.682   7.333
   39POPC   D2A  955   0.754   2.444   6.984
   39POPC   C3A  956   0.882   2.561   6.601
   39POPC   C4A  957   0.888   2.400   6.158
   39POPC   C1B  958   0.146   2.764   7.241
   39POPC   C2B  959   0.376   2.770   6.860
   39POPC   C3B  960   0.436   2.751   6.427
   39POPC   C4B  961   0.118   2.762   6.116
   40POPC   NC3  962   5.006   1.804   8.076
   40POPC   PO4  963   4.775   2.468   8.142
   40POPC   GL1  964   4.938   2.238   7.769
   40POPC   GL2  965   4.705   2.000   7.703
   40POPC   C1A  966   4.907   2.223   7.276
   40POPC   D2A  967   5.138   2.218   6.848
   40POPC   C3A  968   5.017   2.304   6.396
   40POPC   C4A  969   5.265   2.440   6.022
   40POPC   C1B  970   4.878   1.708   7.387
   40POPC   C2B  971   4.834   1.826   6.936
   40POPC   C3B  972   5.044   1.810   6.538
   40POPC   C4B  973   4.840   1.708   6.158
   41POPC   NC3  974   8.869  10.605   8.055
   41POPC   PO4  975   8.374  10.120   8.220
   41POPC   GL1  976   8.474  10.406   7.818
   41POPC   GL2  977   8.805  10.322   7.645
   41POPC   C1A  978   8.407  10.453   7.332
   41POPC   D2A  979   8.525  10.234   6.904
   41POPC   C3A  980   8.573  10.497   6.501
   41POPC   C4A  981   8.515  10.650   6.033
   41POPC   C1B  982   8.916  10.208   7.239
   41POPC   C2B  983   9.027  10.305   6.798
   41POPC   C3B  984   8.919  10.156   6.385
   41POPC   C4B  985   8.977  10.455   6.123
   42POPC   NC3  986   7.533   2.221   8.027
   42POPC   PO4  987   7.829   1.698   8.319
   42POPC   GL1  988   7.451   1.724   7.850
   42POPC   GL2  989   7.607   1.972   7.605
   42POPC   C1A  990   7.497   1.607   7.311
   42POPC   D2A  991   7.750   1.873   6.976
   42POPC   C3A  992   7.659   1.990   6.500
   42POPC   C4A  993   7.363   1.857   6.155
   42POPC   C1B  994   7.346   2.087   7.235
   42POPC   C2B  995   7.265   1.930   6.817
   42POPC   C3B  996   7.186   2.212   6.472
   42POPC   C4B  997   6.952   2.154   6.088
   43POPC   NC3  998   7.620   1.227   7.951
   43POPC   PO4  999   6.955   1.264   8.061
   43POPC   GL1 1000   7.024   1.384   7.653
   43POPC   GL2 1001   7.247   1.116   7.626
   43POPC   C1A 1002   7.076   1.360   7.209
   43POPC   D2A 1003   7.004   1.432   6.794
   43POPC   C3A 1004   7.270   1.434   6.444
   43POPC   C4A 1005   7.141   1.440   5.996
   43POPC   C1B 1006   7.511   1.091   7.274
   43POPC   C2B 1007   7.273   0.993   6.916
   43POPC   C3B 1008   7.382   0.911   6.527
   43POPC   C4B 1009   7.468   1.073   6.127
   44POPC   NC3 1010   1.924   9.676   7.808
   44POPC   PO4 1011   2.336   9.164   7.998
   44POPC   GL1 1012   2.330   9.420   7.636
   44POPC   GL2 1013   2.077   9.242   7.476
   44POPC   C1A 1014   2.352   9.613   7.204
   44POPC   D2A 1015   2.316   9.346   6.842
   44POPC   C3A 1016   2.116   9.445   6.467
   44POPC   C4A 1017   2.138   9.749   6.154
   44POPC   C1B 1018   1.855   9.280   7.079
   44POPC   C2B 1019   1.743   9.617   6.789
   44POPC   C3B 1020   1.662   9.743   6.374
   44POPC   C4B 1021   1.694   9.911   5.984
   45POPC   NC3 1022  11.063   3.471   8.009
   45POPC   PO4 1023   0.104   3.224   7.740
   45POPC   GL1 1024  11.187   3.439   7.527
   45POPC   GL2 1025  11.069   3.825   7.661
   45POPC   C1A 1026  10.876   3.670   7.225
   45POPC   D2A 1027  10.762   3.518   6.833
   45POPC   C3A 1028  11.060   3.234   6.646
   45POPC   C4A 1029  11.022   3.206   6.203
   45POPC   C1B 1030  11.377   3.872   7.345
   45POPC   C2B 1031  11.309   3.713   6.936
   45POPC   C3B 1032  11.141   3.738   6.532
   45POPC   C4B 1033  11.434   3.517   6.272
   46POPC   NC3 1034   8.818   8.208   8.016
   46POPC   PO4 1035   8.456   7.741   7.810
   46POPC   GL1 1036   8.828   7.884   7.586
   46POPC   GL2 1037   8.796   8.230   7.501
   46POPC   C1A 1038   9.007   7.837   7.162
   46POPC   D2A 1039   9.076   7.948   6.703
   46POPC   C3A 1040   8.936   7.765   6.300
   46POPC   C4A 1041   8.656   7.759   5.903
   46POPC   C1B 1042   8.808   8.316   7.046
   46POPC   C2B 1043   9.129   8.455   6.778
   46POPC   C3B 1044   9.103   8.337   6.355
   46POPC   C4B 1045   8.934   8.165   5.986
   47POPC   NC3 1046   1.416   8.291   8.073
   47POPC   PO4 1047   0.938   7.905   8.044
   47POPC   GL1 1048   1.091   8.056   7.663
   47POPC   GL2 1049   0.969   7.751   7.529
   47POPC   C1A 1050   1.292   8.231   7.276
   47POPC   D2A 1051   1.256   8.517   6.923
   47POPC   C3A 1052   1.330   8.439   6.477
   47POPC   C4A 1053   1.082   8.334   6.106
   47POPC   C1B 1054   1.233   7.711   7.166
   47POPC   C2B 1055   1.321   7.987   6.807
   47POPC   C3B 1056   1.263   7.944   6.377
   47POPC   C4B 1057   1.488   7.719   6.125
   48POPC   NC3 1058   0.613  10.416   8.115
   48POPC   PO4 1059   0.065  10.064   8.235
   48POPC   GL1 1060   0.307  10.133   7.786
   48POPC   GL2 1061   0.401  10.490   7.666
   48POPC   C1A 1062   0.621  10.114   7.397
   48POPC   D2A 1063   0.466  10.052   6.961
   48POPC   C3A 1064   0.735  10.186   6.631
   48POPC   C4A 1065   0.731  10.375   6.244
   48POPC   C1B 1066   0.218  10.408   7.271
   48POPC   C2B 1067   0.344  10.542   6.876
   48POPC   C3B 1068   0.284  10.449   6.468
   48POPC   C4B 1069   0.214  10.769   6.189
   49POPC   NC3 1070   1.159   3.344   8.110
   49POPC   PO4 1071   0.761   3.880   7.912
   49POPC   GL1 1072   1.148   3.794   7.660
   49POPC   GL2 1073   1.307   3.463   7.645
   49POPC   C1A 1074   1.260   3.713   7.209
   49POPC   D2A 1075   1.083   3.475   6.863
   49POPC   C3A 1076   1.131   3.724   6.465
   49POPC   C4A 1077   1.142   3.612   6.036
   49POPC   C1B 1078   1.520   3.268   7.320
   49POPC   C2B 1079   1.476   3.139   6.925
   49POPC   C3B 1080   1.466   3.339   6.541
   49POPC   C4B 1081   1.306   3.169   6.170
   50POPC   NC3 1082   1.872   7.099   8.218
   50POPC   PO4 1083   1.260   7.053   8.087
   50POPC   GL1 1084   1.398   6.998   7.673
   50POPC   GL2 1085   1.282   7.358   7.664
   50POPC   C1A 1086   1.401   6.963   7.221
   50POPC   D2A 1087   1.339   7.268   6.909
   50POPC   C3A 1088   1.168   7.151   6.525
   50POPC   C4A 1089   1.387   7.236   6.174
   50POPC   C1B 1090   1.002   7.248   7.358
   50POPC   C2B 1091   0.822   7.378   6.986
   50POPC   C3B 1092   1.004   7.614   6.663
   50POPC   C4B 1093   0.978   7.532   6.231
   51POPC   NC3 1094   3.436   9.493   8.237
   51POPC   PO4 1095   3.441  10.128   8.146
   51POPC   GL1 1096   3.492   9.914   7.767
   51POPC   GL2 1097   3.683   9.627   7.754
   51POPC   C1A 1098   3.541   9.939   7.331
   51POPC   D2A 1099   3.251   9.833   7.014
   51POPC   C3A 1100   3.465   9.805   6.653
   51POPC   C4A 1101   3.471   9.965   6.274
   51POPC   C1B 1102   3.472   9.433   7.373
   51POPC   C2B 1103   3.333   9.341   6.913
   51POPC   C3B 1104   3.508   9.334   6.456
   51POPC   C4B 1105   3.801   9.284   6.092
   52POPC   NC3 1106   8.951   3.304   8.219
   52POPC   PO4 1107   9.134   3.875   8.093
   52POPC   GL1 1108   9.232   3.604   7.714
   52POPC   GL2 1109   8.998   3.317   7.712
   52POPC   C1A 1110   9.095   3.605   7.262
   52POPC   D2A 1111   8.810   3.553   6.900
   52POPC   C3A 1112   8.959   3.645   6.481
   52POPC   C4A 1113   8.854   3.821   6.077
   52POPC   C1B 1114   8.855   3.150   7.317
   52POPC   C2B 1115   9.038   3.102   6.924
   52POPC   C3B 1116   8.786   3.134   6.575
   52POPC   C4B 1117   8.653   3.348   6.185
   53POPC   NC3 1118   1.711   5.293   7.973
   53POPC   PO4 1119   2.172   5.816   8.160
   53POPC   GL1 1120   2.120   5.584   7.754
   53POPC   GL2 1121   1.764   5.680   7.643
   53POPC   C1A 1122   2.129   5.703   7.285
   53POPC   D2A 1123   1.905   5.727   6.875
   53POPC   C3A 1124   2.158   5.696   6.487
   53POPC   C4A 1125   2.012   5.481   6.099
   53POPC   C1B 1126   1.648   5.957   7.285
   53POPC   C2B 1127   1.405   6.089   6.916
   53POPC   C3B 1128   1.461   6.199   6.490
   53POPC   C4B 1129   1.731   5.892   6.280
   54POPC   NC3 1130  11.067   9.800   8.141
   54POPC   PO4 1131   0.005   9.267   8.096
   54POPC   GL1 1132  11.435   9.463   7.663
   54POPC   GL2 1133  11.087   9.607   7.680
   54POPC   C1A 1134  11.274   9.602   7.217
   54POPC   D2A 1135  11.286   9.851   6.820
   54POPC   C3A 1136  11.450   9.619   6.478
   54POPC   C4A 1137  11.469   9.637   6.048
   54POPC   C1B 1138  10.857   9.868   7.373
   54POPC   C2B 1139  10.806   9.689   6.932
   54POPC   C3B 1140  10.920   9.588   6.496
   54POPC   C4B 1141  11.116   9.289   6.240
   55POPC   NC3 1142  10.774   5.078   8.059
   55POPC   PO4 1143  10.174   5.442   8.115
   55POPC   GL1 1144  10.241   5.269   7.700
   55POPC   GL2 1145  10.440   4.968   7.668
   55POPC   C1A 1146  10.371   5.387   7.281
   55POPC   D2A 1147  10.486   5.254   6.855
   55POPC   C3A 1148  10.183   5.262   6.533
   55POPC   C4A 1149  10.200   4.909   6.257
   55POPC   C1B 1150  10.640   4.822   7.287
   55POPC   C2B 1151  10.623   4.758   6.853
   55POPC   C3B 1152  10.679   4.898   6.433
   55POPC   C4B 1153  10.605   4.695   6.028
   56POPC   NC3 1154   5.926   0.522   8.109
   56POPC   PO4 1155   5.278   0.321   8.241
   56POPC   GL1 1156   5.538   0.462   7.797
   56POPC   GL2 1157   5.670   0.727   7.689
   56POPC   C1A 1158   5.814   0.309   7.394
   56POPC   D2A 1159   5.723   0.257   6.926
   56POPC   C3A 1160   6.052   0.204   6.594
   56POPC   C4A 1161   5.993   0.116   6.150
   56POPC   C1B 1162   6.042   0.770   7.450
   56POPC   C2B 1163   6.128   0.873   7.015
   56POPC   C3B 1164   5.847   0.730   6.687
   56POPC   C4B 1165   5.790   0.557   6.291
   57POPC   NC3 1166   9.530  10.980   8.190
   57POPC   PO4 1167   9.225  10.638   7.741
   57POPC   GL1 1168   9.486  10.989   7.635
   57POPC   GL2 1169   9.511  11.363   7.680
   57POPC   C1A 1170   9.476  11.153   7.207
   57POPC   D2A 1171   9.712  11.019   6.844
   57POPC   C3A 1172   9.508  10.968   6.436
   57POPC   C4A 1173   9.768  11.024   6.062
   57POPC   C1B 1174   9.811   0.012   7.355
   57POPC   C2B 1175   9.653   0.052   6.890
   57POPC   C3B 1176   9.676  11.448   6.434
   57POPC   C4B 1177   9.781   0.014   5.989
   58POPC   NC3 1178  10.536   8.312   8.329
   58POPC   PO4 1179   9.963   8.470   7.914
   58POPC   GL1 1180  10.053   8.269   7.583
   58POPC   GL2 1181  10.233   7.954   7.668
   58POPC   C1A 1182  10.157   8.211   7.181
   58POPC   D2A 1183  10.342   8.071   6.818
   58POPC   C3A 1184  10.274   8.307   6.477
   58POPC   C4A 1185  10.268   8.185   6.061
   58POPC   C1B 1186  10.579   8.002   7.364
   58POPC   C2B 1187  10.805   8.200   7.021
   58POPC   C3B 1188  10.790   8.247   6.576
   58POPC   C4B 1189  10.603   7.918   6.323
   59POPC   NC3 1190   4.612   1.212   8.037
   59POPC   PO4 1191   4.123   0.760   8.087
   59POPC   GL1 1192   4.020   1.039   7.744
   59POPC   GL2 1193   4.364   1.013   7.642
   59POPC   C1A 1194   3.894   0.938   7.309
   59POPC   D2A 1195   4.138   0.953   6.930
   59POPC   C3A 1196   3.985   0.951   6.546
   59POPC   C4A 1197   4.277   1.173   6.390
   59POPC   C1B 1198   4.288   1.280   7.292
   59POPC   C2B 1199   4.534   1.402   6.953
   59POPC   C3B 1200   4.574   1.536   6.556
   59POPC   C4B 1201   4.171   1.674   6.366
   60POPC   NC3 1202   1.351   4.843   8.195
   60POPC   PO4 1203   2.045   5.026   8.155
   60POPC   GL1 1204   2.035   4.935   7.712
   60POPC   GL2 1205   1.884   5.189   7.517
   60POPC   C1A 1206   2.003   4.745   7.302
   60POPC   D2A 1207   1.904   5.046   6.970
   60POPC   C3A 1208   1.874   4.825   6.585
   60POPC   C4A 1209   1.825   5.021   6.200
   60POPC   C1B 1210   2.264   5.212   7.313
   60POPC   C2B 1211   2.321   5.369   6.882
   60POPC   C3B 1212   2.242   5.194   6.459
   60POPC   C4B 1213   2.472   5.204   6.051
   61POPC   NC3 1214   9.803   5.152   8.209
   61POPC   PO4 1215   9.756   4.487   8.017
   61POPC   GL1 1216   9.932   4.836   7.735
   61POPC   GL2 1217   9.735   5.158   7.707
   61POPC   C1A 1218  10.041   4.990   7.294
   61POPC   D2A 1219  10.112   4.861   6.847
   61POPC   C3A 1220   9.780   4.954   6.512
   61POPC   C4A 1221   9.652   4.801   6.114
   61POPC   C1B 1222   9.536   5.088   7.309
   61POPC   C2B 1223   9.532   5.214   6.866
   61POPC   C3B 1224   9.343   5.209   6.450
   61POPC   C4B 1225   9.416   5.237   6.021
   62POPC   NC3 1226  11.303  11.098   7.950
   62POPC   PO4 1227  10.768  11.485   8.111
   62POPC   GL1 1228  11.080   0.009   7.751
   62POPC   GL2 1229  10.820  11.423   7.548
   62POPC   C1A 1230  11.301   0.040   7.342
   62POPC   D2A 1231  11.057   0.032   6.964
   62POPC   C3A 1232  11.310  11.484   6.607
   62POPC   C4A 1233  11.215   0.021   6.183
   62POPC   C1B 1234  11.013  11.115   7.293
   62POPC   C2B 1235  11.134  11.030   6.875
   62POPC   C3B 1236  11.242  10.986   6.446
   62POPC   C4B 1237  10.983  10.760   6.120
   63POPC   NC3 1238  10.212   3.398   8.221
   63POPC   PO4 1239  10.689   3.297   7.759
   63POPC   GL1 1240  10.303   3.278   7.567
   63POPC   GL2 1241  10.208   3.589   7.738
   63POPC   C1A 1242  10.340   3.287   7.106
   63POPC   D2A 1243  10.257   3.366   6.667
   63POPC   C3A 1244  10.595   3.498   6.348
   63POPC   C4A 1245  10.609   3.328   5.912
   63POPC   C1B 1246  10.159   3.766   7.339
   63POPC   C2B 1247  10.337   3.782   6.932
   63POPC   C3B 1248  10.189   3.885   6.533
   63POPC   C4B 1249  10.223   3.733   6.108
   64POPC   NC3 1250   6.711   0.025   8.335
   64POPC   PO4 1251   6.385   0.567   8.103
   64POPC   GL1 1252   6.260   0.387   7.703
   64POPC   GL2 1253   6.536   0.174   7.665
   64POPC   C1A 1254   6.296   0.373   7.228
   64POPC   D2A 1255   6.512   0.277   6.833
   64POPC   C3A 1256   6.411   0.603   6.529
   64POPC   C4A 1257   6.264   0.537   6.115
   64POPC   C1B 1258   6.793   0.416   7.357
   64POPC   C2B 1259   6.924   0.574   6.943
   64POPC   C3B 1260   6.914   0.461   6.507
   64POPC   C4B 1261   6.762   0.647   6.118
   65POPC   NC3 1262   4.657  10.350   8.212
   65POPC   PO4 1263   4.995  10.952   8.267
   65POPC   GL1 1264   4.944  10.611   7.846
   65POPC   GL2 1265   4.764  10.728   7.525
   65POPC   C1A 1266   5.180  10.414   7.447
   65POPC   D2A 1267   5.105  10.434   6.947
   65POPC   C3A 1268   5.166  10.111   6.613
   65POPC   C4A 1269   5.050  10.115   6.159
   65POPC   C1B 1270   5.160  10.868   7.239
   65POPC   C2B 1271   5.321  10.887   6.792
   65POPC   C3B 1272   5.168  10.660   6.404
   65POPC   C4B 1273   5.226  10.570   5.931
   66POPC   NC3 1274  11.499   5.433   8.100
   66POPC   PO4 1275   0.018   4.694   8.096
   66POPC   GL1 1276  11.192   4.832   7.841
   66POPC   GL2 1277  11.174   5.202   7.761
   66POPC   C1A 1278  11.139   4.831   7.405
   66POPC   D2A 1279  11.099   4.615   7.016
   66POPC   C3A 1280  11.151   4.859   6.663
   66POPC   C4A 1281  11.147   4.761   6.253
   66POPC   C1B 1282  10.843   5.266   7.443
   66POPC   C2B 1283  10.955   5.153   7.028
   66POPC   C3B 1284  10.949   5.343   6.616
   66POPC   C4B 1285  10.620   5.397   6.322
   67POPC   NC3 1286   7.936  10.270   8.110
   67POPC   PO4 1287   8.464   9.927   7.721
   67POPC   GL1 1288   8.069  10.143   7.618
   67POPC   GL2 1289   8.001  10.536   7.686
   67POPC   C1A 1290   7.900  10.316   7.227
   67POPC   D2A 1291   8.062  10.442   6.834
   67POPC   C3A 1292   8.174  10.143   6.530
   67POPC   C4A 1293   7.857  10.247   6.292
   67POPC   C1B 1294   7.779  10.766   7.389
   67POPC   C2B 1295   7.673  10.781   6.945
   67POPC   C3B 1296   7.944  10.901   6.635
   67POPC   C4B 1297   8.130  10.674   6.343
   68POPC   NC3 1298   4.551   2.847   8.461
   68POPC   PO4 1299   4.005   2.583   8.093
   68POPC   GL1 1300   4.211   2.647   7.691
   68POPC   GL2 1301   4.021   2.945   7.639
   68POPC   C1A 1302   4.507   2.594   7.303
   68POPC   D2A 1303   4.541   2.319   6.923
   68POPC   C3A 1304   4.591   2.557   6.532
   68POPC   C4A 1305   4.472   2.452   6.113
   68POPC   C1B 1306   3.999   2.742   7.227
   68POPC   C2B 1307   4.187   2.767   6.796
   68POPC   C3B 1308   4.150   2.792   6.329
   68POPC   C4B 1309   4.417   2.961   5.992
   69POPC   NC3 1310   1.385   6.214   8.188
   69POPC   PO4 1311   1.229   5.573   7.971
   69POPC   GL1 1312   1.248   5.885   7.660
   69POPC   GL2 1313   1.294   5.620   7.441
   69POPC   C1A 1314   1.034   6.021   7.245
   69POPC   D2A 1315   0.891   5.890   6.797
   69POPC   C3A 1316   0.943   6.132   6.399
   69POPC   C4A 1317   0.802   6.056   5.945
   69POPC   C1B 1318   1.590   5.439   7.184
   69POPC   C2B 1319   1.386   5.575   6.819
   69POPC   C3B 1320   1.260   5.713   6.423
   69POPC   C4B 1321   1.511   5.425   6.212
   70POPC   NC3 1322   3.508   0.091   8.130
   70POPC   PO4 1323   3.331  10.833   8.106
   70POPC   GL1 1324   3.524  10.948   7.698
   70POPC   GL2 1325   3.583  11.312   7.696
   70POPC   C1A 1326   3.799  10.998   7.315
   70POPC   D2A 1327   3.920  11.280   6.983
   70POPC   C3A 1328   3.769  11.121   6.583
   70POPC   C4A 1329   3.767  11.221   6.145
   70POPC   C1B 1330   3.332  11.270   7.310
   70POPC   C2B 1331   3.161  11.368   6.888
   70POPC   C3B 1332   3.311  11.341   6.435
   70POPC   C4B 1333   3.351  10.902   6.268
   71POPC   NC3 1334  11.129   4.448   8.233
   71POPC   PO4 1335  11.432   3.900   8.022
   71POPC   GL1 1336  11.373   4.277   7.786
   71POPC   GL2 1337  11.033   4.353   7.727
   71POPC   C1A 1338  11.435   4.416   7.355
   71POPC   D2A 1339  11.472   4.215   6.976
   71POPC   C3A 1340  11.370   4.317   6.568
   71POPC   C4A 1341  11.395   4.037   6.204
   71POPC   C1B 1342  10.989   4.201   7.323
   71POPC   C2B 1343  10.980   4.118   6.900
   71POPC   C3B 1344  10.883   4.427   6.562
   71POPC   C4B 1345  10.964   4.294   6.169
   72POPC   NC3 1346   9.363   4.265   8.069
   72POPC   PO4 1347   9.998   3.869   8.138
   72POPC   GL1 1348   9.827   3.941   7.724
   72POPC   GL2 1349   9.975   4.206   7.544
   72POPC   C1A 1350   9.595   3.805   7.345
   72POPC   D2A 1351   9.345   3.919   6.950
   72POPC   C3A 1352   9.435   3.877   6.508
   72POPC   C4A 1353   9.777   4.048   6.291
   72POPC   C1B 1354   9.735   4.557   7.345
   72POPC   C2B 1355   9.635   4.694   6.935
   72POPC   C3B 1356   9.613   4.474   6.537
   72POPC   C4B 1357   9.354   4.383   6.198
   73POPC   NC3 1358   2.701   8.073   8.038
   73POPC   PO4 1359   2.138   7.507   8.236
   73POPC   GL1 1360   2.085   7.443   7.807
   73POPC   GL2 1361   1.790   7.328   7.750
   73POPC   C1A 1362   2.141   7.515   7.343
   73POPC   D2A 1363   2.222   7.721   6.909
   73POPC   C3A 1364   2.208   7.513   6.499
   73POPC   C4A 1365   1.999   7.611   6.118
   73POPC   C1B 1366   1.651   7.396   7.326
   73POPC   C2B 1367   1.863   7.295   6.944
   73POPC   C3B 1368   1.729   7.334   6.533
   73POPC   C4B 1369   1.868   7.109   6.173
   74POPC   NC3 1370  10.593   1.294   8.345
   74POPC   PO4 1371  10.111   0.822   8.240
   74POPC   GL1 1372  10.251   1.030   7.833
   74POPC   GL2 1373  10.242   1.406   7.794
   74POPC   C1A 1374  10.376   1.071   7.395
   74POPC   D2A 1375  10.034   0.991   7.107
   74POPC   C3A 1376  10.059   1.052   6.656
   74POPC   C4A 1377  10.457   1.045   6.382
   74POPC   C1B 1378  10.148   1.506   7.322
   74POPC   C2B 1379  10.318   1.399   6.921
   74POPC   C3B 1380  10.251   1.508   6.485
   74POPC   C4B 1381  10.385   1.460   6.030
   75POPC   NC3 1382   0.547   4.775   8.009
   75POPC   PO4 1383   0.455   5.484   7.914
   75POPC   GL1 1384   0.515   5.133   7.647
   75POPC   GL2 1385   0.168   5.031   7.703
   75POPC   C1A 1386   0.630   5.063   7.220
   75POPC   D2A 1387   0.392   5.131   6.837
   75POPC   C3A 1388   0.596   5.057   6.474
   75POPC   C4A 1389   0.880   4.769   6.363
   75POPC   C1B 1390   0.148   4.874   7.264
   75POPC   C2B 1391   0.107   4.703   6.837
   75POPC   C3B 1392   0.104   4.945   6.427
   75POPC   C4B 1393   0.272   5.328   6.180
   76POPC   NC3 1394   0.932   7.416   8.092
   76POPC   PO4 1395   0.398   7.708   8.352
   76POPC   GL1 1396   0.534   7.642   7.855
   76POPC   GL2 1397   0.420   7.339   7.697
   76POPC   C1A 1398   0.506   7.680   7.359
   76POPC   D2A 1399   0.307   7.517   7.013
   76POPC   C3A 1400   0.506   7.631   6.642
   76POPC   C4A 1401   0.465   7.525   6.245
   76POPC   C1B 1402   0.515   7.119   7.346
   76POPC   C2B 1403   0.455   6.999   6.949
   76POPC   C3B 1404   0.396   7.131   6.572
   76POPC   C4B 1405   0.700   7.065   6.272
   77POPC   NC3 1406   2.063   4.450   7.994
   77POPC   PO4 1407   1.518   4.016   8.067
   77POPC   GL1 1408   1.666   4.216   7.675
   77POPC   GL2 1409   2.002   4.246   7.528
   77POPC   C1A 1410   1.600   4.363   7.232
   77POPC   D2A 1411   1.772   4.097   6.889
   77POPC   C3A 1412   1.619   4.146   6.450
   77POPC   C4A 1413   1.702   4.519   6.199
   77POPC   C1B 1414   2.211   3.991   7.180
   77POPC   C2B 1415   2.326   4.079   6.751
   77POPC   C3B 1416   2.122   4.337   6.430
   77POPC   C4B 1417   2.228   4.726   6.191
   78POPC   NC3 1418   7.087  10.251   8.020
   78POPC   PO4 1419   7.594  10.664   8.138
   78POPC   GL1 1420   7.452  10.543   7.720
   78POPC   GL2 1421   7.570  10.226   7.697
   78POPC   C1A 1422   7.281  10.687   7.269
   78POPC   D2A 1423   7.071  10.642   6.845
   78POPC   C3A 1424   7.405  10.521   6.551
   78POPC   C4A 1425   7.626  10.782   6.275
   78POPC   C1B 1426   7.370  10.198   7.343
   78POPC   C2B 1427   7.237  10.188   6.948
   78POPC   C3B 1428   7.210  10.053   6.523
   78POPC   C4B 1429   7.066  10.137   6.143
   79POPC   NC3 1430   1.991   1.116   8.068
   79POPC   PO4 1431   2.276   1.588   7.823
   79POPC   GL1 1432   2.054   1.324   7.567
   79POPC   GL2 1433   1.717   1.327   7.684
   79POPC   C1A 1434   2.138   1.145   7.151
   79POPC   D2A 1435   2.317   0.956   6.759
   79POPC   C3A 1436   2.111   1.178   6.400
   79POPC   C4A 1437   2.239   1.477   6.095
   79POPC   C1B 1438   1.632   1.126   7.291
   79POPC   C2B 1439   1.536   1.290   6.894
   79POPC   C3B 1440   1.572   1.147   6.491
   79POPC   C4B 1441   1.679   0.994   6.122
   80POPC   NC3 1442  10.399   9.104   8.189
   80POPC   PO4 1443  10.629   9.716   8.273
   80POPC   GL1 1444  10.559   9.699   7.794
   80POPC   GL2 1445  10.196   9.771   7.694
   80POPC   C1A 1446  10.489   9.531   7.332
   80POPC   D2A 1447  10.287   9.627   6.912
   80POPC   C3A 1448  10.368   9.585   6.459
   80POPC   C4A 1449  10.591   9.891   6.215
   80POPC   C1B 1450  10.165   9.979   7.281
   80POPC   C2B 1451   9.965  10.029   6.845
   80POPC   C3B 1452  10.140  10.096   6.396
   80POPC   C4B 1453  10.163   9.902   5.939
   81POPC   NC3 1454   1.820   3.671   8.005
   81POPC   PO4 1455   2.403   4.005   7.992
   81POPC   GL1 1456   2.174   3.782   7.647
   81POPC   GL2 1457   2.108   3.440   7.657
   81POPC   C1A 1458   1.804   3.726   7.337
   81POPC   D2A 1459   1.769   3.559   6.906
   81POPC   C3A 1460   1.981   3.775   6.551
   81POPC   C4A 1461   2.311   3.880   6.262
   81POPC   C1B 1462   2.021   3.240   7.262
   81POPC   C2B 1463   1.980   3.051   6.864
   81POPC   C3B 1464   1.976   3.265   6.495
   81POPC   C4B 1465   1.768   3.519   6.180
   82POPC   NC3 1466  10.312   2.120   8.002
   82POPC   PO4 1467   9.837   1.654   8.034
   82POPC   GL1 1468   9.681   1.729   7.630
   82POPC   GL2 1469   9.299   1.623   7.576
   82POPC   C1A 1470   9.902   1.960   7.297
   82POPC   D2A 1471  10.103   1.879   6.902
   82POPC   C3A 1472   9.861   1.847   6.489
   82POPC   C4A 1473   9.931   1.684   6.104
   82POPC   C1B 1474   9.408   1.867   7.218
   82POPC   C2B 1475   9.649   2.080   6.872
   82POPC   C3B 1476   9.601   2.334   6.474
   82POPC   C4B 1477   9.396   2.366   6.048
   83POPC   NC3 1478   0.814   5.687   8.173
   83POPC   PO4 1479   0.185   5.853   8.230
   83POPC   GL1 1480   0.222   5.947   7.768
   83POPC   GL2 1481   0.587   5.982   7.744
   83POPC   C1A 1482   0.214   5.743   7.335
   83POPC   D2A 1483   0.546   5.572   7.059
   83POPC   C3A 1484   0.467   5.587   6.611
   83POPC   C4A 1485   0.725   5.666   6.265
   83POPC   C1B 1486   0.538   6.122   7.307
   83POPC   C2B 1487   0.374   6.044   6.887
   83POPC   C3B 1488   0.438   6.070   6.434
   83POPC   C4B 1489   0.135   5.818   6.231
   84POPC   NC3 1490  10.350  10.098   8.100
   84POPC   PO4 1491  10.020  10.758   8.082
   84POPC   GL1 1492  10.178  10.440   7.720
   84POPC   GL2 1493  10.489  10.193   7.630
   84POPC   C1A 1494  10.309  10.513   7.281
   84POPC   D2A 1495  10.250  10.803   6.944
   84POPC   C3A 1496  10.256  10.630   6.553
   84POPC   C4A 1497  10.196  10.759   6.124
   84POPC   C1B 1498  10.820  10.402   7.404
   84POPC   C2B 1499  10.790  10.692   7.062
   84POPC   C3B 1500  10.817  10.666   6.612
   84POPC   C4B 1501  10.607  10.441   6.245
   85POPC   NC3 1502   4.404   0.458   7.878
   85POPC   PO4 1503   4.008  11.479   8.098
   85POPC   GL1 1504   3.940   0.194   7.669
   85POPC   GL2 1505   3.991   0.549   7.616
   85POPC   C1A 1506   4.028   0.262   7.191
   85POPC   D2A 1507   3.931   0.502   6.801
   85POPC   C3A 1508   4.052   0.324   6.383
   85POPC   C4A 1509   4.115   0.367   5.941
   85POPC   C1B 1510   4.333   0.662   7.294
   85POPC   C2B 1511   4.432   0.536   6.920
   85POPC   C3B 1512   4.403   0.676   6.528
   85POPC   C4B 1513   4.537   0.487   6.213
   86POPC   NC3 1514   1.950   1.814   8.068
   86POPC   PO4 1515   1.995   2.482   7.841
   86POPC   GL1 1516   2.079   2.220   7.569
   86POPC   GL2 1517   1.959   1.871   7.549
   86POPC   C1A 1518   2.117   2.317   7.150
   86POPC   D2A 1519   1.994   2.045   6.829
   86POPC   C3A 1520   2.074   2.230   6.424
   86POPC   C4A 1521   1.848   2.451   6.122
   86POPC   C1B 1522   1.827   1.620   7.198
   86POPC   C2B 1523   1.972   1.510   6.774
   86POPC   C3B 1524   1.809   1.601   6.359
   86POPC   C4B 1525   1.915   1.894   6.027
   87POPC   NC3 1526   9.566   3.715   8.105
   87POPC   PO4 1527   9.818   3.159   8.231
   87POPC   GL1 1528   9.763   3.337   7.779
   87POPC   GL2 1529   9.477   3.147   7.793
   87POPC   C1A 1530   9.854   3.371   7.278
   87POPC   D2A 1531   9.839   3.719   6.889
   87POPC   C3A 1532   9.810   3.540   6.456
   87POPC   C4A 1533   9.808   3.124   6.506
   87POPC   C1B 1534   9.377   3.201   7.361
   87POPC   C2B 1535   9.456   3.383   6.935
   87POPC   C3B 1536   9.322   3.287   6.523
   87POPC   C4B 1537   9.331   3.466   6.145
   88POPC   NC3 1538   8.790   9.026   8.148
   88POPC   PO4 1539   9.218   8.471   8.060
   88POPC   GL1 1540   8.910   8.683   7.732
   88POPC   GL2 1541   8.847   9.062   7.649
   88POPC   C1A 1542   8.701   8.737   7.311
   88POPC   D2A 1543   8.832   8.839   6.887
   88POPC   C3A 1544   8.681   8.659   6.510
   88POPC   C4A 1545   8.437   8.819   6.163
   88POPC   C1B 1546   8.970   9.213   7.222
   88POPC   C2B 1547   8.781   9.324   6.794
   88POPC   C3B 1548   8.828   9.153   6.336
   88POPC   C4B 1549   9.157   9.108   5.972
   89POPC   NC3 1550   2.657   1.361   8.035
   89POPC   PO4 1551   2.290   0.768   8.123
   89POPC   GL1 1552   2.436   0.990   7.681
   89POPC   GL2 1553   2.627   1.320   7.549
   89POPC   C1A 1554   2.636   0.942   7.232
   89POPC   D2A 1555   2.895   0.886   6.864
   89POPC   C3A 1556   2.733   0.903   6.454
   89POPC   C4A 1557   2.433   0.865   6.168
   89POPC   C1B 1558   3.052   1.391   7.378
   89POPC   C2B 1559   3.134   1.342   6.937
   89POPC   C3B 1560   3.072   1.269   6.506
   89POPC   C4B 1561   2.712   1.421   6.259
   90POPC   NC3 1562   9.610   8.229   8.102
   90POPC   PO4 1563   9.427   7.669   8.038
   90POPC   GL1 1564   9.295   8.067   7.718
   90POPC   GL2 1565   9.530   8.361   7.645
   90POPC   C1A 1566   9.250   8.262   7.274
   90POPC   D2A 1567   9.480   8.130   6.956
   90POPC   C3A 1568   9.527   8.195   6.578
   90POPC   C4A 1569   9.440   7.976   6.219
   90POPC   C1B 1570   9.714   7.987   7.366
   90POPC   C2B 1571   9.891   7.834   6.907
   90POPC   C3B 1572   9.937   7.930   6.421
   90POPC   C4B 1573   9.818   8.351   6.202
   91POPC   NC3 1574   6.720   1.657   8.014
   91POPC   PO4 1575   7.067   2.222   7.936
   91POPC   GL1 1576   6.993   1.896   7.609
   91POPC   GL2 1577   6.606   1.809   7.558
   91POPC   C1A 1578   6.899   1.838   7.163
   91POPC   D2A 1579   6.774   2.074   6.810
   91POPC   C3A 1580   6.874   1.814   6.485
   91POPC   C4A 1581   6.714   1.677   6.161
   91POPC   C1B 1582   6.227   1.768   7.293
   91POPC   C2B 1583   6.130   1.924   6.885
   91POPC   C3B 1584   6.353   1.995   6.515
   91POPC   C4B 1585   6.183   2.328   6.248
   92POPC   NC3 1586   6.273   3.391   8.272
   92POPC   PO4 1587   6.622   2.999   8.132
   92POPC   GL1 1588   6.455   3.245   7.750
   92POPC   GL2 1589   6.486   3.592   7.834
   92POPC   C1A 1590   6.395   3.221   7.249
   92POPC   D2A 1591   6.625   3.223   6.830
   92POPC   C3A 1592   6.407   3.257   6.417
   92POPC   C4A 1593   6.462   3.191   5.958
   92POPC   C1B 1594   6.658   3.623   7.420
   92POPC   C2B 1595   6.469   3.684   7.005
   92POPC   C3B 1596   6.634   3.693   6.584
   92POPC   C4B 1597   6.513   3.694   6.144
   93POPC   NC3 1598   8.130   1.352   8.165
   93POPC   PO4 1599   7.815   0.766   7.958
   93POPC   GL1 1600   7.956   1.063   7.604
   93POPC   GL2 1601   8.277   1.246   7.625
   93POPC   C1A 1602   7.960   1.330   7.195
   93POPC   D2A 1603   7.648   1.366   6.833
   93POPC   C3A 1604   7.839   1.156   6.471
   93POPC   C4A 1605   7.951   1.103   5.999
   93POPC   C1B 1606   8.304   0.861   7.299
   93POPC   C2B 1607   8.338   0.778   6.825
   93POPC   C3B 1608   8.275   0.904   6.379
   93POPC   C4B 1609   8.288   1.360   6.280
   94POPC   NC3 1610   6.411  10.727   8.082
   94POPC   PO4 1611   6.663  10.011   8.072
   94POPC   GL1 1612   6.610  10.336   7.759
   94POPC   GL2 1613   6.943  10.453   7.586
   94POPC   C1A 1614   6.453  10.463   7.372
   94POPC   D2A 1615   6.528  10.555   6.902
   94POPC   C3A 1616   6.254  10.662   6.549
   94POPC   C4A 1617   6.246  10.630   6.068
   94POPC   C1B 1618   6.842  10.107   7.340
   94POPC   C2B 1619   6.758  10.048   6.910
   94POPC   C3B 1620   6.782  10.309   6.546
   94POPC   C4B 1621   6.478  10.211   6.305
   95POPC   NC3 1622   6.888   2.643   8.025
   95POPC   PO4 1623   7.569   2.683   8.196
   95POPC   GL1 1624   7.354   2.724   7.763
   95POPC   GL2 1625   7.388   2.436   7.596
   95POPC   C1A 1626   7.046   2.707   7.355
   95POPC   D2A 1627   7.078   2.476   6.922
   95POPC   C3A 1628   7.068   2.713   6.498
   95POPC   C4A 1629   6.905   3.085   6.229
   95POPC   C1B 1630   7.509   2.583   7.194
   95POPC   C2B 1631   7.569   2.355   6.834
   95POPC   C3B 1632   7.599   2.524   6.445
   95POPC   C4B 1633   7.444   2.853   6.160
   96POPC   NC3 1634  11.117   2.111   8.105
   96POPC   PO4 1635  11.429   1.494   8.031
   96POPC   GL1 1636  11.280   1.798   7.731
   96POPC   GL2 1637  11.365   1.560   7.498
   96POPC   C1A 1638  11.069   1.968   7.350
   96POPC   D2A 1639  11.063   1.780   6.940
   96POPC   C3A 1640  11.142   2.033   6.563
   96POPC   C4A 1641  11.167   1.851   6.154
   96POPC   C1B 1642   0.037   1.816   7.183
   96POPC   C2B 1643   0.030   1.765   6.762
   96POPC   C3B 1644   0.136   1.917   6.402
   96POPC   C4B 1645   0.258   1.538   6.275
   97POPC   NC3 1646   5.280   0.776   8.127
   97POPC   PO4 1647   5.054   1.359   7.997
   97POPC   GL1 1648   4.939   1.118   7.666
   97POPC   GL2 1649   5.236   0.980   7.598
   97POPC   C1A 1650   4.758   1.035   7.262
   97POPC   D2A 1651   4.719   0.946   6.824
   97POPC   C3A 1652   4.918   0.811   6.448
   97POPC   C4A 1653   4.719   1.058   6.144
   97POPC   C1B 1654   5.208   1.316   7.286
   97POPC   C2B 1655   5.050   1.369   6.877
   97POPC   C3B 1656   5.034   1.315   6.446
   97POPC   C4B 1657   5.303   1.421   6.115
   98POPC   NC3 1658   0.316   3.646   7.859
   98POPC   PO4 1659   0.314   3.050   8.245
   98POPC   GL1 1660   0.590   3.086   7.754
   98POPC   GL2 1661   0.788   3.389   7.705
   98POPC   C1A 1662   0.484   3.154   7.245
   98POPC   D2A 1663   0.064   3.209   6.977
   98POPC   C3A 1664   0.054   3.080   6.527
   98POPC   C4A 1665   0.381   3.212   6.187
   98POPC   C1B 1666   0.751   3.588   7.264
   98POPC   C2B 1667   0.559   3.563   6.812
   98POPC   C3B 1668   0.629   3.658   6.336
   98POPC   C4B 1669   0.625   3.650   5.846
   99POPC   NC3 1670  10.270   6.562   7.969
   99POPC   PO4 1671  10.754   7.027   7.744
   99POPC   GL1 1672  10.416   6.871   7.588
   99POPC   GL2 1673  10.599   6.547   7.584
   99POPC   C1A 1674  10.390   6.818   7.157
   99POPC   D2A 1675  10.433   6.675   6.729
   99POPC   C3A 1676  10.593   6.950   6.425
   99POPC   C4A 1677  10.329   7.065   6.120
   99POPC   C1B 1678  10.486   6.314   7.230
   99POPC   C2B 1679  10.291   6.199   6.854
   99POPC   C3B 1680  10.357   6.271   6.420
   99POPC   C4B 1681  10.259   6.154   6.012
  100POPC   NC3 1682  10.546   5.810   8.085
  100POPC   PO4 1683   9.953   6.182   7.975
  100POPC   GL1 1684  10.316   6.106   7.699
  100POPC   GL2 1685  10.206   5.776   7.687
  100POPC   C1A 1686  10.600   5.843   7.396
  100POPC   D2A 1687  10.787   5.638   7.047
  100POPC   C3A 1688  10.703   5.895   6.701
  100POPC   C4A 1689  10.673   5.902   6.272
  100POPC   C1B 1690  10.123   5.904   7.260
  100POPC   C2B 1691  10.254   5.700   6.880
  100POPC   C3B 1692  10.218   5.766   6.442
  100POPC   C4B 1693  10.301   5.653   5.989
  101POPC   NC3 1694  11.441   2.868   8.041
  101POPC   PO4 1695  10.818   3.141   8.241
  101POPC   GL1 1696  11.000   2.923   7.767
  101POPC   GL2 1697  11.285   2.865   7.571
  101POPC   C1A 1698  10.942   3.005   7.257
  101POPC   D2A 1699  11.206   2.814   6.961
  101POPC   C3A 1700  10.998   2.645   6.656
  101POPC   C4A 1701  11.158   2.744   6.321
  101POPC   C1B 1702  11.214   2.477   7.352
  101POPC   C2B 1703  11.376   2.285   6.972
  101POPC   C3B 1704   0.026   2.430   6.574
  101POPC   C4B 1705  11.375   2.309   6.171
  102POPC   NC3 1706   3.648   2.943   8.040
  102POPC   PO4 1707   3.153   2.452   8.033
  102POPC   GL1 1708   3.332   2.702   7.706
  102POPC   GL2 1709   3.677   2.558   7.654
  102POPC   C1A 1710   3.273   2.898   7.300
  102POPC   D2A 1711   3.131   2.787   6.871
  102POPC   C3A 1712   3.300   2.958   6.470
  102POPC   C4A 1713   3.290   2.882   6.002
  102POPC   C1B 1714   3.571   2.446   7.213
  102POPC   C2B 1715   3.640   2.609   6.775
  102POPC   C3B 1716   3.666   2.604   6.322
  102POPC   C4B 1717   3.608   2.484   5.903
  103POPC   NC3 1718   9.539   7.232   8.104
  103POPC   PO4 1719  10.171   7.002   8.091
  103POPC   GL1 1720   9.931   7.089   7.720
  103POPC   GL2 1721   9.834   7.445   7.711
  103POPC   C1A 1722   9.808   7.002   7.279
  103POPC   D2A 1723   9.735   7.227   6.864
  103POPC   C3A 1724   9.627   7.019   6.424
  103POPC   C4A 1725   9.788   6.957   5.979
  103POPC   C1B 1726   9.537   7.505   7.370
  103POPC   C2B 1727   9.422   7.624   6.960
  103POPC   C3B 1728   9.544   7.606   6.550
  103POPC   C4B 1729   9.303   7.401   6.255
  104POPC   NC3 1730   5.448  10.358   8.438
  104POPC   PO4 1731   5.932   9.795   8.195
  104POPC   GL1 1732   5.746   9.999   7.836
  104POPC   GL2 1733   5.881   9.708   7.677
  104POPC   C1A 1734   5.573   9.979   7.395
  104POPC   D2A 1735   5.841   9.898   7.011
  104POPC   C3A 1736   5.689   9.914   6.566
  104POPC   C4A 1737   5.525   9.793   6.128
  104POPC   C1B 1738   5.709   9.493   7.291
  104POPC   C2B 1739   5.853   9.426   6.861
  104POPC   C3B 1740   5.742   9.423   6.425
  104POPC   C4B 1741   6.032   9.314   6.108
  105POPC   NC3 1742   1.980  11.388   8.147
  105POPC   PO4 1743   1.736  10.807   8.060
  105POPC   GL1 1744   1.765  11.114   7.714
  105POPC   GL2 1745   2.081  11.304   7.661
  105POPC   C1A 1746   1.872  11.075   7.277
  105POPC   D2A 1747   1.700  11.108   6.900
  105POPC   C3A 1748   1.963  11.076   6.546
  105POPC   C4A 1749   1.943  10.896   6.155
  105POPC   C1B 1750   2.290  11.444   7.292
  105POPC   C2B 1751   2.128  11.396   6.889
  105POPC   C3B 1752   2.348  11.438   6.486
  105POPC   C4B 1753   2.113  11.375   6.133
  106POPC   NC3 1754   4.115  10.054   7.906
  106POPC   PO4 1755   4.696   9.527   7.987
  106POPC   GL1 1756   4.471   9.754   7.717
  106POPC   GL2 1757   4.191   9.550   7.661
  106POPC   C1A 1758   4.439   9.843   7.287
  106POPC   D2A 1759   4.313   9.643   6.887
  106POPC   C3A 1760   4.361   9.922   6.524
  106POPC   C4A 1761   4.626   9.878   6.192
  106POPC   C1B 1762   3.945   9.624   7.278
  106POPC   C2B 1763   3.831   9.452   6.857
  106POPC   C3B 1764   3.929   9.633   6.437
  106POPC   C4B 1765   4.223   9.592   6.091
  107POPC   NC3 1766   2.668   9.521   8.038
  107POPC   PO4 1767   2.298  10.008   7.849
  107POPC   GL1 1768   2.668   9.807   7.617
  107POPC   GL2 1769   3.028   9.659   7.686
  107POPC   C1A 1770   2.809   9.893   7.239
  107POPC   D2A 1771   2.743   9.968   6.829
  107POPC   C3A 1772   2.423   9.823   6.654
  107POPC   C4A 1773   2.584   9.640   6.330
  107POPC   C1B 1774   2.967   9.405   7.303
  107POPC   C2B 1775   2.826   9.469   6.890
  107POPC   C3B 1776   3.037   9.560   6.519
  107POPC   C4B 1777   2.931   9.335   6.111
  108POPC   NC3 1778   6.882   8.702   8.042
  108POPC   PO4 1779   7.591   8.571   8.053
  108POPC   GL1 1780   7.527   8.876   7.722
  108POPC   GL2 1781   7.182   8.981   7.707
  108POPC   C1A 1782   7.475   8.854   7.270
  108POPC   D2A 1783   7.367   8.704   6.847
  108POPC   C3A 1784   7.618   8.791   6.496
  108POPC   C4A 1785   7.422   8.633   6.160
  108POPC   C1B 1786   7.104   9.225   7.324
  108POPC   C2B 1787   7.287   9.206   6.894
  108POPC   C3B 1788   7.165   9.028   6.477
  108POPC   C4B 1789   7.324   9.137   6.058
  109POPC   NC3 1790  10.516   2.888   7.918
  109POPC   PO4 1791  10.748   2.223   7.866
  109POPC   GL1 1792  10.483   2.463   7.600
  109POPC   GL2 1793  10.117   2.400   7.483
  109POPC   C1A 1794  10.713   2.541   7.246
  109POPC   D2A 1795  10.864   2.253   6.950
  109POPC   C3A 1796  10.676   2.256   6.531
  109POPC   C4A 1797  10.452   2.576   6.358
  109POPC   C1B 1798  10.251   2.777   7.233
  109POPC   C2B 1799  10.578   2.868   6.892
  109POPC   C3B 1800  10.618   3.022   6.494
  109POPC   C4B 1801  10.252   3.124   6.229
  110POPC   NC3 1802   9.636   8.782   8.058
  110POPC   PO4 1803   9.266   9.280   7.849
  110POPC   GL1 1804   9.364   8.888   7.632
  110POPC   GL2 1805   9.708   8.823   7.544
  110POPC   C1A 1806   9.270   8.772   7.207
  110POPC   D2A 1807   9.314   9.021   6.831
  110POPC   C3A 1808   9.203   8.842   6.453
  110POPC   C4A 1809   9.418   8.680   6.108
  110POPC   C1B 1810   9.734   8.506   7.219
  110POPC   C2B 1811   9.895   8.458   6.822
  110POPC   C3B 1812   9.702   8.704   6.538
  110POPC   C4B 1813   9.912   8.840   6.174
  111POPC   NC3 1814   3.106  10.420   8.059
  111POPC   PO4 1815   2.546  10.748   8.045
  111POPC   GL1 1816   2.816  10.670   7.713
  111POPC   GL2 1817   2.739  10.311   7.721
  111POPC   C1A 1818   3.023  10.733   7.335
  111POPC   D2A 1819   2.765  10.782   6.962
  111POPC   C3A 1820   2.967  10.714   6.579
  111POPC   C4A 1821   2.790  10.603   6.209
  111POPC   C1B 1822   2.622  10.388   7.309
  111POPC   C2B 1823   2.384  10.411   6.955
  111POPC   C3B 1824   2.544  10.371   6.588
  111POPC   C4B 1825   2.563  10.127   6.235
  112POPC   NC3 1826   7.824  11.128   8.000
  112POPC   PO4 1827   8.451  10.895   7.969
  112POPC   GL1 1828   8.228  11.145   7.645
  112POPC   GL2 1829   7.923  11.379   7.587
  112POPC   C1A 1830   8.207  10.991   7.229
  112POPC   D2A 1831   8.433  10.774   6.929
  112POPC   C3A 1832   8.452  10.993   6.591
  112POPC   C4A 1833   8.487  11.118   6.195
  112POPC   C1B 1834   8.070  11.494   7.247
  112POPC   C2B 1835   8.016  11.321   6.880
  112POPC   C3B 1836   8.147  11.387   6.484
  112POPC   C4B 1837   7.981  11.144   6.149
  113POPC   NC3 1838   2.420   2.330   7.970
  113POPC   PO4 1839   2.499   1.735   8.274
  113POPC   GL1 1840   2.645   1.894   7.805
  113POPC   GL2 1841   2.887   2.079   7.816
  113POPC   C1A 1842   2.441   1.953   7.348
  113POPC   D2A 1843   2.500   2.011   6.916
  113POPC   C3A 1844   2.352   1.788   6.524
  113POPC   C4A 1845   2.422   1.942   6.104
  113POPC   C1B 1846   2.934   1.945   7.374
  113POPC   C2B 1847   3.038   1.993   6.931
  113POPC   C3B 1848   3.105   2.201   6.545
  113POPC   C4B 1849   2.923   1.966   6.206
  114POPC   NC3 1850   4.370   9.203   8.027
  114POPC   PO4 1851   3.753   9.207   8.058
  114POPC   GL1 1852   3.853   9.153   7.623
  114POPC   GL2 1853   4.090   8.907   7.677
  114POPC   C1A 1854   4.101   9.151   7.213
  114POPC   D2A 1855   4.091   8.967   6.787
  114POPC   C3A 1856   4.204   9.173   6.384
  114POPC   C4A 1857   4.275   9.122   5.915
  114POPC   C1B 1858   4.372   8.732   7.361
  114POPC   C2B 1859   4.566   8.747   6.955
  114POPC   C3B 1860   4.572   8.843   6.506
  114POPC   C4B 1861   4.308   8.683   6.158
  115POPC   NC3 1862  10.999   1.395   7.854
  115POPC   PO4 1863  10.547   1.732   8.200
  115POPC   GL1 1864  10.629   1.745   7.720
  115POPC   GL2 1865  10.334   1.884   7.574
  115POPC   C1A 1866  10.662   1.628   7.250
  115POPC   D2A 1867  10.582   1.835   6.813
  115POPC   C3A 1868  10.739   1.723   6.425
  115POPC   C4A 1869  10.681   1.862   5.979
  115POPC   C1B 1870  10.455   2.097   7.237
  115POPC   C2B 1871  10.340   2.365   6.921
  115POPC   C3B 1872  10.116   2.270   6.566
  115POPC   C4B 1873  10.308   1.979   6.290
  116POPC   NC3 1874  10.938   6.728   8.029
  116POPC   PO4 1875  11.464   6.352   7.992
  116POPC   GL1 1876  11.442   6.397   7.626
  116POPC   GL2 1877  11.285   6.727   7.653
  116POPC   C1A 1878   0.016   6.234   7.244
  116POPC   D2A 1879  11.259   6.336   6.889
  116POPC   C3A 1880  11.475   6.214   6.575
  116POPC   C4A 1881   0.066   6.367   6.207
  116POPC   C1B 1882  11.052   6.546   7.335
  116POPC   C2B 1883  10.878   6.686   6.973
  116POPC   C3B 1884  11.012   6.675   6.546
  116POPC   C4B 1885  11.206   6.714   6.148
  117POPC   NC3 1886   2.159  10.444   7.944
  117POPC   PO4 1887   1.570   9.956   8.021
  117POPC   GL1 1888   1.542  10.212   7.634
  117POPC   GL2 1889   1.702  10.535   7.634
  117POPC   C1A 1890   1.682  10.187   7.199
  117POPC   D2A 1891   2.026  10.038   6.923
  117POPC   C3A 1892   2.031  10.103   6.478
  117POPC   C4A 1893   1.808  10.356   6.172
  117POPC   C1B 1894   1.999  10.574   7.298
  117POPC   C2B 1895   1.839  10.583   6.889
  117POPC   C3B 1896   2.053  10.585   6.556
  117POPC   C4B 1897   2.278  10.532   6.184
  118POPC   NC3 1898   2.779   0.518   8.058
  118POPC   PO4 1899   2.239   0.194   7.948
  118POPC   GL1 1900   2.425   0.466   7.691
  118POPC   GL2 1901   2.712   0.266   7.615
  118POPC   C1A 1902   2.398   0.499   7.262
  118POPC   D2A 1903   2.405   0.300   6.894
  118POPC   C3A 1904   2.466   0.478   6.529
  118POPC   C4A 1905   2.323   0.358   6.148
  118POPC   C1B 1906   2.808   0.172   7.193
  118POPC   C2B 1907   2.902   0.296   6.771
  118POPC   C3B 1908   2.850   0.175   6.352
  118POPC   C4B 1909   3.098   0.148   5.986
  119POPC   NC3 1910   2.910  11.027   8.077
  119POPC   PO4 1911   3.044   0.115   8.050
  119POPC   GL1 1912   2.967  11.326   7.677
  119POPC   GL2 1913   2.594  11.230   7.717
  119POPC   C1A 1914   2.815  11.184   7.271
  119POPC   D2A 1915   2.620  11.290   6.897
  119POPC   C3A 1916   2.826  11.205   6.533
  119POPC   C4A 1917   2.941  11.153   6.125
  119POPC   C1B 1918   2.385  10.930   7.404
  119POPC   C2B 1919   2.253  10.906   6.966
  119POPC   C3B 1920   2.449  10.883   6.571
  119POPC   C4B 1921   2.469  11.009   6.171
  120POPC   NC3 1922   1.529  10.406   8.122
  120POPC   PO4 1923   0.943  10.729   8.122
  120POPC   GL1 1924   1.201  10.629   7.782
  120POPC   GL2 1925   1.001  10.341   7.719
  120POPC   C1A 1926   1.115  10.707   7.344
  120POPC   D2A 1927   0.860  10.559   6.978
  120POPC   C3A 1928   1.095  10.607   6.568
  120POPC   C4A 1929   1.534  10.690   6.423
  120POPC   C1B 1930   1.126  10.194   7.311
  120POPC   C2B 1931   1.261  10.245   6.917
  120POPC   C3B 1932   1.547  10.192   6.623
  120POPC   C4B 1933   1.324  10.164   6.252
  121POPC   NC3 1934   9.831   1.191   8.097
  121POPC   PO4 1935   9.156   1.350   8.001
  121POPC   GL1 1936   9.467   1.140   7.711
  121POPC   GL2 1937   9.805   1.222   7.597
  121POPC   C1A 1938   9.564   0.859   7.339
  121POPC   D2A 1939   9.569   1.009   6.908
  121POPC   C3A 1940   9.298   1.061   6.579
  121POPC   C4A 1941   9.516   0.942   6.210
  121POPC   C1B 1942   9.664   1.407   7.239
  121POPC   C2B 1943   9.795   1.481   6.847
  121POPC   C3B 1944   9.696   1.366   6.445
  121POPC   C4B 1945   9.992   1.176   6.159
  122POPC   NC3 1946   9.903   0.363   8.125
  122POPC   PO4 1947   9.489   0.872   8.156
  122POPC   GL1 1948   9.775   0.745   7.812
  122POPC   GL2 1949   9.587   0.453   7.729
  122POPC   C1A 1950   9.995   0.553   7.442
  122POPC   D2A 1951  10.047   0.331   7.036
  122POPC   C3A 1952   9.820   0.532   6.695
  122POPC   C4A 1953   9.979   0.688   6.311
  122POPC   C1B 1954   9.434   0.339   7.332
  122POPC   C2B 1955   9.340   0.524   6.949
  122POPC   C3B 1956   9.300   0.344   6.552
  122POPC   C4B 1957   9.573   0.417   6.223
  123POPC   NC3 1958   5.073  11.400   8.369
  123POPC   PO4 1959   5.559  11.488   7.890
  123POPC   GL1 1960   5.324  11.238   7.589
  123POPC   GL2 1961   5.003  11.111   7.767
  123POPC   C1A 1962   5.275  11.372   7.146
  123POPC   D2A 1963   5.229   0.029   6.730
  123POPC   C3A 1964   5.170  11.231   6.416
  123POPC   C4A 1965   5.439  11.025   6.144
  123POPC   C1B 1966   4.829  11.233   7.378
  123POPC   C2B 1967   4.826  11.127   6.949
  123POPC   C3B 1968   4.718  11.349   6.610
  123POPC   C4B 1969   4.679  11.359   6.197
  124POPC   NC3 1970   0.403   9.105   8.272
  124POPC   PO4 1971   0.568   8.557   8.028
  124POPC   GL1 1972   0.509   8.826   7.684
  124POPC   GL2 1973   0.162   8.955   7.684
  124POPC   C1A 1974   0.568   8.912   7.248
  124POPC   D2A 1975   0.347   9.041   6.884
  124POPC   C3A 1976   0.626   8.906   6.566
  124POPC   C4A 1977   0.688   8.531   6.356
  124POPC   C1B 1978   0.158   8.634   7.329
  124POPC   C2B 1979   0.193   8.532   6.876
  124POPC   C3B 1980   0.208   8.628   6.426
  124POPC   C4B 1981   0.329   9.039   6.170
  125POPC   NC3 1982   4.185   0.358   8.332
  125POPC   PO4 1983   3.579   0.546   8.227
  125POPC   GL1 1984   3.495   0.510   7.757
  125POPC   GL2 1985   3.268   0.251   7.605
  125POPC   C1A 1986   3.598   0.506   7.289
  125POPC   D2A 1987   3.566   0.172   6.954
  125POPC   C3A 1988   3.548   0.302   6.500
  125POPC   C4A 1989   3.614   0.220   6.054
  125POPC   C1B 1990   3.098   0.565   7.288
  125POPC   C2B 1991   3.306   0.607   6.853
  125POPC   C3B 1992   3.147   0.603   6.395
  125POPC   C4B 1993   3.302   0.649   5.955
  126POPC   NC3 1994   0.927   8.864   8.023
  126POPC   PO4 1995   1.490   8.634   8.397
  126POPC   GL1 1996   1.456   8.759   7.855
  126POPC   GL2 1997   1.245   9.035   7.679
  126POPC   C1A 1998   1.573   8.815   7.356
  126POPC   D2A 1999   1.686   8.798   6.909
  126POPC   C3A 2000   1.756   9.094   6.588
  126POPC   C4A 2001   1.543   9.046   6.190
  126POPC   C1B 2002   1.056   8.774   7.350
  126POPC   C2B 2003   0.978   8.966   6.956
  126POPC   C3B 2004   1.177   8.922   6.608
  126POPC   C4B 2005   1.087   8.820   6.244
  127POPC   NC3 2006   9.664  10.515   7.897
  127POPC   PO4 2007   9.174  10.229   8.152
  127POPC   GL1 2008   9.375  10.161   7.660
  127POPC   GL2 2009   9.761  10.207   7.513
  127POPC   C1A 2010   9.418  10.197   7.164
  127POPC   D2A 2011   9.440   9.977   6.787
  127POPC   C3A 2012   9.416  10.254   6.424
  127POPC   C4A 2013   9.380  10.189   5.980
  127POPC   C1B 2014   9.798  10.546   7.210
  127POPC   C2B 2015   9.751  10.507   6.769
  127POPC   C3B 2016   9.797  10.560   6.341
  127POPC   C4B 2017   9.875  10.322   6.002
  128POPC   NC3 2018   3.410   8.950   7.901
  128POPC   PO4 2019   2.948   8.456   7.852
  128POPC   GL1 2020   3.253   8.652   7.514
  128POPC   GL2 2021   3.636   8.671   7.538
  128POPC   C1A 2022   3.133   8.781   7.090
  128POPC   D2A 2023   3.201   8.478   6.751
  128POPC   C3A 2024   3.224   8.684   6.404
  128POPC   C4A 2025   3.080   9.060   6.519
  128POPC   C1B 2026   3.613   8.968   7.194
  128POPC   C2B 2027   3.545   8.911   6.759
  128POPC   C3B 2028   3.757   8.865   6.386
  128POPC   C4B 2029   3.825   8.784   5.968
  129POPC   NC3 2030  10.538   0.693   8.332
  129POPC   PO4 2031  10.316   0.209   7.997
  129POPC   GL1 2032  10.496   0.309   7.629
  129POPC   GL2 2033  10.568   0.649   7.657
  129POPC   C1A 2034  10.492   0.104   7.206
  129POPC   D2A 2035  10.482   0.126   6.758
  129POPC   C3A 2036  10.135   0.158   6.489
  129POPC   C4A 2037  10.198   0.287   6.051
  129POPC   C1B 2038  10.446   0.611   7.215
  129POPC   C2B 2039  10.339   0.658   6.795
  129POPC   C3B 2040  10.460   0.537   6.427
  129POPC   C4B 2041  10.760   0.633   6.183
  130POPC   NC3 2042   2.470   7.207   8.084
  130POPC   PO4 2043   2.794   7.633   7.953
  130POPC   GL1 2044   2.568   7.394   7.604
  130POPC   GL2 2045   2.347   7.063   7.604
  130POPC   C1A 2046   2.621   7.548   7.179
  130POPC   D2A 2047   2.637   8.001   7.021
  130POPC   C3A 2048   2.651   7.969   6.582
  130POPC   C4A 2049   2.714   7.554   6.396
  130POPC   C1B 2050   2.319   7.089   7.136
  130POPC   C2B 2051   2.526   7.207   6.757
  130POPC   C3B 2052   2.602   7.036   6.336
  130POPC   C4B 2053   2.628   6.904   5.864
  131POPC   NC3 2054   1.117   1.868   8.077
  131POPC   PO4 2055   1.685   2.290   8.222
  131POPC   GL1 2056   1.575   2.089   7.806
  131POPC   GL2 2057   1.237   2.206   7.707
  131POPC   C1A 2058   1.601   2.170   7.331
  131POPC   D2A 2059   1.375   2.158   6.936
  131POPC   C3A 2060   1.568   2.004   6.560
  131POPC   C4A 2061   1.471   2.108   6.155
  131POPC   C1B 2062   1.044   2.000   7.344
  131POPC   C2B 2063   0.896   1.963   6.916
  131POPC   C3B 2064   1.044   2.052   6.493
  131POPC   C4B 2065   1.053   1.851   6.069
  132POPC   NC3 2066   5.158   9.603   8.003
  132POPC   PO4 2067   5.087  10.209   8.158
  132POPC   GL1 2068   4.965  10.021   7.693
  132POPC   GL2 2069   4.940   9.667   7.551
  132POPC   C1A 2070   5.104   9.976   7.207
  132POPC   D2A 2071   5.358   9.751   6.945
  132POPC   C3A 2072   5.050   9.604   6.677
  132POPC   C4A 2073   5.079   9.616   6.279
  132POPC   C1B 2074   5.023   9.417   7.169
  132POPC   C2B 2075   4.898   9.121   6.821
  132POPC   C3B 2076   5.034   9.103   6.383
  132POPC   C4B 2077   5.167   9.241   5.931
  133POPC   NC3 2078   5.802   1.605   8.039
  133POPC   PO4 2079   5.732   0.940   8.142
  133POPC   GL1 2080   5.978   1.147   7.810
  133POPC   GL2 2081   5.667   1.257   7.663
  133POPC   C1A 2082   6.084   1.274   7.365
  133POPC   D2A 2083   6.071   1.417   6.919
  133POPC   C3A 2084   5.897   1.232   6.554
  133POPC   C4A 2085   6.103   0.981   6.265
  133POPC   C1B 2086   5.639   1.014   7.270
  133POPC   C2B 2087   5.510   1.111   6.882
  133POPC   C3B 2088   5.433   1.004   6.478
  133POPC   C4B 2089   5.620   1.015   6.088
  134POPC   NC3 2090   9.485   9.574   8.135
  134POPC   PO4 2091   9.887  10.080   7.983
  134POPC   GL1 2092   9.675   9.743   7.694
  134POPC   GL2 2093   9.737   9.378   7.688
  134POPC   C1A 2094   9.716   9.730   7.254
  134POPC   D2A 2095   9.806   9.488   6.925
  134POPC   C3A 2096   9.734   9.636   6.538
  134POPC   C4A 2097   9.728   9.883   6.193
  134POPC   C1B 2098   9.563   9.210   7.278
  134POPC   C2B 2099   9.807   8.967   6.975
  134POPC   C3B 2100   9.932   9.155   6.573
  134POPC   C4B 2101   9.561   9.191   6.307
  135POPC   NC3 2102   8.765   1.521   7.826
  135POPC   PO4 2103   8.500   1.016   8.121
  135POPC   GL1 2104   8.661   0.919   7.694
  135POPC   GL2 2105   8.960   1.069   7.652
  135POPC   C1A 2106   8.678   1.186   7.268
  135POPC   D2A 2107   8.883   1.173   6.905
  135POPC   C3A 2108   8.661   1.141   6.594
  135POPC   C4A 2109   8.733   1.125   6.204
  135POPC   C1B 2110   9.200   1.220   7.285
  135POPC   C2B 2111   9.281   1.480   6.898
  135POPC   C3B 2112   8.965   1.565   6.588
  135POPC   C4B 2113   9.138   1.432   6.245
  136POPC   NC3 2114   9.022   0.900   8.134
  136POPC   PO4 2115   8.715   0.329   7.987
  136POPC   GL1 2116   9.049   0.531   7.778
  136POPC   GL2 2117   9.149   0.200   7.749
  136POPC   C1A 2118   9.079   0.701   7.365
  136POPC   D2A 2119   8.781   0.699   7.070
  136POPC   C3A 2120   8.943   0.714   6.664
  136POPC   C4A 2121   9.072   0.714   6.249
  136POPC   C1B 2122   8.921   0.224   7.364
  136POPC   C2B 2123   8.915   0.212   6.941
  136POPC   C3B 2124   8.605   0.358   6.685
  136POPC   C4B 2125   8.684   0.373   6.241
  137POPC   NC3 2126   3.603   1.041   8.085
  137POPC   PO4 2127   2.889   0.960   7.949
  137POPC   GL1 2128   3.251   0.967   7.651
  137POPC   GL2 2129   3.516   1.243   7.616
  137POPC   C1A 2130   3.371   0.985   7.215
  137POPC   D2A 2131   3.622   1.098   6.895
  137POPC   C3A 2132   3.484   0.957   6.521
  137POPC   C4A 2133   3.463   1.155   6.164
  137POPC   C1B 2134   3.780   1.425   7.286
  137POPC   C2B 2135   4.011   1.441   6.859
  137POPC   C3B 2136   3.769   1.405   6.484
  137POPC   C4B 2137   3.697   1.669   6.146
  138POPC   NC3 2138   3.719  10.472   8.271
  138POPC   PO4 2139   4.246  10.660   7.860
  138POPC   GL1 2140   3.840  10.496   7.694
  138POPC   GL2 2141   3.483  10.432   7.737
  138POPC   C1A 2142   3.626  10.494   7.271
  138POPC   D2A 2143   3.520  10.259   6.909
  138POPC   C3A 2144   3.528  10.482   6.530
  138POPC   C4A 2145   3.828  10.704   6.244
  138POPC   C1B 2146   3.160  10.252   7.407
  138POPC   C2B 2147   3.028  10.343   6.963
  138POPC   C3B 2148   3.064  10.215   6.495
  138POPC   C4B 2149   3.275  10.400   6.103
  139POPC   NC3 2150  11.228  10.271   8.506
  139POPC   PO4 2151  10.834  10.178   8.032
  139POPC   GL1 2152  11.205  10.113   7.730
  139POPC   GL2 2153  11.379  10.425   7.696
  139POPC   C1A 2154  11.269  10.140   7.258
  139POPC   D2A 2155  10.919  10.202   6.936
  139POPC   C3A 2156  10.954  10.109   6.488
  139POPC   C4A 2157  10.983  10.199   6.012
  139POPC   C1B 2158  11.267  10.660   7.304
  139POPC   C2B 2159  11.303  10.553   6.870
  139POPC   C3B 2160  11.284  10.482   6.434
  139POPC   C4B 2161  11.416  10.108   6.248
  140POPC   NC3 2162   3.373   2.056   8.095
  140POPC   PO4 2163   3.447   1.496   8.060
  140POPC   GL1 2164   3.314   1.763   7.674
  140POPC   GL2 2165   3.330   2.171   7.599
  140POPC   C1A 2166   3.390   1.773   7.233
  140POPC   D2A 2167   3.527   1.623   6.863
  140POPC   C3A 2168   3.305   1.715   6.490
  140POPC   C4A 2169   3.176   1.550   6.072
  140POPC   C1B 2170   3.733   2.030   7.503
  140POPC   C2B 2171   3.890   1.878   7.101
  140POPC   C3B 2172   3.802   1.951   6.608
  140POPC   C4B 2173   3.511   2.117   6.252
  141POPC   NC3 2174   2.813   3.790   7.985
  141POPC   PO4 2175   3.243   3.230   8.047
  141POPC   GL1 2176   2.986   3.178   7.699
  141POPC   GL2 2177   2.633   3.318   7.694
  141POPC   C1A 2178   3.047   3.383   7.318
  141POPC   D2A 2179   3.263   3.288   6.928
  141POPC   C3A 2180   3.053   3.421   6.552
  141POPC   C4A 2181   2.964   3.244   6.155
  141POPC   C1B 2182   2.468   3.500   7.293
  141POPC   C2B 2183   2.297   3.472   6.855
  141POPC   C3B 2184   2.515   3.443   6.436
  141POPC   C4B 2185   2.812   3.794   6.270
  142POPC   NC3 2186   8.790   9.998   8.041
  142POPC   PO4 2187   9.100   9.426   8.332
  142POPC   GL1 2188   9.128   9.736   7.828
  142POPC   GL2 2189   8.850   9.592   7.626
  142POPC   C1A 2190   9.225   9.771   7.360
  142POPC   D2A 2191   9.297   9.518   6.986
  142POPC   C3A 2192   9.224   9.456   6.569
  142POPC   C4A 2193   9.268   9.783   6.336
  142POPC   C1B 2194   8.763   9.715   7.162
  142POPC   C2B 2195   8.917   9.812   6.767
  142POPC   C3B 2196   8.788   9.666   6.360
  142POPC   C4B 2197   8.486   9.893   6.122
  143POPC   NC3 2198   7.211  10.949   8.219
  143POPC   PO4 2199   7.464  11.388   7.822
  143POPC   GL1 2200   7.469  11.076   7.608
  143POPC   GL2 2201   7.159  10.948   7.683
  143POPC   C1A 2202   7.627  11.217   7.208
  143POPC   D2A 2203   7.560   0.029   6.897
  143POPC   C3A 2204   7.632  11.325   6.524
  143POPC   C4A 2205   7.475  11.286   6.141
  143POPC   C1B 2206   7.117  11.175   7.258
  143POPC   C2B 2207   7.273  11.112   6.863
  143POPC   C3B 2208   7.213  10.998   6.486
  143POPC   C4B 2209   6.991  11.152   6.144
  144POPC   NC3 2210   8.645   2.405   8.013
  144POPC   PO4 2211   9.107   2.880   8.139
  144POPC   GL1 2212   9.104   2.805   7.714
  144POPC   GL2 2213   8.764   2.820   7.705
  144POPC   C1A 2214   9.145   2.737   7.274
  144POPC   D2A 2215   8.870   2.639   6.874
  144POPC   C3A 2216   9.020   2.666   6.451
  144POPC   C4A 2217   9.032   3.026   6.166
  144POPC   C1B 2218   8.638   2.624   7.326
  144POPC   C2B 2219   8.391   2.489   6.949
  144POPC   C3B 2220   8.535   2.475   6.521
  144POPC   C4B 2221   8.572   2.779   6.206
  145POPC   NC3 2222  11.327   1.043   8.338
  145POPC   PO4 2223  10.739   1.014   8.000
  145POPC   GL1 2224  11.028   0.900   7.696
  145POPC   GL2 2225  11.378   1.043   7.729
  145POPC   C1A 2226  10.870   0.891   7.279
  145POPC   D2A 2227  10.705   1.009   6.893
  145POPC   C3A 2228  11.001   0.856   6.592
  145POPC   C4A 2229  11.091   1.010   6.205
  145POPC   C1B 2230  11.329   1.092   7.283
  145POPC   C2B 2231  11.215   1.263   6.867
  145POPC   C3B 2232  11.260   1.444   6.442
  145POPC   C4B 2233  11.395   1.387   5.985
  146POPC   NC3 2234   5.085   0.088   7.889
  146POPC   PO4 2235   4.769   0.699   8.020
  146POPC   GL1 2236   4.777   0.649   7.604
  146POPC   GL2 2237   5.068   0.515   7.649
  146POPC   C1A 2238   4.850   0.527   7.201
  146POPC   D2A 2239   4.808   0.159   7.013
  146POPC   C3A 2240   4.814   0.340   6.628
  146POPC   C4A 2241   4.984   0.247   6.253
  146POPC   C1B 2242   5.325   0.396   7.325
  146POPC   C2B 2243   5.362   0.628   6.970
  146POPC   C3B 2244   5.351   0.499   6.573
  146POPC   C4B 2245   5.312   0.614   6.172
  147POPC   NC3 2246   5.219   7.674   8.523
  147POPC   PO4 2247   5.282   7.777   8.068
  147POPC   GL1 2248   5.173   7.827   7.601
  147POPC   GL2 2249   4.944   8.111   7.497
  147POPC   C1A 2250   5.231   7.897   7.135
  147POPC   D2A 2251   5.010   8.059   6.770
  147POPC   C3A 2252   5.229   8.118   6.379
  147POPC   C4A 2253   5.004   8.036   5.987
  147POPC   C1B 2254   5.034   8.421   7.145
  147POPC   C2B 2255   4.988   8.581   6.714
  147POPC   C3B 2256   4.890   8.492   6.302
  147POPC   C4B 2257   5.133   8.547   5.929
  148POPC   NC3 2258   0.780  11.153   8.159
  148POPC   PO4 2259   0.162  11.351   8.061
  148POPC   GL1 2260   0.220  11.470   7.657
  148POPC   GL2 2261   0.544  11.321   7.692
  148POPC   C1A 2262   0.232  11.246   7.252
  148POPC   D2A 2263   0.129  11.014   6.868
  148POPC   C3A 2264   0.234  11.220   6.500
  148POPC   C4A 2265   0.206  11.427   6.090
  148POPC   C1B 2266   0.605  10.930   7.405
  148POPC   C2B 2267   0.628  11.010   6.951
  148POPC   C3B 2268   0.624  10.841   6.532
  148POPC   C4B 2269   0.589  11.106   6.173
  149POPC   NC3 2270   0.851   5.539   7.679
  149POPC   PO4 2271   0.974   4.959   7.978
  149POPC   GL1 2272   1.062   5.093   7.596
  149POPC   GL2 2273   1.372   5.157   7.644
  149POPC   C1A 2274   1.141   5.192   7.173
  149POPC   D2A 2275   0.980   5.017   6.844
  149POPC   C3A 2276   0.936   5.372   6.657
  149POPC   C4A 2277   1.038   5.265   6.277
  149POPC   C1B 2278   1.520   4.894   7.337
  149POPC   C2B 2279   1.453   4.812   6.947
  149POPC   C3B 2280   1.421   5.072   6.593
  149POPC   C4B 2281   1.355   4.894   6.205
  150POPC   NC3 2282   1.089   4.224   8.016
  150POPC   PO4 2283   1.664   4.674   7.919
  150POPC   GL1 2284   1.267   4.620   7.694
  150POPC   GL2 2285   1.185   4.296   7.531
  150POPC   C1A 2286   1.052   4.698   7.275
  150POPC   D2A 2287   1.070   4.431   6.932
  150POPC   C3A 2288   1.286   4.526   6.565
  150POPC   C4A 2289   1.187   4.421   6.159
  150POPC   C1B 2290   0.875   4.099   7.286
  150POPC   C2B 2291   0.896   3.952   6.868
  150POPC   C3B 2292   0.821   4.178   6.484
  150POPC   C4B 2293   0.888   4.025   6.076
  151POPC   NC3 2294   0.412   0.991   7.904
  151POPC   PO4 2295   0.804   1.509   8.098
  151POPC   GL1 2296   0.718   1.371   7.714
  151POPC   GL2 2297   0.355   1.447   7.642
  151POPC   C1A 2298   0.783   1.359   7.293
  151POPC   D2A 2299   0.691   1.075   6.919
  151POPC   C3A 2300   0.584   1.255   6.547
  151POPC   C4A 2301   0.785   1.423   6.154
  151POPC   C1B 2302   0.326   1.153   7.271
  151POPC   C2B 2303   0.165   0.985   6.868
  151POPC   C3B 2304   0.077   1.016   6.430
  151POPC   C4B 2305   0.391   1.080   6.111
  152POPC   NC3 2306   0.400   1.809   8.047
  152POPC   PO4 2307  11.490   2.394   8.090
  152POPC   GL1 2308   0.042   2.238   7.653
  152POPC   GL2 2309   0.249   1.971   7.614
  152POPC   C1A 2310   0.304   2.295   7.250
  152POPC   D2A 2311   0.384   2.091   6.885
  152POPC   C3A 2312   0.518   2.241   6.528
  152POPC   C4A 2313   0.372   2.331   6.151
  152POPC   C1B 2314   0.544   1.820   7.318
  152POPC   C2B 2315   0.507   1.595   6.928
  152POPC   C3B 2316   0.640   1.752   6.524
  152POPC   C4B 2317   0.565   1.887   6.085
  153POPC   NC3 2318   9.482   6.284   8.030
  153POPC   PO4 2319   9.259   6.878   8.157
  153POPC   GL1 2320   9.474   6.738   7.748
  153POPC   GL2 2321   9.800   6.593   7.722
  153POPC   C1A 2322   9.494   6.556   7.289
  153POPC   D2A 2323   9.512   6.752   6.849
  153POPC   C3A 2324   9.457   6.538   6.428
  153POPC   C4A 2325   9.127   6.331   6.242
  153POPC   C1B 2326   9.995   6.423   7.369
  153POPC   C2B 2327   9.971   6.583   6.998
  153POPC   C3B 2328   9.914   6.465   6.621
  153POPC   C4B 2329  10.041   6.660   6.291
  154POPC   NC3 2330   2.620   8.759   8.016
  154POPC   PO4 2331   3.071   9.271   8.051
  154POPC   GL1 2332   2.764   9.154   7.692
  154POPC   GL2 2333   2.792   8.841   7.547
  154POPC   C1A 2334   2.538   9.133   7.254
  154POPC   D2A 2335   2.696   8.971   6.854
  154POPC   C3A 2336   2.575   9.163   6.444
  154POPC   C4A 2337   2.429   9.330   5.971
  154POPC   C1B 2338   2.603   8.593   7.214
  154POPC   C2B 2339   2.684   8.463   6.782
  154POPC   C3B 2340   2.707   8.666   6.402
  154POPC   C4B 2341   2.637   8.886   6.024
  155POPC   NC3 2342   0.212   7.348   8.143
  155POPC   PO4 2343  11.033   7.226   8.213
  155POPC   GL1 2344  11.292   7.216   7.811
  155POPC   GL2 2345  11.098   7.404   7.591
  155POPC   C1A 2346   0.019   7.240   7.363
  155POPC   D2A 2347  11.459   7.151   6.885
  155POPC   C3A 2348   0.017   7.513   6.583
  155POPC   C4A 2349  11.499   7.701   6.159
  155POPC   C1B 2350  11.047   7.138   7.197
  155POPC   C2B 2351  10.829   7.192   6.817
  155POPC   C3B 2352  10.980   7.314   6.421
  155POPC   C4B 2353  11.346   7.208   6.222
  156POPC   NC3 2354  10.169   4.284   8.007
  156POPC   PO4 2355  10.734   4.615   8.056
  156POPC   GL1 2356  10.515   4.445   7.654
  156POPC   GL2 2357  10.495   4.055   7.683
  156POPC   C1A 2358  10.238   4.526   7.262
  156POPC   D2A 2359   9.995   4.282   6.955
  156POPC   C3A 2360  10.128   4.424   6.548
  156POPC   C4A 2361  10.031   4.454   6.140
  156POPC   C1B 2362  10.512   4.116   7.255
  156POPC   C2B 2363  10.502   4.244   6.847
  156POPC   C3B 2364  10.673   3.982   6.503
  156POPC   C4B 2365  10.466   4.202   6.196
  157POPC   NC3 2366  10.349  11.243   8.083
  157POPC   PO4 2367   9.731  11.402   8.141
  157POPC   GL1 2368   9.960  11.167   7.772
  157POPC   GL2 2369  10.239  11.360   7.603
  157POPC   C1A 2370   9.969  11.026   7.326
  157POPC   D2A 2371  10.123  11.304   6.969
  157POPC   C3A 2372  10.113  11.133   6.531
  157POPC   C4A 2373  10.214  11.280   6.119
  157POPC   C1B 2374  10.482  11.083   7.329
  157POPC   C2B 2375  10.646  11.175   6.933
  157POPC   C3B 2376  10.818  11.267   6.548
  157POPC   C4B 2377  10.598  11.018   6.298
  158POPC   NC3 2378   1.357  11.080   8.038
  158POPC   PO4 2379   0.837   0.083   8.045
  158POPC   GL1 2380   1.134  11.426   7.727
  158POPC   GL2 2381   1.002  11.098   7.674
  158POPC   C1A 2382   1.359  11.225   7.343
  158POPC   D2A 2383   1.138  11.056   6.968
  158POPC   C3A 2384   1.319  11.111   6.587
  158POPC   C4A 2385   1.584  11.237   6.262
  158POPC   C1B 2386   0.855  11.361   7.297
  158POPC   C2B 2387   0.778   0.031   6.901
  158POPC   C3B 2388   0.857  11.302   6.541
  158POPC   C4B 2389   1.081  11.078   6.153
  159POPC   NC3 2390   0.228   9.667   8.048
  159POPC   PO4 2391   0.808   9.321   8.150
  159POPC   GL1 2392   0.499   9.332   7.793
  159POPC   GL2 2393   0.534   9.679   7.657
  159POPC   C1A 2394   0.330   9.326   7.356
  159POPC   D2A 2395   0.680   9.399   7.046
  159POPC   C3A 2396   0.841   9.372   6.627
  159POPC   C4A 2397   0.819   9.241   6.217
  159POPC   C1B 2398   0.209   9.818   7.352
  159POPC   C2B 2399   0.212   9.591   6.934
  159POPC   C3B 2400   0.459   9.697   6.572
  159POPC   C4B 2401   0.396   9.992   6.246
  160POPC   NC3 2402   9.814   5.729   8.006
  160POPC   PO4 2403   9.162   5.962   7.972
  160POPC   GL1 2404   9.510   5.932   7.641
  160POPC   GL2 2405   9.732   5.642   7.534
  160POPC   C1A 2406   9.639   6.041   7.222
  160POPC   D2A 2407   9.494   6.236   6.856
  160POPC   C3A 2408   9.514   6.021   6.470
  160POPC   C4A 2409   9.307   5.711   6.217
  160POPC   C1B 2410   9.867   5.472   7.182
  160POPC   C2B 2411   9.750   5.686   6.832
  160POPC   C3B 2412   9.736   5.529   6.446
  160POPC   C4B 2413   9.827   5.790   6.121
  161POPC   NC3 2414   6.213  10.125   8.049
  161POPC   PO4 2415   5.952  10.702   8.125
  161POPC   GL1 2416   6.060  10.520   7.735
  161POPC   GL2 2417   5.822  10.791   7.603
  161POPC   C1A 2418   6.065  10.147   7.428
  161POPC   D2A 2419   6.092  10.334   7.041
  161POPC   C3A 2420   6.138  10.167   6.679
  161POPC   C4A 2421   5.981  10.290   6.331
  161POPC   C1B 2422   5.684  10.478   7.373
  161POPC   C2B 2423   5.573  10.311   7.011
  161POPC   C3B 2424   5.583  10.428   6.632
  161POPC   C4B 2425   5.490  10.284   6.258
  162POPC   NC3 2426   4.347   2.275   8.028
  162POPC   PO4 2427   4.537   1.669   8.081
  162POPC   GL1 2428   4.415   1.589   7.666
  162POPC   GL2 2429   4.195   1.890   7.682
  162POPC   C1A 2430   4.408   1.809   7.235
  162POPC   D2A 2431   4.303   1.888   6.810
  162POPC   C3A 2432   4.563   2.038   6.464
  162POPC   C4A 2433   4.413   1.946   6.045
  162POPC   C1B 2434   4.166   2.237   7.364
  162POPC   C2B 2435   4.030   2.319   6.948
  162POPC   C3B 2436   4.138   2.320   6.530
  162POPC   C4B 2437   4.002   2.221   6.140
  163POPC   NC3 2438   8.917   5.586   8.048
  163POPC   PO4 2439   9.475   5.437   8.088
  163POPC   GL1 2440   9.283   5.450   7.666
  163POPC   GL2 2441   9.041   5.704   7.556
  163POPC   C1A 2442   9.356   5.573   7.190
  163POPC   D2A 2443   9.249   5.651   6.730
  163POPC   C3A 2444   8.910   5.473   6.420
  163POPC   C4A 2445   8.940   5.437   5.946
  163POPC   C1B 2446   9.125   6.033   7.225
  163POPC   C2B 2447   9.002   6.096   6.773
  163POPC   C3B 2448   8.810   5.977   6.383
  163POPC   C4B 2449   8.667   6.266   6.045
  164POPC   NC3 2450   7.827   2.974   7.931
  164POPC   PO4 2451   8.190   2.486   8.078
  164POPC   GL1 2452   7.937   2.357   7.689
  164POPC   GL2 2453   7.847   2.653   7.557
  164POPC   C1A 2454   7.952   2.341   7.191
  164POPC   D2A 2455   7.944   2.696   6.835
  164POPC   C3A 2456   8.083   2.649   6.389
  164POPC   C4A 2457   8.017   2.328   6.089
  164POPC   C1B 2458   8.173   2.824   7.285
  164POPC   C2B 2459   8.409   2.989   6.895
  164POPC   C3B 2460   8.278   3.122   6.450
  164POPC   C4B 2461   8.262   3.109   5.955
  165POPC   NC3 2462   1.150   0.411   7.960
  165POPC   PO4 2463   1.587   0.898   7.987
  165POPC   GL1 2464   1.508   0.671   7.579
  165POPC   GL2 2465   1.141   0.638   7.513
  165POPC   C1A 2466   1.438   0.618   7.099
  165POPC   D2A 2467   1.015   0.500   6.897
  165POPC   C3A 2468   1.096   0.572   6.464
  165POPC   C4A 2469   1.520   0.582   6.401
  165POPC   C1B 2470   1.218   0.222   7.308
  165POPC   C2B 2471   1.312   0.049   6.881
  165POPC   C3B 2472   1.272   0.104   6.431
  165POPC   C4B 2473   0.873   0.179   6.201
  166POPC   NC3 2474   9.563   2.777   8.155
  166POPC   PO4 2475  10.141   2.601   7.961
  166POPC   GL1 2476   9.894   2.847   7.668
  166POPC   GL2 2477   9.595   2.635   7.665
  166POPC   C1A 2478   9.716   2.844   7.229
  166POPC   D2A 2479   9.855   2.550   6.951
  166POPC   C3A 2480  10.111   2.769   6.686
  166POPC   C4A 2481   9.968   2.690   6.277
  166POPC   C1B 2482   9.504   2.361   7.310
  166POPC   C2B 2483   9.345   2.469   6.905
  166POPC   C3B 2484   9.444   2.818   6.708
  166POPC   C4B 2485   9.474   2.817   6.268
  167POPC   NC3 2486  10.445   8.462   7.830
  167POPC   PO4 2487  10.039   8.852   8.290
  167POPC   GL1 2488  10.125   8.929   7.793
  167POPC   GL2 2489  10.246   9.257   7.726
  167POPC   C1A 2490  10.177   8.755   7.320
  167POPC   D2A 2491  10.406   8.596   6.932
  167POPC   C3A 2492  10.307   8.807   6.540
  167POPC   C4A 2493  10.392   8.671   6.127
  167POPC   C1B 2494  10.067   9.259   7.319
  167POPC   C2B 2495  10.295   9.123   6.961
  167POPC   C3B 2496  10.637   9.193   6.684
  167POPC   C4B 2497  10.610   9.157   6.233
  168POPC   NC3 2498   1.604   1.192   3.948
  168POPC   PO4 2499   0.959   0.945   3.949
  168POPC   GL1 2500   1.213   1.126   4.245
  168POPC   GL2 2501   1.037   1.387   4.399
  168POPC   C1A 2502   1.453   1.126   4.625
  168POPC   D2A 2503   1.334   1.184   5.071
  168POPC   C3A 2504   1.616   1.391   5.375
  168POPC   C4A 2505   1.657   0.976   5.612
  168POPC   C1B 2506   0.914   0.999   4.642
  168POPC   C2B 2507   0.869   0.891   5.084
  168POPC   C3B 2508   1.130   0.909   5.471
  168POPC   C4B 2509   1.191   1.352   5.645
  169POPC   NC3 2510  10.877   3.450   3.845
  169POPC   PO4 2511  10.209   3.451   3.831
  169POPC   GL1 2512  10.206   3.688   4.225
  169POPC   GL2 2513  10.577   3.707   4.247
  169POPC   C1A 2514  10.100   3.520   4.645
  169POPC   D2A 2515  10.221   3.229   5.009
  169POPC   C3A 2516   9.972   3.220   5.387
  169POPC   C4A 2517  10.114   3.337   5.781
  169POPC   C1B 2518  10.583   3.561   4.706
  169POPC   C2B 2519  10.388   3.712   5.119
  169POPC   C3B 2520  10.405   3.710   5.593
  169POPC   C4B 2521  10.703   3.829   5.944
  170POPC   NC3 2522   9.689   5.717   3.703
  170POPC   PO4 2523   9.309   5.334   3.952
  170POPC   GL1 2524   9.631   5.473   4.194
  170POPC   GL2 2525   9.616   5.822   4.243
  170POPC   C1A 2526   9.693   5.469   4.622
  170POPC   D2A 2527   9.455   5.432   4.979
  170POPC   C3A 2528   9.639   5.616   5.336
  170POPC   C4A 2529   9.525   5.644   5.750
  170POPC   C1B 2530   9.789   5.965   4.700
  170POPC   C2B 2531   9.844   6.050   5.156
  170POPC   C3B 2532   9.554   6.188   5.505
  170POPC   C4B 2533   9.475   6.114   5.945
  171POPC   NC3 2534   3.707  10.264   3.974
  171POPC   PO4 2535   3.960  10.829   4.012
  171POPC   GL1 2536   3.743  10.641   4.340
  171POPC   GL2 2537   3.378  10.634   4.287
  171POPC   C1A 2538   3.894  10.633   4.758
  171POPC   D2A 2539   3.909  10.810   5.150
  171POPC   C3A 2540   3.850  10.503   5.493
  171POPC   C4A 2541   3.768  10.312   5.909
  171POPC   C1B 2542   3.449  10.378   4.685
  171POPC   C2B 2543   3.452  10.529   5.123
  171POPC   C3B 2544   3.345  10.373   5.541
  171POPC   C4B 2545   3.360  10.017   5.772
  172POPC   NC3 2546  10.504   2.120   4.058
  172POPC   PO4 2547   9.869   1.960   4.079
  172POPC   GL1 2548  10.088   2.199   4.385
  172POPC   GL2 2549  10.282   1.907   4.469
  172POPC   C1A 2550  10.314   2.285   4.793
  172POPC   D2A 2551  10.391   2.034   5.159
  172POPC   C3A 2552  10.315   2.327   5.500
  172POPC   C4A 2553  10.449   2.318   5.930
  172POPC   C1B 2554  10.561   1.624   4.704
  172POPC   C2B 2555  10.548   1.472   5.118
  172POPC   C3B 2556  10.523   1.611   5.540
  172POPC   C4B 2557  10.220   1.890   5.743
  173POPC   NC3 2558  10.127  11.187   3.914
  173POPC   PO4 2559  10.684  10.676   3.822
  173POPC   GL1 2560  10.502  10.925   4.229
  173POPC   GL2 2561  10.380  11.276   4.353
  173POPC   C1A 2562  10.352  10.912   4.694
  173POPC   D2A 2563  10.123  10.831   5.087
  173POPC   C3A 2564  10.394  10.772   5.423
  173POPC   C4A 2565  10.551  10.908   5.799
  173POPC   C1B 2566  10.193  11.459   4.730
  173POPC   C2B 2567  10.036  11.365   5.146
  173POPC   C3B 2568  10.144   0.130   5.505
  173POPC   C4B 2569  10.479  11.449   5.724
  174POPC   NC3 2570   6.405  11.404   3.904
  174POPC   PO4 2571   7.084  11.444   4.031
  174POPC   GL1 2572   6.756  11.314   4.269
  174POPC   GL2 2573   6.748  10.961   4.326
  174POPC   C1A 2574   6.491  11.336   4.609
  174POPC   D2A 2575   6.617  11.322   5.052
  174POPC   C3A 2576   6.369  11.496   5.381
  174POPC   C4A 2577   6.229  11.373   5.789
  174POPC   C1B 2578   6.603  10.864   4.764
  174POPC   C2B 2579   6.302  10.884   5.124
  174POPC   C3B 2580   6.474  10.948   5.535
  174POPC   C4B 2581   6.871  10.879   5.735
  175POPC   NC3 2582   2.992   9.831   4.012
  175POPC   PO4 2583   3.602   9.878   3.747
  175POPC   GL1 2584   3.672   9.795   4.205
  175POPC   GL2 2585   3.397   9.568   4.237
  175POPC   C1A 2586   3.758   9.955   4.656
  175POPC   D2A 2587   3.550   9.976   5.095
  175POPC   C3A 2588   3.801   9.949   5.498
  175POPC   C4A 2589   3.797   9.800   5.937
  175POPC   C1B 2590   3.434   9.555   4.692
  175POPC   C2B 2591   3.301   9.496   5.123
  175POPC   C3B 2592   3.459   9.566   5.529
  175POPC   C4B 2593   3.373   9.532   5.977
  176POPC   NC3 2594  10.505   7.943   3.913
  176POPC   PO4 2595  10.707   8.577   4.011
  176POPC   GL1 2596  10.450   8.407   4.350
  176POPC   GL2 2597  10.435   8.049   4.404
  176POPC   C1A 2598  10.413   8.314   4.814
  176POPC   D2A 2599  10.662   8.099   5.120
  176POPC   C3A 2600  10.486   8.358   5.402
  176POPC   C4A 2601  10.203   8.489   5.677
  176POPC   C1B 2602  10.343   7.797   4.797
  176POPC   C2B 2603  10.188   7.913   5.185
  176POPC   C3B 2604  10.237   7.960   5.608
  176POPC   C4B 2605  10.199   7.700   5.997
  177POPC   NC3 2606   9.575   2.255   4.274
  177POPC   PO4 2607   9.601   2.916   3.956
  177POPC   GL1 2608   9.491   2.757   4.289
  177POPC   GL2 2609   9.869   2.674   4.323
  177POPC   C1A 2610   9.439   2.810   4.712
  177POPC   D2A 2611   9.342   3.031   5.060
  177POPC   C3A 2612   9.498   2.921   5.415
  177POPC   C4A 2613   9.298   2.925   5.778
  177POPC   C1B 2614   9.880   2.549   4.745
  177POPC   C2B 2615   9.876   2.807   5.069
  177POPC   C3B 2616   9.964   2.701   5.462
  177POPC   C4B 2617   9.742   2.677   5.831
  178POPC   NC3 2618  10.810   0.401   3.762
  178POPC   PO4 2619  11.287   0.184   4.171
  178POPC   GL1 2620  11.286   0.569   4.405
  178POPC   GL2 2621   0.132   0.617   4.342
  178POPC   C1A 2622  11.043   0.551   4.823
  178POPC   D2A 2623  10.944   0.177   5.103
  178POPC   C3A 2624  11.067   0.259   5.547
  178POPC   C4A 2625  11.051   0.673   5.743
  178POPC   C1B 2626   0.118   0.371   4.736
  178POPC   C2B 2627  11.436   0.445   5.116
  178POPC   C3B 2628   0.044   0.475   5.497
  178POPC   C4B 2629  11.487   0.322   5.858
  179POPC   NC3 2630   6.648   9.551   3.858
  179POPC   PO4 2631   6.178   9.931   3.804
  179POPC   GL1 2632   6.373   9.870   4.216
  179POPC   GL2 2633   6.638   9.647   4.365
  179POPC   C1A 2634   6.369   9.995   4.669
  179POPC   D2A 2635   6.423   9.786   5.054
  179POPC   C3A 2636   6.263   9.840   5.467
  179POPC   C4A 2637   6.379   9.531   5.795
  179POPC   C1B 2638   6.858   9.840   4.732
  179POPC   C2B 2639   6.876  10.011   5.145
  179POPC   C3B 2640   6.763   9.796   5.528
  179POPC   C4B 2641   6.681   9.902   5.948
  180POPC   NC3 2642   9.338   8.982   3.812
  180POPC   PO4 2643  10.041   9.038   3.756
  180POPC   GL1 2644   9.727   9.180   4.126
  180POPC   GL2 2645   9.526   8.888   4.284
  180POPC   C1A 2646   9.605   9.294   4.586
  180POPC   D2A 2647   9.784   9.173   5.003
  180POPC   C3A 2648   9.604   9.212   5.414
  180POPC   C4A 2649   9.677   9.109   5.824
  180POPC   C1B 2650   9.480   8.823   4.739
  180POPC   C2B 2651   9.306   8.856   5.149
  180POPC   C3B 2652   9.353   8.778   5.591
  180POPC   C4B 2653   9.735   8.607   5.730
  181POPC   NC3 2654  11.215   8.406   4.105
  181POPC   PO4 2655  10.912   7.901   3.728
  181POPC   GL1 2656  10.947   7.953   4.191
  181POPC   GL2 2657  11.282   7.896   4.215
  181POPC   C1A 2658  10.914   8.108   4.653
  181POPC   D2A 2659  11.173   8.195   5.058
  181POPC   C3A 2660  10.979   8.326   5.482
  181POPC   C4A 2661  10.718   8.341   5.870
  181POPC   C1B 2662  11.340   7.772   4.645
  181POPC   C2B 2663  11.136   7.633   5.022
  181POPC   C3B 2664  11.051   7.822   5.426
  181POPC   C4B 2665  11.409   7.935   5.699
  182POPC   NC3 2666   5.722  10.928   3.952
  182POPC   PO4 2667   6.335  11.021   3.643
  182POPC   GL1 2668   6.226  10.949   4.131
  182POPC   GL2 2669   6.032  11.269   4.233
  182POPC   C1A 2670   6.132  10.970   4.612
  182POPC   D2A 2671   6.090  11.329   4.945
  182POPC   C3A 2672   5.941  11.216   5.367
  182POPC   C4A 2673   5.996  10.924   5.702
  182POPC   C1B 2674   5.718  11.265   4.599
  182POPC   C2B 2675   5.550  11.308   5.035
  182POPC   C3B 2676   5.472  11.439   5.467
  182POPC   C4B 2677   5.690  11.335   5.845
  183POPC   NC3 2678   1.136   8.151   3.799
  183POPC   PO4 2679   1.721   8.393   4.016
  183POPC   GL1 2680   1.405   8.256   4.270
  183POPC   GL2 2681   1.089   8.130   4.311
  183POPC   C1A 2682   1.454   8.071   4.681
  183POPC   D2A 2683   1.301   8.182   5.088
  183POPC   C3A 2684   1.356   7.938   5.451
  183POPC   C4A 2685   1.495   8.145   5.820
  183POPC   C1B 2686   0.955   8.020   4.735
  183POPC   C2B 2687   0.793   8.170   5.146
  183POPC   C3B 2688   0.908   8.147   5.557
  183POPC   C4B 2689   1.018   7.898   5.892
  184POPC   NC3 2690  11.009  10.951   4.036
  184POPC   PO4 2691  10.626   0.030   3.996
  184POPC   GL1 2692  10.896  11.341   4.344
  184POPC   GL2 2693  11.259  11.224   4.384
  184POPC   C1A 2694  10.812  11.185   4.743
  184POPC   D2A 2695  10.566  11.263   5.127
  184POPC   C3A 2696  10.882  11.285   5.457
  184POPC   C4A 2697  10.905  11.241   5.919
  184POPC   C1B 2698  11.298  11.428   4.805
  184POPC   C2B 2699  11.390  11.458   5.250
  184POPC   C3B 2700  11.369  11.355   5.673
  184POPC   C4B 2701  11.374  11.047   5.960
  185POPC   NC3 2702   2.023  11.076   3.851
  185POPC   PO4 2703   2.581  10.559   3.833
  185POPC   GL1 2704   2.308  10.665   4.246
  185POPC   GL2 2705   2.087  10.960   4.335
  185POPC   C1A 2706   2.350  10.780   4.718
  185POPC   D2A 2707   2.245  11.094   5.024
  185POPC   C3A 2708   2.078  10.990   5.392
  185POPC   C4A 2709   2.213  11.062   5.751
  185POPC   C1B 2710   1.848  11.092   4.698
  185POPC   C2B 2711   1.688  11.173   5.075
  185POPC   C3B 2712   1.583  11.052   5.448
  185POPC   C4B 2713   1.753  11.288   5.770
  186POPC   NC3 2714   3.624   2.880   3.831
  186POPC   PO4 2715   2.945   3.106   3.988
  186POPC   GL1 2716   3.321   2.969   4.259
  186POPC   GL2 2717   3.353   2.592   4.237
  186POPC   C1A 2718   3.381   2.805   4.725
  186POPC   D2A 2719   3.248   2.828   5.191
  186POPC   C3A 2720   3.583   2.844   5.545
  186POPC   C4A 2721   3.787   2.986   5.972
  186POPC   C1B 2722   3.116   2.380   4.617
  186POPC   C2B 2723   3.234   2.299   5.069
  186POPC   C3B 2724   3.233   2.437   5.550
  186POPC   C4B 2725   3.138   2.396   6.037
  187POPC   NC3 2726   9.708   1.533   4.201
  187POPC   PO4 2727   9.289   2.152   3.943
  187POPC   GL1 2728   9.148   1.994   4.380
  187POPC   GL2 2729   9.474   1.838   4.537
  187POPC   C1A 2730   9.065   1.823   4.831
  187POPC   D2A 2731   9.462   1.838   5.099
  187POPC   C3A 2732   9.561   1.738   5.534
  187POPC   C4A 2733   9.508   1.889   5.944
  187POPC   C1B 2734   9.865   1.975   4.802
  187POPC   C2B 2735   9.913   2.236   5.179
  187POPC   C3B 2736   9.808   2.202   5.629
  187POPC   C4B 2737   9.915   2.217   6.070
  188POPC   NC3 2738   2.740   7.347   3.897
  188POPC   PO4 2739   3.008   6.877   3.993
  188POPC   GL1 2740   2.916   7.204   4.371
  188POPC   GL2 2741   2.643   7.467   4.394
  188POPC   C1A 2742   2.881   7.351   4.840
  188POPC   D2A 2743   2.867   7.123   5.248
  188POPC   C3A 2744   2.934   7.323   5.664
  188POPC   C4A 2745   3.007   7.246   6.101
  188POPC   C1B 2746   2.486   7.102   4.646
  188POPC   C2B 2747   2.311   7.118   5.086
  188POPC   C3B 2748   2.449   7.258   5.507
  188POPC   C4B 2749   2.479   7.385   5.970
  189POPC   NC3 2750   8.501  11.326   4.122
  189POPC   PO4 2751   8.401  10.707   3.765
  189POPC   GL1 2752   8.368  10.778   4.217
  189POPC   GL2 2753   8.111  10.982   4.230
  189POPC   C1A 2754   8.364  10.952   4.663
  189POPC   D2A 2755   8.168  11.250   4.948
  189POPC   C3A 2756   8.096  11.126   5.360
  189POPC   C4A 2757   8.291  11.027   5.740
  189POPC   C1B 2758   7.877  11.218   4.527
  189POPC   C2B 2759   7.648  11.299   4.888
  189POPC   C3B 2760   7.579  11.294   5.317
  189POPC   C4B 2761   7.756  11.271   5.717
  190POPC   NC3 2762   5.763   0.166   3.618
  190POPC   PO4 2763   5.288   0.469   3.948
  190POPC   GL1 2764   5.011   0.460   4.334
  190POPC   GL2 2765   4.941   0.114   4.503
  190POPC   C1A 2766   5.139   0.517   4.767
  190POPC   D2A 2767   5.251   0.236   5.059
  190POPC   C3A 2768   5.301   0.439   5.419
  190POPC   C4A 2769   5.099   0.415   5.775
  190POPC   C1B 2770   4.670   0.298   4.743
  190POPC   C2B 2771   4.689   0.528   5.054
  190POPC   C3B 2772   4.722   0.503   5.432
  190POPC   C4B 2773   4.701   0.710   5.795
  191POPC   NC3 2774   4.782   1.758   3.913
  191POPC   PO4 2775   4.798   2.436   3.946
  191POPC   GL1 2776   4.911   2.193   4.317
  191POPC   GL2 2777   5.092   1.871   4.303
  191POPC   C1A 2778   4.735   2.193   4.753
  191POPC   D2A 2779   4.522   2.175   5.161
  191POPC   C3A 2780   4.823   2.266   5.488
  191POPC   C4A 2781   4.840   2.169   5.916
  191POPC   C1B 2782   4.877   1.711   4.685
  191POPC   C2B 2783   4.897   1.834   5.144
  191POPC   C3B 2784   5.083   1.828   5.601
  191POPC   C4B 2785   5.268   1.926   6.033
  192POPC   NC3 2786   4.177   0.231   3.857
  192POPC   PO4 2787   4.697  11.473   4.065
  192POPC   GL1 2788   4.388   0.223   4.344
  192POPC   GL2 2789   4.185   0.533   4.317
  192POPC   C1A 2790   4.166   0.164   4.756
  192POPC   D2A 2791   4.417   0.053   5.124
  192POPC   C3A 2792   4.340   0.167   5.521
  192POPC   C4A 2793   4.643   0.191   5.829
  192POPC   C1B 2794   4.290   0.663   4.751
  192POPC   C2B 2795   4.179   0.534   5.166
  192POPC   C3B 2796   4.239   0.692   5.568
  192POPC   C4B 2797   4.257   0.862   5.993
  193POPC   NC3 2798   1.370   2.165   3.964
  193POPC   PO4 2799   1.661   1.655   3.961
  193POPC   GL1 2800   1.509   1.608   4.354
  193POPC   GL2 2801   1.261   1.885   4.375
  193POPC   C1A 2802   1.340   1.596   4.774
  193POPC   D2A 2803   1.060   1.637   5.124
  193POPC   C3A 2804   1.256   1.894   5.406
  193POPC   C4A 2805   1.452   1.781   5.765
  193POPC   C1B 2806   0.902   1.883   4.680
  193POPC   C2B 2807   0.774   2.090   5.072
  193POPC   C3B 2808   0.960   2.352   5.354
  193POPC   C4B 2809   1.170   2.249   5.759
  194POPC   NC3 2810   5.851   0.517   4.082
  194POPC   PO4 2811   5.613  11.409   3.969
  194POPC   GL1 2812   5.531   0.193   4.371
  194POPC   GL2 2813   5.507   0.571   4.434
  194POPC   C1A 2814   5.703   0.258   4.809
  194POPC   D2A 2815   5.991   0.294   5.170
  194POPC   C3A 2816   5.908   0.221   5.580
  194POPC   C4A 2817   5.602   0.359   5.831
  194POPC   C1B 2818   5.893   0.727   4.674
  194POPC   C2B 2819   6.160   0.743   4.998
  194POPC   C3B 2820   6.072   0.905   5.412
  194POPC   C4B 2821   5.936   0.735   5.802
  195POPC   NC3 2822   4.009   9.684   3.815
  195POPC   PO4 2823   4.679   9.477   4.106
  195POPC   GL1 2824   4.247   9.501   4.214
  195POPC   GL2 2825   4.196   9.838   4.312
  195POPC   C1A 2826   3.949   9.472   4.570
  195POPC   D2A 2827   3.982   9.621   5.011
  195POPC   C3A 2828   4.220   9.359   5.331
  195POPC   C4A 2829   3.964   9.429   5.645
  195POPC   C1B 2830   4.431   9.719   4.721
  195POPC   C2B 2831   4.456   9.770   5.193
  195POPC   C3B 2832   4.495   9.760   5.655
  195POPC   C4B 2833   4.697  10.164   5.783
  196POPC   NC3 2834   2.969   1.814   4.007
  196POPC   PO4 2835   2.472   1.480   3.709
  196POPC   GL1 2836   2.415   1.764   4.211
  196POPC   GL2 2837   2.479   2.089   4.221
  196POPC   C1A 2838   2.283   1.780   4.651
  196POPC   D2A 2839   2.585   1.621   4.963
  196POPC   C3A 2840   2.551   1.767   5.399
  196POPC   C4A 2841   2.745   1.677   5.803
  196POPC   C1B 2842   2.742   1.992   4.592
  196POPC   C2B 2843   2.634   2.124   4.992
  196POPC   C3B 2844   2.841   2.173   5.362
  196POPC   C4B 2845   2.735   2.203   5.773
  197POPC   NC3 2846   7.572  11.413   3.882
  197POPC   PO4 2847   7.250   0.538   3.731
  197POPC   GL1 2848   7.412   0.501   4.207
  197POPC   GL2 2849   7.639   0.218   4.262
  197POPC   C1A 2850   7.225   0.617   4.652
  197POPC   D2A 2851   7.376   0.864   5.016
  197POPC   C3A 2852   7.256   0.739   5.422
  197POPC   C4A 2853   7.023   0.492   5.697
  197POPC   C1B 2854   7.386   0.133   4.607
  197POPC   C2B 2855   7.484   0.278   5.012
  197POPC   C3B 2856   7.386   0.241   5.429
  197POPC   C4B 2857   7.451   0.226   5.849
  198POPC   NC3 2858   1.166   7.645   3.700
  198POPC   PO4 2859   1.530   7.049   3.894
  198POPC   GL1 2860   1.362   7.357   4.193
  198POPC   GL2 2861   1.134   7.176   4.416
  198POPC   C1A 2862   1.444   7.559   4.601
  198POPC   D2A 2863   1.258   7.646   5.014
  198POPC   C3A 2864   1.447   7.365   5.335
  198POPC   C4A 2865   1.500   7.054   5.702
  198POPC   C1B 2866   0.891   7.517   4.628
  198POPC   C2B 2867   0.720   7.659   5.037
  198POPC   C3B 2868   0.919   7.657   5.437
  198POPC   C4B 2869   1.215   7.470   5.757
  199POPC   NC3 2870   0.838   3.712   4.005
  199POPC   PO4 2871   0.549   3.058   3.912
  199POPC   GL1 2872   0.524   3.321   4.291
  199POPC   GL2 2873   0.611   3.650   4.460
  199POPC   C1A 2874   0.420   3.274   4.724
  199POPC   D2A 2875   0.622   3.566   5.012
  199POPC   C3A 2876   0.663   3.354   5.382
  199POPC   C4A 2877   0.404   3.184   5.678
  199POPC   C1B 2878   0.199   3.742   4.668
  199POPC   C2B 2879   0.100   3.550   5.056
  199POPC   C3B 2880   0.256   3.632   5.465
  199POPC   C4B 2881   0.105   3.733   5.844
  200POPC   NC3 2882  10.429   5.792   3.998
  200POPC   PO4 2883   9.989   5.276   3.880
  200POPC   GL1 2884  10.152   5.486   4.291
  200POPC   GL2 2885  10.536   5.536   4.420
  200POPC   C1A 2886  10.179   5.372   4.723
  200POPC   D2A 2887  10.135   5.623   5.077
  200POPC   C3A 2888  10.134   5.523   5.507
  200POPC   C4A 2889   9.959   5.924   5.659
  200POPC   C1B 2890  10.420   5.873   4.716
  200POPC   C2B 2891  10.379   6.053   5.150
  200POPC   C3B 2892  10.463   5.924   5.563
  200POPC   C4B 2893  10.747   6.119   5.834
  201POPC   NC3 2894   8.943   5.604   3.820
  201POPC   PO4 2895   8.462   5.841   4.117
  201POPC   GL1 2896   8.782   5.557   4.330
  201POPC   GL2 2897   9.139   5.588   4.342
  201POPC   C1A 2898   8.910   5.615   4.800
  201POPC   D2A 2899   8.785   5.926   5.140
  201POPC   C3A 2900   8.638   5.764   5.567
  201POPC   C4A 2901   8.522   5.764   6.019
  201POPC   C1B 2902   9.276   5.921   4.612
  201POPC   C2B 2903   9.344   5.954   5.055
  201POPC   C3B 2904   9.162   5.850   5.467
  201POPC   C4B 2905   9.007   5.945   5.875
  202POPC   NC3 2906   6.040   1.490   3.948
  202POPC   PO4 2907   5.711   0.941   4.014
  202POPC   GL1 2908   5.525   1.082   4.386
  202POPC   GL2 2909   5.558   1.418   4.328
  202POPC   C1A 2910   5.465   0.962   4.819
  202POPC   D2A 2911   5.652   0.716   5.159
  202POPC   C3A 2912   5.554   0.949   5.540
  202POPC   C4A 2913   5.380   1.382   5.591
  202POPC   C1B 2914   5.969   1.256   4.552
  202POPC   C2B 2915   5.943   1.195   4.976
  202POPC   C3B 2916   5.838   1.384   5.347
  202POPC   C4B 2917   5.915   1.254   5.767
  203POPC   NC3 2918   7.036   1.419   4.002
  203POPC   PO4 2919   6.952   2.121   3.921
  203POPC   GL1 2920   7.310   1.960   4.218
  203POPC   GL2 2921   7.580   2.187   4.338
  203POPC   C1A 2922   7.481   1.803   4.640
  203POPC   D2A 2923   7.304   1.694   5.043
  203POPC   C3A 2924   7.326   1.732   5.481
  203POPC   C4A 2925   6.986   1.822   5.713
  203POPC   C1B 2926   7.615   2.293   4.795
  203POPC   C2B 2927   7.498   2.155   5.219
  203POPC   C3B 2928   7.281   2.240   5.616
  203POPC   C4B 2929   7.450   2.349   6.005
  204POPC   NC3 2930   8.013   1.479   3.794
  204POPC   PO4 2931   7.942   0.801   3.878
  204POPC   GL1 2932   8.272   0.942   4.160
  204POPC   GL2 2933   8.048   1.206   4.229
  204POPC   C1A 2934   8.463   1.123   4.556
  204POPC   D2A 2935   8.462   0.968   4.996
  204POPC   C3A 2936   8.487   1.216   5.365
  204POPC   C4A 2937   8.429   1.156   5.804
  204POPC   C1B 2938   7.977   1.190   4.658
  204POPC   C2B 2939   8.083   1.372   5.063
  204POPC   C3B 2940   8.018   1.326   5.512
  204POPC   C4B 2941   8.125   1.569   5.841
  205POPC   NC3 2942   8.692   9.208   3.917
  205POPC   PO4 2943   8.996   8.634   3.864
  205POPC   GL1 2944   9.008   8.907   4.241
  205POPC   GL2 2945   8.701   8.993   4.414
  205POPC   C1A 2946   9.102   9.156   4.648
  205POPC   D2A 2947   8.846   9.040   5.011
  205POPC   C3A 2948   8.962   9.093   5.456
  205POPC   C4A 2949   8.659   8.958   5.732
  205POPC   C1B 2950   8.964   8.663   4.689
  205POPC   C2B 2951   8.908   8.519   5.134
  205POPC   C3B 2952   8.913   8.518   5.604
  205POPC   C4B 2953   8.911   8.669   6.041
  206POPC   NC3 2954   4.912  11.167   3.788
  206POPC   PO4 2955   4.265  11.289   3.749
  206POPC   GL1 2956   4.275  11.244   4.230
  206POPC   GL2 2957   4.069  11.042   4.443
  206POPC   C1A 2958   4.478  11.274   4.641
  206POPC   D2A 2959   4.322  11.077   4.982
  206POPC   C3A 2960   4.625  11.081   5.298
  206POPC   C4A 2961   4.641  11.195   5.704
  206POPC   C1B 2962   3.845  11.220   4.762
  206POPC   C2B 2963   3.911  11.394   5.157
  206POPC   C3B 2964   4.138  11.196   5.473
  206POPC   C4B 2965   4.017  10.927   5.802
  207POPC   NC3 2966   0.511  10.792   3.898
  207POPC   PO4 2967   0.731  11.475   4.038
  207POPC   GL1 2968   0.596  11.135   4.267
  207POPC   GL2 2969   0.249  11.115   4.192
  207POPC   C1A 2970   0.690  11.029   4.709
  207POPC   D2A 2971   0.904  11.303   4.996
  207POPC   C3A 2972   0.723  11.193   5.398
  207POPC   C4A 2973   0.794  11.357   5.791
  207POPC   C1B 2974   0.217  11.187   4.627
  207POPC   C2B 2975   0.278  10.980   5.013
  207POPC   C3B 2976   0.215  11.089   5.389
  207POPC   C4B 2977   0.334  11.072   5.751
  208POPC   NC3 2978   8.755  10.461   3.956
  208POPC   PO4 2979   9.379  10.497   3.770
  208POPC   GL1 2980   9.148  10.616   4.284
  208POPC   GL2 2981   8.902  10.388   4.430
  208POPC   C1A 2982   8.834  10.753   4.733
  208POPC   D2A 2983   8.514  10.713   5.096
  208POPC   C3A 2984   8.703  10.774   5.530
  208POPC   C4A 2985   9.094  10.549   5.633
  208POPC   C1B 2986   9.196  10.407   4.765
  208POPC   C2B 2987   8.991  10.447   5.139
  208POPC   C3B 2988   8.655  10.297   5.366
  208POPC   C4B 2989   8.652  10.246   5.792
  209POPC   NC3 2990   5.146   0.036   4.062
  209POPC   PO4 2991   5.328  10.997   3.714
  209POPC   GL1 2992   5.230  11.046   4.198
  209POPC   GL2 2993   4.850  11.065   4.332
  209POPC   C1A 2994   5.206  11.215   4.662
  209POPC   D2A 2995   4.885  11.381   4.977
  209POPC   C3A 2996   4.951   0.012   5.435
  209POPC   C4A 2997   5.130  11.419   5.880
  209POPC   C1B 2998   4.815  10.895   4.791
  209POPC   C2B 2999   5.043  10.805   5.187
  209POPC   C3B 3000   5.180  10.986   5.606
  209POPC   C4B 3001   4.947  10.969   6.040
  210POPC   NC3 3002   0.564  10.171   3.672
  210POPC   PO4 3003  11.472  10.075   3.950
  210POPC   GL1 3004   0.355  10.187   4.235
  210POPC   GL2 3005   0.421  10.493   4.277
  210POPC   C1A 3006   0.279  10.125   4.696
  210POPC   D2A 3007   0.080  10.078   5.124
  210POPC   C3A 3008   0.365  10.201   5.469
  210POPC   C4A 3009   0.332  10.363   5.900
  210POPC   C1B 3010   0.325  10.640   4.641
  210POPC   C2B 3011   0.479  10.498   5.048
  210POPC   C3B 3012   0.552  10.691   5.444
  210POPC   C4B 3013   0.682  10.728   5.860
  211POPC   NC3 3014   2.110   1.721   3.846
  211POPC   PO4 3015   2.237   2.407   3.893
  211POPC   GL1 3016   1.998   2.291   4.249
  211POPC   GL2 3017   1.927   1.956   4.280
  211POPC   C1A 3018   2.128   2.287   4.662
  211POPC   D2A 3019   1.981   2.245   5.071
  211POPC   C3A 3020   2.294   2.231   5.372
  211POPC   C4A 3021   2.192   2.245   5.775
  211POPC   C1B 3022   1.712   1.974   4.672
  211POPC   C2B 3023   1.660   1.832   5.088
  211POPC   C3B 3024   1.849   1.915   5.470
  211POPC   C4B 3025   1.682   2.219   5.700
  212POPC   NC3 3026  10.902   8.856   3.712
  212POPC   PO4 3027  11.462   8.672   3.827
  212POPC   GL1 3028  11.427   8.828   4.265
  212POPC   GL2 3029  11.148   8.998   4.229
  212POPC   C1A 3030  11.277   8.680   4.699
  212POPC   D2A 3031  11.294   8.717   5.133
  212POPC   C3A 3032  11.465   8.431   5.442
  212POPC   C4A 3033  11.212   8.774   5.659
  212POPC   C1B 3034  11.220   9.169   4.659
  212POPC   C2B 3035  11.006   9.141   5.007
  212POPC   C3B 3036  11.081   9.185   5.406
  212POPC   C4B 3037  10.908   9.185   5.801
  213POPC   NC3 3038   7.113  10.961   3.929
  213POPC   PO4 3039   7.846  11.018   3.812
  213POPC   GL1 3040   7.589  10.891   4.165
  213POPC   GL2 3041   7.418  11.181   4.301
  213POPC   C1A 3042   7.540  10.836   4.633
  213POPC   D2A 3043   7.467  10.858   5.076
  213POPC   C3A 3044   7.655  10.803   5.447
  213POPC   C4A 3045   7.440  10.873   5.823
  213POPC   C1B 3046   7.125  11.175   4.631
  213POPC   C2B 3047   7.134  11.359   5.002
  213POPC   C3B 3048   7.080  11.135   5.349
  213POPC   C4B 3049   7.222  11.310   5.705
  214POPC   NC3 3050   4.026   1.422   4.093
  214POPC   PO4 3051   3.369   1.565   3.858
  214POPC   GL1 3052   3.292   1.434   4.277
  214POPC   GL2 3053   3.541   1.173   4.232
  214POPC   C1A 3054   3.542   1.421   4.693
  214POPC   D2A 3055   3.936   1.516   4.945
  214POPC   C3A 3056   3.747   1.523   5.337
  214POPC   C4A 3057   3.518   1.548   5.692
  214POPC   C1B 3058   3.281   0.972   4.550
  214POPC   C2B 3059   3.357   0.862   4.970
  214POPC   C3B 3060   3.335   0.842   5.401
  214POPC   C4B 3061   3.545   1.041   5.695
  215POPC   NC3 3062   9.714   6.647   4.029
  215POPC   PO4 3063  10.055   6.090   3.881
  215POPC   GL1 3064   9.872   6.256   4.294
  215POPC   GL2 3065   9.486   6.338   4.368
  215POPC   C1A 3066   9.833   6.499   4.697
  215POPC   D2A 3067   9.602   6.500   5.099
  215POPC   C3A 3068   9.830   6.679   5.495
  215POPC   C4A 3069   9.851   6.428   5.869
  215POPC   C1B 3070   9.391   6.763   4.646
  215POPC   C2B 3071   9.385   6.949   5.091
  215POPC   C3B 3072   9.336   6.735   5.497
  215POPC   C4B 3073   9.390   6.621   5.918
  216POPC   NC3 3074   4.507   9.043   4.049
  216POPC   PO4 3075   3.928   9.188   3.895
  216POPC   GL1 3076   4.007   9.022   4.303
  216POPC   GL2 3077   4.318   9.100   4.506
  216POPC   C1A 3078   3.903   8.989   4.768
  216POPC   D2A 3079   3.783   9.154   5.184
  216POPC   C3A 3080   4.023   8.927   5.525
  216POPC   C4A 3081   4.139   8.504   5.678
  216POPC   C1B 3082   4.530   8.865   4.796
  216POPC   C2B 3083   4.432   8.856   5.229
  216POPC   C3B 3084   4.558   8.796   5.638
  216POPC   C4B 3085   4.757   8.893   6.009
  217POPC   NC3 3086   1.211   4.298   3.858
  217POPC   PO4 3087   1.702   4.774   4.039
  217POPC   GL1 3088   1.424   4.403   4.301
  217POPC   GL2 3089   1.204   4.018   4.271
  217POPC   C1A 3090   1.163   4.312   4.667
  217POPC   D2A 3091   1.290   4.480   5.012
  217POPC   C3A 3092   1.288   4.400   5.425
  217POPC   C4A 3093   1.451   4.610   5.773
  217POPC   C1B 3094   1.044   3.812   4.671
  217POPC   C2B 3095   1.033   3.923   5.117
  217POPC   C3B 3096   1.023   3.994   5.580
  217POPC   C4B 3097   1.375   4.051   5.893
  218POPC   NC3 3098   1.724   3.667   3.814
  218POPC   PO4 3099   2.228   3.788   4.135
  218POPC   GL1 3100   2.009   3.580   4.378
  218POPC   GL2 3101   2.193   3.290   4.337
  218POPC   C1A 3102   1.955   3.747   4.757
  218POPC   D2A 3103   1.880   3.933   5.131
  218POPC   C3A 3104   1.966   3.690   5.460
  218POPC   C4A 3105   2.126   3.692   5.833
  218POPC   C1B 3106   1.971   3.225   4.756
  218POPC   C2B 3107   2.085   3.225   5.198
  218POPC   C3B 3108   1.965   3.202   5.640
  218POPC   C4B 3109   2.175   3.248   6.035
  219POPC   NC3 3110  10.587   1.132   3.843
  219POPC   PO4 3111   9.946   1.249   3.912
  219POPC   GL1 3112  10.221   1.083   4.273
  219POPC   GL2 3113  10.622   1.101   4.340
  219POPC   C1A 3114  10.305   1.147   4.730
  219POPC   D2A 3115  10.081   1.251   5.099
  219POPC   C3A 3116  10.036   1.640   5.295
  219POPC   C4A 3117   9.986   1.420   5.675
  219POPC   C1B 3118  10.813   1.022   4.741
  219POPC   C2B 3119  10.630   0.966   5.131
  219POPC   C3B 3120  10.420   1.099   5.505
  219POPC   C4B 3121  10.643   1.025   5.893
  220POPC   NC3 3122   8.689   3.581   3.894
  220POPC   PO4 3123   9.257   3.316   3.711
  220POPC   GL1 3124   9.182   3.306   4.193
  220POPC   GL2 3125   8.871   3.411   4.330
  220POPC   C1A 3126   9.255   3.499   4.656
  220POPC   D2A 3127   9.232   3.806   5.041
  220POPC   C3A 3128   9.118   3.565   5.403
  220POPC   C4A 3129   8.983   3.406   5.790
  220POPC   C1B 3130   8.565   3.377   4.671
  220POPC   C2B 3131   8.444   3.255   5.115
  220POPC   C3B 3132   8.531   3.384   5.534
  220POPC   C4B 3133   8.390   3.649   5.876
  221POPC   NC3 3134   0.850   0.508   3.863
  221POPC   PO4 3135   1.425   0.201   3.806
  221POPC   GL1 3136   1.150   0.301   4.197
  221POPC   GL2 3137   1.137   0.623   4.330
  221POPC   C1A 3138   1.033   0.220   4.627
  221POPC   D2A 3139   0.958   0.390   5.020
  221POPC   C3A 3140   0.823   0.185   5.360
  221POPC   C4A 3141   0.989   0.354   5.729
  221POPC   C1B 3142   1.335   0.639   4.753
  221POPC   C2B 3143   1.579   0.585   5.152
  221POPC   C3B 3144   1.594   0.339   5.552
  221POPC   C4B 3145   1.417   0.552   5.905
  222POPC   NC3 3146   1.542   8.817   4.135
  222POPC   PO4 3147   0.881   8.808   3.907
  222POPC   GL1 3148   1.065   8.667   4.281
  222POPC   GL2 3149   1.108   9.017   4.381
  222POPC   C1A 3150   1.244   8.535   4.687
  222POPC   D2A 3151   1.032   8.636   5.089
  222POPC   C3A 3152   1.224   8.530   5.479
  222POPC   C4A 3153   1.383   8.655   5.875
  222POPC   C1B 3154   1.293   9.027   4.793
  222POPC   C2B 3155   1.303   9.051   5.219
  222POPC   C3B 3156   0.988   8.994   5.492
  222POPC   C4B 3157   1.159   9.124   5.848
  223POPC   NC3 3158   9.971   0.619   3.890
  223POPC   PO4 3159   9.715  11.444   3.850
  223POPC   GL1 3160   9.751   0.249   4.200
  223POPC   GL2 3161   9.429   0.313   4.241
  223POPC   C1A 3162   9.684   0.321   4.668
  223POPC   D2A 3163   9.912   0.330   5.015
  223POPC   C3A 3164   9.712   0.396   5.370
  223POPC   C4A 3165   9.817   0.460   5.773
  223POPC   C1B 3166   9.262   0.583   4.552
  223POPC   C2B 3167   9.285   0.475   4.995
  223POPC   C3B 3168   9.301   0.682   5.401
  223POPC   C4B 3169   9.355   0.658   5.807
  224POPC   NC3 3170   8.092   2.946   4.025
  224POPC   PO4 3171   7.888   2.347   3.651
  224POPC   GL1 3172   8.158   2.450   4.056
  224POPC   GL2 3173   7.974   2.496   4.335
  224POPC   C1A 3174   8.456   2.552   4.458
  224POPC   D2A 3175   8.502   2.819   4.852
  224POPC   C3A 3176   8.527   2.729   5.330
  224POPC   C4A 3177   8.382   2.569   5.765
  224POPC   C1B 3178   7.951   2.730   4.706
  224POPC   C2B 3179   8.008   2.968   5.067
  224POPC   C3B 3180   8.064   2.885   5.502
  224POPC   C4B 3181   7.878   2.760   5.893
  225POPC   NC3 3182   7.478   0.902   3.895
  225POPC   PO4 3183   7.587   1.612   3.924
  225POPC   GL1 3184   7.551   1.370   4.334
  225POPC   GL2 3185   7.446   1.009   4.401
  225POPC   C1A 3186   7.512   1.309   4.798
  225POPC   D2A 3187   7.584   1.322   5.234
  225POPC   C3A 3188   7.551   1.123   5.611
  225POPC   C4A 3189   7.610   1.470   5.821
  225POPC   C1B 3190   7.044   1.131   4.688
  225POPC   C2B 3191   6.906   1.366   5.068
  225POPC   C3B 3192   7.089   1.256   5.460
  225POPC   C4B 3193   7.068   0.975   5.835
  226POPC   NC3 3194  10.303   4.903   3.831
  226POPC   PO4 3195  10.770   5.397   3.967
  226POPC   GL1 3196  10.538   5.065   4.249
  226POPC   GL2 3197  10.115   4.986   4.290
  226POPC   C1A 3198  10.618   5.087   4.703
  226POPC   D2A 3199  10.473   5.239   5.107
  226POPC   C3A 3200  10.655   5.281   5.513
  226POPC   C4A 3201  10.424   5.173   5.885
  226POPC   C1B 3202  10.297   4.709   4.569
  226POPC   C2B 3203  10.314   4.761   5.019
  226POPC   C3B 3204  10.241   4.942   5.443
  226POPC   C4B 3205  10.033   4.784   5.770
  227POPC   NC3 3206   2.200   4.233   3.991
  227POPC   PO4 3207   1.606   4.103   3.750
  227POPC   GL1 3208   1.697   3.970   4.239
  227POPC   GL2 3209   1.941   4.127   4.394
  227POPC   C1A 3210   1.606   4.118   4.746
  227POPC   D2A 3211   1.766   4.410   5.145
  227POPC   C3A 3212   1.736   4.181   5.561
  227POPC   C4A 3213   1.883   4.092   6.001
  227POPC   C1B 3214   2.111   4.259   4.761
  227POPC   C2B 3215   2.286   4.217   5.166
  227POPC   C3B 3216   2.237   4.120   5.576
  227POPC   C4B 3217   2.364   4.283   5.966
  228POPC   NC3 3218  11.085   4.289   3.940
  228POPC   PO4 3219   0.041   4.761   3.992
  228POPC   GL1 3220   0.023   4.495   4.307
  228POPC   GL2 3221  11.159   4.582   4.364
  228POPC   C1A 3222   0.194   4.397   4.713
  228POPC   D2A 3223  11.494   4.559   5.055
  228POPC   C3A 3224  11.384   4.340   5.413
  228POPC   C4A 3225  11.209   4.544   5.789
  228POPC   C1B 3226  11.238   4.165   4.585
  228POPC   C2B 3227  11.374   4.003   4.985
  228POPC   C3B 3228  11.293   3.829   5.396
  228POPC   C4B 3229  11.147   4.035   5.757
  229POPC   NC3 3230   3.476   5.740   4.017
  229POPC   PO4 3231   3.897   5.509   4.275
  229POPC   GL1 3232   3.634   5.792   4.542
  229POPC   GL2 3233   3.371   6.020   4.431
  229POPC   C1A 3234   3.522   5.925   4.990
  229POPC   D2A 3235   3.606   5.760   5.436
  229POPC   C3A 3236   3.756   6.044   5.767
  229POPC   C4A 3237   3.656   6.092   6.184
  229POPC   C1B 3238   3.151   5.693   4.696
  229POPC   C2B 3239   3.128   5.624   5.161
  229POPC   C3B 3240   3.159   5.595   5.610
  229POPC   C4B 3241   3.257   5.927   5.857
  230POPC   NC3 3242   9.113   2.909   3.851
  230POPC   PO4 3243   8.512   3.146   3.995
  230POPC   GL1 3244   8.803   2.892   4.261
  230POPC   GL2 3245   8.906   2.519   4.146
  230POPC   C1A 3246   8.978   3.033   4.653
  230POPC   D2A 3247   8.936   3.302   5.005
  230POPC   C3A 3248   8.936   3.081   5.386
  230POPC   C4A 3249   8.723   2.963   5.755
  230POPC   C1B 3250   8.982   2.517   4.601
  230POPC   C2B 3251   8.970   2.675   5.039
  230POPC   C3B 3252   9.050   2.593   5.483
  230POPC   C4B 3253   8.934   2.533   5.925
  231POPC   NC3 3254   9.999   3.144   4.101
  231POPC   PO4 3255  10.235   2.477   3.967
  231POPC   GL1 3256  10.406   2.607   4.328
  231POPC   GL2 3257  10.765   2.585   4.278
  231POPC   C1A 3258  10.299   2.830   4.699
  231POPC   D2A 3259  10.385   2.729   5.132
  231POPC   C3A 3260  10.415   2.993   5.501
  231POPC   C4A 3261  10.258   2.789   5.863
  231POPC   C1B 3262  10.738   2.562   4.742
  231POPC   C2B 3263  10.773   2.411   5.162
  231POPC   C3B 3264  10.730   2.599   5.604
  231POPC   C4B 3265  10.740   2.805   6.021
  232POPC   NC3 3266   1.790   7.473   3.941
  232POPC   PO4 3267   2.430   7.689   3.962
  232POPC   GL1 3268   2.150   7.523   4.290
  232POPC   GL2 3269   2.062   7.161   4.226
  232POPC   C1A 3270   2.055   7.343   4.684
  232POPC   D2A 3271   1.788   7.374   4.968
  232POPC   C3A 3272   2.039   7.534   5.289
  232POPC   C4A 3273   2.230   7.698   5.665
  232POPC   C1B 3274   1.661   7.067   4.527
  232POPC   C2B 3275   1.616   6.874   4.952
  232POPC   C3B 3276   1.840   7.018   5.330
  232POPC   C4B 3277   1.995   7.241   5.709
  233POPC   NC3 3278   0.388   8.806   3.962
  233POPC   PO4 3279   0.120   8.301   4.311
  233POPC   GL1 3280   0.309   8.670   4.545
  233POPC   GL2 3281   0.595   8.883   4.414
  233POPC   C1A 3282   0.217   9.056   4.767
  233POPC   D2A 3283   0.024   9.188   5.146
  233POPC   C3A 3284   0.186   8.885   5.442
  233POPC   C4A 3285   0.215   8.652   5.840
  233POPC   C1B 3286   0.760   9.030   4.813
  233POPC   C2B 3287   0.564   9.168   5.212
  233POPC   C3B 3288   0.533   9.171   5.678
  233POPC   C4B 3289   0.713   8.835   5.917
  234POPC   NC3 3290   3.518   8.986   3.915
  234POPC   PO4 3291   3.299   8.438   4.097
  234POPC   GL1 3292   3.448   8.735   4.406
  234POPC   GL2 3293   3.500   9.094   4.419
  234POPC   C1A 3294   3.512   8.670   4.851
  234POPC   D2A 3295   3.727   8.634   5.245
  234POPC   C3A 3296   3.477   8.580   5.624
  234POPC   C4A 3297   3.464   8.401   6.051
  234POPC   C1B 3298   3.235   9.086   4.801
  234POPC   C2B 3299   3.311   8.971   5.252
  234POPC   C3B 3300   3.548   9.083   5.651
  234POPC   C4B 3301   3.367   9.030   6.064
  235POPC   NC3 3302   2.633   2.741   3.840
  235POPC   PO4 3303   3.141   2.223   3.821
  235POPC   GL1 3304   2.855   2.427   4.182
  235POPC   GL2 3305   2.866   2.784   4.357
  235POPC   C1A 3306   2.601   2.473   4.609
  235POPC   D2A 3307   2.820   2.593   5.015
  235POPC   C3A 3308   2.637   2.625   5.431
  235POPC   C4A 3309   2.843   2.725   5.803
  235POPC   C1B 3310   2.900   3.026   4.776
  235POPC   C2B 3311   2.599   3.083   5.173
  235POPC   C3B 3312   2.489   3.066   5.647
  235POPC   C4B 3313   2.555   2.965   6.128
  236POPC   NC3 3314   1.845   0.400   3.859
  236POPC   PO4 3315   1.712  11.294   4.111
  236POPC   GL1 3316   1.620   0.205   4.334
  236POPC   GL2 3317   1.683   0.590   4.323
  236POPC   C1A 3318   1.728   0.279   4.761
  236POPC   D2A 3319   2.087   0.081   4.942
  236POPC   C3A 3320   2.005  11.499   5.353
  236POPC   C4A 3321   2.165   0.149   5.714
  236POPC   C1B 3322   2.106   0.526   4.525
  236POPC   C2B 3323   2.152   0.601   4.978
  236POPC   C3B 3324   2.052   0.545   5.402
  236POPC   C4B 3325   2.386   0.631   5.697
  237POPC   NC3 3326   1.879   2.688   3.948
  237POPC   PO4 3327   2.308   3.082   3.820
  237POPC   GL1 3328   2.347   2.822   4.242
  237POPC   GL2 3329   2.029   2.783   4.423
  237POPC   C1A 3330   2.409   2.946   4.694
  237POPC   D2A 3331   2.318   2.642   5.019
  237POPC   C3A 3332   2.120   2.743   5.397
  237POPC   C4A 3333   2.167   2.750   5.848
  237POPC   C1B 3334   1.845   2.704   4.821
  237POPC   C2B 3335   1.505   2.465   4.991
  237POPC   C3B 3336   1.412   2.559   5.404
  237POPC   C4B 3337   1.696   2.707   5.685
  238POPC   NC3 3338   0.259   0.111   4.082
  238POPC   PO4 3339   0.429   0.745   3.840
  238POPC   GL1 3340   0.626   0.704   4.276
  238POPC   GL2 3341   0.638   0.371   4.321
  238POPC   C1A 3342   0.592   0.602   4.745
  238POPC   D2A 3343   0.452   0.468   5.136
  238POPC   C3A 3344   0.642   0.644   5.469
  238POPC   C4A 3345   0.395   0.753   5.736
  238POPC   C1B 3346   0.554   0.078   4.687
  238POPC   C2B 3347   0.388  11.471   5.081
  238POPC   C3B 3348   0.344   0.060   5.527
  238POPC   C4B 3349   0.503   0.279   5.865
  239POPC   NC3 3350   1.967   9.569   3.861
  239POPC   PO4 3351   2.590   9.461   4.132
  239POPC   GL1 3352   2.192   9.623   4.337
  239POPC   GL2 3353   1.810   9.618   4.318
  239POPC   C1A 3354   2.027   9.669   4.755
  239POPC   D2A 3355   2.190   9.555   5.111
  239POPC   C3A 3356   2.246   9.915   5.351
  239POPC   C4A 3357   2.054   9.675   5.676
  239POPC   C1B 3358   1.653   9.342   4.620
  239POPC   C2B 3359   1.525   9.458   5.006
  239POPC   C3B 3360   1.671   9.486   5.392
  239POPC   C4B 3361   1.528   9.488   5.775
  240POPC   NC3 3362   0.420   1.929   4.172
  240POPC   PO4 3363  11.494   2.363   3.838
  240POPC   GL1 3364   0.205   2.363   4.335
  240POPC   GL2 3365   0.552   2.255   4.529
  240POPC   C1A 3366   0.186   2.401   4.822
  240POPC   D2A 3367   0.337   2.351   5.244
  240POPC   C3A 3368   0.273   1.962   5.470
  240POPC   C4A 3369   0.088   1.880   5.881
  240POPC   C1B 3370   0.362   1.909   4.840
  240POPC   C2B 3371   0.529   1.628   5.188
  240POPC   C3B 3372   0.763   1.823   5.563
  240POPC   C4B 3373   0.637   2.246   5.723
  241POPC   NC3 3374   9.176   7.452   3.920
  241POPC   PO4 3375   8.672   7.794   4.018
  241POPC   GL1 3376   8.864   7.524   4.340
  241POPC   GL2 3377   9.031   7.193   4.387
  241POPC   C1A 3378   8.933   7.604   4.753
  241POPC   D2A 3379   8.795   7.521   5.173
  241POPC   C3A 3380   9.056   7.403   5.511
  241POPC   C4A 3381   8.893   7.313   5.950
  241POPC   C1B 3382   8.956   7.098   4.862
  241POPC   C2B 3383   8.908   6.948   5.326
  241POPC   C3B 3384   8.918   6.808   5.799
  241POPC   C4B 3385   9.105   6.902   6.244
  242POPC   NC3 3386   2.921  10.881   3.936
  242POPC   PO4 3387   2.392  11.384   3.834
  242POPC   GL1 3388   2.547  11.149   4.191
  242POPC   GL2 3389   2.890  11.222   4.318
  242POPC   C1A 3390   2.492  11.291   4.627
  242POPC   D2A 3391   2.730  11.392   5.014
  242POPC   C3A 3392   2.512  11.313   5.401
  242POPC   C4A 3393   2.718  11.081   5.676
  242POPC   C1B 3394   2.870  10.920   4.625
  242POPC   C2B 3395   2.971  10.928   5.054
  242POPC   C3B 3396   3.158  10.856   5.441
  242POPC   C4B 3397   3.048  10.739   5.814
  243POPC   NC3 3398   6.456   2.062   3.932
  243POPC   PO4 3399   6.483   1.361   3.851
  243POPC   GL1 3400   6.469   1.615   4.214
  243POPC   GL2 3401   6.779   1.808   4.301
  243POPC   C1A 3402   6.337   1.682   4.630
  243POPC   D2A 3403   6.272   1.594   5.061
  243POPC   C3A 3404   6.583   1.754   5.355
  243POPC   C4A 3405   6.489   1.880   5.772
  243POPC   C1B 3406   6.985   1.941   4.711
  243POPC   C2B 3407   6.982   2.054   5.185
  243POPC   C3B 3408   6.759   2.246   5.527
  243POPC   C4B 3409   6.550   2.397   5.898
  244POPC   NC3 3410   9.503   1.392   3.767
  244POPC   PO4 3411   9.521   0.727   3.896
  244POPC   GL1 3412   9.679   0.969   4.254
  244POPC   GL2 3413   9.380   1.117   4.416
  244POPC   C1A 3414   9.790   1.065   4.695
  244POPC   D2A 3415   9.659   0.805   5.002
  244POPC   C3A 3416   9.789   0.915   5.375
  244POPC   C4A 3417   9.771   0.954   5.775
  244POPC   C1B 3418   9.400   1.396   4.791
  244POPC   C2B 3419   9.576   1.339   5.165
  244POPC   C3B 3420   9.435   1.244   5.538
  244POPC   C4B 3421   9.545   1.381   5.948
  245POPC   NC3 3422   8.064   8.692   3.842
  245POPC   PO4 3423   8.202   9.232   3.759
  245POPC   GL1 3424   8.181   8.978   4.231
  245POPC   GL2 3425   7.930   9.146   4.392
  245POPC   C1A 3426   8.284   9.020   4.718
  245POPC   D2A 3427   7.985   9.011   5.034
  245POPC   C3A 3428   8.257   8.983   5.394
  245POPC   C4A 3429   8.189   9.125   5.821
  245POPC   C1B 3430   7.896   8.699   4.613
  245POPC   C2B 3431   7.762   8.536   5.030
  245POPC   C3B 3432   7.910   8.425   5.434
  245POPC   C4B 3433   8.193   8.612   5.740
  246POPC   NC3 3434   7.567   8.090   4.040
  246POPC   PO4 3435   7.116   7.668   3.898
  246POPC   GL1 3436   7.173   7.923   4.338
  246POPC   GL2 3437   7.240   8.311   4.354
  246POPC   C1A 3438   7.207   8.062   4.813
  246POPC   D2A 3439   7.512   8.110   5.187
  246POPC   C3A 3440   7.383   7.951   5.607
  246POPC   C4A 3441   7.275   7.877   6.068
  246POPC   C1B 3442   7.363   8.556   4.707
  246POPC   C2B 3443   7.219   8.522   5.116
  246POPC   C3B 3444   7.395   8.512   5.525
  246POPC   C4B 3445   7.158   8.330   5.865
  247POPC   NC3 3446   4.328   2.338   3.946
  247POPC   PO4 3447   4.146   1.711   3.727
  247POPC   GL1 3448   4.144   1.913   4.153
  247POPC   GL2 3449   4.454   1.945   4.370
  247POPC   C1A 3450   3.974   1.909   4.577
  247POPC   D2A 3451   4.044   2.173   4.948
  247POPC   C3A 3452   4.058   1.935   5.330
  247POPC   C4A 3453   4.081   1.664   5.709
  247POPC   C1B 3454   4.395   1.788   4.836
  247POPC   C2B 3455   4.427   1.577   5.248
  247POPC   C3B 3456   4.565   1.811   5.581
  247POPC   C4B 3457   4.342   2.221   5.645
  248POPC   NC3 3458  10.860   0.344   4.256
  248POPC   PO4 3459  10.438   0.673   3.816
  248POPC   GL1 3460  10.443   0.622   4.257
  248POPC   GL2 3461  10.264   0.317   4.310
  248POPC   C1A 3462  10.521   0.554   4.735
  248POPC   D2A 3463  10.430   0.300   5.085
  248POPC   C3A 3464  10.668   0.517   5.372
  248POPC   C4A 3465  10.595   0.435   5.767
  248POPC   C1B 3466  10.056   0.652   4.589
  248POPC   C2B 3467  10.166   0.759   5.038
  248POPC   C3B 3468  10.190   0.632   5.463
  248POPC   C4B 3469  10.226   0.772   5.890
  249POPC   NC3 3470   9.160   0.454   3.851
  249POPC   PO4 3471   8.720   0.001   3.758
  249POPC   GL1 3472   9.037  11.499   4.133
  249POPC   GL2 3473   8.884   0.269   4.299
  249POPC   C1A 3474   9.191   0.070   4.649
  249POPC   D2A 3475   8.997   0.079   5.146
  249POPC   C3A 3476   9.246   0.186   5.548
  249POPC   C4A 3477   9.149   0.261   6.016
  249POPC   C1B 3478   8.795   0.374   4.754
  249POPC   C2B 3479   8.827   0.583   5.180
  249POPC   C3B 3480   8.809   0.439   5.599
  249POPC   C4B 3481   8.720   0.736   5.882
  250POPC   NC3 3482   7.846   2.004   3.957
  250POPC   PO4 3483   8.440   1.663   3.832
  250POPC   GL1 3484   8.211   1.704   4.241
  250POPC   GL2 3485   8.191   2.033   4.346
  250POPC   C1A 3486   7.996   1.724   4.683
  250POPC   D2A 3487   8.111   1.902   5.114
  250POPC   C3A 3488   7.837   1.807   5.448
  250POPC   C4A 3489   7.756   1.957   5.859
  250POPC   C1B 3490   8.145   2.245   4.739
  250POPC   C2B 3491   8.095   2.461   5.135
  250POPC   C3B 3492   7.963   2.338   5.545
  250POPC   C4B 3493   8.250   2.042   5.711
  251POPC   NC3 3494   2.938   8.326   3.854
  251POPC   PO4 3495   2.307   8.512   3.992
  251POPC   GL1 3496   2.383   8.351   4.441
  251POPC   GL2 3497   2.365   7.963   4.462
  251POPC   C1A 3498   2.530   8.343   4.918
  251POPC   D2A 3499   2.877   8.198   5.248
  251POPC   C3A 3500   3.065   8.200   5.704
  251POPC   C4A 3501   2.869   8.243   6.139
  251POPC   C1B 3502   2.396   7.733   4.867
  251POPC   C2B 3503   2.392   7.976   5.273
  251POPC   C3B 3504   2.570   8.068   5.710
  251POPC   C4B 3505   2.441   7.899   6.120
  252POPC   NC3 3506   6.539   3.620   4.043
  252POPC   PO4 3507   6.921   3.453   4.245
  252POPC   GL1 3508   6.616   3.614   4.554
  252POPC   GL2 3509   6.333   3.399   4.495
  252POPC   C1A 3510   6.413   3.642   4.989
  252POPC   D2A 3511   6.261   3.917   5.348
  252POPC   C3A 3512   6.582   3.888   5.663
  252POPC   C4A 3513   6.847   3.505   5.797
  252POPC   C1B 3514   6.616   3.167   4.797
  252POPC   C2B 3515   6.729   3.265   5.224
  252POPC   C3B 3516   6.431   3.432   5.497
  252POPC   C4B 3517   6.153   3.596   5.798
  253POPC   NC3 3518   8.162   9.667   3.954
  253POPC   PO4 3519   7.660  10.056   4.007
  253POPC   GL1 3520   7.899   9.875   4.342
  253POPC   GL2 3521   8.251   9.828   4.431
  253POPC   C1A 3522   7.971  10.062   4.771
  253POPC   D2A 3523   7.918   9.807   5.126
  253POPC   C3A 3524   7.697   9.827   5.496
  253POPC   C4A 3525   7.704   9.913   5.927
  253POPC   C1B 3526   8.114   9.535   4.744
  253POPC   C2B 3527   8.257   9.422   5.105
  253POPC   C3B 3528   7.996   9.417   5.462
  253POPC   C4B 3529   8.147   9.671   5.796
  254POPC   NC3 3530   9.293   9.973   3.685
  254POPC   PO4 3531   9.140   9.344   4.021
  254POPC   GL1 3532   9.284   9.673   4.288
  254POPC   GL2 3533   9.674   9.734   4.348
  254POPC   C1A 3534   9.230   9.658   4.719
  254POPC   D2A 3535   9.251   9.384   5.084
  254POPC   C3A 3536   9.225   9.548   5.519
  254POPC   C4A 3537   9.433   9.543   5.927
  254POPC   C1B 3538   9.895   9.667   4.792
  254POPC   C2B 3539   9.877   9.637   5.259
  254POPC   C3B 3540   9.999   9.484   5.660
  254POPC   C4B 3541   9.980   9.440   6.123
  255POPC   NC3 3542   5.243   0.937   3.986
  255POPC   PO4 3543   5.131   1.558   3.652
  255POPC   GL1 3544   5.046   1.382   4.139
  255POPC   GL2 3545   4.793   1.099   4.240
  255POPC   C1A 3546   5.103   1.270   4.600
  255POPC   D2A 3547   5.216   1.410   5.015
  255POPC   C3A 3548   4.899   1.372   5.341
  255POPC   C4A 3549   4.903   1.396   5.782
  255POPC   C1B 3550   4.771   0.857   4.631
  255POPC   C2B 3551   4.984   0.943   5.030
  255POPC   C3B 3552   5.045   0.901   5.464
  255POPC   C4B 3553   5.153   0.977   5.882
  256POPC   NC3 3554   0.218   8.022   3.960
  256POPC   PO4 3555   0.845   7.811   3.974
  256POPC   GL1 3556   0.587   8.002   4.328
  256POPC   GL2 3557   0.629   8.368   4.265
  256POPC   C1A 3558   0.451   8.066   4.785
  256POPC   D2A 3559   0.174   7.929   5.119
  256POPC   C3A 3560   0.376   8.084   5.498
  256POPC   C4A 3561   0.498   7.846   5.856
  256POPC   C1B 3562   0.744   8.481   4.686
  256POPC   C2B 3563   0.511   8.629   5.054
  256POPC   C3B 3564   0.620   8.576   5.487
  256POPC   C4B 3565   0.613   8.340   5.899
  257POPC   NC3 3566  10.184   7.338   4.250
  257POPC   PO4 3567   9.637   7.552   3.917
  257POPC   GL1 3568   9.711   7.530   4.363
  257POPC   GL2 3569   9.386   7.564   4.372
  257POPC   C1A 3570   9.906   7.457   4.815
  257POPC   D2A 3571  10.089   7.411   5.232
  257POPC   C3A 3572   9.839   7.648   5.507
  257POPC   C4A 3573   9.665   7.525   5.917
  257POPC   C1B 3574   9.391   7.369   4.754
  257POPC   C2B 3575   9.503   7.442   5.173
  257POPC   C3B 3576   9.616   7.182   5.513
  257POPC   C4B 3577   9.339   7.121   5.836
  258POPC   NC3 3578   8.301  11.151   3.685
  258POPC   PO4 3579   8.813  10.969   4.082
  258POPC   GL1 3580   8.830  11.165   4.456
  258POPC   GL2 3581   9.138  11.105   4.458
  258POPC   C1A 3582   8.657  11.372   4.802
  258POPC   D2A 3583   8.630  11.193   5.213
  258POPC   C3A 3584   8.576  11.441   5.576
  258POPC   C4A 3585   8.795  11.431   5.966
  258POPC   C1B 3586   9.105  11.145   4.903
  258POPC   C2B 3587   9.103  10.938   5.242
  258POPC   C3B 3588   9.052  11.200   5.570
  258POPC   C4B 3589   9.332  11.291   5.913
  259POPC   NC3 3590   1.689   6.606   3.805
  259POPC   PO4 3591   2.165   6.230   3.777
  259POPC   GL1 3592   1.905   6.338   4.172
  259POPC   GL2 3593   1.913   6.679   4.261
  259POPC   C1A 3594   1.810   6.324   4.653
  259POPC   D2A 3595   1.704   6.200   5.104
  259POPC   C3A 3596   1.928   6.306   5.511
  259POPC   C4A 3597   2.291   6.387   5.822
  259POPC   C1B 3598   2.064   6.795   4.686
  259POPC   C2B 3599   2.099   6.620   5.101
  259POPC   C3B 3600   2.238   6.775   5.509
  259POPC   C4B 3601   1.897   6.751   5.797
  260POPC   NC3 3602  11.108   5.695   3.856
  260POPC   PO4 3603  10.742   6.218   3.965
  260POPC   GL1 3604  10.887   5.890   4.294
  260POPC   GL2 3605  11.201   5.673   4.331
  260POPC   C1A 3606  10.908   5.713   4.734
  260POPC   D2A 3607  10.712   5.674   5.134
  260POPC   C3A 3608  10.921   5.737   5.505
  260POPC   C4A 3609  10.809   5.593   5.898
  260POPC   C1B 3610  11.387   5.902   4.641
  260POPC   C2B 3611  11.375   6.043   5.052
  260POPC   C3B 3612  11.426   5.876   5.474
  260POPC   C4B 3613  11.242   5.859   5.906
  261POPC   NC3 3614   5.122   9.283   4.012
  261POPC   PO4 3615   5.182  10.016   3.835
  261POPC   GL1 3616   5.146   9.820   4.227
  261POPC   GL2 3617   5.265   9.529   4.429
  261POPC   C1A 3618   4.979   9.901   4.634
  261POPC   D2A 3619   4.958   9.736   5.030
  261POPC   C3A 3620   4.923   9.928   5.402
  261POPC   C4A 3621   4.996   9.728   5.796
  261POPC   C1B 3622   4.900   9.355   4.700
  261POPC   C2B 3623   4.691   9.299   5.123
  261POPC   C3B 3624   4.698   9.292   5.603
  261POPC   C4B 3625   4.684   9.388   6.061
  262POPC   NC3 3626  10.877   6.670   3.979
  262POPC   PO4 3627  11.338   7.027   3.963
  262POPC   GL1 3628  11.261   6.845   4.327
  262POPC   GL2 3629  11.248   6.486   4.284
  262POPC   C1A 3630  11.300   6.747   4.740
  262POPC   D2A 3631  11.177   6.542   5.067
  262POPC   C3A 3632  11.190   6.748   5.442
  262POPC   C4A 3633  11.325   7.016   5.757
  262POPC   C1B 3634  11.039   6.270   4.619
  262POPC   C2B 3635  10.864   6.144   5.000
  262POPC   C3B 3636  11.021   6.219   5.417
  262POPC   C4B 3637  11.204   6.353   5.788
  263POPC   NC3 3638  11.094   7.447   3.851
  263POPC   PO4 3639  10.521   6.983   3.799
  263POPC   GL1 3640  10.860   7.140   4.185
  263POPC   GL2 3641  11.129   7.399   4.335
  263POPC   C1A 3642  10.952   7.106   4.696
  263POPC   D2A 3643  10.840   7.003   5.137
  263POPC   C3A 3644  10.899   7.191   5.523
  263POPC   C4A 3645  10.851   7.024   5.962
  263POPC   C1B 3646  11.441   7.247   4.651
  263POPC   C2B 3647  11.340   7.139   5.100
  263POPC   C3B 3648  11.358   7.424   5.465
  263POPC   C4B 3649  11.113   7.508   5.864
  264POPC   NC3 3650   5.262  10.529   3.772
  264POPC   PO4 3651   5.858  10.439   3.967
  264POPC   GL1 3652   5.902  10.532   4.374
  264POPC   GL2 3653   6.034  10.207   4.377
  264POPC   C1A 3654   5.735  10.679   4.798
  264POPC   D2A 3655   5.566  10.810   5.229
  264POPC   C3A 3656   5.645  10.571   5.611
  264POPC   C4A 3657   5.747  10.648   6.046
  264POPC   C1B 3658   5.853  10.162   4.771
  264POPC   C2B 3659   5.683  10.286   5.141
  264POPC   C3B 3660   5.810  10.100   5.496
  264POPC   C4B 3661   5.800  10.157   5.894
  265POPC   NC3 3662   0.130   3.441   3.987
  265POPC   PO4 3663  11.127   3.839   3.906
  265POPC   GL1 3664  11.214   3.535   4.235
  265POPC   GL2 3665  10.949   3.362   4.355
  265POPC   C1A 3666  11.410   3.327   4.604
  265POPC   D2A 3667  11.223   3.204   5.006
  265POPC   C3A 3668  11.384   3.278   5.444
  265POPC   C4A 3669  11.442   3.168   5.889
  265POPC   C1B 3670  11.071   3.680   4.696
  265POPC   C2B 3671  10.920   3.647   5.091
  265POPC   C3B 3672  10.875   3.542   5.499
  265POPC   C4B 3673  11.120   3.550   5.857
  266POPC   NC3 3674   1.250  11.341   4.031
  266POPC   PO4 3675   1.335  10.705   3.831
  266POPC   GL1 3676   1.285  10.898   4.306
  266POPC   GL2 3677   1.075  11.196   4.459
  266POPC   C1A 3678   1.275  10.856   4.797
  266POPC   D2A 3679   0.993  10.815   5.180
  266POPC   C3A 3680   1.118  10.926   5.631
  266POPC   C4A 3681   1.499  10.867   5.913
  266POPC   C1B 3682   1.392  11.379   4.712
  266POPC   C2B 3683   1.369   0.091   5.108
  266POPC   C3B 3684   1.238  11.428   5.498
  266POPC   C4B 3685   1.284  11.483   5.925
  267POPC   NC3 3686   1.352   5.015   3.881
  267POPC   PO4 3687   0.821   5.376   3.882
  267POPC   GL1 3688   1.153   5.353   4.249
  267POPC   GL2 3689   1.453   5.105   4.358
  267POPC   C1A 3690   1.273   5.420   4.695
  267POPC   D2A 3691   1.109   5.358   5.089
  267POPC   C3A 3692   1.334   5.425   5.458
  267POPC   C4A 3693   1.495   5.151   5.785
  267POPC   C1B 3694   1.168   4.832   4.605
  267POPC   C2B 3695   0.964   4.858   5.020
  267POPC   C3B 3696   1.155   4.917   5.424
  267POPC   C4B 3697   1.005   4.881   5.852
  268POPC   NC3 3698   1.129   6.796   4.039
  268POPC   PO4 3699   1.447   6.200   3.871
  268POPC   GL1 3700   1.409   6.266   4.308
  268POPC   GL2 3701   1.431   6.611   4.408
  268POPC   C1A 3702   1.261   6.260   4.759
  268POPC   D2A 3703   1.257   6.470   5.163
  268POPC   C3A 3704   1.029   6.335   5.541
  268POPC   C4A 3705   1.425   6.513   5.711
  268POPC   C1B 3706   1.135   6.769   4.732
  268POPC   C2B 3707   1.118   6.983   5.123
  268POPC   C3B 3708   1.045   6.841   5.530
  268POPC   C4B 3709   1.044   6.986   5.926
  269POPC   NC3 3710   0.369   5.141   4.019
  269POPC   PO4 3711   0.793   4.501   3.902
  269POPC   GL1 3712   0.547   4.718   4.258
  269POPC   GL2 3713   0.784   4.990   4.277
  269POPC   C1A 3714   0.423   4.890   4.707
  269POPC   D2A 3715   0.459   4.733   5.160
  269POPC   C3A 3716   0.460   4.963   5.567
  269POPC   C4A 3717   0.440   4.869   6.029
  269POPC   C1B 3718   0.810   5.208   4.673
  269POPC   C2B 3719   0.614   5.226   5.103
  269POPC   C3B 3720   0.813   5.313   5.506
  269POPC   C4B 3721   0.707   5.274   5.918
  270POPC   NC3 3722   6.465   0.895   3.780
  270POPC   PO4 3723   7.040   0.942   4.078
  270POPC   GL1 3724   6.659   0.805   4.293
  270POPC   GL2 3725   6.387   1.071   4.276
  270POPC   C1A 3726   6.644   0.701   4.738
  270POPC   D2A 3727   6.869   0.853   5.099
  270POPC   C3A 3728   6.695   0.869   5.506
  270POPC   C4A 3729   6.415   0.940   5.840
  270POPC   C1B 3730   6.498   1.196   4.706
  270POPC   C2B 3731   6.442   1.132   5.140
  270POPC   C3B 3732   6.349   1.332   5.510
  270POPC   C4B 3733   6.697   1.393   5.735
  271POPC   NC3 3734  10.246   7.392   3.695
  271POPC   PO4 3735  10.565   7.608   4.217
  271POPC   GL1 3736  10.576   7.373   4.546
  271POPC   GL2 3737  10.484   7.006   4.486
  271POPC   C1A 3738  10.486   7.307   4.925
  271POPC   D2A 3739  10.649   7.558   5.196
  271POPC   C3A 3740  10.516   7.548   5.572
  271POPC   C4A 3741  10.691   7.859   5.798
  271POPC   C1B 3742  10.220   6.883   4.812
  271POPC   C2B 3743  10.325   6.921   5.238
  271POPC   C3B 3744  10.420   7.053   5.605
  271POPC   C4B 3745  10.090   7.283   5.743
  272POPC   NC3 3746   9.509   8.010   3.970
  272POPC   PO4 3747  10.102   7.849   3.689
  272POPC   GL1 3748  10.020   7.874   4.143
  272POPC   GL2 3749   9.958   8.235   4.209
  272POPC   C1A 3750   9.877   7.936   4.612
  272POPC   D2A 3751   9.684   7.914   5.038
  272POPC   C3A 3752   9.798   8.161   5.429
  272POPC   C4A 3753   9.805   8.010   5.858
  272POPC   C1B 3754   9.593   8.368   4.516
  272POPC   C2B 3755   9.359   8.363   4.927
  272POPC   C3B 3756   9.320   8.313   5.360
  272POPC   C4B 3757   9.373   8.266   5.795
  273POPC   NC3 3758   0.994   9.338   3.834
  273POPC   PO4 3759   1.625   9.244   3.982
  273POPC   GL1 3760   1.315   9.478   4.230
  273POPC   GL2 3761   1.344   9.853   4.290
  273POPC   C1A 3762   1.151   9.504   4.641
  273POPC   D2A 3763   0.939   9.483   5.031
  273POPC   C3A 3764   1.137   9.510   5.430
  273POPC   C4A 3765   0.875   9.543   5.796
  273POPC   C1B 3766   1.539   9.862   4.678
  273POPC   C2B 3767   1.261   9.891   5.018
  273POPC   C3B 3768   1.313  10.022   5.418
  273POPC   C4B 3769   1.210   9.911   5.829
  274POPC   NC3 3770   0.515   6.116   3.822
  274POPC   PO4 3771   0.664   6.815   3.970
  274POPC   GL1 3772   0.323   6.582   4.205
  274POPC   GL2 3773   0.530   6.306   4.303
  274POPC   C1A 3774   0.142   6.389   4.619
  274POPC   D2A 3775   0.213   6.592   5.022
  274POPC   C3A 3776   0.071   6.388   5.387
  274POPC   C4A 3777   0.124   6.614   5.752
  274POPC   C1B 3778   0.643   6.548   4.674
  274POPC   C2B 3779   0.751   6.492   5.112
  274POPC   C3B 3780   0.574   6.583   5.501
  274POPC   C4B 3781   0.549   6.915   5.788
  275POPC   NC3 3782   4.730  10.016   3.988
  275POPC   PO4 3783   4.887  10.722   3.955
  275POPC   GL1 3784   5.044  10.383   4.224
  275POPC   GL2 3785   5.418  10.300   4.197
  275POPC   C1A 3786   4.839  10.388   4.625
  275POPC   D2A 3787   4.654  10.164   4.957
  275POPC   C3A 3788   4.715  10.390   5.325
  275POPC   C4A 3789   4.782  10.679   5.650
  275POPC   C1B 3790   5.369  10.288   4.635
  275POPC   C2B 3791   5.157  10.269   5.022
  275POPC   C3B 3792   5.212  10.374   5.432
  275POPC   C4B 3793   5.330  10.115   5.739
  276POPC   NC3 3794   4.615   2.870   3.962
  276POPC   PO4 3795   4.020   3.062   3.993
  276POPC   GL1 3796   4.230   2.720   4.293
  276POPC   GL2 3797   4.117   2.377   4.405
  276POPC   C1A 3798   4.403   2.594   4.744
  276POPC   D2A 3799   4.238   2.600   5.181
  276POPC   C3A 3800   4.508   2.693   5.544
  276POPC   C4A 3801   4.846   2.687   5.840
  276POPC   C1B 3802   3.886   2.629   4.704
  276POPC   C2B 3803   3.690   2.526   5.104
  276POPC   C3B 3804   3.878   2.406   5.480
  276POPC   C4B 3805   4.085   2.614   5.821
  277POPC   NC3 3806   8.705   4.635   3.873
  277POPC   PO4 3807   8.780   4.027   3.862
  277POPC   GL1 3808   8.975   3.921   4.266
  277POPC   GL2 3809   9.118   4.212   4.442
  277POPC   C1A 3810   8.856   3.848   4.712
  277POPC   D2A 3811   8.697   3.723   5.141
  277POPC   C3A 3812   8.760   3.865   5.579
  277POPC   C4A 3813   8.534   4.149   5.836
  277POPC   C1B 3814   9.007   4.359   4.870
  277POPC   C2B 3815   8.933   4.242   5.303
  277POPC   C3B 3816   9.062   4.312   5.741
  277POPC   C4B 3817   8.851   4.392   6.147
  278POPC   NC3 3818   1.049   2.969   4.054
  278POPC   PO4 3819   1.271   3.622   3.900
  278POPC   GL1 3820   1.339   3.524   4.294
  278POPC   GL2 3821   1.036   3.379   4.361
  278POPC   C1A 3822   1.485   3.555   4.699
  278POPC   D2A 3823   1.646   3.497   5.093
  278POPC   C3A 3824   1.465   3.779   5.376
  278POPC   C4A 3825   1.563   3.606   5.748
  278POPC   C1B 3826   0.960   3.239   4.768
  278POPC   C2B 3827   1.139   3.418   5.125
  278POPC   C3B 3828   1.102   3.482   5.551
  278POPC   C4B 3829   0.894   3.212   5.830
  279POPC   NC3 3830   3.122   1.165   3.750
  279POPC   PO4 3831   2.756   1.425   4.177
  279POPC   GL1 3832   2.799   1.119   4.451
  279POPC   GL2 3833   2.497   0.896   4.393
  279POPC   C1A 3834   2.921   1.200   4.902
  279POPC   D2A 3835   3.254   1.320   5.211
  279POPC   C3A 3836   3.080   1.263   5.643
  279POPC   C4A 3837   2.991   1.041   6.036
  279POPC   C1B 3838   2.338   1.251   4.624
  279POPC   C2B 3839   2.352   1.177   5.005
  279POPC   C3B 3840   2.629   1.264   5.361
  279POPC   C4B 3841   2.580   1.193   5.791
  280POPC   NC3 3842   3.843  11.267   3.955
  280POPC   PO4 3843   3.120  11.342   3.865
  280POPC   GL1 3844   3.361  11.402   4.232
  280POPC   GL2 3845   3.544  11.119   4.340
  280POPC   C1A 3846   3.227  11.377   4.694
  280POPC   D2A 3847   3.295   0.046   5.124
  280POPC   C3A 3848   3.118  11.363   5.499
  280POPC   C4A 3849   3.350  11.233   5.863
  280POPC   C1B 3850   3.423  10.898   4.718
  280POPC   C2B 3851   3.472  11.076   5.100
  280POPC   C3B 3852   3.630  11.051   5.491
  280POPC   C4B 3853   3.545  10.761   5.819
  281POPC   NC3 3854   5.146   8.292   3.882
  281POPC   PO4 3855   4.824   8.745   3.920
  281POPC   GL1 3856   4.872   8.498   4.313
  281POPC   GL2 3857   5.105   8.205   4.382
  281POPC   C1A 3858   4.886   8.422   4.786
  281POPC   D2A 3859   4.968   8.126   5.125
  281POPC   C3A 3860   4.926   8.299   5.538
  281POPC   C4A 3861   4.618   8.360   5.888
  281POPC   C1B 3862   5.281   7.946   4.738
  281POPC   C2B 3863   5.232   7.683   5.116
  281POPC   C3B 3864   5.195   7.849   5.537
  281POPC   C4B 3865   5.450   8.156   5.776
  282POPC   NC3 3866   6.947   0.424   4.048
  282POPC   PO4 3867   6.271   0.384   3.864
  282POPC   GL1 3868   6.462   0.273   4.302
  282POPC   GL2 3869   6.111   0.227   4.464
  282POPC   C1A 3870   6.840   0.211   4.651
  282POPC   D2A 3871   6.996   0.362   5.059
  282POPC   C3A 3872   6.877   0.109   5.405
  282POPC   C4A 3873   6.730  11.355   5.742
  282POPC   C1B 3874   6.365   0.273   4.833
  282POPC   C2B 3875   6.519   0.461   5.193
  282POPC   C3B 3876   6.337   0.500   5.550
  282POPC   C4B 3877   6.560   0.312   5.787
  283POPC   NC3 3878   7.988  10.567   3.891
  283POPC   PO4 3879   8.503  10.035   3.908
  283POPC   GL1 3880   8.420  10.275   4.277
  283POPC   GL2 3881   8.102  10.327   4.313
  283POPC   C1A 3882   8.440  10.297   4.732
  283POPC   D2A 3883   8.424   9.936   5.052
  283POPC   C3A 3884   8.205  10.058   5.457
  283POPC   C4A 3885   8.145  10.212   5.878
  283POPC   C1B 3886   7.994  10.603   4.611
  283POPC   C2B 3887   7.990  10.741   5.030
  283POPC   C3B 3888   8.131  10.595   5.463
  283POPC   C4B 3889   7.932  10.682   5.876
  284POPC   NC3 3890   2.528   5.954   3.820
  284POPC   PO4 3891   3.211   5.945   3.693
  284POPC   GL1 3892   2.962   5.909   4.130
  284POPC   GL2 3893   2.630   5.784   4.294
  284POPC   C1A 3894   2.888   6.113   4.585
  284POPC   D2A 3895   2.724   6.136   5.050
  284POPC   C3A 3896   2.876   6.003   5.483
  284POPC   C4A 3897   2.766   6.092   5.931
  284POPC   C1B 3898   2.604   5.704   4.761
  284POPC   C2B 3899   2.624   5.646   5.219
  284POPC   C3B 3900   2.637   5.554   5.656
  284POPC   C4B 3901   2.445   5.718   6.050
  285POPC   NC3 3902   1.814   5.902   3.853
  285POPC   PO4 3903   2.330   5.547   3.949
  285POPC   GL1 3904   2.017   5.565   4.260
  285POPC   GL2 3905   1.996   5.880   4.346
  285POPC   C1A 3906   1.776   5.413   4.604
  285POPC   D2A 3907   1.648   5.441   5.042
  285POPC   C3A 3908   1.781   5.741   5.352
  285POPC   C4A 3909   1.642   5.664   5.791
  285POPC   C1B 3910   2.082   5.824   4.765
  285POPC   C2B 3911   2.220   6.011   5.141
  285POPC   C3B 3912   2.340   5.956   5.552
  285POPC   C4B 3913   2.043   5.943   5.872
  286POPC   NC3 3914   7.261   9.982   4.251
  286POPC   PO4 3915   7.158  10.507   3.885
  286POPC   GL1 3916   7.112  10.573   4.376
  286POPC   GL2 3917   7.161  10.264   4.635
  286POPC   C1A 3918   7.072  10.695   4.839
  286POPC   D2A 3919   7.221  10.401   5.201
  286POPC   C3A 3920   7.156  10.488   5.650
  286POPC   C4A 3921   7.103  10.650   6.138
  286POPC   C1B 3922   7.556  10.362   4.803
  286POPC   C2B 3923   7.760  10.302   5.192
  286POPC   C3B 3924   7.677  10.320   5.612
  286POPC   C4B 3925   7.491  10.371   5.998
  287POPC   NC3 3926   2.018   5.137   3.986
  287POPC   PO4 3927   2.421   4.639   3.971
  287POPC   GL1 3928   2.105   4.621   4.349
  287POPC   GL2 3929   2.028   4.970   4.462
  287POPC   C1A 3930   1.706   4.638   4.677
  287POPC   D2A 3931   1.505   4.940   5.001
  287POPC   C3A 3932   1.714   4.857   5.418
  287POPC   C4A 3933   1.982   4.583   5.745
  287POPC   C1B 3934   2.254   5.309   4.712
  287POPC   C2B 3935   2.162   5.483   5.134
  287POPC   C3B 3936   2.141   5.471   5.591
  287POPC   C4B 3937   2.046   5.087   5.765
  288POPC   NC3 3938   0.341   4.415   3.901
  288POPC   PO4 3939   0.399   3.829   4.044
  288POPC   GL1 3940   0.437   4.128   4.351
  288POPC   GL2 3941   0.747   4.228   4.325
  288POPC   C1A 3942   0.589   4.041   4.788
  288POPC   D2A 3943   0.357   4.014   5.151
  288POPC   C3A 3944   0.484   4.119   5.570
  288POPC   C4A 3945   0.279   4.505   5.691
  288POPC   C1B 3946   0.721   4.507   4.695
  288POPC   C2B 3947   0.802   4.371   5.128
  288POPC   C3B 3948   0.794   4.540   5.533
  288POPC   C4B 3949   0.712   4.467   5.970
  289POPC   NC3 3950   1.965   8.585   3.686
  289POPC   PO4 3951   2.222   9.153   3.770
  289POPC   GL1 3952   2.024   9.130   4.244
  289POPC   GL2 3953   2.018   8.760   4.344
  289POPC   C1A 3954   2.126   9.163   4.701
  289POPC   D2A 3955   1.892   9.110   5.111
  289POPC   C3A 3956   2.119   9.199   5.494
  289POPC   C4A 3957   2.210   8.874   5.758
  289POPC   C1B 3958   1.758   8.790   4.729
  289POPC   C2B 3959   1.577   8.623   5.093
  289POPC   C3B 3960   1.733   8.604   5.501
  289POPC   C4B 3961   1.676   9.010   5.670
  290POPC   NC3 3962   0.639   1.126   3.693
  290POPC   PO4 3963   0.183   1.529   3.971
  290POPC   GL1 3964   0.321   1.445   4.356
  290POPC   GL2 3965   0.569   1.204   4.229
  290POPC   C1A 3966   0.122   1.446   4.780
  290POPC   D2A 3967  11.448   1.669   5.134
  290POPC   C3A 3968   0.055   1.489   5.512
  290POPC   C4A 3969   0.413   1.493   5.784
  290POPC   C1B 3970   0.351   1.013   4.605
  290POPC   C2B 3971   0.281   0.955   5.051
  290POPC   C3B 3972   0.478   1.145   5.406
  290POPC   C4B 3973   0.756   1.106   5.755
  291POPC   NC3 3974   8.332   0.558   3.801
  291POPC   PO4 3975   8.072  11.471   3.968
  291POPC   GL1 3976   8.122   0.405   4.232
  291POPC   GL2 3977   7.877   0.659   4.391
  291POPC   C1A 3978   8.345   0.605   4.606
  291POPC   D2A 3979   8.355   0.442   5.056
  291POPC   C3A 3980   8.366   0.700   5.473
  291POPC   C4A 3981   8.210   0.641   5.930
  291POPC   C1B 3982   7.920   0.270   4.722
  291POPC   C2B 3983   7.945   0.142   5.209
  291POPC   C3B 3984   7.943   0.245   5.686
  291POPC   C4B 3985   7.823   0.164   6.163
  292POPC   NC3 3986   8.915   1.934   3.745
  292POPC   PO4 3987   9.242   1.528   4.144
  292POPC   GL1 3988   8.757   1.675   4.305
  292POPC   GL2 3989   8.662   2.019   4.171
  292POPC   C1A 3990   8.503   1.637   4.730
  292POPC   D2A 3991   8.623   1.827   5.156
  292POPC   C3A 3992   8.603   1.665   5.598
  292POPC   C4A 3993   8.654   1.635   6.059
  292POPC   C1B 3994   8.659   2.107   4.620
  292POPC   C2B 3995   8.580   2.318   5.023
  292POPC   C3B 3996   8.684   2.233   5.484
  292POPC   C4B 3997   9.109   2.090   5.643
  293POPC   NC3 3998   9.738  10.282   3.973
  293POPC   PO4 3999   9.101  10.141   4.064
  293POPC   GL1 4000   9.408  10.174   4.366
  293POPC   GL2 4001   9.646  10.435   4.433
  293POPC   C1A 4002   9.558  10.055   4.762
  293POPC   D2A 4003   9.445   9.872   5.131
  293POPC   C3A 4004   9.295  10.059   5.490
  293POPC   C4A 4005   9.682   9.911   5.683
  293POPC   C1B 4006   9.796  10.516   4.834
  293POPC   C2B 4007   9.510  10.449   5.175
  293POPC   C3B 4008   9.614  10.435   5.576
  293POPC   C4B 4009   9.945  10.687   5.675
  294POPC   NC3 4010   2.591   1.076   3.918
  294POPC   PO4 4011   1.952   0.855   3.912
  294POPC   GL1 4012   1.972   1.066   4.297
  294POPC   GL2 4013   1.998   1.431   4.286
  294POPC   C1A 4014   1.926   0.964   4.708
  294POPC   D2A 4015   1.851   1.034   5.115
  294POPC   C3A 4016   2.159   1.034   5.440
  294POPC   C4A 4017   2.108   1.054   5.854
  294POPC   C1B 4018   1.872   1.475   4.744
  294POPC   C2B 4019   2.102   1.591   5.145
  294POPC   C3B 4020   2.142   1.518   5.593
  294POPC   C4B 4021   1.787   1.426   5.863
  295POPC   NC3 4022   3.538   1.988   3.738
  295POPC   PO4 4023   3.889   2.490   3.949
  295POPC   GL1 4024   3.686   2.191   4.220
  295POPC   GL2 4025   3.358   2.060   4.242
  295POPC   C1A 4026   3.591   2.221   4.673
  295POPC   D2A 4027   3.593   1.901   4.987
  295POPC   C3A 4028   3.538   2.026   5.387
  295POPC   C4A 4029   3.733   2.014   5.772
  295POPC   C1B 4030   3.240   1.845   4.613
  295POPC   C2B 4031   3.064   1.802   5.016
  295POPC   C3B 4032   3.101   1.746   5.445
  295POPC   C4B 4033   3.224   1.971   5.794
  296POPC   NC3 4034   1.120   5.799   3.963
  296POPC   PO4 4035   1.623   5.401   3.916
  296POPC   GL1 4036   1.510   5.730   4.284
  296POPC   GL2 4037   1.154   5.843   4.452
  296POPC   C1A 4038   1.571   5.858   4.733
  296POPC   D2A 4039   1.294   5.848   5.116
  296POPC   C3A 4040   1.422   6.034   5.530
  296POPC   C4A 4041   1.329   6.069   5.993
  296POPC   C1B 4042   0.849   5.710   4.768
  296POPC   C2B 4043   0.716   5.719   5.178
  296POPC   C3B 4044   0.955   5.801   5.536
  296POPC   C4B 4045   1.122   5.604   5.905
  297POPC   NC3 4046   0.213   9.721   4.154
  297POPC   PO4 4047   0.805   9.779   3.783
  297POPC   GL1 4048   0.838   9.712   4.237
  297POPC   GL2 4049   0.719   9.394   4.372
  297POPC   C1A 4050   0.848   9.919   4.663
  297POPC   D2A 4051   0.618   9.969   5.043
  297POPC   C3A 4052   0.811   9.917   5.423
  297POPC   C4A 4053   0.722  10.055   5.833
  297POPC   C1B 4054   0.481   9.516   4.777
  297POPC   C2B 4055   0.294   9.615   5.206
  297POPC   C3B 4056   0.374   9.699   5.653
  297POPC   C4B 4057   0.448   9.529   6.066
  298POPC   NC3 4058   0.124   2.811   3.884
  298POPC   PO4 4059   0.640   2.302   4.005
  298POPC   GL1 4060   0.633   2.686   4.257
  298POPC   GL2 4061   0.311   2.860   4.340
  298POPC   C1A 4062   0.632   2.752   4.706
  298POPC   D2A 4063   0.616   2.965   5.079
  298POPC   C3A 4064   0.614   2.733   5.449
  298POPC   C4A 4065   0.553   2.731   5.883
  298POPC   C1B 4066   0.070   2.868   4.702
  298POPC   C2B 4067   0.119   2.906   5.150
  298POPC   C3B 4068   0.125   2.783   5.565
  298POPC   C4B 4069   0.116   2.378   5.722
  299POPC   NC3 4070   7.339   2.362   3.862
  299POPC   PO4 4071   7.665   2.800   4.101
  299POPC   GL1 4072   7.444   2.672   4.448
  299POPC   GL2 4073   7.152   2.463   4.330
  299POPC   C1A 4074   7.466   2.780   4.894
  299POPC   D2A 4075   7.643   2.641   5.274
  299POPC   C3A 4076   7.427   2.737   5.642
  299POPC   C4A 4077   7.184   3.104   5.784
  299POPC   C1B 4078   7.099   2.437   4.782
  299POPC   C2B 4079   7.124   2.550   5.216
  299POPC   C3B 4080   6.916   2.728   5.558
  299POPC   C4B 4081   7.012   2.642   5.976
  300POPC   NC3 4082   1.373  10.273   3.974
  300POPC   PO4 4083   0.823  10.553   3.658
  300POPC   GL1 4084   0.914  10.568   4.142
  300POPC   GL2 4085   0.931  10.224   4.255
  300POPC   C1A 4086   0.837  10.539   4.655
  300POPC   D2A 4087   0.990  10.317   5.083
  300POPC   C3A 4088   0.999  10.420   5.569
  300POPC   C4A 4089   1.119  10.579   6.035
  300POPC   C1B 4090   1.264  10.283   4.610
  300POPC   C2B 4091   1.512  10.355   4.979
  300POPC   C3B 4092   1.513  10.531   5.390
  300POPC   C4B 4093   1.478  10.356   5.791
  301POPC   NC3 4094   8.854   1.405   3.893
  301POPC   PO4 4095   8.760   0.691   3.885
  301POPC   GL1 4096   8.765   0.772   4.318
  301POPC   GL2 4097   8.890   1.095   4.284
  301POPC   C1A 4098   8.891   0.863   4.748
  301POPC   D2A 4099   9.174   1.008   5.046
  301POPC   C3A 4100   8.960   1.056   5.460
  301POPC   C4A 4101   9.109   1.083   5.882
  301POPC   C1B 4102   8.916   1.346   4.652
  301POPC   C2B 4103   8.844   1.384   5.045
  301POPC   C3B 4104   9.078   1.578   5.344
  301POPC   C4B 4105   9.100   1.591   5.773
  302POPC   NC3 4106   0.066   1.008   4.009
  302POPC   PO4 4107  10.944   0.848   3.974
  302POPC   GL1 4108  11.163   1.068   4.340
  302POPC   GL2 4109  11.296   1.425   4.361
  302POPC   C1A 4110  11.337   0.987   4.755
  302POPC   D2A 4111  11.178   0.890   5.182
  302POPC   C3A 4112  11.479   0.977   5.492
  302POPC   C4A 4113  11.466   0.885   5.918
  302POPC   C1B 4114  11.084   1.480   4.792
  302POPC   C2B 4115  11.036   1.372   5.244
  302POPC   C3B 4116  11.049   1.198   5.658
  302POPC   C4B 4117  10.895   1.424   6.047
  303POPC   NC3 4118   2.105   8.085   4.036
  303POPC   PO4 4119   1.533   7.849   3.880
  303POPC   GL1 4120   1.746   7.870   4.303
  303POPC   GL2 4121   1.881   8.233   4.457
  303POPC   C1A 4122   1.913   7.815   4.709
  303POPC   D2A 4123   1.715   7.877   5.072
  303POPC   C3A 4124   1.869   8.015   5.423
  303POPC   C4A 4125   1.721   7.674   5.688
  303POPC   C1B 4126   1.927   8.315   4.874
  303POPC   C2B 4127   2.129   8.587   5.173
  303POPC   C3B 4128   2.208   8.397   5.572
  303POPC   C4B 4129   2.033   8.106   5.892
  304POPC   NC3 4130   0.556   5.566   3.567
  304POPC   PO4 4131   0.705   5.856   4.140
  304POPC   GL1 4132   0.564   5.507   4.335
  304POPC   GL2 4133   0.222   5.634   4.296
  304POPC   C1A 4134   0.329   5.393   4.713
  304POPC   D2A 4135   0.197   5.626   5.064
  304POPC   C3A 4136   0.288   5.465   5.466
  304POPC   C4A 4137   0.458   5.683   5.820
  304POPC   C1B 4138   0.382   5.910   4.669
  304POPC   C2B 4139   0.400   6.116   5.046
  304POPC   C3B 4140   0.487   6.074   5.478
  304POPC   C4B 4141   0.215   6.116   5.815
  305POPC   NC3 4142  10.361   6.447   3.833
  305POPC   PO4 4143  10.050   6.915   4.152
  305POPC   GL1 4144  10.278   6.558   4.339
  305POPC   GL2 4145  10.635   6.513   4.381
  305POPC   C1A 4146  10.319   6.370   4.751
  305POPC   D2A 4147  10.115   6.478   5.124
  305POPC   C3A 4148  10.255   6.386   5.529
  305POPC   C4A 4149  10.293   6.644   5.859
  305POPC   C1B 4150  10.737   6.647   4.795
  305POPC   C2B 4151  10.652   6.535   5.232
  305POPC   C3B 4152  10.754   6.614   5.665
  305POPC   C4B 4153  10.704   6.543   6.133
  306POPC   NC3 4154   9.253  10.946   3.910
  306POPC   PO4 4155   9.951  10.710   4.001
  306POPC   GL1 4156   9.614  10.909   4.277
  306POPC   GL2 4157   9.580  11.266   4.294
  306POPC   C1A 4158   9.461  10.851   4.729
  306POPC   D2A 4159   9.634  10.987   5.160
  306POPC   C3A 4160   9.485  10.918   5.599
  306POPC   C4A 4161   9.417  10.688   6.002
  306POPC   C1B 4162   9.665  11.320   4.730
  306POPC   C2B 4163   9.503  11.494   5.105
  306POPC   C3B 4164   9.666  11.393   5.509
  306POPC   C4B 4165  10.047  11.164   5.645
  307POPC   NC3 4166   7.372   9.058   3.886
  307POPC   PO4 4167   7.659   8.521   3.963
  307POPC   GL1 4168   7.525   8.825   4.304
  307POPC   GL2 4169   7.188   8.933   4.360
  307POPC   C1A 4170   7.555   9.057   4.727
  307POPC   D2A 4171   7.478   8.935   5.157
  307POPC   C3A 4172   7.760   8.912   5.480
  307POPC   C4A 4173   7.756   8.874   5.892
  307POPC   C1B 4174   7.058   8.971   4.810
  307POPC   C2B 4175   7.070   9.214   5.211
  307POPC   C3B 4176   7.091   8.916   5.533
  307POPC   C4B 4177   6.967   8.795   5.958
  308POPC   NC3 4178   9.636   4.986   3.965
  308POPC   PO4 4179   9.127   4.559   4.057
  308POPC   GL1 4180   9.399   4.660   4.415
  308POPC   GL2 4181   9.554   4.999   4.455
  308POPC   C1A 4182   9.436   4.710   4.872
  308POPC   D2A 4183   9.452   4.958   5.243
  308POPC   C3A 4184   9.478   4.722   5.636
  308POPC   C4A 4185   9.141   4.794   5.954
  308POPC   C1B 4186   9.867   4.977   4.769
  308POPC   C2B 4187   9.901   5.183   5.159
  308POPC   C3B 4188   9.758   5.181   5.609
  308POPC   C4B 4189   9.929   5.279   6.029
  309POPC   NC3 4190  11.087   9.396   3.870
  309POPC   PO4 4191   0.100   9.276   4.089
  309POPC   GL1 4192  11.288   9.541   4.347
  309POPC   GL2 4193  10.923   9.449   4.347
  309POPC   C1A 4194  11.443   9.635   4.784
  309POPC   D2A 4195  11.235   9.658   5.163
  309POPC   C3A 4196  11.388   9.560   5.548
  309POPC   C4A 4197  11.490   9.197   5.793
  309POPC   C1B 4198  10.914   9.603   4.744
  309POPC   C2B 4199  10.731   9.559   5.122
  309POPC   C3B 4200  10.859   9.614   5.522
  309POPC   C4B 4201  10.984   9.691   5.941
  310POPC   NC3 4202   9.716   3.326   3.681
  310POPC   PO4 4203   9.761   3.901   4.009
  310POPC   GL1 4204   9.667   3.632   4.359
  310POPC   GL2 4205   9.633   3.250   4.414
  310POPC   C1A 4206   9.684   3.758   4.785
  310POPC   D2A 4207   9.843   3.998   5.127
  310POPC   C3A 4208   9.893   3.772   5.517
  310POPC   C4A 4209   9.761   3.694   5.939
  310POPC   C1B 4210   9.726   3.250   4.841
  310POPC   C2B 4211   9.580   3.473   5.207
  310POPC   C3B 4212   9.521   3.377   5.645
  310POPC   C4B 4213   9.714   3.166   6.008
  311POPC   NC3 4214   3.189   0.301   3.713
  311POPC   PO4 4215   3.735   0.224   3.961
  311POPC   GL1 4216   3.462   0.408   4.312
  311POPC   GL2 4217   3.678   0.688   4.402
  311POPC   C1A 4218   3.285   0.411   4.757
  311POPC   D2A 4219   3.029   0.474   5.170
  311POPC   C3A 4220   3.253   0.354   5.543
  311POPC   C4A 4221   3.627   0.064   5.566
  311POPC   C1B 4222   3.784   0.530   4.809
  311POPC   C2B 4223   3.647   0.462   5.224
  311POPC   C3B 4224   3.735   0.574   5.667
  311POPC   C4B 4225   3.777   0.727   6.126
  312POPC   NC3 4226   4.418  10.860   3.931
  312POPC   PO4 4227   4.190  10.133   3.882
  312POPC   GL1 4228   4.176  10.362   4.242
  312POPC   GL2 4229   4.518  10.446   4.226
  312POPC   C1A 4230   4.217  10.212   4.674
  312POPC   D2A 4231   4.018  10.195   5.083
  312POPC   C3A 4232   4.261  10.172   5.472
  312POPC   C4A 4233   4.218  10.073   5.958
  312POPC   C1B 4234   4.399  10.686   4.591
  312POPC   C2B 4235   4.359  10.581   5.018
  312POPC   C3B 4236   4.317  10.705   5.433
  312POPC   C4B 4237   4.316  10.530   5.819
  313POPC   NC3 4238   0.014   1.905   3.740
  313POPC   PO4 4239  10.859   2.026   3.798
  313POPC   GL1 4240  11.008   2.125   4.237
  313POPC   GL2 4241  11.351   2.004   4.223
  313POPC   C1A 4242  10.864   2.066   4.707
  313POPC   D2A 4243  10.894   1.861   5.133
  313POPC   C3A 4244  10.760   2.070   5.525
  313POPC   C4A 4245  10.976   2.246   5.874
  313POPC   C1B 4246  11.371   1.934   4.670
  313POPC   C2B 4247  11.318   2.156   5.069
  313POPC   C3B 4248  11.273   2.041   5.487
  313POPC   C4B 4249  11.092   1.702   5.667
  314POPC   NC3 4250  11.029   4.992   3.988
  314POPC   PO4 4251   0.016   5.460   3.854
  314POPC   GL1 4252  11.408   5.195   4.267
  314POPC   GL2 4253  11.049   5.204   4.437
  314POPC   C1A 4254  11.432   4.923   4.657
  314POPC   D2A 4255   0.098   5.090   5.080
  314POPC   C3A 4256  11.461   4.897   5.472
  314POPC   C4A 4257  11.462   4.986   5.921
  314POPC   C1B 4258  11.310   5.403   4.763
  314POPC   C2B 4259  11.234   5.472   5.205
  314POPC   C3B 4260  11.215   5.352   5.655
  314POPC   C4B 4261  10.930   5.097   5.947
  315POPC   NC3 4262  11.116  10.394   3.930
  315POPC   PO4 4263   0.090  10.858   3.712
  315POPC   GL1 4264  11.441  10.721   4.209
  315POPC   GL2 4265  11.401  10.392   4.382
  315POPC   C1A 4266  11.352  10.834   4.699
  315POPC   D2A 4267  11.283  10.940   5.164
  315POPC   C3A 4268   0.012  10.640   5.497
  315POPC   C4A 4269  11.361  10.517   5.907
  315POPC   C1B 4270  11.165  10.067   4.652
  315POPC   C2B 4271  10.906  10.041   5.051
  315POPC   C3B 4272  11.086  10.060   5.486
  315POPC   C4B 4273  11.457  10.039   5.735
  316POPC   NC3 4274   6.324  10.346   3.944
  316POPC   PO4 4275   6.871   9.935   4.011
  316POPC   GL1 4276   6.717  10.223   4.356
  316POPC   GL2 4277   6.474  10.523   4.386
  316POPC   C1A 4278   6.704  10.344   4.807
  316POPC   D2A 4279   6.700  10.558   5.190
  316POPC   C3A 4280   6.688  10.302   5.532
  316POPC   C4A 4281   6.704  10.444   5.933
  316POPC   C1B 4282   6.232  10.497   4.763
  316POPC   C2B 4283   6.228  10.285   5.136
  316POPC   C3B 4284   6.191  10.461   5.533
  316POPC   C4B 4285   6.283  10.182   5.837
  317POPC   NC3 4286   5.724   9.929   3.910
  317POPC   PO4 4287   5.578   9.273   4.084
  317POPC   GL1 4288   5.804   9.607   4.297
  317POPC   GL2 4289   5.628   9.890   4.408
  317POPC   C1A 4290   5.986   9.669   4.700
  317POPC   D2A 4291   5.893   9.765   5.122
  317POPC   C3A 4292   5.904   9.390   5.380
  317POPC   C4A 4293   5.662   9.193   5.739
  317POPC   C1B 4294   5.460   9.815   4.823
  317POPC   C2B 4295   5.402   9.871   5.256
  317POPC   C3B 4296   5.500   9.663   5.608
  317POPC   C4B 4297   5.886   9.674   5.786
  318POPC   NC3 4298   2.582   3.427   3.972
  318POPC   PO4 4299   2.604   4.036   3.852
  318POPC   GL1 4300   2.674   3.748   4.346
  318POPC   GL2 4301   2.799   3.371   4.408
  318POPC   C1A 4302   2.431   3.516   4.722
  318POPC   D2A 4303   2.315   3.681   5.101
  318POPC   C3A 4304   2.468   3.529   5.473
  318POPC   C4A 4305   2.592   3.505   5.914
  318POPC   C1B 4306   2.934   3.554   4.790
  318POPC   C2B 4307   3.038   3.345   5.174
  318POPC   C3B 4308   2.958   3.284   5.610
  318POPC   C4B 4309   3.088   3.648   5.864
  319POPC   NC3 4310  11.017   2.460   3.816
  319POPC   PO4 4311  11.230   3.105   3.874
  319POPC   GL1 4312  11.300   2.967   4.255
  319POPC   GL2 4313  11.281   2.623   4.224
  319POPC   C1A 4314  11.049   2.933   4.597
  319POPC   D2A 4315  10.730   3.072   4.885
  319POPC   C3A 4316  10.873   2.949   5.273
  319POPC   C4A 4317  10.975   3.081   5.672
  319POPC   C1B 4318  11.225   2.440   4.600
  319POPC   C2B 4319  11.199   2.646   4.994
  319POPC   C3B 4320  11.204   2.545   5.416
  319POPC   C4B 4321  11.210   2.680   5.832
  320POPC   NC3 4322   9.369   4.163   3.996
  320POPC   PO4 4323   9.957   4.576   3.876
  320POPC   GL1 4324   9.877   4.517   4.327
  320POPC   GL2 4325   9.709   4.208   4.406
  320POPC   C1A 4326   9.917   4.466   4.802
  320POPC   D2A 4327   9.856   4.651   5.206
  320POPC   C3A 4328   9.826   4.358   5.496
  320POPC   C4A 4329   9.677   4.266   5.841
  320POPC   C1B 4330   9.482   4.213   4.785
  320POPC   C2B 4331   9.422   4.300   5.208
  320POPC   C3B 4332   9.404   3.974   5.523
  320POPC   C4B 4333   9.323   3.932   5.970
  321POPC   NC3 4334   7.260  10.049   3.754
  321POPC   PO4 4335   7.083   9.404   3.884
  321POPC   GL1 4336   7.132   9.461   4.324
  321POPC   GL2 4337   7.489   9.409   4.340
  321POPC   C1A 4338   7.213   9.456   4.795
  321POPC   D2A 4339   7.592   9.415   5.121
  321POPC   C3A 4340   7.464   9.320   5.553
  321POPC   C4A 4341   7.043   9.396   5.702
  321POPC   C1B 4342   7.632   9.683   4.694
  321POPC   C2B 4343   7.409   9.904   4.999
  321POPC   C3B 4344   7.231   9.720   5.337
  321POPC   C4B 4345   7.221   9.985   5.685
  322POPC   NC3 4346  10.306  10.407   3.902
  322POPC   PO4 4347  10.900  10.587   4.292
  322POPC   GL1 4348  10.514  10.457   4.468
  322POPC   GL2 4349  10.174  10.513   4.407
  322POPC   C1A 4350  10.392  10.410   4.906
  322POPC   D2A 4351  10.514  10.265   5.312
  322POPC   C3A 4352  10.806  10.479   5.603
  322POPC   C4A 4353  11.054  10.839   5.621
  322POPC   C1B 4354  10.059  10.133   4.636
  322POPC   C2B 4355   9.932  10.120   5.110
  322POPC   C3B 4356  10.065  10.197   5.524
  322POPC   C4B 4357  10.346  10.399   5.808
  323POPC   NC3 4358   2.368  10.188   4.024
  323POPC   PO4 4359   1.759  10.007   3.974
  323POPC   GL1 4360   1.890  10.341   4.189
  323POPC   GL2 4361   2.061  10.124   4.424
  323POPC   C1A 4362   1.842  10.572   4.581
  323POPC   D2A 4363   1.909  10.688   5.012
  323POPC   C3A 4364   2.067  10.470   5.358
  323POPC   C4A 4365   1.929  10.616   5.740
  323POPC   C1B 4366   2.005  10.167   4.863
  323POPC   C2B 4367   1.770   9.932   5.147
  323POPC   C3B 4368   1.803  10.086   5.534
  323POPC   C4B 4369   2.160  10.171   5.829
  324POPC   NC3 4370   2.672   9.280   3.710
  324POPC   PO4 4371   2.603   9.916   3.750
  324POPC   GL1 4372   2.627   9.912   4.335
  324POPC   GL2 4373   2.922   9.682   4.487
  324POPC   C1A 4374   2.542   9.807   4.797
  324POPC   D2A 4375   2.733   9.496   5.101
  324POPC   C3A 4376   2.539   9.535   5.503
  324POPC   C4A 4377   2.528   9.825   5.835
  324POPC   C1B 4378   3.082   9.931   4.840
  324POPC   C2B 4379   3.072   9.937   5.302
  324POPC   C3B 4380   2.984   9.708   5.676
  324POPC   C4B 4381   2.994   9.852   6.114
  325POPC   NC3 4382  10.277   8.641   3.864
  325POPC   PO4 4383  10.653   9.256   3.770
  325POPC   GL1 4384  10.644   9.057   4.170
  325POPC   GL2 4385  10.340   8.915   4.280
  325POPC   C1A 4386  10.764   8.908   4.596
  325POPC   D2A 4387  10.822   8.592   4.935
  325POPC   C3A 4388  10.794   8.778   5.317
  325POPC   C4A 4389  10.597   8.804   5.672
  325POPC   C1B 4390  10.238   8.994   4.702
  325POPC   C2B 4391  10.302   8.834   5.129
  325POPC   C3B 4392  10.070   8.961   5.489
  325POPC   C4B 4393  10.226   9.077   5.876
  326POPC   NC3 4394  10.143   4.127   3.896
  326POPC   PO4 4395  10.720   4.595   3.923
  326POPC   GL1 4396  10.614   4.220   4.175
  326POPC   GL2 4397  10.294   4.217   4.356
  326POPC   C1A 4398  10.708   4.052   4.605
  326POPC   D2A 4399  10.890   4.157   4.997
  326POPC   C3A 4400  10.737   4.042   5.392
  326POPC   C4A 4401  10.705   4.295   5.741
  326POPC   C1B 4402  10.181   4.022   4.717
  326POPC   C2B 4403  10.320   4.236   5.076
  326POPC   C3B 4404  10.315   4.427   5.458
  326POPC   C4B 4405  10.187   4.132   5.781
  327POPC   NC3 4406   2.475   8.984   4.131
  327POPC   PO4 4407   3.068   9.035   3.803
  327POPC   GL1 4408   2.978   8.980   4.283
  327POPC   GL2 4409   2.832   8.637   4.280
  327POPC   C1A 4410   2.721   9.073   4.728
  327POPC   D2A 4411   2.428   9.043   5.112
  327POPC   C3A 4412   2.643   9.054   5.519
  327POPC   C4A 4413   3.054   9.192   5.646
  327POPC   C1B 4414   2.983   8.626   4.723
  327POPC   C2B 4415   2.834   8.715   5.161
  327POPC   C3B 4416   2.724   8.567   5.603
  327POPC   C4B 4417   3.056   8.669   5.907
  328POPC   NC3 4418   0.685   2.653   3.720
  328POPC   PO4 4419   1.384   2.630   3.939
  328POPC   GL1 4420   1.122   2.457   4.283
  328POPC   GL2 4421   1.471   2.363   4.438
  328POPC   C1A 4422   1.032   2.404   4.727
  328POPC   D2A 4423   1.075   2.763   4.997
  328POPC   C3A 4424   1.061   2.964   5.369
  328POPC   C4A 4425   1.042   2.738   5.740
  328POPC   C1B 4426   1.388   2.785   4.584
  328POPC   C2B 4427   1.468   3.069   4.888
  328POPC   C3B 4428   1.603   3.027   5.291
  328POPC   C4B 4429   1.424   3.119   5.690
  329POPC   NC3 4430   5.367   2.227   3.996
  329POPC   PO4 4431   5.997   1.954   3.960
  329POPC   GL1 4432   5.923   1.777   4.349
  329POPC   GL2 4433   5.604   1.933   4.370
  329POPC   C1A 4434   5.823   1.677   4.786
  329POPC   D2A 4435   5.901   1.939   5.123
  329POPC   C3A 4436   6.059   1.813   5.514
  329POPC   C4A 4437   6.087   2.199   5.745
  329POPC   C1B 4438   5.353   1.885   4.759
  329POPC   C2B 4439   5.414   1.840   5.207
  329POPC   C3B 4440   5.579   1.979   5.599
  329POPC   C4B 4441   5.691   1.682   5.899
  330POPC   NC3 4442  10.244   9.346   4.033
  330POPC   PO4 4443  10.025   9.925   3.783
  330POPC   GL1 4444  10.201   9.813   4.244
  330POPC   GL2 4445  10.556   9.764   4.176
  330POPC   C1A 4446  10.380   9.512   4.637
  330POPC   D2A 4447  10.260   9.356   5.077
  330POPC   C3A 4448  10.490   9.266   5.466
  330POPC   C4A 4449  10.493   9.507   5.876
  330POPC   C1B 4450  10.577   9.976   4.603
  330POPC   C2B 4451  10.357   9.880   4.993
  330POPC   C3B 4452  10.361   9.778   5.427
  330POPC   C4B 4453  10.618   9.993   5.724
  331POPC   NC3 4454   2.805  10.260   3.542
  331POPC   PO4 4455   3.206  10.243   4.036
  331POPC   GL1 4456   3.016  10.239   4.410
  331POPC   GL2 4457   2.777  10.470   4.308
  331POPC   C1A 4458   2.957  10.447   4.813
  331POPC   D2A 4459   2.935  10.441   5.239
  331POPC   C3A 4460   2.658  10.206   5.481
  331POPC   C4A 4461   2.867  10.243   5.837
  331POPC   C1B 4462   2.502  10.299   4.636
  331POPC   C2B 4463   2.452  10.386   5.040
  331POPC   C3B 4464   2.521  10.735   5.322
  331POPC   C4B 4465   2.510  10.627   5.755
  332POPC   NC3 4466   8.792   8.213   3.891
  332POPC   PO4 4467   9.243   7.820   3.651
  332POPC   GL1 4468   9.101   7.953   4.206
  332POPC   GL2 4469   9.091   8.318   4.310
  332POPC   C1A 4470   9.305   7.948   4.654
  332POPC   D2A 4471   9.183   7.867   5.106
  332POPC   C3A 4472   9.012   7.937   5.524
  332POPC   C4A 4473   9.200   7.735   5.861
  332POPC   C1B 4474   8.851   8.153   4.704
  332POPC   C2B 4475   8.688   8.050   5.146
  332POPC   C3B 4476   8.532   8.177   5.598
  332POPC   C4B 4477   8.463   8.317   6.058
  333POPC   NC3 4478   2.819   4.421   3.951
  333POPC   PO4 4479   3.269   4.644   4.285
  333POPC   GL1 4480   2.761   4.600   4.413
  333POPC   GL2 4481   2.540   4.263   4.371
  333POPC   C1A 4482   2.548   4.533   4.809
  333POPC   D2A 4483   2.764   4.363   5.180
  333POPC   C3A 4484   2.598   4.502   5.572
  333POPC   C4A 4485   2.681   4.734   5.956
  333POPC   C1B 4486   2.584   4.010   4.783
  333POPC   C2B 4487   2.774   3.849   5.198
  333POPC   C3B 4488   2.711   3.950   5.648
  333POPC   C4B 4489   2.880   4.228   5.952
  334POPC   NC3 4490   8.894   9.747   3.941
  334POPC   PO4 4491   8.415   9.399   4.222
  334POPC   GL1 4492   8.774   9.519   4.386
  334POPC   GL2 4493   8.755   9.884   4.389
  334POPC   C1A 4494   8.724   9.518   4.807
  334POPC   D2A 4495   8.758   9.486   5.209
  334POPC   C3A 4496   8.522   9.417   5.546
  334POPC   C4A 4497   8.779   9.432   5.892
  334POPC   C1B 4498   8.867  10.015   4.761
  334POPC   C2B 4499   8.947   9.935   5.140
  334POPC   C3B 4500   8.807   9.843   5.549
  334POPC   C4B 4501   8.993   9.884   5.930
  335POPC   NC3 4502   0.289   7.078   3.973
  335POPC   PO4 4503   0.006   7.648   3.818
  335POPC   GL1 4504   0.180   7.554   4.233
  335POPC   GL2 4505   0.534   7.468   4.252
  335POPC   C1A 4506   0.326   7.595   4.681
  335POPC   D2A 4507   0.284   7.384   5.062
  335POPC   C3A 4508   0.353   7.558   5.465
  335POPC   C4A 4509   0.209   7.337   5.853
  335POPC   C1B 4510   0.550   7.122   4.582
  335POPC   C2B 4511   0.606   6.976   5.007
  335POPC   C3B 4512   0.705   7.194   5.389
  335POPC   C4B 4513   0.720   7.385   5.818
  336POPC   NC3 4514   4.422   1.463   3.469
  336POPC   PO4 4515   4.481   1.487   4.110
  336POPC   GL1 4516   4.429   1.414   4.497
  336POPC   GL2 4517   4.289   1.089   4.464
  336POPC   C1A 4518   4.621   1.286   4.875
  336POPC   D2A 4519   4.483   0.988   5.200
  336POPC   C3A 4520   4.510   1.146   5.620
  336POPC   C4A 4521   4.431   1.434   5.979
  336POPC   C1B 4522   3.910   1.030   4.746
  336POPC   C2B 4523   3.831   0.969   5.205
  336POPC   C3B 4524   4.015   1.156   5.581
  336POPC   C4B 4525   3.938   1.251   6.012
  337POPC   NC3 4526   2.769   0.095   3.999
  337POPC   PO4 4527   2.936   0.722   3.795
  337POPC   GL1 4528   2.959   0.619   4.285
  337POPC   GL2 4529   2.914   0.264   4.453
  337POPC   C1A 4530   2.862   0.714   4.748
  337POPC   D2A 4531   2.630   0.788   5.167
  337POPC   C3A 4532   2.862   0.767   5.588
  337POPC   C4A 4533   2.796   0.560   6.010
  337POPC   C1B 4534   2.551   0.311   4.775
  337POPC   C2B 4535   2.487   0.303   5.239
  337POPC   C3B 4536   2.724   0.234   5.612
  337POPC   C4B 4537   2.591  11.478   5.959
  338W        W 4538   4.578   7.135   1.917
  339W        W 4539   5.148   6.009   0.001
  340W        W 4540   7.839   4.661  10.360
  341W        W 4541  10.025   0.233  10.590
  342W        W 4542   0.214   4.735   3.517
  343W        W 4543   7.477   3.857  10.486
  344W        W 4544  10.861   8.803  11.748
  345W        W 4545   8.569   3.203   8.912
  346W        W 4546   1.424   0.902   0.898
  347W        W 4547   1.256   6.506  10.834
  348W        W 4548   4.328   9.030   2.225
  349W        W 4549   7.647   6.541   2.716
  350W        W 4550  11.368   0.994   2.140
  351W        W 4551  10.028   2.852   3.673
  352W        W 4552   0.478  11.398   3.244
  353W        W 4553   2.245  10.432  10.442
  354W        W 4554  10.719   5.808  11.467
  355W        W 4555   3.823   7.628   0.898
  356W        W 4556  11.492   8.164  11.808
  357W        W 4557  11.099   7.993   2.202
  358W        W 4558   5.984   3.666   7.927
  359W        W 4559   5.970   4.098   3.956
  360W        W 4560   2.541   3.024   0.095
  361W        W 4561   9.170   5.283   2.903
  362W        W 4562   2.432  10.329   0.449
  363W        W 4563   2.634  10.993   3.541
  364W        W 4564   4.646   0.367   0.458
  365W        W 4565   6.229   0.365   2.801
  366W        W 4566   2.349   5.766   0.953
  367W        W 4567   9.334  11.125  10.306
  368W        W 4568   7.259   6.148  10.494
  369W        W 4569   5.811   6.837  11.493
  370W        W 4570  11.281  10.566  11.305
  371W        W 4571   2.201  10.870   3.313
  372W        W 4572   7.966   8.413   1.831
  373W        W 4573   7.014   4.742   1.432
  374W        W 4574   0.879   1.396  10.458
  375W        W 4575   5.655   0.504   0.019
  376W        W 4576  10.442   2.787   3.167
  377W        W 4577   2.659   8.757   3.720
  378W        W 4578   3.280   8.569   0.822
  379W        W 4579   5.244   2.430  10.772
  380W        W 4580   2.714   2.571   9.884
  381W        W 4581   2.669   4.743   3.373
  382W        W 4582   3.814   9.009   3.048
  383W        W 4583   6.081   0.490   9.315
  384W        W 4584   6.754   6.476   1.984
  385W        W 4585   5.837   4.144   8.155
  386W        W 4586   0.609   2.473  11.826
  387W        W 4587   1.757   5.370  10.386
  388W        W 4588   0.587   2.803   0.692
  389W        W 4589   3.237   1.514   0.029
  390W        W 4590   6.603   1.009   0.877
  391W        W 4591   6.067   7.409  10.280
  392W        W 4592   4.410   8.912   0.755
  393W        W 4593   2.653   4.131   9.788
  394W        W 4594   3.702   4.741  11.657
  395W        W 4595  10.776   6.742  11.092
  396W        W 4596   0.963  10.518   2.754
  397W        W 4597   9.581   0.308   1.964
  398W        W 4598   8.915   2.465  10.962
  399W        W 4599   9.200   8.946   3.013
  400W        W 4600   9.155  10.816   9.950
  401W        W 4601   8.990  11.301   1.680
  402W        W 4602   9.044   9.538   9.900
  403W        W 4603   5.232   9.236   1.313
  404W        W 4604   9.366  10.409  11.435
  405W        W 4605   7.677   5.236   0.734
  406W        W 4606   1.494   2.808   1.477
  407W        W 4607   3.855   4.646   2.745
  408W        W 4608   5.688  10.344  11.325
  409W        W 4609  10.477   3.259   9.042
  410W        W 4610   9.835  10.590  11.458
  411W        W 4611   4.254   1.768  10.587
  412W        W 4612   3.204   8.199   9.576
  413W        W 4613  10.509   4.633   1.458
  414W        W 4614   1.112   8.371   8.856
  415W        W 4615  11.360   4.366   0.563
  416W        W 4616  10.436   7.410   1.675
  417W        W 4617   6.581   7.592  11.458
  418W        W 4618   5.527   6.165   0.305
  419W        W 4619   4.203   2.822   0.449
  420W        W 4620   4.713   6.222   0.152
  421W        W 4621   8.051   9.989  10.874
  422W        W 4622   9.462  11.298   1.901
  423W        W 4623   4.314   0.164   9.750
  424W        W 4624   7.100   4.292   0.085
  425W        W 4625   9.074   7.229   3.478
  426W        W 4626   9.465   4.231  11.525
  427W        W 4627   5.426   3.574   9.117
  428W        W 4628  10.606   8.869   0.389
  429W        W 4629   5.631  11.219   2.200
  430W        W 4630   5.692   4.505   2.969
  431W        W 4631   5.104  11.481  10.605
  432W        W 4632   5.759   3.267  10.304
  433W        W 4633  10.936   8.061  11.107
  434W        W 4634   1.841   3.219   3.124
  435W        W 4635  11.217   0.394  10.807
  436W        W 4636   6.008  10.071  11.695
  437W        W 4637   3.643   5.157   8.101
  438W        W 4638   4.740   8.871   8.140
  439W        W 4639   2.249  10.250   9.891
  440W        W 4640   1.751   9.834   0.027
  441W        W 4641   6.976   2.668   1.625
  442W        W 4642  10.028   2.374  10.843
  443W        W 4643   0.347   0.405   9.021
  444W        W 4644   6.464   0.177  11.025
  445W        W 4645   6.489   3.829   9.845
  446W        W 4646   0.955   6.316   3.973
  447W        W 4647   9.289   9.396   8.925
  448W        W 4648   5.243   7.360   1.711
  449W        W 4649  10.235   7.655   0.843
  450W        W 4650   9.134   5.042  11.936
  451W        W 4651   4.982  10.548  10.644
  452W        W 4652   1.333   3.416  10.646
  453W        W 4653   2.690   4.029  11.955
  454W        W 4654   4.476   0.354   8.826
  455W        W 4655   4.745   3.142   2.770
  456W        W 4656   4.043   4.280  11.421
  457W        W 4657   2.616  10.311   0.936
  458W        W 4658  10.792   1.777  10.936
  459W        W 4659   6.967   9.720   3.496
  460W        W 4660  10.895   0.920   0.254
  461W        W 4661   9.852   1.250   9.800
  462W        W 4662   8.442   9.150   8.963
  463W        W 4663   2.465   5.360   1.657
  464W        W 4664   7.740   3.854   4.055
  465W        W 4665   1.046   6.607   8.373
  466W        W 4666   7.399   7.518  10.745
  467W        W 4667   2.156   6.511   3.275
  468W        W 4668   8.776   9.463   1.794
  469W        W 4669   9.512   0.585   9.804
  470W        W 4670   8.126   4.635  10.777
  471W        W 4671   2.113   2.305   0.232
  472W        W 4672  11.166   4.971  11.141
  473W        W 4673   8.375   5.585   0.331
  474W        W 4674   1.346   3.384  11.647
  475W        W 4675   2.344   3.731  10.010
  476W        W 4676   6.227   1.038   9.905
  477W        W 4677   6.577   6.914   2.201
  478W        W 4678  11.042  11.291   2.197
  479W        W 4679   3.508   6.151   1.773
  480W        W 4680   4.669   2.215  11.293
  481W        W 4681   9.552   0.293  11.371
  482W        W 4682   9.436   9.118  10.284
  483W        W 4683  10.436   8.680  11.444
  484W        W 4684   6.000   6.918   0.840
  485W        W 4685   2.506   8.190   9.105
  486W        W 4686   2.907  10.642   3.226
  487W        W 4687   5.756   3.659  11.375
  488W        W 4688   9.632   7.209   9.494
  489W        W 4689  10.565   7.026  11.906
  490W        W 4690   3.325   6.949  11.466
  491W        W 4691  11.304  11.129   0.065
  492W        W 4692   2.737   4.538   0.064
  493W        W 4693   6.572   4.075   9.380
  494W        W 4694   4.028   8.331   3.509
  495W        W 4695   1.244   9.933  10.749
  496W        W 4696   7.626  11.062   1.688
  497W        W 4697  10.010   3.747  11.621
  498W        W 4698  11.121   5.467  10.880
  499W        W 4699   7.216   4.002   2.466
  500W        W 4700   1.854   6.123  11.339
  501W        W 4701   9.756   9.028   0.891
  502W        W 4702   8.459   1.628  10.855
  503W        W 4703   9.624  11.225   2.783
  504W        W 4704   1.374   1.746   0.683
  505W        W 4705   4.325   9.162   1.206
  506W        W 4706   0.342   4.732  11.691
  507W        W 4707   0.581   4.226   0.714
  508W        W 4708  10.497  10.225   0.678
  509W        W 4709   0.796   0.333  11.822
  510W        W 4710   8.461   5.449   3.784
  511W        W 4711   0.855  10.778   9.863
  512W        W 4712   4.704   0.897   2.158
  513W        W 4713   3.595   8.549  11.739
  514W        W 4714   3.419   8.078   3.139
  515W        W 4715   4.269   3.329   2.826
  516W        W 4716   1.176   7.825   1.056
  517W        W 4717   8.765   1.521   2.990
  518W        W 4718   5.275   8.691   8.622
  519W        W 4719   8.087   1.202   9.317
  520W        W 4720   0.915  11.313   0.917
  521W        W 4721   6.668   5.586   2.495
  522W        W 4722   4.362   1.357   9.485
  523W        W 4723   2.159   6.581   1.309
  524W        W 4724   0.902   7.959   9.094
  525W        W 4725   3.544   0.437   2.332
  526W        W 4726   1.984   3.729   8.493
  527W        W 4727   7.160   1.400  11.448
  528W        W 4728   3.690   6.559   3.093
  529W        W 4729   0.825   6.596  10.017
  530W        W 4730   1.596   5.324   0.828
  531W        W 4731   1.610   2.704  11.668
  532W        W 4732   6.411   8.874  10.255
  533W        W 4733   3.139  11.064   3.435
  534W        W 4734  10.617   0.318   1.737
  535W        W 4735  10.014   8.605   9.700
  536W        W 4736   5.256   3.568  11.339
  537W        W 4737  10.576   3.096  11.570
  538W        W 4738   1.742   0.521   2.624
  539W        W 4739   5.528   3.499   4.278
  540W        W 4740   2.463   8.540  10.762
  541W        W 4741   1.744   7.939   3.009
  542W        W 4742   7.981   3.459   2.111
  543W        W 4743   9.661   9.628   0.086
  544W        W 4744   7.922  11.306   2.978
  545W        W 4745   9.998   7.436   0.458
  546W        W 4746   5.560   8.569  10.679
  547W        W 4747   2.119   0.969   9.388
  548W        W 4748   7.238   1.262   2.276
  549W        W 4749   7.150  10.391  10.868
  550W        W 4750   0.715   6.445   2.794
  551W        W 4751   2.308   1.725   2.435
  552W        W 4752   5.702   4.221   0.114
  553W        W 4753   2.046   5.233  11.741
  554W        W 4754   0.473   5.102   2.828
  555W        W 4755   4.144   8.535  10.511
  556W        W 4756   3.351   9.386   1.919
  557W        W 4757   5.255   8.269   2.983
  558W        W 4758  10.042   3.517   0.064
  559W        W 4759   0.700   3.628   2.849
  560W        W 4760   9.604   1.425  10.601
  561W        W 4761   4.340   6.565   1.723
  562W        W 4762  11.149   9.512   9.534
  563W        W 4763   9.267   9.432   3.108
  564W        W 4764   3.967  11.017   3.154
  565W        W 4765   7.031  11.055   1.542
  566W        W 4766   2.179   9.799  10.786
  567W        W 4767   4.129   2.644   2.332
  568W        W 4768   6.203   4.126   8.638
  569W        W 4769   3.249   0.015   2.194
  570W        W 4770   6.080   7.174   3.970
  571W        W 4771  10.475   6.485   2.824
  572W        W 4772   3.421   8.953   3.402
  573W        W 4773   6.719  11.067   0.547
  574W        W 4774   6.122   3.026   8.625
  575W        W 4775   5.574   5.565  10.003
  576W        W 4776   1.357   4.190   2.863
  577W        W 4777   7.627   0.501  11.565
  578W        W 4778   6.914   6.533   0.703
  579W        W 4779   2.317   4.818  10.954
  580W        W 4780   0.499   1.311   9.875
  581W        W 4781   5.936   0.591   9.844
  582W        W 4782   7.599   2.472   1.213
  583W        W 4783   3.805   2.319  11.769
  584W        W 4784   8.240   1.312   1.748
  585W        W 4785   0.731   9.064   3.034
  586W        W 4786   9.962  11.399   9.858
  587W        W 4787   4.891   1.830   3.310
  588W        W 4788   3.641   1.628   9.036
  589W        W 4789   7.376   7.134  11.490
  590W        W 4790   3.178   4.228   2.783
  591W        W 4791   5.622   7.550  10.483
  592W        W 4792  10.465   4.708   1.947
  593W        W 4793   5.148   5.591   0.310
  594W        W 4794   9.436   7.701   9.416
  595W        W 4795   4.956   1.412  11.550
  596W        W 4796   4.930   3.121   8.647
  597W        W 4797   0.318   9.053   9.250
  598W        W 4798   3.755   5.169   2.658
  599W        W 4799  10.331   4.748   2.416
  600W        W 4800   4.345   1.706  11.508
  601W        W 4801   2.237   3.600   1.751
  602W        W 4802  10.899   8.461  11.396
  603W        W 4803   3.737  11.330  10.875
  604W        W 4804   5.725   0.117   1.863
  605W        W 4805   1.646   1.885   1.763
  606W        W 4806   6.210   3.399   0.019
  607W        W 4807   5.055   8.107  11.273
  608W        W 4808   2.863   7.395   0.678
  609W        W 4809   3.530   2.872  11.265
  610W        W 4810   4.234   9.567   8.924
  611W        W 4811   5.640   6.578   1.147
  612W        W 4812  10.715   9.452  11.111
  613W        W 4813   3.719   7.496   3.088
  614W        W 4814   1.310   8.674  11.918
  615W        W 4815   0.204   3.020   9.288
  616W        W 4816   2.716   3.601   1.529
  617W        W 4817   3.177   2.962   2.320
  618W        W 4818   1.917   8.540   9.911
  619W        W 4819   4.657   2.909  11.833
  620W        W 4820   1.953   9.458   2.569
  621W        W 4821   4.079  10.271  11.838
  622W        W 4822   3.642   6.261  11.899
  623W        W 4823   1.262   9.045   0.723
  624W        W 4824   5.168   1.027   9.957
  625W        W 4825   9.043   8.071   2.932
  626W        W 4826   2.755   8.343   1.503
  627W        W 4827   0.872   3.044  11.029
  628W        W 4828   9.170   0.967   8.642
  629W        W 4829   4.302   8.050  11.985
  630W        W 4830   6.116   8.686   3.650
  631W        W 4831   7.780   2.062  11.877
  632W        W 4832   1.305   9.862   3.007
  633W        W 4833   3.282   0.403   1.866
  634W        W 4834   4.191   5.955   8.254
  635W        W 4835   3.149   6.175   0.730
  636W        W 4836   7.577   6.883   9.943
  637W        W 4837  11.196   5.638   2.754
  638W        W 4838   1.421   9.509  10.485
  639W        W 4839   7.423  11.173  11.869
  640W        W 4840   2.022   2.291  10.465
  641W        W 4841   9.301   9.909  11.367
  642W        W 4842   2.347  11.046   9.114
  643W        W 4843   8.339   6.121   3.145
  644W        W 4844   3.278   3.501   4.062
  645W        W 4845   6.520   1.828   0.449
  646W        W 4846   5.305   7.641   0.812
  647W        W 4847  10.801   6.479   3.521
  648W        W 4848   9.415   0.846   9.087
  649W        W 4849   3.607   4.980  10.786
  650W        W 4850   6.031   9.941  11.192
  651W        W 4851   1.695   4.117   9.415
  652W        W 4852   1.641   7.116   1.001
  653W        W 4853   8.138   3.390   2.614
  654W        W 4854   7.358   0.933  11.408
  655W        W 4855   7.053   1.859   1.636
  656W        W 4856   5.221   2.662  11.787
  657W        W 4857   7.924   9.001   0.835
  658W        W 4858  10.054   4.325   9.361
  659W        W 4859   9.883   3.925   3.048
  660W        W 4860   7.435   5.982   9.863
  661W        W 4861   8.528   1.400  11.464
  662W        W 4862   1.447   8.168   1.316
  663W        W 4863   8.009  10.788   0.568
  664W        W 4864   5.226   0.650   0.931
  665W        W 4865   8.228   6.096   0.378
  666W        W 4866   9.098   8.064  10.745
  667W        W 4867   5.468   6.521   9.164
  668W        W 4868   6.220   9.880   8.611
  669W        W 4869   9.948   5.639   9.018
  670W        W 4870  11.230   3.798   2.685
  671W        W 4871   7.539   4.703   1.654
  672W        W 4872   8.535   8.981  11.974
  673W        W 4873   2.688   6.164   1.990
  674W        W 4874   1.247   6.557  10.316
  675W        W 4875   4.780   9.431   1.169
  676W        W 4876   5.195   9.406   9.986
  677W        W 4877   5.178   8.536   2.064
  678W        W 4878  11.401   2.945   8.880
  679W        W 4879   0.802   9.088   0.501
  680W        W 4880   6.029   2.063   2.767
  681W        W 4881   4.078   2.887  11.091
  682W        W 4882   7.063   0.090   9.233
  683W        W 4883   1.766   7.957   0.370
  684W        W 4884  10.870   6.374   9.296
  685W        W 4885   1.288   6.489   9.783
  686W        W 4886   9.015  10.853   2.033
  687W        W 4887   8.049   7.155   0.679
  688W        W 4888   1.206  10.891   9.502
  689W        W 4889   1.411   6.956  10.997
  690W        W 4890   8.599   9.810   9.808
  691W        W 4891   8.846   4.066  11.749
  692W        W 4892   6.260   2.216   3.213
  693W        W 4893   6.028   9.478   0.806
  694W        W 4894   1.122   0.290  10.873
  695W        W 4895   4.740   5.659   0.636
  696W        W 4896   4.208   7.542  10.501
  697W        W 4897   8.961   8.672   8.487
  698W        W 4898   2.961   5.286   1.584
  699W        W 4899   6.347   3.305   1.337
  700W        W 4900   6.523   8.376  11.013
  701W        W 4901   4.058   7.251   2.782
  702W        W 4902  10.763   4.183  10.052
  703W        W 4903   2.681   1.217  10.824
  704W        W 4904   9.176   5.909  10.772
  705W        W 4905   6.998   0.615  11.213
  706W        W 4906   7.133   6.206   2.256
  707W        W 4907   3.087   3.110   9.523
  708W        W 4908   4.952   5.217  11.481
  709W        W 4909   4.122   0.270   1.527
  710W        W 4910   0.877   1.278   1.453
  711W        W 4911   4.647   2.820   3.455
  712W        W 4912  10.400   6.468   9.015
  713W        W 4913   2.632   6.150   2.867
  714W        W 4914   9.972   8.878  11.575
  715W        W 4915   8.255   0.306  10.494
  716W        W 4916   8.821   0.253   1.819
  717W        W 4917   6.589   8.174   1.979
  718W        W 4918   4.142   6.064   0.830
  719W        W 4919   6.285   1.440  11.639
  720W        W 4920   8.009   6.461   0.010
  721W        W 4921   2.657   3.285   0.542
  722W        W 4922   1.242   0.782   9.944
  723W        W 4923   4.700   5.680  11.511
  724W        W 4924   2.986   3.741   2.839
  725W        W 4925  11.067   1.615   2.835
  726W        W 4926   6.913   7.510  11.862
  727W        W 4927   3.780  10.878   8.987
  728W        W 4928   4.915  10.767   3.460
  729W        W 4929   4.397   0.716  11.664
  730W        W 4930  10.444   6.894  10.728
  731W        W 4931   6.640   1.566   0.868
  732W        W 4932   0.219   3.507   9.905
  733W        W 4933   5.007  10.362  11.972
  734W        W 4934   0.833   7.149   0.487
  735W        W 4935   6.103   2.697   1.218
  736W        W 4936   8.894   1.462   1.732
  737W        W 4937   1.189  10.137   3.467
  738W        W 4938  10.926   1.301  10.661
  739W        W 4939   1.641  11.442  10.112
  740W        W 4940   1.139   7.308   1.041
  741W        W 4941   2.107   6.213   0.927
  742W        W 4942   4.513   3.205   2.249
  743W        W 4943  10.030  10.840  10.894
  744W        W 4944  10.359   8.838  10.933
  745W        W 4945   8.096  10.172  10.411
  746W        W 4946  10.001   7.196   1.889
  747W        W 4947   5.471   8.433   9.036
  748W        W 4948   3.818  10.438   1.425
  749W        W 4949   4.804   0.996  11.795
  750W        W 4950   1.262  10.675   1.921
  751W        W 4951   1.788   2.416   2.821
  752W        W 4952   6.690   5.212   1.395
  753W        W 4953  10.007   8.476   9.217
  754W        W 4954   3.355   4.685   2.611
  755W        W 4955   4.587   3.703   1.993
  756W        W 4956   4.295   2.437  10.977
  757W        W 4957   8.575   1.942   9.362
  758W        W 4958  11.303   4.253   9.393
  759W        W 4959   9.448   5.537  10.017
  760W        W 4960   8.381   8.079  10.010
  761W        W 4961   6.947   4.188   0.579
  762W        W 4962   1.258   5.337   1.272
  763W        W 4963   3.460   3.217  10.381
  764W        W 4964   4.710   0.376   9.390
  765W        W 4965   9.751   6.711   8.217
  766W        W 4966   8.184   0.438   9.968
  767W        W 4967   6.323   6.115  11.471
  768W        W 4968   5.177   4.827  11.736
  769W        W 4969   2.244   3.838   8.941
  770W        W 4970  11.496  11.221   0.986
  771W        W 4971   9.945   6.170   8.907
  772W        W 4972   1.133   9.534   9.003
  773W        W 4973   6.286   5.286   1.769
  774W        W 4974   7.925   9.801  11.799
  775W        W 4975   4.559   2.294  10.021
  776W        W 4976   0.403   0.319   1.933
  777W        W 4977   7.481   1.003   3.016
  778W        W 4978   7.474   1.475  10.486
  779W        W 4979   0.059   7.309   0.356
  780W        W 4980  10.709   2.939   9.418
  781W        W 4981   8.480   2.386  11.238
  782W        W 4982   5.748   3.682   2.298
  783W        W 4983   7.234   8.450  11.946
  784W        W 4984   7.802   4.225   1.590
  785W        W 4985   0.152   6.140   9.867
  786W        W 4986   4.775   4.128   9.597
  787W        W 4987   7.668   9.548   9.769
  788W        W 4988   5.577   0.288  11.551
  789W        W 4989   5.563   9.878   8.547
  790W        W 4990  11.242   2.227  10.606
  791W        W 4991   7.799   7.926   0.599
  792W        W 4992  11.055   7.009  11.949
  793W        W 4993   7.967   4.290   2.826
  794W        W 4994   6.751   8.064   0.253
  795W        W 4995  11.266   0.314   9.914
  796W        W 4996   7.557  10.586   2.621
  797W        W 4997   4.542   0.841  10.338
  798W        W 4998   7.449   5.212  11.764
  799W        W 4999   7.218   0.873   9.803
  800W        W 5000   6.645  11.345   9.104
  801W        W 5001   7.943   6.158   8.723
  802W        W 5002   4.611   3.085   0.304
  803W        W 5003   3.058   9.045  11.488
  804W        W 5004   7.539   1.703  11.077
  805W        W 5005   8.837   7.986   2.015
  806W        W 5006  11.308  10.790   0.758
  807W        W 5007   0.793   7.508  11.774
  808W        W 5008   4.733   7.493  11.317
  809W        W 5009   1.024   7.968   9.599
  810W        W 5010   9.842   6.544  11.774
  811W        W 5011   0.091  11.451  11.763
  812W        W 5012  10.537   0.330   9.269
  813W        W 5013   5.355   6.613   2.088
  814W        W 5014   2.903  10.126   1.785
  815W        W 5015   5.333   6.751  11.619
  816W        W 5016  10.233   5.678   9.441
  817W        W 5017  11.069   4.481  10.370
  818W        W 5018   6.455   3.773   8.946
  819W        W 5019   4.201   6.538   2.212
  820W        W 5020   4.038   6.702  10.018
  821W        W 5021   8.872   9.933  11.128
  822W        W 5022   8.954   1.100  11.440
  823W        W 5023   9.709   8.146   1.758
  824W        W 5024   3.740   9.503   2.321
  825W        W 5025   0.268   7.508   1.920
  826W        W 5026   4.698   9.810   8.829
  827W        W 5027   7.089   9.372  11.693
  828W        W 5028   5.433  10.345  10.325
  829W        W 5029   5.493   3.796   8.643
  830W        W 5030  10.463  11.345   9.845
  831W        W 5031  11.474   8.468  10.818
  832W        W 5032   1.305  10.873   2.967
  833W        W 5033   8.897   1.438  10.682
  834W        W 5034   7.240   0.089   9.712
  835W        W 5035  10.328   5.657   0.401
  836W        W 5036   8.622   3.725   8.172
  837W        W 5037  10.379   7.263  10.353
  838W        W 5038  10.333   2.923   9.754
  839W        W 5039   0.448   2.206  10.782
  840W        W 5040  10.924   0.063   0.790
  841W        W 5041   7.878   5.712   0.344
  842W        W 5042  10.879   0.710   9.882
  843W        W 5043   4.069   5.525  11.791
  844W        W 5044   3.732   8.939  10.084
  845W        W 5045   9.534  10.558  11.891
  846W        W 5046   4.669   0.492   0.960
  847W        W 5047   1.004   2.682   2.151
  848W        W 5048   1.973   0.445  11.055
  849W        W 5049  10.907   6.175  11.803
  850W        W 5050   9.354   5.664   0.675
  851W        W 5051   5.926   3.654   8.943
  852W        W 5052   1.622   9.390   2.156
  853W        W 5053   0.005   7.172   3.497
  854W        W 5054   8.003   7.204   2.548
  855W        W 5055   0.863   3.284  11.470
  856W        W 5056   6.565   0.287   1.988
  857W        W 5057   8.071   0.506   3.335
  858W        W 5058  10.696   9.785  11.511
  859W        W 5059   7.717   2.228   2.170
  860W        W 5060   5.108   7.002  10.446
  861W        W 5061   9.646   2.063   1.807
  862W        W 5062   6.636  11.267  10.768
  863W        W 5063   4.420   9.748   0.929
  864W        W 5064   5.937   6.621  10.416
  865W        W 5065   1.233   7.576   9.229
  866W        W 5066   1.885  10.615   9.850
  867W        W 5067  10.752   8.364   0.364
  868W        W 5068   8.872   9.956   1.057
  869W        W 5069   0.713   5.940   2.882
  870W        W 5070  10.801   9.582  10.041
  871W        W 5071   9.994  10.079   1.684
  872W        W 5072   2.666   2.281   3.603
  873W        W 5073   5.605  11.467   3.158
  874W        W 5074  11.016  11.167   8.997
  875W        W 5075   7.980   1.850   1.938
  876W        W 5076   2.975   0.669   9.546
  877W        W 5077  10.878   9.139   9.762
  878W        W 5078   4.642   1.940   2.482
  879W        W 5079   5.458   7.160  11.919
  880W        W 5080   8.573   3.222  11.295
  881W        W 5081   9.965   9.986   9.230
  882W        W 5082   0.348   6.080   9.403
  883W        W 5083   4.117   1.607  11.948
  884W        W 5084   8.500   1.734   8.889
  885W        W 5085  10.494   9.802   0.405
  886W        W 5086   4.203   7.227  10.892
  887W        W 5087   5.497   9.895   2.445
  888W        W 5088   4.982   6.910  11.941
  889W        W 5089   5.038   4.528   1.238
  890W        W 5090   4.367  11.284   2.975
  891W        W 5091   7.106   7.477   2.644
  892W        W 5092  11.148  10.282   2.334
  893W        W 5093   0.498   9.988   1.878
  894W        W 5094   0.814   0.682   9.113
  895W        W 5095   5.652   0.892  11.678
  896W        W 5096   7.849  10.398   0.279
  897W        W 5097   6.677   7.220   1.776
  898W        W 5098   9.423   7.328   1.869
  899W        W 5099   6.435   3.205   9.551
  900W        W 5100   6.168   6.995   3.062
  901W        W 5101   6.184   3.553  10.293
  902W        W 5102   3.387   9.332   0.279
  903W        W 5103   3.873   1.656  10.916
  904W        W 5104   2.010   0.461   9.523
  905W        W 5105   1.910   1.564   2.700
  906W        W 5106   5.163   6.941   9.232
  907W        W 5107  10.613   5.047  10.370
  908W        W 5108   8.956   9.314   9.330
  909W        W 5109   1.352   3.155   9.789
  910W        W 5110   3.823   3.727   2.165
  911W        W 5111   5.891   7.477   9.313
  912W        W 5112   6.733   7.811   3.240
  913W        W 5113   6.397   9.998   2.915
  914W        W 5114   0.902   3.648   9.309
  915W        W 5115   5.689  10.364  10.796
  916W        W 5116   3.535   0.803  10.471
  917W        W 5117   7.090   6.920   9.768
  918W        W 5118   9.734  11.428  10.324
  919W        W 5119   4.959   8.360   0.262
  920W        W 5120   7.059   0.491   2.709
  921W        W 5121   0.316   7.340  10.336
  922W        W 5122   3.574  10.374   2.499
  923W        W 5123   6.967   7.422   9.815
  924W        W 5124   9.036   6.455   8.385
  925W        W 5125   3.938   9.834  11.561
  926W        W 5126  10.422   7.655  11.527
  927W        W 5127   9.911   6.683  10.763
  928W        W 5128   2.835   1.400   3.344
  929W        W 5129   2.966   9.870   9.471
  930W        W 5130   7.637   6.680   0.314
  931W        W 5131   9.357  10.586   0.366
  932W        W 5132   0.233   4.608   0.834
  933W        W 5133  11.064   2.669  10.790
  934W        W 5134   1.842  10.422   2.625
  935W        W 5135   2.449   0.685   1.638
  936W        W 5136   9.817   4.146  11.914
  937W        W 5137  10.030   3.693  11.127
  938W        W 5138   1.366   7.533   3.267
  939W        W 5139   5.045   3.632  10.062
  940W        W 5140   8.652  10.519   0.897
  941W        W 5141   1.880   8.383   1.537
  942W        W 5142   9.336   2.895   1.560
  943W        W 5143   9.247   5.746   8.445
  944W        W 5144   6.776   7.573   0.781
  945W        W 5145   3.132   7.445   0.212
  946W        W 5146   4.773   9.512   3.235
  947W        W 5147   4.481   1.202  11.463
  948W        W 5148   7.609   3.343   2.456
  949W        W 5149   3.143  10.377  11.791
  950W        W 5150   6.692   8.977   9.834
  951W        W 5151   0.330   2.614   9.984
  952W        W 5152   2.329   7.201   9.048
  953W        W 5153   6.254   3.775  11.443
  954W        W 5154   0.694   7.291   2.666
  955W        W 5155   3.635   9.410   0.739
  956W        W 5156   0.504   1.701   9.066
  957W        W 5157  11.451   0.015   8.879
  958W        W 5158   6.754   9.789   0.372
  959W        W 5159   5.884   7.295  11.684
  960W        W 5160   4.957   7.984  10.668
  961W        W 5161   3.284   2.143   9.206
  962W        W 5162   3.719   1.976  11.302
  963W        W 5163   7.250   3.115  10.136
  964W        W 5164   7.724   9.550   0.244
  965W        W 5165   9.940   5.068   9.245
  966W        W 5166   4.460  11.009   0.881
  967W        W 5167   9.775   2.394  11.292
  968W        W 5168  10.779   9.378   9.079
  969W        W 5169   5.286   5.100   0.364
  970W        W 5170   9.145   5.934  10.234
  971W        W 5171   6.077   9.467   2.982
  972W        W 5172  11.291   6.527  11.879
  973W        W 5173   1.010   0.298   9.587
  974W        W 5174   1.015   0.504  10.416
  975W        W 5175   7.344   7.948  10.441
  976W        W 5176   0.229   0.780   2.849
  977W        W 5177   6.097   7.563  11.276
  978W        W 5178   4.542   4.542   1.346
  979W        W 5179  10.367  10.819   1.962
  980W        W 5180   3.077   0.835   1.221
  981W        W 5181   8.616   4.718   1.739
  982W        W 5182   4.705   7.582  10.313
  983W        W 5183   8.620   4.825  11.975
  984W        W 5184   3.215   7.388  11.712
  985W        W 5185   7.283   2.319   1.854
  986W        W 5186   8.431   2.713   3.562
  987W        W 5187   5.688  10.825   9.462
  988W        W 5188  11.377   8.651  11.632
  989W        W 5189   8.989   4.544   8.333
  990W        W 5190   9.334   0.354   1.073
  991W        W 5191   7.059   5.514  11.991
  992W        W 5192   3.909   2.178   2.924
  993W        W 5193   8.125   6.556   1.357
  994W        W 5194   3.910   6.651   8.973
  995W        W 5195   5.272  11.475   9.698
  996W        W 5196   6.919   8.597   1.318
  997W        W 5197  10.919  10.087  11.886
  998W        W 5198   1.881   5.034  10.762
  999W        W 5199   4.288   8.157   1.389
 1000W        W 5200   0.943   5.002   2.632
 1001W        W 5201  10.389   8.958  11.873
 1002W        W 5202   2.683   1.188  10.317
 1003W        W 5203   8.887   2.795   1.810
 1004W        W 5204   7.969   9.049   2.663
 1005W        W 5205   7.144   3.088  10.664
 1006W        W 5206  11.024   5.673  11.855
 1007W        W 5207   2.706   3.110   9.875
 1008W        W 5208   3.935   0.745   1.595
 1009W        W 5209   7.223   9.022  11.264
 1010W        W 5210   7.585   3.622  10.946
 1011W        W 5211   2.687   4.114   1.517
 1012W        W 5212   1.414   3.787   3.395
 1013W        W 5213  10.886  10.630   1.710
 1014W        W 5214   0.759   6.054   2.384
 1015W        W 5215  10.135   8.132   8.850
 1016W        W 5216   3.764  10.440   1.956
 1017W        W 5217  10.771   2.332   9.289
 1018W        W 5218   0.542   0.482   9.503
 1019W        W 5219   6.143  11.442   3.327
 1020W        W 5220   5.247   7.259   2.791
 1021W        W 5221   9.485  10.666   3.275
 1022W        W 5222   0.043   5.891   3.599
 1023W        W 5223   5.989   9.938   3.232
 1024W        W 5224   5.179   6.543   9.594
 1025W        W 5225   6.730  10.958  10.320
 1026W        W 5226   7.887   2.221  10.250
 1027W        W 5227   0.185  10.915   1.768
 1028W        W 5228   9.100   5.076   8.133
 1029W        W 5229   5.640   3.738   0.268
 1030W        W 5230   0.840   2.870   3.143
 1031W        W 5231   1.292   2.539  10.420
 1032W        W 5232   9.076   2.094   9.475
 1033W        W 5233   6.874   8.107  10.693
 1034W        W 5234   2.914   8.059   0.007
 1035W        W 5235   4.058   0.210   2.308
 1036W        W 5236   9.441   3.732   8.953
 1037W        W 5237  10.793   6.587   0.095
 1038W        W 5238   8.252   4.886   0.561
 1039W        W 5239   0.895  11.162   8.983
 1040W        W 5240  10.963   9.717   8.698
 1041W        W 5241   8.893   7.619   3.179
 1042W        W 5242   0.974   2.054   8.637
 1043W        W 5243   5.925   1.285   1.210
 1044W        W 5244   5.734   5.786   2.498
 1045W        W 5245   7.456   8.567   9.637
 1046W        W 5246  11.220   0.726   2.549
 1047W        W 5247   9.008   9.009  10.724
 1048W        W 5248   5.583   4.536  11.194
 1049W        W 5249   2.868   0.434   0.750
 1050W        W 5250   4.190  10.091   8.748
 1051W        W 5251   3.183   6.724  10.772
 1052W        W 5252   0.469  11.480   8.746
 1053W        W 5253   7.098   0.754   1.834
 1054W        W 5254   5.255  11.500   3.544
 1055W        W 5255   1.585   7.210  10.219
 1056W        W 5256   4.761   8.616   8.590
 1057W        W 5257   3.496   0.293   3.249
 1058W        W 5258   3.195   5.740   1.536
 1059W        W 5259   7.293   6.071   1.427
 1060W        W 5260   6.131   2.166   1.266
 1061W        W 5261   3.678   8.536   3.170
 1062W        W 5262   7.600   9.737   2.310
 1063W        W 5263   4.831   9.617  10.277
 1064W        W 5264   5.491   7.582   1.259
 1065W        W 5265   7.434   4.962   9.446
 1066W        W 5266  11.351   0.816   9.998
 1067W        W 5267   3.283   9.408   3.234
 1068W        W 5268   5.734   7.466   1.667
 1069W        W 5269   2.780   4.576  11.184
 1070W        W 5270   9.822   1.879  11.384
 1071W        W 5271   0.189   1.306   8.906
 1072W        W 5272   9.531   3.140  11.061
 1073W        W 5273   1.429   3.925  10.433
 1074W        W 5274   4.310   4.164   0.638
 1075W        W 5275   5.754  10.316   2.280
 1076W        W 5276   9.139   3.196   2.594
 1077W        W 5277   5.822  11.099   1.739
 1078W        W 5278   1.188   2.688   3.467
 1079W        W 5279  10.931  11.445  10.888
 1080W        W 5280   7.658  11.319   2.143
 1081W        W 5281   7.051   1.011   2.682
 1082W        W 5282   2.529   4.367  11.589
 1083W        W 5283   0.998   4.594  10.909
 1084W        W 5284   2.037   1.482   8.470
 1085W        W 5285   7.298   2.209  11.882
 1086W        W 5286   0.779   3.739   1.313
 1087W        W 5287   9.756   9.502   1.995
 1088W        W 5288   7.769   3.878  11.372
 1089W        W 5289   6.408   7.424   3.167
 1090W        W 5290   8.645   5.125   0.399
 1091W        W 5291   4.792   9.122   3.581
 1092W        W 5292   4.268   6.508   9.526
 1093W        W 5293   4.170   4.160   1.216
 1094W        W 5294   8.071   5.156   3.959
 1095W        W 5295   7.091   3.948   9.503
 1096W        W 5296   2.856   1.272   9.285
 1097W        W 5297   5.523   3.235   3.065
 1098W        W 5298   6.949   0.974   9.352
 1099W        W 5299   7.972   9.454   2.976
 1100W        W 5300   4.539   6.528   9.955
 1101W        W 5301   5.134   2.383   1.373
 1102W        W 5302   4.540   6.557  11.458
 1103W        W 5303   7.683   7.488   0.861
 1104W        W 5304   5.452  10.362   0.277
 1105W        W 5305  10.940   2.280  11.975
 1106W        W 5306   5.113   2.045  10.444
 1107W        W 5307   4.665   5.590  11.003
 1108W        W 5308   2.883   0.849   2.645
 1109W        W 5309   1.177   0.426   0.217
 1110W        W 5310  10.480   0.792   1.899
 1111W        W 5311   6.041   7.881  10.514
 1112W        W 5312   5.143   4.448   3.437
 1113W        W 5313   0.528   6.167   8.907
 1114W        W 5314   3.817   4.077   0.850
 1115W        W 5315   4.843   2.775   8.994
 1116W        W 5316   3.281   9.141  10.561
 1117W        W 5317   6.702   9.012  11.697
 1118W        W 5318   5.814   3.251  11.678
 1119W        W 5319   5.093   4.671   2.185
 1120W        W 5320   5.344   6.100   9.986
 1121W        W 5321   4.610   5.109  10.697
 1122W        W 5322   5.252   0.312   1.814
 1123W        W 5323   2.594  11.040   1.544
 1124W        W 5324   1.802   7.785  10.920
 1125W        W 5325   3.630   0.740   0.202
 1126W        W 5326   9.355   0.367  11.864
 1127W        W 5327   4.972   0.221   8.838
 1128W        W 5328   8.161   8.926  11.237
 1129W        W 5329   7.468   0.165  11.941
 1130W        W 5330  10.342  10.324   3.226
 1131W        W 5331   0.590   8.789   1.285
 1132W        W 5332   7.504   9.403   3.294
 1133W        W 5333   0.491   8.185   2.131
 1134W        W 5334  10.450   6.928   1.861
 1135W        W 5335   6.434   0.052  11.905
 1136W        W 5336   5.716   7.547   2.172
 1137W        W 5337   6.996   6.515  11.808
 1138W        W 5338   9.885   8.092   1.289
 1139W        W 5339   6.050   9.616   9.160
 1140W        W 5340   7.197  10.881   3.321
 1141W        W 5341   5.245  11.286   0.469
 1142W        W 5342   4.600  11.404  10.610
 1143W        W 5343  10.460   0.978   8.785
 1144W        W 5344   6.186   2.966   1.712
 1145W        W 5345  11.251   2.710   1.404
 1146W        W 5346   0.925   7.042  11.971
 1147W        W 5347   9.465  10.744   2.771
 1148W        W 5348  10.882   1.119  10.178
 1149W        W 5349   3.436   0.845   1.650
 1150W        W 5350   8.845   2.463   0.921
 1151W        W 5351   8.470  10.249   1.316
 1152W        W 5352   0.975   7.104   9.266
 1153W        W 5353   7.396   1.125   0.741
 1154W        W 5354   6.627   7.569   0.287
 1155W        W 5355   5.091   9.860  11.813
 1156W        W 5356  11.051   3.220   1.337
 1157W        W 5357   1.405   1.463  10.642
 1158W        W 5358   5.032   1.703   2.251
 1159W        W 5359   0.115   6.485   0.513
 1160W        W 5360   0.379   6.629  11.516
 1161W        W 5361   4.820   3.311  11.457
 1162W        W 5362   4.804  11.320  11.579
 1163W        W 5363   7.957   4.425   2.054
 1164W        W 5364   5.158   0.877   2.495
 1165W        W 5365   9.824   0.884   1.065
 1166W        W 5366   8.767   3.581   8.632
 1167W        W 5367   4.109   2.378   9.803
 1168W        W 5368   2.462   1.884   0.970
 1169W        W 5369   0.498  10.871   3.375
 1170W        W 5370   0.112   8.209  10.407
 1171W        W 5371   2.277   9.667   8.936
 1172W        W 5372   5.039   5.673   1.361
 1173W        W 5373   9.313   4.222   9.075
 1174W        W 5374  11.272   5.233   0.541
 1175W        W 5375   1.748   1.050   8.815
 1176W        W 5376   3.565   7.229   1.035
 1177W        W 5377   3.616   4.944   9.443
 1178W        W 5378   7.378  10.879   1.228
 1179W        W 5379   3.137   1.187  11.066
 1180W        W 5380   9.890   8.996  11.078
 1181W        W 5381   3.434   7.465   9.851
 1182W        W 5382  11.224   1.854  11.893
 1183W        W 5383  11.468   1.287   9.802
 1184W        W 5384   7.871   4.601   1.267
 1185W        W 5385   7.878  10.679  10.488
 1186W        W 5386  10.016   5.217   2.968
 1187W        W 5387   7.492   4.117  10.928
 1188W        W 5388   0.075   0.857  11.737
 1189W        W 5389   5.826   1.336  11.861
 1190W        W 5390   2.776   4.071  10.982
 1191W        W 5391   6.775   8.188  11.607
 1192W        W 5392   9.209   1.146  10.426
 1193W        W 5393   4.813   0.165   9.860
 1194W        W 5394   8.010   5.223   1.433
 1195W        W 5395   5.054  10.878   1.733
 1196W        W 5396   8.309  10.988   0.936
 1197W        W 5397  10.277   8.956   0.990
 1198W        W 5398  11.333   5.073   3.569
 1199W        W 5399   1.740   5.220   8.997
 1200W        W 5400   2.570   7.989   0.942
 1201W        W 5401   6.138   6.692   3.808
 1202W        W 5402   7.031   5.640   1.440
 1203W        W 5403   8.729   4.069   2.280
 1204W        W 5404   0.004   1.864   9.080
 1205W        W 5405   9.062   2.375   2.984
 1206W        W 5406   1.428   1.753   0.179
 1207W        W 5407   1.758   2.384   1.780
 1208W        W 5408   0.820   9.808   9.882
 1209W        W 5409   6.893   9.936  10.921
 1210W        W 5410   4.523   4.784   8.245
 1211W        W 5411   7.922   8.936  10.391
 1212W        W 5412   4.658   3.817   0.858
 1213W        W 5413   8.960   9.875  10.608
 1214W        W 5414   1.981   7.564  11.354
 1215W        W 5415   6.023   3.598   4.118
 1216W        W 5416   0.005   0.406  10.395
 1217W        W 5417   7.994  10.785  11.546
 1218W        W 5418   5.836   3.108   1.382
 1219W        W 5419   2.290   4.093  10.577
 1220W        W 5420   0.684   8.731   9.023
 1221W        W 5421   6.219   4.557   9.392
 1222W        W 5422  11.383   9.797   1.624
 1223W        W 5423   1.809  10.090  11.568
 1224W        W 5424   0.905   1.925   9.376
 1225W        W 5425   8.451   9.505   2.767
 1226W        W 5426   5.484   0.836   9.593
 1227W        W 5427   5.421   3.348   1.106
 1228W        W 5428   9.228   2.041   0.391
 1229W        W 5429   5.699   8.993   2.013
 1230W        W 5430  10.007   9.923   2.707
 1231W        W 5431   6.647   4.186   3.160
 1232W        W 5432   9.925   9.869   1.214
 1233W        W 5433   9.212   0.622  10.413
 1234W        W 5434   3.790   8.036  10.005
 1235W        W 5435   8.714   2.193   0.257
 1236W        W 5436   9.089   9.483   1.372
 1237W        W 5437   1.823   2.631  10.122
 1238W        W 5438   8.899   7.183   9.986
 1239W        W 5439   5.612   9.543   8.915
 1240W        W 5440   3.115   2.366  10.131
 1241W        W 5441   1.257   4.728   0.135
 1242W        W 5442  11.437   1.887   1.980
 1243W        W 5443   9.436   5.133   9.048
 1244W        W 5444  11.242  11.256   0.542
 1245W        W 5445   2.599  10.763   9.571
 1246W        W 5446   8.548   9.543   0.794
 1247W        W 5447   3.871   0.430   9.690
 1248W        W 5448   5.944   4.747  11.868
 1249W        W 5449   0.769   0.085   0.268
 1250W        W 5450   7.201   2.296   9.357
 1251W        W 5451   2.582   2.331   0.420
 1252W        W 5452   3.193   1.734   2.498
 1253W        W 5453  10.855   7.990  11.600
 1254W        W 5454   8.490   1.760   1.873
 1255W        W 5455   9.391   7.547   3.147
 1256W        W 5456   8.505   5.744  11.829
 1257W        W 5457   5.637   2.127  10.887
 1258W        W 5458   2.159   6.561   8.518
 1259W        W 5459  10.880   4.123   9.108
 1260W        W 5460   4.812  10.244   9.157
 1261W        W 5461   3.355   6.092  10.199
 1262W        W 5462  11.241   2.313   2.955
 1263W        W 5463   1.150   1.794  10.312
 1264W        W 5464   8.919   9.923   2.053
 1265W        W 5465   3.220   1.597   9.604
 1266W        W 5466   0.743  10.695   8.794
 1267W        W 5467  10.529   1.341  11.039
 1268W        W 5468  11.361   8.824  11.152
 1269W        W 5469   8.766   3.199   3.545
 1270W        W 5470   2.183  11.375   1.395
 1271W        W 5471   3.434  11.149   2.530
 1272W        W 5472   5.898   4.165  11.453
 1273W        W 5473   2.244   9.021   1.009
 1274W        W 5474   0.895   0.424   2.640
 1275W        W 5475   7.652  11.087   2.588
 1276W        W 5476   3.797   8.150   8.711
 1277W        W 5477   6.118   6.510   0.290
 1278W        W 5478  11.347   7.421  11.922
 1279W        W 5479   1.549   4.383   8.988
 1280W        W 5480   5.510  11.429   2.651
 1281W        W 5481  11.446   7.587   1.103
 1282W        W 5482   6.117   4.850   0.854
 1283W        W 5483   4.666   3.583  10.974
 1284W        W 5484   8.519   2.474   1.360
 1285W        W 5485   1.957  10.886  10.940
 1286W        W 5486   7.713   4.370   3.268
 1287W        W 5487   6.677   8.369   8.993
 1288W        W 5488   7.727   2.245   2.688
 1289W        W 5489   1.596   7.046  11.521
 1290W        W 5490   7.082   1.875  11.279
 1291W        W 5491   5.563   6.603   2.621
 1292W        W 5492   9.019   3.324   1.142
 1293W        W 5493   9.398   7.451   0.420
 1294W        W 5494   8.004   2.938  11.874
 1295W        W 5495   0.503   7.098  11.720
 1296W        W 5496  10.904  10.917   2.646
 1297W        W 5497   5.422   2.358   3.518
 1298W        W 5498   1.105   2.454  11.667
 1299W        W 5499   9.923   9.472   2.471
 1300W        W 5500   0.958   8.365   8.326
 1301W        W 5501   9.178   4.211   2.117
 1302W        W 5502   6.198  10.410   1.991
 1303W        W 5503   5.679   4.128   3.541
 1304W        W 5504   3.773   9.820   8.917
 1305W        W 5505  11.020  11.019  10.468
 1306W        W 5506   3.835   9.801  10.603
 1307W        W 5507   2.539   7.515   1.151
 1308W        W 5508  10.892  10.017   0.893
 1309W        W 5509   0.961   3.652   1.821
 1310W        W 5510   2.136   0.853   9.882
 1311W        W 5511   7.014   1.275   1.021
 1312W        W 5512   6.695   4.321  11.768
 1313W        W 5513  10.937   8.523   1.879
 1314W        W 5514   1.043   0.823  10.875
 1315W        W 5515   3.604  11.236  10.384
 1316W        W 5516   9.340   1.049   2.572
 1317W        W 5517   9.493   2.410   0.104
 1318W        W 5518   1.765  10.819   0.132
 1319W        W 5519  10.028   6.102  11.979
 1320W        W 5520   6.557   4.766   1.125
 1321W        W 5521   2.773   7.405   8.891
 1322W        W 5522   8.933   0.012   3.213
 1323W        W 5523  11.012   9.936   3.698
 1324W        W 5524   1.074   5.592   3.475
 1325W        W 5525   2.397   7.923   1.451
 1326W        W 5526   0.432   3.145   2.800
 1327W        W 5527   6.421   6.686   0.660
 1328W        W 5528   3.209  10.149   3.235
 1329W        W 5529   3.600   0.371   1.432
 1330W        W 5530   2.558   1.101   9.687
 1331W        W 5531   3.323   7.151   0.576
 1332W        W 5532  11.031   1.648   9.304
 1333W        W 5533   2.619   3.506  11.799
 1334W        W 5534   5.734   5.250   1.203
 1335W        W 5535   6.154   2.893  11.807
 1336W        W 5536   6.017   1.316  10.296
 1337W        W 5537   4.625   7.955  11.548
 1338W        W 5538  11.307   9.307   9.100
 1339W        W 5539  11.312   9.775   0.714
 1340W        W 5540   7.469   6.851   9.416
 1341W        W 5541   3.321  10.620   9.121
 1342W        W 5542   2.246   6.919   2.290
 1343W        W 5543   8.722   4.680  10.609
 1344W        W 5544   8.973   3.275   3.078
 1345W        W 5545   7.487   7.032   2.681
 1346W        W 5546   9.089   6.478   0.946
 1347W        W 5547   5.337   0.028   9.167
 1348W        W 5548   0.892   9.789  11.818
 1349W        W 5549  10.723  11.134   1.797
 1350W        W 5550   5.783  10.476   2.819
 1351W        W 5551   3.908   1.595   2.077
 1352W        W 5552   3.223   4.654  11.864
 1353W        W 5553   7.042   9.504   3.032
 1354W        W 5554   4.060   1.290  10.614
 1355W        W 5555   3.594  10.722  10.345
 1356W        W 5556   5.395   4.046  11.418
 1357W        W 5557   6.964   9.023   1.076
 1358W        W 5558   8.907   1.434  10.144
 1359W        W 5559   1.929   3.863  10.283
 1360W        W 5560   0.235   5.005   9.470
 1361W        W 5561   3.352   7.641  11.291
 1362W        W 5562   6.495   2.586   1.824
 1363W        W 5563   4.161  11.282   9.417
 1364W        W 5564   1.283   4.288   3.359
 1365W        W 5565   4.104   8.190   2.276
 1366W        W 5566   5.627   1.199  10.904
 1367W        W 5567   1.835   7.101   9.784
 1368W        W 5568   1.802   3.604  11.718
 1369W        W 5569   3.113   8.681   1.311
 1370W        W 5570   8.173   7.645   0.802
 1371W        W 5571   4.578   1.860   9.414
 1372W        W 5572   7.719   1.462   2.190
 1373W        W 5573   7.635   1.403   9.242
 1374W        W 5574   9.339   0.379   8.202
 1375W        W 5575   3.374   2.559   3.515
 1376W        W 5576   2.975   9.637   1.670
 1377W        W 5577   1.298   0.296  10.041
 1378W        W 5578   3.983   4.058  10.557
 1379W        W 5579   2.182   5.315   1.136
 1380W        W 5580   5.099   3.616   3.956
 1381W        W 5581   3.747   8.799  11.098
 1382W        W 5582   7.112   8.924   9.535
 1383W        W 5583   9.045  10.340   9.284
 1384W        W 5584   6.587   1.399   3.357
 1385W        W 5585   2.187   9.950   3.120
 1386W        W 5586   4.152   6.216  10.778
 1387W        W 5587   4.142   9.355   0.754
 1388W        W 5588   4.545   0.078   2.357
 1389W        W 5589   1.431   1.136  11.043
 1390W        W 5590   2.686  11.139  11.743
 1391W        W 5591   8.478   1.008   1.091
 1392W        W 5592   5.082   3.274  10.974
 1393W        W 5593   9.344   0.795   3.003
 1394W        W 5594   3.254   2.614   2.852
 1395W        W 5595  11.220   2.185   3.450
 1396W        W 5596   8.539   9.592   3.618
 1397W        W 5597   5.995   7.299   8.597
 1398W        W 5598   3.083   2.361   0.471
 1399W        W 5599   3.619  10.614  11.756
 1400W        W 5600   2.346   4.142   0.870
 1401W        W 5601   8.446   0.744  10.712
 1402W        W 5602  10.299  10.467   9.746
 1403W        W 5603   2.743   7.851   0.455
 1404W        W 5604   8.446   8.823   8.552
 1405W        W 5605   8.178   5.979   8.276
 1406W        W 5606   5.746  10.305   1.746
 1407W        W 5607   6.609   8.086   0.722
 1408W        W 5608   5.672   2.317   8.674
 1409W        W 5609   3.484   1.929   2.137
 1410W        W 5610   3.313   5.715  10.551
 1411W        W 5611  11.320   2.717   3.471
 1412W        W 5612   6.030   2.821   3.666
 1413W        W 5613   6.189  10.542   1.505
 1414W        W 5614   9.680   1.462  11.113
 1415W        W 5615  10.442   0.701   0.457
 1416W        W 5616   2.578   5.666   2.638
 1417W        W 5617   6.089   8.857   2.796
 1418W        W 5618   5.585   8.640   9.917
 1419W        W 5619  10.984   9.906   0.364
 1420W        W 5620   6.536   4.367   8.959
 1421W        W 5621   8.678   8.102   0.054
 1422W        W 5622   7.439   4.324  10.309
 1423W        W 5623   4.651   5.630  10.490
 1424W        W 5624   8.821   4.809   0.800
 1425W        W 5625   4.914   9.613   3.696
 1426W        W 5626   2.386   7.059   1.435
 1427W        W 5627   9.951   2.834  11.094
 1428W        W 5628   1.358   1.665   9.332
 1429W        W 5629   9.694   9.193   0.411
 1430W        W 5630  10.418   1.662   0.218
 1431W        W 5631   4.189   4.693   9.355
 1432W        W 5632   2.229   6.397   9.398
 1433W        W 5633   9.554   6.513   9.081
 1434W        W 5634   7.713   9.412  10.273
 1435W        W 5635   2.433   8.147   1.907
 1436W        W 5636   8.096   8.601   8.901
 1437W        W 5637   9.757   2.103   0.757
 1438W        W 5638   8.975   7.510  11.504
 1439W        W 5639   8.469   4.751   2.687
 1440W        W 5640   8.614   6.476   9.642
 1441W        W 5641   1.683  10.972   1.851
 1442W        W 5642   8.145   6.424   9.452
 1443W        W 5643  11.331   5.982   3.126
 1444W        W 5644   8.038   0.267  11.330
 1445W        W 5645   7.566   7.166   0.486
 1446W        W 5646   0.320   5.834   2.271
 1447W        W 5647   5.218  10.810  10.254
 1448W        W 5648   7.351   7.817   2.306
 1449W        W 5649   6.055   2.008   8.860
 1450W        W 5650   6.340   6.066  10.114
 1451W        W 5651   8.699   4.085   3.352
 1452W        W 5652   5.595   9.304  11.295
 1453W        W 5653   7.267   9.754   0.039
 1454W        W 5654   8.664   3.722   0.422
 1455W        W 5655   8.876  11.185  11.901
 1456W        W 5656   4.960  11.175   0.901
 1457W        W 5657   4.901   3.276   9.168
 1458W        W 5658   1.929   4.758   8.917
 1459W        W 5659   5.443   6.609  10.356
 1460W        W 5660   1.252   1.243   0.047
 1461W        W 5661   6.217   8.006   0.246
 1462W        W 5662   9.779   8.621   0.580
 1463W        W 5663  10.765   2.792   1.210
 1464W        W 5664   0.293  10.360  11.316
 1465W        W 5665   6.016   0.881   0.044
 1466W        W 5666   1.367   9.090  11.648
 1467W        W 5667   2.291   1.438  10.601
 1468W        W 5668   2.084   9.366   9.342
 1469W        W 5669   5.226   9.280   3.295
 1470W        W 5670   6.503   9.500   2.293
 1471W        W 5671   5.990   5.516  10.347
 1472W        W 5672   8.467   3.057   3.114
 1473W        W 5673   3.913   0.423  10.934
 1474W        W 5674   7.263   5.076   9.941
 1475W        W 5675   7.590   5.885  11.213
 1476W        W 5676   2.943   1.263   0.415
 1477W        W 5677   8.428   9.756   1.272
 1478W        W 5678  10.706   5.260  11.781
 1479W        W 5679   3.214   4.581   3.470
 1480W        W 5680   0.571   0.802  11.752
 1481W        W 5681   8.579   6.946  10.287
 1482W        W 5682   0.687   8.150  10.041
 1483W        W 5683   0.355   0.758  11.284
 1484W        W 5684   5.960   9.023   1.019
 1485W        W 5685   4.751   0.479   1.832
 1486W        W 5686   2.840   0.455   8.956
 1487W        W 5687   7.793   3.083   2.875
 1488W        W 5688   9.094   3.328   9.445
 1489W        W 5689   2.833   4.255   3.463
 1490W        W 5690   1.743   2.697  10.632
 1491W        W 5691  10.872   9.866   9.200
 1492W        W 5692   0.294   7.634  10.845
 1493W        W 5693   9.161   6.208   2.277
 1494W        W 5694   7.492   5.744  11.725
 1495W        W 5695   5.952   5.191  11.386
 1496W        W 5696   1.445   6.189   1.667
 1497W        W 5697   1.888   6.140   1.408
 1498W        W 5698  10.938   4.072   0.603
 1499W        W 5699   9.487   5.955   9.750
 1500W        W 5700   2.577   5.252  11.817
 1501W        W 5701   7.903   1.348   3.137
 1502W        W 5702   2.379   0.969  11.997
 1503W        W 5703   6.126   1.265  10.797
 1504W        W 5704   5.243   1.559  10.593
 1505W        W 5705   0.055   0.339   9.489
 1506W        W 5706   0.390   8.426   0.969
 1507W        W 5707   2.081   4.042  11.403
 1508W        W 5708   2.879   0.326   9.922
 1509W        W 5709   0.230   5.593   2.720
 1510W        W 5710   6.460   2.065  11.855
 1511W        W 5711   4.254   2.556  11.883
 1512W        W 5712   3.561   2.089   9.997
 1513W        W 5713   1.018   2.076   0.071
 1514W        W 5714   6.566   8.144   9.486
 1515W        W 5715   0.120  10.436   2.412
 1516W        W 5716   1.323   3.999   1.952
 1517W        W 5717   4.336  10.983   9.014
 1518W        W 5718  10.941   6.719   9.723
 1519W        W 5719   1.637  10.386   3.549
 1520W        W 5720   2.505   5.790  10.005
 1521W        W 5721   4.883   2.353   3.417
 1522W        W 5722   3.293   5.015  10.046
 1523W        W 5723   2.115   4.578  11.397
 1524W        W 5724  11.336   3.305  10.583
 1525W        W 5725   1.678   7.475   1.720
 1526W        W 5726   6.583   0.769   8.908
 1527W        W 5727   7.833   9.873  11.304
 1528W        W 5728  10.664   4.291  11.777
 1529W        W 5729   6.819   1.004  11.517
 1530W        W 5730   3.172   9.756   0.468
 1531W        W 5731   3.747   2.782   1.173
 1532W        W 5732   7.361   5.586  10.811
 1533W        W 5733   7.155   4.852  11.169
 1534W        W 5734   8.539   8.635   4.091
 1535W        W 5735   7.980   5.726  10.047
 1536W        W 5736  10.549   5.992   2.733
 1537W        W 5737   6.454   4.727  10.178
 1538W        W 5738   2.464   0.487   8.591
 1539W        W 5739   3.307   2.731  10.441
 1540W        W 5740   5.680   1.795   8.534
 1541W        W 5741   5.835   6.108   1.366
 1542W        W 5742   1.850   7.438   9.052
 1543W        W 5743   9.967   9.843  11.726
 1544W        W 5744   1.495   3.296   2.719
 1545W        W 5745   7.737   0.078   0.377
 1546W        W 5746   8.489  11.428   2.126
 1547W        W 5747   5.189   3.954   3.584
 1548W        W 5748   3.794   8.509   0.730
 1549W        W 5749   7.945   1.447   2.651
 1550W        W 5750   3.742   0.708   0.750
 1551W        W 5751   8.028   8.458   2.345
 1552W        W 5752  10.484   2.298   2.988
 1553W        W 5753   2.208   8.102   9.927
 1554W        W 5754  10.980   7.189  10.991
 1555W        W 5755   4.566   3.526   8.631
 1556W        W 5756   5.050   3.583   8.782
 1557W        W 5757   3.843   1.243   1.693
 1558W        W 5758  11.059   0.386   2.925
 1559W        W 5759  10.545   5.201   2.240
 1560W        W 5760   7.195   5.260  10.428
 1561W        W 5761   4.792   3.568   2.466
 1562W        W 5762   8.930   2.001   8.985
 1563W        W 5763   8.618   3.335   0.792
 1564W        W 5764   5.690   2.721   0.015
 1565W        W 5765   4.583  10.771   9.435
 1566W        W 5766   0.833   4.710  10.442
 1567W        W 5767   2.834   1.356   2.827
 1568W        W 5768   5.267   5.092   1.959
 1569W        W 5769   3.291   7.489   8.983
 1570W        W 5770   5.554   2.686   1.423
 1571W        W 5771   4.256   0.761   9.078
 1572W        W 5772   5.547   4.962  10.874
 1573W        W 5773  10.351   4.751  10.725
 1574W        W 5774  10.888   9.845   2.190
 1575W        W 5775   7.950   6.555   2.289
 1576W        W 5776   0.365   5.664   1.048
 1577W        W 5777   8.600   0.742   9.876
 1578W        W 5778  10.500   2.394  11.042
 1579W        W 5779   8.005   7.899   1.797
 1580W        W 5780   5.545   3.843   1.097
 1581W        W 5781   9.111   8.394   0.036
 1582W        W 5782   9.692   5.093  10.013
 1583W        W 5783   9.944   9.098   9.576
 1584W        W 5784  11.286   7.221   0.789
 1585W        W 5785   4.674  10.706  11.027
 1586W        W 5786   9.509  10.090   0.352
 1587W        W 5787   0.715   0.632   0.227
 1588W        W 5788   2.784   6.641   1.795
 1589W        W 5789   3.181   0.433  10.520
 1590W        W 5790   4.808   5.140   0.522
 1591W        W 5791   0.812   4.538   9.894
 1592W        W 5792   1.524   1.878   1.142
 1593W        W 5793   3.982   2.638   9.079
 1594W        W 5794   4.424   6.619   9.055
 1595W        W 5795   9.491   0.085   9.908
 1596W        W 5796  10.572   8.545   0.830
 1597W        W 5797  10.793   2.691   0.710
 1598W        W 5798   0.945  11.107   3.287
 1599W        W 5799   9.011  11.347   2.212
 1600W        W 5800  10.420   3.816  10.840
 1601W        W 5801   1.744   7.255  10.704
 1602W        W 5802   0.861  11.370   2.448
 1603W        W 5803   4.017   1.089   1.214
 1604W        W 5804   0.103   4.611   9.189
 1605W        W 5805  11.378  10.832   1.319
 1606W        W 5806   1.263   8.632  11.408
 1607W        W 5807   1.843   3.389   8.883
 1608W        W 5808   4.347   2.276  10.499
 1609W        W 5809   0.590   3.295   3.237
 1610W        W 5810   3.012   9.535   2.828
 1611W        W 5811   7.607   7.199  11.971
 1612W        W 5812   1.644   0.170  10.759
 1613W        W 5813   7.409   9.845  11.558
 1614W        W 5814  11.393   4.547  11.482
 1615W        W 5815  11.034   2.040   8.959
 1616W        W 5816   8.616   6.453  10.185
 1617W        W 5817   0.267  11.001  11.947
 1618W        W 5818   2.676   6.426   3.970
 1619W        W 5819   4.633   7.050  11.586
 1620W        W 5820   9.854   1.224   1.688
 1621W        W 5821   5.201   1.335   2.795
 1622W        W 5822   1.733   4.891   1.842
 1623W        W 5823   3.837   9.921   2.674
 1624W        W 5824   8.858   2.821   2.324
 1625W        W 5825   4.472   8.208   9.038
 1626W        W 5826   6.731   3.592   9.436
 1627W        W 5827   9.809   6.973   9.084
 1628W        W 5828   4.433   2.758   9.273
 1629W        W 5829   8.611   8.896   2.443
 1630W        W 5830   2.206   0.973  10.358
 1631W        W 5831   2.526   4.509   0.550
 1632W        W 5832   6.057   7.946   9.526
 1633W        W 5833   1.547   1.319   2.261
 1634W        W 5834   4.313   1.463   1.754
 1635W        W 5835   1.443   8.645   1.515
 1636W        W 5836   2.894   2.357  11.601
 1637W        W 5837   8.363   1.383   3.387
 1638W        W 5838   5.017   7.223   9.628
 1639W        W 5839   2.536   3.533   2.596
 1640W        W 5840  10.311   7.938   0.420
 1641W        W 5841   3.838   5.972   0.443
 1642W        W 5842   3.809   0.922  10.892
 1643W        W 5843   5.431   3.302   1.616
 1644W        W 5844   7.272   3.824  11.341
 1645W        W 5845   3.587   0.877   3.377
 1646W        W 5846   2.187   1.772  10.994
 1647W        W 5847   2.250   5.231   0.206
 1648W        W 5848   0.022   4.219  10.262
 1649W        W 5849   2.842   5.040   2.559
 1650W        W 5850   7.944   5.055   9.517
 1651W        W 5851   2.892   9.888   0.892
 1652W        W 5852   4.032   9.830   0.060
 1653W        W 5853   9.090   3.947  11.262
 1654W        W 5854  10.764  10.768   9.151
 1655W        W 5855  11.497   0.043   3.565
 1656W        W 5856   0.533   7.484   0.233
 1657W        W 5857   4.712   2.099  10.795
 1658W        W 5858   8.086   3.169   1.175
 1659W        W 5859   9.147   6.213   2.798
 1660W        W 5860   1.649   8.284   8.799
 1661W        W 5861  10.906   5.752  10.003
 1662W        W 5862   5.532   0.261   0.468
 1663W        W 5863   2.198   8.137   2.792
 1664W        W 5864   0.410  11.259   3.718
 1665W        W 5865   1.084   2.248   2.379
 1666W        W 5866   8.015   7.548   2.153
 1667W        W 5867   9.078   1.992   2.642
 1668W        W 5868   2.334   5.573  11.436
 1669W        W 5869   6.306   8.308  10.338
 1670W        W 5870   8.085   7.997  11.580
 1671W        W 5871   0.202   4.228   3.391
 1672W        W 5872  11.458   5.173   2.752
 1673W        W 5873   2.922  10.190   0.431
 1674W        W 5874   6.105   3.023   2.383
 1675W        W 5875   2.045   4.810   2.713
 1676W        W 5876   9.020  11.153  11.297
 1677W        W 5877   4.778   9.988   3.028
 1678W        W 5878   8.355   7.618  10.739
 1679W        W 5879   4.742   9.395   9.745
 1680W        W 5880   8.098   0.663  11.655
 1681W        W 5881   1.672   9.559   9.624
 1682W        W 5882   7.565   2.005   3.461
 1683W        W 5883   8.941   1.454   8.824
 1684W        W 5884   1.980   7.625   9.927
 1685W        W 5885   0.022  10.939  10.640
 1686W        W 5886   0.218   0.276  11.012
 1687W        W 5887   4.329  10.456   9.089
 1688W        W 5888   6.599   4.402   8.442
 1689W        W 5889   8.602  11.400  11.448
 1690W        W 5890   4.699   2.081   8.488
 1691W        W 5891   9.436   4.141   3.145
 1692W        W 5892   9.007   8.775   9.378
 1693W        W 5893   2.088   7.202   1.877
 1694W        W 5894   9.553   2.630  10.862
 1695W        W 5895   3.271   2.911   1.351
 1696W        W 5896   7.067   1.809   9.460
 1697W        W 5897   3.554   3.844  11.809
 1698W        W 5898  11.104   4.983  10.486
 1699W        W 5899   8.958   9.097   3.451
 1700W        W 5900  11.224   9.331   2.461
 1701W        W 5901   4.307   2.437   3.208
 1702W        W 5902   0.305   7.533   0.742
 1703W        W 5903   3.058   6.181   9.354
 1704W        W 5904   1.316   0.324  11.736
 1705W        W 5905  10.462   9.382   1.263
 1706W        W 5906   9.008   3.764  10.795
 1707W        W 5907   6.002   2.308  10.095
 1708W        W 5908  11.282   3.304  10.077
 1709W        W 5909   8.802   7.087   2.525
 1710W        W 5910   8.371   9.886  11.307
 1711W        W 5911   2.748  11.398   0.698
 1712W        W 5912   7.518   2.709   2.676
 1713W        W 5913  10.452   9.555   8.724
 1714W        W 5914   4.580   8.678   3.390
 1715W        W 5915   0.443   1.940   3.391
 1716W        W 5916   2.358   2.836   1.317
 1717W        W 5917   6.067   9.346  11.057
 1718W        W 5918   7.315   7.814   1.455
 1719W        W 5919   6.146   0.488   8.797
 1720W        W 5920   6.524  10.929   8.810
 1721W        W 5921   7.958   0.491   8.835
 1722W        W 5922   7.122   7.264   9.356
 1723W        W 5923   5.958   7.553   0.242
 1724W        W 5924   1.735   7.387   2.982
 1725W        W 5925  10.460   3.128   2.374
 1726W        W 5926   1.340   9.768   3.799
 1727W        W 5927  10.682   6.966   1.391
 1728W        W 5928   8.366   6.877   9.325
 1729W        W 5929   7.086  10.013   9.078
 1730W        W 5930   4.467   8.187   3.234
 1731W        W 5931   4.575   7.091  10.510
 1732W        W 5932   2.885   9.440  10.889
 1733W        W 5933   3.094   9.975  11.045
 1734W        W 5934   8.148   6.653  10.413
 1735W        W 5935  11.292   1.403   1.819
 1736W        W 5936   4.219   7.636   3.138
 1737W        W 5937   2.147   7.138   0.983
 1738W        W 5938   0.333   1.301   9.403
 1739W        W 5939  11.046  11.254   1.271
 1740W        W 5940   4.479   5.289   0.953
 1741W        W 5941   5.233   7.842   1.630
 1742W        W 5942   9.722   5.519   9.476
 1743W        W 5943   9.114   4.881   8.693
 1744W        W 5944  11.313   5.467  10.394
 1745W        W 5945  10.731   0.584   2.535
 1746W        W 5946   8.248   1.490   2.228
 1747W        W 5947   9.638   7.139  11.832
 1748W        W 5948   1.757   0.574  11.507
 1749W        W 5949   8.545   0.444   2.242
 1750W        W 5950  10.946   7.224   3.141
 1751W        W 5951  10.864   9.145   2.746
 1752W        W 5952   1.728   2.679  11.151
 1753W        W 5953   2.601   7.215   2.802
 1754W        W 5954   6.489   0.165   0.969
 1755W        W 5955   8.624   1.015   1.577
 1756W        W 5956   7.087   8.909  10.769
 1757W        W 5957   9.001   7.438   9.092
 1758W        W 5958   4.892   3.241   3.660
 1759W        W 5959   0.368   8.599  11.846
 1760W        W 5960   5.638   2.762   2.363
 1761W        W 5961  11.426   5.973   0.553
 1762W        W 5962   1.444   2.702   2.507
 1763W        W 5963   1.468   7.135   8.540
 1764W        W 5964   7.175   3.353  11.111
 1765W        W 5965  10.831   7.470  11.809
 1766W        W 5966   6.669   0.545   0.677
 1767W        W 5967   4.345   2.061  11.926
 1768W        W 5968  10.086   6.850  10.313
 1769W        W 5969   1.779  11.289  11.933
 1770W        W 5970   2.220   5.673   0.473
 1771W        W 5971   3.101  11.433  10.129
 1772W        W 5972   3.176   6.471   1.176
 1773W        W 5973  10.908   3.854   3.116
 1774W        W 5974   3.672   9.811   0.407
 1775W        W 5975   3.331   3.751   2.047
 1776W        W 5976   3.398  11.163  11.532
 1777W        W 5977   3.364   4.246   1.789
 1778W        W 5978   3.607   4.809   0.164
 1779W        W 5979   2.966   4.244   0.435
 1780W        W 5980   2.452  11.436   1.849
 1781W        W 5981   8.373   3.127   2.208
 1782W        W 5982   6.276  10.924   1.846
 1783W        W 5983   3.258  11.046   2.019
 1784W        W 5984   0.873   3.221   9.982
 1785W        W 5985   7.987  10.486  10.029
 1786W        W 5986   7.409   8.997  10.377
 1787W        W 5987   8.153   5.169   2.729
 1788W        W 5988   5.685  10.334   9.364
 1789W        W 5989   6.639   7.311   9.169
 1790W        W 5990   2.090   5.617   2.439
 1791W        W 5991   5.438   5.132  11.347
 1792W        W 5992   6.256   0.858   1.419
 1793W        W 5993   7.866   4.553   0.702
 1794W        W 5994   4.136   5.137  10.026
 1795W        W 5995   6.169   3.305  11.255
 1796W        W 5996  10.429   0.301   2.229
 1797W        W 5997   4.245  10.578   0.538
 1798W        W 5998   2.825   5.051   9.878
 1799W        W 5999   7.660   7.565   2.759
 1800W        W 6000   0.494   1.490  10.813
 1801W        W 6001   2.464   9.846   9.367
 1802W        W 6002   9.072   0.372   9.954
 1803W        W 6003   8.953  10.500  10.307
 1804W        W 6004   9.422   1.501   9.593
 1805W        W 6005  11.289   0.969   8.860
 1806W        W 6006   8.567   3.315   9.421
 1807W        W 6007   0.283   5.764  11.340
 1808W        W 6008   4.325   8.331  10.071
 1809W        W 6009   1.535   7.789  11.476
 1810W        W 6010   6.881   3.312   0.485
 1811W        W 6011   8.061   0.674   1.011
 1812W        W 6012   9.937  10.983   9.454
 1813W        W 6013   2.840   3.927   1.981
 1814W        W 6014   5.473   5.294   0.780
 1815W        W 6015   9.518   7.083   4.231
 1816W        W 6016   8.117  10.569   9.174
 1817W        W 6017   5.606   5.722  11.976
 1818W        W 6018  10.002   9.998   0.216
 1819W        W 6019   3.730  11.349   2.174
 1820W        W 6020   3.760   1.233  11.956
 1821W        W 6021   6.290   4.326   1.758
 1822W        W 6022   1.916   2.636   2.268
 1823W        W 6023   3.715   0.188   0.806
 1824W        W 6024  11.474   2.145   0.310
 1825W        W 6025   0.812   9.580   0.312
 1826W        W 6026   9.321   5.515  10.498
 1827W        W 6027   4.242   9.590   1.485
 1828W        W 6028   7.888   4.941  11.884
 1829W        W 6029   7.766   8.629   1.280
 1830W        W 6030   0.385   5.203   2.331
 1831W        W 6031   5.039   0.994   9.417
 1832W        W 6032   2.091   7.469   1.392
 1833W        W 6033   5.024   8.463   3.420
 1834W        W 6034   0.581   8.365  10.507
 1835W        W 6035   6.107   4.048  10.132
 1836W        W 6036   9.997   4.617  11.077
 1837W        W 6037   5.997   3.298   0.939
 1838W        W 6038   7.613  10.471   0.726
 1839W        W 6039   5.296   6.962   0.363
 1840W        W 6040   6.017   2.383  11.747
 1841W        W 6041   4.675   4.786  11.564
 1842W        W 6042   1.556   0.831  11.916
 1843W        W 6043   3.617   5.091  11.286
 1844W        W 6044   5.430   5.726   9.157
 1845W        W 6045  10.242   0.379  11.022
 1846W        W 6046   6.262   6.579   3.329
 1847W        W 6047   6.491   5.559  11.023
 1848W        W 6048   8.021   0.558   2.435
 1849W        W 6049   8.691   2.432   9.374
 1850W        W 6050  11.301   7.021  10.273
 1851W        W 6051   9.538   3.284   1.304
 1852W        W 6052   9.100   6.024   4.077
 1853W        W 6053  11.407  10.353   1.528
 1854W        W 6054   7.157   6.862   0.407
 1855W        W 6055   1.950   5.543  10.818
 1856W        W 6056   8.675   3.242  10.778
 1857W        W 6057   9.085   3.710   2.481
 1858W        W 6058   4.115   0.346  11.478
 1859W        W 6059   3.345   2.375   1.322
 1860W        W 6060   0.376   4.155   2.018
 1861W        W 6061   5.205   6.700   1.617
 1862W        W 6062   6.706   6.751   1.558
 1863W        W 6063  10.094   8.163   0.810
 1864W        W 6064   3.117   1.237   8.833
 1865W        W 6065   4.532   9.462   8.471
 1866W        W 6066   6.154   2.197   0.251
 1867W        W 6067  10.740   0.431  10.954
 1868W        W 6068   8.593   9.979   8.844
 1869W        W 6069   1.174   5.260   9.025
 1870W        W 6070   3.723   9.311   8.964
 1871W        W 6071   5.025  11.278   0.024
 1872W        W 6072  10.330   3.095   0.031
 1873W        W 6073   6.878   2.234  11.620
 1874W        W 6074   2.282   1.275  11.153
 1875W        W 6075   7.115   2.701  11.743
 1876W        W 6076   4.160   3.332   0.378
 1877W        W 6077   4.488   3.520   1.248
 1878W        W 6078   5.307   2.087   3.102
 1879W        W 6079   3.519   2.858   9.464
 1880W        W 6080   9.637   6.231   1.894
 1881W        W 6081   3.115   8.768   8.685
 1882W        W 6082   2.691   9.516  11.451
 1883W        W 6083  10.298  10.043  10.481
 1884W        W 6084   0.295   6.729  11.012
 1885W        W 6085   2.350   9.879   0.886
 1886W        W 6086  10.076   9.527   0.398
 1887W        W 6087   0.362   2.313   0.631
 1888W        W 6088   1.930   0.155   0.405
 1889W        W 6089   9.475   9.376   2.659
 1890W        W 6090  11.405   6.622   9.954
 1891W        W 6091   3.101   8.399   2.369
 1892W        W 6092   3.088   8.505  11.828
 1893W        W 6093   5.625   1.677   0.224
 1894W        W 6094   3.071   4.907   3.873
 1895W        W 6095   4.732   6.119  10.256
 1896W        W 6096   1.634   6.779  10.573
 1897W        W 6097   2.265   6.225   1.730
 1898W        W 6098   1.191   3.689   2.949
 1899W        W 6099   4.319   3.160  11.489
 1900W        W 6100   7.439   6.111   8.628
 1901W        W 6101   9.918  10.922  10.376
 1902W        W 6102   5.851   7.061   3.445
 1903W        W 6103   2.306   8.592   1.701
 1904W        W 6104   1.858   6.095   2.483
 1905W        W 6105   1.313   0.965   1.505
 1906W        W 6106   6.976   4.263  11.331
 1907W        W 6107   6.104   1.288   2.620
 1908W        W 6108   8.614   5.332   1.482
 1909W        W 6109   5.811   3.822  10.527
 1910W        W 6110   3.195   0.708  11.465
 1911W        W 6111   4.709   3.711   3.495
 1912W        W 6112   5.906   4.580   3.440
 1913W        W 6113   0.441   1.446   1.230
 1914W        W 6114   9.517  10.055  11.813
 1915W        W 6115   2.782   8.098  10.804
 1916W        W 6116   2.246   3.511  11.437
 1917W        W 6117   3.628   5.242  11.832
 1918W        W 6118   2.488   4.734  10.099
 1919W        W 6119   7.988   9.583   3.471
 1920W        W 6120   1.109   2.220  10.028
 1921W        W 6121   1.620   9.420   9.128
 1922W        W 6122   7.202   4.222   3.261
 1923W        W 6123   2.264   1.469   9.465
 1924W        W 6124   7.338  11.347   3.055
 1925W        W 6125   3.249   5.264   9.615
 1926W        W 6126   2.501   7.690   9.880
 1927W        W 6127   1.394   8.315   2.861
 1928W        W 6128   2.029   5.620   9.977
 1929W        W 6129   2.375   2.327   1.211
 1930W        W 6130   2.185   6.665   9.912
 1931W        W 6131   0.754   9.961  10.522
 1932W        W 6132   4.677   7.971   2.388
 1933W        W 6133   2.095   6.169  10.026
 1934W        W 6134  10.738   5.883   9.418
 1935W        W 6135   0.249   8.470   3.490
 1936W        W 6136   1.434   2.320   1.377
 1937W        W 6137   3.091   5.068   3.367
 1938W        W 6138   0.686   8.607   2.755
 1939W        W 6139   1.391   4.867   1.445
 1940W        W 6140   9.069   8.470   8.964
 1941W        W 6141   3.201   4.002   3.250
 1942W        W 6142   5.616   8.087   3.964
 1943W        W 6143  10.009   4.619   8.954
 1944W        W 6144   8.159   9.752   9.563
 1945W        W 6145  10.759  11.388   9.419
 1946W        W 6146   0.321   6.581   1.633
 1947W        W 6147   7.382   2.185   9.872
 1948W        W 6148   9.528   9.120   8.465
 1949W        W 6149   8.116   5.233   9.968
 1950W        W 6150   3.966   9.475   2.902
 1951W        W 6151   0.374   6.559   0.960
 1952W        W 6152  10.901   9.035   3.238
 1953W        W 6153   0.430   2.811   8.864
 1954W        W 6154   3.288  11.440   0.381
 1955W        W 6155   0.776   5.883  11.277
 1956W        W 6156   6.453   8.454   0.416
 1957W        W 6157   6.452   1.739   2.559
 1958W        W 6158   6.597   2.733  11.093
 1959W        W 6159   2.831   8.418  10.413
 1960W        W 6160   6.058   5.528   2.183
 1961W        W 6161   0.927   2.205  10.536
 1962W        W 6162   4.727  10.462   2.828
 1963W        W 6163   4.661   9.348   0.686
 1964W        W 6164   8.905  10.397   9.777
 1965W        W 6165   2.017   2.152   2.455
 1966W        W 6166   8.653  10.756  10.780
 1967W        W 6167   1.263   0.477   1.368
 1968W        W 6168   5.657   0.924   3.252
 1969W        W 6169   8.391  10.315   2.118
 1970W        W 6170   4.387   1.338   0.365
 1971W        W 6171   0.402   1.265   2.976
 1972W        W 6172   1.194   5.833   8.485
 1973W        W 6173   4.175   3.688   0.735
 1974W        W 6174   7.458   5.072   8.910
 1975W        W 6175   4.759   4.413  11.908
 1976W        W 6176   2.680   3.515  10.873
 1977W        W 6177   3.166   9.539  11.306
 1978W        W 6178   5.627   8.498   1.266
 1979W        W 6179  10.582   0.030  11.767
 1980W        W 6180   9.017   4.426   3.125
 1981W        W 6181  11.120   4.571   9.036
 1982W        W 6182  11.111   0.537   0.896
 1983W        W 6183   1.511   0.633  10.951
 1984W        W 6184   2.774   5.390  10.273
 1985W        W 6185   3.118   5.108   1.139
 1986W        W 6186   8.240   5.243   1.879
 1987W        W 6187   9.822   0.934   3.485
 1988W        W 6188   1.871   7.959   9.130
 1989W        W 6189   2.212   4.335  11.987
 1990W        W 6190   2.818   2.259   0.903
 1991W        W 6191   4.371   9.516  10.084
 1992W        W 6192   8.537   9.880   2.380
 1993W        W 6193   0.074  10.431   1.017
 1994W        W 6194   5.162   7.664  11.075
 1995W        W 6195   1.865   1.374  10.874
 1996W        W 6196   4.129   3.150   1.405
 1997W        W 6197   7.266   9.271   0.165
 1998W        W 6198   6.744   1.388   9.588
 1999W        W 6199  10.200   1.801  11.737
 2000W        W 6200  10.504  10.920   9.561
 2001W        W 6201   1.868   1.361  10.350
 2002W        W 6202   4.753   6.710   0.393
 2003W        W 6203   0.237   6.977   0.706
 2004W        W 6204  11.263   4.558   2.361
 2005W        W 6205  10.064   8.118   2.155
 2006W        W 6206   3.345   5.133   2.353
 2007W        W 6207  10.095   8.729   1.516
 2008W        W 6208   5.646  10.975   2.932
 2009W        W 6209  11.003  11.390   2.796
 2010W        W 6210  10.904  10.306   1.324
 2011W        W 6211   5.023  10.959  11.302
 2012W        W 6212   8.159   8.951   1.302
 2013W        W 6213   8.693   8.146   9.131
 2014W        W 6214   6.048   8.225   1.216
 2015W        W 6215   8.853   3.784   0.921
 2016W        W 6216   2.292   3.805  11.005
 2017W        W 6217   9.799   2.559   1.807
 2018W        W 6218   1.217   4.694   3.031
 2019W        W 6219   4.248   4.588   0.915
 2020W        W 6220   7.110  10.959   0.208
 2021W        W 6221   9.004  11.348   9.993
 2022W        W 6222  11.329   2.363   9.946
 2023W        W 6223   7.239   4.114   1.546
 2024W        W 6224   1.216   6.945   9.999
 2025W        W 6225   3.226   8.981   2.883
 2026W        W 6226   2.427   0.192   0.967
 2027W        W 6227   3.779   5.712   1.931
 2028W        W 6228   9.991   3.624   9.069
 2029W        W 6229   6.082   0.868   1.929
 2030W        W 6230  10.016   3.686  10.021
 2031W        W 6231   8.452  10.043   0.793
 2032W        W 6232   4.800   2.080   0.163
 2033W        W 6233   6.681   8.650   9.422
 2034W        W 6234   1.689   8.853   0.298
 2035W        W 6235   4.379   5.900   2.511
 2036W        W 6236  10.857   1.192   9.073
 2037W        W 6237  11.029   7.388   0.319
 2038W        W 6238  11.121   5.564   9.536
 2039W        W 6239   9.077   7.939  11.238
 2040W        W 6240   5.797   4.872   9.568
 2041W        W 6241   5.751   3.842   9.384
 2042W        W 6242   0.268   5.531   0.553
 2043W        W 6243   9.603   8.861   9.885
 2044W        W 6244   1.818   6.258   0.513
 2045W        W 6245   3.866   7.526  10.113
 2046W        W 6246   7.184   1.705   9.947
 2047W        W 6247   0.159   5.136   0.069
 2048W        W 6248   3.491   0.780   9.546
 2049W        W 6249   3.638   3.284   1.340
 2050W        W 6250  10.457  10.570   8.740
 2051W        W 6251   6.916   4.919  10.722
 2052W        W 6252   9.114   8.585   1.350
 2053W        W 6253   9.610   3.246   8.954
 2054W        W 6254   1.429   5.235  10.953
 2055W        W 6255   4.656   3.688   2.955
 2056W        W 6256   0.595   5.994  11.744
 2057W        W 6257   2.336   4.313  11.034
 2058W        W 6258   1.859   4.640   2.281
 2059W        W 6259   6.498   8.858   8.923
 2060W        W 6260   8.185   3.303  10.947
 2061W        W 6261   9.211   5.548  11.754
 2062W        W 6262   8.308   4.398   1.470
 2063W        W 6263   3.269   4.670  11.342
 2064W        W 6264   9.545   5.045  10.506
 2065W        W 6265   8.509   0.582   0.784
 2066W        W 6266   8.335   8.013   0.455
 2067W        W 6267   5.452   3.274   2.118
 2068W        W 6268   8.155  10.452   0.941
 2069W        W 6269   6.854   0.760  10.749
 2070W        W 6270   8.306   3.766   3.509
 2071W        W 6271   7.569  10.247   2.178
 2072W        W 6272   9.123   5.202   0.972
 2073W        W 6273   8.806  10.021   3.489
 2074W        W 6274   0.101   8.011   8.654
 2075W        W 6275   3.750   7.651   8.828
 2076W        W 6276   9.882   5.148   8.742
 2077W        W 6277   3.537  11.397   3.566
 2078W        W 6278   8.004   3.120  11.389
 2079W        W 6279  10.105   0.428   1.832
 2080W        W 6280   1.038   4.108   1.028
 2081W        W 6281   7.764  11.163  10.524
 2082W        W 6282   9.979   3.719  10.566
 2083W        W 6283   6.611   3.196   8.660
 2084W        W 6284   7.603   8.099   2.773
 2085W        W 6285   4.479   1.373  10.329
 2086W        W 6286   8.350   2.395   0.877
 2087W        W 6287   3.256  10.495   2.875
 2088W        W 6288   4.043   8.649  11.497
 2089W        W 6289  11.212   6.966   1.317
 2090W        W 6290  10.858   2.093   2.701
 2091W        W 6291   5.798   6.586   3.104
 2092W        W 6292   6.234   9.382   4.123
 2093W        W 6293   6.302  10.500   2.986
 2094W        W 6294   2.394   9.566   2.866
 2095W        W 6295   8.898   4.062   8.501
 2096W        W 6296   3.287   8.948  11.955
 2097W        W 6297   4.778   4.787  10.317
 2098W        W 6298   0.289   6.251   3.336
 2099W        W 6299   1.627   2.965   3.538
 2100W        W 6300   9.576   8.038  11.776
 2101W        W 6301   2.289   9.435   2.175
 2102W        W 6302   8.621   8.034  10.966
 2103W        W 6303   2.713   8.185   9.978
 2104W        W 6304   2.908   9.461   1.184
 2105W        W 6305   6.127   1.670   1.529
 2106W        W 6306   6.572   1.897   3.467
 2107W        W 6307  10.357   2.680   2.637
 2108W        W 6308   3.148   3.412   1.250
 2109W        W 6309   7.987   2.597  11.292
 2110W        W 6310   5.986   6.213  11.077
 2111W        W 6311   2.766   3.307   3.013
 2112W        W 6312   0.470  10.477   9.651
 2113W        W 6313  11.354   9.519   1.175
 2114W        W 6314   6.331   7.113  11.510
 2115W        W 6315   0.330   2.614   0.233
 2116W        W 6316   9.422   6.057   1.009
 2117W        W 6317   2.599   8.504   0.006
 2118W        W 6318   4.644   8.085   1.000
 2119W        W 6319   6.847   3.486   0.007
 2120W        W 6320   2.008   5.598   8.748
 2121W        W 6321  10.930   0.316  11.418
 2122W        W 6322   9.099   7.585  10.649
 2123W        W 6323   5.310   0.850   0.401
 2124W        W 6324   7.339  10.505   0.279
 2125W        W 6325  10.701   1.838  11.826
 2126W        W 6326   5.665   6.714   0.070
 2127W        W 6327   9.817   4.122   8.883
 2128W        W 6328   7.677   6.437   9.692
 2129W        W 6329   9.394   2.943   0.378
 2130W        W 6330   7.938   7.216  10.059
 2131W        W 6331   1.780   8.094   2.515
 2132W        W 6332   5.573   3.529  10.899
 2133W        W 6333   9.808   1.709   1.051
 2134W        W 6334   1.375   6.229   0.231
 2135W        W 6335   5.287   8.660   9.471
 2136W        W 6336   3.435   0.518   8.766
 2137W        W 6337   3.384   9.501   1.381
 2138W        W 6338   8.017   2.635   2.854
 2139W        W 6339   2.341   1.580   1.944
 2140W        W 6340   9.866   9.388  11.509
 2141W        W 6341   5.003   3.780   8.312
 2142W        W 6342   0.273   1.335   0.397
 2143W        W 6343   2.570   4.238   9.271
 2144W        W 6344   3.689   5.262   9.854
 2145W        W 6345   5.939   5.806  10.769
 2146W        W 6346   5.613   6.224   2.275
 2147W        W 6347   2.186   0.738   2.297
 2148W        W 6348   8.928   6.690   2.207
 2149W        W 6349   3.708   5.580  11.380
 2150W        W 6350   5.765   1.651  10.667
 2151W        W 6351   0.804   7.919   0.226
 2152W        W 6352  11.299   1.921   2.481
 2153W        W 6353   6.981   5.054   1.018
 2154W        W 6354  11.193   2.427  11.525
 2155W        W 6355   7.036   8.018   2.820
 2156W        W 6356   9.478   6.424   1.370
 2157W        W 6357   1.208   3.642   9.944
 2158W        W 6358   7.705   5.628   2.067
 2159W        W 6359   3.396   9.058   1.067
 2160W        W 6360   2.935   3.880   1.137
 2161W        W 6361   9.485   9.962   0.874
 2162W        W 6362   5.265   8.777   3.126
 2163W        W 6363   8.813   8.235   0.530
 2164W        W 6364   6.959   9.386   2.005
 2165W        W 6365   5.647   1.521   0.739
 2166W        W 6366   7.447   8.058   9.548
 2167W        W 6367   2.079  10.572   3.732
 2168W        W 6368   8.361   1.208   2.896
 2169W        W 6369   9.238   5.555   9.347
 2170W        W 6370  10.479   9.331   0.693
 2171W        W 6371   8.602   5.926   3.600
 2172W        W 6372   2.261   6.326  10.865
 2173W        W 6373   7.962   4.769   3.043
 2174W        W 6374   5.322   2.416   0.339
 2175W        W 6375   9.502   6.510   3.075
 2176W        W 6376  11.279   3.980   0.227
 2177W        W 6377  10.805   3.641   1.489
 2178W        W 6378   6.556   7.371  10.535
 2179W        W 6379   9.543  10.763  11.069
 2180W        W 6380   5.660   0.489   9.001
 2181W        W 6381   1.869   5.869  10.386
 2182W        W 6382   6.941   9.720   9.989
 2183W        W 6383   3.704   1.929   1.158
 2184W        W 6384   6.408   4.252  11.361
 2185W        W 6385   2.438  10.742   2.335
 2186W        W 6386   1.911   8.968   9.050
 2187W        W 6387   5.346   4.163   1.451
 2188W        W 6388   6.139   5.467   3.162
 2189W        W 6389  10.823  10.036  10.465
 2190W        W 6390   4.542   0.870   9.484
 2191W        W 6391   5.766   2.382   3.129
 2192W        W 6392   1.683   6.683  10.075
 2193W        W 6393   4.642   5.702   9.963
 2194W        W 6394   3.092   8.013   2.732
 2195W        W 6395   1.432  10.253   1.694
 2196W        W 6396   0.839   3.165   1.941
 2197W        W 6397   7.826   8.582   2.796
 2198W        W 6398   8.984   3.136  11.620
 2199W        W 6399  10.489   4.187   0.406
 2200W        W 6400   9.074   7.951  11.757
 2201W        W 6401  10.029   1.572   2.924
 2202W        W 6402   0.688   8.841   9.541
 2203W        W 6403   9.306   9.935   1.344
 2204W        W 6404   6.251   2.368   9.159
 2205W        W 6405   8.858   5.544   0.627
 2206W        W 6406  10.530   1.510   8.800
 2207W        W 6407   3.626  10.302   3.479
 2208W        W 6408   3.733   8.571   1.740
 2209W        W 6409   8.712   0.997  10.312
 2210W        W 6410   5.212   7.658   2.124
 2211W        W 6411   7.188  10.050  10.490
 2212W        W 6412  10.327   6.191   9.468
 2213W        W 6413   2.830   1.502   9.930
 2214W        W 6414  10.351   6.038   1.690
 2215W        W 6415  10.066   2.473   3.309
 2216W        W 6416   5.592   2.203  10.383
 2217W        W 6417   0.850   2.684  10.175
 2218W        W 6418   5.669   8.963   1.481
 2219W        W 6419   9.090   6.271   0.376
 2220W        W 6420  11.018   8.349  11.921
 2221W        W 6421  10.869   1.614  10.048
 2222W        W 6422  11.000   8.057   8.820
 2223W        W 6423   3.651   1.668  11.713
 2224W        W 6424  10.016  10.331  11.063
 2225W        W 6425  10.861   4.764   1.134
 2226W        W 6426   9.971   0.879   2.050
 2227W        W 6427   7.455   4.811   3.283
 2228W        W 6428   1.611   7.585   1.198
 2229W        W 6429   7.161   2.852   9.339
 2230W        W 6430  10.525  11.314   1.376
 2231W        W 6431   1.254   9.100   0.204
 2232W        W 6432   1.303   2.923  10.783
 2233W        W 6433   5.635   9.689  11.951
 2234W        W 6434   2.394  10.050   1.820
 2235W        W 6435   5.639  11.031  11.873
 2236W        W 6436   8.885   1.961  10.857
 2237W        W 6437   3.838   6.237   9.989
 2238W        W 6438   7.458   1.518   3.308
 2239W        W 6439   7.265   1.417   1.783
 2240W        W 6440  10.062   3.215   8.712
 2241W        W 6441   3.229   8.133  11.111
 2242W        W 6442   6.573   0.767   1.814
 2243W        W 6443   7.615   1.380   0.334
 2244W        W 6444   6.395   3.190   0.489
 2245W        W 6445   6.132   5.554   1.240
 2246W        W 6446   3.338   0.714  10.968
 2247W        W 6447   4.158   2.411   1.878
 2248W        W 6448   9.858   3.096   0.925
 2249W        W 6449   4.078  10.058   3.337
 2250W        W 6450   3.441   6.075  11.442
 2251W        W 6451   4.937   4.099   4.070
 2252W        W 6452   0.602   6.519   0.451
 2253W        W 6453   9.992   7.652   8.654
 2254W        W 6454   4.766   8.958   2.530
 2255W        W 6455   8.150   9.164  10.786
 2256W        W 6456   3.708   2.386   9.472
 2257W        W 6457   3.959   3.837   9.279
 2258W        W 6458   5.273   2.138   2.300
 2259W        W 6459   9.952   4.756   9.675
 2260W        W 6460   9.388  11.495   9.009
 2261W        W 6461   4.806  10.744   8.996
 2262W        W 6462   3.720   1.250  10.262
 2263W        W 6463   5.945   3.674   9.826
 2264W        W 6464   9.729   4.182   3.574
 2265W        W 6465   0.406   8.149  10.928
 2266W        W 6466   0.152   4.173  10.761
 2267W        W 6467   0.113   8.819   1.431
 2268W        W 6468   3.794   8.101   1.272
 2269W        W 6469   8.179  11.259   0.342
 2270W        W 6470   5.725  11.334   9.471
 2271W        W 6471   2.714   9.968   3.116
 2272W        W 6472  10.317   5.485  11.486
 2273W        W 6473   5.988   0.770   3.618
 2274W        W 6474   1.518   0.545  10.437
 2275W        W 6475   8.178  10.245   8.678
 2276W        W 6476   1.895   6.014   3.352
 2277W        W 6477   5.625   7.948   0.453
 2278W        W 6478   0.649   6.993  11.255
 2279W        W 6479   5.840   5.309   2.683
 2280W        W 6480   6.671   4.143  10.920
 2281W        W 6481   2.176   2.800  10.921
 2282W        W 6482   9.285  10.871   0.789
 2283W        W 6483   8.983   7.043   1.831
 2284W        W 6484   6.485   0.645  11.251
 2285W        W 6485   5.199   0.926  10.917
 2286W        W 6486   3.209   0.848   2.117
 2287W        W 6487   8.089   5.951  11.050
 2288W        W 6488   3.653   2.616   9.926
 2289W        W 6489   5.500   0.422   2.289
 2290W        W 6490   6.067   1.910  11.498
 2291W        W 6491   0.995   1.746   1.054
 2292W        W 6492  10.728   6.281  11.285
 2293W        W 6493   0.782   7.518   9.503
 2294W        W 6494   0.210   8.543   2.978
 2295W        W 6495   3.857   9.421   1.196
 2296W        W 6496   2.270   2.330  10.026
 2297W        W 6497   4.882   4.309   1.696
 2298W        W 6498   6.022   4.570   0.371
 2299W        W 6499  10.217   6.999   0.270
 2300W        W 6500   3.154   4.244   9.633
 2301W        W 6501   0.831   7.634   0.704
 2302W        W 6502   1.100   7.504   0.221
 2303W        W 6503   0.201   4.752   2.556
 2304W        W 6504   6.977   6.596  10.412
 2305W        W 6505   8.399   1.910   1.012
 2306W        W 6506   2.233   0.207   2.970
 2307W        W 6507   9.785   5.767   0.260
 2308W        W 6508   9.992  11.438   0.636
 2309W        W 6509   5.091   0.214  11.730
 2310W        W 6510   1.456   2.998  10.287
 2311W        W 6511   7.644  11.216   3.413
 2312W        W 6512   3.151   9.984   1.345
 2313W        W 6513  10.450  11.022   2.904
 2314W        W 6514   4.016   5.041   1.028
 2315W        W 6515   9.440  11.036   2.333
 2316W        W 6516   2.798   6.761  11.369
 2317W        W 6517   4.402   0.718   1.368
 2318W        W 6518   9.991   5.697  10.845
 2319W        W 6519   0.776   6.551   2.294
 2320W        W 6520   5.623   8.519   2.320
 2321W        W 6521   4.108   9.383  11.835
 2322W        W 6522   2.851   1.832  10.819
 2323W        W 6523   1.915   2.592   1.336
 2324W        W 6524   2.849   2.611   1.289
 2325W        W 6525   2.809   2.834  10.307
 2326W        W 6526  11.382   5.645   9.086
 2327W        W 6527  10.330  10.975   0.950
 2328W        W 6528   1.818   4.624   9.412
 2329W        W 6529  10.857   1.373   0.513
 2330W        W 6530   4.433   7.115   3.116
 2331W        W 6531   4.184   0.291   9.272
 2332W        W 6532   9.039   4.925   3.263
 2333W        W 6533  10.503   8.945   2.423
 2334W        W 6534   8.493   0.739   2.670
 2335W        W 6535   8.186   5.642   2.213
 2336W        W 6536  10.686   0.794   2.990
 2337W        W 6537  10.382   6.127   1.157
 2338W        W 6538   0.989   7.935  10.432
 2339W        W 6539   8.609   6.481  11.171
 2340W        W 6540   0.544   1.011  10.885
 2341W        W 6541   6.014   2.365   9.597
 2342W        W 6542   6.473   8.594  11.502
 2343W        W 6543   3.185  10.709   2.409
 2344W        W 6544  10.845   6.556  10.205
 2345W        W 6545   6.078   7.840   2.757
 2346W        W 6546   0.877   4.064  10.075
 2347W        W 6547   9.418   5.252   8.550
 2348W        W 6548   7.712  11.275   1.241
 2349W        W 6549   6.353  10.744   0.324
 2350W        W 6550   7.860   5.052   3.500
 2351W        W 6551   2.942   7.266  11.290
 2352W        W 6552   9.141   1.813   9.891
 2353W        W 6553   3.653  10.412  10.856
 2354W        W 6554   0.461  10.291   2.806
 2355W        W 6555   0.079   3.715  10.369
 2356W        W 6556   4.686  10.913  10.367
 2357W        W 6557   1.813   1.806  10.595
 2358W        W 6558   1.968   1.835   0.907
 2359W        W 6559   9.236   7.014   0.099
 2360W        W 6560   3.221   9.100  10.040
 2361W        W 6561   5.183   8.858   1.665
 2362W        W 6562   3.157  10.334   9.532
 2363W        W 6563   1.197   6.314   1.235
 2364W        W 6564  11.219   3.439   3.480
 2365W        W 6565   3.388   3.889   0.375
 2366W        W 6566   0.017   2.445   9.017
 2367W        W 6567   0.219   9.770  10.399
 2368W        W 6568   2.135   1.344   8.977
 2369W        W 6569   7.760  10.513   8.793
 2370W        W 6570   7.860   4.043   0.629
 2371W        W 6571  11.189   6.168  10.064
 2372W        W 6572   5.242   1.254   2.171
 2373W        W 6573   9.727   7.609   0.052
 2374W        W 6574   2.690   5.504   0.268
 2375W        W 6575   7.330   3.270   2.873
 2376W        W 6576   5.247   9.003   2.252
 2377W        W 6577   2.900   5.383   4.083
 2378W        W 6578   7.133   8.603   3.949
 2379W        W 6579   3.864   4.197   1.668
 2380W        W 6580  10.340   8.545   2.154
 2381W        W 6581   0.364   9.282   0.311
 2382W        W 6582  11.398   2.206   1.370
 2383W        W 6583   7.595   4.331   0.276
 2384W        W 6584   2.282   1.330   1.499
 2385W        W 6585   3.646   6.733   1.165
 2386W        W 6586   1.136  10.984   8.539
 2387W        W 6587   9.474   2.966   9.396
 2388W        W 6588   1.431  10.417   0.012
 2389W        W 6589   4.278   3.627   2.406
 2390W        W 6590   0.455   5.041  10.602
 2391W        W 6591   3.227   7.383  10.382
 2392W        W 6592   4.116   5.591   9.751
 2393W        W 6593  10.400   5.904   9.873
 2394W        W 6594   2.611   5.068   1.262
 2395W        W 6595   0.854   6.647   9.010
 2396W        W 6596   4.429   3.654  11.424
 2397W        W 6597   2.362   6.626   2.760
 2398W        W 6598   1.642   7.471   0.275
 2399W        W 6599   2.338   9.388   0.271
 2400W        W 6600   0.878   3.536   2.340
 2401W        W 6601   8.165   6.073   2.494
 2402W        W 6602   7.655  10.085   2.681
 2403W        W 6603   6.431   5.178   2.258
 2404W        W 6604   7.153   4.860   1.960
 2405W        W 6605   1.567   6.991   2.727
 2406W        W 6606   4.193   1.789   2.689
 2407W        W 6607   3.655  10.777  11.244
 2408W        W 6608   1.571   2.266   2.237
 2409W        W 6609   6.458   0.670  10.193
 2410W        W 6610   4.652   9.888   1.365
 2411W        W 6611   5.466   9.196   8.572
 2412W        W 6612   0.881   6.673   9.523
 2413W        W 6613   9.547  10.157   3.308
 2414W        W 6614   1.353   4.381  11.733
 2415W        W 6615   1.056   5.906  11.968
 2416W        W 6616   0.550   1.433   2.500
 2417W        W 6617   8.507   9.605   9.204
 2418W        W 6618   7.180   4.535   2.359
 2419W        W 6619   0.962   1.194  10.000
 2420W        W 6620   5.141   2.920   1.227
 2421W        W 6621   0.414   7.902   1.124
 2422W        W 6622   9.466   9.667  10.350
 2423W        W 6623   9.091  11.335   2.742
 2424W        W 6624  10.640   8.082   1.983
 2425W        W 6625   9.424   7.633   2.287
 2426W        W 6626   9.562   8.356   8.992
 2427W        W 6627  10.793  10.171   2.665
 2428W        W 6628   3.353   0.484   1.009
 2429W        W 6629   7.224   8.064  11.442
 2430W        W 6630   7.553   2.757   3.583
 2431W        W 6631   8.378  10.677  10.354
 2432W        W 6632   9.531   2.431   1.361
 2433W        W 6633   5.473  10.639   3.329
 2434W        W 6634  11.382   2.867   9.844
 2435W        W 6635   5.210   2.874   1.801
 2436W        W 6636   7.063   9.016   3.199
 2437W        W 6637  11.412   3.311  11.086
 2438W        W 6638   4.630   2.734   2.495
 2439W        W 6639   6.438   0.861   9.393
 2440W        W 6640   0.779  10.255   1.377
 2441W        W 6641   8.624   4.892   8.569
 2442W        W 6642   2.325   1.196   3.298
 2443W        W 6643  10.272   3.387   0.981
 2444W        W 6644   2.609   8.862   0.421
 2445W        W 6645   5.516   8.959  10.341
 2446W        W 6646   6.556   4.260   1.271
 2447W        W 6647  10.909   6.275   3.031
 2448W        W 6648   8.423   3.787  11.924
 2449W        W 6649   8.935   0.406   0.222
 2450W        W 6650   4.612   3.019   1.192
 2451W        W 6651   9.297   2.212   0.934
 2452W        W 6652   1.975   9.553   1.802
 2453W        W 6653   1.037   9.059   9.205
 2454W        W 6654   4.799   8.067  10.173
 2455W        W 6655   2.374   5.028  11.402
 2456W        W 6656   1.005   2.763   1.641
 2457W        W 6657   4.319   6.073   9.802
 2458W        W 6658   0.559   2.672   1.916
 2459W        W 6659   9.494   3.992   2.659
 2460W        W 6660   3.875   3.787  11.417
 2461W        W 6661   2.236   7.953   2.321
 2462W        W 6662   0.277   4.910  11.177
 2463W        W 6663   8.405   6.969  11.504
 2464W        W 6664   3.437   3.920   9.319
 2465W        W 6665   0.968   3.714  11.735
 2466W        W 6666   8.138   8.181  11.036
 2467W        W 6667   6.526   9.921  11.337
 2468W        W 6668   1.093   1.841   2.744
 2469W        W 6669  10.142  10.937   9.924
 2470W        W 6670   2.711   4.147   8.799
 2471W        W 6671   0.636   8.080   8.651
 2472W        W 6672   4.963   3.354   1.421
 2473W        W 6673   9.793   3.641   8.571
 2474W        W 6674   5.993   8.490  11.355
 2475W        W 6675   5.192   9.320  10.494
 2476W        W 6676  11.077   5.936  10.502
 2477W        W 6677  10.877  10.244  11.375
 2478W        W 6678   4.349   4.316   1.744
 2479W        W 6679   1.337   1.435   1.295
 2480W        W 6680   6.492   3.448   2.718
 2481W        W 6681   7.454  10.083   1.687
 2482W        W 6682   9.994   7.450   9.142
 2483W        W 6683   4.143   3.412   1.921
 2484W        W 6684   6.897   2.048   0.163
 2485W        W 6685   6.264   2.692   0.263
 2486W        W 6686  11.357   6.090  10.889
 2487W        W 6687   2.606   3.881  11.437
 2488W        W 6688   1.718   1.285   9.289
 2489W        W 6689   8.907   2.826   1.292
 2490W        W 6690   6.589   1.818   1.360
 2491W        W 6691   2.903   6.600   2.695
 2492W        W 6692   8.453   4.534  11.567
 2493W        W 6693   0.300   4.588   0.342
 2494W        W 6694   1.848  11.195   9.073
 2495W        W 6695   0.488   4.324  11.961
 2496W        W 6696  10.707   2.258  11.512
 2497W        W 6697   8.346   7.261  11.945
 2498W        W 6698   2.723   1.755   9.487
 2499W        W 6699   6.245   3.030  10.331
 2500W        W 6700   9.998   8.104   3.230
 2501W        W 6701   2.837   2.249  11.106
 2502W        W 6702   9.208  11.417   9.515
 2503W        W 6703   2.699   3.789   3.264
 2504W        W 6704   6.634   8.654   2.119
 2505W        W 6705   1.890   1.623   1.381
 2506W        W 6706   7.132  11.146  10.918
 2507W        W 6707   4.200   3.047  11.976
 2508W        W 6708   1.652  10.726   1.394
 2509W        W 6709   4.787   8.852  10.991
 2510W        W 6710   3.210   5.113  11.577
 2511W        W 6711   5.666  10.479   0.718
 2512W        W 6712   6.489   3.845  11.885
 2513W        W 6713   3.532   4.977   3.641
 2514W        W 6714   2.216  10.729   2.811
 2515W        W 6715   4.752   2.415  11.763
 2516W        W 6716   3.113   8.397   0.349
 2517W        W 6717   0.768   6.597   1.315
 2518W        W 6718  10.031  11.316   1.203
 2519W        W 6719   7.595   2.858  10.517
 2520W        W 6720   7.954  10.277   1.847
 2521W        W 6721   5.444   1.412   1.198
 2522W        W 6722   1.008   6.860   2.619
 2523W        W 6723   3.139   2.734  10.950
 2524W        W 6724   3.075   4.257  10.588
 2525W        W 6725   5.573   1.860   3.640
 2526W        W 6726  10.020   6.672   2.710
 2527W        W 6727   6.648   9.935   1.308
 2528W        W 6728   8.221   7.642  10.228
 2529W        W 6729   4.301  10.141  11.322
 2530W        W 6730   3.557   0.927   1.175
 2531W        W 6731  10.782   1.414   1.935
 2532W        W 6732   3.283   5.755   9.526
 2533W        W 6733   0.973   3.672   0.264
 2534W        W 6734   2.949   1.770   1.028
 2535W        W 6735  10.029   2.823  10.590
 2536W        W 6736   7.095   9.013   2.700
 2537W        W 6737   8.490   6.249  11.930
 2538W        W 6738   2.442   0.249   0.450
 2539W        W 6739  11.248   3.607   1.785
 2540W        W 6740  10.276   9.412   9.797
 2541W        W 6741   7.482   6.684  11.821
 2542W        W 6742   5.478   7.210   8.518
 2543W        W 6743   3.617   4.455  10.715
 2544W        W 6744   0.909   3.253   1.447
 2545W        W 6745   6.284   3.287   3.734
 2546W        W 6746   1.416   1.392  10.131
 2547W        W 6747  10.207   7.090  11.259
 2548W        W 6748   6.692   9.157   9.343
 2549W        W 6749   3.134  10.475  10.853
 2550W        W 6750   2.646   1.912   3.235
 2551W        W 6751   3.681   2.624  10.780
 2552W        W 6752   9.492   4.616   9.981
 2553W        W 6753   8.118   0.875   1.479
 2554W        W 6754   2.391   6.571  10.375
 2555W        W 6755   5.837   6.100   9.131
 2556W        W 6756   0.910   6.020   1.534
 2557W        W 6757   6.975   5.249  11.549
 2558W        W 6758  10.011   2.241   9.913
 2559W        W 6759   3.359   6.992   2.385
 2560W        W 6760   4.618   0.241   1.392
 2561W        W 6761  11.007   0.530   2.003
 2562W        W 6762  10.447   9.954   1.916
 2563W        W 6763   6.465   5.222  11.450
 2564W        W 6764   5.934  11.454  11.769
 2565W        W 6765   9.539   0.137  10.783
 2566W        W 6766   1.278   8.412   1.964
 2567W        W 6767   6.438   4.907   9.699
 2568W        W 6768   5.038   9.040   0.258
 2569W        W 6769  11.218   3.993   1.431
 2570W        W 6770  10.006   6.316   3.086
 2571W        W 6771   1.112   7.111  11.400
 2572W        W 6772   8.668  10.034   0.250
 2573W        W 6773   7.540   2.977   1.189
 2574W        W 6774   2.639   4.613   9.630
 2575W        W 6775   8.301  11.006   9.645
 2576W        W 6776   0.252   6.976   8.540
 2577W        W 6777   7.513   1.206  10.929
 2578W        W 6778   5.330  10.613  11.619
 2579W        W 6779  10.946   0.963   1.733
 2580W        W 6780  10.551   3.509  11.239
 2581W        W 6781   6.899   3.712   0.777
 2582W        W 6782   8.141   2.978   8.712
 2583W        W 6783   1.882   8.831   1.312
 2584W        W 6784   1.716   0.678   1.242
 2585W        W 6785   2.683   9.410   2.482
 2586W        W 6786  10.864   2.735   8.963
 2587W        W 6787   1.219   5.724  11.483
 2588W        W 6788   4.988   5.296   0.999
 2589W        W 6789  10.780   6.235   9.780
 2590W        W 6790  10.745   5.135  10.849
 2591W        W 6791   0.613   9.474  11.470
 2592W        W 6792   7.654   6.122   2.393
 2593W        W 6793   1.399   7.138   1.455
 2594W        W 6794   5.631   2.202  11.420
 2595W        W 6795   5.766  11.136   9.938
 2596W        W 6796   0.338   1.002   2.362
 2597W        W 6797   6.059   5.701  11.244
 2598W        W 6798   0.781   1.500   3.342
 2599W        W 6799   6.711   1.739   2.999
 2600W        W 6800   8.642   6.104   2.748
 2601W        W 6801   4.076   5.142   9.528
 2602W        W 6802  11.498   2.397  11.046
 2603W        W 6803  11.435   4.586  10.975
 2604W        W 6804   1.388   3.251   1.227
 2605W        W 6805   9.424  10.619   9.550
 2606W        W 6806   1.926   4.414   0.933
 2607W        W 6807   8.531   0.301   3.405
 2608W        W 6808   4.939   7.650   9.354
 2609W        W 6809   5.269   2.786   9.820
 2610W        W 6810   8.571   2.338  11.748
 2611W        W 6811   5.794   8.785   8.611
 2612W        W 6812   6.956   2.628   2.143
 2613W        W 6813   4.704   9.400   2.757
 2614W        W 6814   8.965   6.370   3.702
 2615W        W 6815   2.754   9.012  11.918
 2616W        W 6816  10.525   7.469   0.389
 2617W        W 6817   3.069   6.509   9.927
 2618W        W 6818  10.771   4.768   3.073
 2619W        W 6819   0.349  10.126  11.780
 2620W        W 6820   7.546   4.197   8.745
 2621W        W 6821   1.393   3.647   1.552
 2622W        W 6822  10.952   4.400   0.204
 2623W        W 6823   1.185  10.555   1.371
 2624W        W 6824   6.575   6.148   9.667
 2625W        W 6825   3.621   1.191   8.718
 2626W        W 6826   3.327   1.008  11.846
 2627W        W 6827  10.423   6.676   0.995
 2628W        W 6828   2.107   3.225   0.407
 2629W        W 6829   9.000   4.781   2.758
 2630W        W 6830   2.478   9.428   9.650
 2631W        W 6831   1.707   8.372   0.076
 2632W        W 6832   1.217   7.360   9.700
 2633W        W 6833   0.312   5.759   3.180
 2634W        W 6834  10.923   4.836   2.106
 2635W        W 6835   3.513  10.703   0.703
 2636W        W 6836   6.648   6.228   8.746
 2637W        W 6837   1.505   2.231  11.937
 2638W        W 6838   3.856   2.323   1.450
 2639W        W 6839   8.433   5.572  11.311
 2640W        W 6840   7.904   3.604  11.827
 2641W        W 6841   7.989  11.489  10.194
 2642W        W 6842   0.253   0.921   3.363
 2643W        W 6843   6.723   3.092   0.921
 2644W        W 6844   9.882  10.375   3.006
 2645W        W 6845  11.013   0.355   9.469
 2646W        W 6846   2.080   6.882   3.639
 2647W        W 6847   6.454   9.081   0.901
 2648W        W 6848   5.611   5.587  11.479
 2649W        W 6849   8.145   1.773   1.470
 2650W        W 6850   4.706   4.601   9.420
 2651W        W 6851   7.598   9.400  11.775
 2652W        W 6852   8.717   6.830   3.594
 2653W        W 6853   5.695   0.459   0.902
 2654W        W 6854  10.470   5.065   2.771
 2655W        W 6855   0.516   2.113   0.174
 2656W        W 6856   1.445   6.148  10.532
 2657W        W 6857   0.394   0.818   1.891
 2658W        W 6858   5.462   2.897   0.455
 2659W        W 6859   6.179   1.345   0.229
 2660W        W 6860   7.097   3.533  10.402
 2661W        W 6861   6.064   6.116   3.180
 2662W        W 6862   5.014   2.799   0.232
 2663W        W 6863  10.880   0.460  11.917
 2664W        W 6864  10.381   5.181   0.156
 2665W        W 6865   6.364   6.043   0.360
 2666W        W 6866  11.110   3.951  10.386
 2667W        W 6867   5.592   8.052   2.638
 2668W        W 6868   5.928   8.078   2.260
 2669W        W 6869   4.058   5.983  11.990
 2670W        W 6870   1.819   6.903  11.965
 2671W        W 6871  11.160   6.377   0.362
 2672W        W 6872   6.798   2.190   1.915
 2673W        W 6873   1.057   0.796  11.866
 2674W        W 6874   8.197   7.177  10.507
 2675W        W 6875   1.731   2.240  10.861
 2676W        W 6876   6.226   9.957   2.254
 2677W        W 6877   9.088   0.879   9.989
 2678W        W 6878   6.892   9.105  10.319
 2679W        W 6879   6.775   0.759   2.289
 2680W        W 6880   9.972   4.209  11.407
 2681W        W 6881   9.941   6.693   1.742
 2682W        W 6882   8.541  10.909  11.257
 2683W        W 6883   7.214   4.661   4.143
 2684W        W 6884  10.901   2.138  10.153
 2685W        W 6885   9.299   4.139  10.135
 2686W        W 6886   3.823   6.629   1.648
 2687W        W 6887   5.616   1.800  11.735
 2688W        W 6888   4.342   6.967   9.728
 2689W        W 6889   2.969  11.396   1.723
 2690W        W 6890   8.477   8.899  10.424
 2691W        W 6891   3.886  11.073  11.665
 2692W        W 6892   6.523   7.870  11.868
 2693W        W 6893   4.195   2.207  11.470
 2694W        W 6894   8.070   3.801  10.909
 2695W        W 6895   5.712   2.907   1.865
 2696W        W 6896   6.431   7.798   1.089
 2697W        W 6897   8.704   5.137  11.122
 2698W        W 6898   0.708   5.536   2.563
 2699W        W 6899   3.652   0.520  11.353
 2700W        W 6900   4.973  11.039  10.784
 2701W        W 6901   2.889   8.941   0.908
 2702W        W 6902   8.046   2.709  10.285
 2703W        W 6903   7.104   0.773   0.942
 2704W        W 6904   4.739   7.159   2.691
 2705W        W 6905   6.708   3.692   2.236
 2706W        W 6906  10.086   1.498  10.769
 2707W        W 6907   4.561   9.930   3.510
 2708W        W 6908   8.878   5.631   2.648
 2709W        W 6909   8.228   4.224   3.248
 2710W        W 6910   1.764   6.537  11.020
 2711W        W 6911   0.795   1.846   2.347
 2712W        W 6912   1.312   7.525  10.530
 2713W        W 6913   8.816   7.092  11.804
 2714W        W 6914   0.014   3.745   2.227
 2715W        W 6915   4.715   6.653   1.414
 2716W        W 6916   7.500   4.079   2.880
 2717W        W 6917   7.787  10.692  11.093
 2718W        W 6918   7.942   7.686   1.260
 2719W        W 6919   0.781   6.443  10.516
 2720W        W 6920   7.531   4.651   9.940
 2721W        W 6921   6.520   0.889   3.265
 2722W        W 6922   6.088   5.606   0.273
 2723W        W 6923   9.043   6.710   3.199
 2724W        W 6924   5.473   8.906   0.991
 2725W        W 6925   5.525  10.915  11.246
 2726W        W 6926   6.547  10.933   1.423
 2727W        W 6927   9.046   9.949   9.608
 2728W        W 6928   2.884   6.068   3.317
 2729W        W 6929   3.219   5.546  10.065
 2730W        W 6930   8.423   5.965   9.602
 2731W        W 6931   2.192   5.597   3.464
 2732W        W 6932   5.057   3.785   1.173
 2733W        W 6933   5.588   9.320   9.371
 2734W        W 6934   7.567  10.006   0.398
 2735W        W 6935  10.604   4.516   8.922
 2736W        W 6936   2.658   8.940   1.792
 2737W        W 6937   2.796   7.682  11.687
 2738W        W 6938  11.267  11.460  10.296
 2739W        W 6939   7.567  10.570   1.709
 2740W        W 6940   0.442   9.156   2.232
 2741W        W 6941   4.758  10.216  11.011
 2742W        W 6942   1.878   0.072  11.507
 2743W        W 6943   9.023   6.719  10.963
 2744W        W 6944   3.804   2.723   0.118
 2745W        W 6945   7.873   9.788   1.734
 2746W        W 6946  10.253   5.018  11.665
 2747W        W 6947  10.983   2.968   3.185
 2748W        W 6948   7.112   8.714  10.034
 2749W        W 6949  10.333   7.683   2.095
 2750W        W 6950   6.958   1.267  10.041
 2751W        W 6951   9.125   0.369   2.196
 2752W        W 6952   4.741  11.374   3.339
 2753W        W 6953   8.885   3.554  10.351
 2754W        W 6954   0.004   8.021   1.389
 2755W        W 6955   7.443   7.252   3.140
 2756W        W 6956   5.238  10.798   0.655
 2757W        W 6957  10.677   7.135  11.424
 2758W        W 6958   1.744   9.842   0.535
 2759W        W 6959   2.213   1.865  10.279
 2760W        W 6960   8.456   7.660   1.852
 2761W        W 6961   8.412   4.186  10.766
 2762W        W 6962   2.137   9.843   1.410
 2763W        W 6963   5.062   7.781   0.406
 2764W        W 6964   3.167  11.415  10.625
 2765W        W 6965   5.289   6.923   9.954
 2766W        W 6966   8.653   5.851   1.382
 2767W        W 6967   1.810   8.612  11.342
 2768W        W 6968   1.877   9.386   1.258
 2769W        W 6969   7.545   9.178   9.439
 2770W        W 6970   2.360   6.977   3.192
 2771W        W 6971   1.898   9.042   3.361
 2772W        W 6972   0.847   9.082   2.545
 2773W        W 6973   2.623  11.367  10.885
 2774W        W 6974   6.216  10.438  11.356
 2775W        W 6975   1.241  11.476   1.297
 2776W        W 6976   8.003   7.595   8.839
 2777W        W 6977   6.527   6.698  11.722
 2778W        W 6978   4.229   3.888   8.813
 2779W        W 6979   2.684  10.163  11.978
 2780W        W 6980   6.819   6.552   2.495
 2781W        W 6981   1.097   7.100   1.868
 2782W        W 6982   0.729   8.342   9.374
 2783W        W 6983   7.509   2.555   0.706
 2784W        W 6984   3.523  10.000   9.680
 2785W        W 6985   9.752   1.490   3.353
 2786W        W 6986   9.041   6.166   1.360
 2787W        W 6987   7.655   4.274   2.428
 2788W        W 6988   5.624   5.682   0.488
 2789W        W 6989   2.652   5.070   8.896
 2790W        W 6990  10.120  11.274   2.582
 2791W        W 6991   4.768   0.662   9.908
 2792W        W 6992   1.299   4.402  10.203
 2793W        W 6993   1.333   1.799   9.818
 2794W        W 6994   3.937   8.102   3.050
 2795W        W 6995   3.966   6.453   2.659
 2796W        W 6996  11.295   8.573   9.509
 2797W        W 6997   2.185   7.698   1.870
 2798W        W 6998   5.671   4.291  10.247
 2799W        W 6999   5.212  10.739   8.701
 2800W        W 7000  11.275   2.847  11.232
 2801W        W 7001  10.927   8.468   9.148
 2802W        W 7002   2.516   5.527   8.711
 2803W        W 7003   0.186   9.133  10.852
 2804W        W 7004   8.946   5.656   8.925
 2805W        W 7005   2.720   9.456   3.240
 2806W        W 7006   5.790   8.876  11.006
 2807W        W 7007   0.384   8.940   0.808
 2808W        W 7008   8.551   9.790  10.305
 2809W        W 7009   4.537   3.974  11.798
 2810W        W 7010   6.835   2.286  11.116
 2811W        W 7011   0.338   4.030   9.886
 2812W        W 7012   4.204   0.422   0.036
 2813W        W 7013   4.902   2.808  11.414
 2814W        W 7014   1.775   0.937  10.651
 2815W        W 7015   6.025   5.099   9.983
 2816W        W 7016   9.552   9.884   2.425
 2817W        W 7017  11.467   0.359   1.660
 2818W        W 7018   8.902   1.767   2.187
 2819W        W 7019  11.056   0.040   1.718
 2820W        W 7020   2.859   8.520  11.079
 2821W        W 7021   6.537   3.640  10.870
 2822W        W 7022  10.323   9.170  11.330
 2823W        W 7023   3.870   1.376   3.442
 2824W        W 7024   5.212   4.131  11.903
 2825W        W 7025   1.870   1.961   3.042
 2826W        W 7026   3.282   8.600  11.351
 2827W        W 7027   6.679   6.668   3.624
 2828W        W 7028   2.740   0.012   2.280
 2829W        W 7029   1.109   5.420   0.764
 2830W        W 7030   9.974   1.192  10.320
 2831W        W 7031   2.876   5.900  10.360
 2832W        W 7032   4.856   9.526   0.221
 2833W        W 7033   6.229   5.852   9.403
 2834W        W 7034   5.530   1.921   9.543
 2835W        W 7035   0.455   0.956   1.368
 2836W        W 7036   9.060   5.044   4.287
 2837W        W 7037   6.739   2.586   4.031
 2838W        W 7038   3.235   0.496   2.843
 2839W        W 7039   0.226   2.167   2.808
 2840W        W 7040   6.449  11.170   0.976
 2841W        W 7041   4.512   8.586   0.223
 2842W        W 7042   8.128  10.029   9.135
 2843W        W 7043   0.914  11.050   3.794
 2844W        W 7044  10.034  10.340  11.835
 2845W        W 7045   2.667   8.134   2.954
 2846W        W 7046   9.940   6.237   1.472
 2847W        W 7047   3.214   9.237   2.402
 2848W        W 7048   8.341   0.786   8.987
 2849W        W 7049   0.032   0.674   1.191
 2850W        W 7050   5.224  10.134  10.799
 2851W        W 7051   8.902   9.517   0.402
 2852W        W 7052   9.336   2.259  10.101
 2853W        W 7053   5.640   7.049   9.013
 2854W        W 7054   6.566   9.520   2.815
 2855W        W 7055   8.457   9.027   1.740
 2856W        W 7056   4.582   9.744  10.994
 2857W        W 7057   4.377   9.581  11.454
 2858W        W 7058   4.162  10.047   0.508
 2859W        W 7059   7.944  10.052   0.730
 2860W        W 7060   4.318   1.431  11.039
 2861W        W 7061   8.970   0.659   9.512
 2862W        W 7062   7.578  10.380   1.238
 2863W        W 7063   0.451   9.920   9.507
 2864W        W 7064  10.824   0.227   1.274
 2865W        W 7065   2.761   7.371  10.185
 2866W        W 7066   9.907   6.519   0.284
 2867W        W 7067  10.368   1.305   9.242
 2868W        W 7068   8.375   5.040  11.493
 2869W        W 7069   7.428   0.930   9.154
 2870W        W 7070   8.758   7.554  11.044
 2871W        W 7071   0.748   2.317   9.660
 2872W        W 7072   2.150   9.120   2.909
 2873W        W 7073   8.461   3.231   8.389
 2874W        W 7074   0.297   1.735  10.057
 2875W        W 7075   8.341   4.128   0.485
 2876W        W 7076   6.264   5.755   0.785
 2877W        W 7077   6.094   0.976   9.006
 2878W        W 7078   6.058   7.436   9.786
 2879W        W 7079   2.330   0.246  11.350
 2880W        W 7080   4.327   6.816   2.687
 2881W        W 7081   2.083   7.892   1.052
 2882W        W 7082   8.038   9.254   9.563
 2883W        W 7083   7.630   6.706  11.332
 2884W        W 7084  10.854  11.429   0.227
 2885W        W 7085   2.222   7.463   3.079
 2886W        W 7086   2.389   5.268   2.152
 2887W        W 7087   3.298   4.713   8.947
 2888W        W 7088   2.157   2.889   9.332
 2889W        W 7089  10.523   9.877   3.469
 2890W        W 7090   8.878   0.627   8.976
 2891W        W 7091   3.455  10.941   3.857
 2892W        W 7092   0.121   1.455   2.223
 2893W        W 7093   6.809   7.970  11.170
 2894W        W 7094   2.695  10.686  10.417
 2895W        W 7095   4.593   4.029   2.560
 2896W        W 7096   8.160   3.659   0.337
 2897W        W 7097   2.377   7.562   0.686
 2898W        W 7098   6.468   9.389  10.405
 2899W        W 7099   4.103   6.425  11.239
 2900W        W 7100  10.901   5.358  11.328
 2901W        W 7101   0.886   6.694  11.591
 2902W        W 7102   0.264   0.421   9.951
 2903W        W 7103   7.150  11.337   3.544
 2904W        W 7104   5.962   8.059  11.003
 2905W        W 7105   7.412   9.596   1.850
 2906W        W 7106   5.671  11.343   1.329
 2907W        W 7107   7.947   3.691  10.417
 2908W        W 7108   2.248   1.159   2.780
 2909W        W 7109   0.075   4.178   2.511
 2910W        W 7110   4.053   3.403   8.771
 2911W        W 7111   9.411   6.604   3.574
 2912W        W 7112   5.333  11.302   1.732
 2913W        W 7113   9.028   2.287   1.364
 2914W        W 7114   8.950   9.028   1.549
 2915W        W 7115   9.931   0.443   2.330
 2916W        W 7116   0.338   9.253   1.209
 2917W        W 7117   0.696   9.524   1.957
 2918W        W 7118   5.101   9.603   8.538
 2919W        W 7119   0.279   8.072   3.200
 2920W        W 7120   8.038   9.501   2.458
 2921W        W 7121  11.439  11.384   2.513
 2922W        W 7122   7.107   2.948   4.109
 2923W        W 7123   4.826  10.823   9.888
 2924W        W 7124   6.441   2.351  10.808
 2925W        W 7125   5.197   6.914   3.589
 2926W        W 7126   4.085  11.059  11.182
 2927W        W 7127   2.726  11.043   2.030
 2928W        W 7128  10.601   0.468   0.887
 2929W        W 7129   5.233   2.629   0.823
 2930W        W 7130   0.242   6.960   1.265
 2931W        W 7131   0.577   1.763   2.905
 2932W        W 7132   0.891   7.671   9.999
 2933W        W 7133   1.553   2.127  10.289
 2934W        W 7134   0.173   9.580   2.080
 2935W        W 7135   2.878   2.132   0.057
 2936W        W 7136   8.421   6.759  11.981
 2937W        W 7137  10.610   8.569  10.471
 2938W        W 7138   1.846   9.329  11.837
 2939W        W 7139   6.307  10.470  11.882
 2940W        W 7140   0.351   3.383   2.365
 2941W        W 7141   7.276   2.412  11.355
 2942W        W 7142   3.397   5.665   2.838
 2943W        W 7143   3.590   4.324   3.080
 2944W        W 7144  11.097   0.889  10.953
 2945W        W 7145   3.235   5.170   2.864
 2946W        W 7146   0.849   9.501  10.306
 2947W        W 7147  10.369   0.430   0.011
 2948W        W 7148   5.089  10.146   2.604
 2949W        W 7149   9.551   5.033   2.663
 2950W        W 7150   9.516   6.963   8.638
 2951W        W 7151   2.666   1.978   1.868
 2952W        W 7152   3.866   1.444   9.461
 2953W        W 7153  10.888   5.675   0.750
 2954W        W 7154   3.960  11.303   9.987
 2955W        W 7155   2.671  10.254  10.736
 2956W        W 7156   0.320   5.194   3.309
 2957W        W 7157   7.575   3.355  10.498
 2958W        W 7158   9.871   9.613   9.553
 2959W        W 7159   5.152   9.326   8.981
 2960W        W 7160   5.519   6.319  11.821
 2961W        W 7161   1.229   3.239   0.183
 2962W        W 7162   5.979   1.750   2.374
 2963W        W 7163   0.879  10.348   1.866
 2964W        W 7164   3.765   1.235   2.417
 2965W        W 7165   9.355   2.760   1.020
 2966W        W 7166   7.427   5.014   3.795
 2967W        W 7167   5.058   6.086   0.508
 2968W        W 7168   4.920  10.106   1.731
 2969W        W 7169   9.372   8.135   1.365
 2970W        W 7170   7.942   9.058   9.097
 2971W        W 7171   3.848   5.508   0.244
 2972W        W 7172   1.711   3.153  10.953
 2973W        W 7173   8.951   8.828   0.270
 2974W        W 7174   2.897  10.295   9.101
 2975W        W 7175   9.088   1.493   2.592
 2976W        W 7176   5.121   7.324   8.884
 2977W        W 7177  10.780   3.278   0.908
 2978W        W 7178   2.738   1.853   2.694
 2979W        W 7179   5.861   3.307   9.392
 2980W        W 7180  10.022   9.467   0.893
 2981W        W 7181   8.949   2.942   0.767
 2982W        W 7182   0.178   4.048  11.660
 2983W        W 7183   5.203   1.442  11.085
 2984W        W 7184   2.170   4.272   9.586
 2985W        W 7185   6.791   2.106   2.419
 2986W        W 7186   0.510   0.419  10.388
 2987W        W 7187  10.148   7.089   9.492
 2988W        W 7188   3.553   6.704   9.829
 2989W        W 7189   6.132   6.516   9.948
 2990W        W 7190   2.695   6.746   8.261
 2991W        W 7191   0.353   0.065   1.167
 2992W        W 7192   2.073   4.292   9.077
 2993W        W 7193  11.406   3.897   0.760
 2994W        W 7194   3.720   0.850   9.085
 2995W        W 7195   6.529   4.588  10.697
 2996W        W 7196   8.619  10.470   9.004
 2997W        W 7197   0.132   0.418   3.217
 2998W        W 7198   8.858   4.869  11.519
 2999W        W 7199   9.769  11.325  11.728
 3000W        W 7200   0.454   3.316   8.906
 3001W        W 7201   2.229   0.012   0.010
 3002W        W 7202  10.922   0.437   0.432
 3003W        W 7203   4.876   1.464   9.567
 3004W        W 7204   0.917   1.369   2.857
 3005W        W 7205   4.324   2.309   2.649
 3006W        W 7206   7.268   2.811   3.117
 3007W        W 7207   3.501   9.413   2.772
 3008W        W 7208   4.358   3.699  10.568
 3009W        W 7209  10.772   0.803  10.576
 3010W        W 7210   9.880   7.678   2.984
 3011W        W 7211   1.234   5.769   1.871
 3012W        W 7212   0.774   8.510  11.231
 3013W        W 7213   2.980   6.000   9.863
 3014W        W 7214   1.306   3.173   1.753
 3015W        W 7215   7.404   2.099   0.933
 3016W        W 7216   1.366   8.573   0.947
 3017W        W 7217   4.106   9.195  10.432
 3018W        W 7218   0.662   8.345   3.760
 3019W        W 7219   3.748   4.936  10.287
 3020W        W 7220   9.592   5.155  11.705
 3021W        W 7221   9.995   8.107   2.699
 3022W        W 7222   2.277   1.960   9.251
 3023W        W 7223   5.679   9.019   2.530
 3024W        W 7224   5.132   3.811  10.914
 3025W        W 7225   6.718   2.684   8.553
 3026W        W 7226   4.249   1.121  11.915
 3027W        W 7227   6.537   1.685   8.776
 3028W        W 7228   3.221   5.289  11.034
 3029W        W 7229   2.636   0.616   1.176
 3030W        W 7230   3.863   5.864   1.469
 3031W        W 7231   3.629   4.346   1.235
 3032W        W 7232   5.094   5.707  10.208
 3033W        W 7233   0.696   7.994  11.347
 3034W        W 7234   8.676   7.451  10.374
 3035W        W 7235   4.617   7.955  11.044
 3036W        W 7236  11.205  11.035   1.778
 3037W        W 7237  10.049   5.180   2.458
 3038W        W 7238   6.263   3.274   9.062
 3039W        W 7239   1.392   5.725  10.207
 3040W        W 7240   2.663   1.691  10.370
 3041W        W 7241  10.142   9.596   1.633
 3042W        W 7242   2.653   0.188  11.815
 3043W        W 7243   0.152   2.617   0.985
 3044W        W 7244   3.137   7.536   1.676
 3045W        W 7245   3.635   9.814   3.185
 3046W        W 7246   0.925  10.802  11.959
 3047W        W 7247   6.279   7.677   0.624
 3048W        W 7248   5.984   1.321   8.447
 3049W        W 7249   9.887   5.139  11.296
 3050W        W 7250   9.187   7.941   9.027
 3051W        W 7251   7.967   4.706   2.527
 3052W        W 7252   6.766   8.830  11.153
 3053W        W 7253   7.716   3.629   2.836
 3054W        W 7254   3.158  10.903  11.913
 3055W        W 7255   7.739   7.587  10.372
 3056W        W 7256  11.040  11.493   3.311
 3057W        W 7257   7.054   0.567   9.063
 3058W        W 7258   0.507  10.846  11.549
 3059W        W 7259   9.918   7.609   9.624
 3060W        W 7260   0.892   0.438   0.665
 3061W        W 7261   2.327   7.203   9.927
 3062W        W 7262   1.196   1.199   9.172
 3063W        W 7263   4.418   2.666  11.413
 3064W        W 7264   3.692  11.383   9.080
 3065W        W 7265  10.407   8.173  11.476
 3066W        W 7266  10.940   2.740   0.213
 3067W        W 7267   9.939   4.901   3.460
 3068W        W 7268   8.890   7.253   0.343
 3069W        W 7269   2.768   1.819  11.637
 3070W        W 7270   7.482  10.381   9.793
 3071W        W 7271   9.464   8.876   8.945
 3072W        W 7272   7.476   6.735   3.183
 3073W        W 7273   5.508  10.749   1.933
 3074W        W 7274   1.462   5.269  11.487
 3075W        W 7275   0.009  10.088   2.017
 3076W        W 7276   5.534   0.619  10.161
 3077W        W 7277   5.817   7.575   0.796
 3078W        W 7278   5.238   3.729   2.280
 3079W        W 7279  10.539   1.413   2.920
 3080W        W 7280   8.177   5.045  10.454
 3081W        W 7281   6.667  10.468   1.235
 3082W        W 7282   6.756   3.769  11.320
 3083W        W 7283   6.058  11.014   1.276
 3084W        W 7284   9.865   4.694  11.567
 3085W        W 7285  11.363   9.241   3.457
 3086W        W 7286   0.511   5.915  10.846
 3087W        W 7287   7.477   8.516  11.479
 3088W        W 7288   5.191   5.725   9.672
 3089W        W 7289   8.054   0.019   3.448
 3090W        W 7290   2.664  10.202  10.238
 3091W        W 7291   8.326   0.787  11.208
 3092W        W 7292   9.429   7.375   1.062
 3093W        W 7293   8.966   1.600   9.336
 3094W        W 7294   5.601   4.470   1.089
 3095W        W 7295   2.898   4.650   8.613
 3096W        W 7296   5.306  10.978   9.773
 3097W        W 7297   1.840   6.546   2.789
 3098W        W 7298   4.158  11.449   8.882
 3099W        W 7299   6.597   9.851   8.949
 3100W        W 7300   5.819   6.050  11.537
 3101W        W 7301   0.855   2.663  10.709
 3102W        W 7302   4.600   5.442   1.433
 3103W        W 7303   4.287   7.831  10.073
 3104W        W 7304   2.839   7.510   2.096
 3105W        W 7305   1.431   8.183  10.526
 3106W        W 7306   7.508   2.756   1.653
 3107W        W 7307  11.380   1.265   0.034
 3108W        W 7308   8.034   0.819   1.986
 3109W        W 7309   6.126   0.450  11.778
 3110W        W 7310   5.250  10.497   1.065
 3111W        W 7311   8.111   2.447  11.935
 3112W        W 7312   7.046   4.083   1.081
 3113W        W 7313   3.262   8.658   9.355
 3114W        W 7314   3.596   5.762  11.857
 3115W        W 7315   5.805  10.760   0.288
 3116W        W 7316   4.044   0.783  10.438
 3117W        W 7317  11.371   5.202   9.762
 3118W        W 7318   6.443   4.767  11.704
 3119W        W 7319   1.198   8.588   9.328
 3120W        W 7320   3.261   7.910   0.366
 3121W        W 7321   3.284   8.196   1.261
 3122W        W 7322   1.805  11.226  10.562
 3123W        W 7323   4.565   0.012   0.894
 3124W        W 7324   8.470  11.318   2.637
 3125W        W 7325   6.162   1.301   0.740
 3126W        W 7326   0.904   7.282   3.964
 3127W        W 7327   0.375   3.810   0.989
 3128W        W 7328   3.736   3.203  11.883
 3129W        W 7329   1.630  10.308   9.014
 3130W        W 7330   3.518  11.274   3.059
 3131W        W 7331  11.050   8.728   0.586
 3132W        W 7332   5.702   2.294   9.203
 3133W        W 7333   2.607   5.096   3.753
 3134W        W 7334   6.758  10.523   9.050
 3135W        W 7335   5.731   2.831  10.011
 3136W        W 7336   3.987   4.665   9.819
 3137W        W 7337   4.529   9.094   0.271
 3138W        W 7338   7.767   8.321   9.237
 3139W        W 7339   0.256   0.843  10.285
 3140W        W 7340  11.475   1.238   1.302
 3141W        W 7341  11.119  10.747   3.548
 3142W        W 7342   1.292  11.360  10.502
 3143W        W 7343   6.848   7.865   2.349
 3144W        W 7344   6.505   4.504   2.617
 3145W        W 7345   1.024   4.514   1.324
 3146W        W 7346   4.271  10.320   1.964
 3147W        W 7347   0.631  10.054   0.189
 3148W        W 7348   1.398   9.527  11.012
 3149W        W 7349   8.965   1.086   9.188
 3150W        W 7350   2.915   0.285   0.250
 3151W        W 7351  11.311   8.738   3.340
 3152W        W 7352  11.225   4.603   3.368
 3153W        W 7353  11.222   4.340   9.881
 3154W        W 7354   1.909   1.870   0.039
 3155W        W 7355   6.967   9.798   0.912
 3156W        W 7356   5.288   8.955  10.987
 3157W        W 7357   1.890   3.885   0.882
 3158W        W 7358  10.492   8.439  11.921
 3159W        W 7359   4.388   9.945   9.232
 3160W        W 7360   2.563   1.210   2.390
 3161W        W 7361   8.427   5.549   8.967
 3162W        W 7362   1.561  10.386   0.990
 3163W        W 7363   3.741   1.773  10.421
 3164W        W 7364   5.630   1.676   1.597
 3165W        W 7365   8.165   1.043   2.439
 3166W        W 7366  10.530   9.339   0.177
 3167W        W 7367   6.237   5.074  10.470
 3168W        W 7368   3.597  10.984   9.452
 3169W        W 7369   8.492   2.669   9.997
 3170W        W 7370   2.313   8.665   9.099
 3171W        W 7371  10.936   9.530   3.388
 3172W        W 7372   9.340   4.257   9.631
 3173W        W 7373   5.739   7.992   9.091
 3174W        W 7374   3.152   6.949   1.052
 3175W        W 7375   9.994   4.575  10.159
 3176W        W 7376   2.826   2.801   0.476
 3177W        W 7377   5.587   2.832   3.381
 3178W        W 7378   6.960   0.780  10.248
 3179W        W 7379  11.461  10.952   2.258
 3180W        W 7380   2.116   6.119  11.761
 3181W        W 7381  11.344   7.601   1.620
 3182W        W 7382   1.691   0.695   9.171
 3183W        W 7383  10.592   8.859   1.385
 3184W        W 7384   3.196   8.881   1.991
 3185W        W 7385   6.080   8.318   1.781
 3186W        W 7386   0.362  11.064   1.315
 3187W        W 7387   6.000  10.917  11.441
 3188W        W 7388   9.867   2.231  11.779
 3189W        W 7389   8.935   0.872  10.749
 3190W        W 7390   8.617   3.784   2.678
 3191W        W 7391   1.214   6.524   3.555
 3192W        W 7392   8.882   1.224   9.685
 3193W        W 7393   3.827   7.788  11.415
 3194W        W 7394   8.312   9.529   2.020
 3195W        W 7395   9.309   7.840   1.851
 3196W        W 7396   0.950   9.872   9.375
 3197W        W 7397   8.790   4.566   1.268
 3198W        W 7398   1.089  11.314  11.937
 3199W        W 7399   1.205   1.009   2.616
 3200W        W 7400   5.724   3.276   8.392
 3201W        W 7401   9.948   6.184   9.840
 3202W        W 7402   5.644   0.931   2.209
 3203W        W 7403   2.693   7.171  11.742
 3204W        W 7404   5.753  11.271   0.420
 3205W        W 7405   2.642   2.848   9.452
 3206W        W 7406   3.820   2.614   3.225
 3207W        W 7407  10.952   8.949   9.291
 3208W        W 7408   2.216  11.234   2.760
 3209W        W 7409   9.068   4.679   9.674
 3210W        W 7410   8.130   9.389   1.565
 3211W        W 7411   7.540   9.018   2.937
 3212W        W 7412   2.003   7.635   2.636
 3213W        W 7413   8.706  11.340   0.384
 3214W        W 7414   0.790   1.592  11.348
 3215W        W 7415   8.435   0.569   1.747
 3216W        W 7416   7.501   7.976   1.008
 3217W        W 7417   4.012   2.819   9.563
 3218W        W 7418   0.830   8.807   0.059
 3219W        W 7419  10.770   4.864  11.446
 3220W        W 7420  11.277   8.182   0.371
 3221W        W 7421   2.734   1.522  11.226
 3222W        W 7422   6.605   0.746   2.777
 3223W        W 7423   4.173   0.967   3.358
 3224W        W 7424  10.816  10.799  10.895
 3225W        W 7425   7.255   1.341   9.583
 3226W        W 7426  10.931   2.550   9.718
 3227W        W 7427   9.428   6.621   0.331
 3228W        W 7428   1.875   2.906   2.707
 3229W        W 7429   3.480   4.398   0.457
 3230W        W 7430   9.565   6.555   0.819
 3231W        W 7431  10.218   1.269   3.327
 3232W        W 7432   7.514   9.435  11.289
 3233W        W 7433   9.897   9.478  10.523
 3234W        W 7434   3.914  10.064   9.350
 3235W        W 7435   3.443   7.962   1.750
 3236W        W 7436  10.576   1.828   9.194
 3237W        W 7437  10.796   0.831   3.479
 3238W        W 7438   3.597   8.952   0.570
 3239W        W 7439   6.984   4.317   2.786
 3240W        W 7440   3.142   3.214   0.453
 3241W        W 7441   6.488   9.206   8.487
 3242W        W 7442   6.102   5.226  11.899
 3243W        W 7443   4.330   8.647   2.574
 3244W        W 7444   6.277  11.296   0.370
 3245W        W 7445   3.662   6.508   2.141
 3246W        W 7446   2.817   4.329   0.930
 3247W        W 7447   1.248  10.059   1.261
 3248W        W 7448  11.300  10.290   9.941
 3249W        W 7449   8.081  10.317  11.277
 3250W        W 7450   0.931   5.631   9.957
 3251W        W 7451   8.410   7.071   9.816
 3252W        W 7452   0.785   7.771  10.880
 3253W        W 7453   3.950   3.208   0.896
 3254W        W 7454   6.404   5.755  10.551
 3255W        W 7455  10.417   9.787   0.925
 3256W        W 7456   0.799   9.972   0.666
 3257W        W 7457   0.397  11.026   9.951
 3258W        W 7458   4.660   4.392  10.016
 3259W        W 7459   0.855   1.264  11.730
 3260W        W 7460  11.475   0.166   0.709
 3261W        W 7461  10.914   1.251   3.221
 3262W        W 7462   1.933  10.408   3.134
 3263W        W 7463   6.310   6.035   1.214
 3264W        W 7464   0.308  11.454  10.243
 3265W        W 7465  10.262   0.517   2.735
 3266W        W 7466   5.358  10.078   0.769
 3267W        W 7467   5.981  11.382   2.838
 3268W        W 7468   2.792   9.389   9.256
 3269W        W 7469   8.369   9.269   3.250
 3270W        W 7470   9.919   2.831   0.460
 3271W        W 7471   9.400   0.024   1.449
 3272W        W 7472   5.034  11.490   2.506
 3273W        W 7473   9.685   0.041   0.167
 3274W        W 7474   8.405   8.621   2.052
 3275W        W 7475   3.358   8.470   2.795
 3276W        W 7476   0.378   6.090   0.741
 3277W        W 7477   4.209   6.530   8.562
 3278W        W 7478   5.064   2.359  10.000
 3279W        W 7479   1.163   8.782   2.905
 3280W        W 7480   2.627   8.505   3.291
 3281W        W 7481   0.385  11.050   8.453
 3282W        W 7482   7.510   1.414   1.193
 3283W        W 7483   1.373   2.213   3.307
 3284W        W 7484   9.962   7.190   9.945
 3285W        W 7485   1.300   0.589   2.376
 3286W        W 7486   2.690   3.463   1.019
 3287W        W 7487  11.282   6.880   0.376
 3288W        W 7488   7.475   8.190   0.307
 3289W        W 7489   6.978  10.175   0.061
 3290W        W 7490   0.460   0.464   1.462
 3291W        W 7491   5.511   3.262   0.097
 3292W        W 7492   8.655   5.954  10.064
 3293W        W 7493   2.226   4.108   1.751
 3294W        W 7494   0.395   2.965  11.850
 3295W        W 7495   7.673   0.069   1.677
 3296W        W 7496   1.911   5.142   2.312
 3297W        W 7497   7.480   2.678   2.169
 3298W        W 7498   1.407   6.926   9.521
 3299W        W 7499   8.507   0.279   2.902
 3300W        W 7500   1.565   9.436   0.846
 3301W        W 7501  11.336   1.621   0.416
 3302W        W 7502   6.596   7.110   9.648
 3303W        W 7503   9.054   8.889  11.233
 3304W        W 7504   3.744   4.649   0.825
 3305W        W 7505   1.805   0.462  10.017
 3306W        W 7506   8.382   8.897   9.411
 3307W        W 7507   1.039   7.936  11.740
 3308W        W 7508   0.440   5.551  10.480
 3309W        W 7509   2.961   9.494   9.812
 3310W        W 7510  10.852   0.666   8.940
 3311W        W 7511   3.238   8.207  10.094
 3312W        W 7512   7.465   0.531   0.272
 3313W        W 7513  11.324   6.460  10.455
 3314W        W 7514   3.170   1.266   1.543
 3315W        W 7515   3.192   7.682  10.800
 3316W        W 7516   6.697   9.056   2.408
 3317W        W 7517   8.021   0.511   0.288
 3318W        W 7518   1.883   3.085   1.278
 3319W        W 7519   4.983  10.356   0.503
 3320W        W 7520  10.322   3.667   8.674
 3321W        W 7521   3.891   2.340   0.908
 3322W        W 7522   7.540   5.621   1.571
 3323W        W 7523   1.361   8.918   1.947
 3324W        W 7524   6.213  10.142   1.186
 3325W        W 7525  10.585   6.090   0.681
 3326W        W 7526   3.982   2.195   3.535
 3327W        W 7527   9.768   3.067   1.863
 3328W        W 7528   0.215   4.595   3.033
 3329W        W 7529   0.540   3.897  10.564
 3330W        W 7530   6.042  10.588   1.023
 3331W        W 7531  10.478  11.203   0.493
 3332W        W 7532  10.369  10.459   9.232
 3333W        W 7533   4.361   5.994  11.180
 3334W        W 7534   9.351   1.010   9.568
 3335W        W 7535   3.072   1.446  10.557
 3336W        W 7536   4.735   6.785   9.482
 3337W        W 7537   4.631   1.112   2.895
 3338W        W 7538  10.731   3.632   2.672
 3339W        W 7539   0.621   9.037  10.521
 3340W        W 7540   8.542   1.439   8.460
 3341W        W 7541   0.844   0.487   3.165
 3342W        W 7542   0.479   2.295   8.788
 3343W        W 7543   6.177  11.471   9.876
 3344W        W 7544   4.088   1.611   1.304
 3345W        W 7545   9.936   6.653  11.280
 3346W        W 7546   4.056   5.041   0.050
 3347W        W 7547   8.046  10.537   1.429
 3348W        W 7548   7.275   5.457   1.035
 3349W        W 7549  11.378   6.007   2.437
 3350W        W 7550   9.464   8.387   2.757
 3351W        W 7551   0.578   7.493  11.277
 3352W        W 7552   7.462   6.042   1.908
 3353W        W 7553   3.038   9.762   3.512
 3354W        W 7554   6.778   4.215   2.279
 3355W        W 7555   3.435   6.558   2.643
 3356W        W 7556   4.989   7.529   1.274
 3357W        W 7557   0.866   8.417  11.723
 3358W        W 7558   7.415   9.902  10.040
 3359W        W 7559   0.943   5.677  10.473
 3360W        W 7560   7.988   8.926   3.189
 3361W        W 7561   5.700   3.122  11.176
 3362W        W 7562  11.436   2.793   2.922
 3363W        W 7563   5.208  10.535  11.106
 3364W        W 7564   2.259   8.559   0.772
 3365W        W 7565   0.378   1.760  11.600
 3366W        W 7566   2.899   7.167  10.784
 3367W        W 7567   8.347   5.658   2.744
 3368W        W 7568   0.938   8.035   1.471
 3369W        W 7569   6.736   9.120   4.148
 3370W        W 7570   1.111  11.241   0.458
 3371W        W 7571   6.587   3.050   0.040
 3372W        W 7572   9.175   6.429   1.804
 3373W        W 7573   2.841   2.958   1.926
 3374W        W 7574   6.508   4.375   9.803
 3375W        W 7575   3.211   3.485   3.217
 3376W        W 7576   4.752   0.766  11.306
 3377W        W 7577   9.366   4.084  10.639
 3378W        W 7578   7.792   3.369   8.719
 3379W        W 7579   3.777   6.461   9.440
 3380W        W 7580  10.325   9.502  11.737
 3381W        W 7581   3.812   4.123   2.647
 3382W        W 7582   4.542   7.304   9.413
 3383W        W 7583   6.935   0.490   9.583
 3384W        W 7584   1.044   6.226   8.791
 3385W        W 7585   1.283   2.445  10.932
 3386W        W 7586   4.898   6.552  10.600
 3387W        W 7587   9.365   2.316  11.618
 3388W        W 7588  10.956   6.720   2.667
 3389W        W 7589   4.266   5.312   1.866
 3390W        W 7590   5.011   2.391   1.878
 3391W        W 7591   5.469   4.965   2.807
 3392W        W 7592   9.790   9.939  11.269
 3393W        W 7593   4.394   7.025   0.627
 3394W        W 7594   8.241   6.969   3.366
 3395W        W 7595  10.848  11.040  11.842
 3396W        W 7596  10.482   6.125   3.244
 3397W        W 7597   5.250   2.229   8.949
 3398W        W 7598   7.034   1.010   8.806
 3399W        W 7599   7.055   2.872  11.251
 3400W        W 7600   6.790   7.040  10.180
 3401W        W 7601   5.232   5.730   0.844
 3402W        W 7602  10.020   7.178  10.799
 3403W        W 7603   9.029   6.188   9.766
 3404W        W 7604   4.181   1.948   1.684
 3405W        W 7605   2.945   8.641   9.934
 3406W        W 7606   0.399   9.558   8.518
 3407W        W 7607   9.907   8.676   8.751
 3408W        W 7608   6.496   9.644   9.419
 3409W        W 7609   3.117   1.683   1.879
 3410W        W 7610   8.440   2.558   8.535
 3411W        W 7611   5.246   1.430   9.207
 3412W        W 7612   4.163   3.160   9.901
 3413W        W 7613   9.513  10.271  10.957
 3414W        W 7614   3.023   3.159  10.645
 3415W        W 7615   3.580   8.574   0.246
 3416W        W 7616   1.351   2.644   9.900
 3417W        W 7617   1.788   7.663  10.409
 3418W        W 7618   4.109   6.739  10.837
 3419W        W 7619   7.841   6.923   1.543
 3420W        W 7620   1.942   2.856   1.788
 3421W        W 7621   8.418   6.299   0.820
 3422W        W 7622   6.684  11.268   2.368
 3423W        W 7623   2.750   2.581   9.039
 3424W        W 7624   2.351   6.909   9.495
 3425W        W 7625   4.317   0.372  10.610
 3426W        W 7626   3.118  10.836   9.557
 3427W        W 7627   7.100   5.017   0.092
 3428W        W 7628  10.814   9.013   0.947
 3429W        W 7629   9.599   1.482   2.631
 3430W        W 7630   4.318   9.873   2.831
 3431W        W 7631   0.708   0.906   2.718
 3432W        W 7632   6.743  10.617   3.223
 3433W        W 7633  10.937  10.905   0.333
 3434W        W 7634  10.933   8.076   2.724
 3435W        W 7635   5.826   6.672  10.928
 3436W        W 7636   8.966   4.406  11.383
 3437W        W 7637   2.199   8.378   9.492
 3438W        W 7638   4.136   3.054   3.249
 3439W        W 7639   2.499   2.200   2.313
 3440W        W 7640   4.162   3.635  10.115
 3441W        W 7641   6.550  10.501  10.169
 3442W        W 7642   3.482   8.790   2.416
 3443W        W 7643   6.619   5.191  11.987
 3444W        W 7644   9.885   2.700   9.590
 3445W        W 7645  10.826   8.947  11.231
 3446W        W 7646   1.337   5.211   0.356
 3447W        W 7647   7.202   6.972   0.913
 3448W        W 7648   2.337   1.073   1.934
 3449W        W 7649   8.661   7.784   0.917
 3450W        W 7650   6.996   3.912  11.760
 3451W        W 7651   7.104   8.556   3.431
 3452W        W 7652   9.805   4.562   1.021
 3453W        W 7653   8.629  11.234   1.282
 3454W        W 7654   1.677   0.836   9.652
 3455W        W 7655   8.072   0.989   3.439
 3456W        W 7656   8.195  10.483  10.812
 3457W        W 7657  10.822   5.731   3.092
 3458W        W 7658   2.191   4.873   3.564
 3459W        W 7659   5.283   7.879  10.282
 3460W        W 7660   1.759   2.701   9.598
 3461W        W 7661   0.094   1.748  10.553
 3462W        W 7662   9.394   2.740   3.031
 3463W        W 7663   3.408   1.237   9.282
 3464W        W 7664   7.105   3.930   1.988
 3465W        W 7665   8.795   5.162   8.977
 3466W        W 7666   0.269   8.285   0.238
 3467W        W 7667   7.700   8.043  11.260
 3468W        W 7668   5.129   6.850   2.510
 3469W        W 7669   2.412   9.465  10.159
 3470W        W 7670   6.705   6.913  10.704
 3471W        W 7671   5.068   4.216   2.403
 3472W        W 7672   0.050   9.640  10.917
 3473W        W 7673   5.892   7.492   3.135
 3474W        W 7674  11.392   8.796   9.059
 3475W        W 7675   7.742   8.537  11.949
 3476W        W 7676   5.157   9.361   1.881
 3477W        W 7677   1.806   9.485   3.057
 3478W        W 7678   3.032   5.266   0.645
 3479W        W 7679   5.962   6.068   0.057
 3480W        W 7680  10.844   4.528   9.473
 3481W        W 7681   9.014   6.702   1.407
 3482W        W 7682   0.789  10.801   1.188
 3483W        W 7683   5.983   0.810  10.338
 3484W        W 7684  11.468   1.284  10.804
 3485W        W 7685   9.578   5.410  10.943
 3486W        W 7686   4.301   9.452   9.449
 3487W        W 7687  10.282   2.781   8.927
 3488W        W 7688   4.024   5.547   2.365
 3489W        W 7689  10.825   8.187  10.138
 3490W        W 7690   4.687   0.830   3.310
 3491W        W 7691   1.371   6.104  11.139
 3492W        W 7692   6.041   6.472  11.778
 3493W        W 7693   9.772   4.118  10.315
 3494W        W 7694   8.331   1.442   0.850
 3495W        W 7695   5.736   5.760   0.985
 3496W        W 7696   3.579   8.318   2.172
 3497W        W 7697   8.548   4.677   3.207
 3498W        W 7698   1.221   8.634   0.434
 3499W        W 7699   8.870  10.468   0.451
 3500W        W 7700   0.810   4.747   2.185
 3501W        W 7701   0.535  10.586  10.911
 3502W        W 7702  10.036   1.725   9.574
 3503W        W 7703   4.313   3.705   9.633
 3504W        W 7704   2.396   3.027   3.308
 3505W        W 7705   3.303   9.590   8.842
 3506W        W 7706   2.387   5.328  10.973
 3507W        W 7707   9.349   7.021   0.686
 3508W        W 7708   7.501   4.585   2.810
 3509W        W 7709  11.068  11.377   8.530
 3510W        W 7710   1.613   8.641   3.210
 3511W        W 7711  10.851   8.359   1.297
 3512W        W 7712   6.789   5.207   1.891
 3513W        W 7713  11.306   5.747   1.894
 3514W        W 7714   8.306  11.195  10.498
 3515W        W 7715   2.790   5.040  10.876
 3516W        W 7716   2.260   6.635  11.279
 3517W        W 7717   1.575   8.541   2.373
 3518W        W 7718   3.028  10.552   0.762
 3519W        W 7719   3.258   5.596   9.022
 3520W        W 7720   1.030  10.717  11.002
 3521W        W 7721   1.823   6.588  11.549
 3522W        W 7722   8.141   8.429   3.204
 3523W        W 7723   4.598   9.029   9.376
 3524W        W 7724  11.350   3.311   9.555
 3525W        W 7725   3.188   4.164  11.987
 3526W        W 7726   9.049   2.294   2.229
 3527W        W 7727   1.276   0.733  11.393
 3528W        W 7728   3.134   4.762   9.536
 3529W        W 7729   5.258   1.407   0.425
 3530W        W 7730   9.325   4.679   2.321
 3531W        W 7731   0.478   0.251   2.873
 3532W        W 7732   0.747   6.404  11.145
 3533W        W 7733   3.740   2.626   2.694
 3534W        W 7734   1.073  10.391   0.874
 3535W        W 7735   6.138   7.684   8.913
 3536W        W 7736   0.731   3.325  11.979
 3537W        W 7737   1.744   9.829   8.840
 3538W        W 7738   4.312   1.852   0.383
 3539W        W 7739   3.333   4.628  10.354
 3540W        W 7740  10.430  10.879   0.090
 3541W        W 7741   6.567   9.298  11.183
 3542W        W 7742   8.142   2.154  11.527
 3543W        W 7743   0.938   3.759  11.237
 3544W        W 7744   4.621   1.493  11.933
 3545W        W 7745   5.229  10.623   9.292
 3546W        W 7746   8.867  10.403   2.269
 3547W        W 7747  11.153   5.195   0.013
 3548W        W 7748   8.065  10.367   2.929
 3549W        W 7749   9.372   5.529   2.470
 3550W        W 7750   1.637   1.849  11.603
 3551W        W 7751   6.428   9.364   8.960
 3552W        W 7752   5.993  10.427  10.358
 3553W        W 7753   7.887   8.926   1.737
 3554W        W 7754  10.971   7.420   1.333
 3555W        W 7755   1.852   8.980   2.365
 3556W        W 7756   4.951   8.303  11.741
 3557W        W 7757  10.183  11.392   0.096
 3558W        W 7758   6.698  11.288   1.852
 3559W        W 7759   4.763   9.887   9.560
 3560W        W 7760   8.582  10.347  11.098
 3561W        W 7761   5.395   7.308   3.297
 3562W        W 7762   6.286   3.826   1.394
 3563W        W 7763   2.732   3.055  11.063
 3564W        W 7764  11.375   5.581   0.894
 3565W        W 7765   7.945   3.234   9.586
 3566W        W 7766   5.241  11.070   3.228
 3567W        W 7767   1.296   0.097   2.286
 3568W        W 7768   1.374   9.175   3.171
 3569W        W 7769   7.114   7.390   2.109
 3570W        W 7770   4.095   6.473  11.769
 3571W        W 7771  10.973   1.874   1.731
 3572W        W 7772   9.253   0.008   3.635
 3573W        W 7773   6.177   2.492   8.640
 3574W        W 7774   6.705   9.925   2.508
 3575W        W 7775   3.616   3.591   8.975
 3576W        W 7776   3.106  10.050   9.990
 3577W        W 7777   8.077   0.241   0.740
 3578W        W 7778   9.997  10.329   8.858
 3579W        W 7779   8.710   2.399   2.589
 3580W        W 7780   0.390   2.288   1.305
 3581W        W 7781   3.666   0.373   9.233
 3582W        W 7782  11.423  11.025   8.689
 3583W        W 7783  11.029   2.308   2.276
 3584W        W 7784   1.828   6.040  10.853
 3585W        W 7785   3.437   8.606   9.830
 3586W        W 7786   2.584   7.095   1.936
 3587W        W 7787   9.946   4.836   0.621
 3588W        W 7788   7.681   8.830   2.285
 3589W        W 7789  11.331  10.570   1.966
 3590W        W 7790   0.905   5.430   1.633
 3591W        W 7791   6.981   1.887   0.663
 3592W        W 7792   1.978   2.293  11.750
 3593W        W 7793   6.543   5.685   1.501
 3594W        W 7794   9.122   3.447  11.216
 3595W        W 7795   3.523   7.490   2.613
 3596W        W 7796   3.584   7.076  10.183
 3597W        W 7797   7.274   6.221  11.003
 3598W        W 7798   4.006   9.330   8.513
 3599W        W 7799   6.143   2.833   0.740
 3600W        W 7800   9.549   9.061  11.771
 3601W        W 7801   2.404   9.164   8.982
 3602W        W 7802   9.199   5.775   3.061
 3603W        W 7803   4.993   6.660  11.235
 3604W        W 7804   4.252   4.724  11.242
 3605W        W 7805   5.364   8.863  11.911
 3606W        W 7806   3.244   7.917   2.244
 3607W        W 7807   8.453   1.807   0.506
 3608W        W 7808  11.390   7.834   3.007
 3609W        W 7809   0.980   8.259  10.828
 3610W        W 7810   1.135   4.269  11.273
 3611W        W 7811   6.106   5.275   9.467
 3612W        W 7812   6.672  10.208   0.810
 3613W        W 7813   6.806   0.301  10.064
 3614W        W 7814   5.634   4.068   9.812
 3615W        W 7815   4.625   1.615   2.919
 3616W        W 7816   8.080   8.117   0.983
 3617W        W 7817   1.909  10.321   0.230
 3618W        W 7818   1.311   2.711   9.329
 3619W        W 7819   6.495   2.635   2.339
 3620W        W 7820   4.123   7.555   9.642
 3621W        W 7821   2.298   5.556  10.435
 3622W        W 7822   9.552   8.268  10.739
 3623W        W 7823   1.898   6.981   9.267
 3624W        W 7824   9.970   0.866   0.570
 3625W        W 7825   6.143   8.542   2.251
 3626W        W 7826  11.315   1.104   0.521
 3627W        W 7827   7.486   7.674   0.230
 3628W        W 7828  11.068   6.164   0.867
 3629W        W 7829   2.132   8.993   0.519
 3630W        W 7830   8.378   6.879   2.306
 3631W        W 7831   3.241   4.705   2.097
 3632W        W 7832  10.957   1.382   1.445
 3633W        W 7833   4.672   1.911   0.910
 3634W        W 7834   5.648   0.636   1.787
 3635W        W 7835   3.211   7.585   3.033
 3636W        W 7836   1.068   7.627  11.328
 3637W        W 7837  10.020   9.928   3.245
 3638W        W 7838   5.773   2.223   2.342
 3639W        W 7839   9.048  10.820   1.536
 3640W        W 7840   6.526   8.165   2.914
 3641W        W 7841   1.829  10.406  10.733
 3642W        W 7842   9.946   8.753   0.083
 3643W        W 7843   1.739   4.232   9.922
 3644W        W 7844   4.258   8.476   0.952
 3645W        W 7845   9.852   5.652  11.332
 3646W        W 7846   0.181   1.719   0.055
 3647W        W 7847   3.658  10.474   9.480
 3648W        W 7848   8.513  10.863   0.438
 3649W        W 7849   5.017   3.886   9.201
 3650W        W 7850   8.020   0.033   2.444
 3651W        W 7851   5.457   7.451   0.370
 3652W        W 7852  10.436   0.839  10.954
 3653W        W 7853   8.216   1.901   0.065
 3654W        W 7854   0.689   0.058  11.057
 3655W        W 7855   8.076  10.346   3.437
 3656W        W 7856   8.531   6.605   3.132
 3657W        W 7857  10.968   8.573  10.891
 3658W        W 7858   1.340   0.257   2.799
 3659W        W 7859   5.046   5.239  10.437
 3660W        W 7860   8.536   4.635  11.086
 3661W        W 7861   2.347   5.216   2.655
 3662W        W 7862   9.333   2.364   9.125
 3663W        W 7863   4.062   1.233   9.042
 3664W        W 7864   2.609   6.560   2.287
 3665W        W 7865   7.297   7.972  10.951
 3666W        W 7866   5.099   3.877   2.763
 3667W        W 7867   4.494   9.861   1.867
 3668W        W 7868   8.386  11.454   9.260
 3669W        W 7869   8.462   0.307   8.910
 3670W        W 7870   0.885   2.305   1.449
 3671W        W 7871   2.887  10.538   9.929
 3672W        W 7872   5.112   3.264   0.456
 3673W        W 7873   9.633   3.478   9.412
 3674W        W 7874  10.040   7.192   2.837
 3675W        W 7875  10.607   2.667  11.841
 3676W        W 7876   5.063   3.059   3.194
 3677W        W 7877   6.328   6.590  10.845
 3678W        W 7878   0.365  10.832   0.872
 3679W        W 7879  11.389   3.080   0.073
 3680W        W 7880   1.256   0.361   9.105
 3681W        W 7881  11.225   2.347   1.817
 3682W        W 7882   3.779   5.209   2.068
 3683W        W 7883   2.379   3.103   1.758
 3684W        W 7884   4.306   9.247  10.937
 3685W        W 7885   6.016   5.309  10.872
 3686W        W 7886   5.664   1.340   3.584
 3687W        W 7887   3.303   8.667  10.845
 3688W        W 7888   8.724   5.145   1.961
 3689W        W 7889   6.286   3.991  10.607
 3690W        W 7890   2.351  10.351   1.375
 3691W        W 7891   4.896   4.095   3.162
 3692W        W 7892   8.143  10.755   0.075
 3693W        W 7893   7.293   2.132  10.905
 3694W        W 7894   2.837  11.038   9.941
 3695W        W 7895   6.544   5.657   2.001
 3696W        W 7896   7.085   7.565  11.326
 3697W        W 7897   4.368   6.011   1.538
 3698W        W 7898   9.719   0.112   3.349
 3699W        W 7899   4.186   9.069   1.717
 3700W        W 7900   9.498   4.523   2.797
 3701W        W 7901   3.383   2.267  11.009
 3702W        W 7902   6.141   5.613   9.870
 3703W        W 7903   2.375   7.964  11.511
 3704W        W 7904   2.280   5.681  11.959
 3705W        W 7905   0.360   6.583   9.174
 3706W        W 7906   9.962   1.036  11.025
 3707W        W 7907   0.446  11.353   1.759
 3708W        W 7908  11.376   2.675  10.350
 3709W        W 7909   7.978   6.652   3.743
 3710W        W 7910   2.670   6.648  10.818
 3711W        W 7911   3.149   5.873   2.024
 3712W        W 7912   5.746   6.671   1.648
 3713W        W 7913  11.381   9.066   2.938
 3714W        W 7914   1.106   2.954  11.773
 3715W        W 7915  11.041   7.951   9.341
 3716W        W 7916   5.656   9.427   1.723
 3717W        W 7917   3.834   2.460  11.233
 3718W        W 7918   9.576   5.210   0.729
 3719W        W 7919   8.527   7.436   1.374
 3720W        W 7920   9.516   3.267  11.565
 3721W        W 7921   2.297   3.578  10.521
 3722W        W 7922   9.640   9.643   3.454
 3723W        W 7923   8.589  11.309  10.924
 3724W        W 7924   7.110   2.665  10.319
 3725W        W 7925   3.152   6.169   2.871
 3726W        W 7926   1.130   0.892   0.419
 3727W        W 7927   8.545   5.656   1.852
 3728W        W 7928  10.066   6.142   2.609
 3729W        W 7929   4.161   7.738  10.974
 3730W        W 7930  10.425  11.492   0.920
 3731W        W 7931   0.119   2.628   8.515
 3732W        W 7932   6.123   2.782  11.306
 3733W        W 7933   4.253   0.060   0.447
 3734W        W 7934   6.304   6.932   1.280
 3735W        W 7935   6.069   4.815   1.783
 3736W        W 7936   7.772   5.574   1.119
 3737W        W 7937   7.292   9.387   0.987
 3738W        W 7938   5.156   9.190   0.733
 3739W        W 7939   1.887  10.051   1.832
 3740W        W 7940   5.287   4.645  10.274
 3741W        W 7941   4.301   3.803   0.230
 3742W        W 7942   3.091   2.573   9.451
 3743W        W 7943   6.912   4.707   9.848
 3744W        W 7944   5.045   9.671   0.719
 3745W        W 7945   5.186   0.872   3.014
 3746W        W 7946   9.383   3.560   2.920
 3747W        W 7947   0.282   6.338  10.669
 3748W        W 7948   0.797  11.279   1.410
 3749W        W 7949   3.265   4.237  11.052
 3750W        W 7950   4.046   0.310  10.171
 3751W        W 7951   0.473   5.764   1.566
 3752W        W 7952  10.839   3.233   0.020
 3753W        W 7953   8.147   8.177   2.759
 3754W        W 7954   6.232   8.308  11.838
 3755W        W 7955   9.088   6.508   9.367
 3756W        W 7956   2.167   3.889   2.654
 3757W        W 7957   3.543  10.850   1.241
 3758W        W 7958   9.632   1.905   9.831
 3759W        W 7959   8.300   4.313   2.440
 3760W        W 7960   9.489  10.770   1.852
 3761W        W 7961   9.533   8.552  11.787
 3762W        W 7962   3.303   1.944   0.287
 3763W        W 7963   3.906   9.066   2.543
 3764W        W 7964   9.273   1.378   3.069
 3765W        W 7965   6.111   0.314  10.255
 3766W        W 7966   7.618   4.612  10.964
 3767W        W 7967  10.845  11.057   0.825
 3768W        W 7968   6.054   8.125   0.714
 3769W        W 7969   6.669   4.670  11.216
 3770W        W 7970   2.215   4.246  10.091
 3771W        W 7971   8.511   3.628   9.968
 3772W        W 7972   0.755   9.793   1.155
 3773W        W 7973   3.037   0.438   2.365
 3774W        W 7974   8.426   3.617  10.545
 3775W        W 7975   2.905   5.187   2.079
 3776W        W 7976   6.094   4.119   9.126
 3777W        W 7977   9.251   5.377   3.437
 3778W        W 7978   2.594   5.672   3.138
 3779W        W 7979   6.952  10.711   8.597
 3780W        W 7980   4.191   5.631  10.246
 3781W        W 7981   6.677   3.145   2.329
 3782W        W 7982   0.802  11.235   9.495
 3783W        W 7983   0.287   7.504   8.792
 3784W        W 7984   8.017   1.898   2.438
 3785W        W 7985   9.781   7.904   0.476
 3786W        W 7986   9.838   6.024   9.374
 3787W        W 7987   3.359   3.325  11.564
 3788W        W 7988   5.632   0.890   2.728
 3789W        W 7989  10.959   9.972   3.115
 3790W        W 7990   2.165   8.189   8.716
 3791W        W 7991   8.592  10.082   9.370
 3792W        W 7992   1.826   5.968   9.100
 3793W        W 7993  11.284   7.487   2.109
 3794W        W 7994  10.060   5.341   1.505
 3795W        W 7995   7.945   8.177   9.706
 3796W        W 7996   8.021   1.928   8.955
 3797W        W 7997   9.835   0.904   2.545
 3798W        W 7998   5.694   9.893   0.433
 3799W        W 7999  10.791   2.729  11.279
 3800W        W 8000   9.787   1.527  11.789
 3801W        W 8001   8.994   2.976  11.094
 3802W        W 8002   3.411   5.678   0.575
 3803W        W 8003   0.694   1.197   9.063
 3804W        W 8004   2.557   2.225  10.449
 3805W        W 8005   1.849   3.593   1.316
 3806W        W 8006   3.649   7.850   9.565
 3807W        W 8007   7.892   7.401  10.831
 3808W        W 8008   5.231   3.493  10.529
 3809W        W 8009   4.712  10.033  10.539
 3810W        W 8010   7.956   3.816   9.060
 3811W        W 8011   3.623   8.593   1.222
 3812W        W 8012   6.654   7.395   2.316
 3813W        W 8013   7.595   7.547  11.233
 3814W        W 8014   3.140  10.461  10.353
 3815W        W 8015   0.633   2.790   1.229
 3816W        W 8016   9.799   2.362  10.380
 3817W        W 8017   8.484   9.379  11.136
 3818W        W 8018   8.515  10.565   9.506
 3819W        W 8019   4.465  11.341  10.124
 3820W        W 8020  11.210   9.143  11.532
 3821W        W 8021   1.618   9.441   3.521
 3822W        W 8022   8.101   5.434   8.213
 3823W        W 8023   2.014   8.884   9.548
 3824W        W 8024   8.738   5.326   3.383
 3825W        W 8025   8.437   8.193   1.784
 3826W        W 8026  10.944   1.236   9.653
 3827W        W 8027   9.105   8.102   2.432
 3828W        W 8028   3.976   9.973   1.756
 3829W        W 8029   8.198   5.504   9.457
 3830W        W 8030  10.691   2.314   1.880
 3831W        W 8031   7.389   4.469   1.228
 3832W        W 8032   9.468   6.967  10.838
 3833W        W 8033   0.464   6.839   2.578
 3834W        W 8034  10.382   6.553   0.477
 3835W        W 8035   1.776   4.105  11.825
 3836W        W 8036   4.672   4.098  10.893
 3837W        W 8037   0.657   4.942   3.663
 3838W        W 8038   1.845  10.253   1.371
 3839W        W 8039   7.225  11.433   0.342
 3840W        W 8040   6.295   6.989  10.047
 3841W        W 8041   9.986   9.779   8.761
 3842W        W 8042   2.488  10.567   1.825
 3843W        W 8043   8.917   2.970   0.181
 3844W        W 8044   9.423   0.392   9.340
 3845W        W 8045  10.281   1.289   1.995
 3846W        W 8046   0.795   3.500  10.823
 3847W        W 8047   6.935   1.523   2.599
 3848W        W 8048   8.437  10.516  11.565
 3849W        W 8049  11.001  10.326  10.865
 3850W        W 8050   9.498   1.913  11.942
 3851W        W 8051   3.513   3.335   2.341
 3852W        W 8052  10.010   0.383   0.362
 3853W        W 8053   3.798   8.971  11.975
 3854W        W 8054   8.977  10.367   1.346
 3855W        W 8055   3.785   0.264   0.300
 3856W        W 8056   2.303   1.413  10.036
 3857W        W 8057   9.409   3.629  10.325
 3858W        W 8058   6.989   9.492   9.551
 3859W        W 8059   8.571   5.100   4.143
 3860W        W 8060  10.134   0.811   1.480
 3861W        W 8061   1.419   1.452   2.725
 3862W        W 8062   0.801   9.394   1.476
 3863W        W 8063   7.302  10.940   0.703
 3864W        W 8064   6.472   2.317   2.747
 3865W        W 8065   9.578   1.823   3.011
 3866W        W 8066   4.987   3.371   1.930
 3867W        W 8067   2.445   1.330  11.631
 3868W        W 8068   7.178   3.474   2.212
 3869W        W 8069   8.502  10.957   9.173
 3870W        W 8070  10.429  10.952  10.592
 3871W        W 8071   9.825   3.569   1.833
 3872W        W 8072  11.417   6.682   8.902
 3873W        W 8073   0.255   9.567   3.667
 3874W        W 8074   3.560   5.419   1.369
 3875W        W 8075   6.006   1.856   9.346
 3876W        W 8076   4.704   4.311   0.927
 3877W        W 8077   6.038   1.755   0.512
 3878W        W 8078   3.133   3.458   9.146
 3879W        W 8079   6.097   7.450  10.777
 3880W        W 8080   4.492   8.896  10.574
 3881W        W 8081  10.947   9.399   0.498
 3882W        W 8082   5.118   4.671   0.703
 3883W        W 8083   4.476   8.710   8.996
 3884W        W 8084   5.769   1.863   3.154
 3885W        W 8085  10.316  10.140  11.439
 3886W        W 8086   5.740   4.379   9.412
 3887W        W 8087   9.506   7.394   8.993
 3888W        W 8088   4.768   0.689  10.772
 3889W        W 8089   4.278   4.223   9.537
 3890W        W 8090   7.217   1.825   2.949
 3891W        W 8091   1.339  10.432  11.503
 3892W        W 8092   4.472   1.257   1.304
 3893W        W 8093   4.807   3.631   9.590
 3894W        W 8094   3.376   7.125   3.270
 3895W        W 8095   9.022  10.732  11.724
 3896W        W 8096  11.239   5.768  11.337
 3897W        W 8097   4.792  10.638   0.875
 3898W        W 8098  11.316   0.162   0.202
 3899W        W 8099   4.188   9.861   9.743
 3900W        W 8100   3.588   8.044   2.630
 3901W        W 8101   3.137   9.905  11.992
 3902W        W 8102   2.691   9.081   9.934
 3903W        W 8103   9.443   9.290  10.751
 3904W        W 8104   5.530   4.703   0.166
 3905W        W 8105   8.465   0.503  11.966
 3906W        W 8106  10.897  11.252  11.374
 3907W        W 8107   8.857   5.862  11.461
 3908W        W 8108   9.548   3.624  10.848
 3909W        W 8109   6.326   5.195   2.759
 3910W        W 8110   5.219  10.132   9.450
 3911W        W 8111   0.465   3.302   0.873
 3912W        W 8112  11.408   1.339   3.131
 3913W        W 8113   8.358   1.255  10.554
 3914W        W 8114   4.916  10.850  11.788
 3915W        W 8115   1.757   0.185   9.142
 3916W        W 8116   4.627   8.423  10.727
 3917W        W 8117   5.596  11.272  10.800
 3918W        W 8118   8.545   1.751   2.560
 3919W        W 8119   6.360   7.298   0.945
 3920W        W 8120   0.236   9.016   8.750
 3921W        W 8121  10.509   2.253   2.356
 3922W        W 8122   4.173   9.490   2.008
 3923W        W 8123  10.386   8.503   2.666
 3924W        W 8124  11.315   3.827   9.943
 3925W        W 8125   7.154   0.331  11.590
 3926W        W 8126   2.238   5.760   1.964
 3927W        W 8127   0.466   3.648   1.940
 3928W        W 8128   8.051   2.216   1.251
 3929W        W 8129   7.223   7.837   9.948
 3930W        W 8130   2.749   7.962   2.327
 3931W        W 8131   7.413   5.238   2.248
 3932W        W 8132   8.413   6.403   3.588
 3933W        W 8133   7.640   5.075   2.695
 3934W        W 8134   9.669  10.265   2.043
 3935W        W 8135   6.042   7.809   1.842
 3936W        W 8136  10.440  11.464  10.755
 3937W        W 8137   5.652   1.722  11.185
 3938W        W 8138   7.212   5.192   1.575
 3939W        W 8139   8.577   1.839  11.742
 3940W        W 8140   3.282   2.706   1.842
 3941W        W 8141   0.507   4.343  10.315
 3942W        W 8142   1.224  11.031   1.558
 3943W        W 8143   3.891   4.101   0.355
 3944W        W 8144   9.463   4.770   8.323
 3945W        W 8145   9.034   4.756  11.035
 3946W        W 8146   7.662   1.022   2.493
 3947W        W 8147   4.569  10.864   8.559
 3948W        W 8148   7.195   8.413   0.909
 3949W        W 8149   7.607   8.408   3.224
 3950W        W 8150   5.410   7.772   3.064
 3951W        W 8151   6.285  11.351  11.407
 3952W        W 8152   3.797   2.788   1.675
 3953W        W 8153   7.525   3.106  11.849
 3954W        W 8154   3.258   1.828   1.407
 3955W        W 8155   7.948   3.161   1.653
 3956W        W 8156   1.972   9.455  10.412
 3957W        W 8157   1.037   5.576  10.975
 3958W        W 8158   9.332   2.856   2.074
 3959W        W 8159   2.712   7.601   3.175
 3960W        W 8160   8.458   4.297   0.002
 3961W        W 8161   7.153   7.348   1.611
 3962W        W 8162   7.152   4.575   3.639
 3963W        W 8163   6.662   3.086   1.806
 3964W        W 8164   4.176   3.843   2.868
 3965W        W 8165   4.261   8.858  10.086
 3966W        W 8166   7.869   4.455  11.728
 3967W        W 8167   2.190   7.441  10.874
 3968W        W 8168   9.536   4.597  11.934
 3969W        W 8169   2.130   6.147   2.902
 3970W        W 8170   1.355   8.706  10.594
 3971W        W 8171   8.330   5.083   9.158
 3972W        W 8172   4.804  10.397   1.335
 3973W        W 8173   6.063   3.209   9.888
 3974W        W 8174   9.045   5.577   1.622
 3975W        W 8175   8.469   7.135   1.862
 3976W        W 8176   9.063   4.694   0.342
 3977W        W 8177   5.852   2.648  10.466
 3978W        W 8178   2.113   5.641   2.952
 3979W        W 8179   1.790   8.814  11.801
 3980W        W 8180  11.436   9.021   0.456
 3981W        W 8181   0.705   7.722   2.979
 3982W        W 8182   5.141   9.955   9.928
 3983W        W 8183   8.628   9.300  10.120
 3984W        W 8184   4.793   0.739   9.011
 3985W        W 8185   7.698   2.188   9.256
 3986W        W 8186   4.837   0.825   0.624
 3987W        W 8187   7.646  11.197  11.065
 3988W        W 8188   2.367   3.811   2.189
 3989W        W 8189   8.104   7.195   1.188
 3990W        W 8190   6.738   4.989   0.559
 3991W        W 8191   6.644  10.890   2.771
 3992W        W 8192   1.324   3.807   2.474
 3993W        W 8193   0.724   5.725   0.666
 3994W        W 8194   4.694   1.745   8.929
 3995W        W 8195   8.977   9.549   2.712
 3996W        W 8196   2.030   0.488  10.534
 3997W        W 8197   6.579   1.261   9.091
 3998W        W 8198   6.126   6.944  11.980
 3999W        W 8199   8.906   7.750   0.447
 4000W        W 8200   5.281   8.039   0.036
 4001W        W 8201   2.199   0.896   1.216
 4002W        W 8202   9.483   4.614   3.347
 4003W        W 8203  10.415   0.544   9.713
 4004W        W 8204   7.422   9.260   2.363
 4005W        W 8205  11.282   1.719   1.251
 4006W        W 8206   7.614   8.464  10.988
 4007W        W 8207   1.925  10.811   2.288
 4008W        W 8208   4.277   9.592   3.256
 4009W        W 8209   4.227   2.800   2.818
 4010W        W 8210   9.628   5.979   2.363
 4011W        W 8211   7.974   3.749   9.920
 4012W        W 8212   3.347   5.405   1.897
 4013W        W 8213   4.651   4.365   2.153
 4014W        W 8214   5.912   4.051   3.073
 4015W        W 8215   7.169  10.964   2.783
 4016W        W 8216   9.319   4.618   1.356
 4017W        W 8217   2.652   7.599  10.709
 4018W        W 8218  10.714   2.183  10.626
 4019W        W 8219   1.322   2.279   0.425
 4020W        W 8220   6.086   6.411   0.936
 4021W        W 8221   3.361   1.399   3.329
 4022W        W 8222   6.615   7.045   3.972
 4023W        W 8223   5.708   8.212  10.338
 4024W        W 8224   1.326   5.151   3.365
 4025W        W 8225   2.885   9.280   8.754
 4026W        W 8226   8.239   5.638   3.348
 4027W        W 8227   0.345   2.851   3.375
 4028W        W 8228   2.933   0.787   1.692
 4029W        W 8229   5.691  10.829   8.550
 4030W        W 8230   5.938   1.309  11.296
 4031W        W 8231   6.444   6.146   1.733
 4032W        W 8232   1.272   0.813   8.855
 4033W        W 8233   9.527   4.148   0.858
 4034W        W 8234   3.879   6.889   2.413
 4035W        W 8235   4.314   8.524   9.463
 4036W        W 8236   4.603   8.040   0.491
 4037W        W 8237   3.018   5.112   0.043
 4038W        W 8238   9.380   1.374   9.092
 4039W        W 8239   6.888  10.592   0.514
 4040W        W 8240   5.685   1.159   1.692
 4041W        W 8241  11.321   6.628   1.796
 4042W        W 8242   4.047  10.574   3.396
 4043W        W 8243   3.736   0.270  11.796
 4044W        W 8244   4.038   8.501   0.008
 4045W        W 8245   2.490   0.563   9.656
 4046W        W 8246   2.743  11.395   9.029
 4047W        W 8247   1.789   3.623  11.205
 4048W        W 8248   3.651   6.424   8.581
 4049W        W 8249   1.198   1.890   1.523
 4050W        W 8250  11.302   7.485  10.056
 4051W        W 8251   6.750   7.846   8.294
 4052W        W 8252   0.413  11.263  10.730
 4053W        W 8253   8.769   7.584  11.969
 4054W        W 8254   5.517   3.032  10.685
 4055W        W 8255   6.643   1.874  10.868
 4056W        W 8256  11.279   5.145   9.250
 4057W        W 8257   8.090   9.317  11.940
 4058W        W 8258   7.453   0.530   9.495
 4059W        W 8259   3.245   4.629   0.934
 4060W        W 8260   7.692   9.980   9.510
 4061W        W 8261   4.018   8.466   9.052
 4062W        W 8262   1.768  11.171   0.486
 4063W        W 8263   9.447  11.056   8.715
 4064W        W 8264   0.545   6.190   1.896
 4065W        W 8265   5.014   3.818   1.691
 4066W        W 8266   5.523   5.197  11.864
 4067W        W 8267   2.132   8.404  11.746
 4068W        W 8268   2.359   3.404   8.647
 4069W        W 8269  10.784   5.528  10.480
 4070W        W 8270   3.999   0.939   9.519
 4071W        W 8271   7.606   3.757   1.664
 4072W        W 8272   4.735   9.118  10.187
 4073W        W 8273  10.807   3.900   0.070
 4074W        W 8274   7.946  11.191  11.882
 4075W        W 8275   5.634   0.222  10.498
 4076W        W 8276   3.080   5.123   9.176
 4077W        W 8277   6.769  10.630   0.018
 4078W        W 8278   2.216   9.819  11.805
 4079W        W 8279   4.018   3.159   2.375
 4080W        W 8280   3.210   6.355   4.026
 4081W        W 8281   7.523   0.074   2.646
 4082W        W 8282   3.092  10.004  10.543
 4083W        W 8283   2.982  10.620   1.923
 4084W        W 8284   6.861   1.954   8.438
 4085W        W 8285   8.465   7.491  11.501
 4086W        W 8286   9.524   4.590   8.798
 4087W        W 8287   6.317   8.051  11.388
 4088W        W 8288   1.033   6.250   1.964
 4089W        W 8289  11.006   1.813  11.417
 4090W        W 8290   2.644   7.503   9.387
 4091W        W 8291   8.312   7.762  11.960
 4092W        W 8292   9.533   4.897   0.334
 4093W        W 8293   0.040   2.880  10.795
 4094W        W 8294   6.722  10.285  10.584
 4095W        W 8295   3.766   3.879   8.573
 4096W        W 8296   5.760   8.846   9.463
 4097W        W 8297   3.542   5.340   3.251
 4098W        W 8298   6.635   6.815  11.200
 4099W        W 8299   0.558   9.487   0.772
 4100W        W 8300   3.714   1.695   3.066
 4101W        W 8301   0.552   3.832  11.999
 4102W        W 8302   9.766   1.934  10.863
 4103W        W 8303   5.682   2.175   0.083
 4104W        W 8304   6.424   6.595   2.838
 4105W        W 8305   2.321   4.807  11.859
 4106W        W 8306   0.792   8.490   1.771
 4107W        W 8307  11.074  10.574  11.808
 4108W        W 8308   5.009   4.744   9.848
 4109W        W 8309   3.000   0.780   8.576
 4110W        W 8310   4.484   4.827   9.818
 4111W        W 8311   0.486   7.488   3.748
 4112W        W 8312  10.876   9.523   0.974
 4113W        W 8313   9.821   9.500  11.017
 4114W        W 8314   3.953   0.031   3.209
 4115W        W 8315   9.613   5.960  10.483
 4116W        W 8316   1.955   0.812   1.707
 4117W        W 8317  11.232   2.750   2.413
 4118W        W 8318   3.187   6.656   3.115
 4119W        W 8319   9.942   7.666  10.122
 4120W        W 8320   6.958  11.230   8.682
 4121W        W 8321   2.188   1.367   0.987
 4122W        W 8322   5.273   0.977   1.405
 4123W        W 8323   0.372  10.569   1.413
 4124W        W 8324   8.451   6.195   8.649
 4125W        W 8325  10.845  10.310   8.981
 4126W        W 8326   1.736   8.510   9.280
 4127W        W 8327  10.840   7.879   0.463
 4128W        W 8328   0.052   6.194   1.974
 4129W        W 8329  11.434   7.621   9.579
 4130W        W 8330  10.011   8.490  11.226
 4131W        W 8331  11.350   4.108  11.237
 4132W        W 8332  11.467  10.044   2.871
 4133W        W 8333   6.046   3.758  10.980
 4134W        W 8334   9.798   4.102  10.924
 4135W        W 8335  10.971   6.824  10.621
 4136W        W 8336   2.431  10.515   9.169
 4137W        W 8337   4.332   4.310   0.145
 4138W        W 8338   2.780   0.751  10.987
 4139W        W 8339   6.559   1.249   2.865
 4140W        W 8340   9.413   4.090   8.557
 4141W        W 8341   6.748   2.734   3.168
 4142W        W 8342   6.575  11.049   9.836
 4143W        W 8343   8.799  11.016   0.834
 4144W        W 8344   0.165   2.668  11.511
 4145W        W 8345   6.810   0.831   0.265
 4146W        W 8346   0.312   4.370  11.264
 4147W        W 8347   1.067   4.962   1.814
 4148W        W 8348   6.712  10.346  11.600
 4149W        W 8349   4.022   4.604   0.399
 4150W        W 8350   0.956   3.344   8.870
 4151W        W 8351   0.864  10.838   0.685
 4152W        W 8352   8.197   6.654   1.844
 4153W        W 8353   1.777   9.865   1.040
 4154W        W 8354   7.721   9.595   0.784
 4155W        W 8355  10.095   1.758   0.627
 4156W        W 8356   7.582   3.996   1.166
 4157W        W 8357   9.519   6.210   0.035
 4158W        W 8358   2.825  10.841   9.116
 4159W        W 8359   1.655   4.316  11.306
 4160W        W 8360   7.024   3.227   3.296
 4161W        W 8361   3.660   6.097   2.842
 4162W        W 8362   9.411  11.207   3.249
 4163W        W 8363  10.693   7.120   9.480
 4164W        W 8364   8.155  10.981  10.918
 4165W        W 8365   5.649   7.724   3.535
 4166W        W 8366   3.001   6.505   3.578
 4167W        W 8367  10.513   6.149   0.174
 4168W        W 8368   2.676   3.439   2.010
 4169W        W 8369   6.574   1.826  11.395
 4170W        W 8370  11.289   8.933  10.605
 4171W        W 8371   8.774   6.975   9.030
 4172W        W 8372  10.681  10.348   2.156
 4173W        W 8373  10.055   9.015   3.237
 4174W        W 8374   2.792   6.130  10.842
 4175W        W 8375   9.839   1.064  11.595
 4176W        W 8376   9.635  10.590   8.526
 4177W        W 8377   9.143  10.372   0.869
 4178W        W 8378  10.427   2.168   1.448
 4179W        W 8379   3.516   1.505  11.227
 4180W        W 8380   5.619   1.363   2.498
 4181W        W 8381   3.959   0.712   2.488
 4182W        W 8382  10.822   4.189   8.587
 4183W        W 8383   7.644  10.708  11.912
 4184W        W 8384   7.713   9.025   0.095
 4185W        W 8385  10.702  10.149   8.526
 4186W        W 8386   6.065   4.288  10.967
 4187W        W 8387   8.963   2.774   3.342
 4188W        W 8388   9.901   8.552   2.453
 4189W        W 8389   3.137   3.721  10.865
 4190W        W 8390   2.388   4.667   8.315
 4191W        W 8391   1.923   7.058  11.137
 4192W        W 8392   2.056   1.260   2.310
 4193W        W 8393   2.765   0.476  11.402
 4194W        W 8394   9.937  11.075   1.813
 4195W        W 8395   1.805  10.259  10.212
 4196W        W 8396   9.612   8.576   1.465
 4197W        W 8397  10.724  10.300  10.001
 4198W        W 8398   9.464   7.016   3.256
 4199W        W 8399   5.556   5.264  10.451
 4200W        W 8400   5.709   7.697   8.380
 4201W        W 8401  11.396   6.758  11.406
 4202W        W 8402   9.727   8.304   0.184
 4203W        W 8403   3.768  11.488  11.357
 4204W        W 8404  10.306   8.157  10.590
 4205W        W 8405  10.800   0.936   0.773
 4206W        W 8406   0.810   7.431  10.462
 4207W        W 8407   8.144   6.556   8.429
 4208W        W 8408  10.863   5.175   0.838
 4209W        W 8409   7.592   2.588  10.971
 4210W        W 8410   4.647   7.502  10.814
 4211W        W 8411  10.356   6.440  10.501
 4212W        W 8412   6.066   0.376  10.765
 4213W        W 8413   3.930  11.264   2.681
 4214W        W 8414   2.838   4.529   2.507
 4215W        W 8415   5.008  11.197   8.834
 4216W        W 8416   1.688  11.236   1.417
 4217W        W 8417   2.895   6.072   2.438
 4218W        W 8418   9.884   1.651   2.034
 4219W        W 8419   4.700   1.253   9.117
 4220W        W 8420   4.228   2.767   0.953
 4221W        W 8421   6.621   0.289   2.497
 4222W        W 8422   7.496   0.735   8.683
 4223W        W 8423   7.923   8.241   3.619
 4224W        W 8424   9.458   0.050   2.421
 4225W        W 8425   6.745   5.673   1.000
 4226W        W 8426   9.630   3.420   0.394
 4227W        W 8427  10.859   2.652   2.780
 4228W        W 8428   2.717   9.783   2.118
 4229W        W 8429   8.018   9.403  11.404
 4230W        W 8430   8.344   9.894   3.249
 4231W        W 8431   9.999   3.092   9.257
 4232W        W 8432   4.924   0.001   2.019
 4233W        W 8433   0.010   8.072   0.860
 4234W        W 8434   8.838   6.910   0.963
 4235W        W 8435   3.703   4.475   3.578
 4236W        W 8436  10.305   2.231   9.017
 4237W        W 8437   2.857   7.770  11.181
 4238W        W 8438   3.697   8.443  10.275
 4239W        W 8439   9.118   4.167   1.215
 4240W        W 8440   1.713   5.710   1.638
 4241W        W 8441   8.263   8.399   9.339
 4242W        W 8442  10.894   1.839   0.297
 4243W        W 8443   9.513   7.887   9.890
 4244W        W 8444   7.801   6.098   1.521
 4245W        W 8445   9.717   7.196   1.451
 4246W        W 8446   1.217   4.949   0.953
 4247W        W 8447  10.824   4.978   9.048
 4248W        W 8448   5.057   7.021   2.030
 4249W        W 8449   4.036  10.927   1.382
 4250W        W 8450   4.334   9.627  10.578
 4251W        W 8451  11.129   4.228  10.803
 4252W        W 8452   9.137   0.858   0.330
 4253W        W 8453   0.953   3.124  10.471
 4254W        W 8454   6.837   6.201  11.369
 4255W        W 8455   4.244   1.140   2.573
 4256W        W 8456   8.077   1.166  11.647
 4257W        W 8457   8.364   6.097  11.459
 4258W        W 8458   0.922  10.437   0.368
 4259W        W 8459   0.364   4.675   8.471
 4260W        W 8460   3.882   8.843   8.713
 4261W        W 8461   5.368   9.874   1.691
 4262W        W 8462   0.819   8.160   0.945
 4263W        W 8463   3.441   1.306   2.007
 4264W        W 8464   9.130   1.376   0.476
 4265W        W 8465   8.437   4.314   1.956
 4266W        W 8466  10.268   9.547   9.211
 4267W        W 8467   0.984   8.487   9.790
 4268W        W 8468   7.257   2.323   2.889
 4269W        W 8469   9.469   4.401   0.419
 4270W        W 8470  10.415   6.668  11.480
 4271W        W 8471   2.921   8.987   3.313
 4272W        W 8472   6.015   4.787   2.659
 4273W        W 8473   5.355   3.129   9.359
 4274W        W 8474   0.786   0.144   9.145
 4275W        W 8475   7.236   1.935  10.392
 4276W        W 8476   1.441   7.110   9.048
 4277W        W 8477   4.219   7.433  11.404
 4278W        W 8478  10.966   5.713   2.290
 4279W        W 8479   9.164   9.794   0.086
 4280W        W 8480   8.001   4.076   0.074
 4281W        W 8481  11.055   8.044   1.665
 4282W        W 8482  10.978   5.220   2.989
 4283W        W 8483   1.351   6.620  11.870
 4284W        W 8484   7.946   4.332   9.058
 4285W        W 8485   0.261   8.512   2.468
 4286W        W 8486   0.306   1.832  11.100
 4287W        W 8487   8.883   0.940   0.769
 4288W        W 8488   6.289   2.159   2.262
 4289W        W 8489  10.219   1.016   2.873
 4290W        W 8490   0.030   3.811   9.492
 4291W        W 8491   7.958   7.775   3.831
 4292W        W 8492   9.537   9.097   2.223
 4293W        W 8493  11.247   6.989   2.196
 4294W        W 8494   7.098  10.342   1.948
 4295W        W 8495   7.103  10.132   0.549
 4296W        W 8496   0.935   7.972   1.978
 4297W        W 8497   4.251   8.456   8.599
 4298W        W 8498  10.058   9.022   2.689
 4299W        W 8499   2.414   8.986   3.320
 4300W        W 8500   0.463   0.274   3.614
 4301W        W 8501   8.256   3.223   3.568
 4302W        W 8502   4.076   7.171   1.021
 4303W        W 8503   4.713   6.066   3.539
 4304W        W 8504  10.822   8.544   2.971
 4305W        W 8505   8.169   9.516  10.010
 4306W        W 8506   3.127   6.545   2.192
 4307W        W 8507   0.294   6.521   0.015
 4308W        W 8508   1.678   1.407   0.931
 4309W        W 8509   2.766   8.457   0.985
 4310W        W 8510   7.679   5.137  10.241
 4311W        W 8511   8.155   7.692   2.636
 4312W        W 8512   4.638   0.289  11.488
 4313W        W 8513   6.549   6.221  11.914
 4314W        W 8514   7.058   1.192  10.538
 4315W        W 8515  10.938   1.129   2.715
 4316W        W 8516   0.623   4.668   9.429
 4317W        W 8517   9.456  10.934  11.535
 4318W        W 8518   9.400   9.858   1.861
 4319W        W 8519   9.037   3.632   9.875
 4320W        W 8520   9.970   4.758   2.783
 4321W        W 8521   3.873   5.973   9.510
 4322W        W 8522   8.952   8.999   8.899
 4323W        W 8523   6.808   2.217   3.100
 4324W        W 8524   7.709   6.191   0.466
 4325W        W 8525   4.563   3.438  11.927
 4326W        W 8526   6.471   3.189   3.214
 4327W        W 8527   4.502   2.049   3.567
 4328W        W 8528   7.542   1.893   1.404
 4329W        W 8529   9.830   3.588   2.658
 4330W        W 8530  11.163   9.457   1.962
 4331W        W 8531   9.139   8.560   9.879
 4332W        W 8532   4.530  10.297   0.227
 4333W        W 8533   2.790   4.258   7.756
 4334W        W 8534   2.723  10.636  11.663
 4335W        W 8535  10.453   5.959  10.726
 4336W        W 8536   6.047   3.713   3.615
 4337W        W 8537   6.231   3.670   9.398
 4338W        W 8538   1.185   7.029  10.517
 4339W        W 8539   6.164   0.919  11.560
 4340W        W 8540   7.193  10.516  11.733
 4341W        W 8541   4.703   2.473   1.106
 4342W        W 8542   3.162  11.291  11.105
 4343W        W 8543  10.191   4.163   8.518
 4344W        W 8544   8.429  10.026  11.801
 4345W        W 8545   9.165   3.141  10.236
 4346W        W 8546   6.479   9.825   3.402
 4347W        W 8547   6.260  10.311   3.446
 4348W        W 8548   1.304   5.275   2.867
 4349W        W 8549   9.355   4.740  11.473
 4350W        W 8550   1.755   2.561   0.473
 4351W        W 8551   8.915   4.273  10.883
 4352W        W 8552   2.773   0.346   1.903
 4353W        W 8553   0.682   8.679   2.244
 4354W        W 8554   4.467   0.831   0.266
 4355W        W 8555  10.374   7.930  10.151
 4356W        W 8556   6.972  11.300  10.019
 4357W        W 8557   6.699   0.166  11.467
 4358W        W 8558  10.010   8.391  11.726
 4359W        W 8559   4.067   8.836   0.395
 4360W        W 8560  10.921   6.553   1.186
 4361W        W 8561   8.877   0.520   8.451
 4362W        W 8562   5.033   3.225   9.754
 4363W        W 8563   1.155  10.533   9.107
 4364W        W 8564   3.873  10.335   0.890
 4365W        W 8565   2.987   3.168  11.886
 4366W        W 8566   5.911   6.608   8.919
 4367W        W 8567   8.743   6.857   8.154
 4368W        W 8568   9.844   1.324   9.296
 4369W        W 8569  11.302  10.301   3.341
 4370W        W 8570   2.396   1.997  11.948
 4371W        W 8571   6.129  10.040   9.442
 4372W        W 8572  10.271   2.634   1.289
 4373W        W 8573   5.221   2.584   3.116
 4374W        W 8574   7.574   3.402  11.432
 4375W        W 8575   4.062   7.042  10.407
 4376W        W 8576   4.531   6.643  11.946
 4377W        W 8577   3.814   2.224   2.407
 4378W        W 8578   3.218   0.992   3.031
 4379W        W 8579   6.196   9.052  11.549
 4380W        W 8580   0.777   1.002   3.214
 4381W        W 8581   8.304   6.047   9.109
 4382W        W 8582   2.765  10.578   2.716
 4383W        W 8583   8.114   3.317   9.114
 4384W        W 8584  11.259   9.559   2.944
 4385W        W 8585  11.370   8.465   1.145
 4386W        W 8586   4.440   0.053   1.861
 4387W        W 8587   8.108   7.402   3.059
 4388W        W 8588  11.438   3.233   2.639
 4389W        W 8589   4.797   2.586  10.970
 4390W        W 8590  10.322   7.675   3.248
 4391W        W 8591   9.414   2.692  10.387
 4392W        W 8592  10.970   7.113   1.777
 4393W        W 8593   9.322   8.809   1.824
 4394W        W 8594   0.863   4.080   3.159
 4395W        W 8595   6.060   2.272  11.130
 4396W        W 8596   7.835  10.820   1.050
 4397W        W 8597   7.211  11.356  11.397
 4398W        W 8598   3.108   4.081  10.111
 4399W        W 8599   7.531   7.085  10.994
 4400W        W 8600   9.865   0.035   1.630
 4401W        W 8601  11.425   5.036  11.610
 4402W        W 8602   9.540   6.188   3.868
 4403W        W 8603   3.696   6.773  11.913
 4404W        W 8604  10.903  10.806   2.169
 4405W        W 8605   9.956   6.697   9.822
 4406W        W 8606   4.681   9.421   1.677
 4407W        W 8607   0.575   6.023  10.328
 4408W        W 8608   4.582   2.535   0.268
 4409W        W 8609   4.947   0.393   3.247
 4410W        W 8610   7.740   4.556   9.497
 4411W        W 8611   3.140   1.298   1.033
 4412W        W 8612   8.450   2.230   8.942
 4413W        W 8613   0.800   2.846   0.164
 4414W        W 8614   4.322   9.076   2.853
 4415W        W 8615   7.991   2.854   3.315
 4416W        W 8616   0.338   3.130   1.937
 4417W        W 8617   3.484   6.686   3.551
 4418W        W 8618   0.139   2.567   9.516
 4419W        W 8619   8.881   2.510   8.889
 4420W        W 8620   9.217   8.326   1.830
 4421W        W 8621   9.855   9.948  10.731
 4422W        W 8622  10.354   9.005  10.427
 4423W        W 8623   6.422   7.950   3.696
 4424W        W 8624   5.600   3.359   0.622
 4425W        W 8625   9.950   4.425   3.173
 4426W        W 8626  11.019   3.583   2.249
 4427W        W 8627  10.892   1.980   9.671
 4428W        W 8628   3.471   7.686   1.297
 4429W        W 8629   3.251   1.968  11.744
 4430W        W 8630   8.996   6.116  11.884
 4431W        W 8631   0.729   1.212   1.953
 4432W        W 8632   3.781   9.510   1.699
 4433W        W 8633   5.748   1.361   2.995
 4434W        W 8634  10.729   2.719   2.250
 4435W        W 8635   8.741   9.111   2.895
 4436W        W 8636   1.172   1.552   8.466
 4437W        W 8637  10.297  10.966   9.077
 4438W        W 8638   6.637   0.008   3.462
 4439W        W 8639   1.442   4.838   9.148
 4440W        W 8640   4.589  11.388   8.587
 4441W        W 8641   9.796   3.618   0.854
 4442W        W 8642   2.774   2.473   1.808
 4443W        W 8643   6.839   6.245   9.231
 4444W        W 8644   2.346   8.423  11.259
 4445W        W 8645   3.196   0.034   0.873
 4446W        W 8646   3.060   3.734  11.738
 4447W        W 8647   7.604   0.325   2.211
 4448W        W 8648   0.225   2.849   2.430
 4449W        W 8649   5.145   8.183   2.444
 4450W        W 8650  11.331   0.499   9.064
 4451W        W 8651   1.324   1.811   2.202
 4452W        W 8652   1.217   3.217   9.306
 4453W        W 8653   9.985   4.331   0.402
 4454W        W 8654   9.449   1.574   1.776
 4455W        W 8655   2.632   8.341   0.496
 4456W        W 8656   9.806  10.567   9.935
 4457W        W 8657   1.301   3.308   0.715
 4458W        W 8658   1.643   1.444   3.505
 4459W        W 8659   1.958   9.869   9.313
 4460W        W 8660   2.369   5.827  10.902
 4461W        W 8661   1.071   5.023   9.550
 4462W        W 8662   7.578   3.165   9.169
 4463W        W 8663   0.073   5.950  10.376
 4464W        W 8664   9.254   4.590  10.592
 4465W        W 8665   3.088   0.602   3.321
 4466W        W 8666   9.261   1.182  10.996
 4467W        W 8667  10.395   6.773   2.385
 4468W        W 8668   9.009   1.192   1.301
 4469W        W 8669   4.755   1.714  11.196
 4470W        W 8670   9.397   6.366  10.110
 4471W        W 8671   1.911   3.700   3.331
 4472W        W 8672   9.504   5.025   9.544
 4473W        W 8673  10.908   4.375  11.318
 4474W        W 8674   6.114   9.214   1.507
 4475W        W 8675   4.453   7.806   9.345
 4476W        W 8676   7.009   8.901   9.031
 4477W        W 8677   8.204   0.845  10.272
 4478W        W 8678   8.617   6.677   8.631
 4479W        W 8679   2.867   9.306   2.035
 4480W        W 8680   6.029   6.826   2.614
 4481W        W 8681   3.424   6.214   9.701
 4482W        W 8682   6.755   9.339   0.110
 4483W        W 8683   7.058   3.232  11.612
 4484W        W 8684   1.516   6.090  11.734
 4485W        W 8685   1.160   8.485   3.391
 4486W        W 8686   8.909   6.610   0.013
 4487W        W 8687   3.162   6.129   8.774
 4488W        W 8688   8.037   2.825  10.801
 4489W        W 8689  11.379  10.841   9.172
 4490W        W 8690   1.291   2.235   9.530
 4491W        W 8691   2.598   6.848   3.649
 4492W        W 8692   2.276   3.355   9.147
 4493W        W 8693   0.946   1.670   1.895
 4494W        W 8694   4.064   5.087  11.534
 4495W        W 8695   3.771   0.811  10.004
 4496W        W 8696  10.945   3.976   9.629
 4497W        W 8697   5.690   0.143   9.979
 4498W        W 8698   8.641   1.780   9.860
 4499W        W 8699   7.466   1.850   1.943
 4500W        W 8700  10.787   4.323   3.298
 4501W        W 8701   0.956   2.840   8.969
 4502W        W 8702   4.775   8.041   1.497
 4503W        W 8703   9.085   1.231   2.149
 4504W        W 8704   9.965   5.083  10.794
 4505W        W 8705   5.898   4.114   1.308
 4506W        W 8706   2.157   8.466   0.282
 4507W        W 8707   8.826   3.078   9.809
 4508W        W 8708  10.838   1.837   2.246
 4509W        W 8709   4.271   4.680  10.259
 4510W        W 8710   5.529   5.466  10.930
 4511W        W 8711   1.759   4.178   3.222
 4512W        W 8712   0.447   2.668  11.033
 4513W        W 8713   4.364   0.904   0.856
 4514W        W 8714   4.503  10.558  11.814
 4515W        W 8715  10.527   0.048  11.253
 4516W        W 8716   4.875   6.177   1.513
 4517W        W 8717   8.889   0.680   1.226
 4518W        W 8718  10.799   0.819  11.349
 4519W        W 8719   8.108   2.460   2.375
 4520W        W 8720   7.620  10.871   3.045
 4521W        W 8721   5.674   7.631  10.975
 4522W        W 8722   8.412   2.822   2.605
 4523W        W 8723   4.273   0.742   2.913
 4524W        W 8724   8.537   9.334   9.631
 4525W        W 8725   3.105   1.918  10.353
 4526W        W 8726   8.872   2.918   9.227
 4527W        W 8727   3.373   6.083   0.284
 4528W        W 8728   1.940   9.350   8.716
 4529W        W 8729   3.574   9.022  11.524
 4530W        W 8730   6.096   4.548   8.365
 4531W        W 8731   9.400   5.748   1.974
 4532W        W 8732   4.724  11.322   0.444
 4533W        W 8733   6.306   1.659  10.526
 4534W        W 8734   3.581   1.027  11.375
 4535W        W 8735  11.500   3.164  11.580
 4536W        W 8736   3.902   4.396   8.581
 4537W        W 8737   6.506   2.353   9.842
 4538W        W 8738   5.220   9.139   2.784
 4539W        W 8739   1.880   0.939  11.170
 4540W        W 8740   3.940   0.488   3.453
 4541W        W 8741   6.982   3.641   9.906
 4542W        W 8742   2.132   2.053   1.947
 4543W        W 8743   3.491   4.571   9.860
 4544W        W 8744   6.538   7.305  11.044
 4545W        W 8745   7.139   6.401   9.628
 4546W        W 8746   2.189   3.311  10.973
 4547W        W 8747   7.295   4.957   8.364
 4548W        W 8748   8.567   4.120  11.264
 4549W        W 8749  10.752   9.525  10.580
 4550W        W 8750   4.142   7.070  11.806
 4551W        W 8751   6.876   2.239  10.584
 4552W        W 8752  10.518   1.763  11.357
 4553W        W 8753   3.897   9.343   0.303
 4554W        W 8754   6.515   7.454  10.040
 4555W        W 8755   7.139   0.346   0.635
 4556W        W 8756   4.589   4.170   9.096
 4557W        W 8757   6.944   3.519   1.744
 4558W        W 8758   9.671   3.991   9.348
 4559W        W 8759   8.959  11.097   3.535
 4560W        W 8760   3.611   3.795   3.034
 4561W        W 8761   7.829   3.539   0.696
 4562W        W 8762   4.220   9.928   2.300
 4563W        W 8763   7.213   0.449  10.568
 4564W        W 8764   9.444   6.841   1.680
 4565W        W 8765   2.898   6.543   9.045
 4566W        W 8766   0.039   0.668   0.646
 4567W        W 8767   2.690  10.298   2.238
 4568W        W 8768   3.151   8.530   3.265
 4569W        W 8769   8.598   8.648   9.030
 4570W        W 8770  11.361   7.521  11.102
 4571W        W 8771   4.182   3.357  10.931
 4572W        W 8772   7.146   2.263   1.343
 4573W        W 8773   5.269   3.129   4.013
 4574W        W 8774   6.581   8.790   3.354
 4575W        W 8775   8.874   1.951   0.774
 4576W        W 8776  10.083   7.951  11.956
 4577W        W 8777  11.285   6.819   3.144
 4578W        W 8778   3.294   9.502   9.359
 4579W        W 8779   0.060   7.025   9.273
 4580W        W 8780   4.641  11.254  11.106
 4581W        W 8781   9.997   9.901   2.178
 4582W        W 8782  10.891   3.118  10.417
 4583W        W 8783  10.305  10.335   2.699
 4584W        W 8784   2.401   9.472   1.190
 4585W        W 8785   2.294   7.352   3.578
 4586W        W 8786  10.761   6.774   3.124
 4587W        W 8787  11.214   7.591   3.392
 4588W        W 8788   6.566   4.248  10.283
 4589W        W 8789   9.523   9.462   1.019
 4590W        W 8790   2.141   7.386   9.485
 4591W        W 8791   8.979   1.692   8.374
 4592W        W 8792   0.336   3.125   0.355
 4593W        W 8793   9.061  10.015   2.536
 4594W        W 8794   0.519   3.505   3.676
 4595W        W 8795   8.847   2.931   8.590
 4596W        W 8796  11.384   7.479  10.569
 4597W        W 8797  10.314   2.865   0.825
 4598W        W 8798   5.087   4.793  11.215
 4599W        W 8799   2.836   5.535   9.709
 4600W        W 8800   1.478   2.755   1.995
 4601W        W 8801   6.410   3.538   1.800
 4602W        W 8802   5.181   1.691   8.762
 4603W        W 8803   3.403   3.820   2.546
 4604W        W 8804   9.627  10.443   0.777
 4605W        W 8805   5.633   6.261  10.704
 4606W        W 8806   8.702   8.466  10.159
 4607W        W 8807   1.752   2.238   9.278
 4608W        W 8808  10.509   3.795   9.817
 4609W        W 8809   3.807   4.712   8.995
 4610W        W 8810   5.387   7.395   9.303
 4611W        W 8811   5.525   2.434   1.936
 4612W        W 8812   5.572   0.714  11.216
 4613W        W 8813   6.696   8.497  11.978
 4614W        W 8814   1.844   6.667   0.838
 4615W        W 8815   2.823   9.286  10.390
 4616W        W 8816  10.457   1.158   0.256
 4617W        W 8817   6.986   7.804   9.460
 4618W        W 8818   1.386  10.370  10.992
 4619W        W 8819   3.440   0.883   2.579
 4620W        W 8820  10.800   5.450   0.291
 4621W        W 8821   8.162   3.153   0.680
 4622W        W 8822   3.131   1.411  11.545
 4623W        W 8823   8.297   3.151   9.934
 4624W        W 8824   1.859  10.552  11.734
 4625W        W 8825  10.847   7.522   0.821
 4626W        W 8826   0.034  10.480  10.858
 4627W        W 8827  11.002   2.234  11.081
 4628W        W 8828  11.159   4.146  11.735
 4629W        W 8829   1.497   2.293  11.383
 4630W        W 8830   8.872   0.183  11.778
 4631W        W 8831  10.796   5.750   1.796
 4632W        W 8832   9.232   0.119  10.377
 4633W        W 8833   5.122   7.712   2.623
 4634W        W 8834   9.028   6.743  10.427
 4635W        W 8835   3.543   9.078   9.613
 4636W        W 8836   4.233   6.132  10.296
 4637W        W 8837   2.335   2.591   2.620
 4638W        W 8838   6.634   9.329   3.332
 4639W        W 8839   6.102   8.843   9.843
 4640W        W 8840   8.181   4.083  11.588
 4641W        W 8841   1.325  10.864   0.953
 4642W        W 8842   3.184   2.949   9.057
 4643W        W 8843   6.985   0.142  10.989
 4644W        W 8844   3.790   1.956   0.135
 4645W        W 8845   5.732   2.632  10.970
 4646W        W 8846   3.615   4.898   8.557
 4647W        W 8847  10.318   3.379   9.526
 4648W        W 8848  10.498   7.387   1.170
 4649W        W 8849   2.679   9.657  11.955
 4650W        W 8850  10.449   3.342  10.016
 4651W        W 8851   9.852   2.588   0.963
 4652W        W 8852   6.457   6.596  10.352
 4653W        W 8853  10.772  10.561  10.436
 4654W        W 8854   3.600  10.122  11.965
 4655W        W 8855   4.755   4.069   0.343
 4656W        W 8856  11.247   7.666   2.573
 4657W        W 8857   7.261   9.626   0.533
 4658W        W 8858  10.716   3.424   3.335
 4659W        W 8859  10.296   9.341  10.824
 4660W        W 8860   1.844   6.073   1.963
 4661W        W 8861   8.991   3.751   1.962
 4662W        W 8862  10.250  10.870   1.446
 4663W        W 8863   0.318   6.357   2.387
 4664W        W 8864   5.211   0.687  11.885
 4665W        W 8865   5.755   5.259   1.782
 4666W        W 8866   3.457   1.196   0.356
 4667W        W 8867   9.538   7.763  10.940
 4668W        W 8868   9.995   6.555   9.328
 4669W        W 8869   9.958   0.621  11.396
 4670W        W 8870   2.244   8.903   0.037
 4671W        W 8871  10.008   5.244   0.993
 4672W        W 8872  10.103   6.104   0.498
 4673W        W 8873   9.505   9.889   8.985
 4674W        W 8874   7.725   0.252   9.829
 4675W        W 8875   7.992   0.842   2.914
 4676W        W 8876   4.299   5.370   2.756
 4677W        W 8877   1.336   4.786  10.576
 4678W        W 8878   2.701   4.272   2.974
 4679W        W 8879   1.134   4.888  10.087
 4680W        W 8880   4.774   1.369   1.949
 4681W        W 8881  11.020   9.058   0.142
 4682W        W 8882   9.699   7.148  11.284
 4683W        W 8883   2.647   6.395   8.627
 4684W        W 8884   6.223   7.711   8.352
 4685W        W 8885  10.475   6.667   9.493
 4686W        W 8886   4.842   8.802  11.844
 4687W        W 8887   5.166   2.668   4.206
 4688W        W 8888   5.655   2.737   9.484
 4689W        W 8889   5.936   9.984   2.700
 4690W        W 8890   9.588   6.907   2.781
 4691W        W 8891   5.029   3.239  11.950
 4692W        W 8892   8.887   0.345  10.768
 4693W        W 8893  11.353   8.365   9.974
 4694W        W 8894   1.038   9.269  10.723
 4695W        W 8895   2.621   7.431   0.201
 4696W        W 8896   4.042   3.321   9.378
 4697W        W 8897   5.631   7.549   8.866
 4698W        W 8898   2.526   3.061  11.563
 4699W        W 8899   6.630  11.108   0.045
 4700W        W 8900   8.128   9.613  10.512
 4701W        W 8901  10.208   7.982   1.679
 4702W        W 8902   0.758   0.963   9.542
 4703W        W 8903   7.614   4.865   0.354
 4704W        W 8904   6.489   1.054  11.939
 4705W        W 8905   4.604   3.065  11.061
 4706W        W 8906  10.508   4.164   9.468
 4707W        W 8907   1.439  10.862  11.255
 4708W        W 8908   5.181   0.813   3.508
 4709W        W 8909   9.088  10.293   0.009
 4710W        W 8910  10.011   3.835   2.245
 4711W        W 8911   0.268   6.618   2.996
 4712W        W 8912   3.525   3.378   9.444
 4713W        W 8913   3.725   3.364   3.306
 4714W        W 8914   8.360   4.609   8.912
 4715W        W 8915   3.756   4.108  11.043
 4716W        W 8916   6.859   3.116   2.831
 4717W        W 8917   1.000   1.633   8.959
 4718W        W 8918   8.458   6.383   2.199
 4719W        W 8919   5.259   4.231   9.511
 4720W        W 8920   3.383  10.084   8.662
 4721W        W 8921   5.685   6.598   0.581
 4722W        W 8922   0.277   8.638   1.936
 4723W        W 8923   8.156   8.392   8.419
 4724W        W 8924   1.420   4.318  10.800
 4725W        W 8925   3.568   1.219   9.783
 4726W        W 8926   5.242   8.893   3.637
 4727W        W 8927  10.899   4.415   1.804
 4728W        W 8928  10.480   5.006   9.877
 4729W        W 8929  11.287   7.750  11.551
 4730W        W 8930   0.820   0.792   2.233
 4731W        W 8931   5.559   4.481  10.693
 4732W        W 8932   8.173  11.478   1.164
 4733W        W 8933  11.263   0.893  10.480
 4734W        W 8934   7.019   1.128  11.051
 4735W        W 8935   0.804   0.184  10.048
 4736W        W 8936   1.984  11.307   3.188
 4737W        W 8937   9.019   1.713   1.286
 4738W        W 8938   4.729   2.343   9.541
 4739W        W 8939   9.869   2.932   3.197
 4740W        W 8940   3.809   3.636   0.198
 4741W        W 8941   7.661   0.274   1.175
 4742W        W 8942   8.213   9.008   9.976
 4743W        W 8943  10.020   9.244   8.645
 4744W        W 8944   7.398  10.871   9.566
 4745W        W 8945  11.448   1.166   2.649
 4746W        W 8946  10.951   5.927   0.309
 4747W        W 8947   5.585   2.174   1.491
 4748W        W 8948   4.607   3.274   3.230
 4749W        W 8949   8.578   5.236   0.952
 4750W        W 8950   8.310   7.085   8.837
 4751W        W 8951   3.288  10.494   0.258
 4752W        W 8952  10.364   6.541   1.481
 4753W        W 8953   7.925   2.937   2.403
 4754W        W 8954   3.180   3.866   8.832
 4755W        W 8955   5.537   5.781  10.472
 4756W        W 8956   3.232   8.084   8.665
 4757W        W 8957   9.032   0.179  11.260
 4758W        W 8958   4.208   6.750   1.264
 4759W        W 8959   0.806   0.042  10.553
 4760W        W 8960  10.812   4.718   2.580
 4761W        W 8961  11.060   6.850   9.239
 4762W        W 8962  11.447   3.974   8.996
 4763W        W 8963  10.892   5.372   1.456
 4764W        W 8964  11.411   6.541   9.447
 4765W        W 8965   9.989   1.369   0.264
 4766W        W 8966   4.132   7.010   9.271
 4767W        W 8967   1.796   3.336   1.763
 4768W        W 8968  10.109  10.542   0.748
 4769W        W 8969   8.376   2.221   9.748
 4770W        W 8970   6.737   4.561   9.394
 4771W        W 8971  10.567   2.792   1.704
 4772W        W 8972   4.960   7.017   3.139
 4773W        W 8973   0.247   2.149   9.776
 4774W        W 8974   7.827   7.988   2.319
 4775W        W 8975   3.953   6.017  11.508
 4776W        W 8976  11.348   4.643   1.848
 4777W        W 8977   4.590   7.554   0.339
 4778W        W 8978   5.564   4.588   2.471
 4779W        W 8979  10.429   7.547   9.386
 4780W        W 8980   7.489   4.326  11.393
 4781W        W 8981   8.325   8.727   2.825
 4782W        W 8982   3.655   3.243   1.863
 4783W        W 8983   2.038   6.991  10.292
 4784W        W 8984  10.295   1.778   1.142
 4785W        W 8985  11.371   8.679   8.550
 4786W        W 8986  10.158   2.180   1.910
 4787W        W 8987   7.160   9.923   2.745
 4788W        W 8988   0.246   6.250  11.169
 4789W        W 8989   1.226   0.993   2.018
 4790W        W 8990  10.457   9.876   2.952
 4791W        W 8991   8.722  11.499  10.440
 4792W        W 8992   9.343   2.204  11.112
 4793W        W 8993   8.522   3.452   1.284
 4794W        W 8994   9.134   5.189  10.824
 4795W        W 8995   4.783   7.914   0.023
 4796W        W 8996  11.434  11.429  10.773
 4797W        W 8997   0.664   9.403   3.411
 4798W        W 8998   0.461   0.010   9.729
 4799W        W 8999   1.941   7.921  11.814
 4800W        W 9000  10.424   8.558   8.917
 4801W        W 9001   3.821   2.874  10.346
 4802W        W 9002   4.877   4.988   1.410
 4803W        W 9003   1.144   2.811   0.590
 4804W        W 9004   7.393   3.786   0.734
 4805W        W 9005   8.526   6.779  10.765
 4806W        W 9006   2.137   4.749   0.336
 4807W        W 9007   4.739   1.595  10.711
 4808W        W 9008   1.542   2.861   0.929
 4809W        W 9009   9.029  10.965   0.352
 4810W        W 9010   0.708   7.077   2.195
 4811W        W 9011   1.252   2.826  11.298
 4812W        W 9012  11.018  10.139   1.803
 4813W        W 9013   4.806   1.303   2.467
 4814W        W 9014   9.595   9.784   2.951
 4815W        W 9015  10.804   4.570   0.668
 4816W        W 9016   5.942   6.083   9.755
 4817W        W 9017   9.955   5.302   0.412
 4818W        W 9018   9.175   4.707   9.169
 4819W        W 9019   9.098   7.653  10.132
 4820W        W 9020   0.247   2.263   1.804
 4821W        W 9021   9.953  11.063  11.343
 4822W        W 9022   9.509  10.122   9.455
 4823W        W 9023   9.426   6.620  11.263
 4824W        W 9024   1.139   9.569   3.386
 4825W        W 9025   9.808   8.597   1.959
 4826W        W 9026   8.065   4.571   0.212
 4827W        W 9027   9.954   1.884   0.159
 4828W        W 9028   6.569   7.504   8.686
 4829W        W 9029   7.148   4.563   8.671
 4830W        W 9030   0.495   7.930   9.608
 4831W        W 9031   3.451   6.063   1.250
 4832W        W 9032   1.583   6.167  10.040
 4833W        W 9033   1.704   0.840   2.161
 4834W        W 9034   5.975   1.340   2.090
 4835W        W 9035   1.087   8.469   2.466
 4836W        W 9036   1.858   4.047  10.893
 4837W        W 9037   6.693   2.386   3.562
 4838W        W 9038   6.531   8.537   1.636
 4839W        W 9039   0.904   3.648   0.802
 4840W        W 9040   6.847  11.190   3.132
 4841W        W 9041   1.208   5.539   9.448
 4842W        W 9042   6.842   1.187   1.951
 4843W        W 9043  10.427   9.975  11.921
 4844W        W 9044   6.707   4.681   0.147
 4845W        W 9045   1.621   7.981   0.857
 4846W        W 9046   0.279   3.506  10.791
 4847W        W 9047  10.028   7.566  11.125
 4848W        W 9048   7.115  10.190  11.324
 4849W        W 9049   7.990   5.211   0.311
 4850W        W 9050   5.606   1.361   8.810
 4851W        W 9051   8.929   6.146   8.813
 4852W        W 9052   2.255   4.187   8.519
 4853W        W 9053   5.141   5.634  11.238
 4854W        W 9054   4.731   8.575  10.247
 4855W        W 9055   7.747   1.824   2.976
 4856W        W 9056   0.175   9.468   9.498
 4857W        W 9057   7.684   1.345  11.396
 4858W        W 9058   6.301   4.032   2.249
 4859W        W 9059   0.615   2.216  10.136
 4860W        W 9060   7.586   6.199  11.950
 4861W        W 9061   0.780   5.222  10.259
 4862W        W 9062   7.986   2.477   8.852
 4863W        W 9063   7.416   4.294   0.753
 4864W        W 9064   8.367   3.284  11.772
 4865W        W 9065   8.578   4.575   9.800
 4866W        W 9066   0.369   0.303  11.510
 4867W        W 9067   3.016   3.492   2.383
 4868W        W 9068   8.980   0.412   0.727
 4869W        W 9069   0.330   8.344  11.416
 4870W        W 9070   3.094   5.595   3.235
 4871W        W 9071   1.987   1.014  11.683
 4872W        W 9072  10.511   8.368  11.013
 4873W        W 9073   5.861  10.039   8.945
 4874W        W 9074   2.594   5.995   9.517
 4875W        W 9075   4.167   0.538   0.551
 4876W        W 9076   4.335   8.151   2.733
 4877W        W 9077   8.704   7.100   3.161
 4878W        W 9078   8.047   1.885  11.030
 4879W        W 9079   3.957   8.671   2.209
 4880W        W 9080   2.615  10.997   3.002
 4881W        W 9081   9.663   4.250   2.257
 4882W        W 9082   5.587   1.823   9.042
 4883W        W 9083   3.760   4.621  11.160
 4884W        W 9084   0.413   5.242  11.564
 4885W        W 9085   5.633   4.803   0.669
 4886W        W 9086   7.909   8.750   9.518
 4887W        W 9087   0.763   3.015   8.514
 4888W        W 9088   2.877   7.056   1.489
 4889W        W 9089   5.771  10.878  10.399
 4890W        W 9090   1.266  11.394   9.315
 4891W        W 9091   2.508   2.537   3.138
 4892W        W 9092   0.592   2.647   9.308
 4893W        W 9093   9.759   9.060   1.746
 4894W        W 9094   1.423   6.108   2.231
 4895W        W 9095   9.362   2.831  11.834
 4896W        W 9096   6.131  11.033   9.608
 4897W        W 9097   1.809   3.590  10.695
 4898W        W 9098   1.727   9.914  10.571
 4899W        W 9099   4.394  10.489  10.077
 4900W        W 9100   7.713   0.836  11.945
 4901W        W 9101   5.145   8.508   1.083
 4902W        W 9102   3.194   2.183   1.778
 4903W        W 9103   0.670   9.144  11.070
 4904W        W 9104   9.509   2.350   9.615
 4905W        W 9105   9.949   2.166   1.267
 4906W        W 9106   9.278  11.406  11.661
 4907W        W 9107   7.916   5.504  10.520
 4908W        W 9108  10.607   3.101   0.464
 4909W        W 9109   5.658   8.486   0.738
 4910W        W 9110   5.095   6.338   2.422
 4911W        W 9111   7.475   1.304   8.762
 4912W        W 9112   6.545   1.151  10.337
 4913W        W 9113   7.596   6.514   1.313
 4914W        W 9114   0.573  10.367   0.927
 4915W        W 9115   3.997   7.621   1.370
 4916W        W 9116   5.786   9.955  10.304
 4917W        W 9117   8.492   2.652  10.528
 4918W        W 9118   9.325   7.941   0.224
 4919W        W 9119   3.073   9.130   1.549
 4920W        W 9120   1.828   4.531   3.592
 4921W        W 9121   1.686   0.181   1.190
 4922W        W 9122   7.495   0.914  10.458
 4923W        W 9123   7.374   7.332  10.126
 4924W        W 9124   1.841   1.253   3.095
 4925W        W 9125   9.492   7.633  11.461
 4926W        W 9126   6.582   3.964   2.695
 4927W        W 9127   1.116   5.152  11.867
 4928W        W 9128  11.367   7.206   8.828
 4929W        W 9129   2.079   5.946   9.578
 4930W        W 9130   9.391   9.783  10.873
 4931W        W 9131   1.778   4.897   1.027
 4932W        W 9132   2.821  11.069   2.524
 4933W        W 9133   0.466   1.751   9.571
 4934W        W 9134  10.371   2.228  11.947
 4935W        W 9135   7.019   9.572  11.239
 4936W        W 9136  11.298   6.705   0.855
 4937W        W 9137   6.950   6.081  10.045
 4938W        W 9138   4.625   4.534   3.145
 4939W        W 9139   3.299   3.217   3.628
 4940W        W 9140   5.139   8.893   9.963
 4941W        W 9141   3.882  10.868  10.736
 4942W        W 9142   4.342   0.944  10.844
 4943W        W 9143   4.739   2.807   0.714
 4944W        W 9144   9.826   7.679   1.918
 4945W        W 9145   2.774  11.471  11.369
 4946W        W 9146   7.232  11.385   1.865
 4947W        W 9147  10.862   2.617  10.288
 4948W        W 9148   9.881   6.380  10.302
 4949W        W 9149   2.661   3.084   2.390
 4950W        W 9150   6.426   8.747   8.258
 4951W        W 9151  10.955   9.570  11.969
 4952W        W 9152   0.831   2.426   0.431
 4953W        W 9153   5.472   4.112   9.055
 4954W        W 9154   2.898  10.938  10.810
 4955W        W 9155   8.610   6.417   1.274
 4956W        W 9156   5.100   9.452   2.423
 4957W        W 9157   5.855   6.672   2.166
 4958W        W 9158   9.968   1.977   3.422
 4959W        W 9159   0.809   6.256   0.920
 4960W        W 9160   0.718  10.842   1.723
 4961W        W 9161   5.749   9.200  11.795
 4962W        W 9162   2.657   2.269   9.487
 4963W        W 9163   0.270   1.448   3.467
 4964W        W 9164   9.954   4.259   2.674
 4965W        W 9165   3.826   8.101  11.799
 4966W        W 9166   2.996   5.657   8.576
 4967W        W 9167   9.988   6.188  10.771
 4968W        W 9168   5.513   0.965   9.113
 4969W        W 9169  11.385   2.654   0.515
 4970W        W 9170   9.797  10.923   0.926
 4971W        W 9171   9.987  10.803   2.733
 4972W        W 9172   2.740   7.991   9.512
 4973W        W 9173  10.766   7.633   2.379
 4974W        W 9174   4.764   7.588   1.752
 4975W        W 9175  10.812   4.916   3.544
 4976W        W 9176  10.289   1.932  10.948
 4977W        W 9177   1.612   6.163   0.981
 4978W        W 9178  10.358   6.990   9.046
 4979W        W 9179   8.112   9.946   0.254
 4980W        W 9180   6.930   4.415   1.829
 4981W        W 9181   4.669   4.729   3.614
 4982W        W 9182   6.544   5.466   0.467
 4983W        W 9183   7.917   9.968   9.984
 4984W        W 9184   5.048   4.595   3.938
 4985W        W 9185   2.213   3.302   2.207
 4986W        W 9186   5.677   9.084   3.049
 4987W        W 9187   5.534   4.108   2.598
 4988W        W 9188   2.539   2.671   0.868
 4989W        W 9189  10.252   7.264   2.360
 4990W        W 9190   5.681   3.180   8.906
 4991W        W 9191   8.428  11.003  11.746
 4992W        W 9192   1.036   4.092   0.520
 4993W        W 9193   3.398   6.592  10.315
 4994W        W 9194  10.307   6.573  11.970
 4995W        W 9195   4.159   9.087   9.083
 4996W        W 9196   9.929   5.684   9.923
 4997W        W 9197   3.493   8.496   8.925
 4998W        W 9198   4.362  10.993  10.759
 4999W        W 9199  10.002   1.655  10.083
 5000W        W 9200  10.044   1.279   8.817
 5001W        W 9201  10.050   0.859   0.050
 5002W        W 9202   6.083   5.768   1.711
 5003W        W 9203   1.267   9.459   9.996
 5004W        W 9204   2.509   7.714   2.709
 5005W        W 9205   9.909   0.770   8.895
 5006W        W 9206   3.979   1.345  11.477
 5007W        W 9207   2.107   1.650   3.355
 5008W        W 9208   8.647   3.090  10.294
 5009W        W 9209  10.502  10.810   3.373
 5010W        W 9210   2.249   9.340  11.258
 5011W        W 9211   8.453   2.646   2.048
 5012W        W 9212   7.454  11.330   8.830
 5013W        W 9213   8.147   0.864   8.468
 5014W        W 9214   0.245   6.105   2.813
 5015W        W 9215   8.672   9.971   2.868
 5016W        W 9216   4.553   5.302   9.660
 5017W        W 9217   5.966   6.282   2.693
 5018W        W 9218   3.695  10.789   2.781
 5019W        W 9219   1.635   5.579   3.186
 5020W        W 9220   4.717   4.530   2.632
 5021W        W 9221   8.111   4.614   3.529
 5022W        W 9222   6.845   9.360   0.670
 5023W        W 9223   0.084   5.646  10.824
 5024W        W 9224   0.624   1.457   0.750
 5025W        W 9225   2.344   0.678   0.767
 5026W        W 9226   8.364   2.146   3.722
 5027W        W 9227   4.900   6.073   1.002
 5028W        W 9228  10.230  11.406   9.393
 5029W        W 9229   7.106   2.641   9.797
 5030W        W 9230  10.880   7.554   9.655
 5031W        W 9231   5.537   6.426  11.276
 5032W        W 9232   0.963   2.346   9.108
 5033W        W 9233   5.490   0.009   0.021
 5034W        W 9234   1.610   3.473  10.220
 5035W        W 9235   4.746   2.828   2.019
 5036W        W 9236   4.953   8.078   1.979
 5037W        W 9237   8.533   5.512   9.845
 5038W        W 9238   0.703   4.151  10.998
 5039W        W 9239  11.275   2.219   9.425
 5040W        W 9240   9.613   8.369   9.916
 5041W        W 9241   5.783   9.861   2.007
 5042W        W 9242   6.973   4.560   0.922
 5043W        W 9243   4.793   1.651   0.432
 5044W        W 9244   2.279  11.251  11.427
 5045W        W 9245   1.271   0.484   1.886
 5046W        W 9246   4.087   2.329   0.317
 5047W        W 9247   7.235   4.460   9.533
 5048W        W 9248   9.889  10.474   9.394
 5049W        W 9249   1.919   6.381  10.463
 5050W        W 9250   7.005   8.302   9.717
 5051W        W 9251   0.754   8.401   0.394
 5052W        W 9252   9.390   3.919   1.684
 5053W        W 9253   9.855   2.616   2.813
 5054W        W 9254   6.754  10.751   1.878
 5055W        W 9255   5.473   8.098   2.027
 5056W        W 9256   9.406   0.939  11.885
 5057W        W 9257   5.505  11.038   9.031
 5058W        W 9258   6.215   2.744   9.887
 5059W        W 9259   2.261   7.103   0.071
 5060W        W 9260  11.282  11.413   9.355
 5061W        W 9261   5.661   0.698  10.715
 5062W        W 9262  10.879   8.336   9.649
 5063W        W 9263  10.284   5.966  11.205
 5064W        W 9264   6.980   3.172   1.372
 5065W        W 9265   2.751   8.506   9.471
 5066W        W 9266  10.855   7.618   1.865
 5067W        W 9267   9.398   4.394  11.055
 5068W        W 9268   7.499  11.356   9.341
 5069W        W 9269  10.815   3.917   1.908
 5070W        W 9270   2.587   6.302   9.983
 5071W        W 9271  10.586   7.885   0.004
 5072W        W 9272   0.438  11.338   0.709
 5073W        W 9273  11.425   5.013   2.182
 5074W        W 9274   4.624  11.421   9.127
 5075W        W 9275   8.921   5.345   8.521
 5076W        W 9276   8.887   2.833   2.837
 5077W        W 9277   0.478   3.605  11.539
 5078W        W 9278   8.451   2.951   1.545
 5079W        W 9279   8.060   3.932   1.935
 5080W        W 9280   0.513   5.392  11.017
 5081W        W 9281   2.459   2.518  11.887
 5082W        W 9282   2.782   3.105   1.430
 5083W        W 9283   6.152  10.565   9.406
 5084W        W 9284   4.670  10.886   1.343
 5085W        W 9285   1.043   9.509   0.783
 5086W        W 9286   4.658   6.821   2.303
 5087W        W 9287   5.195   9.847   9.020
 5088W        W 9288   0.284   9.928   0.904
 5089W        W 9289   5.805   7.079   0.385
 5090W        W 9290   7.893   6.937   2.975
 5091W        W 9291   3.841  10.790   9.883
 5092W        W 9292   2.606   6.198  11.870
 5093W        W 9293   1.375   2.029   8.971
 5094W        W 9294   0.823   1.868  10.913
 5095W        W 9295   4.090   0.868  11.299
 5096W        W 9296   2.014  11.105  10.071
 5097W        W 9297   1.354   7.860   8.809
 5098W        W 9298   2.170   4.952   1.497
 5099W        W 9299   2.637   9.757  10.537
 5100W        W 9300  10.543  11.241   2.293
 5101W        W 9301   6.250   0.446   3.321
 5102W        W 9302   3.860   7.350   2.229
 5103W        W 9303   3.859   8.483   2.678
 5104W        W 9304  10.032   3.312   1.435
 5105W        W 9305   3.479   2.226  10.499
 5106W        W 9306   0.352   9.594   1.585
 5107W        W 9307   8.874   4.129   9.864
 5108W        W 9308   0.207   3.644   2.779
 5109W        W 9309   0.499   3.068  10.688
 5110W        W 9310   4.169  10.814   1.883
 5111W        W 9311   4.145  10.911  10.299
 5112W        W 9312   5.354   9.450   0.327
 5113W        W 9313   0.148  10.598   3.079
 5114W        W 9314  10.570   0.878  11.845
 5115W        W 9315   2.873   8.597   2.838
 5116W        W 9316   9.532   2.713   3.514
 5117W        W 9317   5.735   7.759  10.034
 5118W        W 9318   8.547   1.476   1.333
 5119W        W 9319   8.112   9.426   1.056
 5120W        W 9320   9.366   2.729  11.326
 5121W        W 9321   6.721   7.894   9.900
 5122W        W 9322   5.780   4.812  10.348
 5123W        W 9323   7.659  10.299  10.798
 5124W        W 9324   5.104   5.719  10.736
 5125W        W 9325   9.159   3.741   0.214
 5126W        W 9326   2.190   0.807   8.908
 5127W        W 9327   0.278   7.560   3.280
 5128W        W 9328   6.855   8.564   2.975
 5129W        W 9329   0.651  10.375   2.337
 5130W        W 9330   2.941   0.265  10.958
 5131W        W 9331   2.987   4.571   9.992
 5132W        W 9332   6.491   4.040   0.787
 5133W        W 9333   3.876   4.683   8.151
 5134W        W 9334   4.789   2.726   1.544
 5135W        W 9335   8.159   1.820   9.999
 5136W        W 9336   3.363   2.377   0.018
 5137W        W 9337   8.504   1.887  11.259
 5138W        W 9338   3.759  10.353   8.956
 5139W        W 9339   9.586   0.611   0.241
 5140W        W 9340   8.590   5.012  10.131
 5141W        W 9341   6.662  10.368  11.093
 5142W        W 9342   9.553   2.370   2.209
 5143W        W 9343  10.707   1.313  11.535
 5144W        W 9344   1.412   3.880  11.480
 5145W        W 9345   8.054   2.770   0.370
 5146W        W 9346   0.427   5.713   9.951
 5147W        W 9347   4.190   7.469   9.051
 5148W        W 9348  10.364   4.556  11.451
 5149W        W 9349   4.693   3.559   0.432
 5150W        W 9350   6.781   3.145   9.169
 5151W        W 9351   7.691   5.761   8.313
 5152W        W 9352   4.579   6.372   2.522
 5153W        W 9353   5.567   8.972   0.429
 5154W        W 9354   2.750   3.401  10.295
 5155W        W 9355   2.816   2.336   2.755
 5156W        W 9356   5.472   2.401   2.706
 5157W        W 9357   6.724   2.805   0.465
 5158W        W 9358   3.185   0.808   9.110
 5159W        W 9359   8.987  10.007  10.119
 5160W        W 9360  11.393   5.589   0.219
 5161W        W 9361   4.529   3.208   9.520
 5162W        W 9362   8.058   1.836   3.439
 5163W        W 9363   8.482   6.967   0.454
 5164W        W 9364  10.463   8.091   2.969
 5165W        W 9365   7.617   0.728   3.419
 5166W        W 9366   4.090  11.394  10.502
 5167W        W 9367   1.924   5.232  11.240
 5168W        W 9368   4.540   5.450   2.285
 5169W        W 9369   5.586   3.685   3.812
 5170W        W 9370   7.376   4.789  10.527
 5171W        W 9371  11.340   6.403   2.804
 5172W        W 9372   1.709   2.324   0.934
 5173W        W 9373   5.091   9.837   2.123
 5174W        W 9374  11.498  11.448   2.007
 5175W        W 9375   9.206   9.534   2.251
 5176W        W 9376   0.774   7.175   9.930
 5177W        W 9377   6.960   1.255  11.947
 5178W        W 9378   0.776   7.494   1.781
 5179W        W 9379   0.864   9.131   1.047
 5180W        W 9380   5.167   5.573  11.757
 5181W        W 9381  10.113   5.045  10.289
 5182W        W 9382  10.123   1.963  10.474
 5183W        W 9383   4.994   1.507  10.118
 5184W        W 9384   8.845   6.930   9.526
 5185W        W 9385   0.803   2.039  11.610
 5186W        W 9386   0.745   5.478   3.085
 5187W        W 9387   6.263   5.036   0.372
 5188W        W 9388   1.260   5.273  10.440
 5189W        W 9389   5.330   6.719  10.847
 5190W        W 9390   1.620   5.071  11.964
 5191W        W 9391   0.265  11.429   0.238
 5192W        W 9392   0.487   4.576  10.818
 5193W        W 9393  11.318   8.890   1.886
 5194W        W 9394   8.727  11.258   9.575
 5195W        W 9395  10.504   7.363  10.951
 5196W        W 9396   9.103   9.053   2.510
 5197W        W 9397  11.256   4.801   0.814
 5198W        W 9398   3.280   2.637   0.867
 5199W        W 9399   8.530   0.952   9.425
 5200W        W 9400   7.057   8.366   1.935
 5201W        W 9401   5.125  11.487   3.006
 5202W        W 9402   3.060   3.987   4.109
 5203W        W 9403   1.202   8.135   0.612
 5204W        W 9404   1.343   9.560   0.399
 5205W        W 9405   0.735   0.918  10.430
 5206W        W 9406  10.333   2.577   9.392
 5207W        W 9407  10.536   1.588   9.649
 5208W        W 9408  10.242   8.466   0.399
 5209W        W 9409   2.363  10.254   2.739
 5210W        W 9410   9.972   8.061  10.958
 5211W        W 9411   2.282  11.266   0.477
 5212W        W 9412   7.654   2.457   3.174
 5213W        W 9413  10.163   0.308  10.100
 5214W        W 9414   8.439  11.319   3.169
 5215W        W 9415   9.449   6.674   2.162
 5216W        W 9416   4.125   8.084   9.637
 5217W        W 9417   9.812   0.820   9.439
 5218W        W 9418   7.177  10.382   3.399
 5219W        W 9419   0.687   6.936  10.372
 5220W        W 9420  11.301   1.804  10.968
 5221W        W 9421   2.161   2.946   8.815
 5222W        W 9422   7.721   7.739   9.879
 5223W        W 9423   8.603   6.001  11.010
 5224W        W 9424   7.494   7.053   1.885
 5225W        W 9425   1.768  10.995   2.791
 5226W        W 9426   1.811  10.493  11.239
 5227W        W 9427   2.963   7.865  10.384
 5228W        W 9428   1.836   3.695   2.296
 5229W        W 9429   9.450   8.787   0.222
 5230W        W 9430   0.393   6.068   0.232
 5231W        W 9431   0.490   3.871   2.426
 5232W        W 9432   4.723   2.660   2.987
 5233W        W 9433   0.718   0.687   9.972
 5234W        W 9434  10.396   7.474   9.884
 5235W        W 9435   3.219   0.160   9.133
 5236W        W 9436   3.765   0.607   2.952
 5237W        W 9437   1.159   5.697   2.395
 5238W        W 9438   7.557   1.032   1.946
 5239W        W 9439   7.451   8.350   2.316
 5240W        W 9440   8.597   6.451   0.380
 5241W        W 9441  10.237   2.296   0.845
 5242W        W 9442   6.657   9.878   2.002
 5243W        W 9443   3.690  11.462   9.580
 5244W        W 9444   4.668   4.624  10.946
 5245W        W 9445   4.803   9.013   3.072
 5246W        W 9446   2.680   1.146   1.256
 5247W        W 9447   4.771   7.004  10.027
 5248W        W 9448   1.363   9.519  11.907
 5249W        W 9449   2.385   3.799   9.475
 5250W        W 9450   4.660   4.755   1.811
 5251W        W 9451   2.894   9.994  11.526
 5252W        W 9452   9.242   7.355  11.088
 5253W        W 9453   8.772   8.693   0.745
 5254W        W 9454   8.084   1.448   8.717
 5255W        W 9455   9.629   9.551   1.504
 5256W        W 9456   0.721   4.674  11.320
 5257W        W 9457   8.109   8.841  11.755
 5258W        W 9458   1.823   7.406  11.813
 5259W        W 9459   4.722   8.500   0.715
 5260W        W 9460   6.335   7.441   1.467
 5261W        W 9461   3.723   8.864  10.586
 5262W        W 9462  10.364   5.030  11.163
 5263W        W 9463   1.403   5.230   2.355
 5264W        W 9464   1.893   0.465   0.811
 5265W        W 9465   2.827   7.030   2.382
 5266W        W 9466   7.902   5.213  11.442
 5267W        W 9467   1.817   5.250   2.805
 5268W        W 9468   6.371   1.257   1.746
 5269W        W 9469   1.635   3.046   0.449
 5270W        W 9470  11.072   0.913   1.239
 5271W        W 9471   1.465   0.023   0.243
 5272W        W 9472   4.096   3.528  11.791
 5273W        W 9473   5.179   0.803   1.940
 5274W        W 9474  10.088   8.997   9.098
 5275W        W 9475   1.998  10.394   9.399
 5276W        W 9476   2.745   4.605   1.355
 5277W        W 9477   4.544   5.133  11.204
 5278W        W 9478   9.013   5.683   9.777
 5279W        W 9479   4.638   4.014   1.361
 5280W        W 9480   7.813   9.529  10.902
 5281W        W 9481   4.190   1.377   3.024
 5282W        W 9482   9.389   8.610   2.298
 5283W        W 9483   1.442   5.559  11.925
 5284W        W 9484   3.778   1.109   2.947
 5285W        W 9485   9.972   2.748  10.087
 5286W        W 9486   1.162   7.301   2.862
 5287W        W 9487   5.946   5.596   9.053
 5288W        W 9488   6.538   2.866   3.625
 5289W        W 9489   9.732   1.136   2.994
 5290W        W 9490   4.084  11.343   0.871
 5291W        W 9491   0.902  11.044  10.649
 5292W        W 9492   8.322   6.789   0.932
 5293W        W 9493   7.123   7.032  11.937
 5294W        W 9494   9.946  10.872  11.903
 5295W        W 9495   3.736   6.917  11.162
 5296W        W 9496   2.220   8.041   0.571
 5297W        W 9497   9.637   4.215   1.351
 5298W        W 9498  10.628   0.699   1.380
 5299W        W 9499   7.575   7.344   2.301
 5300W        W 9500   1.985   5.332   1.838
 5301W        W 9501  10.560  10.476  11.766
 5302W        W 9502   1.599   7.009   1.913
 5303W        W 9503   8.325   4.029  10.277
 5304W        W 9504   5.656   3.232   2.566
 5305W        W 9505   6.084   0.322   2.249
 5306W        W 9506   9.572   7.682   1.452
 5307W        W 9507   9.908   3.199   9.785
 5308W        W 9508   9.616   4.904   1.719
 5309W        W 9509   8.212   3.673   9.489
 5310W        W 9510   6.672   3.977   1.718
 5311W        W 9511   9.992   8.532  10.718
 5312W        W 9512   8.472  10.267  10.033
 5313W        W 9513   0.310  11.454   9.250
 5314W        W 9514   3.682   3.612  10.968
 5315W        W 9515  11.455  10.721   9.683
 5316W        W 9516   0.175   7.181  11.331
 5317W        W 9517   8.948   9.359  11.412
 5318W        W 9518   2.607   0.836   9.232
 5319W        W 9519   0.532   3.442  10.319
 5320W        W 9520  10.228   2.716   2.098
 5321W        W 9521   5.624   8.543   1.788
 5322W        W 9522   3.958   8.000   1.762
 5323W        W 9523   8.272   3.873   4.012
 5324W        W 9524   1.215   4.059   9.221
 5325W        W 9525   2.262   1.890   9.764
 5326W        W 9526   9.879  10.782   2.225
 5327W        W 9527   5.189   9.825   3.338
 5328W        W 9528   1.967   2.139  11.281
 5329W        W 9529   8.000  10.432   2.415
 5330W        W 9530   1.925   3.199   8.409
 5331W        W 9531   0.396  10.021  10.929
 5332W        W 9532   8.571   3.566   3.138
 5333W        W 9533   9.916   7.675   2.430
 5334W        W 9534   6.549  10.906   9.331
 5335W        W 9535   2.797   5.295  11.340
 5336W        W 9536   4.969   2.518   8.605
 5337W        W 9537   6.729   8.630   0.825
 5338W        W 9538   1.869   6.914   8.763
 5339W        W 9539   3.637   0.163   2.746
 5340W        W 9540   4.994   8.299   8.924
 5341W        W 9541   6.999   9.376   8.525
 5342W        W 9542   1.255   7.565   2.049
 5343W        W 9543   7.996   5.914   0.798
 5344W        W 9544   5.635  10.957   0.951
 5345W        W 9545   0.679   8.791  10.073
 5346W        W 9546   4.007   6.204   1.851
 5347W        W 9547  10.714   7.480   3.512
 5348W        W 9548   1.642   6.653   8.342
 5349W        W 9549   0.310  10.997   9.464
 5350W        W 9550   5.224   4.680   1.673
 5351W        W 9551   2.795   4.821  11.630
 5352W        W 9552   3.147   3.339   1.768
 5353W        W 9553   0.141   7.903   9.997
 5354W        W 9554   6.319   6.486   2.345
 5355W        W 9555   2.197  10.989   1.860
 5356W        W 9556   0.437   0.517   2.429
 5357W        W 9557   9.715   7.036   0.327
 5358W        W 9558   0.874   7.088   1.414
 5359W        W 9559   5.213   1.414   1.692
 5360W        W 9560   1.764   4.812  10.308
 5361W        W 9561   5.776   5.184   0.311
 5362W        W 9562   1.773   8.090   9.624
 5363W        W 9563   1.185   1.916  11.273
 5364W        W 9564  10.968   9.961   9.705
 5365W        W 9565   3.815   9.373   3.422
 5366W        W 9566   6.901   2.618   2.672
 5367W        W 9567   6.364   2.530  10.339
 5368W        W 9568   2.220   1.466   0.068
 5369W        W 9569   1.172   1.285   3.652
 5370W        W 9570   7.770   0.352   3.746
 5371W        W 9571   2.299   5.773   9.140
 5372W        W 9572   8.949   7.477   2.176
 5373W        W 9573  11.245   5.155   1.191
 5374W        W 9574   1.436  10.366   2.978
 5375W        W 9575   2.789   3.266   3.523
 5376W        W 9576  10.467   8.919   2.952
 5377W        W 9577   8.609   7.373   9.453
 5378W        W 9578   1.892   4.544  10.896
 5379W        W 9579  10.091   1.302   1.219
 5380W        W 9580   7.570   1.790   9.586
 5381W        W 9581   3.165   5.611   0.103
 5382W        W 9582   4.052   5.158  11.020
 5383W        W 9583   2.695   3.112   8.994
 5384W        W 9584   0.195   1.813   1.508
 5385W        W 9585   9.788   1.308   0.767
 5386W        W 9586   8.948   0.766   1.885
 5387W        W 9587   7.574   5.060   1.250
 5388W        W 9588   6.706  10.386   2.717
 5389W        W 9589   0.843  10.293  10.087
 5390W        W 9590   0.087   9.373   0.757
 5391W        W 9591   7.658   1.025   9.596
 5392W        W 9592   7.700   6.514   1.830
 5393W        W 9593   8.085   6.683   9.916
 5394W        W 9594   3.747   9.083   2.020
 5395W        W 9595   1.695   8.902  10.902
 5396W        W 9596   7.022   5.998  11.828
 5397W        W 9597   6.227   0.808   2.427
 5398W        W 9598   8.066  10.844   2.782
 5399W        W 9599   0.238   5.476   1.906
 5400W        W 9600   8.088   3.704   1.450
 5401W        W 9601  10.870   1.387   0.008
 5402W        W 9602   8.973   8.579   2.709
 5403W        W 9603   8.466   1.464   9.505
 5404W        W 9604   0.284   7.570  11.722
 5405W        W 9605   7.112   6.688  11.332
 5406W        W 9606   2.314   7.950  10.986
 5407W        W 9607   0.355   1.282  11.840
 5408W        W 9608   3.950   6.309   1.257
 5409W        W 9609   6.656   7.476   3.663
 5410W        W 9610  11.339   8.453   2.187
 5411W        W 9611   9.112  11.403   0.720
 5412W        W 9612   0.167   5.160   0.929
 5413W        W 9613   9.878   0.385  11.843
 5414W        W 9614   5.083   0.247   0.238
 5415W        W 9615   6.233   3.502   2.271
 5416W        W 9616  10.798  10.345   3.450
 5417W        W 9617  11.192   5.251   8.759
 5418W        W 9618   5.727   8.633   3.316
 5419W        W 9619   8.978   3.667   3.453
 5420W        W 9620  11.196   1.501   8.822
 5421W        W 9621   2.743  11.271   0.220
 5422W        W 9622   5.715   2.397   1.017
 5423W        W 9623   5.091   7.738  11.642
 5424W        W 9624   1.188   8.238   0.116
 5425W        W 9625  10.627   7.844   1.421
 5426W        W 9626   7.658   3.067   0.710
 5427W        W 9627  11.422   3.767   3.162
 5428W        W 9628   4.363   5.007   1.427
 5429W        W 9629   0.191   9.235  10.334
 5430W        W 9630   8.749   7.975  10.381
 5431W        W 9631   1.705  10.834   9.407
 5432W        W 9632   9.359   6.634  11.790
 5433W        W 9633   9.134   7.347   9.583
 5434W        W 9634  11.491  11.359   9.812
 5435W        W 9635  10.764   0.225   9.912
 5436W        W 9636   1.978  10.699   8.975
 5437W        W 9637   7.750   6.280   8.242
 5438W        W 9638   0.192   5.532   9.511
 5439W        W 9639  10.837   7.141   8.884
 5440W        W 9640   6.441   2.802   8.974
 5441W        W 9641  10.098   0.741  10.550
 5442W        W 9642   6.800   6.099   1.307
 5443W        W 9643   9.506   3.293   2.271
 5444W        W 9644   5.246   5.810   2.353
 5445W        W 9645   7.308   0.448  10.065
 5446W        W 9646   8.927   0.802   2.397
 5447W        W 9647   3.669   3.599   0.711
 5448W        W 9648   0.205   3.058  10.246
 5449W        W 9649   0.425   8.683  10.886
 5450W        W 9650   7.584   6.387   3.540
 5451W        W 9651   1.297   7.853  10.911
 5452W        W 9652   4.000   1.014   0.431
 5453W        W 9653   9.482   2.791   9.900
 5454W        W 9654   7.286   1.005   0.270
 5455W        W 9655   6.789   0.602   8.449
 5456W        W 9656   5.509   3.767   1.834
 5457W        W 9657   9.533   1.366   1.307
 5458W        W 9658   0.502   7.055   8.994
 5459W        W 9659   0.222   8.716  10.378
 5460W        W 9660   0.297   3.865  11.150
 5461W        W 9661   1.407  10.874  11.785
 5462W        W 9662  10.757   9.353   2.259
 5463W        W 9663   2.093   8.404   3.233
 5464W        W 9664   1.643  10.375   2.152
 5465W        W 9665   4.636   8.131   9.690
 5466W        W 9666   9.476   6.894   9.884
 5467W        W 9667   3.701   5.452  10.332
 5468W        W 9668  11.373   6.048   0.038
 5469W        W 9669   3.353   7.202  10.975
 5470W        W 9670  10.871   8.553   8.645
 5471W        W 9671  10.731   6.986   0.404
 5472W        W 9672   3.343   9.130  11.063
 5473W        W 9673   1.632   9.621  11.464
 5474W        W 9674   5.889   1.516   9.804
 5475W        W 9675   4.903  10.386  10.181
 5476W        W 9676   1.306   5.731   0.384
 5477W        W 9677   2.157   1.748  11.563
 5478W        W 9678   9.836   0.632   3.033
 5479W        W 9679   7.693   9.048   9.910
 5480W        W 9680   7.139   7.131  10.543
 5481W        W 9681  11.464   9.853   8.701
 5482W        W 9682   1.357  10.439   9.975
 5483W        W 9683   5.493  10.745   2.458
 5484W        W 9684   5.016   7.956   3.361
 5485W        W 9685   3.254   0.187  11.458
 5486W        W 9686   2.264   7.483  10.354
 5487W        W 9687   1.503   4.270   2.351
 5488W        W 9688  10.482   2.466   9.928
 5489W        W 9689   4.959   6.407  11.717
 5490W        W 9690   7.082   1.760   1.144
 5491W        W 9691   0.405   0.343   0.512
 5492W        W 9692   8.365   7.197  11.023
 5493W        W 9693   2.349   3.070   2.804
 5494W        W 9694  10.571   6.011   2.193
 5495W        W 9695   4.298  11.376  11.528
 5496W        W 9696   2.407  10.210  11.525
 5497W        W 9697   0.943  11.460   8.546
 5498W        W 9698   9.426   0.782   2.128
 5499W        W 9699   7.688   6.606   8.669
 5500W        W 9700   6.606   8.597   3.836
 5501W        W 9701   2.370   0.391   9.159
 5502W        W 9702   8.486   5.056   9.631
 5503W        W 9703   3.724   0.848   2.063
 5504W        W 9704   1.712   0.364   1.655
 5505W        W 9705   4.269   2.264   9.290
 5506W        W 9706   0.370   8.034   9.112
 5507W        W 9707   9.987  10.027   0.722
 5508W        W 9708   0.413   3.382   1.483
 5509W        W 9709   4.222   0.021  11.003
 5510W        W 9710  11.125   1.425   2.333
 5511W        W 9711   5.095   7.005   1.049
 5512W        W 9712  11.491   5.592   1.420
 5513W        W 9713   1.384   7.072   0.143
 5514W        W 9714   1.409   3.734   1.029
 5515W        W 9715   3.304   7.626   0.798
 5516W        W 9716   6.103   1.709   3.502
 5517W        W 9717   8.458   8.458   3.607
 5518W        W 9718   9.933  10.407   3.531
 5519W        W 9719   9.529   7.735  10.415
 5520W        W 9720   8.051  10.988  10.094
 5521W        W 9721  10.866   8.689  10.020
 5522W        W 9722   2.507   4.313   2.140
 5523W        W 9723   8.683   8.532  11.754
 5524W        W 9724   2.389   6.065  10.439
 5525W        W 9725   2.863   8.907  10.739
 5526W        W 9726   7.126   5.737  11.362
 5527W        W 9727   2.871   9.329   0.295
 5528W        W 9728   5.107   9.078  11.469
 5529W        W 9729   3.441   0.217  10.982
 5530W        W 9730   4.626   4.560   0.496
 5531W        W 9731   0.640   0.519  10.852
 5532W        W 9732   8.428   7.859   3.087
 5533W        W 9733  10.387   5.606   0.906
 5534W        W 9734   1.852   5.689  11.642
 5535W        W 9735   2.032   4.680   9.882
 5536W        W 9736  11.038   5.307   1.953
 5537W        W 9737   4.845  10.455  11.459
 5538W        W 9738   4.400   4.077   3.256
 5539W        W 9739   7.278   2.271   8.817
 5540W        W 9740   3.686   1.825   1.672
 5541W        W 9741   8.398   4.152   9.262
 5542W        W 9742   7.863   3.259   0.246
 5543W        W 9743   4.376   3.246   3.675
 5544W        W 9744   9.019   5.027   1.449
 5545W        W 9745   4.250   7.017   8.761
 5546W        W 9746   7.775   0.918   0.452
 5547W        W 9747   6.113   4.565   1.321
 5548W        W 9748  10.365   6.434   9.989
 5549W        W 9749   5.861   9.403   0.329
 5550W        W 9750   4.169   1.381   0.824
 5551W        W 9751  11.212   9.848  10.186
 5552W        W 9752   7.219   9.538  10.370
 5553W        W 9753   6.022   4.278   2.621
 5554W        W 9754   4.954   2.342   2.658
 5555W        W 9755  10.346   9.498  10.293
 5556W        W 9756   2.600   9.873  11.084
 5557W        W 9757   1.418   1.729   3.143
 5558W        W 9758   5.549   5.382   2.256
 5559W        W 9759   4.877   7.103   1.511
 5560W        W 9760   0.373   1.304  11.303
 5561W        W 9761   5.575   4.640   9.015
 5562W        W 9762   5.919   6.502   9.448
 5563W        W 9763   0.239   6.788   2.104
 5564W        W 9764   9.916  10.484   1.232
 5565W        W 9765   2.308   3.348   1.323
 5566W        W 9766   4.948   9.103   8.549
 5567W        W 9767   8.537   3.866   1.748
 5568W        W 9768   1.534   4.818   2.652
 5569W        W 9769   6.230  11.467   1.400
 5570W        W 9770   1.861   6.903   3.147
 5571W        W 9771   3.161   3.603   0.769
 5572W        W 9772   7.694   9.208   1.293
 5573W        W 9773   7.879   8.074  10.220
 5574W        W 9774   9.573  11.390   0.980
 5575W        W 9775   6.753   6.560   9.944
 5576W        W 9776   3.042   5.530   2.483
 5577W        W 9777   7.319   8.549   2.775
 5578W        W 9778   3.396  10.932  10.807
 5579W        W 9779   8.043   1.318   1.258
 5580W        W 9780   5.927   3.071   0.323
 5581W        W 9781  11.277   1.024   3.563
 5582W        W 9782  10.316   3.707   1.710
 5583W        W 9783   4.608   3.365  10.025
 5584W        W 9784   8.508   7.660   9.046
 5585W        W 9785   7.709   5.248   8.496
 5586W        W 9786   1.726   3.137   2.258
 5587W        W 9787   3.139   7.033   9.882
 5588W        W 9788   2.274   2.463   1.686
 5589W        W 9789   9.501   7.397   9.957
 5590W        W 9790   7.488   0.238  11.148
 5591W        W 9791   6.636   2.338   1.380
 5592W        W 9792   8.638   7.640   9.892
 5593W        W 9793  10.975   3.591   0.463
 5594W        W 9794   3.595   2.340   0.472
 5595W        W 9795   8.132   6.599  11.287
 5596W        W 9796   6.940   0.334   1.119
 5597W        W 9797   0.928   5.725   8.987
 5598W        W 9798  10.272   5.664   2.438
 5599W        W 9799   4.207   6.921  11.324
 5600W        W 9800   0.109   0.750  10.821
 5601W        W 9801   1.458  11.364   0.842
 5602W        W 9802  10.017   0.303   9.125
 5603W        W 9803   2.242   1.916   8.718
 5604W        W 9804   1.377   1.435   1.795
 5605W        W 9805   9.127   9.940   3.100
 5606W        W 9806   8.630   1.157  11.023
 5607W        W 9807   9.301   2.671   2.547
 5608W        W 9808   9.184  11.466   0.204
 5609W        W 9809   7.512   8.762   9.150
 5610W        W 9810   2.769   1.591   1.506
 5611W        W 9811  10.709  10.569   2.971
 5612W        W 9812  10.449   8.200   3.475
 5613W        W 9813   8.380   7.923   1.361
 5614W        W 9814   2.187   0.670   2.802
 5615W        W 9815   6.440   1.173  11.207
 5616W        W 9816   7.199   6.471   1.719
 5617W        W 9817   5.407   5.271   9.540
 5618W        W 9818   0.115   1.626   2.737
 5619W        W 9819   3.184   2.814   9.919
 5620W        W 9820   3.023   4.700   2.995
 5621W        W 9821   2.049   5.146   0.664
 5622W        W 9822   6.045   9.362   9.614
 5623W        W 9823   9.044   5.126   2.393
 5624W        W 9824   8.464   0.404   1.247
 5625W        W 9825  10.342   6.460  11.011
 5626W        W 9826   7.082   8.435  11.059
 5627W        W 9827   4.048   4.745  10.708
 5628W        W 9828   2.327   7.719   8.967
 5629W        W 9829   6.556   3.079   4.140
 5630W        W 9830  11.226  11.044  11.051
 5631W        W 9831  11.499   3.452   9.076
 5632W        W 9832   3.001   8.366   9.035
 5633W        W 9833   6.231   9.345  11.985
 5634W        W 9834   2.253   2.814   9.835
 5635W        W 9835   9.890   6.153  11.462
 5636W        W 9836   8.687   6.591   1.772
 5637W        W 9837  10.421  10.466  10.795
 5638W        W 9838  10.044   4.088   0.893
 5639W        W 9839   7.012   0.769   3.154
 5640W        W 9840  10.406   4.488   2.847
 5641W        W 9841   8.755   2.304   1.815
 5642W        W 9842   9.206   3.818   9.414
 5643W        W 9843   5.487   5.040   9.986
 5644W        W 9844   6.941  10.772   2.369
 5645W        W 9845   3.521   7.722  11.947
 5646W        W 9846   0.239   2.732   1.523
 5647W        W 9847   1.897   8.171   1.995
 5648W        W 9848   9.147   9.066   9.776
 5649W        W 9849   1.200   4.808  11.488
 5650W        W 9850  11.382   9.827   9.222
 5651W        W 9851   8.591   9.346  10.625
 5652W        W 9852   7.968   2.322  10.760
 5653W        W 9853   0.498   8.038  11.824
 5654W        W 9854   4.463   2.812  10.648
 5655W        W 9855   8.925   1.568  11.187
 5656W        W 9856   3.487   3.797   1.171
 5657W        W 9857   6.442   3.528   0.871
 5658W        W 9858   6.575   2.846   1.360
 5659W        W 9859  10.448   3.290  10.617
 5660W        W 9860   3.704   8.288  11.290
 5661W        W 9861   4.134   6.581   0.768
 5662W        W 9862   4.739   0.313  10.344
 5663W        W 9863  10.060   0.109  11.435
 5664W        W 9864  10.985  11.253   9.927
 5665W        W 9865   0.832   4.992   3.187
 5666W        W 9866  10.077   1.362   2.458
 5667W        W 9867   8.885   4.174   0.258
 5668W        W 9868   0.780   9.907   3.249
 5669W        W 9869  10.850   9.663   2.674
 5670W        W 9870   3.434   3.144   0.881
 5671W        W 9871  10.991   6.992   3.582
 5672W        W 9872   1.279   2.329   2.835
 5673W        W 9873   2.159  10.836   1.367
 5674W        W 9874   7.142  10.318   2.446
 5675W        W 9875   3.420  11.075   9.928
 5676W        W 9876   2.223   3.324   9.650
 5677W        W 9877   3.494   3.971  10.624
 5678W        W 9878   1.885   5.533   9.363
 5679W        W 9879   8.667   5.199   2.881
 5680W        W 9880   5.546   7.348   9.782
 5681W        W 9881   4.316   7.524   0.770
 5682W        W 9882   0.955   2.690   2.677
 5683W        W 9883   0.210   6.831  10.508
 5684W        W 9884   5.446   4.113   4.032
 5685W        W 9885   8.184   8.068   8.973
 5686W        W 9886   8.887   5.467  10.224
 5687W        W 9887   7.475   2.372  10.501
 5688W        W 9888   7.714  11.229   9.790
 5689W        W 9889   0.203   5.228   8.989
 5690W        W 9890   1.882   6.992   1.459
 5691W        W 9891   0.920   5.273   2.181
 5692W        W 9892   7.637   0.570   1.761
 5693W        W 9893  11.413   5.691   9.942
 5694W        W 9894   2.619  11.255   9.515
 5695W        W 9895  10.863   7.165  10.000
 5696W        W 9896   3.741   4.746   2.262
 5697W        W 9897   4.671   9.920   0.511
 5698W        W 9898   7.870   1.545  11.930
 5699W        W 9899   0.753   0.420   8.678
 5700W        W 9900  11.334   0.028  11.290
 5701W        W 9901   0.460   8.002   0.608
 5702W        W 9902  10.236  11.328  10.301
 5703W        W 9903   1.441   4.243   0.231
 5704W        W 9904   4.916   1.306   3.254
 5705W        W 9905   7.668   8.985  10.911
 5706W        W 9906   6.874   8.876   8.533
 5707W        W 9907   3.679   5.489  10.852
 5708W        W 9908   4.942   4.335  10.501
 5709W        W 9909   0.384   8.777   0.324
 5710W        W 9910   6.948   4.584  10.336
 5711W        W 9911   8.212   9.630   8.779
 5712W        W 9912   5.018   2.905  10.631
 5713W        W 9913   9.769   4.584  10.622
 5714W        W 9914  11.145   8.478  10.418
 5715W        W 9915   4.453   7.993   1.897
 5716W        W 9916   6.421   1.315   1.239
 5717W        W 9917   1.419   9.070   1.221
 5718W        W 9918   9.904   6.472   3.576
 5719W        W 9919   1.304   7.151   2.330
 5720W        W 9920   8.059   4.143   1.094
 5721W        W 9921   4.792   5.246   1.873
 5722W        W 9922   0.395   3.486   9.421
 5723W        W 9923   6.955   1.698   2.115
 5724W        W 9924   4.419  10.278   0.907
 5725W        W 9925  10.030   8.088   9.824
 5726W        W 9926  10.296   3.975  11.985
 5727W        W 9927   8.401   6.162   1.710
 5728W        W 9928  11.288   3.407   0.861
 5729W        W 9929   4.460   6.314   1.143
 5730W        W 9930   0.027   8.550   0.644
 5731W        W 9931   8.828   1.162   3.374
 5732W        W 9932   3.873   7.113   1.485
 5733W        W 9933   9.033   4.319   0.728
 5734W        W 9934   7.753   1.471   1.661
 5735W        W 9935  11.351  10.124  11.627
 5736W        W 9936   4.171   5.060   2.350
 5737W        W 9937   8.925   7.565   1.678
 5738W        W 9938   3.171   7.708   9.430
 5739W        W 9939   2.292   4.786   0.966
 5740W        W 9940   1.389  11.441   8.813
 5741W        W 9941   1.432  11.316  11.548
 5742W        W 9942   7.145   2.935   8.824
 5743W        W 9943  11.186   9.276  10.998
 5744W        W 9944   0.431   3.781   3.257
 5745W        W 9945   1.017   8.478  10.315
 5746W        W 9946   8.807   5.995   8.338
 5747W        W 9947   6.361   0.810  10.690
 5748W        W 9948   5.516   3.714   8.138
 5749W        W 9949   9.537   8.626   3.220
 5750W        W 9950   5.907   3.383   1.885
 5751W        W 9951   2.277   8.433  10.301
 5752W        W 9952   5.707   9.117   3.570
 5753W        W 9953   3.618   1.889   9.504
 5754W        W 9954   1.363   4.748   2.173
 5755W        W 9955   6.052   8.341   2.706
 5756W        W 9956  10.344   6.616   3.350
 5757W        W 9957   0.303  10.560   9.158
 5758W        W 9958   9.561   5.541   1.130
 5759W        W 9959   8.522   0.966   2.081
 5760W        W 9960   2.899   7.872   1.330
 5761W        W 9961   0.082  10.578  11.734
 5762W        W 9962   5.189   0.962  11.442
 5763W        W 9963   9.068   7.608   2.671
 5764W        W 9964   2.272   0.857  10.848
 5765W        W 9965   6.293  10.509  10.770
 5766W        W 9966   3.503   3.738   3.586
 5767W        W 9967  10.578   9.991  10.985
 5768W        W 9968   6.152   1.753  11.014
 5769W        W 9969   8.106   7.679  11.189
 5770W        W 9970   2.190   8.889  11.038
 5771W        W 9971   8.933   6.029   0.788
 5772W        W 9972  10.176   4.254  10.607
 5773W        W 9973   3.275   9.087   9.069
 5774W        W 9974  10.497   9.041   8.762
 5775W        W 9975  10.048   9.015   2.175
 5776W        W 9976  10.313   5.396  10.609
 5777W        W 9977   1.699   3.790   2.854
 5778W        W 9978  11.267  10.275   0.624
 5779W        W 9979   1.927  11.433   1.848
 5780W        W 9980   4.521  10.913  11.455
 5781W        W 9981   2.769   2.063   9.040
 5782W        W 9982   6.170   9.061   2.308
 5783W        W 9983   8.965   0.366   2.683
 5784W        W 9984   9.545   6.446   9.603
 5785W        W 9985   1.372   3.836  10.955
 5786W        W 9986   7.420   7.607  11.716
 5787W        W 9987   0.978   3.675  10.387
 5788W        W 9988   4.893   7.195   0.575
 5789W        W 9989  10.439  10.757   2.457
 5790W        W 9990   3.317   3.753   9.776
 5791W        W 9991   1.773  11.430   3.607
 5792W        W 9992   7.197   7.488   1.060
 5793W        W 9993   3.130  10.805  11.282
 5794W        W 9994   0.303  10.060   1.392
 5795W        W 9995   8.625   1.982   1.450
 5796W        W 9996   5.167   1.940  10.948
 5797W        W 9997   4.700   6.058  10.768
 5798W        W 9998  10.064   7.589   1.352
 5799W        W 9999   2.323   9.857   2.442
 5800W        W10000  10.359   4.966   8.845
 5801W        W10001   4.687  10.564   1.823
 5802W        W10002   6.992   0.376   0.127
 5803W        W10003   0.600  11.348  11.770
 5804W        W10004   9.207   5.214  11.330
 5805W        W10005   8.028   5.658   8.678
 5806W        W10006   8.565  11.035   1.777
 5807W        W10007   2.528   4.766   2.869
 5808W        W10008   3.719   3.079   9.038
 5809W        W10009   3.383   9.432   3.732
 5810W        W10010   2.585   9.319   0.732
 5811W        W10011   2.672   4.296  10.275
 5812W        W10012   3.702   4.240   2.165
 5813W        W10013   8.460   9.577   0.156
 5814W        W10014   7.717   6.443   9.159
 5815W        W10015   1.913   0.982   0.742
 5816W        W10016   9.002  10.859   2.539
 5817W        W10017   2.837   5.561  10.769
 5818W        W10018  10.886  10.532   0.867
 5819W        W10019   5.652  10.134   9.834
 5820W        W10020   5.639   9.576   3.242
 5821W        W10021   6.534   1.253   2.345
 5822W        W10022   6.095   1.498   8.968
 5823W        W10023   0.868   4.858   8.511
 5824W        W10024   8.693   4.735   9.282
 5825W        W10025   6.210   1.624   3.007
 5826W        W10026   6.665   0.582  11.764
 5827W        W10027   4.685   1.323   0.811
 5828W        W10028   9.450   8.774  10.831
 5829W        W10029   2.657   9.053  11.179
 5830W        W10030   3.657   2.356   1.927
 5831W        W10031   0.011   8.933   2.349
 5832W        W10032   1.796   8.672   1.931
 5833W        W10033   8.946   8.444  11.034
 5834W        W10034   8.060   4.788   1.718
 5835W        W10035   7.098   6.498   1.183
 5836W        W10036   5.968   8.489   0.319
 5837W        W10037   9.902   1.865   2.494
 5838W        W10038   8.644   6.468   9.111
 5839W        W10039   6.222   3.644   3.148
 5840W        W10040   2.600   8.812   1.311
 5841W        W10041   3.668   9.940   1.339
 5842W        W10042   0.873   4.604  11.805
 5843W        W10043  11.411   3.658  11.464
 5844W        W10044  10.490   5.706  11.922
 5845W        W10045   7.497   4.085   9.807
 5846W        W10046   7.925   7.938   3.175
 5847W        W10047   1.455   9.889   9.281
 5848W        W10048  10.505   0.052   2.824
 5849W        W10049   2.237  10.662   0.879
 5850W        W10050   2.886   3.437  11.360
 5851W        W10051  11.425   1.064  11.296
 5852W        W10052   8.293   3.734   0.847
 5853W        W10053   5.254   9.757   1.189
 5854W        W10054   0.328   7.489   9.293
 5855W        W10055  10.411   4.215   1.787
 5856W        W10056   8.929   0.124   8.778
 5857W        W10057   0.377   8.363   1.481
 5858W        W10058  10.786   1.822   1.249
 5859W        W10059   1.161  10.342   2.309
 5860W        W10060  10.070   3.253  11.432
 5861W        W10061   6.416   7.825  10.898
 5862W        W10062   6.058   4.335   0.849
 5863W        W10063   6.641   1.290   0.433
 5864W        W10064   7.993   4.257  11.112
 5865W        W10065   8.720   5.822  10.552
 5866W        W10066   7.416   8.288  10.066
 5867W        W10067   8.936   8.074   9.897
 5868W        W10068   6.735  11.418   1.349
 5869W        W10069   1.625   6.169   9.522
 5870W        W10070   1.689   0.942  10.146
 5871W        W10071   1.730   2.458   3.539
 5872W        W10072   6.847   1.404   1.490
 5873W        W10073   5.219   2.156  11.855
 5874W        W10074  11.359   0.402  11.728
 5875W        W10075   2.185   8.983   1.994
 5876W        W10076   8.906   8.518   2.194
 5877W        W10077   3.905   7.022   3.257
 5878W        W10078  10.925   5.994   3.502
 5879W        W10079   2.505   7.051  10.496
 5880W        W10080  10.468   5.638   1.408
 5881W        W10081   3.205   5.619  11.528
 5882W        W10082   7.936   7.010   9.573
 5883W        W10083   6.682   0.319   3.046
 5884W        W10084   9.373   3.220   8.493
 5885W        W10085   4.707   7.045   9.017
 5886W        W10086   5.093   7.160  10.986
 5887W        W10087   8.329   4.817   2.175
 5888W        W10088  11.328   4.796   0.293
 5889W        W10089   2.363   8.652   2.870
 5890W        W10090   6.465   8.019   8.672
 5891W        W10091  11.051   2.838   1.868
 5892W        W10092   6.527   8.473   9.902
 5893W        W10093   5.558   3.281   9.807
 5894W        W10094  10.523   5.549  11.033
 5895W        W10095  10.287   0.288   1.338
 5896W        W10096   3.415  10.189   0.644
 5897W        W10097   4.917   1.153  10.522
 5898W        W10098   2.664  10.978  11.254
 5899W        W10099   7.534  10.179  11.923
 5900W        W10100   2.110   6.664   0.360
 5901W        W10101  10.401   1.057   9.694
 5902W        W10102   7.335   8.334   1.424
 5903W        W10103   2.554   8.849  10.345
 5904W        W10104   2.693   5.817   1.622
 5905W        W10105   7.506   9.548   2.788
 5906W        W10106   8.640   3.276   2.658
 5907W        W10107   6.479  11.387   2.834
 5908W        W10108   5.290   4.765   9.419
 5909W        W10109   1.684   9.750  10.097
 5910W        W10110   0.270   7.588   2.746
 5911W        W10111   2.890  10.427   1.384
 5912W        W10112  10.397   3.818   1.216
 5913W        W10113   6.214   8.170   9.087
 5914W        W10114   9.496   0.227   0.593
 5915W        W10115   6.053   7.082   1.699
 5916W        W10116   4.481  10.499  10.590
 5917W        W10117   0.375  11.027   8.966
 5918W        W10118  11.074   1.840   0.796
 5919W        W10119   3.383   9.780   0.945
 5920W        W10120   5.424   1.053  10.439
 5921W        W10121   6.557   9.530   1.641
 5922W        W10122   6.192   1.816   8.412
 5923W        W10123   0.296   8.479   8.795
 5924W        W10124   1.668   3.140  11.947
 5925W        W10125   9.029   8.525   3.239
 5926W        W10126   4.657   8.751   9.785
 5927W        W10127   9.284   2.846   8.906
 5928W        W10128   7.252  11.474   1.330
 5929W        W10129   6.309   8.827   0.023
 5930W        W10130   9.437   6.143   8.735
 5931W        W10131  10.007   4.570   1.786
 5932W        W10132   1.738   1.952   3.553
 5933W        W10133   0.991   2.247   3.644
 5934W        W10134  11.270   9.464  10.521
 5935W        W10135   2.611   1.105   8.797
 5936W        W10136  10.888   4.723   9.959
 5937W        W10137   2.129   6.804  10.756
 5938W        W10138   7.134   7.957  11.955
 5939W        W10139   1.442  10.893  10.744
 5940W        W10140   9.259   7.488  11.920
 5941W        W10141   4.237   8.461   1.835
 5942W        W10142  10.003   5.780   1.227
 5943W        W10143   4.485  10.678   2.295
 5944W        W10144  10.079   2.658  11.963
 5945W        W10145   2.779   8.500   2.000
 5946W        W10146  10.510   4.560  10.289
 5947W        W10147   7.406   9.876  10.992
 5948W        W10148   4.216  11.175   2.261
 5949W        W10149   8.219   8.590   0.842
 5950W        W10150   8.965   6.766   0.496
 5951W        W10151   6.712   1.868   9.811
 5952W        W10152   1.604   0.666   0.423
 5953W        W10153   9.149   6.705   2.671
 5954W        W10154   8.998   7.398   0.817
 5955W        W10155   7.116   5.566   9.962
 5956W        W10156   2.644   9.918   1.356
 5957W        W10157  11.316   0.671   0.161
 5958W        W10158   7.124   2.531   0.254
 5959W        W10159   5.306   5.244   1.481
 5960W        W10160   5.219   0.219  10.183
 5961W        W10161  11.005   8.888   2.300
 5962W        W10162   0.684   9.249   8.863
 5963W        W10163   7.487   1.835   2.470
 5964W        W10164  10.986   5.980   8.964
 5965W        W10165   2.649  11.480   2.785
 5966W        W10166   0.695   4.124  11.534
 5967W        W10167   8.889   5.586  11.027
 5968W        W10168  11.179   7.215  11.485
 5969W        W10169   5.789   6.985  10.068
 5970W        W10170   9.200   2.334   3.488
 5971W        W10171   1.769  11.307   2.321
 5972W        W10172   6.932   2.238  10.086
 5973W        W10173  10.452   7.513   8.880
 5974W        W10174   0.890   0.218   1.653
 5975W        W10175   8.605   8.981  11.475
 5976W        W10176   1.400   9.842   1.993
 5977W        W10177   4.269   4.332   2.818
 5978W        W10178  10.068   5.076   1.954
 5979W        W10179  10.386  11.078  11.613
 5980W        W10180  10.613   3.167   2.883
 5981W        W10181  10.975   7.674  10.798
 5982W        W10182   7.029   7.135  11.050
 5983W        W10183   9.355   9.524  11.688
 5984W        W10184  10.601   8.004   0.905
 5985W        W10185   5.052   5.230  10.955
 5986W        W10186   1.574   1.949   2.633
 5987W        W10187   1.454   4.506   1.087
 5988W        W10188   9.249   7.070  11.526
 5989W        W10189   0.184   9.451   2.611
 5990W        W10190   1.069   6.684   0.320
 5991W        W10191  11.426   1.505  11.559
 5992W        W10192   6.241   8.965   9.358
 5993W        W10193   3.794  10.844   2.278
 5994W        W10194   6.147   5.704  11.747
 5995W        W10195   5.555   1.858   2.666
 5996W        W10196   2.505   8.965   9.468
 5997W        W10197  10.032  10.955   0.436
 5998W        W10198   9.970   8.551   3.480
 5999W        W10199   7.089   6.989   3.462
 6000W        W10200   4.204  10.018  10.281
 6001W        W10201   3.311  10.344  11.313
 6002W        W10202   3.023   6.222   1.611
 6003W        W10203   2.713   0.426   3.019
 6004W        W10204   6.142  10.999  11.935
 6005W        W10205   7.992   6.101   2.007
 6006W        W10206   4.542   4.315  11.372
 6007W        W10207   5.042   0.187   0.754
 6008W        W10208   4.068   9.691  11.064
 6009W        W10209   9.977   8.569   2.963
 6010W        W10210   5.125   3.593   3.211
 6011W        W10211  10.440   1.936  10.058
 6012W        W10212   2.758   5.563   3.612
 6013W        W10213   7.667   9.860  10.516
 6014W        W10214   8.270   5.576   1.206
 6015W        W10215   3.878   0.769  11.755
 6016W        W10216   1.013   6.984   3.581
 6017W        W10217   2.296   7.931   3.266
 6018W        W10218   0.635   7.897   3.504
 6019W        W10219   7.917   1.433   9.759
 6020W        W10220   1.349   2.534   8.795
 6021W        W10221   8.265   8.064  10.550
 6022W        W10222  10.854   0.980   2.232
 6023W        W10223   0.503   1.901   0.999
 6024W        W10224   9.378   9.620   9.417
 6025W        W10225   7.931   5.178   2.272
 6026W        W10226   8.796   4.599   2.272
 6027W        W10227   5.131   3.714   0.204
 6028W        W10228   9.286   7.120   2.363
 6029W        W10229   8.377   0.458   9.422
 6030W        W10230   7.899  11.252   0.765
 6031W        W10231   1.007   7.304  10.930
 6032W        W10232   9.145   5.148   9.901
 6033W        W10233   6.526  10.259   0.317
 6034W        W10234   6.987   3.604   2.683
 6035W        W10235   6.202  11.430   1.903
 6036W        W10236   6.093   9.491   3.531
 6037W        W10237   1.471   8.889   3.632
 6038W        W10238   5.526   9.542   0.781
 6039W        W10239  11.013   3.219   9.117
 6040W        W10240   0.703   6.529   3.509
 6041W        W10241   0.010   5.349  11.230
 6042W        W10242   2.729   4.018   2.502
 6043W        W10243   9.776   3.087   0.022
 6044W        W10244   7.095   4.443  10.837
 6045W        W10245   3.806   6.970   0.624
 6046W        W10246   7.400   6.652   2.237
 6047W        W10247  11.038  10.971   9.520
 6048W        W10248   6.994   8.628  11.544
 6049W        W10249   4.631   7.211   1.040
 6050W        W10250   1.723   0.319   2.155
 6051W        W10251   5.501   4.552   9.835
 6052W        W10252  10.408   3.049  11.085
 6053W        W10253  10.191   7.046   1.405
 6054W        W10254   2.432   8.633   9.864
 6055W        W10255   8.429   0.303  10.992
 6056W        W10256  10.946   5.405   3.473
 6057W        W10257  10.596   1.393   2.417
 6058W        W10258   9.596   8.233   0.893
 6059W        W10259   3.666   9.479  11.320
 6060W        W10260   6.595   0.344  10.562
 6061W        W10261   3.650   5.768   9.918
 6062W        W10262   6.974   1.753  11.759
 6063W        W10263   9.851   8.145  10.328
 6064W        W10264  10.392   4.005   2.570
 6065W        W10265   8.247   2.187   2.771
 6066W        W10266  10.222   2.184  11.408
 6067W        W10267   2.432  10.420   3.236
 6068W        W10268   3.797   9.804  10.079
 6069W        W10269   8.658   0.959   8.614
 6070W        W10270   2.610   4.877   1.787
 6071W        W10271   6.053   3.240   2.872
 6072W        W10272   2.690   3.392   9.435
 6073W        W10273  10.019   7.679  10.621
 6074W        W10274   6.913   5.866  10.912
 6075W        W10275   5.940  10.802   2.221
 6076W        W10276   4.491   7.667   1.264
 6077W        W10277   9.620  11.062   1.416
 6078W        W10278   5.938   5.041   2.231
 6079W        W10279   9.941   2.217   9.386
 6080W        W10280   4.557   4.472   4.060
 6081W        W10281   9.079   8.232   0.964
 6082W        W10282   6.072   8.501  10.764
 6083W        W10283  10.184  10.367   2.151
 6084W        W10284   6.264   8.489   8.663
 6085W        W10285   7.685   3.484   1.178
 6086W        W10286   1.839   1.731   2.213
 6087W        W10287   3.125  11.347   9.599
 6088W        W10288   8.964   0.687  11.762
 6089W        W10289   0.785   9.276   9.844
 6090W        W10290   9.350   4.741   0.813
 6091W        W10291   2.208   5.741   1.454
 6092W        W10292   0.762   4.307   9.082
 6093W        W10293   8.920   3.912   8.997
 6094W        W10294   0.285   9.777   0.426
 6095W        W10295   1.866   7.751   8.654
 6096W        W10296   4.846   8.927   1.028
 6097W        W10297  10.883   5.053   9.554
 6098W        W10298   7.385   9.641   9.278
 6099W        W10299   4.264   9.462   2.504
 6100W        W10300  11.085   4.310   1.029
 6101W        W10301   0.875   4.094   2.155
 6102W        W10302   5.792   6.161  10.229
 6103W        W10303   3.463   9.518   9.841
 6104W        W10304   9.942   1.717   1.538
 6105W        W10305   9.503   5.370   0.155
 6106W        W10306   2.839   5.736   0.714
 6107W        W10307   6.984   4.733  11.655
 6108W        W10308   8.770   8.581   1.714
 6109W        W10309   3.903   9.823   0.883
 6110W        W10310   9.564   3.746  11.355
 6111W        W10311   3.671   0.243  10.525
 6112W        W10312   4.626   6.993  11.043
 6113W        W10313   7.832   0.870  11.243
 6114W        W10314   8.489  11.280  10.040
 6115W        W10315   2.782  10.643   0.182
 6116W        W10316   8.969   2.825  10.607
 6117W        W10317   4.426  10.940   3.405
 6118W        W10318  10.325  10.642  11.319
 6119W        W10319   3.733   8.090   0.304
 6120W        W10320   2.842   8.187  11.485
 6121W        W10321   4.715   3.305  10.536
 6122W        W10322   1.163   8.963   9.735
 6123W        W10323  10.121   1.452  11.345
 6124W        W10324   6.245   1.365   9.476
 6125W        W10325   0.480   7.840  10.413
 6126W        W10326   3.116   8.901   0.438
 6127W        W10327   3.344   0.430   0.507
 6128W        W10328   5.195   8.159   9.410
 6129W        W10329  11.213   2.790   9.350
 6130W        W10330   9.351  10.526   2.325
 6131W        W10331   8.995  10.502   3.402
 6132W        W10332   0.348   8.852  11.370
 6133W        W10333   2.167   2.393   9.536
 6134W        W10334   8.030   0.377   1.489
 6135W        W10335   9.704  11.452   9.425
 6136W        W10336   1.707   4.818  11.535
 6137W        W10337   1.967  10.546   1.778
 6138W        W10338   8.136   8.913   0.342
 6139W        W10339   6.282   6.669   1.873
 6140W        W10340   4.212   4.626  11.760
 6141W        W10341   7.094   8.931   0.597
 6142W        W10342   4.186   2.725   3.628
 6143W        W10343   2.991   3.708   3.676
 6144W        W10344   3.729   8.846   9.216
 6145W        W10345   6.435   0.467   0.208
 6146W        W10346   6.158  11.265   2.374
 6147W        W10347   5.163   6.587   0.676
 6148W        W10348   5.164  11.039   2.719
 6149W        W10349   2.736   0.199  10.437
 6150W        W10350   7.709  10.781   2.159
 6151W        W10351   8.141  11.039   1.428
 6152W        W10352   5.463   8.040  10.755
 6153W        W10353  10.288   1.295   0.701
 6154W        W10354   5.604   8.575   3.800
 6155W        W10355   9.531   2.511   0.590
 6156W        W10356   5.179   4.470   2.863
 6157W        W10357   0.937   3.145   3.586
 6158W        W10358   2.373  11.155   0.979
 6159W        W10359   3.643   6.906  10.661
 6160W        W10360   6.611   5.620  10.095
 6161W        W10361   6.435   2.389  11.448
 6162W        W10362   1.976   8.450  10.893
 6163W        W10363   1.195   9.440   9.501
 6164W        W10364   6.299   7.177   0.436
 6165W        W10365   8.845   1.680   0.183
 6166W        W10366   9.785   2.834   2.345
 6167W        W10367   4.026   4.628   1.396
 6168W        W10368   5.488  10.046   2.967
 6169W        W10369   6.304  10.282   8.998
 6170W        W10370   7.073  10.937   9.084
 6171W        W10371   5.733   2.827   2.884
 6172W        W10372   1.161   1.680  11.744
 6173W        W10373  11.488   9.102  11.953
 6174W        W10374   7.885   5.462  11.897
 6175W        W10375   5.587   7.124  11.124
 6176W        W10376   4.287   2.052   8.798
 6177W        W10377   6.170   6.474   1.433
 6178W        W10378   3.332   9.958   2.757
 6179W        W10379   0.721   1.143   0.196
 6180W        W10380   0.283  10.059   9.035
 6181W        W10381   7.161   9.988   9.591
 6182W        W10382  10.927   6.232   2.505
 6183W        W10383   6.655  10.349   2.214
 6184W        W10384  10.834   3.427   9.614
 6185W        W10385   7.934   1.301  10.262
 6186W        W10386   9.831   4.230   9.807
 6187W        W10387   7.292   0.725   2.305
 6188W        W10388   0.862   8.004   2.515
 6189W        W10389  10.386   9.908   9.978
 6190W        W10390   3.728   6.487   0.360
 6191W        W10391   5.359   5.496   2.746
 6192W        W10392   1.858   4.098   1.356
 6193W        W10393   9.094  10.738   8.949
 6194W        W10394  10.073   1.749   9.067
 6195W        W10395  10.290   0.749   3.322
 6196W        W10396   1.343   6.591  11.349
 6197W        W10397   6.520   1.755   9.293
 6198W        W10398   9.329   0.464   8.746
 6199W        W10399   6.608  10.532   9.670
 6200W        W10400   1.795   8.542  10.417
 6201W        W10401   6.568   4.198   0.252
 6202W        W10402   0.655   4.499   3.389
 6203W        W10403   9.319   4.139  11.989
 6204W        W10404   6.705   9.447   1.164
 6205W        W10405   9.950  10.579   1.741
 6206W        W10406   2.126   7.603   0.253
 6207W        W10407   8.892   1.018   2.877
 6208W        W10408   8.533  10.376   3.158
 6209W        W10409   6.971  11.445  11.874
 6210W        W10410   3.410   9.892   1.785
 6211W        W10411   6.204   8.593   0.852
 6212W        W10412  11.205   7.915  10.360
 6213W        W10413  11.246   0.855   3.058
 6214W        W10414   7.730   0.751  10.024
 6215W        W10415   8.142   5.416   0.746
 6216W        W10416   9.066   5.682   1.126
 6217W        W10417   6.124   7.532   3.595
 6218W        W10418   8.838   1.443   0.890
 6219W        W10419   5.972  11.344  10.375
 6220W        W10420   5.956   8.083   8.625
 6221W        W10421   8.463   7.413   2.322
 6222W        W10422   4.581   0.057  11.997
 6223W        W10423  10.006   3.312   2.274
 6224W        W10424   8.712   8.398   9.579
 6225W        W10425  11.351   3.199   2.142
 6226W        W10426   0.699   1.655   0.026
 6227W        W10427   4.891   2.299   0.621
 6228W        W10428   9.323   8.334   3.619
 6229W        W10429  10.284   2.684  11.449
 6230W        W10430  10.579   8.098   9.152
 6231W        W10431   8.579   8.795   3.261
 6232W        W10432   0.936  10.300  11.853
 6233W        W10433   8.190   5.963  10.485
 6234W        W10434   2.114  10.075   3.599
 6235W        W10435   3.614   7.233   0.082
 6236W        W10436   4.750   9.928  11.446
 6237W        W10437   0.367  10.301  10.496
 6238W        W10438   9.293   0.570  10.953
 6239W        W10439   5.054   1.830   2.757
 6240W        W10440   2.002  10.230   0.741
 6241W        W10441   0.994   6.067  10.794
 6242W        W10442   4.896   7.529   3.068
 6243W        W10443   5.458   0.443   3.261
 6244W        W10444   7.928   0.491  10.883
 6245W        W10445   4.563   3.213   1.690
 6246W        W10446   2.271   6.726   1.798
 6247W        W10447   9.339   1.434   0.022
 6248W        W10448   3.789   0.327   1.902
 6249W        W10449   7.490   3.570  10.008
 6250W        W10450   4.542   7.512  11.812
 6251W        W10451   4.605   3.887  10.030
 6252W        W10452   5.753   5.659   9.533
 6253W        W10453   8.881  10.279  11.522
 6254W        W10454   5.470   1.370  11.506
 6255W        W10455   5.202   0.477   9.756
 6256W        W10456  11.463   6.892   2.659
 6257W        W10457   1.916   8.109  11.311
 6258W        W10458   5.984   5.340   0.748
 6259W        W10459  10.890   7.299  10.486
 6260W        W10460   5.675   8.068   1.545
 6261W        W10461   0.846  11.015   2.798
 6262W        W10462   0.815   6.385  11.992
 6263W        W10463   1.326  11.256   2.653
 6264W        W10464   7.290   6.903   1.427
 6265W        W10465   4.747   9.321  11.214
 6266W        W10466   8.902   9.010   2.042
 6267W        W10467   8.591   4.558   0.419
 6268W        W10468   8.894   4.235   1.683
 6269W        W10469   7.866   3.541   3.657
 6270W        W10470   5.625   8.027   0.996
 6271W        W10471   0.875   9.672  11.024
 6272W        W10472   9.896  11.449   2.162
 6273W        W10473   1.796   0.413   3.152
 6274W        W10474   9.065   6.235  11.148
 6275W        W10475   9.888  10.453  10.596
 6276W        W10476   7.830   5.618   2.582
 6277W        W10477  11.327   6.507   2.308
 6278W        W10478   0.151   2.195  10.309
 6279W        W10479   3.534   4.254  11.496
 6280W        W10480  10.499   0.389  10.478
 6281W        W10481   9.674   0.722   1.673
 6282W        W10482   3.980   3.651   1.203
 6283W        W10483   2.604   6.190   0.761
 6284W        W10484  11.087   4.716  11.835
 6285W        W10485   1.649   4.813   0.505
 6286W        W10486   4.165  10.552  11.013
 6287W        W10487   1.643   1.837   8.517
 6288W        W10488   3.685   8.349   9.420
 6289W        W10489   1.431  10.730   2.493
 6290W        W10490   4.288  10.345   9.590
 6291W        W10491   7.286   3.694   3.162
 6292W        W10492   1.207   4.563   0.628
 6293W        W10493   7.598  10.358  11.443
 6294W        W10494   8.996   9.814   9.121
 6295W        W10495   3.305   2.107   0.868
 6296W        W10496   4.209   2.002   2.200
 6297W        W10497   3.381   1.799  10.796
 6298W        W10498   1.332   8.017   2.314
 6299W        W10499   3.098   4.269   9.126
 6300W        W10500   7.141   3.047   1.924
 6301W        W10501   2.684   9.082   2.870
 6302W        W10502   7.663   3.658   9.498
 6303W        W10503  10.967  11.003   3.141
 6304W        W10504   7.719   0.388  10.406
 6305W        W10505   2.335   4.367   2.622
 6306W        W10506   8.425   2.844   9.522
 6307W        W10507   3.366   4.445   8.493
 6308W        W10508   9.148   6.909   3.902
 6309W        W10509   6.693   2.832  10.057
 6310W        W10510   7.880   1.011   8.897
 6311W        W10511   3.874   6.485  10.448
 6312W        W10512   5.695   1.869   1.105
 6313W        W10513   9.546   1.892   9.298
 6314W        W10514   8.948  11.219   9.102
 6315W        W10515   1.393   0.726   3.003
 6316W        W10516   2.700   8.678  11.534
 6317W        W10517   6.854  10.085   3.130
 6318W        W10518   6.924   1.947   9.000
 6319W        W10519   3.652   9.386  10.329
 6320W        W10520   9.425   0.520   3.420
 6321W        W10521   5.044   4.636   8.176
 6322W        W10522   9.997   2.338   0.364
 6323W        W10523   2.165   4.599   1.869
 6324W        W10524   6.762   8.384   8.473
 6325W        W10525  10.647   6.087  10.277
 6326W        W10526   7.483   1.253  10.031
 6327W        W10527   4.116   1.895   9.620
 6328W        W10528   5.945   9.136   8.989
 6329W        W10529   1.372   3.598   8.994
 6330W        W10530   9.573   6.096  11.044
 6331W        W10531   1.094   4.512   2.544
 6332W        W10532   1.742   3.925   8.906
 6333W        W10533   1.921   2.111   1.371
 6334W        W10534   3.722   3.131  10.812
 6335W        W10535   5.647   1.010   0.844
 6336W        W10536   9.410   0.805  11.388
 6337W        W10537   5.485   7.052   1.387
 6338W        W10538   3.616   9.563  11.881
 6339W        W10539  10.393   7.135   3.259
 6340W        W10540   0.160   2.372   3.281
 6341W        W10541  10.407   4.049   3.096
 6342W        W10542   9.425   3.176   3.268
 6343W        W10543   0.905   4.054   2.659
 6344W        W10544   8.191   3.843   2.926
 6345W        W10545   7.913   7.995   0.120
 6346W        W10546   0.754   4.690   0.907
 6347W        W10547   8.160   2.380   9.334
 6348W        W10548   5.612   4.733   1.999
 6349W        W10549   3.913   8.948   0.977
 6350W        W10550   8.901   6.015   1.852
 6351W        W10551   6.707   0.896   9.812
 6352W        W10552   8.804   3.453  11.990
 6353W        W10553   6.560   2.590   0.918
 6354W        W10554   6.932   6.008   1.809
 6355W        W10555   9.529   8.633   9.435
 6356W        W10556   1.307  10.785   0.365
 6357W        W10557   3.723   8.384  10.786
 6358W        W10558   0.816   1.769   9.932
 6359W        W10559   1.804   9.359   0.345
 6360W        W10560   2.350   5.223  10.004
 6361W        W10561   9.326   1.691   0.874
 6362W        W10562   9.850   0.185   2.774
 6363W        W10563   9.439  11.030   9.247
 6364W        W10564   2.000   2.717   3.186
 6365W        W10565   9.320   1.089   1.713
 6366W        W10566  10.417   5.952   9.023
 6367W        W10567   3.086   1.119   9.700
 6368W        W10568   8.453   7.497   0.401
 6369W        W10569   5.568  10.152   3.479
 6370W        W10570   9.103   1.907   3.188
 6371W        W10571   9.418   3.296   9.838
 6372W        W10572   9.329   5.718  11.285
 6373W        W10573   0.511   7.031   3.502
 6374W        W10574  10.251   3.226   3.367
 6375W        W10575   3.650   3.138   9.891
 6376W        W10576   1.388   8.107   9.260
 6377W        W10577   0.454   9.789   2.878
 6378W        W10578   1.311   0.313   3.319
 6379W        W10579   6.599   7.074   2.700
 6380W        W10580   7.354   3.573  11.881
 6381W        W10581   7.647  11.059   0.320
 6382W        W10582   4.798   8.954   2.012
 6383W        W10583   4.233   4.381   3.653
 6384W        W10584   5.465   8.473   0.241
 6385W        W10585   1.752   2.214   9.809
 6386W        W10586   8.618   5.909   2.287
 6387W        W10587   1.207   9.937  10.246
 6388W        W10588   3.043   7.417   1.175
 6389W        W10589   9.818   2.857   1.388
 6390W        W10590   6.085   0.403   1.202
 6391W        W10591   4.346  11.322   1.330
 6392W        W10592   5.959   6.255   1.865
 6393W        W10593   0.822  10.490  11.396
 6394W        W10594   7.071   2.732   1.117
 6395W        W10595   5.331   4.180   8.292
 6396W        W10596   1.387  10.971   9.015
 6397W        W10597   4.615   9.203   8.899
 6398W        W10598   1.146   9.990   0.231
 6399W        W10599   4.924   3.352   0.914
 6400W        W10600  11.149   1.632   3.496
 6401W        W10601   4.917   2.825   9.473
 6402W        W10602  10.132   7.965   9.333
 6403W        W10603   5.218  10.101  11.351
 6404W        W10604   2.754   3.859  10.503
 6405W        W10605   7.181   3.011   2.440
 6406W        W10606   2.843   6.044   0.299
 6407W        W10607   9.460   5.641   8.902
 6408W        W10608   8.454   4.104   8.758
 6409W        W10609  11.009   2.289   0.488
 6410W        W10610   5.236   2.395   9.446
 6411W        W10611   2.143   9.031  10.043
 6412W        W10612   4.066  10.407   2.431
 6413W        W10613   0.430   6.967   0.222
 6414W        W10614   9.579   5.034   1.216
 6415W        W10615   3.349  10.402   1.638
 6416W        W10616   3.385   6.658   0.705
 6417W        W10617   3.266   1.592   0.646
 6418W        W10618   4.622   8.420  11.243
 6419W        W10619   7.965   2.838   9.247
 6420W        W10620  10.385   1.817   3.199
 6421W        W10621   3.666   1.274   0.811
 6422W        W10622   1.649   9.101   9.869
 6423W        W10623   4.590   5.235  10.184
 6424W        W10624   5.148   0.436  11.267
 6425W        W10625   8.160  10.746   1.897
 6426W        W10626   2.401   9.308  10.736
 6427W        W10627  10.438   3.985  11.422
 6428W        W10628   6.142   2.837   9.388
 6429W        W10629   1.359   7.559   0.670
 6430W        W10630   4.027   2.887   8.597
 6431W        W10631  10.114   3.816   0.469
 6432W        W10632  11.325   1.376  10.292
 6433W        W10633   8.012   6.996   0.204
 6434W        W10634   1.119   9.486  11.447
 6435W        W10635  11.344   9.816   2.433
 6436W        W10636   9.609  11.127  10.728
 6437W        W10637   4.184   8.153  11.428
 6438W        W10638   9.411   6.887   1.168
 6439W        W10639   4.741   5.753   1.803
 6440W        W10640   3.144  10.967  10.351
 6441W        W10641   7.173   2.915   0.635
 6442W        W10642   6.674   0.028   9.634
 6443W        W10643   7.143  10.480   0.944
 6444W        W10644   9.616   1.249   2.169
 6445W        W10645   3.806  11.282   0.440
 6446W        W10646   6.727   7.980   4.099
 6447W        W10647   1.251   9.395   1.756
 6448W        W10648   4.206   6.608   3.134
 6449W        W10649   9.537   8.708  11.320
 6450W        W10650   1.189   5.927   0.836
 6451W        W10651  11.488   0.470   2.181
 6452W        W10652   2.920   7.982   1.838
 6453W        W10653   4.749   4.443   8.577
 6454W        W10654  10.450   3.739  10.342
 6455W        W10655   6.070   4.582   8.888
 6456W        W10656   3.396   0.009   8.657
 6457W        W10657   0.929   5.096  10.798
 6458W        W10658   0.213  10.563  10.093
 6459W        W10659   9.164  10.838  10.722
 6460W        W10660   7.587   6.078   1.033
 6461W        W10661   9.570   9.126   3.378
 6462W        W10662   7.693   2.151  11.279
 6463W        W10663   0.456   9.105  11.806
 6464W        W10664  10.381   5.464  10.121
 6465W        W10665   8.862   3.308   2.166
 6466W        W10666   0.343   8.979   2.727
 6467W        W10667   9.171   3.293  10.721
 6468W        W10668   4.807   8.498   9.361
 6469W        W10669  11.241   4.727   2.857
 6470W        W10670   7.203  11.232   2.351
 6471W        W10671   6.102   4.049   0.398
 6472W        W10672   1.850   3.673   9.811
 6473W        W10673  11.256   8.635   2.686
 6474W        W10674   1.530   8.265  11.634
 6475W        W10675   8.014  11.478   8.884
 6476W        W10676   0.698   5.278   8.781
 6477W        W10677   3.792   9.305  10.844
 6478W        W10678   2.796   7.009   9.260
 6479W        W10679   8.045   5.956  11.925
 6480W        W10680   3.903   2.366  10.293
 6481W        W10681   8.406   1.321  10.016
 6482W        W10682   0.478  11.040   2.179
 6483W        W10683   0.856   2.342  11.162
 6484W        W10684   9.600   6.118   3.366
 6485W        W10685   2.733   5.199   3.038
 6486W        W10686   1.745   8.916   0.829
 6487W        W10687   7.003  10.716  11.256
 6488W        W10688  11.050   7.214   2.625
 6489W        W10689   9.833   5.474  10.398
 6490W        W10690   1.294   3.255   3.222
 6491W        W10691   7.545   2.840   0.270
 6492W        W10692   4.389   0.505  11.092
 6493W        W10693   0.887  10.004   2.695
 6494W        W10694  10.328   0.883   0.995
 6495W        W10695   5.574   6.901   9.520
 6496W        W10696   0.217   6.645   3.691
 6497W        W10697   6.410   8.104   2.435
 6498W        W10698   5.612   3.674   2.817
 6499W        W10699   5.272   3.131  10.201
 6500W        W10700   1.347   5.830   1.313
 6501W        W10701   8.391   7.925   9.499
 6502W        W10702   5.736   0.864   8.647
 6503W        W10703   7.444   0.010  10.698
 6504W        W10704   9.023   2.037  11.875
 6505W        W10705   8.838   9.926   1.561
 6506W        W10706   4.187   8.238  10.929
 6507W        W10707  10.044   8.633  10.211
 6508W        W10708   6.413   0.454   9.726
 6509W        W10709   5.135  11.070   2.203
 6510W        W10710   2.868   6.979   0.366
 6511W        W10711   1.822   1.765   9.524
 6512W        W10712   7.906   0.202   9.333
 6513W        W10713   9.311   1.719  10.891
 6514W        W10714   4.015  11.301   1.757
 6515W        W10715   0.472   0.581   0.960
 6516W        W10716  11.384   9.509   0.270
 6517W        W10717   2.208  10.994  11.887
 6518W        W10718  10.452   0.817  10.168
 6519W        W10719   8.789   9.486   8.771
 6520W        W10720   0.026   8.119   9.528
 6521W        W10721   9.586   1.658   0.433
 6522W        W10722   5.238   4.265   0.392
 6523W        W10723   0.655   5.003   0.047
 6524W        W10724   3.488   7.822  10.358
 6525W        W10725  10.097   6.982  11.740
 6526W        W10726   4.080  11.409  11.998
 6527W        W10727   4.171   0.341   1.028
 6528W        W10728   1.744   8.100  10.132
 6529W        W10729   7.525   8.874   3.437
 6530W        W10730  10.438   9.891   2.428
 6531W        W10731   6.094   7.144   2.207
 6532W        W10732  10.335   4.689   0.947
 6533W        W10733  10.477   5.136   1.196
 6534W        W10734   7.848   9.930   3.132
 6535W        W10735  11.482   7.115   1.741
 6536W        W10736   6.146  10.333   9.874
 6537W        W10737   7.633   0.230   3.237
 6538W        W10738   2.878   6.628   0.766
 6539W        W10739   2.767  10.412  11.209
 6540W        W10740   4.205   3.585   3.304
 6541W        W10741  10.484   8.451   1.681
 6542W        W10742   0.199   0.851   9.214
 6543W        W10743   5.564   8.812  11.443
 6544W        W10744   5.985   8.315   9.919
 6545W        W10745   7.355   2.095   0.415
 6546W        W10746   3.140   1.777   3.013
 6547W        W10747   1.432   5.305   1.804
 6548W        W10748   5.957   8.614   9.059
 6549W        W10749   0.326   1.818   0.530
 6550W        W10750   0.317   4.687   2.068
 6551W        W10751   1.692   9.921   3.343
 6552W        W10752   1.259   6.668   2.150
 6553W        W10753   0.554   4.387   2.445
 6554W        W10754   5.753   0.802   1.307
 6555W        W10755   1.588   6.108   2.944
 6556W        W10756   0.410   8.090   2.715
 6557W        W10757   9.017   7.212   1.329
 6558W        W10758   1.691  10.860   3.314
 6559W        W10759   9.794   5.606   8.501
 6560W        W10760   0.634   7.613   2.267
 6561W        W10761   6.220   7.907   3.237
 6562W        W10762   4.387   5.381   0.259
 6563W        W10763   4.928   5.201   0.013
 6564W        W10764   6.582   0.358   9.227
 6565W        W10765   0.858   6.814  10.846
 6566W        W10766   6.524   9.123   1.928
 6567W        W10767   2.711   2.034   9.982
 6568W        W10768   5.034   8.403   9.845
 6569W        W10769   9.288   3.291   0.027
 6570W        W10770   8.379   7.958   3.588
 6571W        W10771   1.229   6.806   1.120
 6572W        W10772   8.919   2.132  11.386
 6573W        W10773   8.528   3.989   1.253
 6574W        W10774  10.133   5.919  10.333
 6575W        W10775   1.737   1.030   2.653
 6576W        W10776   4.219   4.336  10.925
 6577W        W10777   6.004  11.446   0.908
 6578W        W10778   1.050   6.215  11.551
 6579W        W10779   8.944   6.647  11.500
 6580W        W10780   5.471   6.193   0.815
 6581W        W10781   0.824   0.496  11.328
 6582W        W10782   2.582   0.203   1.457
 6583W        W10783   6.878   2.539   9.035
 6584W        W10784   7.821   9.357   2.016
 6585W        W10785   9.500   7.890   2.723
 6586W        W10786   5.603   5.665   1.490
 6587W        W10787   4.171   8.303   0.464
 6588W        W10788   7.710   6.917   1.000
 6589W        W10789   1.247   1.791   3.625
 6590W        W10790   6.170   6.206  10.571
 6591W        W10791   9.468   1.923   1.353
 6592W        W10792   2.316   3.130   0.875
 6593W        W10793   2.240   9.123   1.522
 6594W        W10794   7.115   3.805   0.290
 6595W        W10795   4.070   4.292   9.069
 6596W        W10796   2.808   0.678  11.862
 6597W        W10797   4.224  10.375   2.928
 6598W        W10798   9.533   4.888  11.005
 6599W        W10799   8.980   9.473  10.927
 6600W        W10800  11.422   2.128   8.590
 6601W        W10801   8.030  11.483  10.859
 6602W        W10802   8.638   1.797  10.392
 6603W        W10803   4.743   8.494   1.776
 6604W        W10804   8.625   0.214   9.798
 6605W        W10805   4.100   5.128   9.021
 6606W        W10806   3.246   7.218   9.425
 6607W        W10807   3.718   7.288  11.580
 6608W        W10808   5.526   7.145   0.824
 6609W        W10809   4.945   1.400   1.263
 6610W        W10810   9.623   7.072   3.730
 6611W        W10811   0.946   0.043   3.571
 6612W        W10812   3.799   9.567   9.420
 6613W        W10813  11.329   0.189   1.192
 6614W        W10814   0.923   8.766  10.820
 6615W        W10815   1.467  10.395   9.484
 6616W        W10816   6.211  10.401   2.506
 6617W        W10817   9.425  11.044   0.027
 6618W        W10818   0.394   2.170   9.281
 6619W        W10819   7.379   3.357   0.395
 6620W        W10820   2.425   4.590   8.808
 6621W        W10821   9.919   7.236   0.973
 6622W        W10822   0.460   3.829   9.043
 6623W        W10823   9.543   3.799   9.825
 6624W        W10824   8.620   1.297   0.441
 6625W        W10825   0.303   9.056   9.834
 6626W        W10826   8.010  10.325  11.796
 6627W        W10827   6.224   7.878  10.008
 6628W        W10828   2.776   0.949   0.793
 6629W        W10829   2.894   4.440   1.841
 6630W        W10830   6.088  10.055  10.715
 6631W        W10831  10.453   1.696   1.658
 6632W        W10832   0.383  11.252   2.764
 6633W        W10833   2.122   6.433   2.189
 6634W        W10834   5.403   4.084   3.116
 6635W        W10835   3.113   0.808   0.259
 6636W        W10836   7.600  10.659   3.550
 6637W        W10837   4.556   7.107   0.129
 6638W        W10838  10.829   6.592   1.692
 6639W        W10839   2.459  10.737   8.706
 6640W        W10840   7.028   6.900   1.929
 6641W        W10841   0.308   1.925   2.373
 6642W        W10842   2.661   7.049   0.994
 6643W        W10843   1.553   6.182   8.710
 6644W        W10844   6.062   9.269  10.125
 6645W        W10845   6.115   0.827   0.923
 6646W        W10846   6.146  10.218   0.673
 6647W        W10847   3.657   7.886  10.906
 6648W        W10848   7.428   4.660  11.917
 6649W        W10849   9.789   0.547  10.932
 6650W        W10850   7.134   7.896   0.569
 6651W        W10851   1.427   3.065   8.861
 6652W        W10852  10.817   9.030   1.843
 6653W        W10853   8.577   8.894  10.948
 6654W        W10854   9.066   8.892  11.766
 6655W        W10855   1.740   6.731   2.318
 6656W        W10856   7.462  10.885  11.447
 6657W        W10857   1.789   3.854   1.811
 6658W        W10858   1.493   5.644   8.857
 6659W        W10859   5.457   8.200   3.472
 6660W        W10860   9.408   9.598   0.525
 6661W        W10861   0.838   1.947   0.593
 6662W        W10862   4.868   3.930  11.322
 6663W        W10863  10.162   4.319   2.210
 6664W        W10864   8.529   0.934  11.683
 6665W        W10865   2.204   4.592  10.492
 6666W        W10866   1.109   9.030  10.258
 6667W        W10867   7.963   2.718   0.916
 6668W        W10868   2.241  -0.000  10.426
 6669W        W10869   7.076   1.428   9.110
 6670W        W10870   1.003   8.496   1.289
 6671W        W10871   7.438   0.706  10.943
 6672W        W10872   6.496   8.600   2.615
 6673W        W10873  10.250   4.137  10.107
 6674W        W10874   1.486   1.481   8.856
 6675W        W10875   2.261  10.698  11.409
 6676W        W10876   0.984   0.026  11.460
 6677W        W10877   1.245   8.129  10.029
 6678W        W10878   2.347   4.363   3.533
 6679W        W10879   1.640   6.573   1.297
 6680W        W10880   1.362   6.669   8.782
 6681W        W10881   9.268   2.435   1.790
 6682W        W10882   8.374   4.103   9.778
 6683W        W10883   5.027   5.279   9.912
 6684W        W10884   0.252   4.068   0.359
 6685W        W10885   4.147   1.882   0.858
 6686W        W10886   7.039   4.268   9.088
 6687W        W10887   2.364   6.651   0.836
 6688W        W10888   7.013   4.084  10.464
 6689W        W10889   8.878   2.645  11.464
 6690W        W10890   8.989   2.686  10.111
 6691W        W10891  10.503   3.552   0.263
 6692W        W10892   4.030   4.023  11.854
 6693W        W10893   9.854   5.562   2.162
 6694W        W10894   7.939   7.157  11.298
 6695W        W10895   8.250   8.203   4.024
 6696W        W10896   8.714   5.523   9.376
 6697W        W10897   7.545   9.180   0.563
 6698W        W10898   8.002   6.513   3.240
 6699W        W10899   5.442   8.132   8.621
 6700W        W10900   0.077   4.221   1.139
 6701W        W10901   1.210   2.198   0.910
 6702W        W10902   9.973   9.206   1.323
 6703W        W10903   1.332   8.997   2.440
 6704W        W10904   3.694   1.876   0.645
 6705W        W10905   5.098   8.601  11.356
 6706W        W10906  10.865  10.402   0.301
 6707W        W10907   6.164   7.121   9.055
 6708W        W10908   0.921   6.125   0.428
 6709W        W10909   6.202   8.479   3.177
 6710W        W10910  11.272   0.798   9.502
 6711W        W10911   0.928   0.817   1.136
 6712W        W10912   7.507   8.080   1.868
 6713W        W10913   7.620  10.025   8.993
 6714W        W10914   5.286   8.792   4.147
 6715W        W10915  11.173   0.491   3.418
 6716W        W10916   6.055   3.554   0.487
 6717W        W10917   5.271  10.433   1.574
 6718W        W10918   8.510  11.303   8.776
 6719W        W10919   6.679   3.231  11.142
 6720W        W10920  10.885   3.766  11.571
 6721W        W10921   9.809  10.127  10.225
 6722W        W10922   0.421   5.680   9.067
 6723W        W10923   8.592   9.287   1.306
 6724W        W10924   7.573   2.579   9.555
 6725W        W10925   0.776   4.130   1.651
 6726W        W10926   8.701   3.650  11.511
 6727W        W10927   3.984   7.742   2.684
 6728W        W10928   5.765  11.362  11.296
 6729W        W10929   7.088   7.374   0.368
 6730W        W10930   7.418   1.819   9.056
 6731W        W10931   8.841   0.206   9.293
 6732W        W10932   7.411   9.240   8.942
 6733W        W10933   4.229  10.847   2.709
 6734W        W10934  11.175   2.413   0.958
 6735W        W10935   3.025   2.280   3.222
 6736W        W10936  10.960   9.275   1.412
 6737W        W10937   1.404   3.782  11.992
 6738W        W10938   1.576   1.240   8.380
 6739W        W10939   2.793   0.218   9.423
 6740W        W10940   8.430   2.725   9.032
 6741W        W10941   7.020  10.770   9.911
 6742W        W10942   2.389   2.732   2.110
 6743W        W10943   9.111   1.947   1.752
 6744W        W10944   1.597   5.714   9.740
 6745W        W10945   2.016   8.082  10.563
 6746W        W10946   1.054   6.113  10.176
 6747W        W10947  11.199   4.096   3.473
 6748W        W10948   7.494   5.682  10.293
 6749W        W10949   7.871   6.100   2.915
 6750W        W10950   7.682   4.702   8.614
 6751W        W10951   9.433   9.056   1.338
 6752W        W10952   4.058   4.570   3.211
 6753W        W10953   3.189   6.695   9.459
 6754W        W10954   7.816   1.856   0.387
 6755W        W10955   9.303   3.721   0.696
 6756W        W10956  10.545   1.668  10.502
 6757W        W10957   4.146   4.785   1.899
 6758W        W10958   8.113  11.052   2.324
 6759W        W10959   4.640   2.121   2.995
 6760W        W10960   1.765  10.672   0.616
 6761W        W10961   2.011   2.770   0.007
 6762W        W10962  10.670   9.525   1.761
 6763W        W10963  10.862   5.482   9.107
 6764W        W10964   9.834   5.602   2.686
 6765W        W10965   2.821   4.674   8.052
 6766W        W10966  10.088   5.254   9.712
 6767W        W10967   4.337   7.314  10.072
 6768W        W10968   4.228   3.820   1.627
 6769W        W10969   7.947   2.694   1.939
 6770W        W10970   6.163   4.558   2.212
 6771W        W10971   2.887   4.888  10.383
 6772W        W10972   0.681   6.144   9.811
 6773W        W10973   5.217   8.184   0.678
 6774W        W10974   5.192   9.622   9.511
 6775W        W10975   3.771   4.154   9.677
 6776W        W10976  11.046   9.789  10.884
 6777W        W10977   7.063   6.828   2.893
 6778W        W10978   3.351   7.439   2.138
 6779W        W10979   3.742   5.738   0.973
 6780W        W10980   8.721   5.943   0.301
 6781W        W10981   0.274  10.310   0.502
 6782W        W10982   0.141   6.184  11.650
 6783W        W10983   1.661   7.586   9.520
 6784W        W10984   5.113   8.437  10.874
 6785W        W10985   7.512   5.725   0.683
 6786W        W10986  10.815   8.129  10.634
 6787W        W10987   5.659   2.906   0.936
 6788W        W10988  10.664   4.346   2.262
 6789W        W10989  11.051   1.375  11.153
 6790W        W10990   3.708   7.418  10.596
 6791W        W10991   1.316   1.962  10.757
 6792W        W10992   6.754  11.193  11.269
 6793W        W10993   4.130   1.225   9.942
 6794W        W10994   5.814   2.538   0.485
 6795W        W10995   0.019   0.343   2.693
 6796W        W10996   4.322  10.505   1.466
 6797W        W10997   6.971   7.587  10.316
 6798W        W10998   5.741   5.750   3.000
 6799W        W10999   6.803   1.652  10.357
 6800W        W11000   8.827  11.010  10.366
 6801W        W11001   8.431   9.052   0.891
 6802W        W11002  10.949   3.152   2.505
 6803W        W11003   1.845   3.149  11.452
 6804W        W11004   6.224  11.489   9.368
 6805W        W11005   0.883   5.453   0.244
 6806W        W11006   9.955   7.948  11.453
 6807W        W11007   9.666   5.609   3.183
 6808W        W11008   5.576   7.660  11.921
 6809W        W11009   5.141   9.661   2.872
 6810W        W11010   5.254   0.640   8.696
 6811W        W11011   4.096   8.973   9.580
 6812W        W11012   5.179   9.931   0.299
 6813W        W11013  10.786   6.146   1.465
 6814W        W11014   9.635   3.931   0.367
 6815W        W11015   9.891   5.786   1.716
 6816W        W11016   9.104   4.691   1.850
 6817W        W11017   5.389   3.284   3.548
 6818W        W11018   4.109   5.473   1.274
 6819W        W11019   1.759   2.714   9.064
 6820W        W11020   7.855   1.296   0.793
 6821W        W11021  11.083   0.240   2.421
 6822W        W11022   0.355  10.473   1.930
 6823W        W11023   2.098   8.929  10.550
 6824W        W11024   9.963   9.151  10.106
 6825W        W11025   0.856   8.209   3.009
 6826W        W11026   2.399   4.790   2.328
 6827W        W11027   6.951   5.336  11.032
 6828W        W11028   5.788   8.142   3.099
 6829W        W11029   1.842   4.325   2.734
 6830W        W11030   9.848   8.985  10.572
 6831W        W11031  10.903   2.326   1.402
 6832W        W11032   8.840   0.666  11.202
 6833W        W11033   2.227   6.214   8.895
 6834W        W11034   0.691   0.939   0.666
 6835W        W11035  10.039   3.252  10.297
 6836W        W11036   8.018   2.694   1.430
 6837W        W11037   0.135   9.319  11.332
 6838W        W11038   5.217   9.094   8.119
 6839W        W11039   6.198   2.812  10.795
 6840W        W11040   8.402   2.229  10.250
 6841W        W11041   8.430  11.479  11.945
 6842W        W11042   6.646  10.285   1.697
 6843W        W11043   6.469   7.619   9.549
 6844W        W11044   8.476   2.879   1.015
 6845W        W11045   7.435   1.415   2.742
 6846W        W11046   9.647   5.790  11.771
 6847W        W11047   3.171   3.828   1.577
 6848W        W11048   4.551   9.845  11.929
 6849W        W11049   2.284   4.399   1.326
 6850W        W11050   8.871   7.145  10.733
 6851W        W11051   5.375   1.437   9.713
 6852W        W11052   4.265   0.711   9.912
 6853W        W11053   6.108   0.863   2.948
 6854W        W11054   1.871   8.527   2.786
 6855W        W11055   7.032   1.329   3.087
 6856W        W11056   8.472   2.132   2.222
 6857W        W11057   7.249   6.707  10.830
 6858W        W11058  11.347  10.337   9.008
 6859W        W11059   4.388   2.331   0.722
 6860W        W11060   8.831   6.024   9.307
 6861W        W11061   1.432   3.658   9.493
 6862W        W11062  11.259   5.712   8.527
 6863W        W11063   7.450  10.005   0.903
 6864W        W11064  11.453   1.751   9.583
 6865W        W11065   1.664   5.627   2.150
 6866W        W11066   1.000   8.988   3.448
 6867W        W11067  11.341   1.255   9.288
 6868W        W11068  10.866   7.588  11.288
 6869W        W11069   0.717   5.713   9.495
 6870W        W11070   4.473   6.107  11.704
 6871W        W11071   9.317   1.176   0.892
 6872W        W11072   1.478   8.401  10.993
 6873W        W11073   1.301   1.205   3.166
 6874W        W11074   9.942  11.041   8.518
 6875W        W11075   0.774   7.487   8.974
 6876W        W11076   9.007   3.902   2.980
 6877W        W11077  10.467   3.549  11.757
 6878W        W11078   7.151   4.647   0.444
 6879W        W11079  10.846   6.643   2.182
 6880W        W11080   1.360  11.149   3.579
 6881W        W11081   8.403   4.910   1.338
 6882W        W11082   8.710   3.802   9.500
 6883W        W11083   1.845   1.791   9.016
 6884W        W11084   8.077  10.963   8.846
 6885W        W11085   7.875   9.568   9.181
 6886W        W11086   5.924   6.084   0.593
 6887W        W11087   9.366  10.153  10.472
 6888W        W11088   0.845   7.415   3.360
 6889W        W11089   2.820   8.859   9.093
 6890W        W11090   9.538   8.185  11.264
 6891W        W11091   1.210   7.599   1.527
 6892W        W11092   1.276   3.355  11.148
 6893W        W11093   6.134   8.696   1.357
 6894W        W11094   1.457  11.353   3.135
 6895W        W11095   8.702   0.489  10.303
 6896W        W11096  10.494   2.136   0.433
 6897W        W11097   9.455   5.908   1.493
 6898W        W11098  10.909   6.681  11.585
 6899W        W11099   1.731   3.186   9.385
 6900W        W11100   5.905  10.835  10.913
 6901W        W11101   2.161  10.313   2.216
 6902W        W11102   2.279   2.723  10.368
 6903W        W11103   8.505   9.799  10.819
 6904W        W11104   6.406   1.512  10.007
 6905W        W11105  11.447   0.876   1.654
 6906W        W11106   0.407   2.255  11.365
 6907W        W11107   8.145   1.281  11.140
 6908W        W11108   9.625   6.023   2.875
 6909W        W11109   7.041   2.794   3.618
 6910W        W11110   9.636   1.880  10.353
 6911W        W11111   1.873   7.086   0.512
 6912W        W11112   5.120   2.771   3.650
 6913W        W11113   4.864   6.145   9.757
 6914W        W11114   8.012   3.877   2.453
 6915W        W11115   4.652   1.150   9.906
 6916W        W11116   8.388   2.802  11.531
 6917W        W11117   2.777   5.785  11.233
 6918W        W11118   8.410   0.045   1.619
 6919W        W11119   3.821  11.416   1.295
 6920W        W11120  11.377  10.598   0.228
 6921W        W11121   5.819   0.697   0.471
 6922W        W11122   1.779   4.318  10.435
 6923W        W11123   5.099   4.782  10.714
 6924W        W11124  10.587   1.734   0.732
 6925W        W11125   3.583  11.198   0.879
 6926W        W11126   0.094   4.667  10.505
 6927W        W11127   6.221   9.635   1.254
 6928W        W11128  11.428   7.751   9.075
 6929W        W11129   4.546   6.492  10.964
 6930W        W11130   5.259  10.322   2.093
 6931W        W11131   1.494   7.571   2.561
 6932W        W11132   5.971   7.742   1.291
 6933W        W11133   7.342   5.871   0.231
 6934W        W11134   0.205   7.252   2.360
 6935W        W11135   6.104   7.046  11.077
 6936W        W11136   9.569   0.957  10.133
 6937W        W11137   9.921   9.668  10.058
 6938W        W11138   0.939   3.877   8.826
 6939W        W11139   0.746  10.763   9.316
 6940W        W11140   8.651   7.912   2.624
 6941W        W11141  11.176   9.652  11.357
 6942W        W11142   3.353   3.794  11.322
 6943W        W11143  10.425   2.638   0.342
 6944W        W11144   5.684   7.057   2.938
 6945W        W11145   7.259   2.286   2.388
 6946W        W11146   2.498   5.030   7.897
 6947W        W11147  10.016   2.351   2.409
 6948W        W11148   9.596   5.144   2.183
 6949W        W11149   5.248  10.998   1.286
 6950W        W11150   4.399   2.537   8.812
 6951W        W11151  11.484   4.413  11.996
 6952W        W11152   9.020   3.351   0.483
 6953W        W11153   7.549  10.816  10.086
 6954W        W11154   8.891   4.277   9.371
 6955W        W11155  10.291   3.206   1.871
 6956W        W11156   7.427   6.514   0.769
 6957W        W11157  11.047   5.788   1.227
 6958W        W11158   3.247   5.215  10.516
 6959W        W11159  10.688   5.505   2.664
 6960W        W11160  11.394   9.364   8.590
 6961W        W11161   5.203   4.199   0.907
 6962W        W11162   9.004   7.026   8.578
 6963W        W11163   7.439   4.796   0.848
 6964W        W11164   3.147   1.863  11.258
 6965W        W11165  11.027   5.186   2.469
 6966W        W11166   3.648   4.675   1.753
 6967W        W11167   0.744   2.367   0.946
 6968W        W11168   2.687   6.618   1.275
 6969W        W11169   2.300   3.521   3.061
 6970W        W11170   5.711   1.061   9.971
 6971W        W11171   9.579   8.132   2.262
 6972W        W11172   8.089   1.662  11.497
 6973W        W11173  10.424   8.407   9.939
 6974W        W11174   0.362   7.464   9.826
 6975W        W11175   7.223   8.471  10.539
 6976W        W11176  11.462   9.271   1.597
 6977W        W11177  10.495  11.428   8.941
 6978W        W11178   5.130   1.662  11.980
 6979W        W11179  10.849   2.490   3.305
 6980W        W11180   7.878  10.747   9.614
 6981W        W11181   7.427   5.312  11.254
 6982W        W11182   1.709   9.973  11.068
 6983W        W11183  10.488   3.613   2.195
 6984W        W11184  11.237   6.062   9.544
 6985W        W11185   4.207   4.075   2.177
 6986W        W11186   8.186   5.154   8.672
 6987W        W11187   3.261   5.811  11.044
 6988W        W11188   6.060  11.043   9.110
 6989W        W11189   7.345   6.253  11.505
 6990W        W11190   3.223   5.615   1.038
 6991W        W11191   0.697   1.823   1.477
 6992W        W11192   7.467   4.578   9.076
 6993W        W11193   1.141   0.781   3.486
 6994W        W11194   6.928   8.370   2.449
 6995W        W11195   5.625   9.136   9.863
 6996W        W11196   3.025   2.874  11.450
 6997W        W11197   8.613   8.316   8.638
 6998W        W11198   6.025   3.299  10.745
 6999W        W11199  11.481   9.844   9.759
 7000W        W11200   8.476   3.682   9.057
 7001W        W11201   2.337   0.778  11.357
 7002W        W11202   0.303  11.328  11.315
 7003W        W11203   5.342   2.645  10.319
 7004W        W11204   7.998   8.417   0.391
 7005W        W11205   8.847   8.078   3.407
 7006W        W11206  11.496   5.122  10.773
 7007W        W11207   0.513   7.044   9.512
 7008W        W11208   0.853   6.198   9.308
 7009W        W11209   9.357   2.219  10.618
 7010W        W11210   8.619  10.542   0.024
 7011W        W11211   4.181   5.682  10.782
 7012W        W11212   4.863   1.166   0.258
 7013W        W11213  10.925   8.405   3.489
 7014W        W11214   1.525   8.990   9.380
 7015W        W11215   6.107   4.446  10.457
 7016W        W11216  10.419  10.015   8.956
 7017W        W11217  10.435   9.966   1.397
 7018W        W11218   0.396   3.158  11.224
 7019W        W11219   7.629   0.898   1.154
 7020W        W11220   3.409   2.135   2.741
 7021W        W11221   0.603   1.822  10.446
 7022W        W11222   4.724   4.217   3.629
 7023W        W11223   3.092  11.440  11.876
 7024W        W11224   1.160   6.176   2.659
 7025W        W11225   4.721   6.706   8.634
 7026W        W11226   2.574   8.407   2.472
 7027W        W11227   2.356   5.514   9.574
 7028W        W11228   1.360   4.154   1.461
 7029W        W11229  11.462   4.817   8.740
 7030W        W11230   2.408   3.585   0.238
 7031W        W11231   7.063   3.790  10.869
 7032W        W11232   2.618   7.506   1.642
 7033W        W11233   4.595   2.264   1.621
 7034W        W11234   3.683   9.036   1.500
 7035W        W11235   3.939   8.540   9.819
 7036W        W11236  11.460   6.511   1.287
 7037W        W11237   6.972   0.272   1.673
 7038W        W11238   7.228   3.656   1.313
 7039W        W11239  11.058   1.770  10.501
 7040W        W11240   9.682   0.460  10.286
 7041W        W11241   5.462   4.824   3.314
 7042W        W11242   5.730   0.374   2.818
 7043W        W11243   4.129   7.782   0.381
 7044W        W11244   7.992   0.304   2.877
 7045W        W11245   9.376   8.692   0.934
 7046W        W11246   6.017   9.532   2.458
 7047W        W11247   9.247   7.195  10.361
 7048W        W11248   4.549  10.417   3.331
 7049W        W11249   3.084   1.252   2.386
 7050W        W11250  10.921   9.797   1.400
 7051W        W11251   8.469   7.464   3.441
 7052W        W11252  10.718   2.205   0.922
 7053W        W11253   8.122   1.428   0.370
 7054W        W11254   8.550  10.806   2.268
 7055W        W11255   0.220   9.435   3.141
 7056W        W11256   8.866   3.272   1.639
 7057W        W11257   5.973   2.470   1.642
 7058W        W11258   4.293   1.937  11.056
 7059W        W11259   6.705   6.608   0.232
 7060W        W11260   1.419   0.710   3.905
 7061W        W11261   2.530   5.306   0.749
 7062W        W11262   3.909   4.036   3.377
 7063W        W11263   3.820   3.569  10.482
 7064W        W11264   5.261  10.475   9.826
 7065W        W11265   0.697   9.994  11.396
 7066W        W11266   9.000  10.665  11.193
 7067W        W11267   7.939   7.501  11.691
 7068W        W11268   8.229   8.350  11.911
 7069W        W11269  10.868   1.956   3.188
 7070W        W11270  11.449   7.069  10.866
 7071W        W11271   4.297   8.917  11.868
 7072W        W11272   4.979  11.260  10.118
 7073W        W11273   5.218   0.444  10.744
 7074W        W11274   3.696   5.478   9.385
 7075W        W11275   6.868   8.140   1.521
 7076W        W11276   2.947   8.064   3.379
 7077W        W11277   1.831   9.875   2.294
 7078W        W11278   2.929   6.013   1.158
 7079W        W11279   1.880   1.348   1.837
 7080W        W11280   6.066   9.056  10.611
 7081W        W11281   6.067   1.776  11.988
 7082W        W11282   7.588   3.805   2.174
 7083W        W11283   7.570   2.641  10.057
 7084W        W11284   2.009   4.169   2.227
 7085W        W11285  11.020   3.302  11.423
 7086W        W11286  10.742  11.436  10.345
 7087W        W11287   2.598   6.527   0.349
 7088W        W11288  10.531   7.694  10.567
 7089W        W11289   2.282   3.619   0.735
 7090W        W11290   5.949   3.739   8.441
 7091W        W11291   5.272   2.138   0.927
 7092W        W11292   6.947   9.475   9.035
 7093W        W11293  10.580   3.714   9.262
 7094W        W11294   3.401   6.122   2.387
 7095W        W11295   7.228   6.384   0.262
 7096W        W11296   2.897   6.414  10.405
 7097W        W11297   2.673   6.556   3.186
 7098W        W11298   6.745   3.649   3.136
 7099W        W11299   5.150   4.164  10.025
 7100W        W11300   9.598   0.909  10.648
 7101W        W11301   9.024  10.342  10.808
 7102W        W11302   0.982   4.141   0.008
 7103W        W11303   8.002   6.081   3.519
 7104W        W11304   9.275   6.974   9.192
 7105W        W11305   9.472   0.535   2.580
 7106W        W11306   4.978   8.840   9.027
 7107W        W11307   3.275   0.908   0.731
 7108W        W11308   6.704   6.160  10.492
 7109W        W11309   5.717   9.425   1.224
 7110W        W11310   3.802  10.284  11.374
 7111W        W11311   2.562   0.442   2.530
 7112W        W11312   9.507  11.314  11.195
 7113W        W11313   9.565   5.087   3.168
 7114W        W11314   7.596   7.327   1.354
 7115W        W11315   6.573   9.006   1.415
 7116W        W11316   1.357   9.907   2.496
 7117W        W11317  11.378   9.060   9.557
 7118W        W11318   6.578   1.589   0.016
 7119W        W11319   0.349   9.963   2.398
 7120W        W11320   3.335   8.080  11.617
 7121W        W11321   2.758   5.539   9.190
 7122W        W11322  10.125   3.289   0.509
 7123W        W11323   3.530   4.830   3.126
 7124W        W11324   7.877   2.211   0.764
 7125W        W11325   2.229   0.001   8.854
 7126W        W11326   1.148   4.520   9.454
 7127W        W11327   1.859   1.298   9.793
 7128W        W11328   8.199   6.198   9.999
 7129W        W11329   4.121   8.687   1.386
 7130W        W11330   1.514   4.711   9.810
 7131W        W11331   6.114   4.116   9.632
 7132W        W11332   7.209   5.151   0.576
 7133W        W11333   9.884   7.315   3.339
 7134W        W11334   3.054   8.085   0.801
 7135W        W11335   8.483   8.491  11.267
 7136W        W11336   3.662   6.256   0.828
 7137W        W11337   8.371   6.984   2.812
 7138W        W11338  10.819   8.423   2.374
 7139W        W11339   0.477   7.898   1.661
 7140W        W11340  10.265   1.306  11.819
 7141W        W11341   5.282   2.822  11.098
 7142W        W11342  11.433   3.139   1.645
 7143W        W11343   7.604   7.397   9.143
 7144W        W11344   7.598  10.900   9.090
 7145W        W11345   4.650   1.871   1.946
 7146W        W11346   2.373  10.739  10.027
 7147W        W11347   2.884   6.238  11.440
 7148W        W11348  11.331   3.760  10.847
 7149W        W11349   8.512   2.559   3.033
 7150W        W11350   8.623   8.742   1.253
 7151W        W11351   5.634   8.588   2.824
 7152W        W11352   1.775   0.349  11.968
 7153W        W11353   2.352   7.425   2.300
 7154W        W11354   2.230   8.876  11.532
 7155W        W11355   5.676   7.048  10.595
 7156W        W11356   0.978   1.346  10.947
 7157W        W11357   0.290   8.956   3.298
 7158W        W11358   1.294   9.943   9.754
 7159W        W11359   2.194   9.892   0.316
 7160W        W11360  10.546   7.957   9.673
 7161W        W11361   2.646   2.645  10.763
 7162W        W11362   6.129   6.178   8.697
 7163W        W11363   0.048   2.348   2.307
 7164W        W11364  11.362   4.665   1.322
 7165W        W11365   9.897  11.302   8.980
 7166W        W11366   6.201   9.828   0.321
 7167W        W11367   6.071   6.988   9.561
 7168W        W11368   4.657   4.926   2.300
 7169W        W11369   7.969  11.170   9.312
 7170W        W11370   8.976   1.550  11.693
 7171W        W11371   5.250  10.555   2.881
 7172W        W11372   3.861   5.081   0.529
 7173W        W11373   3.036   0.047   3.237
 7174W        W11374   6.944   8.873   1.762
 7175W        W11375  10.435   2.902  10.249
 7176W        W11376   4.456   7.981  10.550
 7177W        W11377  10.988  10.722   8.689
 7178W        W11378   9.490   3.784   2.168
 7179W        W11379   0.068   3.252   3.153
 7180W        W11380   0.451   6.186   1.300
 7181W        W11381   4.317  10.944   9.826
 7182W        W11382   2.848   1.180  11.920
 7183W        W11383   7.349   9.916   3.220
 7184W        W11384   5.252   7.846   9.013
 7185W        W11385   6.714   8.576  10.551
 7186W        W11386   9.043  10.906   3.057
 7187W        W11387   2.213   9.491   3.381
 7188W        W11388  10.051   4.853   1.365
 7189W        W11389  10.468   8.043   2.460
 7190W        W11390   6.073   4.664  11.353
 7191W        W11391   6.552  10.008   9.829
 7192W        W11392   4.693   6.713   0.907
 7193W        W11393   3.089   1.827   3.507
 7194W        W11394   1.649   1.780  11.091
 7195W        W11395   3.722  10.309   2.991
 7196W        W11396   1.304   7.412  11.757
 7197W        W11397   3.906   6.053   2.329
 7198W        W11398   8.483   2.776   0.025
 7199W        W11399   9.037   9.415  10.402
 7200W        W11400   8.505   8.560   0.291
 7201W        W11401   0.271   8.544   9.312
 7202W        W11402   0.824   3.232   0.494
 7203W        W11403   9.089   2.643   9.603
 7204W        W11404   9.367   0.220   2.984
 7205W        W11405   6.503   9.455   9.893
 7206W        W11406   9.317   1.031   3.463
 7207W        W11407   7.014   8.450   0.425
 7208W        W11408   5.601   9.493   2.742
 7209W        W11409  11.360   8.133   3.593
 7210W        W11410   1.459   5.682  10.707
 7211W        W11411   6.980  11.491   2.731
 7212W        W11412   0.433  10.770   2.624
 7213W        W11413   8.718   2.300   3.401
 7214W        W11414  11.399   7.967  10.846
 7215W        W11415   9.143  11.175   1.185
 7216W        W11416   5.221   3.313   8.276
 7217W        W11417  10.394   4.514   9.800
 7218W        W11418   4.657   6.689   3.405
 7219W        W11419   8.510   7.278   0.878
 7220W        W11420   5.669   4.829   1.473
 7221W        W11421   2.818   2.110   1.400
 7222W        W11422   9.552   9.362   9.854
 7223W        W11423   3.281   0.450  11.924
 7224W        W11424   9.391   3.232   0.811
 7225W        W11425   7.788   3.127  10.081
 7226W        W11426   6.977   7.972   1.060
 7227W        W11427   9.454   0.722   0.729
 7228W        W11428   5.872  10.587   8.963
 7229W        W11429  10.736   4.155   1.398
 7230W        W11430   9.917   6.220   0.956
 7231W        W11431   5.329   4.916   1.095
 7232W        W11432   1.349   1.222  11.546
 7233W        W11433   9.817  10.358   2.509
 7234W        W11434   3.675   6.527  11.468
 7235W        W11435  10.153   4.284   1.349
 7236W        W11436   3.139   0.013   2.710
 7237W        W11437   0.678   9.429   9.355
 7238W        W11438   2.120  11.451  10.942
 7239W        W11439  10.419   1.363  10.098
 7240W        W11440   5.213   8.388  10.335
 7241W        W11441   6.178  10.843  10.081
 7242W        W11442   7.625  10.436   9.306
 7243W        W11443   0.466   9.081   1.714
 7244W        W11444  10.403   1.852   2.678
 7245W        W11445   8.568   2.037   8.474
 7246W        W11446   4.743   0.524  11.970
 7247W        W11447  10.289   9.482   2.119
 7248W        W11448   4.823   0.927   1.133
 7249W        W11449   8.465   3.224   0.291
 7250W        W11450   8.326   7.985   2.236
 7251W        W11451   0.680   8.611   3.277
 7252W        W11452   3.819   8.587   4.014
 7253W        W11453   5.920   4.990   3.110
 7254W        W11454   2.329   2.129   2.862
 7255W        W11455   5.265  10.822   0.151
 7256W        W11456  10.420   6.943   9.920
 7257W        W11457   3.231   6.520  11.730
 7258W        W11458   3.602   7.003   1.938
 7259W        W11459   6.462   5.245   0.928
 7260W        W11460   4.657   7.604   9.800
 7261W        W11461   2.023   2.737   0.874
 7262W        W11462   1.727   9.134   1.688
 7263W        W11463   5.145   4.320  10.986
 7264W        W11464   6.352   7.074   3.539
 7265W        W11465   0.487   7.174  10.804
 7266W        W11466   5.666   2.069   0.609
 7267W        W11467   5.481   8.939   9.037
 7268W        W11468   8.630   0.803   0.329
 7269W        W11469   0.840   6.763   0.817
 7270W        W11470   1.299   7.013   0.648
 7271W        W11471   9.679   8.148   9.461
 7272W        W11472   0.112   3.087   1.170
 7273W        W11473   2.766   1.644   2.236
 7274W        W11474   8.502   5.619   8.472
 7275W        W11475   8.578   8.453  10.673
 7276W        W11476   0.620   7.199   0.975
 7277W        W11477   2.120   9.738   9.803
 7278W        W11478   7.771   6.355  11.002
 7279W        W11479   5.149   0.035   1.257
 7280W        W11480   2.376   6.061   2.402
 7281W        W11481  10.007   9.470   2.993
 7282W        W11482   5.582   7.056   1.931
 7283W        W11483   3.632   6.918   9.324
 7284W        W11484   7.126   0.276   3.282
 7285W        W11485   4.746   2.247   9.038
 7286W        W11486   2.315   3.850   1.278
 7287W        W11487  10.964   3.780   1.028
 7288W        W11488   0.420   5.040   0.513
 7289W        W11489   4.102  10.652  11.510
 7290W        W11490   0.829   1.006  11.310
 7291W        W11491   6.396   2.521   8.176
 7292W        W11492   3.676   7.503   1.755
 7293W        W11493   0.926   5.210  11.325
 7294W        W11494   3.130  10.960   0.439
 7295W        W11495   4.339   4.971   0.578
 7296W        W11496   1.527  10.965   9.903
 7297W        W11497   3.919   2.815  11.597
 7298W        W11498   5.333   4.010  10.497
 7299W        W11499   6.670   4.722   2.160
 7300W        W11500   6.588   7.666   2.752
 7301W        W11501   9.015   6.673   9.921
 7302W        W11502   8.124  11.248  11.356
 7303W        W11503   7.581   3.236   3.325
 7304W        W11504   9.367   1.807   8.802
 7305W        W11505   3.058   0.936  10.606
 7306W        W11506   1.746   5.245   1.395
 7307W        W11507   8.773   5.352  11.612
 7308W        W11508   6.209   1.933   9.797
 7309W        W11509   2.908   7.870   9.031
 7310W        W11510   9.537   2.223   2.692
 7311W        W11511   8.544   6.387   8.159
 7312W        W11512   7.904   4.838   9.055
 7313W        W11513   4.730   8.481   2.306
 7314W        W11514   9.502   3.713   3.420
 7315W        W11515   0.373  10.082  10.003
 7316W        W11516   4.789   1.169   3.733
 7317W        W11517   6.423   2.886   2.771
 7318W        W11518   1.998   3.402   2.664
 7319W        W11519   1.450   7.965   1.797
 7320W        W11520   3.117   6.522   0.270
 7321W        W11521   4.255   0.560   1.963
 7322W        W11522   7.016   2.393   0.742
 7323W        W11523   1.692   8.426   0.573
 7324W        W11524   0.025   2.049   0.896
 7325W        W11525   5.573   2.715   3.885
 7326W        W11526   6.538   3.376  11.618
 7327W        W11527   5.591   4.622   8.245
 7328W        W11528   7.449   8.861   0.946
 7329W        W11529   0.428   9.624  11.936
 7330W        W11530   5.737   1.399   9.327
 7331W        W11531   5.560   2.359   9.851
 7332W        W11532   0.807   5.530  11.714
 7333W        W11533   3.609  10.877   0.213
 7334W        W11534   5.286   9.827  10.402
 7335W        W11535   8.860   9.360  11.912
 7336W        W11536  10.831   3.678   8.814
 7337W        W11537   4.261   7.702   2.273
 7338W        W11538   9.579   6.432   2.580
 7339W        W11539   4.471   8.457  11.725
 7340W        W11540   4.121   5.539   0.689
 7341W        W11541  11.352   8.977   0.996
 7342W        W11542   3.007   9.718   8.420
 7343W        W11543   4.206   1.859   3.202
 7344W        W11544  11.477   1.863   3.162
 7345W        W11545   0.489   3.625   0.468
 7346W        W11546   8.947   3.742   1.448
 7347W        W11547   0.883  10.512  10.544
 7348W        W11548   7.675   1.922  10.638
 7349W        W11549   3.121  11.011   0.958
 7350W        W11550   0.659   4.048   3.649
 7351W        W11551   1.710  11.334   9.579
 7352W        W11552   1.084   1.269   0.871
 7353W        W11553   4.467   4.665   8.937
 7354W        W11554   3.665   3.183   0.394
 7355W        W11555   8.160   7.525   9.724
 7356W        W11556   2.231  10.259  11.036
 7357W        W11557   1.918   3.784   0.264
 7358W        W11558  10.866   3.592  10.655
 7359W        W11559   3.516  10.760   3.261
 7360W        W11560   9.422   1.839   2.253
 7361W        W11561   3.295   0.627  10.027
 7362W        W11562  11.499  11.344   1.508
 7363W        W11563   2.283   2.746   0.438
 7364W        W11564  11.352   8.876  10.055
 7365W        W11565   4.748   5.955   4.059
 7366W        W11566   6.386  10.903  11.083
 7367W        W11567   6.640   5.708  11.512
 7368W        W11568   7.870   2.205   9.747
 7369W        W11569  11.098   3.691   9.257
 7370W        W11570  10.839   4.953   0.349
 7371W        W11571   2.350   9.316  11.762
 7372W        W11572   1.694   5.273   8.486
 7373W        W11573   0.937   9.513   2.902
 7374W        W11574   1.868   7.898   1.517
 7375W        W11575   1.820   5.695   1.131
 7376W        W11576   1.872   7.541   0.742
 7377W        W11577   3.833   3.562   2.650
 7378W        W11578   6.126   9.481   1.947
 7379W        W11579   7.653   4.556   3.749
 7380W        W11580   1.259   6.667   1.627
 7381W        W11581   9.852  10.491   0.299
 7382W        W11582   1.823   4.592   1.434
 7383W        W11583   1.629   5.665  11.188
 7384W        W11584   9.363  10.328   9.973
 7385W        W11585   2.736   5.541   1.191
 7386W        W11586   5.664   7.537   2.679
 7387W        W11587   0.973   4.199  10.561
 7388W        W11588   9.518   4.412   1.801
 7389W        W11589   2.649  10.266   9.571
 7390W        W11590   5.332   4.247   1.967
 7391W        W11591   0.452   1.732   1.936
 7392W        W11592   3.708   1.736   2.555
 7393W        W11593   0.864   0.751   1.674
 7394W        W11594   2.306   7.067   8.547
 7395W        W11595   8.360   5.261  11.945
 7396W        W11596  10.397   2.102   9.576
 7397W        W11597   1.184   5.765   2.982
 7398W        W11598   6.047   2.594   2.108
 7399W        W11599   3.560   5.175   8.979
 7400W        W11600   8.021   5.692   3.855
 7401W        W11601   2.392   6.079   3.341
 7402W        W11602  11.028   8.272   0.803
 7403W        W11603   4.412   0.349   3.249
 7404W        W11604   9.233   0.469   1.598
 7405W        W11605   5.607   4.043  10.960
 7406W        W11606   9.574   7.388   2.698
 7407W        W11607   0.038  10.256   9.476
 7408W        W11608   5.955  10.267   0.187
 7409W        W11609   2.818   9.957   2.604
 7410W        W11610   1.828   7.242   2.326
 7411W        W11611   1.430   8.643  10.059
 7412W        W11612   9.004   5.115   9.426
 7413W        W11613   4.065  10.772   9.406
 7414W        W11614   6.387   7.995   1.539
 7415W        W11615  10.377   4.693   0.385
 7416W        W11616   7.317   5.727   2.407
 7417W        W11617   3.272   8.212  10.609
 7418W        W11618   2.721   0.929   3.132
 7419W        W11619  10.510   9.394   3.149
 7420W        W11620   6.649   3.752  10.331
 7421W        W11621   3.238   6.960   8.978
 7422W        W11622   8.432   0.214   8.404
 7423W        W11623   3.752   2.774   0.669
 7424W        W11624   2.512  11.411   3.281
 7425W        W11625  11.142   7.934   9.843
 7426W        W11626   5.020   3.115   2.348
 7427W        W11627   6.751   9.798  10.445
 7428W        W11628   3.531   4.456   9.351
 7429W        W11629  11.096   8.791   1.434
 7430W        W11630   3.097  10.907   1.505
 7431W        W11631   6.983  11.152   9.525
 7432W        W11632   6.384   9.384   0.466
 7433W        W11633   8.361   9.963   1.749
 7434W        W11634   4.961   3.704  11.744
 7435W        W11635   7.666   1.773  10.111
 7436W        W11636   3.661  10.910   1.743
 7437W        W11637   0.313   4.307   8.826
 7438W        W11638   4.714   5.707   0.030
 7439W        W11639  10.761   0.813   9.408
 7440W        W11640   1.188  11.345   9.826
 7441W        W11641   2.366   8.978   2.466
 7442W        W11642  10.550   4.221   0.933
 7443W        W11643   0.164   2.199  11.825
 7444W        W11644   2.942   2.667   0.002
 7445W        W11645  10.724   5.244   8.550
 7446W        W11646   7.597   8.093  11.762
 7447W        W11647   0.563   5.098   1.855
 7448W        W11648   2.232   3.843  11.843
 7449W        W11649  10.316   0.988  11.417
 7450W        W11650  11.377  10.085  11.128
 7451W        W11651  10.522  11.345   3.314
 7452W        W11652   7.072   1.856   3.450
 7453W        W11653   2.992   2.114   2.246
 7454W        W11654   8.159   9.923   2.723
 7455W        W11655   3.197   9.601  10.265
 7456W        W11656  10.672   0.359   3.266
 7457W        W11657   3.286   4.119   0.839
 7458W        W11658   4.103   6.976   1.935
 7459W        W11659  11.026  10.717   9.973
 7460W        W11660   5.127   7.219  11.515
 7461W        W11661   8.054  10.872   3.327
 7462W        W11662   2.206   5.088   8.634
 7463W        W11663  10.871   0.358   8.516
 7464W        W11664   5.551   7.248   3.804
 7465W        W11665  10.398   5.469   8.870
 7466W        W11666   2.922   2.793   3.343
 7467W        W11667  10.741   9.276  11.613
 7468W        W11668  10.294   5.648   3.007
 7469W        W11669   8.116  10.264   9.595
 7470W        W11670   1.772  10.095   9.735
 7471W        W11671   5.532   4.558   3.784
 7472W        W11672   4.675   9.300  11.779
 7473W        W11673   7.609   4.771   2.175
 7474W        W11674   7.132   8.426   9.244
 7475W        W11675   1.104   4.720   3.546
 7476W        W11676   1.599   8.212   3.511
 7477W        W11677   4.027   7.600  11.885
 7478W        W11678   9.167   3.664  11.687
 7479W        W11679   5.626   0.337   9.497
 7480W        W11680   8.609   8.014  11.519
 7481W        W11681  11.323  10.022   1.158
 7482W        W11682  11.397   8.278   9.061
 7483W        W11683   3.383  10.378   1.117
 7484W        W11684   1.846   8.396   1.042
 7485W        W11685   1.235   9.056  11.142
 7486W        W11686   2.652   9.761   0.465
 7487W        W11687   5.037   5.310   2.360
 7488W        W11688   7.740   2.373   0.279
 7489W        W11689  10.318   9.128   1.739
 7490W        W11690   8.950  10.435   2.845
 7491W        W11691   1.087   4.403   8.690
 7492W        W11692   2.861   8.869   2.393
 7493W        W11693   1.710   1.417  11.892
 7494W        W11694   3.498   2.557   9.014
 7495W        W11695   7.150   8.797   2.234
 7496W        W11696   6.800   7.636   1.404
 7497W        W11697   2.684   0.329   3.534
 7498W        W11698   1.232   9.547   1.247
 7499W        W11699   7.819   8.578  10.004
 7500W        W11700   6.150   7.335   2.694
 7501W        W11701   2.632   0.717   0.353
 7502W        W11702   3.114   1.673   9.111
 7503W        W11703   8.038   4.721  11.293
 7504W        W11704   4.662   8.504   1.270
 7505W        W11705   5.079   6.092   1.976
 7506W        W11706   4.704   4.836   0.949
 7507W        W11707   1.225   0.757   9.427
 7508W        W11708   7.525   2.640   9.061
 7509W        W11709   6.567   9.024  10.729
 7510W        W11710   1.803   6.617   9.590
 7511W        W11711  10.469   0.197   0.458
 7512W        W11712   8.203   8.495  10.313
 7513W        W11713   4.499   5.256  11.739
 7514W        W11714   0.931   3.105   0.971
 7515W        W11715   9.993   6.796   0.709
 7516W        W11716   2.395   8.016   0.064
 7517W        W11717   0.738   5.717   2.009
 7518W        W11718   8.679   2.045   2.952
 7519W        W11719   5.037   4.387  11.492
 7520W        W11720   9.304   8.387   0.510
 7521W        W11721   8.881   2.294  10.444
 7522W        W11722   3.925   2.384   8.613
 7523W        W11723  10.952   5.244  10.047
 7524W        W11724   6.780   5.122  10.126
 7525W        W11725   9.049   2.536   0.457
 7526W        W11726   8.862   4.439   8.860
 7527W        W11727   3.226   8.421   1.752
 7528W        W11728   3.570   4.874   1.260
 7529W        W11729  10.549   3.743   0.729
 7530W        W11730   6.571   3.336  10.025
 7531W        W11731   0.961   4.792   9.046
 7532W        W11732   5.447   8.388  11.700
 7533W        W11733   1.915   3.667   9.312
 7534W        W11734   3.895   2.150  10.792
 7535W        W11735  10.424   1.167  10.564
 7536W        W11736   3.441   5.218   4.131
 7537W        W11737   6.155   2.754   3.177
 7538W        W11738   4.066   9.148  11.372
 7539W        W11739   6.022   4.781  10.841
 7540W        W11740   8.233   8.434   1.379
 7541W        W11741   9.326   1.815  11.440
 7542W        W11742   1.649   6.464   3.309
 7543W        W11743   8.137   7.347   9.254
 7544W        W11744   8.261   1.713   2.983
 7545W        W11745   8.576  10.840   2.816
 7546W        W11746   2.255   4.050   3.126
 7547W        W11747  11.445   9.607  11.778
 7548W        W11748   0.441   2.640   2.871
 7549W        W11749   6.188   5.058   1.334
 7550W        W11750   6.589   9.020   2.908
 7551W        W11751   7.687  11.452  11.525
 7552W        W11752   6.316   0.891   0.456
 7553W        W11753   0.862   8.940  11.521
 7554W        W11754   2.137   9.820  11.300
 7555W        W11755   5.016   7.412   0.050
 7556W        W11756  10.743  10.839   1.276
 7557W        W11757   3.981   7.955   9.169
 7558W        W11758   5.071   4.083   8.726
 7559W        W11759   9.085   3.329   8.936
 7560W        W11760   4.353   9.567   0.334
 7561W        W11761   2.370   6.698   8.996
 7562W        W11762   6.126   6.019   2.273
 7563W        W11763   6.221   4.498   3.048
 7564W        W11764   0.862   5.663   1.168
 7565W        W11765   0.373   9.559   9.961
 7566W        W11766   8.576   5.204   8.158
 7567W        W11767   3.348   2.463   2.340
 7568W        W11768  10.401   0.456   8.787
 7569W        W11769   8.566   3.678  11.024
 7570W        W11770  11.356   8.249  11.295
 7571W        W11771  10.181   0.266   3.184
 7572W        W11772   6.209   6.593  11.325
 7573W        W11773  10.806   3.291   1.873
 7574W        W11774   5.137   7.406  10.093
 7575W        W11775   0.486  10.835  10.431
 7576W        W11776   5.172   8.652   2.615
 7577W        W11777   9.982  11.398  10.966
 7578W        W11778   7.108   9.325   1.490
 7579W        W11779   9.180   8.249   9.445
 7580W        W11780   5.220   1.929   0.419
 7581W        W11781   4.223   4.554   2.364
 7582W        W11782   8.965   8.919  10.230
 7583W        W11783   0.674   2.404   3.271
 7584W        W11784   7.576   6.371   4.058
 7585W        W11785   9.015   6.472   7.877
 7586W        W11786   7.976   6.848  10.864
 7587W        W11787   2.818  11.340   1.202
 7588W        W11788   9.624   4.570   9.325
 7589W        W11789   6.905   7.603  10.829
 7590W        W11790   5.631   9.816  10.833
 7591W        W11791   0.391   6.559   9.679
 7592W        W11792   2.130   0.398   1.345
 7593W        W11793   3.016   2.330  10.641
 7594W        W11794  10.812  10.760  11.404
 7595W        W11795   1.207   7.838   2.876
 7596W        W11796   0.367   7.119   3.016
 7597W        W11797   5.041   8.839  10.540
 7598W        W11798   7.450   1.645   0.734
 7599W        W11799   5.603   0.249  11.013
 7600W        W11800   7.886   7.797   9.357
 7601W        W11801   6.437   9.691  10.865
 7602W        W11802   5.253   2.887   2.726
 7603W        W11803   5.192   6.159  10.461
 7604W        W11804   5.217   2.102   8.462
 7605W        W11805   1.449   0.228  11.252
 7606W        W11806   2.714   1.629   0.120
 7607W        W11807   0.837   6.885   3.102
 7608W        W11808   8.234   3.642   8.614
 7609W        W11809   0.900   9.074   2.021
 7610W        W11810   6.104  11.335  10.899
 7611W        W11811   5.625   9.463  10.280
 7612W        W11812   3.561   0.150  10.040
 7613W        W11813  11.198  10.486   2.822
 7614W        W11814   6.608   8.935   0.429
 7615W        W11815   0.332   4.201   9.367
 7616W        W11816   1.506   7.420  11.138
 7617W        W11817   8.505   2.821  11.005
 7618W        W11818   2.837   9.799   8.955
 7619W        W11819   4.820   2.471  10.446
 7620W        W11820   3.524   1.301  10.728
 7621W        W11821   4.799   7.648   0.816
 7622W        W11822   1.579   5.155   9.500
 7623W        W11823   3.476   5.434   8.504
 7624W        W11824  10.321   5.575   1.929
 7625W        W11825   2.752   5.717  11.750
 7626W        W11826   9.208   5.187   1.897
 7627W        W11827   2.700   3.648   8.976
 7628W        W11828   5.956  10.312   8.502
 7629W        W11829   6.677  10.131   9.364
 7630W        W11830   2.224   2.439   9.030
 7631W        W11831   6.355   8.207   8.210
 7632W        W11832   6.977   0.010  10.478
 7633W        W11833   8.649  10.801   9.939
 7634W        W11834   6.020   4.546   9.924
 7635W        W11835   5.650   2.712  11.495
 7636W        W11836   4.100  10.636   8.661
 7637W        W11837   5.777   3.214   3.875
 7638W        W11838   5.061   0.701  10.335
 7639W        W11839   2.670   4.552  10.700
 7640W        W11840  11.088  11.485  11.773
 7641W        W11841   7.455   1.257  11.843
 7642W        W11842   5.558   5.934  11.094
 7643W        W11843   1.810   6.402   0.026
 7644W        W11844   5.454  11.272  10.303
 7645W        W11845   2.965   8.397   8.359
 7646W        W11846   4.230   5.532  11.312
 7647W        W11847   4.761   7.469   2.273
 7648W        W11848   6.057   2.122  10.594
 7649W        W11849   9.284   8.161  10.266
 7650W        W11850   2.827   1.240   1.924
 7651W        W11851   8.886   1.155  12.000
 7652W        W11852   4.739   9.319  10.694
 7653W        W11853   0.916  11.281   1.937
 7654W        W11854   1.125   2.661   1.136
 7655W        W11855   8.211   6.074   1.229
 7656W        W11856   9.942   0.355   9.628
 7657W        W11857   0.292   6.962   9.992
 7658W        W11858   2.630   8.539   8.724
 7659W        W11859   2.686   5.064   8.393
 7660W        W11860   2.742   4.242   8.301
 7661W        W11861  11.392   4.804  10.071
 7662W        W11862   4.275   2.707  10.197
 7663W        W11863   5.051   4.429   9.090
 7664W        W11864   5.628   9.836   9.346
 7665W        W11865   5.829   3.609   1.435
 7666W        W11866   9.497  10.416   9.036
 7667W        W11867   6.192   5.698   2.689
 7668W        W11868  10.436   5.214   9.311
 7669W        W11869   9.301   7.447   8.519
 7670W        W11870  11.267   8.305   3.094
 7671W        W11871   0.008   6.035   1.088
 7672W        W11872  11.289   4.741   9.567
 7673W        W11873  11.317   1.861  10.066
 7674W        W11874   3.000   6.921  10.350
 7675W        W11875   6.840   7.132  11.530
 7676W        W11876   6.435   6.630   9.548
 7677W        W11877   5.157   2.362  11.319
 7678W        W11878   7.742   5.068  10.761
 7679W        W11879   6.737   3.667   1.272
 7680W        W11880   2.652   1.447   0.784
 7681W        W11881   2.832   2.597   2.323
 7682W        W11882   7.153  10.483   2.919
 7683W        W11883   9.776   9.424   9.087
 7684W        W11884  10.603   4.771  11.933
 7685W        W11885   7.603  10.370   3.124
 7686W        W11886   0.886   1.446   9.513
 7687W        W11887   3.648   3.947  10.138
 7688W        W11888  10.517   5.152   1.710
 7689W        W11889   0.664   9.564   2.467
 7690W        W11890   1.817   5.154   9.943
 7691W        W11891   3.835   3.280  11.348
 7692W        W11892   9.948  10.087   9.738
 7693W        W11893  10.312  11.428   1.852
 7694W        W11894   7.117   2.607  10.831
 7695W        W11895   4.769   9.516   9.243
 7696W        W11896   5.152   9.584  11.386
 7697W        W11897  10.010   2.119   2.921
 7698W        W11898   7.983   5.721  11.485
 7699W        W11899   9.944   4.923   0.054
 7700W        W11900   1.203  10.841  10.279
 7701W        W11901   7.625   0.525   0.747
 7702W        W11902   6.796   7.143   1.210
 7703W        W11903  10.284   0.777   9.245
 7704W        W11904   0.049   6.962  11.857
 7705W        W11905   6.504   4.542   0.641
 7706W        W11906   8.161  11.490   9.713
 7707W        W11907   0.697   3.010   2.389
 7708W        W11908   5.141   8.001   1.151
 7709W        W11909  10.355   0.911   2.389
 7710W        W11910   0.217   9.817  11.390
 7711W        W11911   8.462   9.495  11.637
 7712W        W11912   2.301   0.664   3.297
 7713W        W11913   2.314  10.499  11.953
 7714W        W11914   0.080   1.537   0.867
 7715W        W11915   2.313   8.372   1.237
 7716W        W11916   3.785   3.103   2.851
 7717W        W11917   4.412   9.425   3.699
 7718W        W11918   2.296  11.238   2.279
 7719W        W11919   3.657   7.577   0.431
 7720W        W11920   2.646   4.971   0.355
 7721W        W11921   1.349   9.990  11.752
 7722W        W11922   7.912   1.481  10.747
 7723W        W11923  10.490   1.180   1.542
 7724W        W11924   0.724   3.137   9.312
 7725W        W11925   7.101   1.634  10.811
 7726W        W11926   6.214   7.648   2.297
 7727W        W11927   6.581   6.531   1.121
 7728W        W11928   1.763   2.040   0.495
 7729W        W11929   9.401   1.315  11.512
 7730W        W11930   3.689   3.712   1.651
 7731W        W11931   7.446   4.307   1.970
 7732W        W11932   1.896   1.538   0.470
 7733W        W11933   1.129   9.466   2.275
 7734W        W11934   9.952   6.649   8.719
 7735W        W11935   5.960  10.707   3.283
 7736W        W11936   0.254   9.518   9.000
 7737W        W11937   7.862   5.497  11.022
 7738W        W11938   8.177   9.047   2.194
 7739W        W11939   0.984   3.211   2.782
 7740W        W11940   3.013   4.213  11.503
 7741W        W11941  10.187   4.485  11.933
 7742W        W11942   7.573  10.324  10.291
 7743W        W11943   1.670   8.987   2.828
 7744W        W11944  10.831   6.569   0.680
 7745W        W11945   6.707   0.074   0.427
 7746W        W11946  11.289   6.116   1.546
 7747W        W11947   9.598   3.682  11.918
 7748W        W11948   1.989  11.461   0.865
 7749W        W11949   3.742   7.827   2.190
 7750W        W11950   1.738   5.785   0.646
 7751W        W11951   8.857   8.123   1.472
 7752W        W11952   4.937   6.512   9.081
 7753W        W11953   0.030   2.727   1.976
 7754W        W11954  10.442  11.081  11.098
 7755W        W11955   6.695   2.217   9.393
 7756W        W11956   4.392   1.529   2.268
 7757W        W11957   3.571   4.208   8.916
 7758W        W11958   4.788   0.220  10.965
 7759W        W11959   2.858   7.076   3.266
 7760W        W11960   5.724  10.630   9.946
 7761W        W11961  10.950   4.772   8.582
 7762W        W11962   9.244   9.092   0.625
 7763W        W11963  10.575   2.768  10.707
 7764W        W11964   6.181   1.737   1.007
 7765W        W11965   6.486  10.683   0.814
 7766W        W11966   3.175   4.212   2.268
 7767W        W11967   5.254   6.791   8.753
 7768W        W11968   0.413   5.586   0.045
 7769W        W11969  11.467   6.180   9.069
 7770W        W11970  10.887   5.902  10.986
 7771W        W11971   4.240  10.094  10.796
 7772W        W11972   8.986   9.043   1.052
 7773W        W11973   5.054  11.110   9.337
 7774W        W11974   8.528   5.307   2.393
 7775W        W11975   3.168   3.311   9.981
 7776W        W11976   8.194   0.966   0.105
 7777W        W11977   1.377  10.379  10.483
 7778W        W11978   1.916   4.288   0.432
 7779W        W11979   6.545   3.696   0.381
 7780W        W11980   6.440  10.814   2.310
 7781W        W11981   0.691   9.775   8.935
 7782W        W11982   6.190   4.294  11.891
 7783W        W11983   9.565  11.076   9.801
 7784W        W11984   2.409   5.063  10.508
 7785W        W11985   8.214   5.105  10.986
 7786W        W11986   9.404   3.752   1.192
 7787W        W11987   7.042   7.010   2.423
 7788W        W11988   1.761   7.717   2.159
 7789W        W11989  11.345   9.387   9.985
 7790W        W11990   2.486   3.108  10.616
 7791W        W11991   8.879   9.802  11.658
 7792W        W11992   5.217   1.939   1.821
 7793W        W11993   4.820  11.309   1.566
 7794W        W11994   2.920   3.658   0.242
 7795W        W11995   5.361   2.727   9.028
 7796W        W11996   7.980   0.215  11.870
 7797W        W11997   6.404   9.102   3.731
 7798W        W11998   8.381   3.395   1.779
 7799W        W11999   5.992   0.192   0.220
 7800W        W12000   6.506  10.842  11.584
 7801W        W12001  10.457   2.230   3.533
 7802W        W12002   0.788   6.684   1.817
 7803W        W12003   8.427   1.408  11.964
 7804W        W12004   1.796   1.749  10.034
 7805W        W12005   3.263   8.684  10.336
 7806W        W12006   6.596   6.144   0.798
 7807W        W12007   9.475   8.103   3.191
 7808W        W12008   1.418   3.523   2.074
 7809W        W12009   6.272   8.846  11.092
 7810W        W12010   8.863   6.210   3.230
 7811W        W12011   8.772   9.569   3.175
 7812W        W12012   5.701   5.143   9.139
 7813W        W12013   9.341   3.391   1.785
 7814W        W12014   7.640   5.413   9.799
 7815W        W12015   3.128   2.099   9.688
 7816W        W12016   0.943   1.964   3.214
 7817W        W12017   8.938   0.540   3.177
 7818W        W12018  10.395   6.443   1.988
 7819W        W12019   7.921   4.256  10.045
 7820W        W12020   6.666   2.532  11.985
 7821W        W12021   4.485   5.789   1.075
 7822W        W12022  10.844   7.016   0.921
 7823W        W12023   4.446   3.243   0.778
 7824W        W12024  10.660   9.569   9.545
 7825W        W12025  11.387   5.470   3.214
 7826W        W12026   6.658   2.734   9.498
 7827W        W12027   5.505  10.166  11.808
 7828W        W12028   2.791   4.845   0.837
 7829W        W12029   2.484   9.537   1.705
 7830W        W12030   5.127   6.498   1.163
 7831W        W12031   1.811   3.359   0.841
 7832W        W12032  10.472   9.100   9.418
 7833W        W12033   4.290   8.665   3.805
 7834W        W12034   0.841   0.275   1.148
 7835W        W12035   5.965   8.191   3.591
 7836W        W12036   7.640   6.550  10.539
 7837W        W12037   4.450   4.215  10.449
 7838W        W12038   8.963  10.826   9.456
 7839W        W12039   7.860   6.944   9.066
 7840W        W12040   8.527   6.921   1.393
 7841W        W12041   2.688  10.791   1.116
 7842W        W12042  10.034  11.291   3.088
 7843W        W12043   3.094   7.044   1.943
 7844W        W12044   3.776   5.964  11.028
 7845W        W12045   4.818   6.143  11.297
 7846W        W12046   9.548   8.615  10.352
 7847W        W12047   3.373  10.024   9.179
 7848W        W12048   2.244   7.873   9.465
 7849W        W12049   3.352   3.462   0.073
 7850W        W12050   1.468   7.841  11.982
 7851W        W12051   4.504   2.754   9.765
 7852W        W12052   8.588   9.139   0.439
 7853W        W12053   9.104  11.350  10.810
 7854W        W12054   7.191   2.366   3.388
 7855W        W12055   2.573   2.635  11.281
 7856W        W12056   0.359   4.818   1.261
 7857W        W12057   4.680   0.157   2.843
 7858W        W12058   5.764   4.376   1.695
 7859W        W12059   6.635   6.075   2.258
 7860W        W12060   5.877   2.716   8.973
 7861W        W12061   8.284   5.136   3.221
 7862W        W12062   6.935   5.114   2.382
 7863W        W12063   9.125   8.411  11.509
 7864W        W12064   2.245   5.268   9.107
 7865W        W12065   1.279   4.114   9.744
 7866W        W12066   0.851   0.290   2.151
 7867W        W12067   7.460  11.468  10.181
 7868W        W12068   0.742   2.176   1.953
 7869W        W12069   7.168   0.771  11.846
 7870W        W12070   8.347   4.544  10.289
 7871W        W12071  11.095   4.086   2.302
 7872W        W12072   9.903   3.790   1.345
 7873W        W12073   3.127   9.347   0.741
 7874W        W12074   3.812   1.640   9.932
 7875W        W12075  10.852   4.643  10.848
 7876W        W12076   8.257   6.357  10.813
 7877W        W12077  10.102   3.839   9.531
 7878W        W12078  10.680   4.161  10.565
 7879W        W12079   5.127   7.496  10.598
 7880W        W12080  11.411  10.960   2.786
 7881W        W12081   0.428   5.293   1.399
 7882W        W12082  10.157   3.767   3.446
 7883W        W12083   6.344   3.970   8.170
 7884W        W12084   3.244   5.415   3.698
 7885W        W12085   8.482   0.791   3.185
 7886W        W12086   1.803   6.494   9.074
 7887W        W12087   2.312   1.850   0.448
 7888W        W12088  10.864   3.902  11.083
 7889W        W12089   5.214   1.844  11.437
 7890W        W12090   5.470   8.162   9.893
 7891W        W12091   5.878   2.011   1.898
 7892W        W12092   2.313   7.541  11.792
 7893W        W12093   3.071   0.318   1.403
 7894W        W12094   7.644   3.118  10.968
 7895W        W12095   2.444  10.697  10.888
 7896W        W12096   4.208   3.210  10.422
 7897W        W12097   8.589   4.264   2.865
 7898W        W12098   1.368   0.388   0.844
 7899W        W12099   0.291   0.397   0.009
 7900W        W12100   7.064   0.238   2.225
 7901W        W12101   9.108   6.614   8.860
 7902W        W12102   4.196   7.499   1.828
 7903W        W12103   8.602   1.810   3.378
 7904W        W12104   1.518   0.330   9.576
 7905W        W12105   1.451   2.884   8.345
 7906W        W12106   7.341   6.455  10.092
 7907W        W12107  10.563   7.112   2.761
 7908W        W12108  11.393   9.788   3.381
 7909W        W12109   6.450   9.761   0.810
 7910W        W12110   1.851   7.746   3.477
 7911W        W12111   2.840   1.890   0.540
 7912W        W12112   7.035   4.840   9.104
 7913W        W12113   3.297   6.213  10.700
 7914W        W12114   9.610   3.113   2.762
 7915W        W12115   6.459   6.075  10.975
 7916W        W12116  10.348  10.384   0.229
 7917W        W12117   3.127   6.046  11.848
 7918W        W12118   5.374   1.910  10.024
 7919W        W12119   7.704   5.949  10.703
 7920W        W12120   7.501   5.380   0.243
 7921W        W12121   9.425  10.243   2.807
 7922W        W12122   0.986   9.855   1.660
 7923W        W12123   4.605   1.769   1.422
 7924W        W12124   6.148   2.258   0.759
 7925W        W12125   1.808   2.271   8.753
 7926W        W12126   2.182   7.078  11.568
 7927W        W12127   9.463   9.131   9.385
 7928W        W12128   4.663   1.884  10.297
 7929W        W12129   1.369   6.998   3.227
 7930W        W12130   9.989   3.278  10.844
 7931W        W12131   8.943   5.065   3.765
 7932W        W12132   6.477   9.959  11.897
 7933W        W12133   5.201   8.343   1.570
 7934W        W12134   6.592   2.326   0.466
 7935W        W12135  11.284  10.537  10.404
 7936W        W12136   4.789   0.967   1.635
 7937W        W12137   7.714   8.981  11.448
 7938W        W12138   5.524   7.550  11.438
 7939W        W12139   7.622   3.123   2.021
 7940W        W12140   7.948   6.878  11.717
 7941W        W12141   4.663   9.429   2.182
 7942W        W12142   2.259   6.151   0.262
 7943W        W12143   3.951   0.430   8.804
 7944W        W12144   5.945   0.959   9.488
 7945W        W12145   7.517   4.102   9.260
 7946W        W12146   9.491   1.903   3.552
 7947W        W12147   4.639  11.069   1.993
 7948W        W12148   5.712   1.181   0.349
 7949W        W12149   5.416  10.798  10.736
 7950W        W12150   6.986   4.192   9.951
 7951W        W12151   7.664   7.071  10.485
 7952W        W12152   3.681   6.458  10.932
 7953W        W12153  10.026   8.330   8.395
 7954W        W12154  10.995   0.421  10.332
 7955W        W12155  10.849   4.218   2.754
 7956W        W12156   1.326   6.585   2.924
 7957W        W12157   2.304   4.710   9.273
 7958W        W12158   2.370   1.611   2.936
 7959W        W12159   2.992   7.527   2.571
 7960W        W12160   5.489  11.458   0.876
 7961W        W12161   9.563   5.404   1.620
 7962W        W12162   0.988   7.060   8.731
 7963W        W12163   7.089   3.035   0.118
 7964W        W12164   1.792   5.416   0.300
 7965W        W12165   6.827   3.276   3.758
 7966W        W12166   6.680   5.340  10.577
 7967W        W12167   3.590   1.440   1.293
 7968W        W12168   4.150   7.996   0.884
 7969W        W12169   4.337   4.846   2.800
 7970W        W12170   2.190   0.369   1.932
 7971W        W12171   8.332  10.389   0.442
 7972W        W12172   5.214   9.365  11.859
 7973W        W12173   7.630   2.581  11.807
 7974W        W12174   2.805   2.840   2.816
 7975W        W12175   4.822   2.889  10.141
 7976W        W12176   0.777   7.590   1.265
 7977W        W12177   8.582  10.853   3.320
 7978W        W12178   0.797   4.124   9.560
 7979W        W12179   6.121   0.410   1.714
 7980W        W12180  10.534  10.716   0.563
 7981W        W12181   4.983  10.630   2.414
 7982W        W12182   5.615   9.636   9.806
 7983W        W12183   8.051   7.386   1.663
 7984W        W12184   3.025   9.049   9.553
 7985W        W12185  10.295   3.575   2.950
 7986W        W12186   5.127   1.658   0.851
 7987W        W12187   5.117   1.130   8.818
 7988W        W12188  10.001  10.815   3.244
 7989W        W12189   8.518   0.401  11.485
 7990W        W12190   8.579   7.448   2.819
 7991W        W12191   4.443   0.562   2.446
 7992W        W12192   7.478   3.054   9.687
 7993W        W12193   7.242  10.866   1.972
 7994W        W12194   0.008   5.541  11.724
 7995W        W12195   5.072  10.310   3.313
 7996W        W12196   8.702   9.390   2.317
 7997W        W12197   9.565   1.114   0.360
 7998W        W12198   6.574   9.503  11.645
 7999W        W12199   1.806   5.896   0.132
 8000W        W12200   5.636   3.673   3.313
 8001W        W12201   8.655   1.252   2.476
 8002W        W12202   9.024   4.531  11.867
 8003W        W12203  11.025   9.032   8.766
 8004W        W12204   2.473   7.050  11.060
 8005W        W12205   0.907   9.927   2.184
 8006W        W12206   9.692  10.968   3.639
 8007W        W12207   8.819   7.087  11.249
 8008W        W12208   6.561   2.212   8.778
 8009W        W12209   3.243   6.498  11.206
 8010W        W12210   0.702   3.665   9.800
 8011W        W12211   8.094   6.210   4.004
 8012W        W12212  10.474   8.573   9.439
 8013W        W12213  10.785   9.039  10.736
 8014W        W12214   6.554   4.776   1.651
 8015W        W12215   7.959   4.129   3.676
 8016W        W12216   7.539   2.871  11.401
 8017W        W12217   3.344   2.777   0.336
 8018W        W12218   2.708   6.534   9.536
 8019W        W12219   7.177   6.603   3.794
 8020W        W12220   1.473   2.797   3.033
 8021W        W12221   1.385   5.996   3.416
 8022W        W12222   0.676   5.221   0.936
 8023W        W12223   8.349   5.574  10.815
 8024W        W12224   8.690  10.506   1.767
 8025W        W12225   2.655   8.031   8.598
 8026W        W12226   6.922   9.866  11.664
 8027W        W12227   9.143   1.807  10.406
 8028W        W12228   2.714   6.029   8.996
 8029W        W12229   2.259   6.617  11.851
 8030W        W12230   5.273   6.031  11.504
 8031W        W12231   5.815   2.711   8.353
 8032W        W12232   0.318   7.451   1.417
 8033W        W12233  10.811   7.667  10.143
 8034W        W12234   3.421   5.234   0.331
 8035W        W12235   9.294   9.316   1.808
 8036W        W12236   7.003   9.804   1.657
 8037W        W12237   5.934   8.673  10.297
 8038W        W12238   5.851   0.017   9.008
 8039W        W12239  10.893   7.966   3.230
 8040W        W12240   3.239  10.240   2.149
 8041W        W12241   6.494  11.413  10.274
 8042W        W12242   5.429   9.565   3.702
 8043W        W12243   4.488   1.641   9.885
 8044W        W12244   2.431   2.184  11.465
 8045W        W12245   6.136   8.824   1.837
 8046W        W12246   0.285  10.103   3.260
 8047W        W12247   3.413  10.503   9.927
 8048W        W12248   9.072  10.216   8.781
 8049W        W12249   6.988  10.977  11.690
 8050W        W12250   8.693   5.741   3.115
 8051W        W12251  10.318   2.427  10.404
 8052W        W12252   5.026   6.512  10.094
 8053W        W12253   6.907   8.986   3.677
 8054W        W12254   9.905   4.069   1.793
 8055W        W12255   9.338   6.060   9.253
 8056W        W12256   0.349   1.328  10.366
 8057W        W12257  11.326   4.233   2.981
 8058W        W12258   7.227  11.075  10.403
 8059W        W12259  10.344   1.777   2.175
 8060W        W12260   8.651   5.204  10.622
 8061W        W12261   7.569   4.825  11.456
 8062W        W12262   3.121   4.766   0.419
 8063W        W12263   3.449   8.001   9.114
 8064W        W12264   7.808   3.867   3.267
 8065W        W12265   2.474   7.477  11.318
 8066W        W12266   4.198   3.853  11.023
 8067W        W12267   0.432   0.850   8.756
 8068W        W12268   7.934   0.708   9.317
 8069W        W12269   9.800   2.824  11.577
 8070W        W12270  11.390   8.627   0.141
 8071W        W12271   3.415   9.906  11.544
 8072W        W12272   1.763   4.588   0.009
 8073W        W12273   0.932   0.003   2.969
 8074W        W12274   5.221   5.589   1.866
 8075W        W12275   6.732   0.503   3.562
 8076W        W12276   2.405   7.071   0.547
 8077W        W12277   9.552  11.182   0.503
 8078W        W12278   2.761   6.920   8.740
 8079W        W12279  10.499   5.199   3.258
 8080W        W12280   1.450   3.727   0.492
 8081W        W12281  10.390   5.136   0.661
 8082W        W12282  11.390   8.428   1.667
 8083W        W12283   4.159   4.147  10.028
 8084W        W12284   4.784   0.646   2.805
 8085W        W12285   9.605   2.298   3.198
 8086W        W12286   7.581   7.569   1.836
 8087W        W12287   6.595   2.079   0.928
 8088W        W12288  10.138   8.999   0.496
 8089W        W12289   6.546   0.414   1.433
 8090W        W12290   3.307   6.646   1.675
 8091W        W12291   3.567   8.066   0.804
 8092W        W12292   3.230   3.206   2.776
 8093W        W12293   0.758   2.226   2.795
 8094W        W12294   5.958   3.827  11.867
 8095W        W12295   0.430   3.058   9.748
 8096W        W12296  10.425  10.015   9.480
 8097W        W12297   9.055   5.003  10.367
 8098W        W12298   5.565   9.437   2.223
 8099W        W12299   3.110   5.144   8.681
 8100W        W12300   3.613   9.934  11.064
 8101W        W12301   4.280   2.656   1.446
 8102W        W12302   8.478  10.375   2.618
 8103W        W12303   2.187   2.274   0.738
 8104W        W12304   4.752   0.319   8.357
 8105W        W12305   9.806   7.019   2.340
 8106W        W12306   0.436   4.815  10.122
 8107W        W12307   3.779   5.955  10.493
 8108W        W12308  11.060   2.884  11.712
 8109W        W12309   2.809   0.808  10.025
 8110W        W12310   0.517   9.506  10.711
 8111W        W12311   6.941  11.395   0.862
 8112W        W12312   6.861   6.058   0.340
 8113W        W12313   0.824  11.192  10.170
 8114W        W12314   7.340   8.930  11.768
 8115W        W12315  10.492   8.725   3.415
 8116W        W12316   3.823   2.118   9.059
 8117W        W12317   4.162   1.960  10.127
 8118W        W12318   6.319   6.312   9.163
 8119W        W12319   5.169   1.152   0.848
 8120W        W12320   0.669   5.225   9.287
 8121W        W12321   8.063   5.688   1.674
 8122W        W12322   9.072   8.532  10.540
 8123W        W12323  10.946   9.140  10.267
 8124W        W12324   6.332  10.037  10.284
 8125W        W12325   8.180   6.565   8.939
 8126W        W12326   2.095   7.094   2.739
 8127W        W12327   7.092  10.559   1.499
 8128W        W12328   6.088   9.788   9.908
 8129W        W12329  10.969   4.897   1.607
 8130W        W12330   0.393   2.615  10.485
 8131W        W12331   9.999   0.774   9.937
 8132W        W12332   1.848  11.004  11.503
 8133W        W12333   0.219   4.525   9.752
 8134W        W12334   2.467   6.155   1.278
 8135W        W12335   7.501   9.709   1.335
 8136W        W12336  11.109   7.849   0.032
 8137W        W12337   4.375   8.962   8.523
 8138W        W12338   8.141   3.195  10.446
 8139W        W12339   1.225   9.963  11.270
 8140W        W12340   3.967  10.846   0.879
 8141W        W12341   6.274  10.971  10.563
 8142W        W12342   5.091   9.650  10.879
 8143W        W12343   5.154   2.635   2.289
 8144W        W12344   3.667   4.347  11.977
 8145W        W12345   2.692  11.197  10.409
 8146W        W12346   7.527   4.055  11.829
 8147W        W12347   9.046   9.519   0.876
 8148W        W12348   7.976   8.476  11.425
 8149W        W12349   2.243  10.959  10.501
 8150W        W12350   2.821   3.658   9.860
 8151W        W12351   7.447  10.783  10.739
 8152W        W12352   1.256   1.000  10.440
 8153W        W12353   6.026   3.822   0.915
 8154W        W12354   5.711   4.283   8.639
 8155W        W12355   2.930   3.021   0.935
 8156W        W12356  10.456   7.864  11.047
 8157W        W12357   1.453  10.298   0.497
 8158W        W12358   6.089   8.962   0.505
 8159W        W12359   2.694   0.778   2.154
 8160W        W12360   1.040   1.392   2.330
 8161W        W12361   5.540   1.477  10.199
 8162W        W12362   2.548  11.454   9.993
 8163W        W12363   7.268  10.479   8.947
 8164W        W12364  10.397   8.921   9.905
 8165W        W12365   1.639   9.057  10.373
 8166W        W12366   9.575   6.134   0.534
 8167W        W12367   3.613   7.007   2.834
 8168W        W12368   7.887   5.349   9.065
 8169W        W12369   8.501   1.258   9.010
 8170W        W12370  11.275   6.585  10.950
 8171W        W12371   3.671   2.828   2.185
 8172W        W12372  11.379   2.579  11.987
 8173W        W12373   3.560  10.176  10.340
 8174W        W12374  10.805   7.615   2.884
 8175W        W12375  10.247   9.671  11.246
 8176W        W12376   3.731   7.424   9.306
 8177W        W12377  11.422  10.986  10.144
 8178W        W12378   3.199   6.961  11.985
 8179W        W12379   5.543   4.471  11.693
 8180W        W12380   4.761  10.942   3.016
 8181W        W12381   4.595   6.281   0.652
 8182W        W12382   5.906   7.253   1.209
 8183W        W12383   5.643   6.630   3.627
 8184W        W12384   2.080   0.070   9.862
 8185W        W12385   3.890   5.105   1.581
 8186W        W12386   6.647   8.294   3.398
 8187W        W12387   8.904   7.803   9.459
 8188W        W12388   3.393   1.385   2.784
 8189W        W12389  10.634   5.470   9.689
 8190W        W12390   1.268   6.447   0.727
 8191W        W12391   8.120   6.596   0.489
 8192W        W12392   6.741  10.235   3.623
 8193W        W12393   3.496   8.426   3.627
 8194W        W12394   6.211   7.005  10.568
 8195W        W12395   0.184  10.864  11.155
 8196W        W12396   7.508   0.317   9.029
 8197W        W12397  11.193   2.914   0.942
 8198W        W12398   8.077   0.276   1.990
 8199W        W12399   0.340   8.481   9.822
 8200W        W12400   1.482   1.244   0.497
 8201W        W12401   7.699   8.421   0.803
 8202W        W12402   8.252   2.250   1.751
 8203W        W12403  11.117   1.333   0.944
 8204W        W12404   6.896  10.916   1.044
 8205W        W12405  11.471   0.520   3.830
 8206W        W12406   1.880   9.393  10.909
 8207W        W12407   9.943   6.515   2.229
 8208W        W12408   8.005   2.725   9.773
 8209W        W12409   2.197   9.924  10.286
 8210W        W12410   6.644   1.366  10.786
 8211W        W12411   8.662   6.594   2.635
 8212W        W12412   2.211   5.135   3.134
 8213W        W12413   8.105   8.645  10.808
 8214W        W12414   7.495   8.599   1.853
 8215W        W12415   5.167   6.236  10.956
 8216W        W12416   6.113  10.887   2.721
 8217W        W12417   5.343   6.053   1.273
 8218W        W12418  10.006   5.440  11.904
 8219W        W12419   7.112  10.574  10.384
 8220W        W12420   3.131  10.988   2.916
 8221W        W12421   4.510   3.620   9.155
 8222W        W12422   2.134  10.175   8.936
 8223W        W12423   7.228   3.325   0.922
 8224W        W12424   7.398   9.095   1.881
 8225W        W12425   2.147  11.004   9.590
 8226W        W12426   7.570   0.574   2.737
 8227W        W12427   8.957   4.546  10.159
 8228W        W12428   3.365   9.599  10.772
 8229W        W12429   7.168   5.571   1.938
 8230W        W12430   0.421   4.133   2.889
 8231W        W12431  10.328   7.624   2.725
 8232W        W12432   0.673  11.049  11.110
 8233W        W12433   2.307   2.287  10.921
 8234W        W12434   7.108   1.482   0.386
 8235W        W12435   2.207  10.777   0.371
 8236W        W12436   3.217   9.739   2.280
 8237W        W12437  11.059   7.902   1.146
 8238W        W12438   6.549   7.858  10.395
 8239W        W12439   0.082   3.802   3.642
 8240W        W12440  10.908   3.148  10.940
 8241W        W12441  10.951   0.164   8.993
 8242W        W12442   5.466   3.675  11.794
 8243W        W12443   6.219   4.168   3.469
 8244W        W12444   2.375   4.060   0.369
 8245W        W12445   2.121   2.708  11.491
 8246W        W12446  10.328   4.074   9.001
 8247W        W12447   1.378   2.711   0.132
 8248W        W12448   8.246   0.985   0.625
 8249W        W12449   7.945   4.103   9.527
 8250W        W12450   5.832   7.628   4.022
 8251W        W12451   8.069   4.728   9.895
 8252W        W12452   4.131   5.215  10.525
 8253W        W12453   1.127   4.457   1.831
 8254W        W12454  11.378  10.066  10.612
 8255W        W12455  11.224   6.278  11.377
 8256W        W12456   7.059   6.323   4.222
 8257W        W12457   5.017   4.711   0.207
 8258W        W12458   9.981   9.242  11.990
 8259W        W12459   0.932   3.637   3.411
 8260W        W12460   5.252   4.565   8.637
 8261W        W12461  11.481   3.519   0.395
 8262W        W12462   1.397  11.472   1.795
 8263W        W12463   1.325  11.109   2.169
 8264W        W12464   9.562   6.775  10.377
 8265W        W12465   5.621   6.517   9.875
 8266W        W12466   3.375   7.128   1.493
 8267W        W12467   1.311   5.992   9.175
 8268W        W12468   1.313   9.921   0.789
 8269W        W12469   0.392   0.025   2.337
 8270W        W12470   6.468   2.042  10.251
 8271W        W12471  10.277  10.536  10.262
 8272W        W12472   7.955   0.973  10.729
 8273W        W12473   6.608   7.822   9.103
 8274W        W12474   1.752   7.253   3.483
 8275W        W12475   4.074  10.749   0.040
 8276W        W12476   8.552  10.743   1.338
 8277W        W12477   6.585   5.718   0.026
 8278W        W12478   6.756   7.071   0.655
 8279W        W12479   6.656   3.279  10.536
 8280W        W12480   7.922   6.429   0.912
 8281W        W12481  10.057   5.915   3.401
 8282W        W12482   4.618  10.002  10.015
 8283W        W12483   9.411  10.647   1.215
 8284W        W12484   9.062   4.280   2.618
 8285W        W12485   8.958   5.566   2.144
 8286W        W12486   9.919   6.823   3.189
 8287W        W12487  11.075   0.948  11.758
 8288W        W12488   3.807   4.433  10.248
 8289W        W12489   9.242   5.807   0.209
 8290W        W12490   5.474   6.248   1.721
 8291W        W12491  11.407   7.318   2.978
 8292W        W12492  10.403   9.412   2.644
 8293W        W12493   6.534   8.312   1.166
 8294W        W12494   9.748   7.264  10.396
 8295W        W12495   4.326   7.205   2.356
 8296W        W12496  11.107   6.349   8.378
 8297W        W12497   4.132   4.858   8.584
 8298W        W12498  11.116   3.113   0.490
 8299W        W12499   1.583   6.681   0.384
 8300W        W12500   8.128   9.394   0.523
 8301W        W12501   8.050   9.945   2.211
 8302W        W12502   4.741  10.793   0.320
 8303W        W12503   8.688   8.864   9.813
 8304W        W12504   3.800  10.397   0.348
 8305W        W12505   9.584   8.875   2.703
 8306W        W12506   6.091   3.775   2.672
 8307W        W12507   0.723  10.268   9.152
 8308W        W12508   1.792   6.553   1.786
 8309W        W12509  11.473   5.108   1.656
 8310W        W12510   3.946   9.355   9.874
 8311W        W12511   1.670  11.283  11.092
 8312W        W12512   3.523   5.619   2.350
 8313W        W12513   2.167   0.217   3.491
 8314W        W12514   9.441   9.224  11.263
 8315W        W12515   6.407   1.687   2.039
 8316W        W12516  10.508   5.666   3.509
 8317W        W12517   1.946   3.139  10.492
 8318W        W12518   1.783   0.026   2.776
 8319W        W12519   6.909   8.237  10.208
 8320W        W12520   9.278   9.267   0.145
 8321W        W12521   2.469   7.957  10.373
 8322W        W12522   2.342   1.867   1.486
 8323W        W12523   4.814   8.018   2.885
 8324W        W12524  11.435  10.058   0.143
 8325W        W12525   7.682   5.170   1.814
 8326W        W12526   2.622   0.697  10.497
 8327W        W12527   3.421   6.479   9.057
 8328W        W12528   5.767  11.131   3.489
 8329W        W12529   4.711   9.821   2.507
 8330W        W12530   2.156   3.279  11.886
 8331W        W12531   3.849   7.134   9.744
 8332W        W12532   3.787   7.415  11.093
 8333W        W12533   7.722   8.467  10.496
 8334W        W12534   0.117   7.800   0.183
 8335W        W12535   1.600   5.681   2.661
 8336W        W12536  10.376   4.719   9.332
 8337W        W12537   6.111   1.209   3.345
 8338W        W12538   1.788   9.129  11.356
 8339W        W12539   8.554   2.713   0.523
 8340W        W12540   3.902  10.286   9.934
 8341W        W12541   9.051   9.974   0.573
 8342W        W12542   2.295   3.222  10.147
 8343W        W12543   8.602   0.044   0.861
 8344W        W12544   7.784   7.932  10.751
 8345W        W12545   1.601   9.768   1.517
 8346W        W12546  10.381   4.630   3.392
 8347W        W12547   6.144   9.038   3.272
 8348W        W12548   7.970  10.025   1.266
 8349W        W12549   8.854   5.475   0.108
 8350W        W12550  11.025   6.188   1.990
 8351W        W12551  11.305   7.703   0.600
 8352W        W12552   5.532   3.690  10.129
 8353W        W12553   8.453   2.184  10.768
 8354W        W12554   3.166   4.800   1.579
 8355W        W12555   1.472   4.749  11.075
 8356W        W12556   3.108   7.088   2.820
 8357W        W12557  10.823   6.346  10.733
 8358W        W12558   3.206  10.560   3.632
 8359W        W12559   6.247   9.962   1.706
 8360W        W12560   1.819   1.401  11.386
 8361W        W12561  10.888   6.594   8.821
 8362W        W12562   6.930   4.652   3.179
 8363W        W12563  10.342   8.304   1.233
 8364W        W12564   2.346   1.146   0.491
 8365W        W12565   0.567   2.447   2.380
 8366W        W12566   6.638   2.866  11.573
 8367W        W12567  10.778   2.923   3.655
 8368W        W12568   2.615   9.860   9.882
 8369W        W12569   2.234   0.511  11.793
 8370W        W12570   7.793   8.139   1.414
 8371W        W12571   0.281   1.302   1.717
 8372W        W12572  11.039  10.440   9.478
 8373W        W12573   5.498   6.132   9.507
 8374W        W12574   3.517   2.140   3.251
 8375W        W12575   0.481   7.073   1.732
 8376W        W12576   3.888   1.502   0.387
 8377W        W12577   5.554   7.811   9.536
 8378W        W12578   9.085   7.731   1.219
 8379W        W12579   7.490   8.686   0.397
 8380W        W12580  10.432  10.404   1.663
 8381W        W12581   4.182   8.609   3.076
 8382W        W12582   4.273   9.079   3.360
 8383W        W12583   8.607   8.331   3.006
 8384W        W12584   5.551   0.335   1.382
 8385W        W12585  11.091   3.400   2.966
 8386W        W12586   5.825  10.568  11.779
 8387W        W12587   4.536   4.866   0.093
 8388W        W12588   1.720   4.863   3.153
 8389W        W12589   8.084   1.833   9.466
 8390W        W12590   9.842   3.433   3.150
 8391W        W12591   7.885   1.762   1.014
 8392W        W12592  11.349  11.030  11.558
 8393W        W12593   5.175   6.500   0.170
 8394W        W12594   2.177  11.473   9.372
 8395W        W12595   0.647  11.080   0.283
 8396W        W12596   5.187   1.846   1.332
 8397W        W12597   6.460   5.050  10.950
 8398W        W12598   3.144   4.300   1.337
 8399W        W12599   1.784   9.940   2.806
 8400W        W12600   4.645   8.278   3.721
 8401W        W12601   6.987   8.868   0.109
 8402W        W12602   5.072   1.904   9.293
 8403W        W12603   2.060  11.070   8.602
 8404W        W12604   7.435   3.282   1.585
 8405W        W12605   0.251   1.064   0.889
 8406W        W12606   1.003  11.006  11.490
 8407W        W12607   4.479  11.068  11.942
 8408W        W12608   1.146  10.054   8.912
 8409W        W12609   5.615   9.803  11.447
 8410W        W12610   5.231   0.414   2.755
 8411W        W12611   3.280   3.268  11.066
 8412W        W12612  10.072   6.033   2.114
 8413W        W12613   0.483  10.549   0.077
 8414W        W12614   2.134   4.555   3.130
 8415W        W12615   3.383   2.423  11.492
 8416W        W12616   4.294   2.178   1.226
 8417W        W12617   5.855   8.671  11.844
 8418W        W12618   6.037   0.332  11.288
 8419W        W12619   4.165   0.253   2.795
 8420W        W12620   0.803   4.525   0.322
 8421W        W12621   9.932   8.579   1.063
 8422W        W12622   6.032   0.835  11.069
 8423W        W12623   5.205   0.531   9.237
 8424W        W12624   8.986   2.528  11.953
 8425W        W12625   7.745   6.155  10.235
 8426W        W12626   2.100   5.071   9.548
 8427W        W12627   2.441   0.358  10.847
 8428W        W12628  10.065   5.412   3.419
 8429W        W12629   5.102   9.126   9.470
 8430W        W12630   4.369   7.195   1.464
 8431W        W12631   8.457   0.264   0.400
 8432W        W12632   0.881  10.211  10.966
 8433W        W12633   2.077   9.463   0.767
 8434W        W12634   4.839   3.827  10.488
 8435W        W12635   3.537   5.241   0.872
 8436W        W12636   1.207   3.123   2.311
 8437W        W12637   7.295   0.555   1.388
 8438W        W12638   0.290   3.926   1.522
 8439W        W12639   8.849   2.249   9.912
 8440W        W12640   0.160  10.970   0.438
 8441W        W12641   9.477   9.855   9.881
 8442W        W12642  10.404   6.174  11.659
 8443W        W12643   1.301   6.496   9.259
 8444W        W12644   8.839   4.088  10.402
 8445W        W12645   7.960   7.504   0.290
 8446W        W12646   0.726   2.781  11.447
 8447W        W12647   6.341   7.608   4.064
 8448W        W12648   0.483   4.810   8.939
 8449W        W12649   4.953   0.449   2.303
 8450W        W12650   6.994  10.246  10.008
 8451W        W12651   3.879   8.821   3.545
 8452W        W12652   4.539   8.903  11.429
 8453W        W12653   4.587   2.350   2.166
 8454W        W12654   0.568   4.304   1.220
 8455W        W12655   3.745   7.134   8.872
 8456W        W12656   0.359   6.472  10.186
 8457W        W12657   0.275   0.874   9.720
 8458W        W12658   5.783   8.134  11.995
 8459W        W12659   5.623   9.299  10.769
 8460W        W12660   1.896   1.077   0.221
 8461W        W12661   2.812   4.674   9.146
 8462W        W12662  10.737   7.148   2.231
 8463W        W12663  10.372   7.138   0.747
 8464W        W12664  10.617   1.340   1.073
 8465W        W12665   6.167   0.384   0.657
 8466W        W12666  11.417   8.159   2.607
 8467W        W12667   2.576   1.594   9.002
 8468W        W12668   4.400   6.596  10.444
 8469W        W12669   8.584  10.245  10.565
 8470W        W12670   3.318   0.309   9.619
 8471W        W12671   3.207   3.652  10.354
 8472W        W12672   7.107   6.057   0.849
 8473W        W12673   7.045   7.594   8.958
 8474W        W12674   8.151   1.854  10.507
 8475W        W12675  11.383   4.132   1.887
 8476W        W12676   4.780   1.906  11.683
 8477W        W12677   6.984   5.725  10.433
 8478W        W12678   6.026   9.572  10.573
 8479W        W12679   5.099   7.839   9.804
 8480W        W12680   3.818   3.639   9.752
 8481W        W12681   1.018   8.942   1.541
 8482W        W12682   5.179   8.693   0.610
 8483W        W12683   7.965   7.049   2.056
 8484W        W12684   9.142   5.180   0.457
 8485W        W12685   4.792  10.368   9.672
 8486W        W12686   8.380   5.511  10.314
 8487W        W12687   2.646  10.891   0.615
 8488W        W12688   9.374   0.831   1.267
 8489W        W12689   9.777   2.649   9.087
 8490W        W12690  10.853   3.015   9.920
 8491W        W12691  11.366   0.564  11.260
 8492W        W12692   2.792   1.021  11.424
 8493W        W12693   2.182   2.200   3.388
 8494W        W12694   9.466   1.463  10.102
 8495W        W12695   5.920   1.822  10.206
 8496W        W12696   4.503   7.612   2.718
 8497W        W12697   5.437   6.111   2.759
 8498W        W12698   4.737   8.529   2.894
 8499W        W12699   4.232   2.910   1.915
 8500W        W12700   6.069  10.967   0.693
 8501W        W12701   7.898   4.192  10.584
 8502W        W12702   4.265  11.063   0.408
 8503W        W12703   5.189  11.423  11.110
 8504W        W12704   7.223   9.249   9.936
 8505W        W12705   9.378   6.172  11.541
 8506W        W12706  10.691   3.893   3.602
 8507W        W12707   3.955   8.013  10.492
 8508W        W12708   6.793  10.767  10.782
 8509W        W12709   4.888  10.089   0.950
 8510W        W12710   1.649   0.902   3.461
 8511W        W12711   7.086  10.480   9.449
 8512W        W12712   9.822  10.797   8.978
 8513W        W12713   2.131   0.199   2.443
 8514W        W12714   2.391   6.120  11.333
 8515W        W12715   4.164   1.721   9.149
 8516W        W12716  10.479   4.311  11.019
 8517W        W12717   9.786   0.408   1.292
 8518W        W12718   0.922   4.988   0.513
 8519W        W12719   1.330   5.313   9.916
 8520W        W12720   8.481   5.802   0.809
 8521W        W12721   1.168   8.145  11.301
 8522W        W12722   0.220   3.454  11.951
 8523W        W12723   2.730   3.855   0.671
 8524W        W12724   2.624   5.094   9.420
 8525W        W12725   9.877   5.699   0.748
 8526W        W12726   8.579   8.277   1.022
 8527W        W12727   5.992   9.419   8.565
 8528W        W12728   9.606   3.145  10.528
 8529W        W12729   6.340   2.101   1.731
 8530W        W12730   5.819   9.860   1.471
 8531W        W12731   7.130   9.875   2.185
 8532W        W12732   4.656  11.256   9.623
 8533W        W12733   5.701   8.333   9.477
 8534W        W12734   5.660   5.816   1.984
 8535ION    NA+12735   2.772   6.686  11.894
 8536ION    NA+12736   4.189   1.072   2.068
 8537ION    NA+12737   1.197  10.663   3.396
 8538ION    NA+12738   6.809   0.887   1.364
 8539ION    NA+12739   7.203   3.411   9.454
 8540ION    NA+12740  10.155   9.493   3.520
 8541ION    NA+12741  11.457   2.014  11.411
 8542ION    NA+12742   5.637   4.072   0.653
 8543ION    NA+12743  11.233   7.145   9.648
 8544ION    NA+12744   8.228   4.614   9.417
 8545ION    NA+12745   6.821   6.438  10.902
 8546ION    NA+12746   7.753   2.279   1.667
 8547ION    NA+12747   8.043   4.968   0.991
 8548ION    NA+12748   8.131   2.312   3.253
 8549ION    NA+12749   1.843  10.997   0.990
 8550ION    NA+12750   0.907   9.293  11.892
 8551ION    NA+12751   7.861   6.231  11.514
 8552ION    NA+12752   5.349   1.584   3.231
 8553ION    NA+12753   3.996  10.437  10.462
 8554ION    NA+12754   1.840   3.115   9.925
 8555ION    NA+12755   9.842   4.720   2.277
 8556ION    NA+12756   0.853   8.671   0.820
 8557ION    NA+12757   6.327   7.419  11.909
 8558ION    NA+12758   8.056   3.408   3.139
 8559ION    NA+12759   8.863   6.321  10.668
 8560ION    NA+12760   9.739   7.743   0.949
 8561ION    NA+12761   6.363  10.994   3.183
 8562ION    NA+12762   8.234   2.281   0.401
 8563ION    NA+12763   0.921   2.816   9.667
 8564ION    NA+12764   2.113   0.625   0.302
 8565ION    NA+12765   3.400   2.841  11.800
 8566ION    NA+12766   6.562   7.686   1.905
 8567ION    NA+12767   3.210   4.907   8.250
 8568ION    NA+12768   4.664  11.132   2.553
 8569ION    NA+12769   5.691  10.286   1.217
 8570ION    NA+12770   3.170   4.711  10.835
 8571ION    NA+12771  10.443   0.484  11.507
 8572ION    NA+12772   7.117   7.539   3.432
 8573ION    NA+12773   7.640   3.770   0.259
 8574ION    NA+12774  10.236   7.445  11.971
 8575ION    NA+12775   3.703   9.990   2.190
 8576ION    NA+12776   3.227   1.127  10.177
 8577ION    NA+12777   1.454   7.671  10.020
 8578ION    NA+12778   1.476   8.762   8.853
 8579ION    NA+12779   3.116   9.424  11.821
 8580ION    NA+12780   8.915   0.156   1.290
 8581ION    NA+12781   0.542   5.231   9.805
 8582ION    NA+12782   5.606   7.084   2.431
 8583ION    NA+12783   2.916   3.861   9.395
 8584ION    NA+12784   7.023   5.618   0.553
 8585ION    NA+12785   3.497  11.432   1.725
 8586ION    NA+12786   0.925  10.822   2.310
 8587ION    NA+12787   4.828   6.535   1.928
 8588ION    NA+12788   1.024   6.246   3.152
 8589ION    NA+12789   9.772   2.150   8.906
 8590ION    NA+12790   6.654   6.912   3.168
 8591ION    NA+12791   9.178  10.344   1.835
 8592ION    NA+12792   1.501   4.162   0.735
 8593ION    NA+12793   1.673   4.367   1.864
 8594ION    NA+12794   3.369   6.200   3.338
 8595ION    NA+12795   9.680   7.761   3.495
 8596ION    NA+12796   5.766   8.032  11.480
 8597ION    NA+12797   1.166   6.003   9.681
 8598ION    NA+12798   8.444   3.646   2.224
 8599ION    NA+12799   9.830   2.337   3.777
 8600ION    NA+12800   7.399   1.737   0.042
 8601ION    NA+12801   8.529   8.386   2.495
 8602ION    NA+12802   0.014  11.071   3.277
 8603ION    NA+12803   6.806   7.472   4.209
 8604ION    NA+12804   5.324  11.282  11.578
 8605ION    NA+12805   6.049   2.553   2.620
 8606ION    NA+12806   8.292   8.542   9.817
 8607ION    NA+12807   7.339   8.861   1.436
 8608ION    NA+12808   4.728  10.202   2.191
 8609ION    NA+12809   4.282   5.815   2.014
 8610ION    NA+12810   0.032   7.999   1.916
 8611ION    NA+12811   4.161  10.054   1.278
 8612ION    NA+12812   8.138   0.943   9.764
 8613ION    NA+12813   4.359   5.911   0.382
 8614ION    NA+12814  10.083   0.424   0.865
 8615ION    NA+12815   9.717   7.871   9.029
 8616ION    NA+12816   6.001   3.905   1.849
 8617ION    NA+12817   7.322   9.367  10.829
 8618ION    NA+12818   5.912   3.243   3.360
 8619ION    NA+12819   1.773   1.150   1.365
 8620ION    NA+12820   7.657   2.856   8.628
 8621ION    NA+12821   6.192   8.481   9.491
 8622ION    NA+12822   0.663   4.669   1.623
 8623ION    NA+12823   3.168   6.616   8.588
 8624ION    NA+12824   4.132   6.802   0.250
 8625ION    CL-12825   5.539   1.688   2.119
 8626ION    CL-12826   0.206   7.858  11.301
 8627ION    CL-12827  11.333   4.321   8.629
 8628ION    CL-12828   2.103   8.513   2.325
 8629ION    CL-12829   6.992   7.806   1.866
 8630ION    CL-12830   4.670   8.943   1.516
 8631ION    CL-12831   8.202   3.602  11.388
 8632ION    CL-12832   0.158   7.824   2.306
 8633ION    CL-12833   9.237   5.859   3.575
 8634ION    CL-12834   0.271   0.870   0.219
 8635ION    CL-12835   7.445  11.468   0.818
 8636ION    CL-12836   3.320  11.341   1.327
 8637ION    CL-12837   6.938   3.149   9.701
 8638ION    CL-12838   5.036   0.529   1.397
 8639ION    CL-12839  11.476  11.446   3.025
 8640ION    CL-12840   4.769   1.189  11.031
 8641ION    CL-12841   5.808   9.927   0.961
 8642ION    CL-12842  11.133   7.355   9.265
 8643ION    CL-12843   0.265   4.453   1.622
 8644ION    CL-12844   6.049   7.766  11.745
 8645ION    CL-12845  10.607  10.945  10.121
 8646ION    CL-12846   3.575  11.329  11.980
 8647ION    CL-12847   7.219   1.052   1.431
 8648ION    CL-12848   9.120   1.562   3.550
 8649ION    CL-12849   3.232  11.148   9.125
 8650ION    CL-12850   0.974  10.348   9.591
 8651ION    CL-12851   3.430   2.957   3.192
 8652ION    CL-12852   6.899   7.291   3.106
 8653ION    CL-12853   6.700   2.782  10.601
 8654ION    CL-12854  11.462   3.555   1.303
 8655ION    CL-12855   2.358   0.436  10.134
 8656ION    CL-12856   9.475  10.641  10.359
 8657ION    CL-12857   1.108   7.962   3.372
 8658ION    CL-12858   6.466   7.254   4.420
 8659ION    CL-12859   8.457   4.951   3.661
 8660ION    CL-12860   5.361   2.862   8.515
 8661ION    CL-12861   8.172   6.511   2.756
 8662ION    CL-12862   6.990   9.489   2.513
 8663ION    CL-12863   5.196   3.390   2.744
 8664ION    CL-12864  11.212   3.566  11.931
 8665ION    CL-12865  10.527   3.214   1.397
 8666ION    CL-12866   7.543   7.326   9.648
 8667ION    CL-12867   1.020   1.505   0.411
 8668ION    CL-12868   3.334   1.554  10.104
 8669ION    CL-12869  10.879   3.593  10.112
 8670ION    CL-12870   1.348   1.237   9.655
 8671ION    CL-12871  11.429   5.492   2.321
 8672ION    CL-12872   2.663   6.825   9.987
 8673ION    CL-12873   6.885   9.417  10.762
 8674ION    CL-12874   8.301   4.596   0.968
 8675ION    CL-12875   4.259   8.738  11.013
 8676ION    CL-12876   5.301   3.771   0.668
 8677ION    CL-12877   0.223   5.270  10.118
 8678ION    CL-12878   5.810   4.172   2.155
 8679ION    CL-12879   9.118   9.575   3.549
 8680ION    CL-12880  10.973   5.533   8.100
 8681ION    CL-12881   3.015   7.761   9.901
 8682ION    CL-12882   5.314   1.183  11.962
 8683ION    CL-12883   9.897   6.688   1.209
 8684ION    CL-12884   9.136   7.164   2.904
 8685ION    CL-12885   4.087   7.259   0.288
 8686ION    CL-12886   9.308   6.391  10.672
 8687ION    CL-12887   0.714   4.585   2.886
 8688ION    CL-12888  10.432  10.448   1.141
 8689ION    CL-12889   7.128  10.108   1.283
 8690ION    CL-12890   5.314   3.700   9.618
 8691ION    CL-12891   4.548   6.185   2.013
 8692ION    CL-12892   4.229   6.345   0.300
 8693ION    CL-12893  10.896   0.928   8.499
 8694ION    CL-12894   5.535   8.312  11.197
 8695ION    CL-12895   5.320   3.112  11.545
 8696ION    CL-12896   4.442   3.070   8.849
 8697ION    CL-12897   9.962   7.463  11.619
 8698ION    CL-12898   0.726   5.990   3.408
 8699ION    CL-12899  10.112   3.118   2.773
 8700ION    CL-12900   9.335   7.815   0.770
 8701ION    CL-12901   7.479   1.773  11.604
 8702ION    CL-12902   2.700   5.667   2.130
 8703ION    CL-12903   5.671  10.700   1.408
 8704ION    CL-12904   1.232   2.303   1.855
 8705ION    CL-12905   1.158  11.273  11.038
 8706ION    CL-12906   4.915   1.921   9.801
 8707ION    CL-12907   8.071  11.268   1.867
 8708ION    CL-12908   1.431   9.437   2.703
 8709ION    CL-12909   6.626   7.102   0.040
 8710ION    CL-12910   1.748  10.753  10.346
 8711ION    CL-12911   0.863   4.989   1.360
 8712ION    CL-12912   6.064   9.560  11.542
 8713ION    CL-12913   5.443  10.316   8.894
 8714ION    CL-12914   9.535  10.317   1.567
  11.50000  11.50000  12.00000
