[ moleculetype ]
; Name            nrexcl
AU                  1

[ atoms ]
;   nr       type  resnr residue  atom    cgnr     charge       mass
     1        C5     1    AU   AUC        1         0          784
     2        C5     1    AU   AUC        2         0          784
     3        C5     1    AU   AUC        3         0          784
     4        C5     1    AU   AUC        4         0          784
     5        C5     1    AU   AUC        5         0          784
     6        C5     1    AU   AUC        6         0          784
     7        C5     1    AU   AUC        7         0          784
     8        C5     1    AU   AUC        8         0          784
     9        C5     1    AU   AUC        9         0          784
    10        C5     1    AU   AUC       10         0          784
    11        C5     1    AU   AUC       11         0          784
    12        C5     1    AU   AUC       12         0          784
    13        C5     1    AU   AUC       13         0          784
    14        C5     1    AU   AUC       14         0          784
    15        C5     1    AU   AUC       15         0          784
    16        C5     1    AU   AUC       16         0          784
    17        C5     1    AU   AUC       17         0          784
    18        C5     1    AU   AUC       18         0          784
    19        C5     1    AU   AUC       19         0          784
    20        C5     1    AU   AUC       20         0          784
    21        C5     1    AU   AUC       21         0          784
    22        C5     1    AU   AUC       22         0          784
    23        C5     1    AU   AUC       23         0          784
    24        C5     1    AU   AUC       24         0          784
    25        C5     1    AU   AUC       25         0          784
    26        C5     1    AU   AUC       26         0          784
    27        C5     1    AU   AUC       27         0          784
    28        C5     1    AU   AUC       28         0          784
    29        C5     1    AU   AUC       29         0          784
    30        C5     1    AU   AUC       30         0          784
    31        C5     1    AU   AUC       31         0          784
    32        C5     1    AU   AUC       32         0          784
    33        C5     1    AU   AUC       33         0          784
    34        C5     1    AU   AUC       34         0          784
    35        C5     1    AU   AUC       35         0          784
    36        C5     1    AU   AUC       36         0          784
    37        C5     1    AU   AUC       37         0          784
    38        C5     1    AU   AUC       38         0          784
    39        C5     1    AU   AUC       39         0          784
    40        C5     1    AU   AUC       40         0          784
    41        C5     1    AU   AUC       41         0          784
    42        C5     1    AU   AUC       42         0          784
    43        C5     1    AU   AUC       43         0          784
    44        C5     1    AU   AUC       44         0          784
    45        C5     1    AU   AUC       45         0          784
    46        C5     1    AU   AUC       46         0          784
    47        C5     1    AU   AUC       47         0          784
    48        C5     1    AU   AUC       48         0          784
    49        C5     1    AU   AUC       49         0          784
    50        C5     1    AU   AUC       50         0          784
    51        C5     1    AU   AUC       51         0          784
    52        C5     1    AU   AUC       52         0          784
    53        C5     1    AU   AUC       53         0          784
    54        C5     1    AU   AUC       54         0          784
    55        C5     1    AU   AUC       55         0          784
    56        C5     1    AU   AUSL      56         0          784
    57        C5     1    AU   AUSL      57         0          784
    58        C5     1    AU   AUL       58         0          784
    59        N0     1    AU   S         59         0           46
    60        C1     1    AU   LIG       60         0           56
    61        C1     1    AU   LIG       61         0           56
    62        C1     1    AU   LIG       62         0           56
    63        C1     1    AU   LIG       63         0           56
    64        N0     1    AU   S         64         0           46
    65        C1     1    AU   LIG       65         0           56
    66        C1     1    AU   LIG       66         0           56
    67        C1     1    AU   LIG       67         0           56
    68        C1     1    AU   LIG       68         0           56
    69        C5     1    AU   AUSL      69         0          784
    70        C5     1    AU   AUSL      70         0          784
    71        C5     1    AU   AUL       71         0          784
    72        N0     1    AU   S         72         0           46
    73        C1     1    AU   LIG       73         0           56
    74        C1     1    AU   LIG       74         0           56
    75        C1     1    AU   LIG       75         0           56
    76        C1     1    AU   LIG       76         0           56
    77        N0     1    AU   S         77         0           46
    78        C1     1    AU   LIG       78         0           56
    79        C1     1    AU   LIG       79         0           56
    80        C1     1    AU   LIG       80         0           56
    81        C1     1    AU   LIG       81         0           56
    82        C5     1    AU   AUSL      82         0          784
    83        C5     1    AU   AUSL      83         0          784
    84        C5     1    AU   AUL       84         0          784
    85        N0     1    AU   S         85         0           46
    86        C1     1    AU   LIG       86         0           56
    87        C1     1    AU   LIG       87         0           56
    88        C1     1    AU   LIG       88         0           56
    89        C1     1    AU   LIG       89         0           56
    90        N0     1    AU   S         90         0           46
    91        C1     1    AU   LIG       91         0           56
    92        C1     1    AU   LIG       92         0           56
    93        C1     1    AU   LIG       93         0           56
    94        C1     1    AU   LIG       94         0           56
    95        C5     1    AU   AUSL      95         0          784
    96        C5     1    AU   AUSL      96         0          784
    97        C5     1    AU   AUL       97         0          784
    98        N0     1    AU   S         98         0           46
    99        C1     1    AU   LIG       99         0           56
   100        C1     1    AU   LIG      100         0           56
   101        C1     1    AU   LIG      101         0           56
   102        C1     1    AU   LIG      102         0           56
   103        N0     1    AU   S        103         0           46
   104        C1     1    AU   LIG      104         0           56
   105        C1     1    AU   LIG      105         0           56
   106        C1     1    AU   LIG      106         0           56
   107        C1     1    AU   LIG      107         0           56
   108        C5     1    AU   AUSL     108         0          784
   109        C5     1    AU   AUSL     109         0          784
   110        C5     1    AU   AUL      110         0          784
   111        N0     1    AU   S        111         0           46
   112        C1     1    AU   LIG      112         0           56
   113        C1     1    AU   LIG      113         0           56
   114        C1     1    AU   LIG      114         0           56
   115        C1     1    AU   LIG      115         0           56
   116        N0     1    AU   S        116         0           46
   117        C1     1    AU   LIG      117         0           56
   118        C1     1    AU   LIG      118         0           56
   119        C1     1    AU   LIG      119         0           56
   120        C1     1    AU   LIG      120         0           56
   121        C5     1    AU   AUSL     121         0          784
   122        C5     1    AU   AUSL     122         0          784
   123        C5     1    AU   AUL      123         0          784
   124        N0     1    AU   S        124         0           46
   125        C1     1    AU   LIG      125         0           56
   126        C1     1    AU   LIG      126         0           56
   127        C1     1    AU   LIG      127         0           56
   128        C1     1    AU   LIG      128         0           56
   129        N0     1    AU   S        129         0           46
   130        C1     1    AU   LIG      130         0           56
   131        C1     1    AU   LIG      131         0           56
   132        C1     1    AU   LIG      132         0           56
   133        C1     1    AU   LIG      133         0           56
   134        C5     1    AU   AUSL     134         0          784
   135        C5     1    AU   AUSL     135         0          784
   136        C5     1    AU   AUL      136         0          784
   137        N0     1    AU   S        137         0           46
   138        C1     1    AU   LIG      138         0           56
   139        C1     1    AU   LIG      139         0           56
   140        C1     1    AU   LIG      140         0           56
   141        C1     1    AU   LIG      141         0           56
   142        N0     1    AU   S        142         0           46
   143        C1     1    AU   LIG      143         0           56
   144        C1     1    AU   LIG      144         0           56
   145        C1     1    AU   LIG      145         0           56
   146        C1     1    AU   LIG      146         0           56
   147        C5     1    AU   AUSL     147         0          784
   148        C5     1    AU   AUSL     148         0          784
   149        C5     1    AU   AUL      149         0          784
   150        N0     1    AU   S        150         0           46
   151        C1     1    AU   LIG      151         0           56
   152        C1     1    AU   LIG      152         0           56
   153        C1     1    AU   LIG      153         0           56
   154        C1     1    AU   LIG      154         0           56
   155        N0     1    AU   S        155         0           46
   156        C1     1    AU   LIG      156         0           56
   157        C1     1    AU   LIG      157         0           56
   158        C1     1    AU   LIG      158         0           56
   159        C1     1    AU   LIG      159         0           56
   160        C5     1    AU   AUSL     160         0          784
   161        C5     1    AU   AUSL     161         0          784
   162        C5     1    AU   AUL      162         0          784
   163        N0     1    AU   S        163         0           46
   164        C1     1    AU   LIG      164         0           56
   165        C1     1    AU   LIG      165         0           56
   166        C1     1    AU   LIG      166         0           56
   167        C1     1    AU   LIG      167         0           56
   168        N0     1    AU   S        168         0           46
   169        C1     1    AU   LIG      169         0           56
   170        C1     1    AU   LIG      170         0           56
   171        C1     1    AU   LIG      171         0           56
   172        C1     1    AU   LIG      172         0           56
   173        C5     1    AU   AUSL     173         0          784
   174        C5     1    AU   AUSL     174         0          784
   175        C5     1    AU   AUL      175         0          784
   176        N0     1    AU   S        176         0           46
   177        C1     1    AU   LIG      177         0           56
   178        C1     1    AU   LIG      178         0           56
   179        C1     1    AU   LIG      179         0           56
   180        C1     1    AU   LIG      180         0           56
   181        N0     1    AU   S        181         0           46
   182        C1     1    AU   LIG      182         0           56
   183        C1     1    AU   LIG      183         0           56
   184        C1     1    AU   LIG      184         0           56
   185        C1     1    AU   LIG      185         0           56
   186        C5     1    AU   AUSL     186         0          784
   187        C5     1    AU   AUSL     187         0          784
   188        C5     1    AU   AUL      188         0          784
   189        N0     1    AU   S        189         0           46
   190        C1     1    AU   LIG      190         0           56
   191        C1     1    AU   LIG      191         0           56
   192        C1     1    AU   LIG      192         0           56
   193        C1     1    AU   LIG      193         0           56
   194        N0     1    AU   S        194         0           46
   195        C1     1    AU   LIG      195         0           56
   196        C1     1    AU   LIG      196         0           56
   197        C1     1    AU   LIG      197         0           56
   198        C1     1    AU   LIG      198         0           56
   199        C5     1    AU   AUSL     199         0          784
   200        C5     1    AU   AUSL     200         0          784
   201        C5     1    AU   AUL      201         0          784
   202        N0     1    AU   S        202         0           46
   203        C1     1    AU   LIG      203         0           56
   204        C1     1    AU   LIG      204         0           56
   205        C1     1    AU   LIG      205         0           56
   206        C1     1    AU   LIG      206         0           56
   207        N0     1    AU   S        207         0           46
   208        C1     1    AU   LIG      208         0           56
   209        C1     1    AU   LIG      209         0           56
   210        C1     1    AU   LIG      210         0           56
   211        C1     1    AU   LIG      211         0           56
   212        C5     1    AU   AUSL     212         0          784
   213        C5     1    AU   AUSL     213         0          784
   214        C5     1    AU   AUL      214         0          784
   215        N0     1    AU   S        215         0           46
   216        C1     1    AU   LIG      216         0           56
   217        C1     1    AU   LIG      217         0           56
   218        C1     1    AU   LIG      218         0           56
   219        C1     1    AU   LIG      219         0           56
   220        N0     1    AU   S        220         0           46
   221        C1     1    AU   LIG      221         0           56
   222        C1     1    AU   LIG      222         0           56
   223        C1     1    AU   LIG      223         0           56
   224        C1     1    AU   LIG      224         0           56
   225        C5     1    AU   AUSL     225         0          784
   226        C5     1    AU   AUSL     226         0          784
   227        C5     1    AU   AUL      227         0          784
   228        N0     1    AU   S        228         0           46
   229        C1     1    AU   LIG      229         0           56
   230        C1     1    AU   LIG      230         0           56
   231        C1     1    AU   LIG      231         0           56
   232        C1     1    AU   LIG      232         0           56
   233        N0     1    AU   S        233         0           46
   234        C1     1    AU   LIG      234         0           56
   235        C1     1    AU   LIG      235         0           56
   236        C1     1    AU   LIG      236         0           56
   237        C1     1    AU   LIG      237         0           56
   238        C5     1    AU   AUSL     238         0          784
   239        C5     1    AU   AUSL     239         0          784
   240        C5     1    AU   AUL      240         0          784
   241        N0     1    AU   S        241         0           46
   242        C1     1    AU   LIG      242         0           56
   243        C1     1    AU   LIG      243         0           56
   244        C1     1    AU   LIG      244         0           56
   245        C1     1    AU   LIG      245         0           56
   246        N0     1    AU   S        246         0           46
   247        C1     1    AU   LIG      247         0           56
   248        C1     1    AU   LIG      248         0           56
   249        C1     1    AU   LIG      249         0           56
   250        C1     1    AU   LIG      250         0           56
   251        C5     1    AU   AUSL     251         0          784
   252        C5     1    AU   AUSL     252         0          784
   253        C5     1    AU   AUL      253         0          784
   254        N0     1    AU   S        254         0           46
   255        C1     1    AU   LIG      255         0           56
   256        C1     1    AU   LIG      256         0           56
   257        C1     1    AU   LIG      257         0           56
   258        C1     1    AU   LIG      258         0           56
   259        N0     1    AU   S        259         0           46
   260        C1     1    AU   LIG      260         0           56
   261        C1     1    AU   LIG      261         0           56
   262        C1     1    AU   LIG      262         0           56
   263        C1     1    AU   LIG      263         0           56
   264        C5     1    AU   AUSL     264         0          784
   265        C5     1    AU   AUSL     265         0          784
   266        C5     1    AU   AUL      266         0          784
   267        N0     1    AU   S        267         0           46
   268        C1     1    AU   LIG      268         0           56
   269        C1     1    AU   LIG      269         0           56
   270        C1     1    AU   LIG      270         0           56
   271        C1     1    AU   LIG      271         0           56
   272        N0     1    AU   S        272         0           46
   273        C1     1    AU   LIG      273         0           56
   274        C1     1    AU   LIG      274         0           56
   275        C1     1    AU   LIG      275         0           56
   276        C1     1    AU   LIG      276         0           56
   277        C5     1    AU   AUSL     277         0          784
   278        C5     1    AU   AUSL     278         0          784
   279        C5     1    AU   AUL      279         0          784
   280        N0     1    AU   S        280         0           46
   281        C1     1    AU   LIG      281         0           56
   282        C1     1    AU   LIG      282         0           56
   283        C1     1    AU   LIG      283         0           56
   284        C1     1    AU   LIG      284         0           56
   285        N0     1    AU   S        285         0           46
   286        C1     1    AU   LIG      286         0           56
   287        C1     1    AU   LIG      287         0           56
   288        C1     1    AU   LIG      288         0           56
   289        C1     1    AU   LIG      289         0           56
   290        C5     1    AU   AUSL     290         0          784
   291        C5     1    AU   AUSL     291         0          784
   292        C5     1    AU   AUL      292         0          784
   293        N0     1    AU   S        293         0           46
   294        C1     1    AU   LIG      294         0           56
   295        C1     1    AU   LIG      295         0           56
   296        C1     1    AU   LIG      296         0           56
   297        C1     1    AU   LIG      297         0           56
   298        N0     1    AU   S        298         0           46
   299        C1     1    AU   LIG      299         0           56
   300        C1     1    AU   LIG      300         0           56
   301        C1     1    AU   LIG      301         0           56
   302        C1     1    AU   LIG      302         0           56
   303        C5     1    AU   AUSL     303         0          784
   304        C5     1    AU   AUSL     304         0          784
   305        C5     1    AU   AUL      305         0          784
   306        N0     1    AU   S        306         0           46
   307        C1     1    AU   LIG      307         0           56
   308        C1     1    AU   LIG      308         0           56
   309        C1     1    AU   LIG      309         0           56
   310        C1     1    AU   LIG      310         0           56
   311        N0     1    AU   S        311         0           46
   312        C1     1    AU   LIG      312         0           56
   313        C1     1    AU   LIG      313         0           56
   314        C1     1    AU   LIG      314         0           56
   315        C1     1    AU   LIG      315         0           56
   316        C5     1    AU   AUSL     316         0          784
   317        C5     1    AU   AUSL     317         0          784
   318        C5     1    AU   AUL      318         0          784
   319        N0     1    AU   S        319         0           46
   320        C1     1    AU   LIG      320         0           56
   321        C1     1    AU   LIG      321         0           56
   322        C1     1    AU   LIG      322         0           56
   323        C1     1    AU   LIG      323         0           56
   324        N0     1    AU   S        324         0           46
   325        C1     1    AU   LIG      325         0           56
   326        C1     1    AU   LIG      326         0           56
   327        C1     1    AU   LIG      327         0           56
   328        C1     1    AU   LIG      328         0           56
   329        C5     1    AU   AUSL     329         0          784
   330        C5     1    AU   AUSL     330         0          784
   331        C5     1    AU   AUL      331         0          784
   332        N0     1    AU   S        332         0           46
   333        C1     1    AU   LIG      333         0           56
   334        C1     1    AU   LIG      334         0           56
   335        C1     1    AU   LIG      335         0           56
   336        C1     1    AU   LIG      336         0           56
   337        N0     1    AU   S        337         0           46
   338        C1     1    AU   LIG      338         0           56
   339        C1     1    AU   LIG      339         0           56
   340        C1     1    AU   LIG      340         0           56
   341        C1     1    AU   LIG      341         0           56
   342        C5     1    AU   AUSL     342         0          784
   343        C5     1    AU   AUSL     343         0          784
   344        C5     1    AU   AUL      344         0          784
   345        N0     1    AU   S        345         0           46
   346        C1     1    AU   LIG      346         0           56
   347        C1     1    AU   LIG      347         0           56
   348        C1     1    AU   LIG      348         0           56
   349        C1     1    AU   LIG      349         0           56
   350        N0     1    AU   S        350         0           46
   351        C1     1    AU   LIG      351         0           56
   352        C1     1    AU   LIG      352         0           56
   353        C1     1    AU   LIG      353         0           56
   354        C1     1    AU   LIG      354         0           56
   355        C5     1    AU   AUSL     355         0          784
   356        C5     1    AU   AUSL     356         0          784
   357        C5     1    AU   AUL      357         0          784
   358        N0     1    AU   S        358         0           46
   359        C1     1    AU   LIG      359         0           56
   360        C1     1    AU   LIG      360         0           56
   361        C1     1    AU   LIG      361         0           56
   362        C1     1    AU   LIG      362         0           56
   363        N0     1    AU   S        363         0           46
   364        C1     1    AU   LIG      364         0           56
   365        C1     1    AU   LIG      365         0           56
   366        C1     1    AU   LIG      366         0           56
   367        C1     1    AU   LIG      367         0           56
   368        C5     1    AU   AUSL     368         0          784
   369        C5     1    AU   AUSL     369         0          784
   370        C5     1    AU   AUL      370         0          784
   371        N0     1    AU   S        371         0           46
   372        C1     1    AU   LIG      372         0           56
   373        C1     1    AU   LIG      373         0           56
   374        C1     1    AU   LIG      374         0           56
   375        C1     1    AU   LIG      375         0           56
   376        N0     1    AU   S        376         0           46
   377        C1     1    AU   LIG      377         0           56
   378        C1     1    AU   LIG      378         0           56
   379        C1     1    AU   LIG      379         0           56
   380        C1     1    AU   LIG      380         0           56
   381        C5     1    AU   AUSL     381         0          784
   382        C5     1    AU   AUSL     382         0          784
   383        C5     1    AU   AUL      383         0          784
   384        N0     1    AU   S        384         0           46
   385        C1     1    AU   LIG      385         0           56
   386        C1     1    AU   LIG      386         0           56
   387        C1     1    AU   LIG      387         0           56
   388        C1     1    AU   LIG      388         0           56
   389        N0     1    AU   S        389         0           46
   390        C1     1    AU   LIG      390         0           56
   391        C1     1    AU   LIG      391         0           56
   392        C1     1    AU   LIG      392         0           56
   393        C1     1    AU   LIG      393         0           56
   394        C5     1    AU   AUSL     394         0          784
   395        C5     1    AU   AUSL     395         0          784
   396        C5     1    AU   AUL      396         0          784
   397        N0     1    AU   S        397         0           46
   398        C1     1    AU   LIG      398         0           56
   399        C1     1    AU   LIG      399         0           56
   400        C1     1    AU   LIG      400         0           56
   401        C1     1    AU   LIG      401         0           56
   402        N0     1    AU   S        402         0           46
   403        C1     1    AU   LIG      403         0           56
   404        C1     1    AU   LIG      404         0           56
   405        C1     1    AU   LIG      405         0           56
   406        C1     1    AU   LIG      406         0           56
   407        C5     1    AU   AUSL     407         0          784
   408        C5     1    AU   AUSL     408         0          784
   409        C5     1    AU   AUL      409         0          784
   410        N0     1    AU   S        410         0           46
   411        C1     1    AU   LIG      411         0           56
   412        C1     1    AU   LIG      412         0           56
   413        C1     1    AU   LIG      413         0           56
   414        C1     1    AU   LIG      414         0           56
   415        N0     1    AU   S        415         0           46
   416        C1     1    AU   LIG      416         0           56
   417        C1     1    AU   LIG      417         0           56
   418        C1     1    AU   LIG      418         0           56
   419        C1     1    AU   LIG      419         0           56
   420        C5     1    AU   AUSL     420         0          784
   421        C5     1    AU   AUSL     421         0          784
   422        C5     1    AU   AUL      422         0          784
   423        N0     1    AU   S        423         0           46
   424        C1     1    AU   LIG      424         0           56
   425        C1     1    AU   LIG      425         0           56
   426        C1     1    AU   LIG      426         0           56
   427        C1     1    AU   LIG      427         0           56
   428        N0     1    AU   S        428         0           46
   429        C1     1    AU   LIG      429         0           56
   430        C1     1    AU   LIG      430         0           56
   431        C1     1    AU   LIG      431         0           56
   432        C1     1    AU   LIG      432         0           56
   433        C5     1    AU   AUSL     433         0          784
   434        C5     1    AU   AUSL     434         0          784
   435        C5     1    AU   AUL      435         0          784
   436        N0     1    AU   S        436         0           46
   437        C1     1    AU   LIG      437         0           56
   438        C1     1    AU   LIG      438         0           56
   439        C1     1    AU   LIG      439         0           56
   440        C1     1    AU   LIG      440         0           56
   441        N0     1    AU   S        441         0           46
   442        C1     1    AU   LIG      442         0           56
   443        C1     1    AU   LIG      443         0           56
   444        C1     1    AU   LIG      444         0           56
   445        C1     1    AU   LIG      445         0           56

 [ bonds ]
;         i           j    funct      length   force_k
         1          2      1           0.289 3500
         1          3      1           0.289 3500
         1          4      1           0.288 3500
         1          5      1           0.288 3500
         1          6      1           0.288 3500
         1          7      1           0.288 3500
         1          8      1           0.289 3500
         1          9      1           0.289 3500
         1         10      1           0.288 3500
         1         11      1           0.288 3500
         1         12      1           0.289 3500
         1         13      1           0.289 3500
         2          3      1           0.303 3500
         2          7      1           0.303 3500
         2          9      1           0.304 3500
         2         12      1           0.304 3500
         2         13      1           0.304 3500
         2         14      1           0.288 3500
         2         15      1           0.288 3500
         2         34      1           0.288 3500
         2         35      1           0.288 3500
         2         40      1           0.288 3500
         2         44      1           0.289 3500
         3          7      1           0.303 3500
         3          9      1           0.304 3500
         3         10      1           0.304 3500
         3         11      1           0.304 3500
         3         15      1           0.288 3500
         3         16      1           0.288 3500
         3         32      1           0.289 3500
         3         33      1           0.289 3500
         3         41      1           0.288 3500
         3         45      1           0.289 3500
         4          5      1           0.303 3500
         4          6      1           0.303 3500
         4          8      1           0.304 3500
         4         12      1           0.303 3500
         4         13      1           0.303 3500
         4         17      1           0.289 3500
         4         18      1           0.289 3500
         4         38      1           0.288 3500
         4         39      1           0.288 3500
         4         42      1           0.288 3500
         4         46      1           0.289 3500
         5          6      1           0.303 3500
         5          8      1           0.304 3500
         5         10      1           0.303 3500
         5         11      1           0.303 3500
         5         18      1           0.289 3500
         5         19      1           0.289 3500
         5         36      1           0.289 3500
         5         37      1           0.289 3500
         5         43      1           0.288 3500
         5         47      1           0.289 3500
         6          7      1           0.303 3500
         6         11      1           0.303 3500
         6         13      1           0.304 3500
         6         20      1           0.288 3500
         6         21      1           0.288 3500
         6         42      1           0.289 3500
         6         43      1           0.289 3500
         6         48      1           0.288 3500
         6         52      1           0.289 3500
         7         11      1           0.303 3500
         7         13      1           0.304 3500
         7         21      1           0.288 3500
         7         22      1           0.288 3500
         7         40      1           0.288 3500
         7         41      1           0.288 3500
         7         49      1           0.288 3500
         7         53      1           0.289 3500
         8          9      1           0.303 3500
         8         10      1           0.303 3500
         8         12      1           0.304 3500
         8         23      1           0.288 3500
         8         24      1           0.288 3500
         8         46      1           0.289 3500
         8         47      1           0.289 3500
         8         50      1           0.288 3500
         8         54      1           0.289 3500
         9         10      1           0.303 3500
         9         12      1           0.304 3500
         9         24      1           0.288 3500
         9         25      1           0.288 3500
         9         44      1           0.288 3500
         9         45      1           0.288 3500
         9         51      1           0.288 3500
         9         55      1           0.289 3500
        10         11      1           0.303 3500
        10         26      1           0.289 3500
        10         27      1           0.289 3500
        10         32      1           0.289 3500
        10         36      1           0.288 3500
        10         50      1           0.289 3500
        10         51      1           0.289 3500
        11         27      1           0.289 3500
        11         28      1           0.289 3500
        11         33      1           0.289 3500
        11         37      1           0.288 3500
        11         48      1           0.289 3500
        11         49      1           0.289 3500
        12         13      1           0.303 3500
        12         29      1           0.288 3500
        12         30      1           0.288 3500
        12         34      1           0.289 3500
        12         38      1           0.288 3500
        12         54      1           0.289 3500
        12         55      1           0.289 3500
        13         30      1           0.288 3500
        13         31      1           0.288 3500
        13         35      1           0.289 3500
        13         39      1           0.288 3500
        13         52      1           0.289 3500
        13         53      1           0.289 3500
        14         15      1           0.304 3500
        14         34      1           0.303 3500
        14         35      1           0.302 3500
        14         40      1           0.303 3500
        14         44      1           0.304 3500
        14         95      1           0.288 5000
        14        109      1           0.289 5000
        14        187      1           0.288 5000
        14        199      1           0.288 5000
        14        277      1           0.289 5000
        15         16      1           0.303 3500
        15         40      1           0.303 3500
        15         41      1           0.303 3500
        15         44      1           0.304 3500
        15         45      1           0.304 3500
        15        199      1           0.288 5000
        15        200      1           0.288 5000
        15        212      1           0.288 5000
        15        277      1           0.289 5000
        16         32      1           0.303 3500
        16         33      1           0.303 3500
        16         41      1           0.303 3500
        16         45      1           0.304 3500
        16         56      1           0.289 5000
        16         83      1           0.288 5000
        16        200      1           0.289 5000
        16        212      1           0.288 5000
        16        265      1           0.289 5000
        17         18      1           0.304 3500
        17         38      1           0.304 3500
        17         39      1           0.303 3500
        17         42      1           0.303 3500
        17         46      1           0.304 3500
        17        160      1           0.288 5000
        17        174      1           0.288 5000
        17        238      1           0.288 5000
        17        252      1           0.288 5000
        17        291      1           0.289 5000
        18         19      1           0.303 3500
        18         42      1           0.303 3500
        18         43      1           0.303 3500
        18         46      1           0.304 3500
        18         47      1           0.304 3500
        18        238      1           0.288 5000
        18        251      1           0.287 5000
        18        252      1           0.288 5000
        18        303      1           0.288 5000
        19         36      1           0.304 3500
        19         37      1           0.304 3500
        19         43      1           0.303 3500
        19         47      1           0.304 3500
        19        134      1           0.289 5000
        19        148      1           0.289 5000
        19        226      1           0.288 5000
        19        251      1           0.288 5000
        19        303      1           0.288 5000
        20         21      1           0.303 3500
        20         42      1           0.303 3500
        20         43      1           0.303 3500
        20         48      1           0.303 3500
        20         52      1           0.304 3500
        20        225      1           0.289 5000
        20        239      1           0.289 5000
        20        317      1           0.288 5000
        20        329      1           0.288 5000
        20        407      1           0.289 5000
        21         22      1           0.304 3500
        21         48      1           0.302 3500
        21         49      1           0.303 3500
        21         52      1           0.303 3500
        21         53      1           0.304 3500
        21        329      1           0.288 5000
        21        330      1           0.289 5000
        21        342      1           0.288 5000
        21        407      1           0.288 5000
        22         40      1           0.303 3500
        22         41      1           0.302 3500
        22         49      1           0.303 3500
        22         53      1           0.304 3500
        22        186      1           0.288 5000
        22        213      1           0.288 5000
        22        330      1           0.289 5000
        22        342      1           0.288 5000
        22        395      1           0.289 5000
        23         24      1           0.303 3500
        23         46      1           0.303 3500
        23         47      1           0.303 3500
        23         50      1           0.303 3500
        23         54      1           0.304 3500
        23        290      1           0.289 5000
        23        304      1           0.288 5000
        23        368      1           0.288 5000
        23        382      1           0.289 5000
        23        421      1           0.289 5000
        24         25      1           0.304 3500
        24         50      1           0.302 3500
        24         51      1           0.303 3500
        24         54      1           0.303 3500
        24         55      1           0.304 3500
        24        368      1           0.288 5000
        24        381      1           0.288 5000
        24        382      1           0.288 5000
        24        433      1           0.289 5000
        25         44      1           0.303 3500
        25         45      1           0.302 3500
        25         51      1           0.303 3500
        25         55      1           0.304 3500
        25        264      1           0.288 5000
        25        278      1           0.289 5000
        25        356      1           0.288 5000
        25        381      1           0.288 5000
        25        433      1           0.289 5000
        26         27      1           0.304 3500
        26         32      1           0.304 3500
        26         36      1           0.303 3500
        26         50      1           0.304 3500
        26         51      1           0.304 3500
        26         57      1           0.289 5000
        26         69      1           0.288 5000
        26        147      1           0.288 5000
        26        355      1           0.289 5000
        26        369      1           0.288 5000
        27         28      1           0.303 3500
        27         32      1           0.304 3500
        27         33      1           0.304 3500
        27         36      1           0.303 3500
        27         37      1           0.303 3500
        27         69      1           0.288 5000
        27         70      1           0.287 5000
        27         82      1           0.288 5000
        27        147      1           0.288 5000
        28         33      1           0.304 3500
        28         37      1           0.303 3500
        28         48      1           0.304 3500
        28         49      1           0.304 3500
        28         70      1           0.288 5000
        28         82      1           0.288 5000
        28        135      1           0.288 5000
        28        316      1           0.289 5000
        28        343      1           0.289 5000
        29         30      1           0.304 3500
        29         34      1           0.304 3500
        29         38      1           0.303 3500
        29         54      1           0.303 3500
        29         55      1           0.303 3500
        29        108      1           0.289 5000
        29        122      1           0.288 5000
        29        161      1           0.288 5000
        29        420      1           0.289 5000
        29        434      1           0.289 5000
        30         31      1           0.303 3500
        30         34      1           0.304 3500
        30         35      1           0.304 3500
        30         38      1           0.303 3500
        30         39      1           0.303 3500
        30        108      1           0.289 5000
        30        121      1           0.288 5000
        30        122      1           0.288 5000
        30        173      1           0.288 5000
        31         35      1           0.304 3500
        31         39      1           0.303 3500
        31         52      1           0.303 3500
        31         53      1           0.303 3500
        31         96      1           0.289 5000
        31        121      1           0.289 5000
        31        173      1           0.288 5000
        31        394      1           0.289 5000
        31        408      1           0.288 5000
        32         33      1           0.303 3500
        32         45      1           0.304 3500
        32         51      1           0.304 3500
        32         56      1           0.288 5000
        32         57      1           0.289 5000
        32         69      1           0.288 5000
        32        265      1           0.288 5000
        33         41      1           0.304 3500
        33         49      1           0.304 3500
        33         56      1           0.288 5000
        33         82      1           0.288 5000
        33         83      1           0.288 5000
        33        343      1           0.289 5000
        34         35      1           0.303 3500
        34         44      1           0.303 3500
        34         55      1           0.304 3500
        34         95      1           0.288 5000
        34        108      1           0.289 5000
        34        109      1           0.288 5000
        34        434      1           0.289 5000
        35         40      1           0.303 3500
        35         53      1           0.304 3500
        35         95      1           0.288 5000
        35         96      1           0.289 5000
        35        121      1           0.289 5000
        35        187      1           0.288 5000
        36         37      1           0.303 3500
        36         47      1           0.304 3500
        36         50      1           0.304 3500
        36        134      1           0.289 5000
        36        147      1           0.288 5000
        36        148      1           0.289 5000
        36        369      1           0.289 5000
        37         43      1           0.304 3500
        37         48      1           0.304 3500
        37         70      1           0.288 5000
        37        134      1           0.288 5000
        37        135      1           0.289 5000
        37        226      1           0.289 5000
        38         39      1           0.303 3500
        38         46      1           0.303 3500
        38         54      1           0.304 3500
        38        122      1           0.289 5000
        38        160      1           0.289 5000
        38        161      1           0.289 5000
        38        291      1           0.289 5000
        39         42      1           0.303 3500
        39         52      1           0.304 3500
        39        160      1           0.288 5000
        39        173      1           0.289 5000
        39        174      1           0.289 5000
        39        408      1           0.289 5000
        40         41      1           0.303 3500
        40         53      1           0.303 3500
        40        186      1           0.289 5000
        40        187      1           0.289 5000
        40        199      1           0.289 5000
        40        395      1           0.289 5000
        41         49      1           0.303 3500
        41         83      1           0.289 5000
        41        186      1           0.288 5000
        41        212      1           0.289 5000
        41        213      1           0.289 5000
        42         43      1           0.303 3500
        42         52      1           0.304 3500
        42        174      1           0.289 5000
        42        225      1           0.289 5000
        42        238      1           0.288 5000
        42        239      1           0.289 5000
        43         48      1           0.304 3500
        43        225      1           0.288 5000
        43        226      1           0.289 5000
        43        251      1           0.288 5000
        43        317      1           0.289 5000
        44         45      1           0.303 3500
        44         55      1           0.303 3500
        44        109      1           0.289 5000
        44        264      1           0.289 5000
        44        277      1           0.289 5000
        44        278      1           0.289 5000
        45         51      1           0.303 3500
        45        200      1           0.289 5000
        45        264      1           0.288 5000
        45        265      1           0.289 5000
        45        356      1           0.289 5000
        46         47      1           0.303 3500
        46         54      1           0.304 3500
        46        252      1           0.288 5000
        46        290      1           0.289 5000
        46        291      1           0.289 5000
        46        421      1           0.289 5000
        47         50      1           0.304 3500
        47        148      1           0.289 5000
        47        290      1           0.288 5000
        47        303      1           0.288 5000
        47        304      1           0.289 5000
        48         49      1           0.303 3500
        48        135      1           0.289 5000
        48        316      1           0.288 5000
        48        317      1           0.289 5000
        48        329      1           0.288 5000
        49        213      1           0.289 5000
        49        316      1           0.289 5000
        49        342      1           0.288 5000
        49        343      1           0.289 5000
        50         51      1           0.303 3500
        50        304      1           0.289 5000
        50        355      1           0.288 5000
        50        368      1           0.288 5000
        50        369      1           0.289 5000
        51         57      1           0.289 5000
        51        355      1           0.289 5000
        51        356      1           0.289 5000
        51        381      1           0.288 5000
        52         53      1           0.303 3500
        52        239      1           0.289 5000
        52        394      1           0.288 5000
        52        407      1           0.288 5000
        52        408      1           0.288 5000
        53         96      1           0.288 5000
        53        330      1           0.288 5000
        53        394      1           0.288 5000
        53        395      1           0.289 5000
        54         55      1           0.303 3500
        54        161      1           0.288 5000
        54        382      1           0.288 5000
        54        420      1           0.288 5000
        54        421      1           0.289 5000
        55        278      1           0.289 5000
        55        420      1           0.288 5000
        55        433      1           0.288 5000
        55        434      1           0.288 5000
        56         58      1           0.381 5000
        56         64      1           0.270 1250
        56         84      1           0.380 5000
        57         58      1           0.380 5000
        57         59      1           0.266 1250
        57        357      1           0.380 5000
        59        272      1           0.317 1250
        59        363      1           0.308 1250
        59         60      1           0.470 1250
        60         61      1           0.470 1250
        61         62      1           0.470 1250
        62         63      1           0.470 1250
        64         72      1           0.319 1250
        64         65      1           0.470 1250
        65         66      1           0.470 1250
        66         67      1           0.470 1250
        67         68      1           0.470 1250
        69         71      1           0.381 5000
        69         72      1           0.263 1250
        70         71      1           0.380 5000
        70         77      1           0.276 1250
        70        136      1           0.381 5000
        72         73      1           0.470 1250
        73         74      1           0.470 1250
        74         75      1           0.470 1250
        75         76      1           0.470 1250
        77        137      1           0.325 1250
        77        155      1           0.314 1250
        77         78      1           0.470 1250
        78         79      1           0.470 1250
        79         80      1           0.470 1250
        80         81      1           0.470 1250
        82         84      1           0.380 5000
        82         85      1           0.263 1250
        83         84      1           0.380 5000
        83         90      1           0.262 1250
        83        214      1           0.380 5000
        85         86      1           0.470 1250
        86         87      1           0.470 1250
        87         88      1           0.470 1250
        88         89      1           0.470 1250
        90        215      1           0.317 1250
        90        345      1           0.314 1250
        90         91      1           0.470 1250
        91         92      1           0.470 1250
        92         93      1           0.470 1250
        93         94      1           0.470 1250
        95         97      1           0.380 5000
        95         98      1           0.269 1250
        95        110      1           0.381 5000
        96         97      1           0.380 5000
        96        103      1           0.273 1250
        96        396      1           0.380 5000
        98        116      1           0.319 1250
        98        129      1           0.312 1250
        98         99      1           0.470 1250
        99        100      1           0.470 1250
       100        101      1           0.470 1250
       101        102      1           0.470 1250
       103        189      1           0.315 1250
       103        402      1           0.323 1250
       103        104      1           0.470 1250
       104        105      1           0.470 1250
       105        106      1           0.470 1250
       106        107      1           0.470 1250
       108        110      1           0.380 5000
       108        116      1           0.263 1250
       108        123      1           0.381 5000
       109        110      1           0.379 5000
       109        111      1           0.277 1250
       109        279      1           0.380 5000
       111        285      1           0.313 1250
       111        441      1           0.316 1250
       111        112      1           0.470 1250
       112        113      1           0.470 1250
       113        114      1           0.470 1250
       114        115      1           0.470 1250
       116        129      1           0.317 1250
       116        117      1           0.470 1250
       117        118      1           0.470 1250
       118        119      1           0.470 1250
       119        120      1           0.470 1250
       121        123      1           0.380 5000
       121        129      1           0.276 1250
       122        123      1           0.380 5000
       122        124      1           0.264 1250
       122        162      1           0.381 5000
       124        163      1           0.307 1250
       124        181      1           0.318 1250
       124        125      1           0.470 1250
       125        126      1           0.470 1250
       126        127      1           0.470 1250
       127        128      1           0.470 1250
       129        130      1           0.470 1250
       130        131      1           0.470 1250
       131        132      1           0.470 1250
       132        133      1           0.470 1250
       134        136      1           0.380 5000
       134        137      1           0.269 1250
       134        149      1           0.381 5000
       135        136      1           0.381 5000
       135        142      1           0.263 1250
       135        318      1           0.380 5000
       137        155      1           0.306 1250
       137        138      1           0.470 1250
       138        139      1           0.470 1250
       139        140      1           0.470 1250
       140        141      1           0.470 1250
       142        228      1           0.321 1250
       142        319      1           0.320 1250
       142        143      1           0.470 1250
       143        144      1           0.470 1250
       144        145      1           0.470 1250
       145        146      1           0.470 1250
       147        149      1           0.381 5000
       147        155      1           0.266 1250
       148        149      1           0.380 5000
       148        150      1           0.270 1250
       148        305      1           0.380 5000
       150        306      1           0.286 1250
       150        376      1           0.310 1250
       150        151      1           0.470 1250
       151        152      1           0.470 1250
       152        153      1           0.470 1250
       153        154      1           0.470 1250
       155        156      1           0.470 1250
       156        157      1           0.470 1250
       157        158      1           0.470 1250
       158        159      1           0.470 1250
       160        162      1           0.381 5000
       160        163      1           0.270 1250
       160        175      1           0.380 5000
       161        162      1           0.381 5000
       161        168      1           0.277 1250
       161        422      1           0.380 5000
       163        181      1           0.327 1250
       163        164      1           0.470 1250
       164        165      1           0.470 1250
       165        166      1           0.470 1250
       166        167      1           0.470 1250
       168        293      1           0.309 1250
       168        423      1           0.313 1250
       168        169      1           0.470 1250
       169        170      1           0.470 1250
       170        171      1           0.470 1250
       171        172      1           0.470 1250
       173        175      1           0.381 5000
       173        181      1           0.275 1250
       174        175      1           0.379 5000
       174        176      1           0.269 1250
       174        240      1           0.380 5000
       176        415      1           0.321 1250
       176        177      1           0.470 1250
       177        178      1           0.470 1250
       178        179      1           0.470 1250
       179        180      1           0.470 1250
       181        182      1           0.470 1250
       182        183      1           0.470 1250
       183        184      1           0.470 1250
       184        185      1           0.470 1250
       186        188      1           0.380 5000
       186        194      1           0.277 1250
       186        214      1           0.380 5000
       187        188      1           0.380 5000
       187        189      1           0.262 1250
       189        402      1           0.318 1250
       189        190      1           0.470 1250
       190        191      1           0.470 1250
       191        192      1           0.470 1250
       192        193      1           0.470 1250
       194        202      1           0.317 1250
       194        220      1           0.317 1250
       194        195      1           0.470 1250
       195        196      1           0.470 1250
       196        197      1           0.470 1250
       197        198      1           0.470 1250
       199        201      1           0.380 5000
       199        202      1           0.266 1250
       200        201      1           0.380 5000
       200        207      1           0.274 1250
       200        266      1           0.380 5000
       202        220      1           0.317 1250
       202        203      1           0.470 1250
       203        204      1           0.470 1250
       204        205      1           0.470 1250
       205        206      1           0.470 1250
       207        267      1           0.314 1250
       207        280      1           0.313 1250
       207        208      1           0.470 1250
       208        209      1           0.470 1250
       209        210      1           0.470 1250
       210        211      1           0.470 1250
       212        214      1           0.380 5000
       212        220      1           0.265 1250
       213        214      1           0.380 5000
       213        215      1           0.274 1250
       213        344      1           0.381 5000
       215        345      1           0.323 1250
       215        216      1           0.470 1250
       216        217      1           0.470 1250
       217        218      1           0.470 1250
       218        219      1           0.470 1250
       220        221      1           0.470 1250
       221        222      1           0.470 1250
       222        223      1           0.470 1250
       223        224      1           0.470 1250
       225        227      1           0.380 5000
       225        233      1           0.262 1250
       225        240      1           0.380 5000
       226        227      1           0.380 5000
       226        228      1           0.268 1250
       228        229      1           0.470 1250
       229        230      1           0.470 1250
       230        231      1           0.470 1250
       231        232      1           0.470 1250
       233        234      1           0.470 1250
       234        235      1           0.470 1250
       235        236      1           0.470 1250
       236        237      1           0.470 1250
       238        240      1           0.380 5000
       238        241      1           0.267 1250
       238        253      1           0.380 5000
       239        240      1           0.381 5000
       239        246      1           0.273 1250
       239        409      1           0.380 5000
       241        242      1           0.470 1250
       242        243      1           0.470 1250
       243        244      1           0.470 1250
       244        245      1           0.470 1250
       246        415      1           0.324 1250
       246        247      1           0.470 1250
       247        248      1           0.470 1250
       248        249      1           0.470 1250
       249        250      1           0.470 1250
       251        253      1           0.380 5000
       251        259      1           0.266 1250
       252        253      1           0.381 5000
       252        254      1           0.275 1250
       252        292      1           0.380 5000
       254        298      1           0.274 1250
       254        311      1           0.234 1250
       254        255      1           0.470 1250
       255        256      1           0.470 1250
       256        257      1           0.470 1250
       257        258      1           0.470 1250
       259        260      1           0.470 1250
       260        261      1           0.470 1250
       261        262      1           0.470 1250
       262        263      1           0.470 1250
       264        266      1           0.380 5000
       264        267      1           0.262 1250
       264        279      1           0.380 5000
       265        266      1           0.380 5000
       265        272      1           0.278 1250
       267        280      1           0.315 1250
       267        268      1           0.470 1250
       268        269      1           0.470 1250
       269        270      1           0.470 1250
       270        271      1           0.470 1250
       272        363      1           0.313 1250
       272        273      1           0.470 1250
       273        274      1           0.470 1250
       274        275      1           0.470 1250
       275        276      1           0.470 1250
       277        279      1           0.380 5000
       277        280      1           0.275 1250
       278        279      1           0.380 5000
       278        285      1           0.265 1250
       278        435      1           0.380 5000
       280        281      1           0.470 1250
       281        282      1           0.470 1250
       282        283      1           0.470 1250
       283        284      1           0.470 1250
       285        441      1           0.309 1250
       285        286      1           0.470 1250
       286        287      1           0.470 1250
       287        288      1           0.470 1250
       288        289      1           0.470 1250
       290        292      1           0.380 5000
       290        298      1           0.277 1250
       290        305      1           0.380 5000
       291        292      1           0.380 5000
       291        293      1           0.271 1250
       293        423      1           0.289 1250
       293        294      1           0.470 1250
       294        295      1           0.470 1250
       295        296      1           0.470 1250
       296        297      1           0.470 1250
       298        311      1           0.277 1250
       298        299      1           0.470 1250
       299        300      1           0.470 1250
       300        301      1           0.470 1250
       301        302      1           0.470 1250
       303        305      1           0.380 5000
       303        311      1           0.274 1250
       304        305      1           0.381 5000
       304        306      1           0.266 1250
       304        370      1           0.381 5000
       306        376      1           0.310 1250
       306        307      1           0.470 1250
       307        308      1           0.470 1250
       308        309      1           0.470 1250
       309        310      1           0.470 1250
       311        312      1           0.470 1250
       312        313      1           0.470 1250
       313        314      1           0.470 1250
       314        315      1           0.470 1250
       316        318      1           0.380 5000
       316        324      1           0.265 1250
       316        344      1           0.381 5000
       317        318      1           0.381 5000
       317        319      1           0.274 1250
       319        320      1           0.470 1250
       320        321      1           0.470 1250
       321        322      1           0.470 1250
       322        323      1           0.470 1250
       324        332      1           0.324 1250
       324        350      1           0.328 1250
       324        325      1           0.470 1250
       325        326      1           0.470 1250
       326        327      1           0.470 1250
       327        328      1           0.470 1250
       329        331      1           0.380 5000
       329        332      1           0.277 1250
       330        331      1           0.381 5000
       330        337      1           0.265 1250
       330        396      1           0.380 5000
       332        350      1           0.316 1250
       332        333      1           0.470 1250
       333        334      1           0.470 1250
       334        335      1           0.470 1250
       335        336      1           0.470 1250
       337        397      1           0.326 1250
       337        410      1           0.315 1250
       337        338      1           0.470 1250
       338        339      1           0.470 1250
       339        340      1           0.470 1250
       340        341      1           0.470 1250
       342        344      1           0.381 5000
       342        350      1           0.265 1250
       343        344      1           0.380 5000
       343        345      1           0.271 1250
       345        346      1           0.470 1250
       346        347      1           0.470 1250
       347        348      1           0.470 1250
       348        349      1           0.470 1250
       350        351      1           0.470 1250
       351        352      1           0.470 1250
       352        353      1           0.470 1250
       353        354      1           0.470 1250
       355        357      1           0.381 5000
       355        358      1           0.273 1250
       355        370      1           0.380 5000
       356        357      1           0.381 5000
       356        363      1           0.266 1250
       358        371      1           0.307 1250
       358        389      1           0.304 1250
       358        359      1           0.470 1250
       359        360      1           0.470 1250
       360        361      1           0.470 1250
       361        362      1           0.470 1250
       363        364      1           0.470 1250
       364        365      1           0.470 1250
       365        366      1           0.470 1250
       366        367      1           0.470 1250
       368        370      1           0.381 5000
       368        371      1           0.263 1250
       368        383      1           0.380 5000
       369        370      1           0.380 5000
       369        376      1           0.276 1250
       371        389      1           0.315 1250
       371        372      1           0.470 1250
       372        373      1           0.470 1250
       373        374      1           0.470 1250
       374        375      1           0.470 1250
       376        377      1           0.470 1250
       377        378      1           0.470 1250
       378        379      1           0.470 1250
       379        380      1           0.470 1250
       381        383      1           0.380 5000
       381        389      1           0.275 1250
       382        383      1           0.380 5000
       382        384      1           0.263 1250
       382        422      1           0.380 5000
       384        428      1           0.307 1250
       384        436      1           0.316 1250
       384        385      1           0.470 1250
       385        386      1           0.470 1250
       386        387      1           0.470 1250
       387        388      1           0.470 1250
       389        390      1           0.470 1250
       390        391      1           0.470 1250
       391        392      1           0.470 1250
       392        393      1           0.470 1250
       394        396      1           0.381 5000
       394        397      1           0.266 1250
       394        409      1           0.380 5000
       395        396      1           0.380 5000
       395        402      1           0.273 1250
       397        410      1           0.324 1250
       397        398      1           0.470 1250
       398        399      1           0.470 1250
       399        400      1           0.470 1250
       400        401      1           0.470 1250
       402        403      1           0.470 1250
       403        404      1           0.470 1250
       404        405      1           0.470 1250
       405        406      1           0.470 1250
       407        409      1           0.380 5000
       407        410      1           0.277 1250
       408        409      1           0.380 5000
       408        415      1           0.263 1250
       410        411      1           0.470 1250
       411        412      1           0.470 1250
       412        413      1           0.470 1250
       413        414      1           0.470 1250
       415        416      1           0.470 1250
       416        417      1           0.470 1250
       417        418      1           0.470 1250
       418        419      1           0.470 1250
       420        422      1           0.380 5000
       420        428      1           0.274 1250
       420        435      1           0.381 5000
       421        422      1           0.380 5000
       421        423      1           0.265 1250
       423        424      1           0.470 1250
       424        425      1           0.470 1250
       425        426      1           0.470 1250
       426        427      1           0.470 1250
       428        436      1           0.303 1250
       428        429      1           0.470 1250
       429        430      1           0.470 1250
       430        431      1           0.470 1250
       431        432      1           0.470 1250
       433        435      1           0.380 5000
       433        436      1           0.274 1250
       434        435      1           0.380 5000
       434        441      1           0.268 1250
       436        437      1           0.470 1250
       437        438      1           0.470 1250
       438        439      1           0.470 1250
       439        440      1           0.470 1250
       441        442      1           0.470 1250
       442        443      1           0.470 1250
       443        444      1           0.470 1250
       444        445      1           0.470 1250

 [ angles ]
;  i j k     funct  angle  force.c.
    59   60   61   2    180.0  25.0
    60   61   62   2    180.0  25.0
    61   62   63   2    180.0  25.0
    64   65   66   2    180.0  25.0
    65   66   67   2    180.0  25.0
    66   67   68   2    180.0  25.0
    72   73   74   2    180.0  25.0
    73   74   75   2    180.0  25.0
    74   75   76   2    180.0  25.0
    77   78   79   2    180.0  25.0
    78   79   80   2    180.0  25.0
    79   80   81   2    180.0  25.0
    85   86   87   2    180.0  25.0
    86   87   88   2    180.0  25.0
    87   88   89   2    180.0  25.0
    90   91   92   2    180.0  25.0
    91   92   93   2    180.0  25.0
    92   93   94   2    180.0  25.0
    98   99  100   2    180.0  25.0
    99  100  101   2    180.0  25.0
   100  101  102   2    180.0  25.0
   103  104  105   2    180.0  25.0
   104  105  106   2    180.0  25.0
   105  106  107   2    180.0  25.0
   111  112  113   2    180.0  25.0
   112  113  114   2    180.0  25.0
   113  114  115   2    180.0  25.0
   116  117  118   2    180.0  25.0
   117  118  119   2    180.0  25.0
   118  119  120   2    180.0  25.0
   124  125  126   2    180.0  25.0
   125  126  127   2    180.0  25.0
   126  127  128   2    180.0  25.0
   129  130  131   2    180.0  25.0
   130  131  132   2    180.0  25.0
   131  132  133   2    180.0  25.0
   137  138  139   2    180.0  25.0
   138  139  140   2    180.0  25.0
   139  140  141   2    180.0  25.0
   142  143  144   2    180.0  25.0
   143  144  145   2    180.0  25.0
   144  145  146   2    180.0  25.0
   150  151  152   2    180.0  25.0
   151  152  153   2    180.0  25.0
   152  153  154   2    180.0  25.0
   155  156  157   2    180.0  25.0
   156  157  158   2    180.0  25.0
   157  158  159   2    180.0  25.0
   163  164  165   2    180.0  25.0
   164  165  166   2    180.0  25.0
   165  166  167   2    180.0  25.0
   168  169  170   2    180.0  25.0
   169  170  171   2    180.0  25.0
   170  171  172   2    180.0  25.0
   176  177  178   2    180.0  25.0
   177  178  179   2    180.0  25.0
   178  179  180   2    180.0  25.0
   181  182  183   2    180.0  25.0
   182  183  184   2    180.0  25.0
   183  184  185   2    180.0  25.0
   189  190  191   2    180.0  25.0
   190  191  192   2    180.0  25.0
   191  192  193   2    180.0  25.0
   194  195  196   2    180.0  25.0
   195  196  197   2    180.0  25.0
   196  197  198   2    180.0  25.0
   202  203  204   2    180.0  25.0
   203  204  205   2    180.0  25.0
   204  205  206   2    180.0  25.0
   207  208  209   2    180.0  25.0
   208  209  210   2    180.0  25.0
   209  210  211   2    180.0  25.0
   215  216  217   2    180.0  25.0
   216  217  218   2    180.0  25.0
   217  218  219   2    180.0  25.0
   220  221  222   2    180.0  25.0
   221  222  223   2    180.0  25.0
   222  223  224   2    180.0  25.0
   228  229  230   2    180.0  25.0
   229  230  231   2    180.0  25.0
   230  231  232   2    180.0  25.0
   233  234  235   2    180.0  25.0
   234  235  236   2    180.0  25.0
   235  236  237   2    180.0  25.0
   241  242  243   2    180.0  25.0
   242  243  244   2    180.0  25.0
   243  244  245   2    180.0  25.0
   246  247  248   2    180.0  25.0
   247  248  249   2    180.0  25.0
   248  249  250   2    180.0  25.0
   254  255  256   2    180.0  25.0
   255  256  257   2    180.0  25.0
   256  257  258   2    180.0  25.0
   259  260  261   2    180.0  25.0
   260  261  262   2    180.0  25.0
   261  262  263   2    180.0  25.0
   267  268  269   2    180.0  25.0
   268  269  270   2    180.0  25.0
   269  270  271   2    180.0  25.0
   272  273  274   2    180.0  25.0
   273  274  275   2    180.0  25.0
   274  275  276   2    180.0  25.0
   280  281  282   2    180.0  25.0
   281  282  283   2    180.0  25.0
   282  283  284   2    180.0  25.0
   285  286  287   2    180.0  25.0
   286  287  288   2    180.0  25.0
   287  288  289   2    180.0  25.0
   293  294  295   2    180.0  25.0
   294  295  296   2    180.0  25.0
   295  296  297   2    180.0  25.0
   298  299  300   2    180.0  25.0
   299  300  301   2    180.0  25.0
   300  301  302   2    180.0  25.0
   306  307  308   2    180.0  25.0
   307  308  309   2    180.0  25.0
   308  309  310   2    180.0  25.0
   311  312  313   2    180.0  25.0
   312  313  314   2    180.0  25.0
   313  314  315   2    180.0  25.0
   319  320  321   2    180.0  25.0
   320  321  322   2    180.0  25.0
   321  322  323   2    180.0  25.0
   324  325  326   2    180.0  25.0
   325  326  327   2    180.0  25.0
   326  327  328   2    180.0  25.0
   332  333  334   2    180.0  25.0
   333  334  335   2    180.0  25.0
   334  335  336   2    180.0  25.0
   337  338  339   2    180.0  25.0
   338  339  340   2    180.0  25.0
   339  340  341   2    180.0  25.0
   345  346  347   2    180.0  25.0
   346  347  348   2    180.0  25.0
   347  348  349   2    180.0  25.0
   350  351  352   2    180.0  25.0
   351  352  353   2    180.0  25.0
   352  353  354   2    180.0  25.0
   358  359  360   2    180.0  25.0
   359  360  361   2    180.0  25.0
   360  361  362   2    180.0  25.0
   363  364  365   2    180.0  25.0
   364  365  366   2    180.0  25.0
   365  366  367   2    180.0  25.0
   371  372  373   2    180.0  25.0
   372  373  374   2    180.0  25.0
   373  374  375   2    180.0  25.0
   376  377  378   2    180.0  25.0
   377  378  379   2    180.0  25.0
   378  379  380   2    180.0  25.0
   384  385  386   2    180.0  25.0
   385  386  387   2    180.0  25.0
   386  387  388   2    180.0  25.0
   389  390  391   2    180.0  25.0
   390  391  392   2    180.0  25.0
   391  392  393   2    180.0  25.0
   397  398  399   2    180.0  25.0
   398  399  400   2    180.0  25.0
   399  400  401   2    180.0  25.0
   402  403  404   2    180.0  25.0
   403  404  405   2    180.0  25.0
   404  405  406   2    180.0  25.0
   410  411  412   2    180.0  25.0
   411  412  413   2    180.0  25.0
   412  413  414   2    180.0  25.0
   415  416  417   2    180.0  25.0
   416  417  418   2    180.0  25.0
   417  418  419   2    180.0  25.0
   423  424  425   2    180.0  25.0
   424  425  426   2    180.0  25.0
   425  426  427   2    180.0  25.0
   428  429  430   2    180.0  25.0
   429  430  431   2    180.0  25.0
   430  431  432   2    180.0  25.0
   436  437  438   2    180.0  25.0
   437  438  439   2    180.0  25.0
   438  439  440   2    180.0  25.0
   441  442  443   2    180.0  25.0
   442  443  444   2    180.0  25.0
   443  444  445   2    180.0  25.0
