Protein in INSANE! Membrane UpperLeaflet>POPC=1.0 LowerLeaflet>POPC=1.0
12676
    1AU     AUC    1   5.748   5.860   6.004
    1AU     AUC    2   6.013   5.858   5.851
    1AU     AUC    3   5.994   5.844   6.165
    1AU     AUC    4   5.500   5.865   5.834
    1AU     AUC    5   5.485   5.883   6.154
    1AU     AUC    6   5.602   6.118   6.000
    1AU     AUC    7   5.914   6.109   5.997
    1AU     AUC    8   5.584   5.616   6.011
    1AU     AUC    9   5.882   5.592   6.022
    1AU     AUC   10   5.740   5.706   6.262
    1AU     AUC   11   5.759   6.017   6.263
    1AU     AUC   12   5.748   5.700   5.744
    1AU     AUC   13   5.748   6.000   5.744
    1AU     AUC   14   6.268   5.852   5.697
    1AU     AUC   15   6.266   5.862   5.996
    1AU     AUC   16   6.248   5.846   6.316
    1AU     AUC   17   5.245   5.858   5.674
    1AU     AUC   18   5.230   5.887   5.981
    1AU     AUC   19   5.232   5.911   6.308
    1AU     AUC   20   5.460   6.384   6.000
    1AU     AUC   21   5.771   6.380   6.004
    1AU     AUC   22   6.065   6.369   6.005
    1AU     AUC   23   5.401   5.368   6.015
    1AU     AUC   24   5.710   5.340   6.004
    1AU     AUC   25   6.028   5.331   6.026
    1AU     AUC   26   5.736   5.554   6.513
    1AU     AUC   27   5.757   5.861   6.533
    1AU     AUC   28   5.763   6.169   6.523
    1AU     AUC   29   5.754   5.524   5.505
    1AU     AUC   30   5.768   5.840   5.481
    1AU     AUC   31   5.755   6.149   5.481
    1AU     AUC   32   6.002   5.695   6.428
    1AU     AUC   33   6.017   5.997   6.431
    1AU     AUC   34   6.028   5.689   5.592
    1AU     AUC   35   6.032   5.995   5.583
    1AU     AUC   36   5.476   5.740   6.427
    1AU     AUC   37   5.493   6.042   6.429
    1AU     AUC   38   5.507   5.702   5.567
    1AU     AUC   39   5.499   6.008   5.574
    1AU     AUC   40   6.171   6.118   5.836
    1AU     AUC   41   6.182   6.092   6.163
    1AU     AUC   42   5.338   6.124   5.842
    1AU     AUC   43   5.343   6.148   6.163
    1AU     AUC   44   6.163   5.585   5.867
    1AU     AUC   45   6.136   5.565   6.169
    1AU     AUC   46   5.325   5.611   5.840
    1AU     AUC   47   5.319   5.638   6.184
    1AU     AUC   48   5.604   6.281   6.273
    1AU     AUC   49   5.921   6.280   6.251
    1AU     AUC   50   5.547   5.451   6.257
    1AU     AUC   51   5.866   5.433   6.273
    1AU     AUC   52   5.601   6.272   5.739
    1AU     AUC   53   5.917   6.260   5.732
    1AU     AUC   54   5.574   5.454   5.741
    1AU     AUC   55   5.903   5.436   5.764
    1AU    AUSL   56   6.259   5.729   6.702
    1AU    AUSL   57   6.012   5.369   6.622
    1AU     AUL   58   6.160   5.292   6.976
    1AU       S   59   6.369   5.089   6.603
    1AU     LIG   60   6.181   4.760   6.845
    1AU     LIG   61   6.361   4.510   7.191
    1AU     LIG   62   6.590   4.200   7.468
    1AU     LIG   63   6.679   3.944   7.861
    1AU     LIG   64   6.716   3.799   8.319
    1AU     LIG   65   6.925   3.605   8.693
    1AU       S   66   6.321   5.664   6.790
    1AU     LIG   67   6.436   5.583   7.262
    1AU     LIG   68   6.635   5.437   7.679
    1AU     LIG   69   6.938   5.414   8.059
    1AU     LIG   70   7.299   5.445   8.386
    1AU     LIG   71   7.635   5.597   8.696
    1AU     LIG   72   7.901   5.584   9.086
    1AU    AUSL   73   5.856   5.693   6.822
    1AU    AUSL   74   5.662   6.059   6.785
    1AU     AUL   75   5.809   6.017   7.200
    1AU       S   76   5.900   5.658   6.966
    1AU     LIG   77   5.896   5.511   7.374
    1AU     LIG   78   6.130   5.284   7.738
    1AU     LIG   79   6.225   5.053   8.169
    1AU     LIG   80   6.232   4.823   8.609
    1AU     LIG   81   6.388   4.705   9.054
    1AU     LIG   82   6.514   4.805   9.503
    1AU       S   83   5.400   5.822   7.151
    1AU     LIG   84   5.256   5.732   7.598
    1AU     LIG   85   5.066   5.641   8.029
    1AU     LIG   86   5.004   5.735   8.487
    1AU     LIG   87   5.075   6.029   8.869
    1AU     LIG   88   4.966   6.284   9.255
    1AU     LIG   89   4.703   6.469   9.609
    1AU    AUSL   90   6.063   6.089   6.787
    1AU    AUSL   91   6.382   6.058   6.494
    1AU     AUL   92   6.478   6.004   6.994
    1AU       S   93   6.089   6.179   6.886
    1AU     LIG   94   6.237   6.353   7.278
    1AU     LIG   95   6.381   6.453   7.740
    1AU     LIG   96   6.465   6.647   8.189
    1AU     LIG   97   6.537   6.809   8.664
    1AU     LIG   98   6.660   6.875   9.142
    1AU     LIG   99   6.618   6.821   9.621
    1AU       S  100   6.626   6.080   6.548
    1AU     LIG  101   6.964   6.098   6.857
    1AU     LIG  102   7.210   6.328   7.205
    1AU     LIG  103   7.478   6.626   7.484
    1AU     LIG  104   7.754   6.751   7.872
    1AU     LIG  105   8.178   6.822   8.130
    1AU     LIG  106   8.583   6.963   8.372
    1AU    AUSL  107   6.302   5.885   5.379
    1AU    AUSL  108   6.072   6.277   5.338
    1AU     AUL  109   6.432   6.226   4.963
    1AU       S  110   6.348   5.912   5.238
    1AU     LIG  111   6.622   5.796   4.822
    1AU     LIG  112   6.636   5.581   4.419
    1AU     LIG  113   6.794   5.489   3.979
    1AU     LIG  114   7.195   5.532   3.700
    1AU     LIG  115   7.592   5.646   3.437
    1AU     LIG  116   7.730   5.693   2.981
    1AU       S  117   6.075   6.335   5.180
    1AU     LIG  118   6.318   6.701   5.073
    1AU     LIG  119   6.679   6.731   4.768
    1AU     LIG  120   6.990   6.889   4.416
    1AU     LIG  121   7.203   7.054   4.011
    1AU     LIG  122   7.350   7.409   3.709
    1AU     LIG  123   7.472   7.880   3.631
    1AU    AUSL  124   6.041   5.577   5.212
    1AU    AUSL  125   6.381   5.516   5.530
    1AU     AUL  126   6.452   5.500   5.176
    1AU       S  127   6.475   5.086   5.383
    1AU     LIG  128   6.588   4.866   4.995
    1AU     LIG  129   6.809   4.512   4.784
    1AU     LIG  130   7.057   4.300   4.435
    1AU     LIG  131   7.456   4.362   4.156
    1AU     LIG  132   7.826   4.461   3.862
    1AU     LIG  133   8.190   4.289   3.608
    1AU       S  134   6.145   5.800   4.952
    1AU     LIG  135   6.230   5.402   4.731
    1AU     LIG  136   6.301   5.209   4.301
    1AU     LIG  137   6.387   5.176   3.827
    1AU     LIG  138   6.397   5.147   3.334
    1AU     LIG  139   6.387   5.056   2.840
    1AU     LIG  140   6.608   5.012   2.397
    1AU    AUSL  141   5.894   5.921   5.396
    1AU    AUSL  142   5.638   5.673   5.183
    1AU     AUL  143   5.836   5.471   5.059
    1AU       S  144   5.364   5.796   4.869
    1AU     LIG  145   5.409   5.406   4.609
    1AU     LIG  146   5.267   5.188   4.186
    1AU     LIG  147   5.093   4.936   3.792
    1AU     LIG  148   5.002   4.790   3.330
    1AU     LIG  149   4.828   4.906   2.889
    1AU     LIG  150   4.684   5.133   2.478
    1AU       S  151   6.032   5.904   5.003
    1AU     LIG  152   6.176   5.852   4.479
    1AU     LIG  153   6.291   5.664   4.043
    1AU     LIG  154   6.451   5.627   3.591
    1AU     LIG  155   6.520   5.806   3.161
    1AU     LIG  156   6.722   6.167   2.920
    1AU     LIG  157   6.850   6.374   2.519
    1AU    AUSL  158   5.281   5.942   6.716
    1AU    AUSL  159   5.425   6.347   6.633
    1AU     AUL  160   5.505   6.267   6.953
    1AU       S  161   5.188   5.960   7.119
    1AU     LIG  162   4.951   5.572   7.218
    1AU     LIG  163   4.794   5.415   7.648
    1AU     LIG  164   4.596   5.386   8.104
    1AU     LIG  165   4.275   5.323   8.482
    1AU     LIG  166   4.037   5.446   8.898
    1AU     LIG  167   3.709   5.686   9.185
    1AU       S  168   5.061   6.361   6.838
    1AU     LIG  169   5.082   6.613   7.237
    1AU     LIG  170   4.980   6.929   7.576
    1AU     LIG  171   4.832   6.988   8.021
    1AU     LIG  172   4.751   7.216   8.431
    1AU     LIG  173   4.573   7.589   8.673
    1AU     LIG  174   4.340   8.013   8.707
    1AU    AUSL  175   5.572   5.727   6.537
    1AU    AUSL  176   5.031   5.717   6.484
    1AU     AUL  177   5.147   5.707   6.739
    1AU       S  178   4.864   5.345   6.764
    1AU     LIG  179   4.514   5.136   6.571
    1AU     LIG  180   4.125   4.878   6.607
    1AU     LIG  181   3.912   4.610   6.945
    1AU     LIG  182   3.730   4.337   7.299
    1AU     LIG  183   3.506   4.138   7.663
    1AU     LIG  184   3.199   4.235   8.024
    1AU       S  185   5.449   5.677   7.080
    1AU     LIG  186   5.397   5.317   7.330
    1AU     LIG  187   5.257   5.222   7.774
    1AU     LIG  188   5.046   5.141   8.200
    1AU     LIG  189   4.889   4.899   8.588
    1AU     LIG  190   4.838   4.741   9.039
    1AU     LIG  191   4.739   4.885   9.468
    1AU    AUSL  192   5.340   5.835   5.403
    1AU    AUSL  193   5.497   5.387   5.431
    1AU     AUL  194   5.371   5.434   5.148
    1AU       S  195   5.080   5.772   5.097
    1AU     LIG  196   4.935   5.583   4.678
    1AU     LIG  197   4.846   5.483   4.209
    1AU     LIG  198   4.652   5.247   3.823
    1AU     LIG  199   4.298   5.114   3.500
    1AU     LIG  200   4.002   5.188   3.119
    1AU     LIG  201   3.837   5.516   2.812
    1AU       S  202   5.058   5.107   5.319
    1AU     LIG  203   4.794   4.736   5.308
    1AU     LIG  204   4.435   4.540   5.090
    1AU     LIG  205   4.185   4.315   4.742
    1AU     LIG  206   4.239   4.093   4.301
    1AU     LIG  207   4.316   3.815   3.899
    1AU     LIG  208   4.160   3.475   3.593
    1AU    AUSL  209   5.612   6.108   5.176
    1AU    AUSL  210   5.116   6.169   5.454
    1AU     AUL  211   5.281   6.167   5.155
    1AU       S  212   4.938   6.472   5.256
    1AU     LIG  213   4.612   6.666   4.978
    1AU     LIG  214   4.507   6.704   4.510
    1AU     LIG  215   4.452   6.874   4.066
    1AU     LIG  216   4.144   7.033   3.747
    1AU     LIG  217   3.698   7.168   3.730
    1AU     LIG  218   3.451   7.524   3.572
    1AU       S  219   5.557   5.859   4.958
    1AU     LIG  220   5.648   5.834   4.473
    1AU     LIG  221   5.322   5.721   4.123
    1AU     LIG  222   5.108   5.861   3.693
    1AU     LIG  223   5.100   6.101   3.252
    1AU     LIG  224   5.124   6.230   2.770
    1AU     LIG  225   4.955   6.269   2.308
    1AU    AUSL  226   6.375   6.456   5.944
    1AU    AUSL  227   6.404   6.211   5.602
    1AU     AUL  228   6.534   6.670   5.757
    1AU       S  229   6.546   6.338   5.397
    1AU     LIG  230   6.903   6.350   5.081
    1AU     LIG  231   7.145   6.481   4.690
    1AU     LIG  232   7.460   6.635   4.359
    1AU     LIG  233   7.908   6.576   4.170
    1AU     LIG  234   8.284   6.804   3.993
    1AU     LIG  235   8.461   7.034   3.601
    1AU       S  236   6.823   6.323   5.893
    1AU     LIG  237   7.269   6.435   6.084
    1AU     LIG  238   7.777   6.497   6.051
    1AU     LIG  239   8.275   6.588   6.014
    1AU     LIG  240   8.694   6.890   6.013
    1AU     LIG  241   8.998   7.301   6.010
    1AU     LIG  242   9.217   7.709   6.179
    1AU    AUSL  243   6.597   5.898   5.773
    1AU    AUSL  244   6.567   5.732   6.210
    1AU     AUL  245   6.859   5.668   5.987
    1AU       S  246   6.812   6.098   5.815
    1AU     LIG  247   7.280   5.984   5.850
    1AU     LIG  248   7.782   6.048   5.792
    1AU     LIG  249   8.274   6.132   5.722
    1AU     LIG  250   8.766   6.077   5.668
    1AU     LIG  251   9.206   6.284   5.651
    1AU     LIG  252   9.567   6.599   5.491
    1AU       S  253   6.860   5.252   6.237
    1AU     LIG  254   7.271   5.036   6.224
    1AU     LIG  255   7.692   4.811   6.221
    1AU     LIG  256   8.094   4.574   6.237
    1AU     LIG  257   8.515   4.411   6.210
    1AU     LIG  258   8.876   4.335   6.474
    1AU     LIG  259   9.201   4.413   6.818
    1AU    AUSL  260   6.380   6.071   6.087
    1AU    AUSL  261   6.267   6.421   6.337
    1AU     AUL  262   6.516   6.451   6.221
    1AU       S  263   6.487   6.215   6.588
    1AU     LIG  264   6.935   6.483   6.528
    1AU     LIG  265   7.150   6.739   6.897
    1AU     LIG  266   7.354   7.077   7.200
    1AU     LIG  267   7.568   7.537   7.255
    1AU     LIG  268   7.831   7.955   7.339
    1AU     LIG  269   8.063   8.343   7.521
    1AU       S  270   6.818   6.134   6.109
    1AU     LIG  271   7.134   6.007   6.354
    1AU     LIG  272   7.614   6.060   6.285
    1AU     LIG  273   8.111   6.112   6.207
    1AU     LIG  274   8.606   6.187   6.143
    1AU     LIG  275   9.091   6.314   6.158
    1AU     LIG  276   9.449   6.556   6.397
    1AU    AUSL  277   5.104   6.415   6.068
    1AU    AUSL  278   5.136   6.162   6.409
    1AU     AUL  279   5.098   6.605   6.337
    1AU       S  280   4.917   6.230   6.619
    1AU     LIG  281   4.669   6.291   7.097
    1AU     LIG  282   4.623   6.547   7.528
    1AU     LIG  283   4.392   6.721   7.940
    1AU     LIG  284   4.033   6.803   8.284
    1AU     LIG  285   3.601   7.008   8.428
    1AU     LIG  286   3.210   7.281   8.552
    1AU       S  287   4.726   6.463   6.115
    1AU     LIG  288   4.578   6.892   6.196
    1AU     LIG  289   4.317   7.319   6.109
    1AU     LIG  290   3.964   7.667   6.120
    1AU     LIG  291   3.529   7.894   6.046
    1AU     LIG  292   3.103   8.132   6.117
    1AU     LIG  293   2.694   8.157   6.403
    1AU    AUSL  294   5.170   6.080   5.840
    1AU    AUSL  295   5.274   6.499   5.703
    1AU     AUL  296   4.992   6.409   5.721
    1AU       S  297   4.598   6.370   5.958
    1AU     LIG  298   4.526   6.652   5.541
    1AU     LIG  299   4.119   6.908   5.334
    1AU     LIG  300   3.597   6.943   5.294
    1AU     LIG  301   3.074   6.928   5.249
    1AU     LIG  302   2.586   6.757   5.210
    1AU     LIG  303   2.117   6.906   5.099
    1AU       S  304   5.068   6.742   5.402
    1AU     LIG  305   4.955   7.035   5.062
    1AU     LIG  306   4.874   7.419   4.814
    1AU     LIG  307   4.525   7.703   4.806
    1AU     LIG  308   4.437   8.104   4.583
    1AU     LIG  309   4.214   8.461   4.383
    1AU     LIG  310   3.842   8.754   4.306
    1AU    AUSL  311   4.890   6.015   6.135
    1AU    AUSL  312   4.935   5.749   5.805
    1AU     AUL  313   4.776   6.010   5.738
    1AU       S  314   4.597   5.575   5.957
    1AU     LIG  315   4.237   5.472   6.281
    1AU     LIG  316   3.753   5.361   6.365
    1AU     LIG  317   3.316   5.163   6.257
    1AU     LIG  318   2.912   5.035   5.950
    1AU     LIG  319   2.415   5.033   5.882
    1AU     LIG  320   2.005   4.923   5.644
    1AU       S  321   4.692   6.089   6.212
    1AU     LIG  322   4.448   6.399   6.517
    1AU     LIG  323   4.018   6.610   6.627
    1AU     LIG  324   3.532   6.699   6.702
    1AU     LIG  325   3.047   6.797   6.707
    1AU     LIG  326   2.627   7.035   6.758
    1AU     LIG  327   2.184   6.886   6.816
    1AU    AUSL  328   6.434   5.363   6.071
    1AU    AUSL  329   6.199   5.609   6.330
    1AU     AUL  330   6.619   5.591   6.431
    1AU       S  331   6.604   5.099   6.068
    1AU     LIG  332   6.861   4.741   6.107
    1AU     LIG  333   7.280   4.528   6.072
    1AU     LIG  334   7.710   4.337   5.975
    1AU     LIG  335   8.151   4.136   5.954
    1AU     LIG  336   8.487   3.890   6.186
    1AU     LIG  337   8.865   3.815   6.505
    1AU       S  338   6.408   5.225   6.586
    1AU     LIG  339   6.687   4.865   6.889
    1AU     LIG  340   6.887   4.539   7.196
    1AU     LIG  341   7.115   4.242   7.506
    1AU     LIG  342   7.471   4.192   7.829
    1AU     LIG  343   7.815   4.269   8.166
    1AU     LIG  344   8.246   4.247   8.391
    1AU    AUSL  345   6.279   5.687   5.884
    1AU    AUSL  346   6.211   5.212   5.765
    1AU     AUL  347   6.568   5.429   5.709
    1AU       S  348   6.588   5.250   6.119
    1AU     LIG  349   6.999   5.126   5.778
    1AU     LIG  350   7.470   4.900   5.758
    1AU     LIG  351   7.962   4.739   5.767
    1AU     LIG  352   8.407   4.514   5.703
    1AU     LIG  353   8.825   4.430   5.488
    1AU     LIG  354   9.209   4.693   5.533
    1AU       S  355   6.477   4.980   5.578
    1AU     LIG  356   6.340   4.579   5.346
    1AU     LIG  357   6.551   4.192   5.107
    1AU     LIG  358   6.810   3.816   4.896
    1AU     LIG  359   7.051   3.359   4.859
    1AU     LIG  360   7.478   3.128   4.771
    1AU     LIG  361   7.966   3.120   4.667
    1AU    AUSL  362   5.045   5.381   5.995
    1AU    AUSL  363   5.127   5.520   5.541
    1AU     AUL  364   4.833   5.573   5.543
    1AU       S  365   5.047   5.171   5.554
    1AU     LIG  366   4.567   5.138   5.527
    1AU     LIG  367   4.232   5.008   5.255
    1AU     LIG  368   3.984   4.760   4.962
    1AU     LIG  369   3.705   4.526   4.691
    1AU     LIG  370   3.468   4.546   4.292
    1AU     LIG  371   3.172   4.584   3.925
    1AU       S  372   4.751   5.344   5.931
    1AU     LIG  373   4.454   5.062   6.058
    1AU     LIG  374   4.016   5.012   6.109
    1AU     LIG  375   3.645   4.780   6.272
    1AU     LIG  376   3.169   4.657   6.198
    1AU     LIG  377   2.744   4.420   6.092
    1AU     LIG  378   2.501   4.031   5.947
    1AU    AUSL  379   5.197   5.751   6.124
    1AU    AUSL  380   5.271   5.407   6.364
    1AU     AUL  381   4.914   5.502   6.321
    1AU       S  382   5.029   5.241   6.678
    1AU     LIG  383   4.926   4.980   6.311
    1AU     LIG  384   4.554   4.654   6.379
    1AU     LIG  385   4.200   4.355   6.599
    1AU     LIG  386   3.898   4.075   6.890
    1AU     LIG  387   3.671   3.776   7.223
    1AU     LIG  388   3.535   3.306   7.352
    1AU       S  389   4.643   5.636   5.984
    1AU     LIG  390   4.181   5.403   5.779
    1AU     LIG  391   3.693   5.358   5.849
    1AU     LIG  392   3.202   5.467   5.883
    1AU     LIG  393   2.873   5.413   6.271
    1AU     LIG  394   2.385   5.357   6.314
    1AU     LIG  395   1.952   5.242   6.503
    1AU    AUSL  396   5.783   6.519   6.542
    1AU    AUSL  397   5.467   6.327   6.232
    1AU     AUL  398   5.490   6.641   6.602
    1AU       S  399   5.111   6.446   6.763
    1AU     LIG  400   5.007   6.877   6.790
    1AU     LIG  401   4.897   7.202   7.131
    1AU     LIG  402   4.712   7.578   7.383
    1AU     LIG  403   4.622   8.070   7.402
    1AU     LIG  404   4.327   8.444   7.487
    1AU     LIG  405   3.889   8.551   7.634
    1AU       S  406   5.863   6.931   6.532
    1AU     LIG  407   5.965   7.279   6.808
    1AU     LIG  408   6.066   7.678   7.020
    1AU     LIG  409   6.136   7.910   7.433
    1AU     LIG  410   6.094   8.174   7.834
    1AU     LIG  411   5.920   8.517   8.122
    1AU     LIG  412   5.851   8.978   8.221
    1AU    AUSL  413   5.541   6.712   6.162
    1AU    AUSL  414   5.991   6.691   5.789
    1AU     AUL  415   5.623   6.943   5.931
    1AU       S  416   5.755   6.977   6.367
    1AU     LIG  417   5.742   7.432   6.370
    1AU     LIG  418   5.673   7.805   6.661
    1AU     LIG  419   5.495   8.231   6.814
    1AU     LIG  420   5.382   8.702   6.900
    1AU     LIG  421   5.351   9.183   7.032
    1AU     LIG  422   5.177   9.624   7.091
    1AU       S  423   6.051   6.993   5.738
    1AU     LIG  424   6.378   7.125   5.481
    1AU     LIG  425   6.448   7.598   5.325
    1AU     LIG  426   6.696   8.061   5.311
    1AU     LIG  427   6.827   8.555   5.256
    1AU     LIG  428   6.866   9.046   5.211
    1AU     LIG  429   6.857   9.517   5.120
    1AU    AUSL  430   5.931   6.548   6.162
    1AU    AUSL  431   5.952   6.177   6.417
    1AU     AUL  432   6.098   6.539   6.576
    1AU       S  433   6.503   6.363   6.716
    1AU     LIG  434   6.720   6.489   7.093
    1AU     LIG  435   6.975   6.747   7.416
    1AU     LIG  436   7.191   6.883   7.839
    1AU     LIG  437   7.248   7.096   8.280
    1AU     LIG  438   7.290   7.496   8.561
    1AU     LIG  439   7.437   7.845   8.866
    1AU       S  440   6.016   6.856   6.235
    1AU     LIG  441   6.239   7.267   6.372
    1AU     LIG  442   6.391   7.706   6.591
    1AU     LIG  443   6.683   8.137   6.667
    1AU     LIG  444   6.850   8.624   6.708
    1AU     LIG  445   6.694   9.083   6.687
    1AU     LIG  446   6.777   9.546   6.807
    1AU    AUSL  447   5.699   5.300   6.368
    1AU    AUSL  448   6.106   5.208   6.249
    1AU     AUL  449   5.883   5.098   6.621
    1AU       S  450   5.692   4.703   6.497
    1AU     LIG  451   5.734   4.323   6.707
    1AU     LIG  452   5.455   3.991   6.855
    1AU     LIG  453   5.306   3.561   6.915
    1AU     LIG  454   5.319   3.223   7.248
    1AU     LIG  455   5.385   3.049   7.696
    1AU     LIG  456   5.517   2.752   8.050
    1AU       S  457   6.248   4.994   6.359
    1AU     LIG  458   6.494   4.621   6.459
    1AU     LIG  459   6.641   4.320   6.799
    1AU     LIG  460   6.901   4.015   7.086
    1AU     LIG  461   7.225   3.688   7.286
    1AU     LIG  462   7.524   3.278   7.351
    1AU     LIG  463   7.926   2.998   7.387
    1AU    AUSL  464   5.410   5.108   6.141
    1AU    AUSL  465   5.498   5.380   6.715
    1AU     AUL  466   5.419   5.086   6.489
    1AU       S  467   5.507   4.650   6.367
    1AU     LIG  468   5.271   4.289   6.451
    1AU     LIG  469   5.144   3.836   6.476
    1AU     LIG  470   4.992   3.398   6.522
    1AU     LIG  471   4.737   3.002   6.538
    1AU     LIG  472   4.608   2.628   6.783
    1AU     LIG  473   4.673   2.204   6.930
    1AU       S  474   5.199   5.259   6.854
    1AU     LIG  475   4.903   4.806   6.818
    1AU     LIG  476   4.477   4.633   6.926
    1AU     LIG  477   4.249   4.298   7.191
    1AU     LIG  478   4.050   3.988   7.508
    1AU     LIG  479   4.014   3.699   7.894
    1AU     LIG  480   4.041   3.622   8.365
    1AU    AUSL  481   5.803   4.969   6.132
    1AU    AUSL  482   5.527   5.054   5.756
    1AU     AUL  483   5.348   4.862   5.996
    1AU       S  484   5.592   4.696   5.622
    1AU     LIG  485   5.209   4.516   5.579
    1AU     LIG  486   5.123   4.040   5.504
    1AU     LIG  487   5.078   3.546   5.494
    1AU     LIG  488   4.845   3.107   5.451
    1AU     LIG  489   4.640   2.701   5.263
    1AU     LIG  490   4.549   2.250   5.144
    1AU       S  491   5.763   4.817   6.231
    1AU     LIG  492   5.813   4.333   6.161
    1AU     LIG  493   5.650   3.924   6.370
    1AU     LIG  494   5.669   3.464   6.536
    1AU     LIG  495   5.935   3.025   6.545
    1AU     LIG  496   6.093   2.586   6.705
    1AU     LIG  497   6.243   2.227   6.969
    1AU    AUSL  498   5.763   6.511   5.464
    1AU    AUSL  499   6.050   6.291   5.770
    1AU     AUL  500   6.145   6.596   5.527
    1AU       S  501   5.839   6.877   5.323
    1AU     LIG  502   6.084   7.162   5.070
    1AU     LIG  503   6.153   7.572   4.878
    1AU     LIG  504   6.087   7.797   4.462
    1AU     LIG  505   6.018   8.111   4.109
    1AU     LIG  506   6.036   8.554   3.942
    1AU     LIG  507   6.059   8.895   3.605
    1AU       S  508   6.502   6.301   5.486
    1AU     LIG  509   6.753   6.767   5.321
    1AU     LIG  510   7.096   6.887   5.014
    1AU     LIG  511   7.361   7.138   4.708
    1AU     LIG  512   7.599   7.570   4.677
    1AU     LIG  513   7.788   8.019   4.611
    1AU     LIG  514   7.856   8.430   4.359
    1AU    AUSL  515   5.647   6.471   5.855
    1AU    AUSL  516   5.517   6.205   5.554
    1AU     AUL  517   5.502   6.671   5.580
    1AU       S  518   5.875   6.971   5.558
    1AU     LIG  519   5.949   7.441   5.475
    1AU     LIG  520   5.945   7.882   5.253
    1AU     LIG  521   5.789   8.345   5.118
    1AU     LIG  522   5.476   8.738   5.004
    1AU     LIG  523   5.407   9.221   4.851
    1AU     LIG  524   4.966   9.398   4.752
    1AU       S  525   5.252   6.612   5.208
    1AU     LIG  526   5.086   6.639   4.761
    1AU     LIG  527   4.953   6.901   4.363
    1AU     LIG  528   4.918   7.015   3.888
    1AU     LIG  529   4.899   7.386   3.582
    1AU     LIG  530   4.573   7.696   3.436
    1AU     LIG  531   4.253   7.926   3.152
    1AU    AUSL  532   5.833   5.163   5.488
    1AU    AUSL  533   5.408   5.432   5.829
    1AU     AUL  534   5.498   5.113   5.458
    1AU       S  535   5.069   5.058   5.661
    1AU     LIG  536   4.787   4.771   5.820
    1AU     LIG  537   4.351   4.657   5.616
    1AU     LIG  538   4.012   4.403   5.340
    1AU     LIG  539   3.745   4.119   5.038
    1AU     LIG  540   3.459   3.698   4.956
    1AU     LIG  541   3.244   3.311   4.727
    1AU       S  542   5.775   4.750   5.435
    1AU     LIG  543   5.851   4.401   5.226
    1AU     LIG  544   5.530   4.089   5.179
    1AU     LIG  545   5.382   3.663   5.091
    1AU     LIG  546   5.357   3.322   4.764
    1AU     LIG  547   5.337   3.152   4.309
    1AU     LIG  548   5.437   2.854   3.952
    1AU    AUSL  549   5.835   5.284   5.901
    1AU    AUSL  550   5.970   5.521   5.595
    1AU     AUL  551   6.035   5.022   5.694
    1AU       S  552   5.713   4.716   5.743
    1AU     LIG  553   5.637   4.215   5.683
    1AU     LIG  554   5.557   3.761   5.582
    1AU     LIG  555   5.665   3.333   5.413
    1AU     LIG  556   6.016   2.985   5.433
    1AU     LIG  557   6.285   2.612   5.315
    1AU     LIG  558   6.496   2.228   5.119
    1AU       S  559   6.237   5.114   5.286
    1AU     LIG  560   6.062   4.858   5.007
    1AU     LIG  561   6.263   4.485   4.801
    1AU     LIG  562   6.528   4.147   4.563
    1AU     LIG  563   6.734   3.957   4.176
    1AU     LIG  564   6.929   3.741   3.804
    1AU     LIG  565   7.217   3.582   3.473
    2POPC   NC3  566   1.388   2.515   7.941
    2POPC   PO4  567   1.136   3.083   8.145
    2POPC   GL1  568   1.231   2.979   7.727
    2POPC   GL2  569   0.898   2.825   7.685
    2POPC   C1A  570   1.261   2.724   7.326
    2POPC   D2A  571   1.494   2.704   6.951
    2POPC   C3A  572   1.360   2.755   6.551
    2POPC   C4A  573   1.657   2.981   6.308
    2POPC   C1B  574   0.896   3.076   7.298
    2POPC   C2B  575   1.015   3.032   6.867
    2POPC   C3B  576   0.855   2.875   6.475
    2POPC   C4B  577   1.107   2.774   6.099
    3POPC   NC3  578   2.751   1.962   8.088
    3POPC   PO4  579   3.236   2.305   7.716
    3POPC   GL1  580   3.014   1.909   7.598
    3POPC   GL2  581   2.678   1.743   7.636
    3POPC   C1A  582   3.058   1.899   7.173
    3POPC   D2A  583   3.168   1.991   6.777
    3POPC   C3A  584   2.998   1.877   6.471
    3POPC   C4A  585   3.047   1.969   6.095
    3POPC   C1B  586   2.576   1.976   7.274
    3POPC   C2B  587   2.612   2.112   6.846
    3POPC   C3B  588   2.514   2.046   6.426
    3POPC   C4B  589   2.611   2.218   6.004
    4POPC   NC3  590   8.540   5.217   8.179
    4POPC   PO4  591   9.027   5.471   8.245
    4POPC   GL1  592   8.926   5.273   7.816
    4POPC   GL2  593   8.958   4.913   7.695
    4POPC   C1A  594   8.961   5.282   7.325
    4POPC   D2A  595   9.205   5.175   6.914
    4POPC   C3A  596   9.075   5.239   6.454
    4POPC   C4A  597   8.815   5.283   6.063
    4POPC   C1B  598   8.996   4.778   7.211
    4POPC   C2B  599   8.876   4.814   6.744
    4POPC   C3B  600   8.846   4.809   6.294
    4POPC   C4B  601   8.940   4.535   5.963
    5POPC   NC3  602   1.396   0.516   8.104
    5POPC   PO4  603   0.830   0.817   7.987
    5POPC   GL1  604   0.972   0.417   7.754
    5POPC   GL2  605   1.241   0.151   7.785
    5POPC   C1A  606   0.895   0.299   7.321
    5POPC   D2A  607   0.831   0.501   6.921
    5POPC   C3A  608   0.842   0.179   6.615
    5POPC   C4A  609   0.864  11.478   6.239
    5POPC   C1B  610   1.411   0.376   7.408
    5POPC   C2B  611   1.341   0.533   6.969
    5POPC   C3B  612   1.227   0.495   6.522
    5POPC   C4B  613   1.276   0.262   6.147
    6POPC   NC3  614   8.011   2.501   7.990
    6POPC   PO4  615   7.617   3.074   7.992
    6POPC   GL1  616   7.525   2.772   7.649
    6POPC   GL2  617   7.184   2.653   7.721
    6POPC   C1A  618   7.515   2.744   7.174
    6POPC   D2A  619   7.366   2.863   6.735
    6POPC   C3A  620   7.585   2.782   6.326
    6POPC   C4A  621   7.635   2.906   5.869
    6POPC   C1B  622   7.183   2.404   7.364
    6POPC   C2B  623   7.180   2.404   6.910
    6POPC   C3B  624   7.096   2.503   6.463
    6POPC   C4B  625   7.266   2.479   6.047
    7POPC   NC3  626   2.123   5.676   8.158
    7POPC   PO4  627   1.647   6.097   8.064
    7POPC   GL1  628   1.656   5.928   7.669
    7POPC   GL2  629   2.008   5.914   7.654
    7POPC   C1A  630   1.642   6.106   7.246
    7POPC   D2A  631   1.835   6.027   6.863
    7POPC   C3A  632   1.684   6.057   6.449
    7POPC   C4A  633   1.740   5.687   6.229
    7POPC   C1B  634   1.887   5.661   7.290
    7POPC   C2B  635   2.054   5.573   6.881
    7POPC   C3B  636   2.141   5.802   6.500
    7POPC   C4B  637   2.204   5.764   6.041
    8POPC   NC3  638   0.387   5.463   8.180
    8POPC   PO4  639   0.026   4.956   8.114
    8POPC   GL1  640   0.213   4.976   7.785
    8POPC   GL2  641   0.538   5.049   7.864
    8POPC   C1A  642   0.097   4.838   7.365
    8POPC   D2A  643   0.186   4.646   6.963
    8POPC   C3A  644   0.005   4.792   6.599
    8POPC   C4A  645   0.208   4.858   6.236
    8POPC   C1B  646   0.542   5.138   7.449
    8POPC   C2B  647   0.491   5.042   7.032
    8POPC   C3B  648   0.450   5.151   6.565
    8POPC   C4B  649   0.630   5.143   6.144
    9POPC   NC3  650  11.185   5.274   8.118
    9POPC   PO4  651  11.086   4.621   8.341
    9POPC   GL1  652  11.114   4.777   7.846
    9POPC   GL2  653  11.241   5.106   7.662
    9POPC   C1A  654  11.018   4.776   7.373
    9POPC   D2A  655  11.069   5.055   6.975
    9POPC   C3A  656  10.974   4.919   6.569
    9POPC   C4A  657  11.093   4.827   6.175
    9POPC   C1B  658  11.388   5.305   7.295
    9POPC   C2B  659   0.051   5.227   6.868
    9POPC   C3B  660  11.422   5.270   6.390
    9POPC   C4B  661  11.180   5.301   5.965
   10POPC   NC3  662  11.402   8.196   7.890
   10POPC   PO4  663  10.697   8.350   8.067
   10POPC   GL1  664  10.966   8.349   7.656
   10POPC   GL2  665  11.320   8.444   7.481
   10POPC   C1A  666  10.851   8.403   7.230
   10POPC   D2A  667  10.887   8.499   6.811
   10POPC   C3A  668  11.042   8.177   6.607
   10POPC   C4A  669  10.994   8.034   6.212
   10POPC   C1B  670  11.319   8.091   7.218
   10POPC   C2B  671  11.495   8.088   6.818
   10POPC   C3B  672  11.473   7.998   6.420
   10POPC   C4B  673  11.393   8.330   6.145
   11POPC   NC3  674   3.539   2.424   8.046
   11POPC   PO4  675   4.193   2.530   8.304
   11POPC   GL1  676   3.965   2.522   7.815
   11POPC   GL2  677   3.623   2.754   7.667
   11POPC   C1A  678   3.847   2.428   7.370
   11POPC   D2A  679   3.648   2.681   7.090
   11POPC   C3A  680   3.766   2.541   6.698
   11POPC   C4A  681   3.754   2.805   6.366
   11POPC   C1B  682   3.229   2.852   7.359
   11POPC   C2B  683   3.104   2.948   6.913
   11POPC   C3B  684   3.205   2.846   6.458
   11POPC   C4B  685   3.421   3.167   6.197
   12POPC   NC3  686   4.787   7.967   8.034
   12POPC   PO4  687   5.172   7.574   7.946
   12POPC   GL1  688   5.077   7.884   7.590
   12POPC   GL2  689   5.101   8.229   7.707
   12POPC   C1A  690   5.013   7.882   7.102
   12POPC   D2A  691   5.139   7.878   6.653
   12POPC   C3A  692   4.798   7.961   6.349
   12POPC   C4A  693   4.425   8.096   6.093
   12POPC   C1B  694   5.192   8.320   7.258
   12POPC   C2B  695   4.998   8.363   6.825
   12POPC   C3B  696   5.183   8.315   6.384
   12POPC   C4B  697   5.259   7.949   6.105
   13POPC   NC3  698   8.482   0.938   8.001
   13POPC   PO4  699   7.770   1.096   8.132
   13POPC   GL1  700   8.019   1.113   7.749
   13POPC   GL2  701   7.836   1.353   7.530
   13POPC   C1A  702   8.082   0.914   7.345
   13POPC   D2A  703   7.942   1.039   6.908
   13POPC   C3A  704   8.252   0.970   6.578
   13POPC   C4A  705   8.289   1.095   6.155
   13POPC   C1B  706   8.179   1.408   7.206
   13POPC   C2B  707   8.223   1.462   6.763
   13POPC   C3B  708   7.931   1.354   6.426
   13POPC   C4B  709   7.790   1.660   6.107
   14POPC   NC3  710   1.119   9.572   8.102
   14POPC   PO4  711   0.861  10.190   8.122
   14POPC   GL1  712   1.036   9.940   7.754
   14POPC   GL2  713   1.407   9.866   7.768
   14POPC   C1A  714   0.877   9.948   7.334
   14POPC   D2A  715   1.139   9.943   6.961
   14POPC   C3A  716   1.090   9.666   6.597
   14POPC   C4A  717   1.167   9.877   6.217
   14POPC   C1B  718   1.324   9.678   7.375
   14POPC   C2B  719   1.507   9.554   6.980
   14POPC   C3B  720   1.599   9.644   6.582
   14POPC   C4B  721   1.485   9.488   6.181
   15POPC   NC3  722   1.272  10.557   8.185
   15POPC   PO4  723   0.727  10.704   7.838
   15POPC   GL1  724   0.972  10.435   7.649
   15POPC   GL2  725   1.339  10.394   7.692
   15POPC   C1A  726   1.070  10.407   7.234
   15POPC   D2A  727   1.319  10.488   6.897
   15POPC   C3A  728   1.149  10.283   6.547
   15POPC   C4A  729   0.923  10.330   6.172
   15POPC   C1B  730   1.538  10.206   7.307
   15POPC   C2B  731   1.624  10.061   6.869
   15POPC   C3B  732   1.627  10.131   6.403
   15POPC   C4B  733   1.422  10.332   6.060
   16POPC   NC3  734   3.607   9.371   8.263
   16POPC   PO4  735   3.070   9.214   7.988
   16POPC   GL1  736   3.439   9.461   7.772
   16POPC   GL2  737   3.655   9.776   7.817
   16POPC   C1A  738   3.455   9.561   7.327
   16POPC   D2A  739   3.332   9.734   6.916
   16POPC   C3A  740   3.307   9.553   6.470
   16POPC   C4A  741   3.203   9.526   6.025
   16POPC   C1B  742   3.720   9.992   7.380
   16POPC   C2B  743   3.821   9.950   6.907
   16POPC   C3B  744   3.790   9.736   6.472
   16POPC   C4B  745   3.670   9.740   6.014
   17POPC   NC3  746  10.468   1.297   8.335
   17POPC   PO4  747  10.363   1.817   7.968
   17POPC   GL1  748  10.292   1.515   7.671
   17POPC   GL2  749  10.385   1.186   7.773
   17POPC   C1A  750  10.520   1.378   7.280
   17POPC   D2A  751  10.677   1.227   6.881
   17POPC   C3A  752  10.643   1.561   6.617
   17POPC   C4A  753  10.523   1.574   6.217
   17POPC   C1B  754  10.083   1.134   7.405
   17POPC   C2B  755  10.205   1.047   6.986
   17POPC   C3B  756  10.243   1.213   6.555
   17POPC   C4B  757  10.246   1.070   6.103
   18POPC   NC3  758   3.824  11.333   8.162
   18POPC   PO4  759   3.283   0.051   7.845
   18POPC   GL1  760   3.636  11.391   7.683
   18POPC   GL2  761   3.554  11.049   7.689
   18POPC   C1A  762   3.768  11.337   7.278
   18POPC   D2A  763   3.733  11.035   6.953
   18POPC   C3A  764   3.684  11.177   6.575
   18POPC   C4A  765   3.736   0.005   6.294
   18POPC   C1B  766   3.300  11.066   7.287
   18POPC   C2B  767   3.238  10.923   6.842
   18POPC   C3B  768   3.266  10.995   6.384
   18POPC   C4B  769   3.595  10.998   6.070
   19POPC   NC3  770  11.307   6.266   8.093
   19POPC   PO4  771  11.211   6.906   7.957
   19POPC   GL1  772  11.267   6.719   7.595
   19POPC   GL2  773  11.220   6.378   7.607
   19POPC   C1A  774  11.188   6.837   7.182
   19POPC   D2A  775  11.116   7.000   6.772
   19POPC   C3A  776  11.207   6.808   6.319
   19POPC   C4A  777  10.880   6.961   5.945
   19POPC   C1B  778  11.251   6.337   7.179
   19POPC   C2B  779  11.068   6.490   6.799
   19POPC   C3B  780  11.080   6.300   6.437
   19POPC   C4B  781  11.496   6.184   6.277
   20POPC   NC3  782  10.377   0.306   8.432
   20POPC   PO4  783  10.899   0.154   8.080
   20POPC   GL1  784  10.662   0.284   7.706
   20POPC   GL2  785  10.290   0.352   7.724
   20POPC   C1A  786  10.520   0.225   7.256
   20POPC   D2A  787  10.492  11.490   6.878
   20POPC   C3A  788  10.544   0.254   6.540
   20POPC   C4A  789  10.669   0.193   6.126
   20POPC   C1B  790  10.330   0.673   7.361
   20POPC   C2B  791  10.470   0.622   6.911
   20POPC   C3B  792  10.262   0.695   6.508
   20POPC   C4B  793  10.212   0.419   6.181
   21POPC   NC3  794   6.956   1.143   7.977
   21POPC   PO4  795   6.258   1.184   8.051
   21POPC   GL1  796   6.511   0.977   7.704
   21POPC   GL2  797   6.292   0.753   7.513
   21POPC   C1A  798   6.854   1.048   7.363
   21POPC   D2A  799   6.804   1.213   6.964
   21POPC   C3A  800   6.557   0.961   6.708
   21POPC   C4A  801   6.535   1.183   6.340
   21POPC   C1B  802   6.347   1.085   7.199
   21POPC   C2B  803   6.300   1.438   6.902
   21POPC   C3B  804   6.356   1.657   6.492
   21POPC   C4B  805   6.211   1.490   6.100
   22POPC   NC3  806   8.969  11.007   8.006
   22POPC   PO4  807   9.307  10.493   7.882
   22POPC   GL1  808   9.154  10.817   7.573
   22POPC   GL2  809   9.066  11.221   7.575
   22POPC   C1A  810   8.958  10.880   7.183
   22POPC   D2A  811   8.668  10.783   6.839
   22POPC   C3A  812   8.660  11.004   6.476
   22POPC   C4A  813   8.989  10.973   6.239
   22POPC   C1B  814   8.680  11.263   7.333
   22POPC   C2B  815   8.796  11.299   6.894
   22POPC   C3B  816   8.705   0.023   6.513
   22POPC   C4B  817   8.741  11.442   6.067
   23POPC   NC3  818   0.468   1.078   7.855
   23POPC   PO4  819   0.796   1.608   7.993
   23POPC   GL1  820   0.654   1.493   7.618
   23POPC   GL2  821   0.267   1.498   7.653
   23POPC   C1A  822   0.587   1.566   7.197
   23POPC   D2A  823   0.494   1.321   6.841
   23POPC   C3A  824   0.471   1.598   6.502
   23POPC   C4A  825   0.286   1.545   6.101
   23POPC   C1B  826   0.137   1.268   7.280
   23POPC   C2B  827  11.462   1.091   6.929
   23POPC   C3B  828   0.078   1.233   6.523
   23POPC   C4B  829   0.459   1.078   6.329
   24POPC   NC3  830   4.239   8.600   8.193
   24POPC   PO4  831   4.053   9.216   8.174
   24POPC   GL1  832   4.049   9.016   7.792
   24POPC   GL2  833   4.365   8.900   7.733
   24POPC   C1A  834   4.041   8.935   7.327
   24POPC   D2A  835   4.165   8.610   7.015
   24POPC   C3A  836   4.119   8.707   6.551
   24POPC   C4A  837   4.087   8.505   6.145
   24POPC   C1B  838   4.541   8.881   7.284
   24POPC   C2B  839   4.431   9.006   6.838
   24POPC   C3B  840   4.538   8.950   6.390
   24POPC   C4B  841   4.696   9.151   6.035
   25POPC   NC3  842   3.536   1.349   8.179
   25POPC   PO4  843   3.213   0.697   8.060
   25POPC   GL1  844   3.256   0.882   7.652
   25POPC   GL2  845   3.525   1.122   7.564
   25POPC   C1A  846   3.149   1.027   7.238
   25POPC   D2A  847   3.339   1.079   6.829
   25POPC   C3A  848   3.145   1.093   6.417
   25POPC   C4A  849   3.163   1.470   6.133
   25POPC   C1B  850   3.828   1.391   7.287
   25POPC   C2B  851   3.997   1.516   6.864
   25POPC   C3B  852   3.902   1.461   6.426
   25POPC   C4B  853   3.611   1.190   6.321
   26POPC   NC3  854   5.587   9.642   8.301
   26POPC   PO4  855   6.099   9.939   8.222
   26POPC   GL1  856   5.985   9.738   7.776
   26POPC   GL2  857   5.657   9.567   7.788
   26POPC   C1A  858   6.002   9.874   7.300
   26POPC   D2A  859   6.197   9.758   6.881
   26POPC   C3A  860   5.962   9.841   6.495
   26POPC   C4A  861   6.002   9.889   6.052
   26POPC   C1B  862   5.636   9.511   7.336
   26POPC   C2B  863   5.661   9.630   6.888
   26POPC   C3B  864   5.526   9.515   6.454
   26POPC   C4B  865   5.719   9.467   6.024
   27POPC   NC3  866  11.067  10.460   8.058
   27POPC   PO4  867  10.758   9.934   7.783
   27POPC   GL1  868  11.155  10.112   7.622
   27POPC   GL2  869  11.409  10.389   7.693
   27POPC   C1A  870  11.187  10.075   7.196
   27POPC   D2A  871  10.906  10.135   6.858
   27POPC   C3A  872  11.158  10.326   6.564
   27POPC   C4A  873  11.241  10.161   6.170
   27POPC   C1B  874  11.191  10.572   7.341
   27POPC   C2B  875  11.011  10.659   6.957
   27POPC   C3B  876  11.106  10.857   6.584
   27POPC   C4B  877  11.265  10.693   6.220
   28POPC   NC3  878   5.448   0.133   7.926
   28POPC   PO4  879   5.007   0.592   8.235
   28POPC   GL1  880   5.211   0.550   7.784
   28POPC   GL2  881   5.125   0.283   7.552
   28POPC   C1A  882   5.373   0.618   7.299
   28POPC   D2A  883   5.095   0.374   7.002
   28POPC   C3A  884   5.175   0.361   6.566
   28POPC   C4A  885   5.261   0.669   6.283
   28POPC   C1B  886   4.880   0.660   7.403
   28POPC   C2B  887   4.641   0.695   7.036
   28POPC   C3B  888   4.767   0.699   6.597
   28POPC   C4B  889   4.796   0.979   6.255
   29POPC   NC3  890   8.710   2.602   8.036
   29POPC   PO4  891   8.237   2.913   8.024
   29POPC   GL1  892   8.536   2.896   7.637
   29POPC   GL2  893   8.768   2.588   7.525
   29POPC   C1A  894   8.846   3.058   7.323
   29POPC   D2A  895   8.955   3.343   6.963
   29POPC   C3A  896   8.986   3.174   6.535
   29POPC   C4A  897   8.686   3.023   6.181
   29POPC   C1B  898   9.082   2.628   7.169
   29POPC   C2B  899   8.988   2.652   6.730
   29POPC   C3B  900   9.064   2.707   6.306
   29POPC   C4B  901   9.045   2.575   5.873
   30POPC   NC3  902   7.362  10.641   8.254
   30POPC   PO4  903   7.647  10.811   7.689
   30POPC   GL1  904   7.363  10.523   7.560
   30POPC   GL2  905   7.437  10.245   7.783
   30POPC   C1A  906   7.283  10.391   7.148
   30POPC   D2A  907   6.991  10.467   6.827
   30POPC   C3A  908   7.171  10.647   6.483
   30POPC   C4A  909   7.502  10.642   6.211
   30POPC   C1B  910   7.706  10.149   7.432
   30POPC   C2B  911   7.630  10.065   7.000
   30POPC   C3B  912   7.512  10.258   6.610
   30POPC   C4B  913   7.466  10.131   6.178
   31POPC   NC3  914  10.246   4.559   7.658
   31POPC   PO4  915  10.099   4.034   7.901
   31POPC   GL1  916   9.974   4.153   7.489
   31POPC   GL2  917   9.708   4.365   7.503
   31POPC   C1A  918  10.057   4.313   7.054
   31POPC   D2A  919  10.198   4.660   6.765
   31POPC   C3A  920  10.067   4.601   6.335
   31POPC   C4A  921   9.788   4.257   6.228
   31POPC   C1B  922   9.568   4.086   7.150
   31POPC   C2B  923   9.342   3.904   6.778
   31POPC   C3B  924   9.323   4.122   6.397
   31POPC   C4B  925   9.327   4.586   6.337
   32POPC   NC3  926   0.344   2.061   7.995
   32POPC   PO4  927   0.963   2.362   7.923
   32POPC   GL1  928   0.793   2.020   7.640
   32POPC   GL2  929   0.458   1.950   7.533
   32POPC   C1A  930   0.769   2.135   7.208
   32POPC   D2A  931   0.486   1.985   6.898
   32POPC   C3A  932   0.723   2.066   6.557
   32POPC   C4A  933   0.843   1.921   6.168
   32POPC   C1B  934   0.137   1.822   7.279
   32POPC   C2B  935   0.085   1.621   6.889
   32POPC   C3B  936  11.484   1.771   6.472
   32POPC   C4B  937   0.303   2.038   6.271
   33POPC   NC3  938   9.427   5.663   8.267
   33POPC   PO4  939   9.898   6.049   8.149
   33POPC   GL1  940   9.966   5.840   7.756
   33POPC   GL2  941  10.179   6.051   7.606
   33POPC   C1A  942   9.933   5.689   7.314
   33POPC   D2A  943   9.859   5.810   6.871
   33POPC   C3A  944   9.745   5.600   6.488
   33POPC   C4A  945   9.870   5.672   6.071
   33POPC   C1B  946   9.916   6.196   7.223
   33POPC   C2B  947   9.821   6.313   6.757
   33POPC   C3B  948   9.729   6.099   6.354
   33POPC   C4B  949   9.446   5.939   6.040
   34POPC   NC3  950   5.062   1.079   8.180
   34POPC   PO4  951   5.655   0.735   8.136
   34POPC   GL1  952   5.422   0.995   7.766
   34POPC   GL2  953   5.159   1.264   7.716
   34POPC   C1A  954   5.393   1.112   7.302
   34POPC   D2A  955   5.093   0.943   6.986
   34POPC   C3A  956   5.190   1.069   6.582
   34POPC   C4A  957   5.251   1.182   6.131
   34POPC   C1B  958   4.898   1.285   7.324
   34POPC   C2B  959   4.777   1.377   6.884
   34POPC   C3B  960   4.894   1.454   6.438
   34POPC   C4B  961   5.022   1.650   6.037
   35POPC   NC3  962   7.734   9.219   8.077
   35POPC   PO4  963   8.458   9.248   8.049
   35POPC   GL1  964   8.334   9.132   7.640
   35POPC   GL2  965   8.016   9.079   7.680
   35POPC   C1A  966   8.215   8.811   7.299
   35POPC   D2A  967   8.109   8.709   6.837
   35POPC   C3A  968   8.394   8.675   6.439
   35POPC   C4A  969   8.344   8.762   5.981
   35POPC   C1B  970   7.848   9.163   7.273
   35POPC   C2B  971   7.994   9.207   6.845
   35POPC   C3B  972   8.032   9.042   6.396
   35POPC   C4B  973   7.862   8.997   5.950
   36POPC   NC3  974   8.902  10.393   8.090
   36POPC   PO4  975   8.501  11.040   8.011
   36POPC   GL1  976   8.621  10.677   7.656
   36POPC   GL2  977   8.877  10.377   7.597
   36POPC   C1A  978   8.581  10.472   7.215
   36POPC   D2A  979   8.611  10.266   6.810
   36POPC   C3A  980   8.388  10.538   6.471
   36POPC   C4A  981   8.569  10.690   6.066
   36POPC   C1B  982   9.115  10.388   7.204
   36POPC   C2B  983   9.150  10.621   6.798
   36POPC   C3B  984   8.906  10.506   6.436
   36POPC   C4B  985   8.983  10.124   6.237
   37POPC   NC3  986   7.097   8.844   7.946
   37POPC   PO4  987   7.761   8.656   8.175
   37POPC   GL1  988   7.735   8.657   7.751
   37POPC   GL2  989   7.546   8.895   7.697
   37POPC   C1A  990   7.718   8.648   7.281
   37POPC   D2A  991   7.607   8.883   6.905
   37POPC   C3A  992   7.370   8.704   6.587
   37POPC   C4A  993   7.661   8.666   6.283
   37POPC   C1B  994   7.336   9.000   7.321
   37POPC   C2B  995   7.148   9.096   6.923
   37POPC   C3B  996   7.154   9.158   6.482
   37POPC   C4B  997   7.376   9.068   6.123
   38POPC   NC3  998   0.570  11.045   8.089
   38POPC   PO4  999   1.125  10.974   8.474
   38POPC   GL1 1000   1.167  10.982   7.928
   38POPC   GL2 1001   0.934  11.212   7.744
   38POPC   C1A 1002   1.244  10.865   7.431
   38POPC   D2A 1003   1.218  11.053   6.977
   38POPC   C3A 1004   1.197  10.863   6.550
   38POPC   C4A 1005   0.944  10.884   6.172
   38POPC   C1B 1006   1.191  11.375   7.376
   38POPC   C2B 1007   1.436   0.023   7.018
   38POPC   C3B 1008   1.328  11.489   6.592
   38POPC   C4B 1009   1.321  11.269   6.208
   39POPC   NC3 1010   9.394   8.511   8.066
   39POPC   PO4 1011   9.334   7.841   8.119
   39POPC   GL1 1012   9.582   8.037   7.742
   39POPC   GL2 1013   9.780   8.349   7.732
   39POPC   C1A 1014   9.699   8.015   7.277
   39POPC   D2A 1015   9.863   7.764   6.902
   39POPC   C3A 1016   9.676   7.793   6.451
   39POPC   C4A 1017   9.691   7.809   5.997
   39POPC   C1B 1018   9.678   8.527   7.349
   39POPC   C2B 1019   9.528   8.448   6.930
   39POPC   C3B 1020   9.702   8.467   6.512
   39POPC   C4B 1021   9.554   8.261   6.146
   40POPC   NC3 1022   1.145   1.287   8.009
   40POPC   PO4 1023   1.714   0.863   8.104
   40POPC   GL1 1024   1.502   0.914   7.740
   40POPC   GL2 1025   1.554   1.240   7.659
   40POPC   C1A 1026   1.602   0.863   7.291
   40POPC   D2A 1027   1.742   0.835   6.848
   40POPC   C3A 1028   1.390   0.968   6.573
   40POPC   C4A 1029   0.994   0.955   6.324
   40POPC   C1B 1030   1.290   1.305   7.311
   40POPC   C2B 1031   1.289   1.371   6.865
   40POPC   C3B 1032   0.940   1.387   6.574
   40POPC   C4B 1033   0.805   1.414   6.150
   41POPC   NC3 1034   8.001   3.307   8.035
   41POPC   PO4 1035   8.287   3.814   7.932
   41POPC   GL1 1036   8.332   3.419   7.676
   41POPC   GL2 1037   7.996   3.473   7.536
   41POPC   C1A 1038   8.386   3.265   7.259
   41POPC   D2A 1039   8.451   3.549   6.909
   41POPC   C3A 1040   8.531   3.416   6.503
   41POPC   C4A 1041   8.314   3.370   6.127
   41POPC   C1B 1042   7.941   3.426   7.068
   41POPC   C2B 1043   8.043   3.290   6.629
   41POPC   C3B 1044   7.816   3.247   6.228
   41POPC   C4B 1045   7.473   3.388   5.952
   42POPC   NC3 1046  11.144   9.779   8.013
   42POPC   PO4 1047  10.832   9.221   7.852
   42POPC   GL1 1048  11.003   9.525   7.568
   42POPC   GL2 1049  11.358   9.633   7.564
   42POPC   C1A 1050  10.818   9.637   7.172
   42POPC   D2A 1051  10.635   9.456   6.784
   42POPC   C3A 1052  10.655   9.759   6.464
   42POPC   C4A 1053  10.900   9.785   6.073
   42POPC   C1B 1054  11.347   9.606   7.118
   42POPC   C2B 1055  11.104   9.649   6.744
   42POPC   C3B 1056  11.024   9.400   6.394
   42POPC   C4B 1057  11.335   9.487   6.086
   43POPC   NC3 1058  11.038   7.293   8.115
   43POPC   PO4 1059  11.159   7.808   7.853
   43POPC   GL1 1060  11.279   7.363   7.656
   43POPC   GL2 1061  10.987   7.150   7.574
   43POPC   C1A 1062  11.483   7.226   7.260
   43POPC   D2A 1063   0.108   6.942   6.906
   43POPC   C3A 1064   0.005   7.176   6.515
   43POPC   C4A 1065  11.348   7.540   6.272
   43POPC   C1B 1066  10.995   7.479   7.255
   43POPC   C2B 1067  11.032   7.761   6.910
   43POPC   C3B 1068  10.872   7.657   6.510
   43POPC   C4B 1069  10.951   7.242   6.361
   44POPC   NC3 1070   1.516   8.035   8.172
   44POPC   PO4 1071   0.861   8.034   8.279
   44POPC   GL1 1072   1.117   8.157   7.844
   44POPC   GL2 1073   1.117   8.534   7.711
   44POPC   C1A 1074   1.389   8.152   7.428
   44POPC   D2A 1075   1.516   8.332   6.997
   44POPC   C3A 1076   1.610   8.215   6.582
   44POPC   C4A 1077   1.383   8.101   6.205
   44POPC   C1B 1078   0.960   8.401   7.300
   44POPC   C2B 1079   1.060   8.132   7.012
   44POPC   C3B 1080   1.099   8.204   6.623
   44POPC   C4B 1081   0.892   8.287   6.254
   45POPC   NC3 1082   3.331   3.402   8.054
   45POPC   PO4 1083   2.689   3.239   8.070
   45POPC   GL1 1084   2.672   3.181   7.652
   45POPC   GL2 1085   2.467   3.478   7.617
   45POPC   C1A 1086   2.879   3.284   7.243
   45POPC   D2A 1087   2.764   3.369   6.794
   45POPC   C3A 1088   2.942   3.380   6.367
   45POPC   C4A 1089   2.965   3.837   6.175
   45POPC   C1B 1090   2.329   3.269   7.261
   45POPC   C2B 1091   2.127   3.490   6.954
   45POPC   C3B 1092   2.344   3.624   6.623
   45POPC   C4B 1093   2.416   3.284   6.383
   46POPC   NC3 1094  10.775   8.856   8.119
   46POPC   PO4 1095  11.331   9.367   8.172
   46POPC   GL1 1096  11.343   9.143   7.752
   46POPC   GL2 1097  11.186   8.820   7.806
   46POPC   C1A 1098  11.472   9.146   7.307
   46POPC   D2A 1099  11.235   9.151   6.889
   46POPC   C3A 1100  11.463   9.131   6.479
   46POPC   C4A 1101  11.218   8.967   6.142
   46POPC   C1B 1102  11.068   8.847   7.356
   46POPC   C2B 1103  11.336   8.652   7.010
   46POPC   C3B 1104  11.322   8.626   6.552
   46POPC   C4B 1105  10.939   8.553   6.272
   47POPC   NC3 1106   0.640   3.007   8.114
   47POPC   PO4 1107   0.187   2.479   8.104
   47POPC   GL1 1108   0.386   2.714   7.784
   47POPC   GL2 1109   0.525   2.448   7.655
   47POPC   C1A 1110   0.440   2.837   7.338
   47POPC   D2A 1111   0.508   3.004   6.943
   47POPC   C3A 1112   0.215   2.990   6.621
   47POPC   C4A 1113   0.404   2.944   6.218
   47POPC   C1B 1114   0.301   2.345   7.280
   47POPC   C2B 1115   0.341   2.506   6.888
   47POPC   C3B 1116   0.353   2.501   6.480
   47POPC   C4B 1117   0.683   2.449   6.215
   48POPC   NC3 1118   5.409   0.408   8.358
   48POPC   PO4 1119   5.966   0.234   7.946
   48POPC   GL1 1120   5.704   0.364   7.601
   48POPC   GL2 1121   5.768   0.628   7.625
   48POPC   C1A 1122   5.558   0.158   7.224
   48POPC   D2A 1123   5.687   0.363   6.851
   48POPC   C3A 1124   5.631   0.123   6.519
   48POPC   C4A 1125   5.385  11.427   6.230
   48POPC   C1B 1126   6.029   0.411   7.252
   48POPC   C2B 1127   6.200   0.639   6.968
   48POPC   C3B 1128   6.088   0.725   6.597
   48POPC   C4B 1129   5.874   0.490   6.240
   49POPC   NC3 1130  10.745   4.882   8.213
   49POPC   PO4 1131  10.746   5.520   8.122
   49POPC   GL1 1132  10.754   5.263   7.736
   49POPC   GL2 1133  10.506   5.014   7.742
   49POPC   C1A 1134  10.671   5.128   7.279
   49POPC   D2A 1135  10.534   5.050   6.845
   49POPC   C3A 1136  10.464   4.942   6.425
   49POPC   C4A 1137  10.671   5.090   6.120
   49POPC   C1B 1138  10.225   5.273   7.439
   49POPC   C2B 1139  10.201   5.400   6.984
   49POPC   C3B 1140  10.205   5.370   6.513
   49POPC   C4B 1141   9.888   5.167   6.204
   50POPC   NC3 1142   8.033  10.672   7.906
   50POPC   PO4 1143   8.495  10.243   7.955
   50POPC   GL1 1144   8.386  10.186   7.567
   50POPC   GL2 1145   8.136  10.460   7.465
   50POPC   C1A 1146   8.211  10.061   7.181
   50POPC   D2A 1147   8.067  10.251   6.816
   50POPC   C3A 1148   8.258  10.016   6.553
   50POPC   C4A 1149   8.468  10.106   6.207
   50POPC   C1B 1150   7.804  10.550   7.143
   50POPC   C2B 1151   7.569  10.729   6.844
   50POPC   C3B 1152   7.867  10.677   6.550
   50POPC   C4B 1153   7.947  10.323   6.286
   51POPC   NC3 1154   9.914   1.780   8.069
   51POPC   PO4 1155   9.279   1.598   8.279
   51POPC   GL1 1156   9.423   1.875   7.840
   51POPC   GL2 1157   9.692   2.147   7.745
   51POPC   C1A 1158   9.428   1.931   7.351
   51POPC   D2A 1159   9.692   1.883   6.943
   51POPC   C3A 1160   9.514   1.957   6.526
   51POPC   C4A 1161   9.322   1.794   6.142
   51POPC   C1B 1162   9.815   2.253   7.300
   51POPC   C2B 1163   9.513   2.381   6.961
   51POPC   C3B 1164   9.504   2.473   6.510
   51POPC   C4B 1165   9.839   2.263   6.243
   52POPC   NC3 1166  10.467   2.223   8.182
   52POPC   PO4 1167  10.781   1.692   8.332
   52POPC   GL1 1168  10.790   2.047   7.831
   52POPC   GL2 1169  10.415   2.080   7.569
   52POPC   C1A 1170  10.829   2.142   7.334
   52POPC   D2A 1171  10.582   1.907   6.995
   52POPC   C3A 1172  10.556   2.077   6.541
   52POPC   C4A 1173  10.564   2.082   6.075
   52POPC   C1B 1174  10.101   1.817   7.324
   52POPC   C2B 1175  10.115   1.550   6.966
   52POPC   C3B 1176  10.144   1.733   6.570
   52POPC   C4B 1177  10.116   1.850   6.146
   53POPC   NC3 1178   2.856   5.787   8.283
   53POPC   PO4 1179   3.259   6.174   8.138
   53POPC   GL1 1180   2.902   6.000   7.815
   53POPC   GL2 1181   2.602   5.707   7.737
   53POPC   C1A 1182   2.897   5.891   7.374
   53POPC   D2A 1183   2.950   6.057   6.976
   53POPC   C3A 1184   3.036   5.770   6.626
   53POPC   C4A 1185   3.095   5.880   6.179
   53POPC   C1B 1186   2.436   5.679   7.245
   53POPC   C2B 1187   2.562   5.583   6.762
   53POPC   C3B 1188   2.612   5.823   6.341
   53POPC   C4B 1189   2.471   6.193   6.200
   54POPC   NC3 1190   8.957   9.272   8.106
   54POPC   PO4 1191   8.944   9.946   8.200
   54POPC   GL1 1192   8.814   9.878   7.736
   54POPC   GL2 1193   8.782   9.519   7.697
   54POPC   C1A 1194   8.756   9.965   7.269
   54POPC   D2A 1195   8.964   9.848   6.844
   54POPC   C3A 1196   8.705   9.723   6.459
   54POPC   C4A 1197   8.678   9.612   5.980
   54POPC   C1B 1198   9.085   9.558   7.338
   54POPC   C2B 1199   9.175   9.315   6.967
   54POPC   C3B 1200   9.150   9.337   6.526
   54POPC   C4B 1201   9.131   9.632   6.186
   55POPC   NC3 1202   9.723   0.244   7.962
   55POPC   PO4 1203   9.224  11.386   8.076
   55POPC   GL1 1204   9.272   0.177   7.715
   55POPC   GL2 1205   9.429   0.527   7.627
   55POPC   C1A 1206   9.504   0.110   7.319
   55POPC   D2A 1207   9.479   0.344   6.943
   55POPC   C3A 1208   9.322   0.125   6.591
   55POPC   C4A 1209   9.311   0.304   6.184
   55POPC   C1B 1210   9.815   0.536   7.324
   55POPC   C2B 1211   9.886   0.654   6.859
   55POPC   C3B 1212   9.739   0.454   6.463
   55POPC   C4B 1213   9.759   0.484   5.999
   56POPC   NC3 1214   0.163   8.191   8.410
   56POPC   PO4 1215   0.327   7.937   7.848
   56POPC   GL1 1216   0.309   8.208   7.565
   56POPC   GL2 1217   0.637   8.309   7.662
   56POPC   C1A 1218   0.359   8.143   7.153
   56POPC   D2A 1219   0.606   8.209   6.821
   56POPC   C3A 1220   0.401   8.291   6.475
   56POPC   C4A 1221   0.361   8.088   6.126
   56POPC   C1B 1222   0.759   7.924   7.366
   56POPC   C2B 1223   0.751   7.726   6.914
   56POPC   C3B 1224   0.738   7.858   6.449
   56POPC   C4B 1225   0.755   7.871   5.929
   57POPC   NC3 1226   0.601   4.077   7.955
   57POPC   PO4 1227   0.415   3.418   8.127
   57POPC   GL1 1228   0.453   3.587   7.728
   57POPC   GL2 1229   0.575   3.252   7.643
   57POPC   C1A 1230   0.397   3.835   7.339
   57POPC   D2A 1231   0.630   3.921   6.941
   57POPC   C3A 1232   0.485   3.848   6.553
   57POPC   C4A 1233   0.647   3.724   6.138
   57POPC   C1B 1234   0.262   3.325   7.315
   57POPC   C2B 1235   0.357   3.486   6.915
   57POPC   C3B 1236   0.569   3.351   6.532
   57POPC   C4B 1237   0.222   3.445   6.234
   58POPC   NC3 1238   5.199  10.956   8.135
   58POPC   PO4 1239   4.982   0.061   7.990
   58POPC   GL1 1240   4.840  11.362   7.632
   58POPC   GL2 1241   4.986  11.069   7.686
   58POPC   C1A 1242   5.075  11.380   7.241
   58POPC   D2A 1243   5.266  11.387   6.832
   58POPC   C3A 1244   4.916  11.424   6.535
   58POPC   C4A 1245   4.895  11.487   6.107
   58POPC   C1B 1246   5.152  10.882   7.323
   58POPC   C2B 1247   5.183  10.795   6.880
   58POPC   C3B 1248   5.198  11.006   6.476
   58POPC   C4B 1249   5.199  10.986   6.019
   59POPC   NC3 1250   2.933   0.280   8.083
   59POPC   PO4 1251   2.462   0.812   7.959
   59POPC   GL1 1252   2.776   0.637   7.702
   59POPC   GL2 1253   2.583   0.337   7.686
   59POPC   C1A 1254   3.002   0.537   7.328
   59POPC   D2A 1255   2.922   0.297   6.960
   59POPC   C3A 1256   2.929   0.444   6.547
   59POPC   C4A 1257   2.887   0.227   6.173
   59POPC   C1B 1258   2.482   0.431   7.242
   59POPC   C2B 1259   2.292   0.708   6.916
   59POPC   C3B 1260   2.194   0.771   6.485
   59POPC   C4B 1261   2.483   0.733   6.068
   60POPC   NC3 1262   8.978   1.253   8.157
   60POPC   PO4 1263   8.328   1.352   8.092
   60POPC   GL1 1264   8.665   1.342   7.732
   60POPC   GL2 1265   8.872   1.068   7.658
   60POPC   C1A 1266   8.687   1.334   7.254
   60POPC   D2A 1267   8.882   1.267   6.827
   60POPC   C3A 1268   8.625   1.380   6.461
   60POPC   C4A 1269   8.676   1.339   5.966
   60POPC   C1B 1270   9.141   1.089   7.264
   60POPC   C2B 1271   9.211   0.818   6.930
   60POPC   C3B 1272   9.245   1.013   6.566
   60POPC   C4B 1273   9.085   1.307   6.265
   61POPC   NC3 1274   2.332  10.406   7.943
   61POPC   PO4 1275   1.729  10.687   8.121
   61POPC   GL1 1276   1.853  10.517   7.725
   61POPC   GL2 1277   1.864  10.137   7.739
   61POPC   C1A 1278   1.786  10.673   7.311
   61POPC   D2A 1279   1.684  10.849   6.914
   61POPC   C3A 1280   1.909  10.705   6.548
   61POPC   C4A 1281   1.845  10.651   6.108
   61POPC   C1B 1282   2.065  10.233   7.342
   61POPC   C2B 1283   1.999  10.383   6.935
   61POPC   C3B 1284   2.126  10.192   6.537
   61POPC   C4B 1285   2.067  10.221   6.099
   62POPC   NC3 1286   0.262   4.576   8.226
   62POPC   PO4 1287   0.081   4.054   7.981
   62POPC   GL1 1288   0.049   4.435   7.758
   62POPC   GL2 1289   0.391   4.511   7.737
   62POPC   C1A 1290   0.173   4.314   7.334
   62POPC   D2A 1291   0.150   4.090   6.962
   62POPC   C3A 1292   0.173   4.273   6.578
   62POPC   C4A 1293   0.225   4.051   6.187
   62POPC   C1B 1294   0.573   4.624   7.371
   62POPC   C2B 1295   0.687   4.499   6.960
   62POPC   C3B 1296   0.527   4.638   6.582
   62POPC   C4B 1297   0.539   4.449   6.189
   63POPC   NC3 1298   1.181   8.866   8.108
   63POPC   PO4 1299   1.565   9.480   8.112
   63POPC   GL1 1300   1.397   9.293   7.725
   63POPC   GL2 1301   1.067   9.112   7.682
   63POPC   C1A 1302   1.355   9.173   7.281
   63POPC   D2A 1303   1.103   9.234   6.930
   63POPC   C3A 1304   1.347   9.178   6.597
   63POPC   C4A 1305   1.221   9.077   6.217
   63POPC   C1B 1306   0.932   8.901   7.307
   63POPC   C2B 1307   1.175   8.719   6.946
   63POPC   C3B 1308   1.091   8.699   6.520
   63POPC   C4B 1309   0.798   8.771   6.170
   64POPC   NC3 1310   9.796  10.867   8.081
   64POPC   PO4 1311  10.128   0.056   8.130
   64POPC   GL1 1312   9.960  11.263   7.817
   64POPC   GL2 1313   9.591  11.253   7.720
   64POPC   C1A 1314   9.936  11.023   7.420
   64POPC   D2A 1315   9.865  11.223   7.001
   64POPC   C3A 1316   9.902  11.067   6.586
   64POPC   C4A 1317   9.856  10.839   6.221
   64POPC   C1B 1318   9.452  11.095   7.282
   64POPC   C2B 1319   9.323  11.133   6.842
   64POPC   C3B 1320   9.427  11.161   6.389
   64POPC   C4B 1321   9.233  11.335   5.983
   65POPC   NC3 1322   0.755   7.685   7.987
   65POPC   PO4 1323   1.422   7.663   7.908
   65POPC   GL1 1324   1.126   7.567   7.659
   65POPC   GL2 1325   1.130   7.231   7.822
   65POPC   C1A 1326   1.180   7.670   7.236
   65POPC   D2A 1327   1.443   7.816   6.928
   65POPC   C3A 1328   1.239   7.719   6.580
   65POPC   C4A 1329   1.125   7.644   6.195
   65POPC   C1B 1330   1.203   7.165   7.359
   65POPC   C2B 1331   0.962   7.116   6.941
   65POPC   C3B 1332   1.015   7.202   6.483
   65POPC   C4B 1333   1.455   7.271   6.338
   66POPC   NC3 1334   8.918   0.255   8.138
   66POPC   PO4 1335   9.188   0.842   8.093
   66POPC   GL1 1336   8.919   0.579   7.741
   66POPC   GL2 1337   8.722   0.250   7.669
   66POPC   C1A 1338   8.855   0.675   7.290
   66POPC   D2A 1339   8.668   0.815   6.868
   66POPC   C3A 1340   8.735   0.905   6.371
   66POPC   C4A 1341   8.624   0.811   5.892
   66POPC   C1B 1342   8.973   0.176   7.302
   66POPC   C2B 1343   8.893   0.322   6.908
   66POPC   C3B 1344   8.996   0.517   6.558
   66POPC   C4B 1345   8.785   0.434   6.200
   67POPC   NC3 1346   4.298   2.992   8.258
   67POPC   PO4 1347   3.682   3.124   8.076
   67POPC   GL1 1348   4.038   3.049   7.778
   67POPC   GL2 1349   4.354   2.821   7.717
   67POPC   C1A 1350   4.015   2.936   7.343
   67POPC   D2A 1351   4.148   2.763   6.948
   67POPC   C3A 1352   4.225   2.917   6.518
   67POPC   C4A 1353   4.401   3.073   6.125
   67POPC   C1B 1354   4.344   2.471   7.347
   67POPC   C2B 1355   4.165   2.265   6.940
   67POPC   C3B 1356   4.227   2.404   6.517
   67POPC   C4B 1357   4.562   2.572   6.265
   68POPC   NC3 1358   9.955   9.336   8.136
   68POPC   PO4 1359   9.820   8.714   8.078
   68POPC   GL1 1360   9.727   8.925   7.705
   68POPC   GL2 1361   9.352   8.929   7.683
   68POPC   C1A 1362   9.967   8.997   7.324
   68POPC   D2A 1363   9.918   8.766   6.915
   68POPC   C3A 1364   9.894   8.943   6.456
   68POPC   C4A 1365   9.998   9.169   6.022
   68POPC   C1B 1366   9.402   8.914   7.205
   68POPC   C2B 1367   9.448   8.938   6.739
   68POPC   C3B 1368   9.390   8.865   6.360
   68POPC   C4B 1369   9.180   8.468   6.415
   69POPC   NC3 1370  11.473   3.621   8.148
   69POPC   PO4 1371  10.740   3.545   7.946
   69POPC   GL1 1372  10.873   3.482   7.563
   69POPC   GL2 1373  11.171   3.316   7.710
   69POPC   C1A 1374  10.806   3.738   7.209
   69POPC   D2A 1375  10.837   3.623   6.774
   69POPC   C3A 1376  10.737   3.886   6.436
   69POPC   C4A 1377  10.970   3.734   6.056
   69POPC   C1B 1378  11.260   3.139   7.316
   69POPC   C2B 1379  11.329   3.261   6.873
   69POPC   C3B 1380  11.260   3.246   6.404
   69POPC   C4B 1381  11.002   2.965   6.148
   70POPC   NC3 1382   1.210   5.965   7.932
   70POPC   PO4 1383   0.863   5.441   8.113
   70POPC   GL1 1384   0.980   5.573   7.690
   70POPC   GL2 1385   1.332   5.519   7.703
   70POPC   C1A 1386   0.864   5.462   7.247
   70POPC   D2A 1387   0.669   5.495   6.853
   70POPC   C3A 1388   0.922   5.380   6.480
   70POPC   C4A 1389   1.057   5.456   6.045
   70POPC   C1B 1390   1.288   5.741   7.293
   70POPC   C2B 1391   1.215   5.586   6.867
   70POPC   C3B 1392   1.260   5.752   6.443
   70POPC   C4B 1393   1.335   5.912   6.041
   71POPC   NC3 1394   9.838   6.544   8.045
   71POPC   PO4 1395  10.486   6.376   7.971
   71POPC   GL1 1396  10.557   6.393   7.595
   71POPC   GL2 1397  10.771   6.652   7.589
   71POPC   C1A 1398  10.420   6.252   7.199
   71POPC   D2A 1399  10.570   6.321   6.779
   71POPC   C3A 1400  10.273   6.555   6.561
   71POPC   C4A 1401   9.973   6.544   6.261
   71POPC   C1B 1402  10.752   6.615   7.182
   71POPC   C2B 1403  10.651   6.811   6.829
   71POPC   C3B 1404  10.723   6.728   6.403
   71POPC   C4B 1405  10.414   6.765   6.084
   72POPC   NC3 1406   2.868   1.020   8.031
   72POPC   PO4 1407   3.067   1.599   8.081
   72POPC   GL1 1408   3.010   1.356   7.676
   72POPC   GL2 1409   2.682   1.181   7.608
   72POPC   C1A 1410   2.868   1.437   7.231
   72POPC   D2A 1411   2.743   1.635   6.882
   72POPC   C3A 1412   2.788   1.424   6.532
   72POPC   C4A 1413   2.659   1.613   6.194
   72POPC   C1B 1414   2.627   0.943   7.258
   72POPC   C2B 1415   2.835   0.820   6.889
   72POPC   C3B 1416   2.685   0.913   6.496
   72POPC   C4B 1417   2.388   1.191   6.301
   73POPC   NC3 1418   9.729   7.600   8.066
   73POPC   PO4 1419   9.682   6.971   7.984
   73POPC   GL1 1420   9.624   7.324   7.638
   73POPC   GL2 1421   9.848   7.625   7.568
   73POPC   C1A 1422   9.498   7.486   7.198
   73POPC   D2A 1423   9.501   7.404   6.722
   73POPC   C3A 1424   9.337   7.085   6.384
   73POPC   C4A 1425   9.343   6.848   5.961
   73POPC   C1B 1426   9.985   7.337   7.230
   73POPC   C2B 1427  10.031   7.300   6.773
   73POPC   C3B 1428   9.841   7.231   6.370
   73POPC   C4B 1429   9.854   6.981   5.999
   74POPC   NC3 1430  10.520   3.916   8.084
   74POPC   PO4 1431  10.642   4.548   7.910
   74POPC   GL1 1432  10.709   4.390   7.546
   74POPC   GL2 1433  10.488   4.122   7.578
   74POPC   C1A 1434  10.735   4.270   7.132
   74POPC   D2A 1435  10.706   4.571   6.836
   74POPC   C3A 1436  10.648   4.477   6.433
   74POPC   C4A 1437  10.649   4.608   6.007
   74POPC   C1B 1438  10.336   3.923   7.235
   74POPC   C2B 1439  10.446   3.952   6.854
   74POPC   C3B 1440  10.257   4.173   6.582
   74POPC   C4B 1441  10.326   4.162   6.196
   75POPC   NC3 1442   4.903  10.355   8.170
   75POPC   PO4 1443   5.461   9.976   8.022
   75POPC   GL1 1444   5.216  10.213   7.700
   75POPC   GL2 1445   5.037  10.547   7.708
   75POPC   C1A 1446   5.109  10.152   7.231
   75POPC   D2A 1447   5.058  10.246   6.769
   75POPC   C3A 1448   4.981   9.935   6.387
   75POPC   C4A 1449   4.953   9.919   5.880
   75POPC   C1B 1450   4.756  10.521   7.335
   75POPC   C2B 1451   4.668  10.638   6.885
   75POPC   C3B 1452   4.882  10.599   6.450
   75POPC   C4B 1453   5.083  10.359   6.106
   76POPC   NC3 1454   7.585   8.235   8.038
   76POPC   PO4 1455   7.015   8.398   7.879
   76POPC   GL1 1456   7.244   8.523   7.534
   76POPC   GL2 1457   7.474   8.280   7.539
   76POPC   C1A 1458   7.245   8.540   7.080
   76POPC   D2A 1459   7.200   8.227   6.756
   76POPC   C3A 1460   7.079   8.324   6.360
   76POPC   C4A 1461   7.074   8.636   6.057
   76POPC   C1B 1462   7.342   8.027   7.210
   76POPC   C2B 1463   7.541   7.861   6.831
   76POPC   C3B 1464   7.414   7.899   6.374
   76POPC   C4B 1465   7.504   7.788   5.913
   77POPC   NC3 1466   2.447  11.233   8.493
   77POPC   PO4 1467   3.060  11.386   8.309
   77POPC   GL1 1468   2.781  11.383   7.830
   77POPC   GL2 1469   2.546  11.115   7.805
   77POPC   C1A 1470   2.790  11.497   7.367
   77POPC   D2A 1471   2.909  11.298   6.957
   77POPC   C3A 1472   2.714  11.458   6.569
   77POPC   C4A 1473   2.450  11.437   6.196
   77POPC   C1B 1474   2.740  10.992   7.386
   77POPC   C2B 1475   2.693  10.852   6.968
   77POPC   C3B 1476   2.792  10.956   6.555
   77POPC   C4B 1477   2.653  10.938   6.138
   78POPC   NC3 1478   7.832   0.661   8.008
   78POPC   PO4 1479   8.509   0.492   8.098
   78POPC   GL1 1480   8.303   0.567   7.722
   78POPC   GL2 1481   8.132   0.299   7.746
   78POPC   C1A 1482   8.389   0.487   7.312
   78POPC   D2A 1483   8.206   0.585   6.940
   78POPC   C3A 1484   8.431   0.474   6.575
   78POPC   C4A 1485   8.237   0.575   6.203
   78POPC   C1B 1486   7.876   0.396   7.385
   78POPC   C2B 1487   7.869   0.202   6.996
   78POPC   C3B 1488   7.855   0.416   6.585
   78POPC   C4B 1489   7.727   0.143   6.276
   79POPC   NC3 1490   2.032   0.513   8.024
   79POPC   PO4 1491   2.452   0.060   8.179
   79POPC   GL1 1492   2.159   0.045   7.799
   79POPC   GL2 1493   1.891   0.272   7.600
   79POPC   C1A 1494   2.213  11.476   7.361
   79POPC   D2A 1495   2.420  11.451   6.983
   79POPC   C3A 1496   2.187   0.097   6.606
   79POPC   C4A 1497   2.157   0.356   6.224
   79POPC   C1B 1498   1.893   0.407   7.156
   79POPC   C2B 1499   1.750   0.335   6.723
   79POPC   C3B 1500   1.707   0.603   6.359
   79POPC   C4B 1501   1.700   0.458   5.959
   80POPC   NC3 1502  10.811   3.248   8.289
   80POPC   PO4 1503  10.134   3.321   8.245
   80POPC   GL1 1504  10.327   3.327   7.758
   80POPC   GL2 1505  10.355   3.637   7.641
   80POPC   C1A 1506  10.632   3.056   7.478
   80POPC   D2A 1507  10.815   3.230   7.096
   80POPC   C3A 1508  10.813   3.098   6.654
   80POPC   C4A 1509  10.730   3.383   6.329
   80POPC   C1B 1510  10.345   3.417   7.245
   80POPC   C2B 1511  10.231   3.493   6.820
   80POPC   C3B 1512  10.276   3.662   6.401
   80POPC   C4B 1513  10.478   3.715   6.002
   81POPC   NC3 1514  10.817   6.690   8.085
   81POPC   PO4 1515  10.593   7.358   8.132
   81POPC   GL1 1516  10.494   7.134   7.742
   81POPC   GL2 1517  10.137   7.240   7.755
   81POPC   C1A 1518  10.571   7.139   7.266
   81POPC   D2A 1519  10.710   7.312   6.853
   81POPC   C3A 1520  10.457   7.165   6.509
   81POPC   C4A 1521  10.517   7.290   6.119
   81POPC   C1B 1522  10.357   7.573   7.487
   81POPC   C2B 1523  10.363   7.626   7.028
   81POPC   C3B 1524  10.355   7.669   6.573
   81POPC   C4B 1525  10.117   7.599   6.175
   82POPC   NC3 1526   0.551   9.920   7.910
   82POPC   PO4 1527   0.794   9.235   8.092
   82POPC   GL1 1528   0.693   9.458   7.732
   82POPC   GL2 1529   0.322   9.484   7.736
   82POPC   C1A 1530   0.851   9.443   7.313
   82POPC   D2A 1531   0.698   9.680   6.924
   82POPC   C3A 1532   0.548   9.572   6.500
   82POPC   C4A 1533   0.843   9.471   6.171
   82POPC   C1B 1534   0.347   9.585   7.307
   82POPC   C2B 1535   0.253   9.906   7.018
   82POPC   C3B 1536   0.008   9.956   6.673
   82POPC   C4B 1537   0.159   9.876   6.264
   83POPC   NC3 1538   3.329   1.964   7.994
   83POPC   PO4 1539   3.915   1.635   8.243
   83POPC   GL1 1540   3.640   1.604   7.752
   83POPC   GL2 1541   3.533   1.940   7.516
   83POPC   C1A 1542   3.348   1.526   7.366
   83POPC   D2A 1543   3.484   1.644   6.990
   83POPC   C3A 1544   3.382   1.554   6.596
   83POPC   C4A 1545   3.516   1.824   6.266
   83POPC   C1B 1546   3.461   2.204   7.130
   83POPC   C2B 1547   3.280   2.465   6.814
   83POPC   C3B 1548   3.399   2.327   6.405
   83POPC   C4B 1549   3.806   2.312   6.226
   84POPC   NC3 1550   6.682  10.743   7.915
   84POPC   PO4 1551   7.096  10.256   8.174
   84POPC   GL1 1552   6.904  10.300   7.736
   84POPC   GL2 1553   6.508  10.301   7.707
   84POPC   C1A 1554   6.811  10.507   7.319
   84POPC   D2A 1555   6.493  10.560   6.989
   84POPC   C3A 1556   6.563  10.463   6.542
   84POPC   C4A 1557   6.704  10.802   6.324
   84POPC   C1B 1558   6.463  10.122   7.272
   84POPC   C2B 1559   6.617  10.059   6.837
   84POPC   C3B 1560   6.472   9.964   6.392
   84POPC   C4B 1561   6.496   9.964   5.913
   85POPC   NC3 1562   9.694   2.649   7.941
   85POPC   PO4 1563   9.101   2.427   7.893
   85POPC   GL1 1564   9.247   2.789   7.644
   85POPC   GL2 1565   9.465   2.568   7.491
   85POPC   C1A 1566   9.353   3.071   7.256
   85POPC   D2A 1567   9.422   2.887   6.838
   85POPC   C3A 1568   9.490   3.007   6.419
   85POPC   C4A 1569   9.493   2.773   6.055
   85POPC   C1B 1570   9.737   2.758   7.211
   85POPC   C2B 1571   9.976   2.630   6.869
   85POPC   C3B 1572   9.959   2.716   6.440
   85POPC   C4B 1573   9.957   2.987   6.115
   86POPC   NC3 1574   0.219   9.138   8.095
   86POPC   PO4 1575   0.018   8.556   8.157
   86POPC   GL1 1576   0.230   8.703   7.732
   86POPC   GL2 1577   0.597   8.840   7.771
   86POPC   C1A 1578   0.461   8.622   7.299
   86POPC   D2A 1579   0.672   8.700   6.890
   86POPC   C3A 1580   0.366   8.789   6.559
   86POPC   C4A 1581   0.260   8.667   6.122
   86POPC   C1B 1582   0.474   9.105   7.424
   86POPC   C2B 1583   0.561   9.187   6.975
   86POPC   C3B 1584   0.768   9.118   6.559
   86POPC   C4B 1585   0.463   9.144   6.203
   87POPC   NC3 1586   6.238   2.431   8.148
   87POPC   PO4 1587   6.833   2.405   8.014
   87POPC   GL1 1588   6.762   2.259   7.614
   87POPC   GL2 1589   6.459   2.439   7.571
   87POPC   C1A 1590   6.727   2.264   7.150
   87POPC   D2A 1591   6.652   2.473   6.751
   87POPC   C3A 1592   6.580   2.344   6.333
   87POPC   C4A 1593   6.781   2.622   6.025
   87POPC   C1B 1594   6.433   2.699   7.165
   87POPC   C2B 1595   6.448   2.942   6.755
   87POPC   C3B 1596   6.371   2.811   6.323
   87POPC   C4B 1597   6.135   2.921   5.947
   88POPC   NC3 1598   5.860  10.194   7.927
   88POPC   PO4 1599   5.356  10.536   8.279
   88POPC   GL1 1600   5.520  10.619   7.834
   88POPC   GL2 1601   5.818  10.681   7.670
   88POPC   C1A 1602   5.480  10.499   7.349
   88POPC   D2A 1603   5.597  10.426   6.894
   88POPC   C3A 1604   5.398  10.538   6.469
   88POPC   C4A 1605   5.514  10.597   5.994
   88POPC   C1B 1606   6.028  10.427   7.322
   88POPC   C2B 1607   6.100  10.266   6.905
   88POPC   C3B 1608   6.004  10.489   6.556
   88POPC   C4B 1609   5.768  10.270   6.275
   89POPC   NC3 1610   1.130   1.921   8.001
   89POPC   PO4 1611   1.581   2.335   8.332
   89POPC   GL1 1612   1.587   2.081   7.851
   89POPC   GL2 1613   1.281   2.183   7.587
   89POPC   C1A 1614   1.660   2.007   7.372
   89POPC   D2A 1615   1.367   2.200   7.068
   89POPC   C3A 1616   1.477   2.217   6.632
   89POPC   C4A 1617   1.156   2.315   6.330
   89POPC   C1B 1618   1.161   1.807   7.342
   89POPC   C2B 1619   0.996   1.783   6.923
   89POPC   C3B 1620   1.190   1.821   6.534
   89POPC   C4B 1621   1.289   1.563   6.203
   90POPC   NC3 1622   6.113   0.741   8.009
   90POPC   PO4 1623   6.864   0.671   7.979
   90POPC   GL1 1624   6.771   0.536   7.578
   90POPC   GL2 1625   6.929   0.237   7.460
   90POPC   C1A 1626   6.683   0.627   7.151
   90POPC   D2A 1627   6.618   0.424   6.787
   90POPC   C3A 1628   6.846   0.588   6.464
   90POPC   C4A 1629   6.710   0.788   6.075
   90POPC   C1B 1630   6.501   0.164   7.298
   90POPC   C2B 1631   6.365  11.479   6.913
   90POPC   C3B 1632   6.167   0.220   6.612
   90POPC   C4B 1633   6.391   0.435   6.299
   91POPC   NC3 1634   4.222   2.065   8.310
   91POPC   PO4 1635   3.781   2.043   7.932
   91POPC   GL1 1636   4.032   2.015   7.588
   91POPC   GL2 1637   4.133   1.690   7.560
   91POPC   C1A 1638   3.881   1.917   7.160
   91POPC   D2A 1639   3.736   2.008   6.719
   91POPC   C3A 1640   4.069   1.933   6.416
   91POPC   C4A 1641   4.284   2.170   6.055
   91POPC   C1B 1642   4.382   1.862   7.216
   91POPC   C2B 1643   4.420   1.790   6.772
   91POPC   C3B 1644   4.566   1.833   6.337
   91POPC   C4B 1645   4.542   1.751   5.886
   92POPC   NC3 1646   7.564  11.203   7.913
   92POPC   PO4 1647   6.837  11.199   7.965
   92POPC   GL1 1648   7.076  10.967   7.619
   92POPC   GL2 1649   7.317  11.212   7.476
   92POPC   C1A 1650   7.132  10.878   7.145
   92POPC   D2A 1651   7.254  11.126   6.792
   92POPC   C3A 1652   7.063  11.147   6.408
   92POPC   C4A 1653   7.082  10.871   6.000
   92POPC   C1B 1654   7.630  11.194   7.143
   92POPC   C2B 1655   7.797  11.201   6.746
   92POPC   C3B 1656   7.611  11.121   6.360
   92POPC   C4B 1657   7.366  11.318   6.039
   93POPC   NC3 1658   0.483  10.484   8.155
   93POPC   PO4 1659   0.097   9.932   7.920
   93POPC   GL1 1660   0.226  10.037   7.519
   93POPC   GL2 1661   0.442  10.329   7.609
   93POPC   C1A 1662   0.122  10.356   7.199
   93POPC   D2A 1663   0.220  10.608   6.829
   93POPC   C3A 1664   0.233  10.367   6.475
   93POPC   C4A 1665   0.600  10.079   6.501
   93POPC   C1B 1666   0.572  10.592   7.243
   93POPC   C2B 1667   0.814  10.735   6.913
   93POPC   C3B 1668   0.712  10.597   6.543
   93POPC   C4B 1669   0.521  10.626   6.152
   94POPC   NC3 1670   4.559   0.560   8.094
   94POPC   PO4 1671   4.039   0.159   7.888
   94POPC   GL1 1672   4.279   0.366   7.566
   94POPC   GL2 1673   4.612   0.318   7.659
   94POPC   C1A 1674   4.163   0.451   7.109
   94POPC   D2A 1675   3.851   0.317   6.740
   94POPC   C3A 1676   4.004   0.452   6.303
   94POPC   C4A 1677   4.369   0.712   6.170
   94POPC   C1B 1678   4.649   0.194   7.236
   94POPC   C2B 1679   4.577   0.246   6.796
   94POPC   C3B 1680   4.489   0.203   6.372
   94POPC   C4B 1681   4.410  11.353   6.087
   95POPC   NC3 1682   7.120   2.048   7.952
   95POPC   PO4 1683   7.772   2.096   8.127
   95POPC   GL1 1684   7.572   2.151   7.674
   95POPC   GL2 1685   7.417   1.830   7.544
   95POPC   C1A 1686   7.587   2.153   7.182
   95POPC   D2A 1687   7.423   1.961   6.781
   95POPC   C3A 1688   7.503   2.145   6.379
   95POPC   C4A 1689   7.454   2.013   5.956
   95POPC   C1B 1690   7.108   1.923   7.183
   95POPC   C2B 1691   6.916   2.007   6.722
   95POPC   C3B 1692   6.997   2.042   6.251
   95POPC   C4B 1693   6.734   2.128   5.888
   96POPC   NC3 1694  11.125   4.278   8.044
   96POPC   PO4 1695  11.057   3.648   8.352
   96POPC   GL1 1696  11.152   3.813   7.839
   96POPC   GL2 1697  10.949   3.970   7.673
   96POPC   C1A 1698  11.309   3.783   7.355
   96POPC   D2A 1699  11.154   4.003   6.925
   96POPC   C3A 1700  11.249   3.961   6.444
   96POPC   C4A 1701  10.957   4.217   6.138
   96POPC   C1B 1702  11.176   4.280   7.389
   96POPC   C2B 1703  11.202   4.513   6.986
   96POPC   C3B 1704  11.150   4.437   6.562
   96POPC   C4B 1705  11.409   4.445   6.183
   97POPC   NC3 1706   7.996   1.676   8.063
   97POPC   PO4 1707   8.509   2.189   8.030
   97POPC   GL1 1708   8.521   1.846   7.737
   97POPC   GL2 1709   8.258   1.620   7.655
   97POPC   C1A 1710   8.516   1.825   7.292
   97POPC   D2A 1711   8.265   1.951   6.941
   97POPC   C3A 1712   8.426   1.907   6.511
   97POPC   C4A 1713   8.289   1.642   6.207
   97POPC   C1B 1714   7.960   1.841   7.401
   97POPC   C2B 1715   7.804   1.700   7.006
   97POPC   C3B 1716   7.887   1.834   6.582
   97POPC   C4B 1717   8.035   2.093   6.239
   98POPC   NC3 1718  11.033   5.842   8.282
   98POPC   PO4 1719   0.088   5.986   7.847
   98POPC   GL1 1720  11.299   5.865   7.585
   98POPC   GL2 1721  11.132   5.630   7.766
   98POPC   C1A 1722  11.356   5.806   7.148
   98POPC   D2A 1723  11.208   5.572   6.786
   98POPC   C3A 1724  11.212   5.755   6.377
   98POPC   C4A 1725  11.011   5.984   6.036
   98POPC   C1B 1726  10.945   5.559   7.349
   98POPC   C2B 1727  10.735   5.514   6.949
   98POPC   C3B 1728  10.783   5.392   6.534
   98POPC   C4B 1729  10.773   5.570   6.151
   99POPC   NC3 1730   1.496   6.492   8.261
   99POPC   PO4 1731   0.893   6.327   7.990
   99POPC   GL1 1732   1.175   6.402   7.677
   99POPC   GL2 1733   1.259   6.738   7.741
   99POPC   C1A 1734   1.160   6.253   7.257
   99POPC   D2A 1735   1.311   6.103   6.839
   99POPC   C3A 1736   1.179   6.269   6.428
   99POPC   C4A 1737   1.481   6.398   6.115
   99POPC   C1B 1738   0.981   6.722   7.331
   99POPC   C2B 1739   1.152   6.625   6.896
   99POPC   C3B 1740   1.299   6.770   6.474
   99POPC   C4B 1741   1.079   6.709   6.095
  100POPC   NC3 1742   1.374   4.404   8.029
  100POPC   PO4 1743   0.714   4.606   8.107
  100POPC   GL1 1744   0.929   4.425   7.685
  100POPC   GL2 1745   1.278   4.180   7.586
  100POPC   C1A 1746   0.860   4.162   7.320
  100POPC   D2A 1747   1.106   4.063   6.936
  100POPC   C3A 1748   0.864   4.212   6.561
  100POPC   C4A 1749   1.000   4.151   6.138
  100POPC   C1B 1750   1.312   4.445   7.250
  100POPC   C2B 1751   1.221   4.542   6.829
  100POPC   C3B 1752   1.341   4.353   6.454
  100POPC   C4B 1753   1.395   4.539   6.076
  101POPC   NC3 1754   7.318   9.850   8.116
  101POPC   PO4 1755   7.292   9.264   7.924
  101POPC   GL1 1756   7.557   9.406   7.614
  101POPC   GL2 1757   7.531   9.732   7.672
  101POPC   C1A 1758   7.457   9.481   7.155
  101POPC   D2A 1759   7.541   9.421   6.722
  101POPC   C3A 1760   7.294   9.668   6.419
  101POPC   C4A 1761   7.061   9.484   6.088
  101POPC   C1B 1762   7.248   9.917   7.337
  101POPC   C2B 1763   7.139   9.960   6.857
  101POPC   C3B 1764   6.996  10.120   6.419
  101POPC   C4B 1765   7.018   9.972   5.958
  102POPC   NC3 1766   2.127   8.565   7.991
  102POPC   PO4 1767   1.480   8.508   8.115
  102POPC   GL1 1768   1.650   8.532   7.735
  102POPC   GL2 1769   1.729   8.886   7.773
  102POPC   C1A 1770   1.509   8.692   7.339
  102POPC   D2A 1771   1.665   8.910   6.934
  102POPC   C3A 1772   1.635   8.727   6.496
  102POPC   C4A 1773   1.773   8.449   6.132
  102POPC   C1B 1774   2.002   8.804   7.413
  102POPC   C2B 1775   2.173   8.869   7.045
  102POPC   C3B 1776   2.129   8.867   6.641
  102POPC   C4B 1777   2.133   8.811   6.223
  103POPC   NC3 1778   2.976   6.508   8.075
  103POPC   PO4 1779   2.453   6.001   8.128
  103POPC   GL1 1780   2.444   6.185   7.675
  103POPC   GL2 1781   2.645   6.459   7.666
  103POPC   C1A 1782   2.504   6.181   7.218
  103POPC   D2A 1783   2.481   6.074   6.768
  103POPC   C3A 1784   2.864   6.234   6.513
  103POPC   C4A 1785   2.954   6.396   6.098
  103POPC   C1B 1786   2.631   6.673   7.253
  103POPC   C2B 1787   2.607   6.544   6.834
  103POPC   C3B 1788   2.626   6.657   6.402
  103POPC   C4B 1789   2.837   6.910   6.087
  104POPC   NC3 1790   7.701   1.412   8.460
  104POPC   PO4 1791   7.177   1.571   7.967
  104POPC   GL1 1792   7.308   1.317   7.596
  104POPC   GL2 1793   7.485   1.004   7.716
  104POPC   C1A 1794   7.355   1.460   7.139
  104POPC   D2A 1795   7.484   1.450   6.675
  104POPC   C3A 1796   7.295   1.610   6.250
  104POPC   C4A 1797   7.439   1.500   5.787
  104POPC   C1B 1798   7.565   0.992   7.271
  104POPC   C2B 1799   7.258   0.991   6.935
  104POPC   C3B 1800   7.104   1.074   6.527
  104POPC   C4B 1801   7.480   1.135   6.264
  105POPC   NC3 1802   3.734  10.276   8.036
  105POPC   PO4 1803   3.271   9.839   8.158
  105POPC   GL1 1804   3.267  10.110   7.792
  105POPC   GL2 1805   3.256  10.495   7.814
  105POPC   C1A 1806   3.208  10.035   7.352
  105POPC   D2A 1807   3.357  10.237   6.971
  105POPC   C3A 1808   3.232  10.090   6.562
  105POPC   C4A 1809   3.510  10.162   6.246
  105POPC   C1B 1810   3.502  10.492   7.413
  105POPC   C2B 1811   3.762  10.532   7.027
  105POPC   C3B 1812   3.605  10.618   6.588
  105POPC   C4B 1813   3.846  10.564   6.203
  106POPC   NC3 1814   0.585   6.746   7.942
  106POPC   PO4 1815   0.210   6.368   8.292
  106POPC   GL1 1816   0.181   6.488   7.810
  106POPC   GL2 1817   0.462   6.325   7.637
  106POPC   C1A 1818   0.171   6.615   7.330
  106POPC   D2A 1819   0.177   6.409   6.904
  106POPC   C3A 1820   0.250   6.637   6.510
  106POPC   C4A 1821   0.253   6.606   6.066
  106POPC   C1B 1822   0.614   6.383   7.212
  106POPC   C2B 1823   0.615   6.721   6.909
  106POPC   C3B 1824   0.793   6.680   6.523
  106POPC   C4B 1825   0.687   6.374   6.235
  107POPC   NC3 1826   5.825  10.589   8.301
  107POPC   PO4 1827   5.611  11.236   8.116
  107POPC   GL1 1828   5.504  11.131   7.702
  107POPC   GL2 1829   5.733  11.359   7.606
  107POPC   C1A 1830   5.673  10.982   7.289
  107POPC   D2A 1831   5.957  10.828   6.996
  107POPC   C3A 1832   5.681  10.896   6.687
  107POPC   C4A 1833   5.667  10.983   6.274
  107POPC   C1B 1834   6.026  11.383   7.303
  107POPC   C2B 1835   5.857  11.353   6.918
  107POPC   C3B 1836   6.000  11.256   6.551
  107POPC   C4B 1837   5.974  11.443   6.202
  108POPC   NC3 1838   9.943   3.616   7.955
  108POPC   PO4 1839   9.896   3.028   7.805
  108POPC   GL1 1840   9.888   3.300   7.487
  108POPC   GL2 1841   9.883   3.655   7.436
  108POPC   C1A 1842   9.853   3.252   7.085
  108POPC   D2A 1843   9.877   3.115   6.730
  108POPC   C3A 1844   9.827   3.406   6.398
  108POPC   C4A 1845   9.632   3.374   5.994
  108POPC   C1B 1846   9.486   3.574   7.185
  108POPC   C2B 1847   9.424   3.397   6.758
  108POPC   C3B 1848   9.303   3.577   6.341
  108POPC   C4B 1849   9.467   3.853   5.994
  109POPC   NC3 1850   2.049   4.603   8.064
  109POPC   PO4 1851   2.049   4.004   8.146
  109POPC   GL1 1852   1.806   4.160   7.786
  109POPC   GL2 1853   2.132   4.181   7.644
  109POPC   C1A 1854   1.735   4.146   7.310
  109POPC   D2A 1855   1.614   4.195   6.855
  109POPC   C3A 1856   1.840   4.421   6.493
  109POPC   C4A 1857   1.901   4.752   6.151
  109POPC   C1B 1858   2.195   3.897   7.281
  109POPC   C2B 1859   2.105   4.010   6.856
  109POPC   C3B 1860   2.272   4.126   6.430
  109POPC   C4B 1861   2.006   4.169   6.063
  110POPC   NC3 1862  10.199   8.429   8.048
  110POPC   PO4 1863  10.364   9.114   8.197
  110POPC   GL1 1864  10.254   8.870   7.787
  110POPC   GL2 1865  10.553   8.672   7.706
  110POPC   C1A 1866  10.181   8.543   7.398
  110POPC   D2A 1867  10.410   8.540   6.987
  110POPC   C3A 1868  10.247   8.584   6.560
  110POPC   C4A 1869  10.284   8.763   6.140
  110POPC   C1B 1870  10.545   8.891   7.346
  110POPC   C2B 1871  10.734   8.984   6.981
  110POPC   C3B 1872  10.667   8.893   6.578
  110POPC   C4B 1873  10.719   9.036   6.197
  111POPC   NC3 1874   0.471   0.559   8.136
  111POPC   PO4 1875   0.300  11.414   8.119
  111POPC   GL1 1876   0.507   0.077   7.725
  111POPC   GL2 1877   0.476   0.448   7.606
  111POPC   C1A 1878   0.442   0.023   7.269
  111POPC   D2A 1879   0.377   0.268   6.879
  111POPC   C3A 1880   0.368   0.050   6.454
  111POPC   C4A 1881   0.456   0.146   5.990
  111POPC   C1B 1882   0.327   0.764   7.261
  111POPC   C2B 1883   0.367   0.810   6.806
  111POPC   C3B 1884   0.554   0.583   6.496
  111POPC   C4B 1885   0.820   0.501   6.181
  112POPC   NC3 1886  10.614   9.569   8.047
  112POPC   PO4 1887   9.936   9.794   8.223
  112POPC   GL1 1888  10.198   9.758   7.833
  112POPC   GL2 1889  10.337   9.389   7.684
  112POPC   C1A 1890  10.216   9.803   7.391
  112POPC   D2A 1891  10.007   9.661   7.024
  112POPC   C3A 1892  10.176   9.647   6.629
  112POPC   C4A 1893   9.994   9.666   6.192
  112POPC   C1B 1894  10.362   9.342   7.226
  112POPC   C2B 1895  10.234   9.146   6.841
  112POPC   C3B 1896  10.310   9.222   6.414
  112POPC   C4B 1897  10.462   9.485   6.081
  113POPC   NC3 1898   9.560  10.021   8.383
  113POPC   PO4 1899   9.296   9.578   7.981
  113POPC   GL1 1900   9.664   9.682   7.777
  113POPC   GL2 1901   9.841   9.433   7.649
  113POPC   C1A 1902   9.655   9.849   7.347
  113POPC   D2A 1903   9.498   9.727   6.939
  113POPC   C3A 1904   9.733   9.902   6.591
  113POPC   C4A 1905   9.536   9.916   6.190
  113POPC   C1B 1906   9.578   9.356   7.346
  113POPC   C2B 1907   9.729   9.259   6.969
  113POPC   C3B 1908   9.733   9.396   6.590
  113POPC   C4B 1909   9.563   9.350   6.222
  114POPC   NC3 1910  10.179  10.311   8.127
  114POPC   PO4 1911  10.841  10.123   8.284
  114POPC   GL1 1912  10.621  10.404   7.844
  114POPC   GL2 1913  10.347  10.251   7.651
  114POPC   C1A 1914  10.718  10.403   7.339
  114POPC   D2A 1915  10.506  10.476   6.936
  114POPC   C3A 1916  10.684  10.571   6.529
  114POPC   C4A 1917  10.736  10.223   6.284
  114POPC   C1B 1918  10.254  10.619   7.376
  114POPC   C2B 1919  10.054  10.719   6.971
  114POPC   C3B 1920  10.176  10.609   6.540
  114POPC   C4B 1921  10.336  10.463   6.098
  115POPC   NC3 1922  10.693   7.863   8.028
  115POPC   PO4 1923  10.016   7.982   8.025
  115POPC   GL1 1924  10.171   8.033   7.640
  115POPC   GL2 1925  10.483   8.157   7.644
  115POPC   C1A 1926  10.206   8.066   7.215
  115POPC   D2A 1927  10.000   8.257   6.906
  115POPC   C3A 1928  10.070   8.091   6.520
  115POPC   C4A 1929  10.073   8.294   6.150
  115POPC   C1B 1930  10.696   7.926   7.305
  115POPC   C2B 1931  10.605   8.057   6.872
  115POPC   C3B 1932  10.560   8.184   6.455
  115POPC   C4B 1933  10.521   7.890   6.128
  116POPC   NC3 1934   0.071   7.601   7.997
  116POPC   PO4 1935   0.627   7.207   7.924
  116POPC   GL1 1936   0.335   7.363   7.641
  116POPC   GL2 1937   0.184   7.015   7.674
  116POPC   C1A 1938   0.298   7.626   7.248
  116POPC   D2A 1939   0.051   7.581   6.842
  116POPC   C3A 1940   0.318   7.587   6.456
  116POPC   C4A 1941   0.657   7.439   6.165
  116POPC   C1B 1942   0.476   7.043   7.285
  116POPC   C2B 1943   0.480   7.277   6.889
  116POPC   C3B 1944   0.501   7.092   6.499
  116POPC   C4B 1945   0.657   6.949   6.097
  117POPC   NC3 1946   8.466   9.790   8.093
  117POPC   PO4 1947   7.744   9.662   8.196
  117POPC   GL1 1948   8.051   9.566   7.830
  117POPC   GL2 1949   8.029   9.877   7.727
  117POPC   C1A 1950   8.367   9.607   7.424
  117POPC   D2A 1951   8.471   9.654   6.938
  117POPC   C3A 1952   8.244   9.510   6.528
  117POPC   C4A 1953   8.183   9.691   6.169
  117POPC   C1B 1954   7.888   9.683   7.323
  117POPC   C2B 1955   7.956   9.718   6.886
  117POPC   C3B 1956   7.789   9.815   6.477
  117POPC   C4B 1957   7.738   9.429   6.233
  118POPC   NC3 1958   3.597   0.383   7.930
  118POPC   PO4 1959   3.800   1.032   7.969
  118POPC   GL1 1960   3.805   0.702   7.607
  118POPC   GL2 1961   3.783   0.346   7.463
  118POPC   C1A 1962   3.553   0.718   7.211
  118POPC   D2A 1963   3.356   0.551   6.838
  118POPC   C3A 1964   3.580   0.725   6.506
  118POPC   C4A 1965   3.631   0.755   6.045
  118POPC   C1B 1966   3.416   0.215   7.235
  118POPC   C2B 1967   3.388  11.444   6.908
  118POPC   C3B 1968   3.242   0.010   6.512
  118POPC   C4B 1969   3.367   0.360   6.250
  119POPC   NC3 1970  11.257   2.358   8.187
  119POPC   PO4 1971  10.723   2.713   8.229
  119POPC   GL1 1972  10.906   2.569   7.845
  119POPC   GL2 1973  11.237   2.756   7.860
  119POPC   C1A 1974  10.995   2.667   7.415
  119POPC   D2A 1975  10.849   2.734   7.027
  119POPC   C3A 1976  10.914   2.410   6.759
  119POPC   C4A 1977  10.920   2.410   6.307
  119POPC   C1B 1978  11.482   2.689   7.493
  119POPC   C2B 1979  11.418   2.733   7.048
  119POPC   C3B 1980  11.234   2.789   6.658
  119POPC   C4B 1981  11.421   2.718   6.292
  120POPC   NC3 1982   8.120  11.425   8.111
  120POPC   PO4 1983   7.757  10.894   8.210
  120POPC   GL1 1984   8.027  11.129   7.728
  120POPC   GL2 1985   7.849  11.399   7.551
  120POPC   C1A 1986   8.111  11.002   7.261
  120POPC   D2A 1987   8.298  11.116   6.850
  120POPC   C3A 1988   8.156  11.065   6.389
  120POPC   C4A 1989   8.003  10.798   6.056
  120POPC   C1B 1990   8.228  11.498   7.355
  120POPC   C2B 1991   8.398   0.107   6.968
  120POPC   C3B 1992   8.180   0.035   6.597
  120POPC   C4B 1993   8.250   0.055   6.191
  121POPC   NC3 1994   6.003   1.564   8.103
  121POPC   PO4 1995   5.340   1.579   8.091
  121POPC   GL1 1996   5.680   1.422   7.740
  121POPC   GL2 1997   5.911   1.110   7.692
  121POPC   C1A 1998   5.911   1.440   7.326
  121POPC   D2A 1999   5.770   1.336   6.922
  121POPC   C3A 2000   5.958   1.335   6.517
  121POPC   C4A 2001   5.739   1.313   6.099
  121POPC   C1B 2002   5.858   0.925   7.244
  121POPC   C2B 2003   5.595   0.863   6.867
  121POPC   C3B 2004   5.667   0.936   6.429
  121POPC   C4B 2005   6.091   0.971   6.165
  122POPC   NC3 2006  10.743   1.550   7.899
  122POPC   PO4 2007  11.349   1.912   8.091
  122POPC   GL1 2008  11.317   2.183   7.711
  122POPC   GL2 2009  11.206   1.862   7.569
  122POPC   C1A 2010  11.304   2.269   7.256
  122POPC   D2A 2011  11.489   2.126   6.896
  122POPC   C3A 2012  11.378   2.286   6.550
  122POPC   C4A 2013  11.369   2.232   6.139
  122POPC   C1B 2014  11.138   1.791   7.123
  122POPC   C2B 2015  11.032   1.926   6.710
  122POPC   C3B 2016  10.995   1.859   6.272
  122POPC   C4B 2017  10.899   1.671   5.862
  123POPC   NC3 2018   1.303   3.501   8.039
  123POPC   PO4 2019   1.060   4.072   8.018
  123POPC   GL1 2020   0.954   3.761   7.692
  123POPC   GL2 2021   1.280   3.626   7.537
  123POPC   C1A 2022   0.839   3.587   7.283
  123POPC   D2A 2023   1.107   3.538   6.925
  123POPC   C3A 2024   0.988   3.702   6.539
  123POPC   C4A 2025   1.146   3.664   6.129
  123POPC   C1B 2026   1.373   3.253   7.262
  123POPC   C2B 2027   1.494   3.199   6.801
  123POPC   C3B 2028   1.242   3.244   6.412
  123POPC   C4B 2029   1.313   3.203   5.921
  124POPC   NC3 2030   9.287  10.032   7.871
  124POPC   PO4 2031   9.732  10.436   8.251
  124POPC   GL1 2032   9.827  10.485   7.759
  124POPC   GL2 2033   9.847  10.150   7.725
  124POPC   C1A 2034   9.628  10.586   7.310
  124POPC   D2A 2035   9.570  10.243   6.963
  124POPC   C3A 2036   9.405  10.283   6.529
  124POPC   C4A 2037   9.381  10.652   6.304
  124POPC   C1B 2038   9.976  10.227   7.281
  124POPC   C2B 2039  10.133  10.131   6.875
  124POPC   C3B 2040  10.212  10.109   6.442
  124POPC   C4B 2041   9.869  10.307   6.243
  125POPC   NC3 2042  11.030   0.614   7.976
  125POPC   PO4 2043   0.129   0.867   8.066
  125POPC   GL1 2044  11.495   0.544   7.734
  125POPC   GL2 2045  11.294   0.222   7.737
  125POPC   C1A 2046   0.043   0.352   7.304
  125POPC   D2A 2047  11.419   0.562   6.929
  125POPC   C3A 2048   0.050   0.496   6.520
  125POPC   C4A 2049  11.486   0.244   6.188
  125POPC   C1B 2050  11.038   0.310   7.357
  125POPC   C2B 2051  10.932   0.285   6.929
  125POPC   C3B 2052  11.066   0.285   6.517
  125POPC   C4B 2053  11.056   0.529   6.196
  126POPC   NC3 2054   0.483   6.074   8.073
  126POPC   PO4 2055  11.449   5.631   8.244
  126POPC   GL1 2056   0.130   5.486   7.751
  126POPC   GL2 2057   0.479   5.660   7.732
  126POPC   C1A 2058   0.318   5.568   7.282
  126POPC   D2A 2059   0.343   5.893   6.985
  126POPC   C3A 2060   0.202   5.687   6.622
  126POPC   C4A 2061   0.383   5.605   6.244
  126POPC   C1B 2062   0.712   5.920   7.422
  126POPC   C2B 2063   0.853   5.949   6.994
  126POPC   C3B 2064   0.761   5.910   6.553
  126POPC   C4B 2065   0.819   5.888   6.121
  127POPC   NC3 2066  10.359   5.949   8.091
  127POPC   PO4 2067  10.896   6.282   8.313
  127POPC   GL1 2068  10.879   6.076   7.848
  127POPC   GL2 2069  10.652   5.810   7.714
  127POPC   C1A 2070  10.868   6.073   7.361
  127POPC   D2A 2071  10.947   5.993   6.916
  127POPC   C3A 2072  10.738   5.913   6.534
  127POPC   C4A 2073  10.578   6.240   6.253
  127POPC   C1B 2074  10.455   5.732   7.322
  127POPC   C2B 2075  10.367   5.864   6.900
  127POPC   C3B 2076  10.201   6.032   6.549
  127POPC   C4B 2077  10.321   5.798   6.255
  128POPC   NC3 2078   2.065   6.317   7.981
  128POPC   PO4 2079   1.744   6.843   8.090
  128POPC   GL1 2080   1.773   6.738   7.643
  128POPC   GL2 2081   1.686   6.424   7.655
  128POPC   C1A 2082   1.615   6.623   7.186
  128POPC   D2A 2083   1.646   6.488   6.732
  128POPC   C3A 2084   1.818   6.767   6.404
  128POPC   C4A 2085   2.235   6.950   6.313
  128POPC   C1B 2086   2.049   6.376   7.362
  128POPC   C2B 2087   2.128   6.412   6.961
  128POPC   C3B 2088   2.169   6.420   6.536
  128POPC   C4B 2089   1.995   6.355   6.132
  129POPC   NC3 2090  10.303   2.940   8.049
  129POPC   PO4 2091  10.010   2.338   8.107
  129POPC   GL1 2092  10.283   2.513   7.797
  129POPC   GL2 2093  10.049   2.603   7.575
  129POPC   C1A 2094  10.512   2.546   7.394
  129POPC   D2A 2095  10.440   2.411   6.962
  129POPC   C3A 2096  10.482   2.626   6.541
  129POPC   C4A 2097  10.299   2.523   6.119
  129POPC   C1B 2098  10.203   2.916   7.261
  129POPC   C2B 2099  10.373   2.997   6.899
  129POPC   C3B 2100  10.311   3.122   6.476
  129POPC   C4B 2101  10.482   3.003   6.108
  130POPC   NC3 2102   4.357  10.525   7.910
  130POPC   PO4 2103   3.725  10.724   8.054
  130POPC   GL1 2104   3.909  10.673   7.695
  130POPC   GL2 2105   3.979  10.363   7.595
  130POPC   C1A 2106   3.999  10.888   7.364
  130POPC   D2A 2107   4.235  10.944   7.011
  130POPC   C3A 2108   4.109  10.739   6.663
  130POPC   C4A 2109   4.363  10.631   6.309
  130POPC   C1B 2110   4.230  10.444   7.240
  130POPC   C2B 2111   4.231  10.281   6.841
  130POPC   C3B 2112   4.563  10.239   6.565
  130POPC   C4B 2113   4.598  10.184   6.144
  131POPC   NC3 2114   0.983   4.988   8.109
  131POPC   PO4 2115   1.631   4.788   8.023
  131POPC   GL1 2116   1.271   4.806   7.650
  131POPC   GL2 2117   1.022   5.082   7.627
  131POPC   C1A 2118   0.998   4.833   7.207
  131POPC   D2A 2119   0.908   4.957   6.776
  131POPC   C3A 2120   0.986   4.722   6.408
  131POPC   C4A 2121   1.117   4.971   6.127
  131POPC   C1B 2122   1.313   5.218   7.295
  131POPC   C2B 2123   1.410   5.014   6.907
  131POPC   C3B 2124   1.487   4.882   6.486
  131POPC   C4B 2125   1.479   5.271   6.284
  132POPC   NC3 2126   5.328   2.031   8.047
  132POPC   PO4 2127   5.972   2.052   8.132
  132POPC   GL1 2128   5.936   1.887   7.689
  132POPC   GL2 2129   5.588   1.908   7.627
  132POPC   C1A 2130   5.873   1.926   7.203
  132POPC   D2A 2131   5.931   1.804   6.758
  132POPC   C3A 2132   6.125   2.120   6.481
  132POPC   C4A 2133   6.021   2.456   6.200
  132POPC   C1B 2134   5.408   1.614   7.331
  132POPC   C2B 2135   5.280   1.456   6.911
  132POPC   C3B 2136   5.470   1.517   6.485
  132POPC   C4B 2137   5.807   1.788   6.241
  133POPC   NC3 2138  11.492  11.243   7.812
  133POPC   PO4 2139   0.192  10.851   8.302
  133POPC   GL1 2140   0.230  10.793   7.775
  133POPC   GL2 2141   0.433  11.065   7.607
  133POPC   C1A 2142   0.113  10.869   7.278
  133POPC   D2A 2143   0.003  11.063   6.841
  133POPC   C3A 2144   0.173  10.920   6.396
  133POPC   C4A 2145   0.140  10.803   5.892
  133POPC   C1B 2146   0.747  11.092   7.290
  133POPC   C2B 2147   0.740  11.270   6.900
  133POPC   C3B 2148   0.642  11.106   6.514
  133POPC   C4B 2149   0.516  11.142   6.074
  134POPC   NC3 2150   2.295   3.617   8.095
  134POPC   PO4 2151   1.692   3.271   7.997
  134POPC   GL1 2152   1.926   3.313   7.612
  134POPC   GL2 2153   1.969   3.668   7.668
  134POPC   C1A 2154   1.849   3.103   7.188
  134POPC   D2A 2155   1.984   3.011   6.768
  134POPC   C3A 2156   1.914   3.364   6.501
  134POPC   C4A 2157   1.631   3.505   6.175
  134POPC   C1B 2158   1.732   3.630   7.260
  134POPC   C2B 2159   1.642   3.688   6.820
  134POPC   C3B 2160   1.826   3.875   6.451
  134POPC   C4B 2161   2.161   3.698   6.165
  135POPC   NC3 2162   1.625   2.887   8.235
  135POPC   PO4 2163   2.215   2.469   8.043
  135POPC   GL1 2164   1.887   2.482   7.778
  135POPC   GL2 2165   1.790   2.827   7.738
  135POPC   C1A 2166   1.726   2.504   7.357
  135POPC   D2A 2167   1.856   2.341   6.966
  135POPC   C3A 2168   1.834   2.562   6.574
  135POPC   C4A 2169   1.618   2.479   6.182
  135POPC   C1B 2170   2.153   2.773   7.420
  135POPC   C2B 2171   2.331   2.506   7.056
  135POPC   C3B 2172   2.341   2.513   6.601
  135POPC   C4B 2173   2.172   2.832   6.304
  136POPC   NC3 2174   2.765   8.880   8.040
  136POPC   PO4 2175   2.500   8.419   7.782
  136POPC   GL1 2176   2.451   8.892   7.622
  136POPC   GL2 2177   2.759   9.107   7.571
  136POPC   C1A 2178   2.377   9.242   7.281
  136POPC   D2A 2179   2.539   9.182   6.845
  136POPC   C3A 2180   2.537   9.089   6.399
  136POPC   C4A 2181   2.575   8.874   5.957
  136POPC   C1B 2182   2.668   8.803   7.187
  136POPC   C2B 2183   2.557   8.617   6.759
  136POPC   C3B 2184   2.807   8.664   6.373
  136POPC   C4B 2185   3.046   9.061   6.246
  137POPC   NC3 2186   2.010   2.064   8.169
  137POPC   PO4 2187   1.498   1.601   8.018
  137POPC   GL1 2188   1.825   1.662   7.716
  137POPC   GL2 2189   2.069   1.926   7.696
  137POPC   C1A 2190   1.857   1.558   7.291
  137POPC   D2A 2191   1.610   1.763   6.932
  137POPC   C3A 2192   1.691   1.685   6.508
  137POPC   C4A 2193   1.762   1.959   6.145
  137POPC   C1B 2194   2.130   2.165   7.372
  137POPC   C2B 2195   2.140   1.919   6.970
  137POPC   C3B 2196   2.025   2.080   6.559
  137POPC   C4B 2197   2.119   2.333   6.175
  138POPC   NC3 2198   1.773  11.105   8.354
  138POPC   PO4 2199   1.690   0.184   8.054
  138POPC   GL1 2200   1.667  11.309   7.781
  138POPC   GL2 2201   1.952  11.062   7.812
  138POPC   C1A 2202   1.698  11.188   7.338
  138POPC   D2A 2203   1.922  11.309   6.961
  138POPC   C3A 2204   1.775  11.224   6.549
  138POPC   C4A 2205   1.744   0.049   6.258
  138POPC   C1B 2206   2.202  10.965   7.436
  138POPC   C2B 2207   2.193  10.865   6.998
  138POPC   C3B 2208   2.294  11.088   6.629
  138POPC   C4B 2209   2.155  11.035   6.226
  139POPC   NC3 2210   4.505  11.484   8.055
  139POPC   PO4 2211   4.723  10.780   8.052
  139POPC   GL1 2212   4.473  10.985   7.712
  139POPC   GL2 2213   4.137  11.149   7.786
  139POPC   C1A 2214   4.648  11.015   7.300
  139POPC   D2A 2215   4.652  11.256   6.951
  139POPC   C3A 2216   4.535  11.047   6.591
  139POPC   C4A 2217   4.734  11.018   6.244
  139POPC   C1B 2218   4.282  11.347   7.384
  139POPC   C2B 2219   4.169  11.458   6.975
  139POPC   C3B 2220   4.154  11.376   6.560
  139POPC   C4B 2221   4.062  11.042   6.265
  140POPC   NC3 2222   9.473   1.207   8.065
  140POPC   PO4 2223  10.053   1.340   8.154
  140POPC   GL1 2224   9.782   1.410   7.719
  140POPC   GL2 2225   9.560   1.099   7.587
  140POPC   C1A 2226   9.679   1.482   7.263
  140POPC   D2A 2227   9.363   1.447   6.905
  140POPC   C3A 2228   9.514   1.454   6.478
  140POPC   C4A 2229   9.887   1.422   6.248
  140POPC   C1B 2230   9.641   0.989   7.165
  140POPC   C2B 2231   9.764   1.146   6.778
  140POPC   C3B 2232   9.780   0.951   6.380
  140POPC   C4B 2233   9.416   0.818   6.147
  141POPC   NC3 2234   2.870  10.047   8.283
  141POPC   PO4 2235   2.726  10.671   8.053
  141POPC   GL1 2236   2.738  10.573   7.662
  141POPC   GL2 2237   2.792  10.231   7.623
  141POPC   C1A 2238   2.468  10.535   7.306
  141POPC   D2A 2239   2.495  10.365   6.912
  141POPC   C3A 2240   2.432  10.598   6.570
  141POPC   C4A 2241   2.534  10.406   6.217
  141POPC   C1B 2242   2.968  10.474   7.222
  141POPC   C2B 2243   2.968  10.496   6.749
  141POPC   C3B 2244   3.026  10.546   6.326
  141POPC   C4B 2245   2.977  10.194   6.111
  142POPC   NC3 2246   6.952   0.199   7.968
  142POPC   PO4 2247   7.714   0.157   7.995
  142POPC   GL1 2248   7.428   0.198   7.650
  142POPC   GL2 2249   7.302   0.517   7.733
  142POPC   C1A 2250   7.361   0.140   7.187
  142POPC   D2A 2251   7.447   0.091   6.723
  142POPC   C3A 2252   7.214   0.194   6.349
  142POPC   C4A 2253   7.399   0.302   5.905
  142POPC   C1B 2254   7.196   0.638   7.317
  142POPC   C2B 2255   7.138   0.497   6.890
  142POPC   C3B 2256   7.382   0.634   6.540
  142POPC   C4B 2257   7.215   0.714   6.150
  143POPC   NC3 2258   2.964   9.635   7.865
  143POPC   PO4 2259   2.433   9.976   8.105
  143POPC   GL1 2260   2.345   9.917   7.672
  143POPC   GL2 2261   2.508   9.598   7.608
  143POPC   C1A 2262   2.526   9.991   7.259
  143POPC   D2A 2263   2.873  10.027   6.957
  143POPC   C3A 2264   2.697  10.040   6.532
  143POPC   C4A 2265   2.430   9.876   6.166
  143POPC   C1B 2266   2.810   9.556   7.225
  143POPC   C2B 2267   2.870   9.561   6.766
  143POPC   C3B 2268   2.792   9.560   6.341
  143POPC   C4B 2269   2.712   9.348   5.979
  144POPC   NC3 2270   1.674   7.290   7.983
  144POPC   PO4 2271   1.929   7.817   8.341
  144POPC   GL1 2272   1.885   7.853   7.851
  144POPC   GL2 2273   2.055   8.127   7.742
  144POPC   C1A 2274   1.780   7.816   7.358
  144POPC   D2A 2275   1.928   7.934   6.900
  144POPC   C3A 2276   1.753   7.746   6.474
  144POPC   C4A 2277   1.798   7.877   6.022
  144POPC   C1B 2278   1.904   8.311   7.338
  144POPC   C2B 2279   1.991   8.438   6.896
  144POPC   C3B 2280   2.141   8.357   6.485
  144POPC   C4B 2281   2.239   8.125   6.104
  145POPC   NC3 2282   2.601   2.772   8.048
  145POPC   PO4 2283   3.097   2.325   8.216
  145POPC   GL1 2284   2.820   2.516   7.700
  145POPC   GL2 2285   2.510   2.458   7.581
  145POPC   C1A 2286   2.881   2.399   7.206
  145POPC   D2A 2287   2.793   2.574   6.818
  145POPC   C3A 2288   2.891   2.381   6.459
  145POPC   C4A 2289   3.043   2.479   6.071
  145POPC   C1B 2290   2.640   2.835   7.274
  145POPC   C2B 2291   2.490   2.962   6.827
  145POPC   C3B 2292   2.682   2.862   6.375
  145POPC   C4B 2293   2.519   3.034   5.935
  146POPC   NC3 2294  11.210   1.533   8.324
  146POPC   PO4 2295  10.806   1.062   8.088
  146POPC   GL1 2296  10.998   1.140   7.670
  146POPC   GL2 2297  11.373   1.109   7.690
  146POPC   C1A 2298  11.075   1.285   7.215
  146POPC   D2A 2299  11.142   1.437   6.750
  146POPC   C3A 2300  10.998   1.298   6.372
  146POPC   C4A 2301  10.681   0.983   6.407
  146POPC   C1B 2302  11.269   0.816   7.354
  146POPC   C2B 2303  10.984   0.811   6.990
  146POPC   C3B 2304  11.156   0.854   6.577
  146POPC   C4B 2305  11.418   0.882   6.199
  147POPC   NC3 2306   1.906   1.293   8.061
  147POPC   PO4 2307   2.337   1.733   8.094
  147POPC   GL1 2308   2.269   1.444   7.700
  147POPC   GL2 2309   2.076   1.123   7.624
  147POPC   C1A 2310   2.368   1.478   7.251
  147POPC   D2A 2311   2.395   1.269   6.827
  147POPC   C3A 2312   2.209   1.597   6.509
  147POPC   C4A 2313   1.947   1.494   6.105
  147POPC   C1B 2314   2.056   1.084   7.189
  147POPC   C2B 2315   1.891   1.324   6.842
  147POPC   C3B 2316   1.861   1.159   6.458
  147POPC   C4B 2317   1.571   1.129   6.126
  148POPC   NC3 2318  11.477  11.240   8.419
  148POPC   PO4 2319  11.242  10.867   7.910
  148POPC   GL1 2320  11.143  11.056   7.511
  148POPC   GL2 2321  10.941  11.332   7.665
  148POPC   C1A 2322  11.336  11.387   7.214
  148POPC   D2A 2323  11.421   0.066   6.800
  148POPC   C3A 2324  11.337  11.316   6.413
  148POPC   C4A 2325   0.048  11.280   5.993
  148POPC   C1B 2326  10.823  11.326   7.243
  148POPC   C2B 2327  10.997  11.285   6.853
  148POPC   C3B 2328  10.831  11.336   6.490
  148POPC   C4B 2329  10.885  11.091   6.195
  149POPC   NC3 2330   5.211   8.760   8.019
  149POPC   PO4 2331   4.644   8.413   8.078
  149POPC   GL1 2332   4.810   8.647   7.688
  149POPC   GL2 2333   4.865   9.021   7.730
  149POPC   C1A 2334   5.047   8.795   7.304
  149POPC   D2A 2335   4.926   8.951   6.903
  149POPC   C3A 2336   4.995   8.778   6.519
  149POPC   C4A 2337   4.693   8.462   6.371
  149POPC   C1B 2338   4.863   9.278   7.340
  149POPC   C2B 2339   4.729   9.411   6.930
  149POPC   C3B 2340   4.853   9.350   6.498
  149POPC   C4B 2341   5.100   9.486   6.121
  150POPC   NC3 2342   4.384   9.516   8.068
  150POPC   PO4 2343   4.472  10.117   8.067
  150POPC   GL1 2344   4.169   9.903   7.743
  150POPC   GL2 2345   4.078   9.526   7.667
  150POPC   C1A 2346   4.219   9.894   7.272
  150POPC   D2A 2347   4.525   9.871   6.921
  150POPC   C3A 2348   4.301   9.825   6.513
  150POPC   C4A 2349   4.078  10.094   6.232
  150POPC   C1B 2350   4.331   9.373   7.309
  150POPC   C2B 2351   4.205   9.466   6.882
  150POPC   C3B 2352   4.207   9.333   6.446
  150POPC   C4B 2353   4.123   9.532   6.053
  151POPC   NC3 2354   8.940   1.996   8.010
  151POPC   PO4 2355   9.182   1.436   7.788
  151POPC   GL1 2356   8.985   1.718   7.553
  151POPC   GL2 2357   8.955   2.090   7.522
  151POPC   C1A 2358   9.008   1.721   7.146
  151POPC   D2A 2359   8.753   1.748   6.852
  151POPC   C3A 2360   9.005   1.718   6.540
  151POPC   C4A 2361   8.808   1.774   6.170
  151POPC   C1B 2362   8.830   2.197   7.115
  151POPC   C2B 2363   9.104   2.152   6.773
  151POPC   C3B 2364   9.080   2.202   6.331
  151POPC   C4B 2365   8.686   2.314   6.147
  152POPC   NC3 2366  10.558  11.320   8.032
  152POPC   PO4 2367  10.254  10.764   8.024
  152POPC   GL1 2368  10.415  11.011   7.644
  152POPC   GL2 2369  10.398  11.362   7.575
  152POPC   C1A 2370  10.375  11.079   7.179
  152POPC   D2A 2371  10.609  10.968   6.874
  152POPC   C3A 2372  10.409  11.074   6.564
  152POPC   C4A 2373  10.402  10.938   6.193
  152POPC   C1B 2374  10.045   0.035   7.384
  152POPC   C2B 2375  10.037   0.202   6.990
  152POPC   C3B 2376  10.055   0.066   6.572
  152POPC   C4B 2377  10.239  11.412   6.209
  153POPC   NC3 2378   2.020   9.532   8.177
  153POPC   PO4 2379   2.326   8.982   8.093
  153POPC   GL1 2380   2.092   9.257   7.727
  153POPC   GL2 2381   1.878   9.589   7.702
  153POPC   C1A 2382   1.851   9.267   7.311
  153POPC   D2A 2383   1.979   9.334   6.889
  153POPC   C3A 2384   1.860   9.236   6.451
  153POPC   C4A 2385   2.178   9.322   6.140
  153POPC   C1B 2386   1.835   9.783   7.310
  153POPC   C2B 2387   2.102   9.857   6.959
  153POPC   C3B 2388   2.175   9.671   6.561
  153POPC   C4B 2389   1.924   9.746   6.214
  154POPC   NC3 2390   6.074  11.279   7.964
  154POPC   PO4 2391   6.200  10.649   7.985
  154POPC   GL1 2392   6.268  10.932   7.602
  154POPC   GL2 2393   6.483  11.244   7.612
  154POPC   C1A 2394   6.411  11.031   7.174
  154POPC   D2A 2395   6.687  11.035   6.818
  154POPC   C3A 2396   6.323  10.896   6.626
  154POPC   C4A 2397   6.153  10.861   6.213
  154POPC   C1B 2398   6.841  11.282   7.271
  154POPC   C2B 2399   6.926   0.018   6.881
  154POPC   C3B 2400   6.727   0.047   6.464
  154POPC   C4B 2401   6.452  11.266   6.276
  155POPC   NC3 2402   8.406   8.792   8.111
  155POPC   PO4 2403   9.023   8.791   8.133
  155POPC   GL1 2404   8.803   8.939   7.767
  155POPC   GL2 2405   8.595   8.679   7.637
  155POPC   C1A 2406   8.771   9.100   7.350
  155POPC   D2A 2407   8.612   8.862   7.001
  155POPC   C3A 2408   8.483   9.109   6.690
  155POPC   C4A 2409   8.670   9.222   6.302
  155POPC   C1B 2410   8.995   8.634   7.389
  155POPC   C2B 2411   9.065   8.652   6.932
  155POPC   C3B 2412   8.923   8.872   6.572
  155POPC   C4B 2413   8.826   8.747   6.138
  156POPC   NC3 2414   4.120   1.354   7.939
  156POPC   PO4 2415   4.641   1.001   7.975
  156POPC   GL1 2416   4.483   1.183   7.619
  156POPC   GL2 2417   4.414   0.865   7.475
  156POPC   C1A 2418   4.361   1.339   7.225
  156POPC   D2A 2419   4.352   1.089   6.872
  156POPC   C3A 2420   4.391   1.332   6.546
  156POPC   C4A 2421   4.430   1.346   6.160
  156POPC   C1B 2422   4.040   0.936   7.250
  156POPC   C2B 2423   3.844   1.014   6.862
  156POPC   C3B 2424   4.040   0.957   6.468
  156POPC   C4B 2425   4.024   1.074   6.036
  157POPC   NC3 2426   0.880   8.144   3.962
  157POPC   PO4 2427   1.440   7.773   3.948
  157POPC   GL1 2428   1.369   7.993   4.303
  157POPC   GL2 2429   1.296   8.321   4.204
  157POPC   C1A 2430   1.256   7.838   4.708
  157POPC   D2A 2431   1.212   7.536   5.035
  157POPC   C3A 2432   1.271   7.822   5.372
  157POPC   C4A 2433   1.361   7.771   5.783
  157POPC   C1B 2434   1.027   8.298   4.588
  157POPC   C2B 2435   1.007   8.186   5.019
  157POPC   C3B 2436   0.883   8.156   5.439
  157POPC   C4B 2437   1.099   8.202   5.797
  158POPC   NC3 2438   3.644   1.770   4.074
  158POPC   PO4 2439   4.177   2.129   3.827
  158POPC   GL1 2440   3.868   2.182   4.300
  158POPC   GL2 2441   3.554   1.978   4.512
  158POPC   C1A 2442   3.867   2.249   4.762
  158POPC   D2A 2443   3.527   2.055   5.039
  158POPC   C3A 2444   3.535   2.175   5.470
  158POPC   C4A 2445   3.457   2.204   5.896
  158POPC   C1B 2446   3.507   1.571   4.701
  158POPC   C2B 2447   3.602   1.399   5.105
  158POPC   C3B 2448   3.712   1.662   5.448
  158POPC   C4B 2449   3.336   1.753   5.719
  159POPC   NC3 2450   0.739   5.671   3.943
  159POPC   PO4 2451   0.911   6.288   3.921
  159POPC   GL1 2452   0.603   6.151   4.232
  159POPC   GL2 2453   0.390   5.872   4.232
  159POPC   C1A 2454   0.634   5.973   4.667
  159POPC   D2A 2455   0.775   5.842   5.092
  159POPC   C3A 2456   0.510   5.790   5.449
  159POPC   C4A 2457   0.612   5.550   5.800
  159POPC   C1B 2458   0.337   5.574   4.619
  159POPC   C2B 2459   0.181   5.709   5.048
  159POPC   C3B 2460   0.034   5.569   5.480
  159POPC   C4B 2461  11.474   5.738   5.919
  160POPC   NC3 2462   2.000   4.642   4.144
  160POPC   PO4 2463   1.648   4.210   3.865
  160POPC   GL1 2464   1.555   4.080   4.255
  160POPC   GL2 2465   1.884   3.985   4.348
  160POPC   C1A 2466   1.485   4.241   4.652
  160POPC   D2A 2467   1.773   4.415   4.931
  160POPC   C3A 2468   1.683   4.298   5.346
  160POPC   C4A 2469   1.755   4.460   5.739
  160POPC   C1B 2470   2.186   3.960   4.713
  160POPC   C2B 2471   2.247   3.832   5.173
  160POPC   C3B 2472   2.139   4.087   5.566
  160POPC   C4B 2473   2.280   4.502   5.801
  161POPC   NC3 2474   0.540   1.553   4.149
  161POPC   PO4 2475   0.518   1.026   3.739
  161POPC   GL1 2476   0.431   1.026   4.272
  161POPC   GL2 2477   0.328   1.311   4.518
  161POPC   C1A 2478   0.147   0.893   4.699
  161POPC   D2A 2479   0.221   1.182   5.042
  161POPC   C3A 2480   0.397   1.058   5.429
  161POPC   C4A 2481   0.226   1.095   5.856
  161POPC   C1B 2482   0.581   1.515   4.836
  161POPC   C2B 2483   0.560   1.531   5.283
  161POPC   C3B 2484   0.582   1.430   5.704
  161POPC   C4B 2485   0.714   0.984   5.877
  162POPC   NC3 2486   2.231   1.493   4.173
  162POPC   PO4 2487   2.577   0.929   3.935
  162POPC   GL1 2488   2.381   1.001   4.325
  162POPC   GL2 2489   2.013   1.030   4.322
  162POPC   C1A 2490   2.320   0.838   4.750
  162POPC   D2A 2491   2.068   0.865   5.143
  162POPC   C3A 2492   2.241   0.996   5.543
  162POPC   C4A 2493   2.051   0.997   5.985
  162POPC   C1B 2494   1.940   1.202   4.746
  162POPC   C2B 2495   1.858   1.325   5.180
  162POPC   C3B 2496   1.850   1.342   5.614
  162POPC   C4B 2497   1.549   1.608   5.780
  163POPC   NC3 2498   1.184   3.287   3.860
  163POPC   PO4 2499   0.758   3.769   3.758
  163POPC   GL1 2500   0.835   3.546   4.239
  163POPC   GL2 2501   1.019   3.240   4.320
  163POPC   C1A 2502   0.947   3.456   4.763
  163POPC   D2A 2503   1.013   3.548   5.242
  163POPC   C3A 2504   0.898   3.473   5.701
  163POPC   C4A 2505   0.835   3.231   6.102
  163POPC   C1B 2506   1.455   3.235   4.553
  163POPC   C2B 2507   1.508   3.377   5.000
  163POPC   C3B 2508   1.493   3.321   5.439
  163POPC   C4B 2509   1.371   3.673   5.685
  164POPC   NC3 2510   9.616   7.532   3.837
  164POPC   PO4 2511   9.816   6.999   4.016
  164POPC   GL1 2512   9.746   7.280   4.353
  164POPC   GL2 2513   9.984   7.522   4.356
  164POPC   C1A 2514   9.622   7.264   4.805
  164POPC   D2A 2515   9.347   7.511   5.115
  164POPC   C3A 2516   9.392   7.359   5.553
  164POPC   C4A 2517   9.511   7.345   5.978
  164POPC   C1B 2518  10.157   7.395   4.765
  164POPC   C2B 2519  10.103   7.070   5.092
  164POPC   C3B 2520   9.849   7.098   5.460
  164POPC   C4B 2521   9.924   7.480   5.694
  165POPC   NC3 2522  11.221   3.072   3.957
  165POPC   PO4 2523  10.893   2.438   3.978
  165POPC   GL1 2524  10.999   2.532   4.366
  165POPC   GL2 2525  11.305   2.734   4.350
  165POPC   C1A 2526  11.150   2.460   4.771
  165POPC   D2A 2527  10.895   2.577   5.094
  165POPC   C3A 2528  11.106   2.467   5.433
  165POPC   C4A 2529  11.235   2.626   5.827
  165POPC   C1B 2530  11.486   2.872   4.767
  165POPC   C2B 2531  11.293   2.917   5.171
  165POPC   C3B 2532  11.275   3.083   5.562
  165POPC   C4B 2533  11.497   3.053   5.938
  166POPC   NC3 2534  11.134   8.768   3.723
  166POPC   PO4 2535  10.946   9.076   4.328
  166POPC   GL1 2536  11.007   8.683   4.482
  166POPC   GL2 2537  11.208   8.612   4.211
  166POPC   C1A 2538  11.161   8.656   4.904
  166POPC   D2A 2539  11.250   9.017   5.162
  166POPC   C3A 2540  10.943   9.016   5.459
  166POPC   C4A 2541  10.861   8.762   5.806
  166POPC   C1B 2542  11.405   8.365   4.553
  166POPC   C2B 2543  11.495   8.277   5.004
  166POPC   C3B 2544   0.017   8.586   5.332
  166POPC   C4B 2545  11.355   8.689   5.736
  167POPC   NC3 2546   8.839   5.457   3.899
  167POPC   PO4 2547   8.550   6.002   3.959
  167POPC   GL1 2548   8.720   5.730   4.319
  167POPC   GL2 2549   9.071   5.643   4.325
  167POPC   C1A 2550   8.776   5.617   4.763
  167POPC   D2A 2551   8.684   5.403   5.166
  167POPC   C3A 2552   8.739   5.542   5.599
  167POPC   C4A 2553   8.477   5.711   5.955
  167POPC   C1B 2554   9.273   5.789   4.720
  167POPC   C2B 2555   9.112   5.730   5.165
  167POPC   C3B 2556   9.203   5.762   5.620
  167POPC   C4B 2557   8.978   5.770   6.031
  168POPC   NC3 2558   8.350   3.521   4.031
  168POPC   PO4 2559   8.031   3.926   4.202
  168POPC   GL1 2560   8.161   3.585   4.520
  168POPC   GL2 2561   8.441   3.334   4.496
  168POPC   C1A 2562   8.277   3.454   4.959
  168POPC   D2A 2563   8.557   3.559   5.302
  168POPC   C3A 2564   8.350   3.658   5.710
  168POPC   C4A 2565   7.939   3.665   5.940
  168POPC   C1B 2566   8.497   3.000   4.823
  168POPC   C2B 2567   8.477   3.034   5.293
  168POPC   C3B 2568   8.221   3.115   5.690
  168POPC   C4B 2569   8.138   2.873   6.083
  169POPC   NC3 2570   8.990   9.058   3.997
  169POPC   PO4 2571   8.424   9.137   3.671
  169POPC   GL1 2572   8.560   8.900   4.165
  169POPC   GL2 2573   8.807   8.669   4.291
  169POPC   C1A 2574   8.627   8.987   4.636
  169POPC   D2A 2575   8.635   8.706   4.958
  169POPC   C3A 2576   8.638   8.738   5.434
  169POPC   C4A 2577   8.689   9.067   5.737
  169POPC   C1B 2578   9.065   8.672   4.695
  169POPC   C2B 2579   9.062   8.551   5.163
  169POPC   C3B 2580   9.127   8.801   5.552
  169POPC   C4B 2581   9.275   8.660   5.928
  170POPC   NC3 2582  10.517   1.342   3.903
  170POPC   PO4 2583  10.011   0.739   3.932
  170POPC   GL1 2584  10.074   1.177   4.119
  170POPC   GL2 2585  10.357   1.087   4.327
  170POPC   C1A 2586  10.049   1.473   4.506
  170POPC   D2A 2587  10.151   1.345   4.915
  170POPC   C3A 2588  10.158   1.493   5.328
  170POPC   C4A 2589  10.009   1.419   5.755
  170POPC   C1B 2590  10.589   1.177   4.720
  170POPC   C2B 2591  10.508   1.103   5.178
  170POPC   C3B 2592  10.461   1.195   5.616
  170POPC   C4B 2593  10.719   1.208   5.944
  171POPC   NC3 2594   8.202   8.781   3.858
  171POPC   PO4 2595   8.560   9.397   4.105
  171POPC   GL1 2596   8.230   9.195   4.397
  171POPC   GL2 2597   8.071   8.901   4.320
  171POPC   C1A 2598   8.174   9.123   4.838
  171POPC   D2A 2599   8.411   9.117   5.188
  171POPC   C3A 2600   8.203   9.044   5.565
  171POPC   C4A 2601   8.289   9.255   5.980
  171POPC   C1B 2602   8.174   8.638   4.707
  171POPC   C2B 2603   8.204   8.631   5.178
  171POPC   C3B 2604   8.226   8.454   5.578
  171POPC   C4B 2605   7.950   8.452   5.929
  172POPC   NC3 2606   6.645   0.315   3.687
  172POPC   PO4 2607   7.080   0.642   3.878
  172POPC   GL1 2608   6.927   0.309   4.164
  172POPC   GL2 2609   6.567   0.329   4.194
  172POPC   C1A 2610   6.851   0.247   4.627
  172POPC   D2A 2611   6.880   0.413   5.078
  172POPC   C3A 2612   6.768   0.318   5.532
  172POPC   C4A 2613   6.872   0.323   5.999
  172POPC   C1B 2614   6.338   0.409   4.572
  172POPC   C2B 2615   6.353   0.508   5.019
  172POPC   C3B 2616   6.272   0.413   5.466
  172POPC   C4B 2617   6.249   0.621   5.847
  173POPC   NC3 2618   3.438   8.394   3.567
  173POPC   PO4 2619   2.964   8.148   3.905
  173POPC   GL1 2620   3.015   8.341   4.351
  173POPC   GL2 2621   3.350   8.202   4.386
  173POPC   C1A 2622   3.179   8.378   4.832
  173POPC   D2A 2623   3.362   8.145   5.229
  173POPC   C3A 2624   3.407   8.274   5.682
  173POPC   C4A 2625   3.568   8.411   6.091
  173POPC   C1B 2626   3.431   7.923   4.755
  173POPC   C2B 2627   3.678   7.748   5.116
  173POPC   C3B 2628   3.727   7.838   5.562
  173POPC   C4B 2629   3.964   8.106   5.839
  174POPC   NC3 2630   9.532   9.804   4.050
  174POPC   PO4 2631  10.040   9.366   4.021
  174POPC   GL1 2632   9.794   9.479   4.359
  174POPC   GL2 2633   9.541   9.258   4.423
  174POPC   C1A 2634   9.821   9.796   4.682
  174POPC   D2A 2635   9.843  10.031   5.064
  174POPC   C3A 2636   9.634   9.983   5.452
  174POPC   C4A 2637   9.852  10.013   5.818
  174POPC   C1B 2638   9.593   9.364   4.863
  174POPC   C2B 2639   9.929   9.451   5.168
  174POPC   C3B 2640   9.900   9.503   5.624
  174POPC   C4B 2641   9.490   9.594   5.786
  175POPC   NC3 2642   8.994   0.260   3.894
  175POPC   PO4 2643   8.547   0.689   3.758
  175POPC   GL1 2644   8.761   0.487   4.248
  175POPC   GL2 2645   8.785   0.141   4.333
  175POPC   C1A 2646   8.856   0.607   4.707
  175POPC   D2A 2647   8.689   0.772   5.123
  175POPC   C3A 2648   8.950   0.659   5.468
  175POPC   C4A 2649   9.391   0.690   5.657
  175POPC   C1B 2650   8.811   0.015   4.749
  175POPC   C2B 2651   8.849   0.248   5.105
  175POPC   C3B 2652   8.629   0.235   5.456
  175POPC   C4B 2653   8.466   0.323   5.823
  176POPC   NC3 2654   8.132   9.451   3.842
  176POPC   PO4 2655   7.731   8.900   3.870
  176POPC   GL1 2656   7.773   9.318   4.181
  176POPC   GL2 2657   8.062   9.645   4.284
  176POPC   C1A 2658   7.808   9.412   4.632
  176POPC   D2A 2659   7.752   9.336   5.042
  176POPC   C3A 2660   7.755   9.632   5.366
  176POPC   C4A 2661   7.923   9.509   5.750
  176POPC   C1B 2662   8.279   9.635   4.684
  176POPC   C2B 2663   8.203   9.575   5.117
  176POPC   C3B 2664   8.385   9.529   5.525
  176POPC   C4B 2665   8.349   9.895   5.738
  177POPC   NC3 2666   2.999   0.331   3.941
  177POPC   PO4 2667   2.445   0.108   3.779
  177POPC   GL1 2668   2.558   0.229   4.216
  177POPC   GL2 2669   2.660   0.566   4.304
  177POPC   C1A 2670   2.460   0.304   4.679
  177POPC   D2A 2671   2.260   0.408   5.056
  177POPC   C3A 2672   2.504   0.491   5.406
  177POPC   C4A 2673   2.540   0.286   5.812
  177POPC   C1B 2674   2.845   0.711   4.735
  177POPC   C2B 2675   2.971   0.649   5.202
  177POPC   C3B 2676   2.889   0.745   5.661
  177POPC   C4B 2677   3.013   0.710   6.108
  178POPC   NC3 2678   2.139  11.292   3.920
  178POPC   PO4 2679   1.588  10.947   3.729
  178POPC   GL1 2680   1.564  11.153   4.179
  178POPC   GL2 2681   1.912  11.115   4.334
  178POPC   C1A 2682   1.593  11.352   4.624
  178POPC   D2A 2683   1.895  11.174   4.953
  178POPC   C3A 2684   1.792  11.214   5.418
  178POPC   C4A 2685   1.794  11.120   5.890
  178POPC   C1B 2686   2.291  11.273   4.559
  178POPC   C2B 2687   2.409  11.356   4.963
  178POPC   C3B 2688   2.352  11.102   5.310
  178POPC   C4B 2689   2.358  11.167   5.755
  179POPC   NC3 2690  10.676   8.768   4.097
  179POPC   PO4 2691  10.060   8.516   3.953
  179POPC   GL1 2692  10.137   8.898   4.238
  179POPC   GL2 2693  10.352   8.801   4.476
  179POPC   C1A 2694   9.981   9.082   4.654
  179POPC   D2A 2695  10.167   8.967   5.059
  179POPC   C3A 2696  10.019   8.953   5.501
  179POPC   C4A 2697  10.107   8.510   5.680
  179POPC   C1B 2698  10.624   8.803   4.799
  179POPC   C2B 2699  10.704   8.694   5.149
  179POPC   C3B 2700  10.488   8.765   5.476
  179POPC   C4B 2701  10.448   9.085   5.768
  180POPC   NC3 2702   2.385  10.284   4.003
  180POPC   PO4 2703   3.028   9.989   3.854
  180POPC   GL1 2704   2.880  10.049   4.255
  180POPC   GL2 2705   2.758  10.353   4.336
  180POPC   C1A 2706   2.836   9.968   4.687
  180POPC   D2A 2707   3.035  10.152   5.066
  180POPC   C3A 2708   2.842  10.168   5.471
  180POPC   C4A 2709   2.465  10.189   5.746
  180POPC   C1B 2710   2.868  10.479   4.703
  180POPC   C2B 2711   2.573  10.409   5.033
  180POPC   C3B 2712   2.504  10.594   5.426
  180POPC   C4B 2713   2.805  10.572   5.800
  181POPC   NC3 2714  11.230   4.323   4.039
  181POPC   PO4 2715  11.193   4.980   3.793
  181POPC   GL1 2716  11.251   4.771   4.308
  181POPC   GL2 2717  11.042   4.492   4.476
  181POPC   C1A 2718  11.479   4.605   4.680
  181POPC   D2A 2719  11.202   4.457   5.021
  181POPC   C3A 2720  11.367   4.495   5.429
  181POPC   C4A 2721  11.096   4.498   5.763
  181POPC   C1B 2722  11.228   4.126   4.651
  181POPC   C2B 2723  11.378   3.941   5.042
  181POPC   C3B 2724  11.225   3.997   5.453
  181POPC   C4B 2725  11.340   4.034   5.860
  182POPC   NC3 2726   2.688  11.035   3.495
  182POPC   PO4 2727   2.934  10.499   3.893
  182POPC   GL1 2728   2.794  10.857   4.233
  182POPC   GL2 2729   2.641  11.203   4.175
  182POPC   C1A 2730   2.742  10.982   4.681
  182POPC   D2A 2731   2.867  10.818   5.101
  182POPC   C3A 2732   2.832  10.996   5.509
  182POPC   C4A 2733   3.107  10.967   5.901
  182POPC   C1B 2734   2.807  11.465   4.553
  182POPC   C2B 2735   2.851   0.143   4.992
  182POPC   C3B 2736   2.696  11.495   5.412
  182POPC   C4B 2737   2.810  11.364   5.850
  183POPC   NC3 2738   9.031   8.235   3.983
  183POPC   PO4 2739   8.455   8.408   4.000
  183POPC   GL1 2740   8.697   8.183   4.374
  183POPC   GL2 2741   8.999   7.942   4.394
  183POPC   C1A 2742   8.822   8.237   4.816
  183POPC   D2A 2743   8.589   8.264   5.211
  183POPC   C3A 2744   8.724   8.257   5.631
  183POPC   C4A 2745   8.554   8.302   6.058
  183POPC   C1B 2746   9.221   7.921   4.799
  183POPC   C2B 2747   9.062   7.950   5.233
  183POPC   C3B 2748   9.092   7.791   5.667
  183POPC   C4B 2749   8.744   7.792   5.978
  184POPC   NC3 2750   0.926  10.343   3.980
  184POPC   PO4 2751   1.597  10.231   3.845
  184POPC   GL1 2752   1.542  10.331   4.266
  184POPC   GL2 2753   1.372  10.623   4.164
  184POPC   C1A 2754   1.558  10.190   4.719
  184POPC   D2A 2755   1.609  10.369   5.143
  184POPC   C3A 2756   1.501  10.093   5.484
  184POPC   C4A 2757   1.574   9.891   5.871
  184POPC   C1B 2758   1.151  10.461   4.566
  184POPC   C2B 2759   1.076  10.601   4.982
  184POPC   C3B 2760   1.163  10.482   5.385
  184POPC   C4B 2761   1.065  10.603   5.759
  185POPC   NC3 2762   4.569   8.937   3.877
  185POPC   PO4 2763   4.046   9.181   3.755
  185POPC   GL1 2764   4.110   9.185   4.231
  185POPC   GL2 2765   4.336   8.966   4.373
  185POPC   C1A 2766   4.070   9.232   4.734
  185POPC   D2A 2767   4.188   9.382   5.200
  185POPC   C3A 2768   4.050   9.236   5.627
  185POPC   C4A 2769   4.162   9.017   6.033
  185POPC   C1B 2770   4.554   9.075   4.771
  185POPC   C2B 2771   4.558   8.950   5.186
  185POPC   C3B 2772   4.485   8.966   5.612
  185POPC   C4B 2773   4.525   8.649   5.932
  186POPC   NC3 2774  11.170   9.365   4.051
  186POPC   PO4 2775  10.808  10.006   3.987
  186POPC   GL1 2776  10.951   9.999   4.425
  186POPC   GL2 2777  11.172   9.708   4.433
  186POPC   C1A 2778  10.954   9.821   4.876
  186POPC   D2A 2779  10.920   9.573   5.252
  186POPC   C3A 2780  11.084   9.817   5.573
  186POPC   C4A 2781  11.441   9.894   5.775
  186POPC   C1B 2782  11.307   9.449   4.806
  186POPC   C2B 2783  11.458   9.537   5.228
  186POPC   C3B 2784  11.287   9.367   5.584
  186POPC   C4B 2785  10.911   9.336   5.842
  187POPC   NC3 2786   2.357   6.004   3.723
  187POPC   PO4 2787   3.028   6.181   3.837
  187POPC   GL1 2788   2.726   6.091   4.165
  187POPC   GL2 2789   2.507   5.786   4.178
  187POPC   C1A 2790   2.904   5.956   4.576
  187POPC   D2A 2791   3.153   6.007   4.975
  187POPC   C3A 2792   2.934   5.927   5.391
  187POPC   C4A 2793   2.753   6.017   5.815
  187POPC   C1B 2794   2.421   5.796   4.633
  187POPC   C2B 2795   2.292   5.878   5.079
  187POPC   C3B 2796   2.431   5.753   5.493
  187POPC   C4B 2797   2.616   5.521   5.851
  188POPC   NC3 2798  11.389   8.011   3.986
  188POPC   PO4 2799  10.705   8.248   3.851
  188POPC   GL1 2800  10.929   8.196   4.243
  188POPC   GL2 2801  11.042   7.885   4.349
  188POPC   C1A 2802  10.934   8.221   4.700
  188POPC   D2A 2803  10.784   8.188   5.090
  188POPC   C3A 2804  11.035   8.407   5.385
  188POPC   C4A 2805  11.038   8.285   5.785
  188POPC   C1B 2806  11.345   7.886   4.680
  188POPC   C2B 2807  11.188   7.861   5.075
  188POPC   C3B 2808  11.336   7.994   5.452
  188POPC   C4B 2809  11.341   7.881   5.878
  189POPC   NC3 2810   1.735   9.876   4.121
  189POPC   PO4 2811   1.041   9.902   3.933
  189POPC   GL1 2812   1.234   9.893   4.268
  189POPC   GL2 2813   1.328   9.554   4.174
  189POPC   C1A 2814   1.070   9.949   4.668
  189POPC   D2A 2815   1.182  10.075   5.059
  189POPC   C3A 2816   0.907   9.993   5.385
  189POPC   C4A 2817   1.079  10.085   5.762
  189POPC   C1B 2818   1.348   9.514   4.604
  189POPC   C2B 2819   1.357   9.539   5.039
  189POPC   C3B 2820   1.438   9.588   5.456
  189POPC   C4B 2821   1.151   9.589   5.787
  190POPC   NC3 2822   1.264   7.329   3.895
  190POPC   PO4 2823   1.552   6.820   3.703
  190POPC   GL1 2824   1.485   6.946   4.154
  190POPC   GL2 2825   1.161   6.853   4.288
  190POPC   C1A 2826   1.493   7.036   4.635
  190POPC   D2A 2827   1.644   7.177   5.063
  190POPC   C3A 2828   1.434   7.321   5.471
  190POPC   C4A 2829   1.660   7.369   5.875
  190POPC   C1B 2830   0.969   6.967   4.708
  190POPC   C2B 2831   0.839   7.060   5.152
  190POPC   C3B 2832   0.913   6.992   5.602
  190POPC   C4B 2833   1.123   7.204   5.941
  191POPC   NC3 2834   9.837   5.518   3.916
  191POPC   PO4 2835   9.262   5.284   3.974
  191POPC   GL1 2836   9.530   5.415   4.380
  191POPC   GL2 2837   9.784   5.695   4.399
  191POPC   C1A 2838   9.668   5.470   4.852
  191POPC   D2A 2839   9.610   5.684   5.270
  191POPC   C3A 2840   9.628   5.470   5.678
  191POPC   C4A 2841   9.408   5.432   6.097
  191POPC   C1B 2842   9.864   5.951   4.795
  191POPC   C2B 2843   9.893   6.107   5.222
  191POPC   C3B 2844   9.688   6.093   5.617
  191POPC   C4B 2845   9.612   6.399   5.948
  192POPC   NC3 2846   2.796   2.277   3.919
  192POPC   PO4 2847   3.441   2.194   4.064
  192POPC   GL1 2848   3.132   1.877   4.210
  192POPC   GL2 2849   2.826   2.065   4.365
  192POPC   C1A 2850   3.049   1.743   4.646
  192POPC   D2A 2851   2.911   2.039   4.941
  192POPC   C3A 2852   3.040   1.948   5.325
  192POPC   C4A 2853   3.008   2.196   5.649
  192POPC   C1B 2854   2.548   1.823   4.680
  192POPC   C2B 2855   2.483   1.810   5.101
  192POPC   C3B 2856   2.523   1.953   5.529
  192POPC   C4B 2857   2.816   1.693   5.733
  193POPC   NC3 2858   2.143   2.159   3.910
  193POPC   PO4 2859   1.791   1.575   4.084
  193POPC   GL1 2860   1.840   1.996   4.306
  193POPC   GL2 2861   2.177   1.983   4.391
  193POPC   C1A 2862   1.944   2.278   4.701
  193POPC   D2A 2863   2.219   2.226   5.050
  193POPC   C3A 2864   2.129   2.308   5.452
  193POPC   C4A 2865   1.801   2.293   5.743
  193POPC   C1B 2866   2.050   1.765   4.793
  193POPC   C2B 2867   1.956   1.833   5.245
  193POPC   C3B 2868   2.014   1.831   5.684
  193POPC   C4B 2869   2.261   1.869   6.024
  194POPC   NC3 2870   8.188   1.911   3.868
  194POPC   PO4 2871   7.686   2.369   3.849
  194POPC   GL1 2872   7.943   2.238   4.232
  194POPC   GL2 2873   8.082   1.914   4.355
  194POPC   C1A 2874   8.104   2.301   4.677
  194POPC   D2A 2875   7.981   2.186   5.112
  194POPC   C3A 2876   8.120   2.425   5.472
  194POPC   C4A 2877   8.260   2.411   5.890
  194POPC   C1B 2878   8.131   1.783   4.808
  194POPC   C2B 2879   8.107   1.524   5.179
  194POPC   C3B 2880   7.844   1.643   5.509
  194POPC   C4B 2881   7.922   2.014   5.739
  195POPC   NC3 2882   1.005   1.133   3.693
  195POPC   PO4 2883   0.916   1.747   3.949
  195POPC   GL1 2884   1.018   1.368   4.194
  195POPC   GL2 2885   1.363   1.277   4.141
  195POPC   C1A 2886   1.010   1.259   4.648
  195POPC   D2A 2887   1.050   1.499   5.055
  195POPC   C3A 2888   0.986   1.268   5.437
  195POPC   C4A 2889   1.175   1.208   5.830
  195POPC   C1B 2890   1.484   1.058   4.528
  195POPC   C2B 2891   1.427   1.119   4.961
  195POPC   C3B 2892   1.439   1.032   5.383
  195POPC   C4B 2893   1.653   0.882   5.696
  196POPC   NC3 2894  11.173  10.292   4.028
  196POPC   PO4 2895  10.983  10.894   3.814
  196POPC   GL1 2896  10.907  10.726   4.218
  196POPC   GL2 2897  11.265  10.730   4.260
  196POPC   C1A 2898  10.775  10.633   4.648
  196POPC   D2A 2899  10.808  10.843   5.056
  196POPC   C3A 2900  10.872  10.661   5.487
  196POPC   C4A 2901  10.818  10.644   5.990
  196POPC   C1B 2902  11.264  10.493   4.642
  196POPC   C2B 2903  11.041  10.363   5.007
  196POPC   C3B 2904  11.203  10.275   5.395
  196POPC   C4B 2905  11.257  10.468   5.772
  197POPC   NC3 2906   7.236   1.039   4.048
  197POPC   PO4 2907   7.800   1.498   3.875
  197POPC   GL1 2908   7.663   1.270   4.244
  197POPC   GL2 2909   7.391   1.420   4.393
  197POPC   C1A 2910   7.543   1.012   4.642
  197POPC   D2A 2911   7.188   1.045   4.924
  197POPC   C3A 2912   7.297   0.992   5.352
  197POPC   C4A 2913   7.404   1.008   5.783
  197POPC   C1B 2914   7.305   1.526   4.823
  197POPC   C2B 2915   7.223   1.510   5.284
  197POPC   C3B 2916   6.961   1.287   5.608
  197POPC   C4B 2917   6.995   1.217   6.043
  198POPC   NC3 2918   9.720   9.034   3.971
  198POPC   PO4 2919   9.225   8.654   4.024
  198POPC   GL1 2920   9.434   8.761   4.340
  198POPC   GL2 2921   9.737   8.608   4.335
  198POPC   C1A 2922   9.540   8.862   4.744
  198POPC   D2A 2923   9.394   8.919   5.109
  198POPC   C3A 2924   9.554   9.172   5.386
  198POPC   C4A 2925   9.552   9.091   5.792
  198POPC   C1B 2926   9.965   8.559   4.726
  198POPC   C2B 2927   9.818   8.606   5.149
  198POPC   C3B 2928   9.615   8.656   5.543
  198POPC   C4B 2929   9.774   8.697   6.013
  199POPC   NC3 2930   8.798  10.789   4.034
  199POPC   PO4 2931   9.137  10.125   4.061
  199POPC   GL1 2932   9.155  10.507   4.289
  199POPC   GL2 2933   8.790  10.470   4.415
  199POPC   C1A 2934   9.165  10.586   4.730
  199POPC   D2A 2935   8.938  10.256   4.994
  199POPC   C3A 2936   9.040  10.337   5.444
  199POPC   C4A 2937   9.067  10.597   5.861
  199POPC   C1B 2938   8.581  10.116   4.586
  199POPC   C2B 2939   8.493   9.992   5.007
  199POPC   C3B 2940   8.511  10.236   5.391
  199POPC   C4B 2941   8.714  10.248   5.805
  200POPC   NC3 2942   1.489   8.929   3.915
  200POPC   PO4 2943   0.898   8.613   3.959
  200POPC   GL1 2944   1.146   8.780   4.341
  200POPC   GL2 2945   1.123   9.112   4.362
  200POPC   C1A 2946   1.342   8.668   4.788
  200POPC   D2A 2947   1.359   8.498   5.246
  200POPC   C3A 2948   1.112   8.665   5.595
  200POPC   C4A 2949   1.286   8.613   6.031
  200POPC   C1B 2950   1.104   9.121   4.837
  200POPC   C2B 2951   1.338   9.026   5.234
  200POPC   C3B 2952   1.345   9.123   5.671
  200POPC   C4B 2953   0.947   9.124   5.819
  201POPC   NC3 2954   9.665   4.096   3.800
  201POPC   PO4 2955   9.759   3.442   3.927
  201POPC   GL1 2956   9.776   3.646   4.327
  201POPC   GL2 2957   9.434   3.773   4.399
  201POPC   C1A 2958   9.742   3.753   4.794
  201POPC   D2A 2959   9.538   3.865   5.184
  201POPC   C3A 2960   9.764   3.987   5.580
  201POPC   C4A 2961   9.974   3.843   5.987
  201POPC   C1B 2962   9.380   3.379   4.679
  201POPC   C2B 2963   9.469   3.267   5.103
  201POPC   C3B 2964   9.488   3.463   5.502
  201POPC   C4B 2965   9.160   3.564   5.732
  202POPC   NC3 2966   5.899   1.159   3.954
  202POPC   PO4 2967   5.375   1.585   3.891
  202POPC   GL1 2968   5.503   1.549   4.296
  202POPC   GL2 2969   5.541   1.203   4.304
  202POPC   C1A 2970   5.657   1.422   4.725
  202POPC   D2A 2971   5.470   1.385   5.097
  202POPC   C3A 2972   5.778   1.477   5.367
  202POPC   C4A 2973   5.952   1.664   5.722
  202POPC   C1B 2974   5.450   0.956   4.703
  202POPC   C2B 2975   5.501   0.830   5.121
  202POPC   C3B 2976   5.497   1.057   5.507
  202POPC   C4B 2977   5.955   1.120   5.689
  203POPC   NC3 2978   9.558   2.705   3.860
  203POPC   PO4 2979  10.152   2.532   3.796
  203POPC   GL1 2980   9.963   2.500   4.224
  203POPC   GL2 2981   9.658   2.697   4.361
  203POPC   C1A 2982  10.008   2.518   4.681
  203POPC   D2A 2983   9.884   2.281   5.036
  203POPC   C3A 2984   9.923   2.526   5.397
  203POPC   C4A 2985   9.879   2.564   5.833
  203POPC   C1B 2986   9.541   2.802   4.792
  203POPC   C2B 2987   9.419   2.547   5.142
  203POPC   C3B 2988   9.452   2.643   5.553
  203POPC   C4B 2989   9.713   3.011   5.649
  204POPC   NC3 2990  11.370   5.216   4.142
  204POPC   PO4 2991  10.777   4.822   4.177
  204POPC   GL1 2992  10.782   4.917   4.533
  204POPC   GL2 2993  10.937   5.247   4.461
  204POPC   C1A 2994  10.745   4.734   4.946
  204POPC   D2A 2995  10.984   4.800   5.315
  204POPC   C3A 2996  10.887   4.967   5.673
  204POPC   C4A 2997  10.720   5.351   5.699
  204POPC   C1B 2998  11.191   5.017   4.793
  204POPC   C2B 2999  11.477   4.920   5.111
  204POPC   C3B 3000  11.410   5.053   5.504
  204POPC   C4B 3001  11.451   4.831   5.821
  205POPC   NC3 3002  10.231   3.639   3.865
  205POPC   PO4 3003  10.811   4.070   3.955
  205POPC   GL1 3004  10.646   3.692   4.275
  205POPC   GL2 3005  10.326   3.481   4.321
  205POPC   C1A 3006  10.624   3.421   4.712
  205POPC   D2A 3007  10.558   3.605   5.126
  205POPC   C3A 3008  10.517   3.325   5.488
  205POPC   C4A 3009  10.793   3.302   5.828
  205POPC   C1B 3010  10.253   3.793   4.663
  205POPC   C2B 3011  10.122   3.891   5.111
  205POPC   C3B 3012  10.231   3.754   5.546
  205POPC   C4B 3013  10.144   3.373   5.848
  206POPC   NC3 3014   3.765   1.056   3.750
  206POPC   PO4 3015   3.355   1.562   3.768
  206POPC   GL1 3016   3.439   1.326   4.238
  206POPC   GL2 3017   3.548   0.992   4.202
  206POPC   C1A 3018   3.733   1.131   4.665
  206POPC   D2A 3019   3.843   0.905   5.108
  206POPC   C3A 3020   3.730   1.093   5.549
  206POPC   C4A 3021   3.660   1.410   5.888
  206POPC   C1B 3022   3.350   0.817   4.578
  206POPC   C2B 3023   3.337   0.963   5.012
  206POPC   C3B 3024   3.242   1.133   5.420
  206POPC   C4B 3025   3.281   1.061   5.854
  207POPC   NC3 3026   5.779   9.746   3.911
  207POPC   PO4 3027   5.655   9.165   4.077
  207POPC   GL1 3028   5.649   9.468   4.440
  207POPC   GL2 3029   5.597   9.813   4.406
  207POPC   C1A 3030   5.777   9.586   4.890
  207POPC   D2A 3031   5.736   9.484   5.362
  207POPC   C3A 3032   6.113   9.551   5.684
  207POPC   C4A 3033   6.319   9.504   6.129
  207POPC   C1B 3034   5.314   9.764   4.772
  207POPC   C2B 3035   5.226   9.575   5.221
  207POPC   C3B 3036   5.362   9.661   5.683
  207POPC   C4B 3037   5.442   9.893   6.114
  208POPC   NC3 3038   0.517  11.431   4.021
  208POPC   PO4 3039   0.771  10.793   3.847
  208POPC   GL1 3040   0.548  10.982   4.226
  208POPC   GL2 3041   0.171  11.076   4.206
  208POPC   C1A 3042   0.638  11.101   4.658
  208POPC   D2A 3043   0.743  11.246   5.085
  208POPC   C3A 3044   0.884  10.936   5.360
  208POPC   C4A 3045   0.615  10.831   5.687
  208POPC   C1B 3046   0.191  10.840   4.652
  208POPC   C2B 3047   0.353  10.872   5.134
  208POPC   C3B 3048   0.296  11.186   5.510
  208POPC   C4B 3049   0.135   0.123   5.597
  209POPC   NC3 3050   3.312  10.298   3.631
  209POPC   PO4 3051   3.680   9.872   4.011
  209POPC   GL1 3052   3.668   9.824   4.404
  209POPC   GL2 3053   3.717   9.485   4.390
  209POPC   C1A 3054   3.330   9.832   4.705
  209POPC   D2A 3055   3.271   9.695   5.110
  209POPC   C3A 3056   3.480   9.797   5.493
  209POPC   C4A 3057   3.293  10.004   5.790
  209POPC   C1B 3058   3.569   9.391   4.812
  209POPC   C2B 3059   3.668   9.383   5.258
  209POPC   C3B 3060   3.551   9.337   5.704
  209POPC   C4B 3061   3.677   9.254   6.156
  210POPC   NC3 3062   0.186   8.003   3.391
  210POPC   PO4 3063   0.302   7.816   4.058
  210POPC   GL1 3064   0.245   8.033   4.372
  210POPC   GL2 3065   0.558   8.191   4.351
  210POPC   C1A 3066   0.370   7.894   4.766
  210POPC   D2A 3067   0.210   7.778   5.132
  210POPC   C3A 3068   0.367   7.983   5.507
  210POPC   C4A 3069   0.156   8.290   5.721
  210POPC   C1B 3070   0.409   8.392   4.701
  210POPC   C2B 3071   0.501   8.305   5.091
  210POPC   C3B 3072   0.525   8.512   5.433
  210POPC   C4B 3073   0.639   8.408   5.838
  211POPC   NC3 3074   7.805  10.396   3.864
  211POPC   PO4 3075   8.397  10.753   3.816
  211POPC   GL1 3076   8.200  10.504   4.204
  211POPC   GL2 3077   8.199  10.145   4.182
  211POPC   C1A 3078   8.142  10.625   4.689
  211POPC   D2A 3079   7.907  10.737   5.100
  211POPC   C3A 3080   8.133  10.600   5.470
  211POPC   C4A 3081   8.230  10.382   5.845
  211POPC   C1B 3082   8.070  10.111   4.613
  211POPC   C2B 3083   8.066  10.245   5.053
  211POPC   C3B 3084   7.962  10.109   5.468
  211POPC   C4B 3085   7.884   9.988   5.912
  212POPC   NC3 3086   1.645   5.426   4.018
  212POPC   PO4 3087   1.867   6.025   3.791
  212POPC   GL1 3088   1.771   5.954   4.209
  212POPC   GL2 3089   1.993   5.749   4.338
  212POPC   C1A 3090   1.607   5.991   4.609
  212POPC   D2A 3091   1.646   5.973   5.037
  212POPC   C3A 3092   1.903   6.058   5.372
  212POPC   C4A 3093   1.784   5.957   5.804
  212POPC   C1B 3094   1.934   5.629   4.757
  212POPC   C2B 3095   1.938   5.538   5.190
  212POPC   C3B 3096   2.001   5.516   5.634
  212POPC   C4B 3097   1.957   5.279   6.006
  213POPC   NC3 3098   5.629  11.273   3.560
  213POPC   PO4 3099   6.189   0.177   3.810
  213POPC   GL1 3100   6.105   0.052   4.238
  213POPC   GL2 3101   5.825  11.328   4.223
  213POPC   C1A 3102   5.997   0.036   4.695
  213POPC   D2A 3103   6.083  11.224   5.030
  213POPC   C3A 3104   6.081  11.419   5.412
  213POPC   C4A 3105   6.143  11.223   5.798
  213POPC   C1B 3106   5.784  11.075   4.604
  213POPC   C2B 3107   5.630  10.950   5.029
  213POPC   C3B 3108   5.704  11.089   5.434
  213POPC   C4B 3109   5.646  11.223   5.839
  214POPC   NC3 3110   0.242   4.949   3.777
  214POPC   PO4 3111   0.835   4.555   3.883
  214POPC   GL1 3112   0.732   4.808   4.260
  214POPC   GL2 3113   0.394   4.915   4.292
  214POPC   C1A 3114   0.771   4.967   4.685
  214POPC   D2A 3115   0.773   4.814   5.110
  214POPC   C3A 3116   0.400   4.700   5.368
  214POPC   C4A 3117   0.463   4.803   5.801
  214POPC   C1B 3118   0.253   5.054   4.685
  214POPC   C2B 3119   0.446   5.243   5.045
  214POPC   C3B 3120   0.408   5.209   5.487
  214POPC   C4B 3121   0.193   5.267   5.900
  215POPC   NC3 3122   5.680   0.211   3.897
  215POPC   PO4 3123   5.482   0.877   3.914
  215POPC   GL1 3124   5.650   0.679   4.306
  215POPC   GL2 3125   5.696   0.319   4.376
  215POPC   C1A 3126   5.827   0.599   4.759
  215POPC   D2A 3127   5.859   0.390   5.156
  215POPC   C3A 3128   5.798   0.638   5.547
  215POPC   C4A 3129   5.612   0.818   5.936
  215POPC   C1B 3130   5.487   0.014   4.639
  215POPC   C2B 3131   5.622  11.445   5.068
  215POPC   C3B 3132   5.609   0.104   5.489
  215POPC   C4B 3133   5.907   0.216   5.799
  216POPC   NC3 3134   2.927   7.651   3.998
  216POPC   PO4 3135   2.322   7.978   3.990
  216POPC   GL1 3136   2.642   7.990   4.288
  216POPC   GL2 3137   2.421   7.975   4.526
  216POPC   C1A 3138   2.906   7.963   4.694
  216POPC   D2A 3139   2.857   8.150   5.145
  216POPC   C3A 3140   2.959   8.038   5.595
  216POPC   C4A 3141   2.687   7.869   5.945
  216POPC   C1B 3142   2.581   8.364   4.721
  216POPC   C2B 3143   2.418   8.384   5.160
  216POPC   C3B 3144   2.490   8.227   5.566
  216POPC   C4B 3145   2.657   8.376   5.953
  217POPC   NC3 3146   1.824   6.500   3.902
  217POPC   PO4 3147   2.430   6.419   3.872
  217POPC   GL1 3148   2.206   6.215   4.216
  217POPC   GL2 3149   2.033   6.495   4.359
  217POPC   C1A 3150   2.067   6.144   4.699
  217POPC   D2A 3151   2.221   6.406   5.039
  217POPC   C3A 3152   2.130   6.551   5.463
  217POPC   C4A 3153   1.762   6.445   5.694
  217POPC   C1B 3154   1.805   6.585   4.760
  217POPC   C2B 3155   1.705   6.571   5.194
  217POPC   C3B 3156   1.754   6.912   5.505
  217POPC   C4B 3157   2.017   6.865   5.871
  218POPC   NC3 3158   0.405   3.414   3.890
  218POPC   PO4 3159   0.014   3.965   3.976
  218POPC   GL1 3160   0.362   3.799   4.274
  218POPC   GL2 3161   0.379   3.464   4.383
  218POPC   C1A 3162   0.617   3.830   4.652
  218POPC   D2A 3163   0.384   3.785   5.040
  218POPC   C3A 3164   0.501   3.659   5.444
  218POPC   C4A 3165   0.280   3.756   5.793
  218POPC   C1B 3166   0.457   3.287   4.723
  218POPC   C2B 3167   0.568   3.281   5.110
  218POPC   C3B 3168   0.295   3.178   5.443
  218POPC   C4B 3169   0.432   3.270   5.813
  219POPC   NC3 3170  10.275   7.046   4.045
  219POPC   PO4 3171  10.921   7.349   3.974
  219POPC   GL1 3172  10.801   7.126   4.297
  219POPC   GL2 3173  10.517   7.324   4.390
  219POPC   C1A 3174  10.809   7.052   4.722
  219POPC   D2A 3175  10.677   6.909   5.121
  219POPC   C3A 3176  10.644   7.131   5.503
  219POPC   C4A 3177  10.271   7.106   5.731
  219POPC   C1B 3178  10.631   7.685   4.645
  219POPC   C2B 3179  10.462   7.772   5.050
  219POPC   C3B 3180  10.310   7.488   5.335
  219POPC   C4B 3181  10.468   7.581   5.715
  220POPC   NC3 3182  10.522   4.527   3.948
  220POPC   PO4 3183  10.059   4.037   4.023
  220POPC   GL1 3184  10.214   4.363   4.325
  220POPC   GL2 3185  10.537   4.459   4.447
  220POPC   C1A 3186  10.194   4.291   4.762
  220POPC   D2A 3187  10.439   4.307   5.083
  220POPC   C3A 3188  10.185   4.272   5.439
  220POPC   C4A 3189  10.077   4.395   5.833
  220POPC   C1B 3190  10.692   4.093   4.651
  220POPC   C2B 3191  10.874   4.024   5.054
  220POPC   C3B 3192  10.811   4.291   5.413
  220POPC   C4B 3193  10.564   4.189   5.764
  221POPC   NC3 3194   5.006   8.152   3.858
  221POPC   PO4 3195   4.754   7.646   4.145
  221POPC   GL1 3196   4.930   7.907   4.473
  221POPC   GL2 3197   4.915   8.232   4.358
  221POPC   C1A 3198   4.851   8.089   4.891
  221POPC   D2A 3199   4.558   8.240   5.202
  221POPC   C3A 3200   4.554   8.026   5.601
  221POPC   C4A 3201   4.781   7.744   5.880
  221POPC   C1B 3202   5.195   8.399   4.669
  221POPC   C2B 3203   5.299   8.224   5.092
  221POPC   C3B 3204   5.036   8.176   5.478
  221POPC   C4B 3205   4.890   8.268   5.920
  222POPC   NC3 3206   1.185   4.249   3.923
  222POPC   PO4 3207   1.277   3.680   4.078
  222POPC   GL1 3208   1.060   3.993   4.395
  222POPC   GL2 3209   1.067   4.388   4.382
  222POPC   C1A 3210   1.075   3.978   4.867
  222POPC   D2A 3211   1.328   3.941   5.251
  222POPC   C3A 3212   1.276   4.186   5.667
  222POPC   C4A 3213   1.512   4.036   6.053
  222POPC   C1B 3214   1.048   4.499   4.794
  222POPC   C2B 3215   1.130   4.403   5.200
  222POPC   C3B 3216   0.864   4.515   5.516
  222POPC   C4B 3217   0.922   4.585   5.895
  223POPC   NC3 3218   2.522   8.394   3.966
  223POPC   PO4 3219   2.688   9.109   3.912
  223POPC   GL1 3220   2.715   8.791   4.241
  223POPC   GL2 3221   2.390   8.755   4.379
  223POPC   C1A 3222   2.900   8.763   4.665
  223POPC   D2A 3223   2.808   8.700   5.105
  223POPC   C3A 3224   2.826   8.641   5.552
  223POPC   C4A 3225   3.098   8.624   5.941
  223POPC   C1B 3226   2.563   9.120   4.605
  223POPC   C2B 3227   2.589   9.183   5.052
  223POPC   C3B 3228   2.685   9.143   5.497
  223POPC   C4B 3229   3.079   9.088   5.728
  224POPC   NC3 3230  10.374   0.377   3.833
  224POPC   PO4 3231  10.753   0.138   4.240
  224POPC   GL1 3232  10.327   0.211   4.380
  224POPC   GL2 3233  10.229   0.571   4.369
  224POPC   C1A 3234  10.207   0.294   4.816
  224POPC   D2A 3235  10.369   0.471   5.205
  224POPC   C3A 3236  10.437   0.224   5.584
  224POPC   C4A 3237  10.057   0.127   5.773
  224POPC   C1B 3238  10.541   0.675   4.709
  224POPC   C2B 3239  10.821   0.703   5.089
  224POPC   C3B 3240  10.665   0.741   5.522
  224POPC   C4B 3241  10.607   0.696   5.994
  225POPC   NC3 3242   2.259   3.019   4.031
  225POPC   PO4 3243   1.637   3.205   3.787
  225POPC   GL1 3244   1.779   2.950   4.209
  225POPC   GL2 3245   1.950   2.607   4.190
  225POPC   C1A 3246   1.654   2.731   4.623
  225POPC   D2A 3247   1.569   2.868   5.047
  225POPC   C3A 3248   1.773   2.725   5.428
  225POPC   C4A 3249   1.700   2.863   5.832
  225POPC   C1B 3250   2.164   2.713   4.591
  225POPC   C2B 3251   2.069   2.710   5.014
  225POPC   C3B 3252   2.310   2.796   5.387
  225POPC   C4B 3253   2.179   2.684   5.805
  226POPC   NC3 3254   6.873   7.909   3.946
  226POPC   PO4 3255   6.982   8.451   3.837
  226POPC   GL1 3256   7.067   8.432   4.300
  226POPC   GL2 3257   7.370   8.270   4.395
  226POPC   C1A 3258   7.059   8.432   4.790
  226POPC   D2A 3259   7.289   8.337   5.197
  226POPC   C3A 3260   7.122   8.334   5.626
  226POPC   C4A 3261   7.029   8.015   5.955
  226POPC   C1B 3262   7.570   8.453   4.781
  226POPC   C2B 3263   7.795   8.324   5.166
  226POPC   C3B 3264   7.633   8.230   5.594
  226POPC   C4B 3265   7.467   8.275   6.031
  227POPC   NC3 3266   1.359   0.288   4.094
  227POPC   PO4 3267   1.092   0.861   4.037
  227POPC   GL1 3268   1.130   0.639   4.422
  227POPC   GL2 3269   0.952   0.314   4.487
  227POPC   C1A 3270   1.082   0.749   4.841
  227POPC   D2A 3271   0.816   0.859   5.170
  227POPC   C3A 3272   1.015   0.740   5.553
  227POPC   C4A 3273   1.241   0.718   5.951
  227POPC   C1B 3274   1.308   0.293   4.788
  227POPC   C2B 3275   1.208   0.389   5.212
  227POPC   C3B 3276   1.378   0.366   5.582
  227POPC   C4B 3277   1.504   0.002   5.770
  228POPC   NC3 3278  10.848   7.803   3.900
  228POPC   PO4 3279  11.450   7.682   3.659
  228POPC   GL1 3280  11.361   7.535   4.175
  228POPC   GL2 3281  11.327   7.200   4.257
  228POPC   C1A 3282  11.091   7.464   4.628
  228POPC   D2A 3283  10.855   7.419   5.073
  228POPC   C3A 3284  10.995   7.578   5.501
  228POPC   C4A 3285  10.910   7.595   5.971
  228POPC   C1B 3286  11.323   7.020   4.665
  228POPC   C2B 3287  11.184   6.883   5.052
  228POPC   C3B 3288  11.151   7.077   5.458
  228POPC   C4B 3289  11.262   7.267   5.859
  229POPC   NC3 3290   4.287   2.569   3.872
  229POPC   PO4 3291   3.957   3.005   4.062
  229POPC   GL1 3292   4.006   2.671   4.382
  229POPC   GL2 3293   4.309   2.413   4.351
  229POPC   C1A 3294   3.839   2.748   4.810
  229POPC   D2A 3295   3.634   2.602   5.203
  229POPC   C3A 3296   3.843   2.662   5.618
  229POPC   C4A 3297   4.114   2.656   6.016
  229POPC   C1B 3298   4.309   2.521   4.780
  229POPC   C2B 3299   4.138   2.547   5.189
  229POPC   C3B 3300   4.313   2.439   5.584
  229POPC   C4B 3301   4.597   2.732   5.784
  230POPC   NC3 3302   4.823   9.862   4.103
  230POPC   PO4 3303   5.447  10.063   3.975
  230POPC   GL1 3304   5.367  10.289   4.340
  230POPC   GL2 3305   5.271  10.652   4.303
  230POPC   C1A 3306   5.224  10.290   4.742
  230POPC   D2A 3307   5.043  10.470   5.102
  230POPC   C3A 3308   5.112  10.153   5.400
  230POPC   C4A 3309   5.384  10.183   5.716
  230POPC   C1B 3310   4.911  10.708   4.599
  230POPC   C2B 3311   4.795  10.924   5.000
  230POPC   C3B 3312   4.743  10.766   5.407
  230POPC   C4B 3313   5.115  10.626   5.639
  231POPC   NC3 3314  10.514   2.695   4.029
  231POPC   PO4 3315  10.751   3.319   3.942
  231POPC   GL1 3316  10.817   3.022   4.284
  231POPC   GL2 3317  10.505   2.993   4.448
  231POPC   C1A 3318  10.961   2.959   4.715
  231POPC   D2A 3319  10.812   3.109   5.123
  231POPC   C3A 3320  10.804   2.878   5.521
  231POPC   C4A 3321  10.730   2.612   5.874
  231POPC   C1B 3322  10.548   2.602   4.688
  231POPC   C2B 3323  10.409   2.369   5.064
  231POPC   C3B 3324  10.418   2.509   5.488
  231POPC   C4B 3325  10.255   2.883   5.680
  232POPC   NC3 3326   7.253  10.818   4.003
  232POPC   PO4 3327   6.927  11.427   3.802
  232POPC   GL1 3328   7.001  11.237   4.256
  232POPC   GL2 3329   7.334  11.091   4.418
  232POPC   C1A 3330   6.947  11.241   4.743
  232POPC   D2A 3331   7.010  11.426   5.177
  232POPC   C3A 3332   7.033  11.177   5.571
  232POPC   C4A 3333   6.857  11.323   5.976
  232POPC   C1B 3334   7.412  10.881   4.827
  232POPC   C2B 3335   7.424  11.109   5.197
  232POPC   C3B 3336   7.536  11.333   5.555
  232POPC   C4B 3337   7.554  10.928   5.792
  233POPC   NC3 3338   1.691   3.727   3.884
  233POPC   PO4 3339   2.283   3.482   4.121
  233POPC   GL1 3340   1.844   3.465   4.293
  233POPC   GL2 3341   2.007   3.512   4.573
  233POPC   C1A 3342   1.561   3.722   4.634
  233POPC   D2A 3343   1.746   3.909   4.970
  233POPC   C3A 3344   1.790   3.712   5.350
  233POPC   C4A 3345   1.867   3.690   5.768
  233POPC   C1B 3346   1.928   3.154   4.766
  233POPC   C2B 3347   1.954   3.185   5.195
  233POPC   C3B 3348   2.020   3.184   5.600
  233POPC   C4B 3349   2.041   3.229   6.017
  234POPC   NC3 3350   8.997   1.878   3.878
  234POPC   PO4 3351   8.440   2.309   3.995
  234POPC   GL1 3352   8.816   2.176   4.245
  234POPC   GL2 3353   8.738   1.846   4.303
  234POPC   C1A 3354   9.034   2.094   4.669
  234POPC   D2A 3355   8.985   2.288   5.070
  234POPC   C3A 3356   9.038   2.012   5.404
  234POPC   C4A 3357   8.992   2.071   5.817
  234POPC   C1B 3358   8.539   2.011   4.646
  234POPC   C2B 3359   8.570   1.861   5.061
  234POPC   C3B 3360   8.323   1.936   5.418
  234POPC   C4B 3361   8.466   1.952   5.837
  235POPC   NC3 3362   9.644   0.222   3.681
  235POPC   PO4 3363   9.243   0.669   3.980
  235POPC   GL1 3364   9.404   0.331   4.233
  235POPC   GL2 3365   9.803   0.299   4.170
  235POPC   C1A 3366   9.261   0.279   4.673
  235POPC   D2A 3367   9.250   0.575   5.029
  235POPC   C3A 3368   9.316   0.308   5.344
  235POPC   C4A 3369   9.502   0.181   5.705
  235POPC   C1B 3370   9.761   0.458   4.594
  235POPC   C2B 3371   9.735   0.378   5.040
  235POPC   C3B 3372   9.849   0.504   5.462
  235POPC   C4B 3373  10.190   0.647   5.724
  236POPC   NC3 3374   8.839   0.941   4.010
  236POPC   PO4 3375   8.541   1.608   3.848
  236POPC   GL1 3376   8.622   1.361   4.217
  236POPC   GL2 3377   8.999   1.391   4.252
  236POPC   C1A 3378   8.566   1.477   4.668
  236POPC   D2A 3379   8.597   1.329   5.107
  236POPC   C3A 3380   8.704   1.601   5.493
  236POPC   C4A 3381   9.085   1.571   5.748
  236POPC   C1B 3382   8.968   1.140   4.645
  236POPC   C2B 3383   9.112   1.091   5.070
  236POPC   C3B 3384   8.938   1.156   5.469
  236POPC   C4B 3385   9.072   1.033   5.850
  237POPC   NC3 3386   0.246   7.364   3.891
  237POPC   PO4 3387   0.886   7.035   3.907
  237POPC   GL1 3388   0.656   7.119   4.333
  237POPC   GL2 3389   0.324   7.254   4.364
  237POPC   C1A 3390   0.601   7.327   4.783
  237POPC   D2A 3391   0.351   7.249   5.186
  237POPC   C3A 3392   0.467   7.248   5.661
  237POPC   C4A 3393   0.208   7.151   6.053
  237POPC   C1B 3394   0.103   7.442   4.699
  237POPC   C2B 3395  11.370   7.384   5.091
  237POPC   C3B 3396   0.025   7.514   5.521
  237POPC   C4B 3397   0.268   7.641   5.910
  238POPC   NC3 3398   5.499   2.017   3.984
  238POPC   PO4 3399   5.911   2.401   4.103
  238POPC   GL1 3400   5.861   2.012   4.337
  238POPC   GL2 3401   5.991   1.691   4.210
  238POPC   C1A 3402   5.564   1.910   4.686
  238POPC   D2A 3403   5.344   1.883   5.102
  238POPC   C3A 3404   5.581   1.938   5.487
  238POPC   C4A 3405   5.808   2.145   5.841
  238POPC   C1B 3406   6.067   1.727   4.703
  238POPC   C2B 3407   6.018   1.896   5.158
  238POPC   C3B 3408   6.241   2.057   5.545
  238POPC   C4B 3409   6.269   1.986   6.012
  239POPC   NC3 3410   0.702   6.657   4.111
  239POPC   PO4 3411   0.105   6.906   3.956
  239POPC   GL1 3412   0.233   6.744   4.316
  239POPC   GL2 3413   0.151   6.387   4.261
  239POPC   C1A 3414   0.307   6.900   4.732
  239POPC   D2A 3415   0.447   6.745   5.085
  239POPC   C3A 3416   0.342   6.783   5.509
  239POPC   C4A 3417   0.652   6.581   5.762
  239POPC   C1B 3418   0.373   6.394   4.667
  239POPC   C2B 3419   0.451   6.224   5.090
  239POPC   C3B 3420   0.317   6.274   5.506
  239POPC   C4B 3421   0.383   6.085   5.914
  240POPC   NC3 3422  10.409   9.659   3.902
  240POPC   PO4 3423  10.844   9.118   3.803
  240POPC   GL1 3424  10.517   9.256   4.184
  240POPC   GL2 3425  10.691   9.557   4.309
  240POPC   C1A 3426  10.440   9.290   4.673
  240POPC   D2A 3427  10.600   9.208   5.103
  240POPC   C3A 3428  10.392   9.429   5.400
  240POPC   C4A 3429  10.607   9.710   5.642
  240POPC   C1B 3430  10.338   9.783   4.539
  240POPC   C2B 3431  10.283   9.783   4.996
  240POPC   C3B 3432  10.184   9.909   5.451
  240POPC   C4B 3433  10.337   9.985   5.945
  241POPC   NC3 3434   4.839  11.174   3.833
  241POPC   PO4 3435   5.505  10.949   3.852
  241POPC   GL1 3436   5.338  11.166   4.227
  241POPC   GL2 3437   4.999  11.246   4.309
  241POPC   C1A 3438   5.271  11.051   4.676
  241POPC   D2A 3439   5.135  11.314   5.002
  241POPC   C3A 3440   5.176  11.115   5.395
  241POPC   C4A 3441   5.198  11.414   5.716
  241POPC   C1B 3442   4.723  11.313   4.677
  241POPC   C2B 3443   4.633  11.452   5.103
  241POPC   C3B 3444   4.544  11.285   5.490
  241POPC   C4B 3445   4.785  11.118   5.763
  242POPC   NC3 3446  11.281   5.992   3.550
  242POPC   PO4 3447  10.980   5.624   4.046
  242POPC   GL1 3448  11.126   5.730   4.432
  242POPC   GL2 3449  11.438   5.683   4.313
  242POPC   C1A 3450  11.210   5.539   4.846
  242POPC   D2A 3451  11.056   5.361   5.270
  242POPC   C3A 3452  11.049   5.710   5.591
  242POPC   C4A 3453  10.896   6.131   5.548
  242POPC   C1B 3454   0.032   6.000   4.613
  242POPC   C2B 3455  11.268   6.067   4.948
  242POPC   C3B 3456  11.375   6.051   5.371
  242POPC   C4B 3457  11.382   6.230   5.788
  243POPC   NC3 3458   8.184  11.175   3.936
  243POPC   PO4 3459   7.693  10.772   4.150
  243POPC   GL1 3460   7.988  10.993   4.374
  243POPC   GL2 3461   8.368  10.947   4.345
  243POPC   C1A 3462   7.872  11.108   4.765
  243POPC   D2A 3463   7.901  11.290   5.157
  243POPC   C3A 3464   7.982  11.074   5.545
  243POPC   C4A 3465   7.884  11.287   5.947
  243POPC   C1B 3466   8.369  11.212   4.695
  243POPC   C2B 3467   8.369  11.039   5.113
  243POPC   C3B 3468   8.488  11.222   5.484
  243POPC   C4B 3469   8.365  11.137   5.909
  244POPC   NC3 3470   2.245   9.031   3.959
  244POPC   PO4 3471   1.679   9.339   3.859
  244POPC   GL1 3472   1.646   9.190   4.332
  244POPC   GL2 3473   1.841   8.919   4.281
  244POPC   C1A 3474   1.631   9.111   4.814
  244POPC   D2A 3475   1.799   8.776   5.137
  244POPC   C3A 3476   1.688   8.755   5.607
  244POPC   C4A 3477   1.688   8.970   6.030
  244POPC   C1B 3478   1.938   8.739   4.638
  244POPC   C2B 3479   2.279   8.789   4.901
  244POPC   C3B 3480   2.292   8.839   5.360
  244POPC   C4B 3481   2.121   9.018   5.736
  245POPC   NC3 3482   4.343   0.542   3.849
  245POPC   PO4 3483   4.159  11.381   3.918
  245POPC   GL1 3484   4.279   0.190   4.269
  245POPC   GL2 3485   4.250   0.528   4.370
  245POPC   C1A 3486   4.356   0.206   4.736
  245POPC   D2A 3487   4.138   0.289   5.118
  245POPC   C3A 3488   4.381   0.274   5.463
  245POPC   C4A 3489   4.330   0.290   5.890
  245POPC   C1B 3490   4.269   0.723   4.810
  245POPC   C2B 3491   4.499   0.726   5.214
  245POPC   C3B 3492   4.518   0.728   5.670
  245POPC   C4B 3493   4.046   0.673   5.734
  246POPC   NC3 3494   8.798   9.789   4.026
  246POPC   PO4 3495   9.354   9.366   3.958
  246POPC   GL1 3496   9.079   9.438   4.317
  246POPC   GL2 3497   9.216   9.728   4.459
  246POPC   C1A 3498   9.093   9.208   4.735
  246POPC   D2A 3499   8.923   9.091   5.166
  246POPC   C3A 3500   9.084   9.324   5.562
  246POPC   C4A 3501   9.108   9.161   6.016
  246POPC   C1B 3502   8.816   9.659   4.708
  246POPC   C2B 3503   8.730   9.563   5.144
  246POPC   C3B 3504   8.826   9.818   5.518
  246POPC   C4B 3505   9.166   9.980   5.788
  247POPC   NC3 3506   2.306   0.536   3.894
  247POPC   PO4 3507   1.790   0.145   4.026
  247POPC   GL1 3508   2.065   0.166   4.314
  247POPC   GL2 3509   2.129   0.521   4.371
  247POPC   C1A 3510   1.972   0.161   4.727
  247POPC   D2A 3511   1.798   0.141   5.112
  247POPC   C3A 3512   2.148   0.079   5.429
  247POPC   C4A 3513   2.046   0.056   5.843
  247POPC   C1B 3514   1.808   0.668   4.669
  247POPC   C2B 3515   1.622   0.639   5.073
  247POPC   C3B 3516   1.849   0.504   5.443
  247POPC   C4B 3517   2.130   0.555   5.744
  248POPC   NC3 3518  10.469   6.133   3.721
  248POPC   PO4 3519  10.620   6.737   3.969
  248POPC   GL1 3520  10.539   6.683   4.343
  248POPC   GL2 3521  10.410   6.355   4.246
  248POPC   C1A 3522  10.370   6.792   4.724
  248POPC   D2A 3523  10.234   6.539   5.057
  248POPC   C3A 3524  10.318   6.700   5.431
  248POPC   C4A 3525  10.041   6.594   5.742
  248POPC   C1B 3526  10.467   6.273   4.682
  248POPC   C2B 3527  10.360   6.017   5.016
  248POPC   C3B 3528  10.346   6.173   5.439
  248POPC   C4B 3529  10.503   6.372   5.778
  249POPC   NC3 3530   0.454   1.967   3.705
  249POPC   PO4 3531   0.150   2.379   4.067
  249POPC   GL1 3532   0.255   2.020   4.262
  249POPC   GL2 3533   0.596   2.064   4.194
  249POPC   C1A 3534   0.190   1.810   4.664
  249POPC   D2A 3535   0.349   1.930   5.059
  249POPC   C3A 3536   0.179   1.861   5.433
  249POPC   C4A 3537  11.499   2.216   5.634
  249POPC   C1B 3538   0.622   2.086   4.645
  249POPC   C2B 3539   0.638   2.337   5.029
  249POPC   C3B 3540   0.481   2.300   5.471
  249POPC   C4B 3541   0.486   1.970   5.807
  250POPC   NC3 3542   0.495   8.834   3.856
  250POPC   PO4 3543  11.433   8.419   3.778
  250POPC   GL1 3544   0.211   8.551   4.189
  250POPC   GL2 3545   0.551   8.702   4.328
  250POPC   C1A 3546   0.144   8.818   4.608
  250POPC   D2A 3547   0.367   8.820   5.030
  250POPC   C3A 3548   0.216   9.095   5.391
  250POPC   C4A 3549   0.098   9.106   5.856
  250POPC   C1B 3550   0.787   8.733   4.693
  250POPC   C2B 3551   0.900   8.700   5.096
  250POPC   C3B 3552   0.749   8.983   5.370
  250POPC   C4B 3553   0.523   8.895   5.747
  251POPC   NC3 3554  11.280  11.234   3.708
  251POPC   PO4 3555  10.820   0.190   3.725
  251POPC   GL1 3556  11.207   0.039   4.104
  251POPC   GL2 3557  11.148  11.221   4.215
  251POPC   C1A 3558  11.262   0.023   4.621
  251POPC   D2A 3559  11.066  11.310   5.034
  251POPC   C3A 3560  11.186  11.397   5.489
  251POPC   C4A 3561  11.099  11.480   5.955
  251POPC   C1B 3562  11.123  11.014   4.632
  251POPC   C2B 3563  11.318  10.838   5.012
  251POPC   C3B 3564  11.382  10.847   5.435
  251POPC   C4B 3565  11.159  10.983   5.792
  252POPC   NC3 3566   4.212   1.002   4.213
  252POPC   PO4 3567   4.671   1.317   3.790
  252POPC   GL1 3568   4.682   1.235   4.212
  252POPC   GL2 3569   4.440   1.431   4.342
  252POPC   C1A 3570   4.697   1.168   4.683
  252POPC   D2A 3571   4.569   1.202   5.098
  252POPC   C3A 3572   4.619   1.413   5.466
  252POPC   C4A 3573   4.791   1.248   5.827
  252POPC   C1B 3574   4.214   1.355   4.756
  252POPC   C2B 3575   4.098   1.342   5.185
  252POPC   C3B 3576   4.226   1.114   5.518
  252POPC   C4B 3577   4.151   1.462   5.749
  253POPC   NC3 3578   5.572  10.498   3.911
  253POPC   PO4 3579   6.077  10.081   3.911
  253POPC   GL1 3580   5.874  10.231   4.296
  253POPC   GL2 3581   5.917  10.591   4.296
  253POPC   C1A 3582   5.758  10.114   4.762
  253POPC   D2A 3583   5.556   9.961   5.177
  253POPC   C3A 3584   5.807   9.960   5.539
  253POPC   C4A 3585   5.885  10.286   5.783
  253POPC   C1B 3586   5.636  10.593   4.657
  253POPC   C2B 3587   5.566  10.458   5.092
  253POPC   C3B 3588   5.607  10.597   5.489
  253POPC   C4B 3589   5.945  10.774   5.757
  254POPC   NC3 3590   1.826  10.537   3.588
  254POPC   PO4 3591   2.393  10.871   3.834
  254POPC   GL1 3592   2.298  10.755   4.338
  254POPC   GL2 3593   1.947  10.618   4.500
  254POPC   C1A 3594   2.280  10.818   4.838
  254POPC   D2A 3595   1.981  10.724   5.192
  254POPC   C3A 3596   2.047  10.808   5.591
  254POPC   C4A 3597   2.292  10.668   5.884
  254POPC   C1B 3598   2.069  10.328   4.888
  254POPC   C2B 3599   2.188  10.170   5.287
  254POPC   C3B 3600   1.956  10.319   5.603
  254POPC   C4B 3601   1.604  10.568   5.636
  255POPC   NC3 3602   9.801  11.085   3.745
  255POPC   PO4 3603   9.251  11.462   3.661
  255POPC   GL1 3604   9.531  11.365   4.070
  255POPC   GL2 3605   9.590  11.008   4.211
  255POPC   C1A 3606   9.613  11.414   4.580
  255POPC   D2A 3607   9.475  11.392   5.085
  255POPC   C3A 3608   9.685  11.259   5.532
  255POPC   C4A 3609   9.728  11.383   6.054
  255POPC   C1B 3610   9.618  10.881   4.666
  255POPC   C2B 3611   9.453  10.848   5.100
  255POPC   C3B 3612   9.258  10.950   5.487
  255POPC   C4B 3613   9.490  10.908   5.875
  256POPC   NC3 3614   9.118   4.827   3.995
  256POPC   PO4 3615   8.570   5.096   3.820
  256POPC   GL1 3616   8.719   5.176   4.300
  256POPC   GL2 3617   9.065   5.139   4.415
  256POPC   C1A 3618   8.722   5.071   4.781
  256POPC   D2A 3619   8.734   4.873   5.225
  256POPC   C3A 3620   8.747   4.936   5.683
  256POPC   C4A 3621   8.427   4.917   6.024
  256POPC   C1B 3622   9.178   5.303   4.821
  256POPC   C2B 3623   9.146   5.219   5.261
  256POPC   C3B 3624   9.160   5.244   5.682
  256POPC   C4B 3625   9.236   4.957   6.000
  257POPC   NC3 3626   2.702   3.641   4.070
  257POPC   PO4 3627   2.961   3.058   3.990
  257POPC   GL1 3628   2.684   3.222   4.332
  257POPC   GL2 3629   2.382   3.147   4.503
  257POPC   C1A 3630   2.715   3.452   4.742
  257POPC   D2A 3631   2.936   3.378   5.128
  257POPC   C3A 3632   2.866   3.572   5.527
  257POPC   C4A 3633   3.122   3.450   5.875
  257POPC   C1B 3634   2.418   3.079   4.946
  257POPC   C2B 3635   2.456   3.300   5.322
  257POPC   C3B 3636   2.355   3.574   5.656
  257POPC   C4B 3637   2.615   3.528   5.991
  258POPC   NC3 3638   4.180  10.622   4.008
  258POPC   PO4 3639   4.392   9.996   4.110
  258POPC   GL1 3640   4.105  10.136   4.449
  258POPC   GL2 3641   3.834  10.306   4.307
  258POPC   C1A 3642   4.208  10.170   4.914
  258POPC   D2A 3643   4.605  10.181   5.185
  258POPC   C3A 3644   4.669  10.299   5.626
  258POPC   C4A 3645   4.700  10.637   5.923
  258POPC   C1B 3646   3.934  10.593   4.689
  258POPC   C2B 3647   3.889  10.515   5.136
  258POPC   C3B 3648   4.131  10.306   5.443
  258POPC   C4B 3649   4.234  10.434   5.862
  259POPC   NC3 3650   5.091   0.635   3.967
  259POPC   PO4 3651   5.269   0.012   3.750
  259POPC   GL1 3652   5.223   0.202   4.200
  259POPC   GL2 3653   4.854   0.251   4.313
  259POPC   C1A 3654   5.281   0.478   4.593
  259POPC   D2A 3655   5.332   0.353   5.033
  259POPC   C3A 3656   5.304   0.517   5.476
  259POPC   C4A 3657   5.390   0.349   5.909
  259POPC   C1B 3658   4.856   0.296   4.786
  259POPC   C2B 3659   4.866   0.390   5.244
  259POPC   C3B 3660   4.853   0.311   5.693
  259POPC   C4B 3661   4.820   0.481   6.111
  260POPC   NC3 3662   1.866   7.981   4.001
  260POPC   PO4 3663   2.075   8.604   3.964
  260POPC   GL1 3664   2.112   8.335   4.317
  260POPC   GL2 3665   1.770   8.317   4.395
  260POPC   C1A 3666   2.089   8.280   4.778
  260POPC   D2A 3667   1.783   8.247   5.088
  260POPC   C3A 3668   1.995   8.383   5.443
  260POPC   C4A 3669   2.174   8.533   5.807
  260POPC   C1B 3670   1.760   7.915   4.653
  260POPC   C2B 3671   1.701   7.721   5.074
  260POPC   C3B 3672   1.770   7.895   5.492
  260POPC   C4B 3673   1.580   8.254   5.701
  261POPC   NC3 3674   8.804   2.661   4.068
  261POPC   PO4 3675   9.325   2.995   4.115
  261POPC   GL1 3676   9.141   2.839   4.477
  261POPC   GL2 3677   9.131   2.530   4.444
  261POPC   C1A 3678   9.025   2.846   4.923
  261POPC   D2A 3679   8.965   2.741   5.367
  261POPC   C3A 3680   9.173   3.032   5.676
  261POPC   C4A 3681   9.167   3.165   6.062
  261POPC   C1B 3682   8.707   2.504   4.688
  261POPC   C2B 3683   8.481   2.360   5.078
  261POPC   C3B 3684   8.638   2.361   5.521
  261POPC   C4B 3685   8.599   2.770   5.746
  262POPC   NC3 3686   3.209  10.853   3.953
  262POPC   PO4 3687   3.318   0.006   3.969
  262POPC   GL1 3688   3.196  11.250   4.309
  262POPC   GL2 3689   3.517  11.141   4.324
  262POPC   C1A 3690   3.247  11.324   4.772
  262POPC   D2A 3691   3.265  11.132   5.178
  262POPC   C3A 3692   3.216  11.356   5.554
  262POPC   C4A 3693   3.320  11.419   6.000
  262POPC   C1B 3694   3.707  11.061   4.717
  262POPC   C2B 3695   3.754  11.006   5.144
  262POPC   C3B 3696   3.643  11.048   5.548
  262POPC   C4B 3697   3.822  10.700   5.714
  263POPC   NC3 3698  11.270   2.159   3.951
  263POPC   PO4 3699   0.153   1.641   3.921
  263POPC   GL1 3700  11.301   1.752   4.282
  263POPC   GL2 3701  10.969   2.001   4.311
  263POPC   C1A 3702  11.208   1.918   4.735
  263POPC   D2A 3703  11.335   2.094   5.118
  263POPC   C3A 3704  11.171   1.854   5.471
  263POPC   C4A 3705  11.396   1.794   5.889
  263POPC   C1B 3706  10.749   2.142   4.697
  263POPC   C2B 3707  10.826   2.069   5.120
  263POPC   C3B 3708  10.704   2.094   5.526
  263POPC   C4B 3709  10.991   2.171   5.835
  264POPC   NC3 3710   4.486   1.748   3.782
  264POPC   PO4 3711   3.939   1.364   4.050
  264POPC   GL1 3712   3.984   1.667   4.428
  264POPC   GL2 3713   4.261   1.887   4.274
  264POPC   C1A 3714   3.930   1.750   4.902
  264POPC   D2A 3715   4.031   2.057   5.205
  264POPC   C3A 3716   4.167   1.944   5.583
  264POPC   C4A 3717   3.886   1.871   5.928
  264POPC   C1B 3718   4.331   1.981   4.716
  264POPC   C2B 3719   4.442   1.747   5.113
  264POPC   C3B 3720   4.747   1.900   5.452
  264POPC   C4B 3721   4.738   2.222   5.807
  265POPC   NC3 3722   1.136   6.656   3.751
  265POPC   PO4 3723   1.487   6.447   4.202
  265POPC   GL1 3724   1.311   6.412   4.545
  265POPC   GL2 3725   0.992   6.397   4.447
  265POPC   C1A 3726   1.306   6.641   4.898
  265POPC   D2A 3727   1.285   6.864   5.256
  265POPC   C3A 3728   1.309   6.662   5.640
  265POPC   C4A 3729   1.531   6.883   5.986
  265POPC   C1B 3730   0.833   6.485   4.839
  265POPC   C2B 3731   0.865   6.542   5.271
  265POPC   C3B 3732   0.835   6.195   5.500
  265POPC   C4B 3733   1.036   6.264   5.872
  266POPC   NC3 3734   1.384   6.100   3.931
  266POPC   PO4 3735   1.180   5.462   3.926
  266POPC   GL1 3736   1.300   5.686   4.291
  266POPC   GL2 3737   1.053   5.911   4.293
  266POPC   C1A 3738   1.402   5.540   4.711
  266POPC   D2A 3739   1.247   5.668   5.126
  266POPC   C3A 3740   1.528   5.655   5.446
  266POPC   C4A 3741   1.512   5.485   5.819
  266POPC   C1B 3742   1.124   5.976   4.727
  266POPC   C2B 3743   1.197   6.196   5.099
  266POPC   C3B 3744   1.351   6.121   5.499
  266POPC   C4B 3745   1.065   5.759   5.635
  267POPC   NC3 3746   7.237   2.217   3.914
  267POPC   PO4 3747   7.092   1.603   3.602
  267POPC   GL1 3748   7.212   1.731   4.046
  267POPC   GL2 3749   7.561   1.871   4.157
  267POPC   C1A 3750   7.145   1.916   4.510
  267POPC   D2A 3751   7.171   1.982   4.999
  267POPC   C3A 3752   6.882   1.936   5.356
  267POPC   C4A 3753   7.038   1.773   5.750
  267POPC   C1B 3754   7.649   1.924   4.621
  267POPC   C2B 3755   7.653   1.804   5.067
  267POPC   C3B 3756   7.445   1.947   5.453
  267POPC   C4B 3757   7.165   2.260   5.610
  268POPC   NC3 3758  10.280   8.254   3.645
  268POPC   PO4 3759  10.036   7.724   3.887
  268POPC   GL1 3760  10.359   7.845   4.223
  268POPC   GL2 3761  10.407   8.217   4.275
  268POPC   C1A 3762  10.176   7.917   4.666
  268POPC   D2A 3763   9.922   8.100   5.003
  268POPC   C3A 3764  10.097   7.971   5.384
  268POPC   C4A 3765  10.148   7.958   5.795
  268POPC   C1B 3766  10.434   8.346   4.717
  268POPC   C2B 3767  10.305   8.390   5.158
  268POPC   C3B 3768  10.531   8.241   5.541
  268POPC   C4B 3769  10.559   8.373   5.967
  269POPC   NC3 3770   2.824   9.564   3.849
  269POPC   PO4 3771   2.169   9.855   3.879
  269POPC   GL1 3772   2.481   9.751   4.246
  269POPC   GL2 3773   2.771   9.528   4.350
  269POPC   C1A 3774   2.463   9.612   4.730
  269POPC   D2A 3775   2.751   9.675   5.096
  269POPC   C3A 3776   2.507   9.758   5.434
  269POPC   C4A 3777   2.333   9.460   5.678
  269POPC   C1B 3778   3.003   9.377   4.744
  269POPC   C2B 3779   3.084   9.244   5.195
  269POPC   C3B 3780   3.016   9.558   5.541
  269POPC   C4B 3781   2.810   9.812   5.841
  270POPC   NC3 3782   3.849  11.051   3.754
  270POPC   PO4 3783   4.512  10.859   3.777
  270POPC   GL1 3784   4.588  10.906   4.219
  270POPC   GL2 3785   4.490  11.221   4.252
  270POPC   C1A 3786   4.414  10.852   4.650
  270POPC   D2A 3787   4.373  10.639   5.049
  270POPC   C3A 3788   4.209  10.859   5.398
  270POPC   C4A 3789   4.292  10.939   5.823
  270POPC   C1B 3790   4.156  11.275   4.570
  270POPC   C2B 3791   4.186  11.236   5.010
  270POPC   C3B 3792   4.048  11.361   5.420
  270POPC   C4B 3793   3.948  11.337   5.855
  271POPC   NC3 3794   2.842   6.606   3.885
  271POPC   PO4 3795   2.921   7.186   3.974
  271POPC   GL1 3796   2.852   6.846   4.354
  271POPC   GL2 3797   2.558   6.625   4.320
  271POPC   C1A 3798   2.899   6.618   4.808
  271POPC   D2A 3799   3.023   6.430   5.251
  271POPC   C3A 3800   2.840   6.607   5.639
  271POPC   C4A 3801   2.458   6.602   5.900
  271POPC   C1B 3802   2.535   6.308   4.603
  271POPC   C2B 3803   2.674   6.181   4.991
  271POPC   C3B 3804   2.543   6.257   5.411
  271POPC   C4B 3805   2.254   6.158   5.738
  272POPC   NC3 3806   6.932   3.088   4.092
  272POPC   PO4 3807   6.790   2.408   3.963
  272POPC   GL1 3808   7.070   2.567   4.325
  272POPC   GL2 3809   7.443   2.488   4.299
  272POPC   C1A 3810   7.079   2.785   4.765
  272POPC   D2A 3811   7.295   2.843   5.193
  272POPC   C3A 3812   7.124   2.784   5.640
  272POPC   C4A 3813   7.157   2.975   6.084
  272POPC   C1B 3814   7.386   2.362   4.723
  272POPC   C2B 3815   7.486   2.359   5.160
  272POPC   C3B 3816   7.612   2.479   5.575
  272POPC   C4B 3817   7.766   2.435   5.992
  273POPC   NC3 3818   1.767   9.848   3.635
  273POPC   PO4 3819   2.051  10.160   4.293
  273POPC   GL1 3820   2.038   9.722   4.469
  273POPC   GL2 3821   2.062   9.455   4.200
  273POPC   C1A 3822   1.810   9.614   4.790
  273POPC   D2A 3823   1.745   9.875   5.097
  273POPC   C3A 3824   1.960   9.714   5.400
  273POPC   C4A 3825   2.078   9.865   5.757
  273POPC   C1B 3826   2.087   9.231   4.603
  273POPC   C2B 3827   2.077   9.245   5.057
  273POPC   C3B 3828   1.799   9.224   5.394
  273POPC   C4B 3829   1.799   9.421   5.798
  274POPC   NC3 3830   7.259   8.829   3.878
  274POPC   PO4 3831   7.063   9.406   4.122
  274POPC   GL1 3832   7.328   9.134   4.423
  274POPC   GL2 3833   7.463   8.792   4.342
  274POPC   C1A 3834   7.274   8.945   4.875
  274POPC   D2A 3835   7.311   8.830   5.324
  274POPC   C3A 3836   7.094   9.072   5.688
  274POPC   C4A 3837   6.796   9.063   6.074
  274POPC   C1B 3838   7.729   8.918   4.661
  274POPC   C2B 3839   7.768   8.838   5.069
  274POPC   C3B 3840   7.795   8.732   5.493
  274POPC   C4B 3841   7.486   8.702   5.780
  275POPC   NC3 3842   2.813   1.300   3.778
  275POPC   PO4 3843   2.499   1.861   4.031
  275POPC   GL1 3844   2.723   1.545   4.294
  275POPC   GL2 3845   2.897   1.247   4.266
  275POPC   C1A 3846   2.580   1.314   4.684
  275POPC   D2A 3847   2.352   1.277   5.059
  275POPC   C3A 3848   2.311   1.491   5.436
  275POPC   C4A 3849   2.362   1.404   5.838
  275POPC   C1B 3850   3.076   1.233   4.671
  275POPC   C2B 3851   2.858   1.151   5.084
  275POPC   C3B 3852   2.739   1.216   5.530
  275POPC   C4B 3853   2.789   1.154   5.992
  276POPC   NC3 3854   3.570   2.767   4.098
  276POPC   PO4 3855   3.230   2.411   3.627
  276POPC   GL1 3856   3.122   2.546   4.191
  276POPC   GL2 3857   3.444   2.485   4.489
  276POPC   C1A 3858   2.987   2.458   4.666
  276POPC   D2A 3859   3.160   2.425   5.142
  276POPC   C3A 3860   3.234   2.650   5.557
  276POPC   C4A 3861   3.477   2.700   5.967
  276POPC   C1B 3862   3.330   2.804   4.827
  276POPC   C2B 3863   3.356   3.058   5.219
  276POPC   C3B 3864   3.470   3.106   5.663
  276POPC   C4B 3865   3.861   3.091   5.940
  277POPC   NC3 3866   9.069  11.072   3.482
  277POPC   PO4 3867   8.663  11.236   4.037
  277POPC   GL1 3868   8.836  11.122   4.415
  277POPC   GL2 3869   9.151  11.284   4.389
  277POPC   C1A 3870   8.715  10.845   4.764
  277POPC   D2A 3871   8.902  10.728   5.152
  277POPC   C3A 3872   8.672  10.729   5.527
  277POPC   C4A 3873   8.845  11.039   5.777
  277POPC   C1B 3874   9.148  11.121   4.804
  277POPC   C2B 3875   8.915  11.228   5.171
  277POPC   C3B 3876   9.037  11.429   5.522
  277POPC   C4B 3877   9.012   0.281   5.783
  278POPC   NC3 3878   6.317   2.591   4.028
  278POPC   PO4 3879   6.507   3.204   4.129
  278POPC   GL1 3880   6.614   2.811   4.422
  278POPC   GL2 3881   6.569   2.431   4.434
  278POPC   C1A 3882   6.583   2.709   4.884
  278POPC   D2A 3883   6.776   2.900   5.246
  278POPC   C3A 3884   6.568   2.932   5.652
  278POPC   C4A 3885   6.652   3.132   6.052
  278POPC   C1B 3886   6.872   2.309   4.737
  278POPC   C2B 3887   6.973   2.433   5.158
  278POPC   C3B 3888   6.718   2.464   5.525
  278POPC   C4B 3889   6.350   2.473   5.817
  279POPC   NC3 3890   0.485   2.651   3.861
  279POPC   PO4 3891   0.138   3.095   4.158
  279POPC   GL1 3892   0.531   2.917   4.339
  279POPC   GL2 3893   0.514   2.535   4.384
  279POPC   C1A 3894   0.621   2.805   4.791
  279POPC   D2A 3895   0.552   2.789   5.220
  279POPC   C3A 3896   0.774   3.006   5.512
  279POPC   C4A 3897   0.681   2.773   5.825
  279POPC   C1B 3898   0.208   2.390   4.728
  279POPC   C2B 3899   0.113   2.512   5.156
  279POPC   C3B 3900   0.164   2.704   5.562
  279POPC   C4B 3901   0.255   2.514   5.958
  280POPC   NC3 3902  11.056   3.684   3.879
  280POPC   PO4 3903   0.005   3.292   3.669
  280POPC   GL1 3904  11.425   3.523   4.160
  280POPC   GL2 3905  11.133   3.420   4.313
  280POPC   C1A 3906   0.012   3.634   4.644
  280POPC   D2A 3907   0.049   3.370   5.023
  280POPC   C3A 3908  11.500   3.581   5.402
  280POPC   C4A 3909  11.343   3.514   5.824
  280POPC   C1B 3910  11.021   3.684   4.613
  280POPC   C2B 3911  11.071   3.535   5.003
  280POPC   C3B 3912  11.004   3.504   5.407
  280POPC   C4B 3913  10.764   3.779   5.581
  281POPC   NC3 3914   3.350  10.171   4.133
  281POPC   PO4 3915   3.716  10.733   4.072
  281POPC   GL1 3916   3.383  10.638   4.368
  281POPC   GL2 3917   3.386  10.360   4.590
  281POPC   C1A 3918   3.244  10.825   4.727
  281POPC   D2A 3919   3.382  10.624   5.084
  281POPC   C3A 3920   3.253  10.699   5.498
  281POPC   C4A 3921   3.366  10.528   5.920
  281POPC   C1B 3922   3.699  10.163   4.786
  281POPC   C2B 3923   3.533  10.137   5.124
  281POPC   C3B 3924   3.576  10.307   5.486
  281POPC   C4B 3925   3.792  10.189   5.820
  282POPC   NC3 3926   3.773   0.084   4.081
  282POPC   PO4 3927   3.939   0.707   3.981
  282POPC   GL1 3928   3.736   0.537   4.330
  282POPC   GL2 3929   3.408   0.423   4.254
  282POPC   C1A 3930   3.840   0.318   4.702
  282POPC   D2A 3931   3.702   0.000   5.013
  282POPC   C3A 3932   3.622   0.140   5.449
  282POPC   C4A 3933   3.713   0.291   5.863
  282POPC   C1B 3934   3.310   0.324   4.692
  282POPC   C2B 3935   3.505   0.491   5.076
  282POPC   C3B 3936   3.429   0.641   5.507
  282POPC   C4B 3937   3.189   0.349   5.762
  283POPC   NC3 3938   4.083   9.629   3.941
  283POPC   PO4 3939   4.776   9.356   4.006
  283POPC   GL1 3940   4.531   9.460   4.395
  283POPC   GL2 3941   4.212   9.637   4.431
  283POPC   C1A 3942   4.492   9.590   4.849
  283POPC   D2A 3943   4.706   9.451   5.243
  283POPC   C3A 3944   4.524   9.483   5.682
  283POPC   C4A 3945   4.605   9.646   6.138
  283POPC   C1B 3946   3.971   9.725   4.795
  283POPC   C2B 3947   3.918   9.839   5.201
  283POPC   C3B 3948   3.992   9.752   5.599
  283POPC   C4B 3949   4.325   9.938   5.801
  284POPC   NC3 3950  10.465  10.314   3.861
  284POPC   PO4 3951  10.027  10.745   3.947
  284POPC   GL1 3952  10.326  10.617   4.277
  284POPC   GL2 3953  10.510  10.299   4.358
  284POPC   C1A 3954  10.279  10.735   4.688
  284POPC   D2A 3955  10.405  10.517   5.047
  284POPC   C3A 3956  10.360  10.786   5.330
  284POPC   C4A 3957  10.437  10.797   5.713
  284POPC   C1B 3958  10.602  10.156   4.766
  284POPC   C2B 3959  10.636  10.081   5.214
  284POPC   C3B 3960  10.502  10.302   5.557
  284POPC   C4B 3961  10.824  10.193   5.789
  285POPC   NC3 3962   1.086   4.975   3.915
  285POPC   PO4 3963   0.434   5.333   3.973
  285POPC   GL1 3964   0.750   5.347   4.326
  285POPC   GL2 3965   1.105   5.203   4.372
  285POPC   C1A 3966   0.880   5.483   4.734
  285POPC   D2A 3967   1.134   5.190   4.988
  285POPC   C3A 3968   1.199   5.231   5.435
  285POPC   C4A 3969   0.880   5.084   5.695
  285POPC   C1B 3970   1.329   4.882   4.625
  285POPC   C2B 3971   1.433   4.777   5.080
  285POPC   C3B 3972   1.346   4.727   5.545
  285POPC   C4B 3973   1.540   4.979   5.859
  286POPC   NC3 3974   7.217   9.819   4.011
  286POPC   PO4 3975   7.901   9.885   3.862
  286POPC   GL1 3976   7.671   9.944   4.319
  286POPC   GL2 3977   7.448   9.661   4.417
  286POPC   C1A 3978   7.666   9.875   4.825
  286POPC   D2A 3979   7.334   9.868   5.159
  286POPC   C3A 3980   7.472  10.001   5.586
  286POPC   C4A 3981   7.473   9.701   5.906
  286POPC   C1B 3982   7.313   9.469   4.820
  286POPC   C2B 3983   7.310   9.355   5.277
  286POPC   C3B 3984   7.092   9.601   5.578
  286POPC   C4B 3985   6.678   9.501   5.750
  287POPC   NC3 3986   7.404   0.295   3.849
  287POPC   PO4 3987   7.666   0.926   3.877
  287POPC   GL1 3988   7.709   0.724   4.264
  287POPC   GL2 3989   7.402   0.584   4.272
  287POPC   C1A 3990   7.776   0.554   4.714
  287POPC   D2A 3991   7.809   0.341   5.180
  287POPC   C3A 3992   7.675   0.624   5.565
  287POPC   C4A 3993   7.720   0.695   6.067
  287POPC   C1B 3994   7.217   0.609   4.647
  287POPC   C2B 3995   7.373   0.574   5.052
  287POPC   C3B 3996   7.278   0.341   5.406
  287POPC   C4B 3997   7.091   0.651   5.672
  288POPC   NC3 3998   5.206   9.117   4.029
  288POPC   PO4 3999   4.870   8.592   3.842
  288POPC   GL1 4000   4.769   8.703   4.289
  288POPC   GL2 4001   4.847   9.016   4.368
  288POPC   C1A 4002   4.665   8.560   4.725
  288POPC   D2A 4003   4.937   8.569   5.108
  288POPC   C3A 4004   4.891   8.672   5.551
  288POPC   C4A 4005   5.022   8.759   6.000
  288POPC   C1B 4006   5.045   8.894   4.732
  288POPC   C2B 4007   5.047   9.064   5.169
  288POPC   C3B 4008   4.995   9.195   5.601
  288POPC   C4B 4009   5.358   9.138   5.862
  289POPC   NC3 4010   5.115   1.207   3.881
  289POPC   PO4 4011   4.664   0.721   4.115
  289POPC   GL1 4012   4.876   0.751   4.447
  289POPC   GL2 4013   5.096   0.986   4.359
  289POPC   C1A 4014   4.981   0.784   4.868
  289POPC   D2A 4015   5.067   1.084   5.100
  289POPC   C3A 4016   4.942   0.945   5.447
  289POPC   C4A 4017   5.081   0.807   5.828
  289POPC   C1B 4018   5.147   1.378   4.647
  289POPC   C2B 4019   4.946   1.565   5.046
  289POPC   C3B 4020   5.117   1.481   5.471
  289POPC   C4B 4021   5.442   1.516   5.760
  290POPC   NC3 4022   4.325   7.520   4.205
  290POPC   PO4 4023   3.759   7.642   4.239
  290POPC   GL1 4024   3.980   7.387   4.560
  290POPC   GL2 4025   4.147   7.080   4.431
  290POPC   C1A 4026   4.092   7.459   4.982
  290POPC   D2A 4027   4.252   7.785   5.253
  290POPC   C3A 4028   4.206   7.644   5.668
  290POPC   C4A 4029   3.926   7.293   5.749
  290POPC   C1B 4030   4.449   7.142   4.783
  290POPC   C2B 4031   4.530   7.312   5.207
  290POPC   C3B 4032   4.443   7.176   5.632
  290POPC   C4B 4033   4.187   6.858   5.867
  291POPC   NC3 4034   0.506   0.586   3.896
  291POPC   PO4 4035   0.123   0.011   3.820
  291POPC   GL1 4036   0.176   0.135   4.307
  291POPC   GL2 4037   0.406   0.431   4.354
  291POPC   C1A 4038   0.488   0.086   4.690
  291POPC   D2A 4039   0.770   0.254   5.000
  291POPC   C3A 4040   0.654   0.143   5.431
  291POPC   C4A 4041   0.916   0.253   5.767
  291POPC   C1B 4042   0.578   0.633   4.718
  291POPC   C2B 4043   0.350   0.630   5.140
  291POPC   C3B 4044   0.433   0.579   5.610
  291POPC   C4B 4045   0.343   0.640   6.050
  292POPC   NC3 4046  10.380   2.248   3.504
  292POPC   PO4 4047  10.176   1.675   3.898
  292POPC   GL1 4048  10.168   2.014   4.210
  292POPC   GL2 4049  10.477   2.212   4.256
  292POPC   C1A 4050  10.202   2.054   4.669
  292POPC   D2A 4051  10.359   1.859   5.026
  292POPC   C3A 4052  10.142   2.008   5.380
  292POPC   C4A 4053  10.152   2.163   5.765
  292POPC   C1B 4054  10.545   1.747   4.460
  292POPC   C2B 4055  10.777   1.635   4.853
  292POPC   C3B 4056  10.701   1.592   5.337
  292POPC   C4B 4057  10.421   1.713   5.717
  293POPC   NC3 4058   1.385   1.783   4.020
  293POPC   PO4 4059   1.719   2.330   3.824
  293POPC   GL1 4060   1.448   2.322   4.226
  293POPC   GL2 4061   1.107   2.158   4.230
  293POPC   C1A 4062   1.446   2.242   4.700
  293POPC   D2A 4063   1.645   2.286   5.146
  293POPC   C3A 4064   1.371   2.074   5.481
  293POPC   C4A 4065   1.320   2.041   5.943
  293POPC   C1B 4066   1.081   1.879   4.611
  293POPC   C2B 4067   1.046   2.033   5.031
  293POPC   C3B 4068   0.849   1.937   5.410
  293POPC   C4B 4069   1.014   1.693   5.747
  294POPC   NC3 4070   0.502  10.563   3.540
  294POPC   PO4 4071   0.467  10.162   3.952
  294POPC   GL1 4072   0.526  10.484   4.230
  294POPC   GL2 4073   0.231  10.559   4.223
  294POPC   C1A 4074   0.663  10.592   4.628
  294POPC   D2A 4075   0.697  10.271   4.933
  294POPC   C3A 4076   0.659  10.452   5.317
  294POPC   C4A 4077   0.646  10.339   5.738
  294POPC   C1B 4078   0.242  10.305   4.630
  294POPC   C2B 4079   0.120  10.411   5.064
  294POPC   C3B 4080   0.194  10.429   5.516
  294POPC   C4B 4081   0.201  10.285   5.962
  295POPC   NC3 4082   3.000   2.801   3.617
  295POPC   PO4 4083   2.398   2.560   3.867
  295POPC   GL1 4084   2.439   2.426   4.247
  295POPC   GL2 4085   2.644   2.710   4.340
  295POPC   C1A 4086   2.487   2.319   4.637
  295POPC   D2A 4087   2.559   2.579   4.936
  295POPC   C3A 4088   2.667   2.404   5.312
  295POPC   C4A 4089   2.706   2.616   5.703
  295POPC   C1B 4090   2.848   2.941   4.709
  295POPC   C2B 4091   2.887   2.872   5.164
  295POPC   C3B 4092   2.906   3.065   5.558
  295POPC   C4B 4093   3.019   2.966   5.975
  296POPC   NC3 4094   1.172  11.045   3.855
  296POPC   PO4 4095   0.917   0.148   4.005
  296POPC   GL1 4096   1.012  11.319   4.293
  296POPC   GL2 4097   1.048  10.956   4.360
  296POPC   C1A 4098   1.097  11.326   4.728
  296POPC   D2A 4099   1.361  11.366   5.093
  296POPC   C3A 4100   1.117  11.420   5.431
  296POPC   C4A 4101   0.949  11.232   5.798
  296POPC   C1B 4102   1.403  10.887   4.688
  296POPC   C2B 4103   1.480  10.872   5.161
  296POPC   C3B 4104   1.359  10.999   5.590
  296POPC   C4B 4105   1.406  10.835   6.021
  297POPC   NC3 4106   9.923   8.111   4.123
  297POPC   PO4 4107   9.305   7.859   3.938
  297POPC   GL1 4108   9.525   7.839   4.307
  297POPC   GL2 4109   9.444   8.196   4.346
  297POPC   C1A 4110   9.698   7.750   4.718
  297POPC   D2A 4111   9.843   7.589   5.145
  297POPC   C3A 4112   9.604   7.819   5.466
  297POPC   C4A 4113   9.717   8.190   5.672
  297POPC   C1B 4114   9.488   8.354   4.770
  297POPC   C2B 4115   9.470   8.246   5.207
  297POPC   C3B 4116   9.231   8.287   5.586
  297POPC   C4B 4117   9.067   8.192   6.004
  298POPC   NC3 4118   6.509  11.366   3.970
  298POPC   PO4 4119   6.481  10.738   3.982
  298POPC   GL1 4120   6.559  10.976   4.354
  298POPC   GL2 4121   6.533  11.341   4.453
  298POPC   C1A 4122   6.448  10.953   4.770
  298POPC   D2A 4123   6.621  11.074   5.135
  298POPC   C3A 4124   6.371  10.917   5.450
  298POPC   C4A 4125   6.536  10.918   5.871
  298POPC   C1B 4126   6.480  11.477   4.824
  298POPC   C2B 4127   6.512   0.056   5.187
  298POPC   C3B 4128   6.563  11.373   5.566
  298POPC   C4B 4129   6.417   0.124   5.905
  299POPC   NC3 4130  11.080   6.900   3.917
  299POPC   PO4 4131  10.930   6.218   3.742
  299POPC   GL1 4132  10.988   6.477   4.208
  299POPC   GL2 4133  11.223   6.679   4.325
  299POPC   C1A 4134  10.888   6.550   4.699
  299POPC   D2A 4135  10.736   6.398   5.129
  299POPC   C3A 4136  10.856   6.640   5.529
  299POPC   C4A 4137  10.960   6.476   5.969
  299POPC   C1B 4138  11.390   6.511   4.682
  299POPC   C2B 4139   0.020   6.485   5.079
  299POPC   C3B 4140  11.358   6.584   5.439
  299POPC   C4B 4141  11.354   6.772   5.823
  300POPC   NC3 4142   0.043   1.164   3.882
  300POPC   PO4 4143  10.869   1.040   3.901
  300POPC   GL1 4144  11.121   0.929   4.251
  300POPC   GL2 4145  11.380   1.129   4.345
  300POPC   C1A 4146  11.078   0.943   4.709
  300POPC   D2A 4147  11.001   1.240   5.058
  300POPC   C3A 4148  10.990   1.148   5.487
  300POPC   C4A 4149  11.058   0.871   5.827
  300POPC   C1B 4150  11.344   1.406   4.691
  300POPC   C2B 4151  11.407   1.579   5.095
  300POPC   C3B 4152  11.463   1.388   5.513
  300POPC   C4B 4153  11.271   1.312   5.938
  301POPC   NC3 4154  10.787   5.208   3.926
  301POPC   PO4 4155  10.201   4.852   3.821
  301POPC   GL1 4156  10.272   4.889   4.265
  301POPC   GL2 4157  10.404   5.205   4.379
  301POPC   C1A 4158  10.284   4.811   4.722
  301POPC   D2A 4159  10.148   4.717   5.154
  301POPC   C3A 4160  10.423   4.720   5.539
  301POPC   C4A 4161  10.234   4.882   5.937
  301POPC   C1B 4162  10.574   5.242   4.834
  301POPC   C2B 4163  10.556   5.138   5.252
  301POPC   C3B 4164  10.243   5.239   5.555
  301POPC   C4B 4165  10.286   5.397   5.967
  302POPC   NC3 4166   9.622   0.990   3.976
  302POPC   PO4 4167   9.366   1.587   3.921
  302POPC   GL1 4168   9.544   1.436   4.317
  302POPC   GL2 4169   9.447   1.089   4.440
  302POPC   C1A 4170   9.485   1.460   4.780
  302POPC   D2A 4171   9.681   1.225   5.106
  302POPC   C3A 4172   9.471   1.193   5.517
  302POPC   C4A 4173   9.490   1.337   5.952
  302POPC   C1B 4174   9.881   0.985   4.611
  302POPC   C2B 4175  10.069   0.836   5.000
  302POPC   C3B 4176  10.015   1.007   5.423
  302POPC   C4B 4177   9.810   0.961   5.842
  303POPC   NC3 4178   9.674  10.474   3.831
  303POPC   PO4 4179  10.108  10.014   3.849
  303POPC   GL1 4180  10.000  10.195   4.249
  303POPC   GL2 4181   9.805  10.512   4.339
  303POPC   C1A 4182  10.098  10.257   4.681
  303POPC   D2A 4183   9.897  10.541   4.989
  303POPC   C3A 4184  10.007  10.398   5.400
  303POPC   C4A 4185   9.949  10.576   5.794
  303POPC   C1B 4186   9.577  10.281   4.656
  303POPC   C2B 4187   9.435  10.335   5.098
  303POPC   C3B 4188   9.515  10.504   5.506
  303POPC   C4B 4189   9.493  10.352   5.915
  304POPC   NC3 4190   6.661   1.752   3.694
  304POPC   PO4 4191   6.331   1.300   3.956
  304POPC   GL1 4192   6.547   1.075   4.343
  304POPC   GL2 4193   6.841   0.807   4.309
  304POPC   C1A 4194   6.544   1.224   4.816
  304POPC   D2A 4195   6.702   1.477   5.201
  304POPC   C3A 4196   6.538   1.638   5.643
  304POPC   C4A 4197   6.691   1.640   6.092
  304POPC   C1B 4198   6.726   0.752   4.733
  304POPC   C2B 4199   6.771   0.899   5.170
  304POPC   C3B 4200   6.630   0.846   5.567
  304POPC   C4B 4201   6.471   1.160   5.828
  305POPC   NC3 4202  11.020   0.486   4.023
  305POPC   PO4 4203   0.102   0.724   4.070
  305POPC   GL1 4204  11.362   0.514   4.433
  305POPC   GL2 4205  10.989   0.475   4.530
  305POPC   C1A 4206  11.332   0.505   4.895
  305POPC   D2A 4207  11.330   0.867   5.146
  305POPC   C3A 4208  11.454   0.833   5.517
  305POPC   C4A 4209  11.424   0.534   5.801
  305POPC   C1B 4210  10.742   0.223   4.856
  305POPC   C2B 4211  10.815   0.192   5.243
  305POPC   C3B 4212  11.139   0.414   5.391
  305POPC   C4B 4213  10.932   0.384   5.736
  306POPC   NC3 4214   0.619   9.728   3.970
  306POPC   PO4 4215   0.241   9.219   3.925
  306POPC   GL1 4216   0.608   9.223   4.270
  306POPC   GL2 4217   0.831   9.535   4.408
  306POPC   C1A 4218   0.597   9.211   4.757
  306POPC   D2A 4219   0.615   9.487   5.147
  306POPC   C3A 4220   0.593   9.426   5.604
  306POPC   C4A 4221   0.323   9.544   5.926
  306POPC   C1B 4222   0.565   9.806   4.715
  306POPC   C2B 4223   0.352   9.942   5.132
  306POPC   C3B 4224   0.415   9.924   5.586
  306POPC   C4B 4225   0.645   9.918   6.013
  307POPC   NC3 4226  10.793   6.033   4.149
  307POPC   PO4 4227  10.167   5.846   3.922
  307POPC   GL1 4228  10.442   5.692   4.251
  307POPC   GL2 4229  10.265   5.892   4.443
  307POPC   C1A 4230  10.680   5.714   4.687
  307POPC   D2A 4231  10.841   5.826   5.094
  307POPC   C3A 4232  10.561   5.709   5.392
  307POPC   C4A 4233  10.543   5.857   5.809
  307POPC   C1B 4234  10.184   5.562   4.728
  307POPC   C2B 4235  10.107   5.582   5.175
  307POPC   C3B 4236  10.077   5.758   5.608
  307POPC   C4B 4237  10.085   6.120   5.942
  308POPC   NC3 4238  10.713  11.280   3.938
  308POPC   PO4 4239  10.041   0.008   3.769
  308POPC   GL1 4240  10.033  11.312   4.196
  308POPC   GL2 4241  10.335  11.129   4.249
  308POPC   C1A 4242  10.106  11.287   4.679
  308POPC   D2A 4243  10.002  11.436   5.116
  308POPC   C3A 4244  10.209  11.256   5.461
  308POPC   C4A 4245  10.065  11.091   5.838
  308POPC   C1B 4246  10.607  11.132   4.630
  308POPC   C2B 4247  10.530  11.277   5.047
  308POPC   C3B 4248  10.720  11.181   5.445
  308POPC   C4B 4249  10.579  11.284   5.841
  309POPC   NC3 4250   0.468   4.095   3.891
  309POPC   PO4 4251   0.113   4.594   4.023
  309POPC   GL1 4252   0.216   4.310   4.306
  309POPC   GL2 4253   0.567   4.313   4.329
  309POPC   C1A 4254   0.219   4.127   4.688
  309POPC   D2A 4255   0.187   4.340   5.062
  309POPC   C3A 4256   0.248   4.127   5.426
  309POPC   C4A 4257   0.215   4.370   5.786
  309POPC   C1B 4258   0.534   4.520   4.712
  309POPC   C2B 4259   0.671   4.253   5.055
  309POPC   C3B 4260   0.834   4.024   5.391
  309POPC   C4B 4261   0.653   4.106   5.785
  310POPC   NC3 4262   9.913   4.560   3.638
  310POPC   PO4 4263   9.321   4.388   3.929
  310POPC   GL1 4264   9.706   4.433   4.219
  310POPC   GL2 4265   9.782   4.143   4.445
  310POPC   C1A 4266   9.792   4.582   4.684
  310POPC   D2A 4267   9.797   4.313   5.094
  310POPC   C3A 4268   9.698   4.506   5.505
  310POPC   C4A 4269   9.713   4.747   5.930
  310POPC   C1B 4270   9.444   4.189   4.736
  310POPC   C2B 4271   9.230   4.268   5.145
  310POPC   C3B 4272   9.260   4.135   5.569
  310POPC   C4B 4273   9.405   4.342   5.903
  311POPC   NC3 4274   6.369  10.332   4.143
  311POPC   PO4 4275   6.960  10.210   3.951
  311POPC   GL1 4276   6.847  10.541   4.294
  311POPC   GL2 4277   6.543  10.486   4.571
  311POPC   C1A 4278   6.925  10.732   4.735
  311POPC   D2A 4279   6.654  10.579   5.120
  311POPC   C3A 4280   6.828  10.651   5.560
  311POPC   C4A 4281   6.763  10.427   5.995
  311POPC   C1B 4282   6.141  10.519   4.828
  311POPC   C2B 4283   6.081  10.500   5.296
  311POPC   C3B 4284   6.352  10.449   5.679
  311POPC   C4B 4285   6.265  10.371   6.127
  312POPC   NC3 4286   8.136   0.672   3.984
  312POPC   PO4 4287   7.818   0.064   3.896
  312POPC   GL1 4288   7.945   0.246   4.288
  312POPC   GL2 4289   8.290   0.232   4.234
  312POPC   C1A 4290   8.010   0.097   4.739
  312POPC   D2A 4291   8.327   0.058   5.091
  312POPC   C3A 4292   8.123   0.061   5.526
  312POPC   C4A 4293   7.946   0.297   5.843
  312POPC   C1B 4294   8.430   0.337   4.645
  312POPC   C2B 4295   8.244   0.549   4.973
  312POPC   C3B 4296   8.222   0.541   5.423
  312POPC   C4B 4297   8.123   0.794   5.759
  313POPC   NC3 4298   8.198   1.278   3.916
  313POPC   PO4 4299   8.454   0.852   4.267
  313POPC   GL1 4300   8.111   1.054   4.403
  313POPC   GL2 4301   8.133   1.415   4.397
  313POPC   C1A 4302   8.177   1.142   4.835
  313POPC   D2A 4303   8.204   0.993   5.226
  313POPC   C3A 4304   8.412   1.160   5.553
  313POPC   C4A 4305   8.250   1.497   5.738
  313POPC   C1B 4306   7.797   1.439   4.704
  313POPC   C2B 4307   7.668   1.259   5.095
  313POPC   C3B 4308   7.804   1.134   5.497
  313POPC   C4B 4309   7.858   1.200   5.923
  314POPC   NC3 4310   9.314   3.438   4.041
  314POPC   PO4 4311   8.607   3.127   4.028
  314POPC   GL1 4312   8.922   3.274   4.358
  314POPC   GL2 4313   8.941   3.622   4.411
  314POPC   C1A 4314   8.870   3.347   4.839
  314POPC   D2A 4315   8.974   3.256   5.277
  314POPC   C3A 4316   8.727   3.285   5.699
  314POPC   C4A 4317   8.810   3.521   6.085
  314POPC   C1B 4318   9.124   3.795   4.827
  314POPC   C2B 4319   9.032   3.772   5.270
  314POPC   C3B 4320   8.797   3.907   5.650
  314POPC   C4B 4321   8.973   4.027   6.039
  315POPC   NC3 4322   6.744  10.513   3.688
  315POPC   PO4 4323   7.414  10.558   3.669
  315POPC   GL1 4324   7.391  10.338   4.160
  315POPC   GL2 4325   7.335  10.566   4.436
  315POPC   C1A 4326   7.253  10.110   4.606
  315POPC   D2A 4327   7.076  10.308   4.990
  315POPC   C3A 4328   7.035  10.197   5.446
  315POPC   C4A 4329   7.231  10.414   5.816
  315POPC   C1B 4330   7.656  10.411   4.707
  315POPC   C2B 4331   7.575  10.313   5.111
  315POPC   C3B 4332   7.561  10.540   5.443
  315POPC   C4B 4333   7.734  10.447   5.809
  316POPC   NC3 4334   1.541   2.743   3.788
  316POPC   PO4 4335   0.902   2.905   3.881
  316POPC   GL1 4336   0.989   2.661   4.221
  316POPC   GL2 4337   1.289   2.805   4.279
  316POPC   C1A 4338   0.983   2.443   4.637
  316POPC   D2A 4339   1.181   2.536   5.048
  316POPC   C3A 4340   0.950   2.488   5.412
  316POPC   C4A 4341   0.898   2.280   5.797
  316POPC   C1B 4342   1.106   2.923   4.701
  316POPC   C2B 4343   1.090   3.054   5.118
  316POPC   C3B 4344   1.270   2.876   5.504
  316POPC   C4B 4345   1.348   2.514   5.738
  317POPC   NC3 4346   9.742   1.860   3.941
  317POPC   PO4 4347   9.216   2.342   3.921
  317POPC   GL1 4348   9.492   2.227   4.229
  317POPC   GL2 4349   9.336   1.923   4.308
  317POPC   C1A 4350   9.509   2.303   4.684
  317POPC   D2A 4351   9.430   2.023   5.046
  317POPC   C3A 4352   9.568   2.157   5.472
  317POPC   C4A 4353   9.451   2.265   5.924
  317POPC   C1B 4354   9.725   1.869   4.582
  317POPC   C2B 4355   9.859   1.756   4.994
  317POPC   C3B 4356   9.681   1.664   5.408
  317POPC   C4B 4357   9.719   1.826   5.835
  318POPC   NC3 4358   3.344   5.853   3.766
  318POPC   PO4 4359   3.544   5.327   3.764
  318POPC   GL1 4360   3.476   5.069   4.187
  318POPC   GL2 4361   3.134   4.950   4.298
  318POPC   C1A 4362   3.651   5.047   4.649
  318POPC   D2A 4363   3.756   5.218   5.091
  318POPC   C3A 4364   3.428   5.194   5.437
  318POPC   C4A 4365   3.417   4.922   5.816
  318POPC   C1B 4366   3.235   4.762   4.714
  318POPC   C2B 4367   3.494   4.774   5.109
  318POPC   C3B 4368   3.796   4.845   5.465
  318POPC   C4B 4369   3.879   4.607   5.836
  319W        W 4370  11.234  10.748   8.534
  320W        W 4371   8.572   4.356   3.153
  321W        W 4372   5.751   3.535   8.139
  322W        W 4373   6.759   6.834  11.800
  323W        W 4374   7.642   8.415   9.825
  324W        W 4375   2.193   9.635   8.670
  325W        W 4376   5.973   3.858   8.577
  326W        W 4377   0.943   5.106   2.225
  327W        W 4378   3.665   0.825   3.160
  328W        W 4379   9.299   0.781  11.214
  329W        W 4380   7.622   6.100   8.376
  330W        W 4381   8.679   5.495   8.637
  331W        W 4382  10.954   9.107   9.095
  332W        W 4383   9.775   9.393   9.110
  333W        W 4384  10.457   6.567   2.961
  334W        W 4385   7.775  10.870   2.312
  335W        W 4386  10.249   6.663  10.850
  336W        W 4387   7.488   1.369   0.141
  337W        W 4388   5.115   6.446   0.873
  338W        W 4389   0.742   4.364  11.638
  339W        W 4390   0.132   8.133  10.789
  340W        W 4391   7.985   2.320   2.929
  341W        W 4392   4.067  10.750  11.509
  342W        W 4393   3.172   7.621   9.992
  343W        W 4394   1.426   0.908   1.879
  344W        W 4395   9.695   6.588   9.996
  345W        W 4396   7.230   8.031   0.757
  346W        W 4397  10.999   5.439  10.560
  347W        W 4398   6.672   0.756   1.759
  348W        W 4399   3.238   7.058   1.783
  349W        W 4400   5.531   3.599   9.485
  350W        W 4401   1.849   9.471  11.782
  351W        W 4402   4.760   2.832   0.530
  352W        W 4403  10.023  11.385   3.226
  353W        W 4404   8.611   3.413   2.158
  354W        W 4405   1.519   7.586  10.013
  355W        W 4406   0.400   8.515  11.537
  356W        W 4407   0.947   6.962   8.271
  357W        W 4408   2.464   9.921   0.351
  358W        W 4409   6.407   3.609   8.759
  359W        W 4410   7.536   9.508   9.011
  360W        W 4411  10.640   5.084  11.979
  361W        W 4412   6.139   8.448  10.406
  362W        W 4413   1.100   1.395   9.788
  363W        W 4414   6.517   2.924  11.639
  364W        W 4415   2.309  10.839   1.401
  365W        W 4416   1.827   5.529   2.486
  366W        W 4417   9.392   8.811   3.017
  367W        W 4418   4.649  10.779   2.764
  368W        W 4419   5.208   5.459   1.814
  369W        W 4420   8.461   6.930   3.042
  370W        W 4421   7.621   6.572   9.484
  371W        W 4422   5.614   2.616   1.493
  372W        W 4423  11.156  10.513   2.914
  373W        W 4424   7.687   9.439   3.586
  374W        W 4425   5.569   6.653  10.535
  375W        W 4426   1.362   9.925   0.449
  376W        W 4427   9.859   4.742   0.728
  377W        W 4428   7.598   5.200  10.108
  378W        W 4429   2.243   3.703   2.317
  379W        W 4430   1.456   8.134   2.728
  380W        W 4431   3.751   3.736   1.258
  381W        W 4432   9.303   2.455   2.474
  382W        W 4433   5.163   3.233   1.328
  383W        W 4434   5.659   0.357  11.108
  384W        W 4435   5.396   6.062   9.835
  385W        W 4436   4.818   1.179   3.119
  386W        W 4437   9.415   4.624  11.954
  387W        W 4438   4.961  10.554  10.446
  388W        W 4439   8.621   9.897   2.567
  389W        W 4440  11.179   2.641   8.809
  390W        W 4441   2.678   5.914   1.841
  391W        W 4442   2.959   8.037   9.266
  392W        W 4443   2.727   1.969  11.766
  393W        W 4444   0.851   9.332   2.628
  394W        W 4445   5.406   4.451   3.936
  395W        W 4446   2.720   8.620   3.241
  396W        W 4447   1.700   7.911   3.533
  397W        W 4448   5.181   3.663   1.848
  398W        W 4449   6.944   7.566   1.325
  399W        W 4450   3.198   7.439   2.568
  400W        W 4451   3.781   0.472  10.686
  401W        W 4452  11.404   2.581  10.871
  402W        W 4453   5.374  10.844  10.584
  403W        W 4454   1.479   9.183   0.637
  404W        W 4455   8.691  10.532  11.741
  405W        W 4456   4.950   2.396   8.158
  406W        W 4457   3.113   6.626   1.498
  407W        W 4458   0.224   6.563  11.496
  408W        W 4459   3.318   4.760  11.052
  409W        W 4460  10.365   4.138   1.254
  410W        W 4461   3.572   5.544  11.288
  411W        W 4462   5.938  10.431  10.963
  412W        W 4463   7.606   5.079  11.924
  413W        W 4464   2.848   9.096   3.419
  414W        W 4465   6.454  10.128   3.561
  415W        W 4466   3.320   3.394   0.459
  416W        W 4467   8.205   9.064  11.257
  417W        W 4468   2.331   2.267   9.145
  418W        W 4469   8.997   5.392  11.557
  419W        W 4470   5.259   2.626  10.771
  420W        W 4471   9.992   6.650   2.757
  421W        W 4472   6.955   4.638  10.750
  422W        W 4473   4.281   6.988   0.716
  423W        W 4474  11.316   6.066  10.397
  424W        W 4475   1.282   6.472   0.175
  425W        W 4476   9.055   8.876   0.523
  426W        W 4477   6.449   4.035   9.150
  427W        W 4478   2.291   9.653  11.954
  428W        W 4479  10.983   7.470   1.451
  429W        W 4480  10.036  10.747  10.399
  430W        W 4481   3.938   0.159  11.110
  431W        W 4482   7.074   7.520   0.295
  432W        W 4483   7.811   0.857   2.626
  433W        W 4484   7.062   0.259  11.526
  434W        W 4485   8.606   2.243  11.879
  435W        W 4486   4.218   5.706   0.343
  436W        W 4487   4.249   3.748   1.382
  437W        W 4488   5.536   1.956   9.466
  438W        W 4489   8.435   7.135   1.654
  439W        W 4490   7.632   1.690   3.396
  440W        W 4491  10.020  10.833   1.301
  441W        W 4492   8.025   4.096   1.189
  442W        W 4493   5.624   9.628   9.433
  443W        W 4494   1.272   6.514   1.137
  444W        W 4495   9.461   7.914   2.890
  445W        W 4496   6.991  11.298   2.793
  446W        W 4497   5.457   4.161   2.245
  447W        W 4498   2.244   2.798   8.919
  448W        W 4499   0.942  10.884   9.855
  449W        W 4500   2.834   7.489   1.833
  450W        W 4501   4.212  11.125   3.430
  451W        W 4502   4.723   0.773  11.939
  452W        W 4503   7.660   3.647  10.454
  453W        W 4504  10.878   8.838   1.467
  454W        W 4505  10.463   0.566   1.404
  455W        W 4506   3.186   8.108   9.749
  456W        W 4507   3.126   1.633   2.496
  457W        W 4508   9.307   7.544  10.789
  458W        W 4509   2.946  11.137   2.219
  459W        W 4510   7.789   9.278  11.722
  460W        W 4511   9.539   2.608   0.454
  461W        W 4512   7.057   1.701   0.202
  462W        W 4513   4.146   8.744   8.952
  463W        W 4514   0.882   1.393   0.027
  464W        W 4515   7.159   8.868   3.165
  465W        W 4516   3.133   5.669   9.435
  466W        W 4517  10.014   7.102   0.487
  467W        W 4518   5.524   8.394   9.951
  468W        W 4519   0.649   0.948   0.275
  469W        W 4520   1.119   9.476   0.384
  470W        W 4521   7.082   4.312   0.880
  471W        W 4522   2.723  10.790   1.920
  472W        W 4523   4.328  10.774   0.030
  473W        W 4524   9.216  10.066  11.071
  474W        W 4525   3.184   6.458   8.900
  475W        W 4526   5.993   5.739  11.369
  476W        W 4527   5.925   6.044   9.814
  477W        W 4528   2.148   4.874   3.297
  478W        W 4529   9.572   1.065   9.605
  479W        W 4530  10.702   0.883  11.374
  480W        W 4531   4.716   0.637  11.041
  481W        W 4532   2.299   7.605   8.045
  482W        W 4533   2.458   4.843   8.319
  483W        W 4534   7.995   9.597   9.330
  484W        W 4535   3.748   2.556   8.703
  485W        W 4536   4.559   7.150  11.805
  486W        W 4537   3.829   9.022   8.587
  487W        W 4538   0.913   8.385   1.780
  488W        W 4539   9.454   6.510  10.431
  489W        W 4540   3.057   7.129   9.519
  490W        W 4541   5.078  10.724   9.963
  491W        W 4542   7.045   1.845  10.856
  492W        W 4543   5.117   2.329   3.208
  493W        W 4544   2.286   7.178   9.877
  494W        W 4545   2.916   1.813   3.726
  495W        W 4546   7.961   6.085   3.227
  496W        W 4547  11.399   3.389   2.790
  497W        W 4548   5.943   6.460   0.377
  498W        W 4549   4.126  11.239   2.145
  499W        W 4550   0.903   2.704   1.236
  500W        W 4551   5.522   2.717   3.270
  501W        W 4552   4.859   4.341   0.877
  502W        W 4553   9.724   3.361  10.675
  503W        W 4554   5.163   9.832   2.221
  504W        W 4555   6.123  10.817  10.011
  505W        W 4556   1.451   3.324   1.486
  506W        W 4557   7.231   0.839   9.300
  507W        W 4558   0.835   6.531   1.393
  508W        W 4559   9.867   8.472   0.658
  509W        W 4560   1.658   4.031   9.665
  510W        W 4561   4.494   5.299  11.225
  511W        W 4562  10.550  10.067   2.242
  512W        W 4563  11.412   4.711  11.894
  513W        W 4564   8.191   5.482   8.471
  514W        W 4565  10.859   9.351   1.557
  515W        W 4566   1.291   2.841   2.942
  516W        W 4567   7.432   6.580   8.502
  517W        W 4568   0.058   4.822   0.364
  518W        W 4569   2.753   8.562   0.363
  519W        W 4570   2.624   4.665   1.922
  520W        W 4571   4.653  10.230   0.924
  521W        W 4572   3.879   1.721   2.169
  522W        W 4573   7.548   2.397   2.677
  523W        W 4574   2.336   6.961  10.808
  524W        W 4575   6.336   9.534   9.689
  525W        W 4576   6.184   5.076  10.847
  526W        W 4577   3.152   8.650   9.867
  527W        W 4578   8.249   4.786   3.594
  528W        W 4579   8.854   8.531  11.245
  529W        W 4580   3.301   8.090   0.376
  530W        W 4581   7.426   2.676   1.845
  531W        W 4582   6.738   0.807   9.236
  532W        W 4583   9.743   7.548   1.313
  533W        W 4584   8.453   6.102   3.439
  534W        W 4585   0.890   5.595   9.570
  535W        W 4586   1.800  11.011  10.274
  536W        W 4587   4.948   0.084  10.320
  537W        W 4588   8.549   6.644   2.166
  538W        W 4589   1.300   7.470  10.882
  539W        W 4590   0.337   1.666   0.791
  540W        W 4591   5.665   2.807  11.019
  541W        W 4592   5.542   2.304   3.570
  542W        W 4593   6.664   8.754  11.214
  543W        W 4594   3.555   0.992   1.304
  544W        W 4595   7.434   1.298   0.932
  545W        W 4596   7.335   6.150   0.340
  546W        W 4597   1.024   8.493   8.453
  547W        W 4598  11.462   5.179   3.388
  548W        W 4599   9.079   6.055   8.242
  549W        W 4600   3.896  10.785  11.005
  550W        W 4601   0.849   7.879   1.962
  551W        W 4602  10.533   9.905   1.265
  552W        W 4603   5.576   7.175   1.708
  553W        W 4604   7.622  10.075   0.100
  554W        W 4605   2.637   7.555   0.274
  555W        W 4606   9.887   6.490   2.287
  556W        W 4607  10.949   6.472   9.610
  557W        W 4608  10.036   3.341   1.373
  558W        W 4609   1.509  11.350  11.992
  559W        W 4610   7.735   1.933   2.543
  560W        W 4611   9.441   7.033  10.737
  561W        W 4612   0.384   1.157   0.701
  562W        W 4613   5.627   7.936   2.805
  563W        W 4614   6.111  11.312   2.672
  564W        W 4615   1.188   6.570   0.653
  565W        W 4616  10.807  11.290   1.154
  566W        W 4617   4.602   7.104   9.853
  567W        W 4618  11.498   2.574   3.189
  568W        W 4619   5.559   4.168   8.681
  569W        W 4620   2.468   8.879   2.857
  570W        W 4621   2.474   8.164  11.810
  571W        W 4622   9.044  10.502  10.830
  572W        W 4623   1.004   1.885   0.009
  573W        W 4624   1.349   8.652   1.914
  574W        W 4625   6.481   7.186   3.075
  575W        W 4626   4.887   2.005   1.395
  576W        W 4627   9.871   9.783  10.411
  577W        W 4628   9.610   6.782   9.215
  578W        W 4629   1.126   5.676   0.499
  579W        W 4630   5.825  10.441   9.452
  580W        W 4631   8.008   0.575  11.429
  581W        W 4632   9.211   2.148   3.461
  582W        W 4633   6.414   5.740   2.226
  583W        W 4634   1.824   2.212   9.278
  584W        W 4635   9.466   3.177   3.590
  585W        W 4636   4.327   2.622  11.103
  586W        W 4637   5.692   8.686   9.569
  587W        W 4638  10.876   6.757  11.965
  588W        W 4639   8.167  10.958   0.739
  589W        W 4640   1.316   8.990  11.502
  590W        W 4641   2.113   1.804   2.589
  591W        W 4642   2.716   0.295   2.829
  592W        W 4643   3.244   3.723   0.053
  593W        W 4644   4.626   6.161   3.513
  594W        W 4645   9.411   4.361   9.868
  595W        W 4646   4.283   7.966  10.332
  596W        W 4647   0.816   8.963   1.368
  597W        W 4648   7.382   3.139   9.470
  598W        W 4649   5.118   9.504   9.439
  599W        W 4650   3.035   6.054  11.941
  600W        W 4651   0.508   8.576   2.010
  601W        W 4652   4.301   7.180   8.874
  602W        W 4653   9.898   1.972   1.679
  603W        W 4654   1.014   3.533   2.998
  604W        W 4655   2.741   9.339   9.906
  605W        W 4656   7.390   4.852  10.498
  606W        W 4657   4.783   6.631   1.238
  607W        W 4658   7.381   1.695  11.775
  608W        W 4659   9.430   3.158  11.513
  609W        W 4660   8.706   9.890   0.309
  610W        W 4661  10.361   9.449  10.007
  611W        W 4662   2.434   2.307  10.098
  612W        W 4663  10.757   9.537   8.826
  613W        W 4664   7.009   9.958   3.195
  614W        W 4665   3.496   5.101   3.290
  615W        W 4666   5.595   9.721   1.874
  616W        W 4667   5.560   2.449   9.239
  617W        W 4668   8.590  11.292   2.134
  618W        W 4669   6.291   7.050  10.475
  619W        W 4670   2.310   7.677  11.842
  620W        W 4671   1.412   2.833   1.951
  621W        W 4672   0.218   2.229   1.434
  622W        W 4673   4.098   6.364   8.597
  623W        W 4674   6.675   7.209  11.429
  624W        W 4675   0.236   5.344   1.482
  625W        W 4676   0.419   4.212   3.139
  626W        W 4677   3.791  10.220   0.178
  627W        W 4678   8.827   4.338   0.120
  628W        W 4679   1.310   1.082   2.770
  629W        W 4680   2.392   9.587  10.152
  630W        W 4681   7.860   9.314   0.733
  631W        W 4682  11.426   5.646  11.715
  632W        W 4683   5.705   8.532   1.378
  633W        W 4684   7.189  10.201   1.415
  634W        W 4685   2.783   9.582  11.552
  635W        W 4686   6.007   6.890   1.805
  636W        W 4687  10.978   7.437  11.367
  637W        W 4688   1.402   6.673   2.169
  638W        W 4689   3.592  10.408  10.472
  639W        W 4690   3.633   9.462   3.236
  640W        W 4691   0.726   6.739   9.041
  641W        W 4692   9.007   6.831   9.541
  642W        W 4693   8.682   6.667   1.658
  643W        W 4694  11.434   5.770   1.117
  644W        W 4695   3.665   1.797   2.659
  645W        W 4696  10.500   0.744   0.930
  646W        W 4697   1.825  10.173  11.275
  647W        W 4698   4.141   5.693  11.840
  648W        W 4699  11.273   7.451  11.782
  649W        W 4700   8.564   0.552  10.217
  650W        W 4701   6.245   9.757   0.354
  651W        W 4702   1.777   7.304   0.248
  652W        W 4703   4.093   0.448   1.445
  653W        W 4704   5.199   1.666  11.735
  654W        W 4705   8.113   7.120   9.953
  655W        W 4706   8.421   1.177  10.857
  656W        W 4707   5.099   4.457  11.209
  657W        W 4708   7.135   7.146   1.113
  658W        W 4709   0.805   1.803   2.352
  659W        W 4710   7.965   0.320   0.258
  660W        W 4711   5.132  10.083   3.151
  661W        W 4712   0.721   8.885  11.090
  662W        W 4713   5.200   1.853   3.111
  663W        W 4714   2.622   5.221   3.648
  664W        W 4715   5.747   3.155   2.118
  665W        W 4716   3.609   4.848   0.627
  666W        W 4717   8.929   3.761   0.733
  667W        W 4718   7.584   9.190   3.103
  668W        W 4719   7.461   8.166   2.066
  669W        W 4720   1.295  11.380  11.025
  670W        W 4721   1.002   3.047   9.672
  671W        W 4722   9.046   0.259  11.477
  672W        W 4723   5.788   5.761  11.854
  673W        W 4724   4.956  10.230  10.045
  674W        W 4725   3.576   7.030   9.615
  675W        W 4726   6.575  11.080  10.964
  676W        W 4727   9.608   5.513   9.459
  677W        W 4728   2.101   4.193  10.573
  678W        W 4729   7.461   4.230   1.922
  679W        W 4730   0.894   7.620   9.365
  680W        W 4731   2.466  10.359  10.076
  681W        W 4732   7.097  10.545   8.712
  682W        W 4733   7.175  11.125   0.398
  683W        W 4734   0.814   3.364  10.049
  684W        W 4735   4.697   6.156   0.804
  685W        W 4736   3.649   2.370  11.803
  686W        W 4737   2.207   6.268   2.966
  687W        W 4738   8.327   5.266   2.827
  688W        W 4739   8.812   3.791   9.094
  689W        W 4740  10.626   4.876   3.569
  690W        W 4741   5.841  10.550   0.179
  691W        W 4742   2.339  11.335   9.066
  692W        W 4743   5.689   1.793   1.010
  693W        W 4744   8.138   8.265   2.254
  694W        W 4745   2.300   1.724  11.914
  695W        W 4746   1.378   5.197   2.632
  696W        W 4747   5.489   2.658   0.961
  697W        W 4748   3.123   9.470   9.177
  698W        W 4749   2.996   4.133   0.228
  699W        W 4750   4.723   7.242   0.530
  700W        W 4751   9.977   0.838   3.453
  701W        W 4752  10.603   5.173   2.301
  702W        W 4753   8.080   4.604   9.465
  703W        W 4754   1.730   2.287   2.350
  704W        W 4755   9.277   3.261  10.896
  705W        W 4756   7.124   0.933  11.303
  706W        W 4757   9.603   8.974   0.871
  707W        W 4758   4.352   9.938  10.664
  708W        W 4759  10.637   3.236   0.716
  709W        W 4760   4.903   1.280   1.219
  710W        W 4761   1.255   9.766   9.827
  711W        W 4762   6.546   9.974   9.628
  712W        W 4763   2.179   8.656   1.613
  713W        W 4764   1.861   8.561   9.995
  714W        W 4765   9.349   9.413   2.294
  715W        W 4766   2.767   2.180   0.259
  716W        W 4767   3.104   3.166   1.809
  717W        W 4768  10.075   9.626   3.074
  718W        W 4769   0.230   0.582   0.115
  719W        W 4770   4.146   9.523  10.957
  720W        W 4771   5.087   9.402  11.071
  721W        W 4772   9.198   6.580  10.869
  722W        W 4773   8.126  10.065   9.080
  723W        W 4774   7.924   0.352  10.970
  724W        W 4775   8.079   1.450   1.876
  725W        W 4776   1.129   7.979  11.596
  726W        W 4777   7.175   3.680   1.229
  727W        W 4778   0.514   7.694   1.466
  728W        W 4779  10.289   0.269   1.010
  729W        W 4780   6.324   1.723   2.331
  730W        W 4781   2.605   5.617   3.346
  731W        W 4782   3.556   8.388  11.294
  732W        W 4783   0.679  10.425   1.366
  733W        W 4784   3.646   7.918  11.527
  734W        W 4785   5.204   3.054  11.581
  735W        W 4786   6.496   2.804   3.470
  736W        W 4787   0.692   0.603   3.198
  737W        W 4788   7.028   8.427   1.906
  738W        W 4789   5.621   7.796   9.860
  739W        W 4790   5.872  10.532   2.106
  740W        W 4791   0.492  11.032   0.667
  741W        W 4792   8.287   6.361  10.998
  742W        W 4793  11.435   7.634   9.665
  743W        W 4794   1.535   7.932  10.900
  744W        W 4795   2.207   1.241   1.012
  745W        W 4796   5.672   5.541   2.720
  746W        W 4797  10.012   8.159   1.076
  747W        W 4798   3.258  10.805   0.854
  748W        W 4799  10.850   8.687   8.799
  749W        W 4800   6.683   3.203   8.927
  750W        W 4801   2.743   4.214  11.206
  751W        W 4802  10.326   5.603   1.903
  752W        W 4803  11.437   4.531   1.671
  753W        W 4804   5.008   2.043   9.546
  754W        W 4805   8.559   7.199  11.174
  755W        W 4806  10.898   4.680   1.687
  756W        W 4807   4.803   2.677  10.967
  757W        W 4808   0.945   9.020   9.199
  758W        W 4809   7.136   4.262   9.992
  759W        W 4810   9.018  11.496   9.538
  760W        W 4811  11.450   5.686  10.748
  761W        W 4812   5.707   1.116   1.826
  762W        W 4813   0.694   0.323  10.958
  763W        W 4814  10.858   7.021   1.697
  764W        W 4815  10.138   4.485   9.885
  765W        W 4816   6.673   9.104  11.659
  766W        W 4817   2.070   6.864   3.639
  767W        W 4818   7.600   0.732   2.045
  768W        W 4819  10.017   5.684  10.642
  769W        W 4820   2.611   1.799   1.734
  770W        W 4821   4.148   1.764   3.076
  771W        W 4822   6.785   5.151   0.443
  772W        W 4823   1.945   0.684   0.191
  773W        W 4824   8.544   8.930   2.724
  774W        W 4825   5.069   6.698  10.331
  775W        W 4826   6.969   1.054   3.602
  776W        W 4827   9.713   5.011   3.883
  777W        W 4828   6.269   5.689   1.292
  778W        W 4829   0.839   5.076   1.707
  779W        W 4830   7.803   4.646  10.742
  780W        W 4831   0.053   8.622   9.440
  781W        W 4832   5.942  10.109  10.491
  782W        W 4833   4.809   5.671   2.085
  783W        W 4834  10.857   0.904   1.311
  784W        W 4835   6.678   2.604   9.362
  785W        W 4836   6.036   2.154   2.245
  786W        W 4837  10.289   0.239  10.708
  787W        W 4838  10.512   5.636  10.492
  788W        W 4839   9.391   7.786   3.431
  789W        W 4840   2.832   8.517   2.751
  790W        W 4841   1.197   9.639   1.818
  791W        W 4842   5.807  10.064   0.369
  792W        W 4843   6.596   3.180  11.170
  793W        W 4844   7.470   7.637   1.257
  794W        W 4845   5.567   1.793   3.459
  795W        W 4846   6.369  10.599  11.192
  796W        W 4847   7.423   7.706   2.302
  797W        W 4848   7.555   6.731  11.424
  798W        W 4849  10.550   6.581  10.381
  799W        W 4850   8.540   9.885   8.772
  800W        W 4851   9.142   8.928  11.160
  801W        W 4852  11.465   5.590   1.866
  802W        W 4853   0.874  10.072   0.377
  803W        W 4854   2.722   6.609  10.939
  804W        W 4855  10.343   5.074   3.151
  805W        W 4856   9.985   1.705  10.271
  806W        W 4857   6.431   3.783   9.600
  807W        W 4858   1.356   5.480   3.198
  808W        W 4859   0.072  11.353  10.686
  809W        W 4860   9.534   0.227   0.546
  810W        W 4861   5.072   0.463   0.792
  811W        W 4862   3.657   2.341   1.206
  812W        W 4863   9.984   0.248   0.275
  813W        W 4864   4.576   2.188   0.973
  814W        W 4865   2.549   8.325   0.805
  815W        W 4866   0.584   9.207   0.791
  816W        W 4867   5.919   7.824  11.974
  817W        W 4868   6.487   5.100   1.871
  818W        W 4869   4.767   8.322   1.558
  819W        W 4870   3.194   1.405   2.038
  820W        W 4871  10.425   0.600   9.402
  821W        W 4872   3.855   0.382   9.683
  822W        W 4873   6.324   7.211   9.488
  823W        W 4874   2.224   5.251   9.489
  824W        W 4875   5.451   0.797   9.861
  825W        W 4876   0.899   8.359   3.495
  826W        W 4877   5.639   9.943  11.842
  827W        W 4878   2.245   3.377   2.753
  828W        W 4879  11.382   7.025  10.521
  829W        W 4880   2.710   4.491   0.944
  830W        W 4881   1.435   9.908   9.371
  831W        W 4882   7.050   4.827   0.750
  832W        W 4883   1.831   8.141   1.379
  833W        W 4884   7.851   4.192   8.690
  834W        W 4885  10.911   2.112   2.275
  835W        W 4886  11.292   9.929   0.758
  836W        W 4887   1.151   0.564   2.890
  837W        W 4888   7.774  10.643   0.781
  838W        W 4889   0.718   8.887   2.832
  839W        W 4890  10.029   5.666   0.974
  840W        W 4891   8.043  10.745   1.221
  841W        W 4892   6.292   9.178   3.150
  842W        W 4893   1.519   6.243   9.880
  843W        W 4894   6.435   0.297  11.662
  844W        W 4895   0.953   8.409   9.856
  845W        W 4896   6.692   9.416   1.068
  846W        W 4897  10.860   2.178   1.764
  847W        W 4898   4.217  10.784   2.448
  848W        W 4899   2.681   3.700   2.043
  849W        W 4900   7.872   0.357   2.715
  850W        W 4901   6.531   8.120  11.349
  851W        W 4902   0.665   2.149   1.722
  852W        W 4903   0.788   0.806   0.753
  853W        W 4904   1.303   3.132  11.564
  854W        W 4905  11.317   4.124   3.522
  855W        W 4906   2.368   2.448   0.444
  856W        W 4907   8.365   7.497   2.288
  857W        W 4908   1.197   9.402   9.462
  858W        W 4909   4.265  11.279  11.365
  859W        W 4910   1.750   5.073   1.671
  860W        W 4911   3.824   9.265   0.439
  861W        W 4912   3.501  11.386  11.967
  862W        W 4913   7.499   5.009   0.926
  863W        W 4914   2.545   4.646  11.773
  864W        W 4915   7.734   1.441   0.562
  865W        W 4916   7.901   1.931   0.710
  866W        W 4917   0.947   2.716   8.454
  867W        W 4918   3.175   7.502   1.092
  868W        W 4919   2.706   4.092   1.255
  869W        W 4920   6.983   0.327   2.760
  870W        W 4921   2.532   8.051   8.179
  871W        W 4922   4.915   2.864   4.023
  872W        W 4923   4.282   3.364  11.492
  873W        W 4924   2.265   3.811   1.340
  874W        W 4925  11.134   7.729   0.728
  875W        W 4926   1.013   8.923   0.427
  876W        W 4927   8.461   1.781   3.190
  877W        W 4928   1.347  10.036  11.738
  878W        W 4929   9.920   8.981   9.386
  879W        W 4930   0.349   2.725   0.053
  880W        W 4931   9.862   7.431   8.554
  881W        W 4932   3.959   2.185   2.814
  882W        W 4933   6.953   5.845  10.356
  883W        W 4934   4.226   2.212   3.319
  884W        W 4935   4.265   0.882   2.242
  885W        W 4936   7.752  10.156   0.587
  886W        W 4937   0.489   6.270   1.663
  887W        W 4938   0.295   1.894  10.293
  888W        W 4939  11.445   4.680  10.561
  889W        W 4940   3.605   0.495   2.740
  890W        W 4941   5.714   1.323   0.781
  891W        W 4942   1.126  10.449   9.508
  892W        W 4943  10.925  10.410   9.292
  893W        W 4944   6.275  10.238   0.207
  894W        W 4945   4.530  11.153   9.196
  895W        W 4946   4.215   4.710   2.807
  896W        W 4947   6.638   9.490  10.477
  897W        W 4948  11.306   7.696   9.163
  898W        W 4949  10.320   9.578  10.521
  899W        W 4950   3.902   6.167  10.657
  900W        W 4951   4.105   4.132   9.283
  901W        W 4952   1.686   9.515   8.608
  902W        W 4953   1.331   8.662   1.056
  903W        W 4954   0.864   6.344   2.930
  904W        W 4955   3.606  11.438   9.544
  905W        W 4956   4.807   8.407   2.860
  906W        W 4957   8.324  10.220   2.838
  907W        W 4958   5.588  10.581   2.953
  908W        W 4959   7.587   8.451  10.359
  909W        W 4960   0.157   1.489  11.904
  910W        W 4961   5.998   3.167   0.097
  911W        W 4962   0.639   7.073   9.477
  912W        W 4963   3.416   8.898   1.962
  913W        W 4964  11.274   8.020   3.065
  914W        W 4965   1.717   7.353   2.925
  915W        W 4966   3.059   5.291   8.242
  916W        W 4967   8.149   2.797  11.292
  917W        W 4968   9.287   0.475   2.766
  918W        W 4969   8.627   1.074   2.628
  919W        W 4970   9.386   2.151   0.343
  920W        W 4971  10.962  10.577   0.766
  921W        W 4972   2.270   9.100   9.990
  922W        W 4973   6.594   1.950   1.468
  923W        W 4974   5.610   1.965   2.019
  924W        W 4975   4.292   0.727  11.378
  925W        W 4976   6.127   3.825   0.389
  926W        W 4977   4.746   6.281  10.321
  927W        W 4978   0.307   2.259  10.891
  928W        W 4979   8.008   7.971   1.359
  929W        W 4980   6.590  10.447  10.751
  930W        W 4981   2.134   4.313   0.509
  931W        W 4982   3.174   5.531  10.508
  932W        W 4983   4.488   8.842   9.336
  933W        W 4984  10.377   2.411  10.917
  934W        W 4985   9.673   4.135   1.837
  935W        W 4986   1.503   6.365   3.507
  936W        W 4987   5.119   2.006   3.626
  937W        W 4988   3.304  10.212   2.671
  938W        W 4989   8.558   3.339   3.110
  939W        W 4990   6.138   1.390   2.691
  940W        W 4991  11.023   3.630   1.407
  941W        W 4992   8.559   6.153   9.170
  942W        W 4993  11.112   8.068   3.544
  943W        W 4994   8.043  11.458   8.932
  944W        W 4995   5.946  10.409   2.614
  945W        W 4996   3.585   6.401   2.712
  946W        W 4997   3.631   3.756   3.032
  947W        W 4998   9.402  10.515  10.284
  948W        W 4999   0.427   7.006   2.557
  949W        W 5000   2.090   9.943   2.858
  950W        W 5001   9.779   3.280  11.885
  951W        W 5002   7.606   2.230  10.913
  952W        W 5003   9.010  11.054   0.427
  953W        W 5004   9.301   5.096   1.454
  954W        W 5005   6.735   8.929   9.207
  955W        W 5006   8.302   9.133  11.757
  956W        W 5007   5.751   3.761   1.613
  957W        W 5008   1.343   3.856   2.769
  958W        W 5009   5.242   8.037   9.657
  959W        W 5010   0.989   1.718   1.467
  960W        W 5011   0.316   9.506   1.486
  961W        W 5012  10.397   3.189   2.212
  962W        W 5013   2.628  10.921   8.950
  963W        W 5014   5.770   7.195  11.278
  964W        W 5015   1.414   0.417   3.419
  965W        W 5016   8.604   5.903  10.972
  966W        W 5017   5.169   4.632  11.748
  967W        W 5018   1.004   0.644   1.735
  968W        W 5019   5.586   7.547  10.953
  969W        W 5020   2.103   5.969  10.940
  970W        W 5021   9.495   5.216   3.429
  971W        W 5022   3.760   8.027   8.914
  972W        W 5023   4.153   7.658   9.039
  973W        W 5024   7.138   2.310   3.015
  974W        W 5025   8.742   4.953  10.773
  975W        W 5026   0.808   0.186   1.830
  976W        W 5027   4.378   1.308   1.376
  977W        W 5028   6.992   2.757   8.991
  978W        W 5029   7.638   3.852   3.275
  979W        W 5030   0.007   4.261   0.145
  980W        W 5031   2.650   8.539   1.737
  981W        W 5032  10.876  10.363   0.309
  982W        W 5033   3.138   2.908   9.160
  983W        W 5034   1.393   2.763  10.994
  984W        W 5035   3.271   9.852   8.856
  985W        W 5036   5.053   5.865  11.363
  986W        W 5037   5.107   9.583   8.082
  987W        W 5038  10.940   8.121   2.686
  988W        W 5039   6.451   9.116   1.841
  989W        W 5040   5.668  10.123   8.494
  990W        W 5041   7.050   8.393   9.060
  991W        W 5042   6.002   5.535   9.662
  992W        W 5043   8.883   5.518  10.575
  993W        W 5044   7.445   3.617   0.766
  994W        W 5045   6.284   2.699   2.875
  995W        W 5046   8.095   5.527   0.693
  996W        W 5047   1.430   6.249   8.993
  997W        W 5048   6.678   0.065  10.845
  998W        W 5049   8.073   6.439   0.294
  999W        W 5050  10.564   4.491   9.613
 1000W        W 5051   9.590   3.567   2.672
 1001W        W 5052   4.170   2.829  10.035
 1002W        W 5053   0.340   4.531   9.805
 1003W        W 5054   9.998   9.079  11.522
 1004W        W 5055   2.638   6.587   2.908
 1005W        W 5056   3.308  10.515   3.167
 1006W        W 5057   9.920   1.716   3.471
 1007W        W 5058   9.421   5.558  11.755
 1008W        W 5059   7.948   9.971   3.303
 1009W        W 5060   1.232   4.549   9.854
 1010W        W 5061   9.004   9.354  11.457
 1011W        W 5062   3.603   0.411   0.041
 1012W        W 5063   3.065   3.088   8.399
 1013W        W 5064   0.248   9.124   0.067
 1014W        W 5065   8.159   8.943   0.573
 1015W        W 5066   9.723   6.692   0.496
 1016W        W 5067   9.333   9.393   9.943
 1017W        W 5068   5.230   1.950   0.718
 1018W        W 5069   3.136   2.385   2.174
 1019W        W 5070   9.317   5.914   1.941
 1020W        W 5071   0.937   1.533  11.099
 1021W        W 5072   2.882   1.628  10.497
 1022W        W 5073   3.779   0.280   9.181
 1023W        W 5074   0.411   6.458   3.296
 1024W        W 5075   1.849   3.623   9.398
 1025W        W 5076   9.952  10.017   3.368
 1026W        W 5077   5.953   0.497   9.280
 1027W        W 5078  11.370   7.027   1.705
 1028W        W 5079   7.677   2.612  11.949
 1029W        W 5080   8.416   0.254   0.491
 1030W        W 5081   5.767  10.890   9.194
 1031W        W 5082   8.427   8.104   9.096
 1032W        W 5083   0.303   5.142   3.002
 1033W        W 5084   4.818   8.906   0.916
 1034W        W 5085   0.526   3.997  11.892
 1035W        W 5086   0.409   6.279   9.761
 1036W        W 5087   8.741   1.455  11.770
 1037W        W 5088  11.246  11.198  10.307
 1038W        W 5089   2.631   8.153   2.112
 1039W        W 5090   3.622   8.411   9.736
 1040W        W 5091   7.872   6.950   2.580
 1041W        W 5092   9.555   2.401  11.110
 1042W        W 5093   6.927   0.811   1.288
 1043W        W 5094   6.270   6.395   8.575
 1044W        W 5095   2.180   8.322  10.714
 1045W        W 5096   0.932   1.361   9.111
 1046W        W 5097   2.069   6.841   9.531
 1047W        W 5098   9.748  10.279   9.012
 1048W        W 5099  11.065   7.722  10.497
 1049W        W 5100   1.180   1.992   0.716
 1050W        W 5101   8.573   9.936   1.142
 1051W        W 5102   6.034   8.178   3.041
 1052W        W 5103  11.041   9.837   0.329
 1053W        W 5104   4.814   9.785   2.629
 1054W        W 5105   6.132   1.374   1.146
 1055W        W 5106   1.763  11.239  11.095
 1056W        W 5107   9.421   6.651   0.092
 1057W        W 5108   8.277   0.285   3.045
 1058W        W 5109   2.438   0.704   0.301
 1059W        W 5110   2.584   6.122  11.034
 1060W        W 5111   3.768   0.066   0.387
 1061W        W 5112   7.993   8.973   1.578
 1062W        W 5113   6.635   8.908   0.340
 1063W        W 5114   0.899   3.423  11.446
 1064W        W 5115   0.852   6.784  10.902
 1065W        W 5116   8.185   6.682   1.760
 1066W        W 5117   2.445   4.843   1.184
 1067W        W 5118   9.402   2.421  10.634
 1068W        W 5119   5.134   2.655   1.338
 1069W        W 5120   0.894   3.653  10.892
 1070W        W 5121   7.570   7.224   0.298
 1071W        W 5122  10.144   7.918   0.666
 1072W        W 5123   6.712   9.325   9.983
 1073W        W 5124   9.870  10.123   1.829
 1074W        W 5125   2.196   4.682   0.158
 1075W        W 5126   2.220   7.956   2.370
 1076W        W 5127  11.175   6.485  11.254
 1077W        W 5128  10.906   9.980  10.068
 1078W        W 5129   1.601   2.364   1.462
 1079W        W 5130   6.492   1.711   1.005
 1080W        W 5131   1.928   1.341   9.406
 1081W        W 5132  11.382   7.272   0.805
 1082W        W 5133   9.885  10.892   9.927
 1083W        W 5134   1.176   9.568   0.880
 1084W        W 5135   0.734   2.338  11.309
 1085W        W 5136   9.516  10.368   0.029
 1086W        W 5137   9.334   7.626   1.007
 1087W        W 5138  10.873   7.193   3.072
 1088W        W 5139   6.606   1.448   1.456
 1089W        W 5140   5.519   6.699   1.821
 1090W        W 5141   9.433   1.910  11.072
 1091W        W 5142   9.284   1.437  11.825
 1092W        W 5143   4.695   7.758   2.944
 1093W        W 5144   6.553   3.730  10.908
 1094W        W 5145   5.141   8.040   3.020
 1095W        W 5146   9.526   8.867  10.793
 1096W        W 5147   9.475   1.654   1.519
 1097W        W 5148   2.904   9.468   2.173
 1098W        W 5149  11.300   5.114   2.888
 1099W        W 5150   7.613   9.322  10.495
 1100W        W 5151   2.873   0.943  11.424
 1101W        W 5152   2.210   4.383   9.826
 1102W        W 5153   3.768   7.978  11.028
 1103W        W 5154   5.148   6.659  10.852
 1104W        W 5155   9.746   7.017   0.937
 1105W        W 5156   0.177   2.818   8.999
 1106W        W 5157   3.734  10.343   2.909
 1107W        W 5158   3.204  11.363  10.629
 1108W        W 5159  10.981  10.826   2.542
 1109W        W 5160  10.836   6.333   2.755
 1110W        W 5161  11.128  11.113  11.519
 1111W        W 5162   0.384   6.015  10.762
 1112W        W 5163   8.191   2.823   1.271
 1113W        W 5164   7.498   2.654   9.038
 1114W        W 5165   7.043   7.054   2.068
 1115W        W 5166   0.314   9.029   3.103
 1116W        W 5167   9.859   1.795   1.192
 1117W        W 5168   2.913   5.480   0.730
 1118W        W 5169   7.953   8.361  11.336
 1119W        W 5170   7.903   0.687   3.116
 1120W        W 5171   8.982   8.653   2.746
 1121W        W 5172   2.076   0.907   0.633
 1122W        W 5173   8.011   3.847  10.098
 1123W        W 5174   9.367   7.417   9.840
 1124W        W 5175   0.854   0.486   8.846
 1125W        W 5176   4.762   4.360   2.938
 1126W        W 5177   7.036   5.029  11.334
 1127W        W 5178  11.016   4.086   0.609
 1128W        W 5179   4.382   1.344   2.813
 1129W        W 5180   2.492   4.211  10.213
 1130W        W 5181   6.426   2.738   1.664
 1131W        W 5182   3.322   0.452   9.438
 1132W        W 5183   7.028   2.977   9.837
 1133W        W 5184   5.176   4.037   8.374
 1134W        W 5185   0.066   2.869  11.255
 1135W        W 5186   6.823  10.747   0.575
 1136W        W 5187   2.698  10.809   9.921
 1137W        W 5188   4.560   2.208  11.946
 1138W        W 5189   7.095   6.512  11.420
 1139W        W 5190  10.265   4.054  10.433
 1140W        W 5191   7.890   5.019   1.469
 1141W        W 5192   6.358   3.291   3.246
 1142W        W 5193   4.314   4.223   2.642
 1143W        W 5194  11.346   7.500   3.179
 1144W        W 5195   1.249   6.670   9.757
 1145W        W 5196   9.447   4.048   2.830
 1146W        W 5197   4.734   4.105   8.648
 1147W        W 5198  10.030   8.620   1.940
 1148W        W 5199   0.899   7.715  10.659
 1149W        W 5200   8.979   5.628   0.972
 1150W        W 5201   0.935   0.228  10.217
 1151W        W 5202   1.284  10.204   2.711
 1152W        W 5203  10.111   3.061  10.530
 1153W        W 5204  11.000   1.161   0.583
 1154W        W 5205   4.607   2.239   2.380
 1155W        W 5206   7.346   1.478   9.078
 1156W        W 5207   3.813   0.393  10.196
 1157W        W 5208   2.477   1.780   8.816
 1158W        W 5209   6.692  10.902   8.735
 1159W        W 5210   3.829   4.621  11.358
 1160W        W 5211   6.201   2.971  10.320
 1161W        W 5212   3.039   5.543   8.826
 1162W        W 5213   0.281   3.154  10.840
 1163W        W 5214   2.445   4.629  11.271
 1164W        W 5215   0.123   1.781   8.886
 1165W        W 5216   4.236   5.028   9.549
 1166W        W 5217  10.054   1.756   2.610
 1167W        W 5218   9.080   4.284   2.560
 1168W        W 5219  11.272   3.115  10.880
 1169W        W 5220   8.364   1.753   0.860
 1170W        W 5221   1.271   8.461  11.545
 1171W        W 5222   6.935   6.226   9.156
 1172W        W 5223  11.393   3.187   1.350
 1173W        W 5224  10.665   1.854   3.932
 1174W        W 5225   1.187  10.275  10.427
 1175W        W 5226   9.100   9.046   1.979
 1176W        W 5227   8.969   1.888  11.921
 1177W        W 5228   4.290   9.930   2.760
 1178W        W 5229   8.955   6.920   1.193
 1179W        W 5230   6.868   3.100   9.382
 1180W        W 5231   6.218   8.528  11.277
 1181W        W 5232   9.416   3.541   3.154
 1182W        W 5233   8.553   2.073   1.283
 1183W        W 5234   8.511   8.022   2.756
 1184W        W 5235   9.884   9.307  10.655
 1185W        W 5236   7.485   2.782   2.345
 1186W        W 5237   8.963   7.130  10.862
 1187W        W 5238  10.813   9.797   1.884
 1188W        W 5239   4.714   9.488   8.483
 1189W        W 5240   8.150   1.807   2.260
 1190W        W 5241   8.014   6.434  11.442
 1191W        W 5242   7.585   5.314  10.613
 1192W        W 5243   7.042   9.063  11.998
 1193W        W 5244   7.115  10.991   9.040
 1194W        W 5245   8.868   4.567   8.644
 1195W        W 5246   4.235   2.593   2.914
 1196W        W 5247   5.669   3.849   0.710
 1197W        W 5248   1.255   6.536  11.269
 1198W        W 5249   8.484   8.964   3.212
 1199W        W 5250   4.150   0.457   8.845
 1200W        W 5251   8.723  10.901   0.954
 1201W        W 5252   6.557   8.445   9.703
 1202W        W 5253   2.319   8.647  10.339
 1203W        W 5254   0.495   1.103  11.803
 1204W        W 5255   0.426   4.370   1.729
 1205W        W 5256   0.423   0.455   2.076
 1206W        W 5257  11.293  10.787   0.406
 1207W        W 5258  10.522   4.801  10.019
 1208W        W 5259   1.829   1.748  10.107
 1209W        W 5260   6.474   4.746   0.389
 1210W        W 5261   1.273   5.013   3.366
 1211W        W 5262  10.329   6.280  11.239
 1212W        W 5263   6.128   9.638  10.567
 1213W        W 5264  10.933   7.867   1.776
 1214W        W 5265   3.295   8.325   8.929
 1215W        W 5266   2.280   6.178   9.312
 1216W        W 5267   9.867   5.452   8.711
 1217W        W 5268  10.415   2.141   9.586
 1218W        W 5269   1.853   0.223   2.697
 1219W        W 5270   3.374   1.282   8.788
 1220W        W 5271   7.190   7.291  10.075
 1221W        W 5272   8.580  10.784   0.471
 1222W        W 5273   6.415   8.003   9.020
 1223W        W 5274   6.612   5.422   0.060
 1224W        W 5275   7.462   1.541   2.377
 1225W        W 5276   6.728   9.517   3.212
 1226W        W 5277   3.471   8.634  11.763
 1227W        W 5278   5.887   2.952   0.836
 1228W        W 5279  10.886   5.543  10.064
 1229W        W 5280   2.416   1.789  11.396
 1230W        W 5281   7.208  10.633   0.221
 1231W        W 5282   0.023  10.892   0.883
 1232W        W 5283   3.311   7.474   2.063
 1233W        W 5284   8.902   7.575  11.101
 1234W        W 5285   6.244  10.041  10.932
 1235W        W 5286   3.736  10.927  10.013
 1236W        W 5287  10.090   9.100   1.786
 1237W        W 5288   3.790   7.031   0.514
 1238W        W 5289   9.406   7.162   1.857
 1239W        W 5290   3.618   9.361   9.271
 1240W        W 5291   3.837   9.864   1.206
 1241W        W 5292   1.318   5.320   9.461
 1242W        W 5293  11.334   8.574   8.973
 1243W        W 5294   8.263   6.362   8.796
 1244W        W 5295   6.902  11.428   3.276
 1245W        W 5296   2.384   1.331   9.141
 1246W        W 5297   6.365   9.176  11.270
 1247W        W 5298   3.121   1.846   9.526
 1248W        W 5299   6.565   2.467  11.905
 1249W        W 5300   3.711   9.809   2.046
 1250W        W 5301   6.179  11.065  11.291
 1251W        W 5302   7.165   7.059   0.558
 1252W        W 5303   2.326   9.921   1.784
 1253W        W 5304   8.505   9.414  11.059
 1254W        W 5305   5.517   5.645   9.560
 1255W        W 5306   7.651   7.994  10.139
 1256W        W 5307   1.143   0.349  11.214
 1257W        W 5308   1.328   8.123   1.932
 1258W        W 5309   7.544  10.864  11.443
 1259W        W 5310   1.675   4.548   9.562
 1260W        W 5311   8.854   1.648   2.857
 1261W        W 5312   5.134   8.619   0.339
 1262W        W 5313   5.631  10.022   1.435
 1263W        W 5314   9.842  10.273  10.332
 1264W        W 5315   9.039   3.702   8.649
 1265W        W 5316   5.644   8.632   0.462
 1266W        W 5317   2.028  11.303  11.921
 1267W        W 5318   7.442   4.001  11.934
 1268W        W 5319   4.579   6.752   2.919
 1269W        W 5320   5.335   5.065   2.595
 1270W        W 5321   9.491   2.997   2.469
 1271W        W 5322   9.157   1.242  10.039
 1272W        W 5323   0.643   0.545  10.501
 1273W        W 5324   4.535  10.373   8.533
 1274W        W 5325   1.237   3.552   9.856
 1275W        W 5326   0.751   0.067  11.409
 1276W        W 5327   0.641   7.157   1.287
 1277W        W 5328  10.436  10.829  11.010
 1278W        W 5329   1.870   5.031   2.611
 1279W        W 5330   1.472   9.754   1.275
 1280W        W 5331   3.655   2.332   0.697
 1281W        W 5332   6.708   6.840   2.375
 1282W        W 5333   8.443   7.096   0.324
 1283W        W 5334   5.281   3.306   2.233
 1284W        W 5335   0.255   2.293   9.125
 1285W        W 5336   1.756   6.886   2.722
 1286W        W 5337   5.273   0.159   0.402
 1287W        W 5338   0.060  10.301   2.334
 1288W        W 5339   6.744  10.005  11.004
 1289W        W 5340   6.008   8.507  11.770
 1290W        W 5341   8.044   7.243  11.122
 1291W        W 5342   9.824   9.410   0.683
 1292W        W 5343   2.408  11.332   0.274
 1293W        W 5344   2.364   9.429   0.416
 1294W        W 5345   8.508   5.636   3.592
 1295W        W 5346   4.246   3.557   0.915
 1296W        W 5347   6.969   2.364  11.000
 1297W        W 5348   8.435   3.261   9.489
 1298W        W 5349   9.185  10.104   0.407
 1299W        W 5350  10.185   8.603  11.582
 1300W        W 5351  11.418   8.626   9.922
 1301W        W 5352   6.524   0.642   0.055
 1302W        W 5353   6.143  10.986   3.388
 1303W        W 5354   0.150   7.194   9.818
 1304W        W 5355   2.878   7.590   2.953
 1305W        W 5356   0.420   9.016   1.736
 1306W        W 5357  10.524   8.496  11.963
 1307W        W 5358   7.212   5.669   1.091
 1308W        W 5359   3.382   5.286   9.155
 1309W        W 5360   9.898   8.153   2.815
 1310W        W 5361   2.915   5.474   1.744
 1311W        W 5362   2.425   3.303   1.204
 1312W        W 5363   3.877   1.281   8.622
 1313W        W 5364   8.701   6.671  10.838
 1314W        W 5365  10.421   1.498  10.440
 1315W        W 5366   7.131   6.503   3.138
 1316W        W 5367  11.474   6.133   0.005
 1317W        W 5368   0.164   1.081   0.238
 1318W        W 5369  11.447   3.385  10.456
 1319W        W 5370   8.867   3.217   8.596
 1320W        W 5371   0.074   6.093   1.922
 1321W        W 5372   5.983   4.089   9.465
 1322W        W 5373   9.870   3.686   0.609
 1323W        W 5374   4.620   8.576   0.439
 1324W        W 5375  10.825   3.462   2.373
 1325W        W 5376   0.478  10.008   2.211
 1326W        W 5377   5.046  11.454   0.840
 1327W        W 5378   7.274   6.197  10.614
 1328W        W 5379   3.777  11.135  11.420
 1329W        W 5380   2.662   9.296  11.958
 1330W        W 5381  10.626   7.860   0.523
 1331W        W 5382   1.707   4.867  11.043
 1332W        W 5383   6.886  11.379   9.484
 1333W        W 5384   1.872   8.838   0.290
 1334W        W 5385   8.555   2.339   2.342
 1335W        W 5386   3.673   2.851   0.724
 1336W        W 5387  10.658  11.406   0.673
 1337W        W 5388   2.841   4.190   2.649
 1338W        W 5389   3.151   0.327   1.542
 1339W        W 5390   0.267   5.520   9.815
 1340W        W 5391   6.302  10.448  10.315
 1341W        W 5392   4.923   0.634   1.669
 1342W        W 5393   0.259   3.123   0.388
 1343W        W 5394   2.959   0.136  10.170
 1344W        W 5395   0.493   3.094  11.434
 1345W        W 5396   1.976   8.110  11.892
 1346W        W 5397   4.575   7.579  11.531
 1347W        W 5398   7.329   0.535   8.912
 1348W        W 5399   6.577   7.887   2.332
 1349W        W 5400   7.550   2.296   0.778
 1350W        W 5401   3.747   5.184   0.251
 1351W        W 5402   3.709   4.488   1.907
 1352W        W 5403   8.147   4.637   8.672
 1353W        W 5404   7.851   8.456  11.921
 1354W        W 5405   5.507   8.958   8.621
 1355W        W 5406   0.887   9.266   3.151
 1356W        W 5407   2.804   2.112  10.369
 1357W        W 5408   0.469   1.297   2.604
 1358W        W 5409   5.352  11.369   1.747
 1359W        W 5410  10.280   9.466  11.316
 1360W        W 5411  10.728  10.411   1.317
 1361W        W 5412   2.779   2.396   0.777
 1362W        W 5413   8.037   6.007   4.129
 1363W        W 5414   2.314  10.888  11.794
 1364W        W 5415   6.986   1.518   0.715
 1365W        W 5416   0.037   9.961   8.844
 1366W        W 5417   0.501   3.065   9.772
 1367W        W 5418  10.641   3.912   0.287
 1368W        W 5419   2.812   3.772   9.457
 1369W        W 5420   4.590   9.483  10.695
 1370W        W 5421   5.697   1.704   2.929
 1371W        W 5422   3.360   1.450   2.900
 1372W        W 5423   5.224   9.392   8.561
 1373W        W 5424   0.218   0.337  10.762
 1374W        W 5425  10.869  10.116  11.305
 1375W        W 5426   4.641  10.059   2.219
 1376W        W 5427   4.946   0.778   9.773
 1377W        W 5428   4.061   4.613   3.551
 1378W        W 5429  10.546   7.227  11.556
 1379W        W 5430   6.787   3.642   9.200
 1380W        W 5431   4.509   4.448   9.561
 1381W        W 5432   3.837   0.427  11.582
 1382W        W 5433  10.885   4.187   1.141
 1383W        W 5434   5.150   9.844   3.624
 1384W        W 5435   4.355   1.421   9.954
 1385W        W 5436   7.442   0.800   3.420
 1386W        W 5437   9.022   0.786   2.466
 1387W        W 5438   8.538   7.593   9.260
 1388W        W 5439   3.690   2.648   9.274
 1389W        W 5440   8.544   7.517   2.778
 1390W        W 5441   9.020   4.609   1.301
 1391W        W 5442   8.604   2.577   0.532
 1392W        W 5443   6.065   3.321   1.145
 1393W        W 5444   2.702   8.001   2.626
 1394W        W 5445   3.197  10.302   0.100
 1395W        W 5446  10.601   9.838  10.907
 1396W        W 5447   7.603   4.377   1.452
 1397W        W 5448   2.384   7.857  10.713
 1398W        W 5449   8.648   6.352  11.733
 1399W        W 5450   8.971   9.626  11.010
 1400W        W 5451   5.764   0.375   0.507
 1401W        W 5452   6.076   8.106   8.608
 1402W        W 5453   6.057   7.274   3.989
 1403W        W 5454   4.082  10.954   9.058
 1404W        W 5455   0.859   3.930  11.323
 1405W        W 5456   4.331   8.844   0.767
 1406W        W 5457   2.797   2.476  11.842
 1407W        W 5458   7.779   6.653   9.984
 1408W        W 5459   9.558   2.894   9.475
 1409W        W 5460  10.101   9.000   9.862
 1410W        W 5461   3.675   0.795   8.953
 1411W        W 5462   4.730   9.062  11.466
 1412W        W 5463   8.792  10.877   2.369
 1413W        W 5464   3.883   5.270  10.574
 1414W        W 5465   6.678   3.770   0.270
 1415W        W 5466   8.035   9.623   9.875
 1416W        W 5467   9.094   5.732   2.790
 1417W        W 5468   7.662   4.157  11.042
 1418W        W 5469  10.718   9.803  11.765
 1419W        W 5470   3.138   9.084  10.151
 1420W        W 5471   5.821   5.198  11.606
 1421W        W 5472   3.388   6.069  10.680
 1422W        W 5473   6.502   6.673   1.661
 1423W        W 5474   9.546   6.149  10.812
 1424W        W 5475   6.936  10.868  10.662
 1425W        W 5476   8.144   8.987   1.083
 1426W        W 5477   3.328   8.068  10.225
 1427W        W 5478   4.241   2.320  10.441
 1428W        W 5479  10.831   2.760   9.191
 1429W        W 5480   0.487  10.963   1.180
 1430W        W 5481   0.986  11.358   1.412
 1431W        W 5482   8.903   7.331   9.533
 1432W        W 5483   2.186   3.430   1.874
 1433W        W 5484   9.181   7.087  11.941
 1434W        W 5485   2.897   7.869  11.933
 1435W        W 5486   2.373   0.563   1.986
 1436W        W 5487   1.181   9.702   2.763
 1437W        W 5488   8.851   0.745  11.470
 1438W        W 5489   2.918   3.049   3.176
 1439W        W 5490   4.275   2.811   0.355
 1440W        W 5491   4.637   4.259   9.118
 1441W        W 5492   4.733   2.966   1.418
 1442W        W 5493   5.219   5.604  10.954
 1443W        W 5494   5.725  11.074   3.055
 1444W        W 5495  11.068   6.063   9.919
 1445W        W 5496   1.255   4.814   9.408
 1446W        W 5497   2.332   4.352   8.441
 1447W        W 5498   2.398   2.694  11.570
 1448W        W 5499   5.793   7.120  10.421
 1449W        W 5500   1.272   1.107  11.122
 1450W        W 5501   8.726   4.272   9.203
 1451W        W 5502   7.399   5.205   1.847
 1452W        W 5503   5.139   1.695  11.252
 1453W        W 5504   6.603   6.127  10.038
 1454W        W 5505   6.597   4.512   2.515
 1455W        W 5506   1.186   5.661   1.322
 1456W        W 5507  10.276   0.644   0.107
 1457W        W 5508   3.076   8.892   2.381
 1458W        W 5509   3.413  10.766  10.871
 1459W        W 5510   8.098   4.086   3.155
 1460W        W 5511   3.180   3.588   2.739
 1461W        W 5512   4.712  10.938   9.689
 1462W        W 5513   9.843   0.301  10.410
 1463W        W 5514   5.690   3.399   8.946
 1464W        W 5515   9.087   4.592  10.955
 1465W        W 5516  10.715   1.824   0.863
 1466W        W 5517   5.180   3.738   1.365
 1467W        W 5518   9.100   4.173   8.878
 1468W        W 5519   9.749   5.292   1.236
 1469W        W 5520   9.937   8.150   0.276
 1470W        W 5521  10.389  10.963   3.264
 1471W        W 5522  10.088   2.358   2.944
 1472W        W 5523   1.271   2.410   1.063
 1473W        W 5524   7.085   0.297   1.310
 1474W        W 5525   2.168   2.086  10.987
 1475W        W 5526   7.374   7.199   2.437
 1476W        W 5527   0.006   9.561   2.766
 1477W        W 5528   9.137   6.595   9.108
 1478W        W 5529   3.142   8.940   9.152
 1479W        W 5530   4.110   9.547  10.426
 1480W        W 5531   1.908   2.214   0.444
 1481W        W 5532   4.818  10.573   1.287
 1482W        W 5533   6.220   6.224   3.022
 1483W        W 5534   3.715   5.397  11.779
 1484W        W 5535   0.143   8.896   2.144
 1485W        W 5536   6.078   6.189  11.948
 1486W        W 5537   0.902   6.447   1.915
 1487W        W 5538   5.187   3.633  10.995
 1488W        W 5539   9.278   6.303  11.290
 1489W        W 5540   8.948   3.268  10.487
 1490W        W 5541   4.575   0.259  11.974
 1491W        W 5542   1.759   9.192  11.349
 1492W        W 5543   9.653   0.589   9.449
 1493W        W 5544   9.767   0.790  11.419
 1494W        W 5545  10.399  11.324   1.893
 1495W        W 5546  10.820   1.315  11.091
 1496W        W 5547   3.721   3.362  10.932
 1497W        W 5548   0.431   3.886   2.320
 1498W        W 5549   4.594   0.752   0.781
 1499W        W 5550   9.036   8.097  10.177
 1500W        W 5551  10.780   0.292   1.012
 1501W        W 5552  10.151  10.417   9.962
 1502W        W 5553   8.546  11.245   0.181
 1503W        W 5554   1.011  10.528   2.435
 1504W        W 5555   5.143  11.498   2.725
 1505W        W 5556   5.457   4.038   3.599
 1506W        W 5557   1.986   9.890   9.388
 1507W        W 5558   4.952   1.233   2.629
 1508W        W 5559   6.638   2.671  10.389
 1509W        W 5560   5.175   3.978   4.018
 1510W        W 5561   9.125   6.342   8.672
 1511W        W 5562   8.910   7.416   1.220
 1512W        W 5563  10.589   4.301  10.110
 1513W        W 5564   2.182   9.133  11.997
 1514W        W 5565   8.101   5.005   4.059
 1515W        W 5566   7.625   7.138   1.251
 1516W        W 5567   1.665   6.931   3.230
 1517W        W 5568   0.070   5.964   9.946
 1518W        W 5569   4.433  10.406  11.371
 1519W        W 5570   9.505   9.877   1.235
 1520W        W 5571   5.537   9.637  11.337
 1521W        W 5572   2.647   1.055   1.263
 1522W        W 5573   3.348   2.242   9.266
 1523W        W 5574  11.052   9.429  11.727
 1524W        W 5575   2.277   2.252   0.898
 1525W        W 5576   9.052   6.790   1.975
 1526W        W 5577   7.798   5.733   9.866
 1527W        W 5578  11.101   4.471  10.869
 1528W        W 5579   8.010   4.698   2.181
 1529W        W 5580   7.363   4.706  11.031
 1530W        W 5581   4.257  11.423   2.600
 1531W        W 5582   3.673   6.590   0.283
 1532W        W 5583   5.923   0.938   8.530
 1533W        W 5584  10.857   8.199   0.221
 1534W        W 5585  10.790   1.832  10.474
 1535W        W 5586   9.440   2.608   2.016
 1536W        W 5587   1.628   1.346   9.829
 1537W        W 5588   0.500  10.546   2.318
 1538W        W 5589   9.338  11.371  11.218
 1539W        W 5590   9.969  11.441   9.518
 1540W        W 5591   2.911   5.361   0.216
 1541W        W 5592   3.384   2.561  10.660
 1542W        W 5593   4.371   3.805  11.208
 1543W        W 5594   6.594   2.226   0.961
 1544W        W 5595   2.136   1.774   9.204
 1545W        W 5596   2.188  11.417  11.419
 1546W        W 5597   4.362   0.805   0.313
 1547W        W 5598   9.572   8.044  10.085
 1548W        W 5599   4.917   8.596  10.872
 1549W        W 5600   0.595   5.910   0.706
 1550W        W 5601   3.231   4.297  11.297
 1551W        W 5602   2.197   8.540   3.124
 1552W        W 5603   1.823   0.256   9.502
 1553W        W 5604   6.380   4.020  10.468
 1554W        W 5605   4.112  11.251  10.838
 1555W        W 5606   5.985   6.173   0.875
 1556W        W 5607   0.276   1.621   9.869
 1557W        W 5608   1.468  10.256   1.340
 1558W        W 5609   3.755   6.616   9.390
 1559W        W 5610   1.137   1.835   8.981
 1560W        W 5611   7.946   0.441   1.782
 1561W        W 5612   6.280   8.801   9.999
 1562W        W 5613   8.009   4.164  11.424
 1563W        W 5614   8.599   8.412   1.987
 1564W        W 5615   8.204   6.532   3.254
 1565W        W 5616   9.621   6.949   2.291
 1566W        W 5617   0.704  11.380   0.992
 1567W        W 5618   8.769   8.693   3.732
 1568W        W 5619  11.461   9.138  10.761
 1569W        W 5620   1.295   5.980   0.059
 1570W        W 5621   8.903   6.108   0.533
 1571W        W 5622   8.504   3.397   8.927
 1572W        W 5623   4.735   8.015  11.733
 1573W        W 5624  11.275   9.664   1.736
 1574W        W 5625   6.773   8.060   9.405
 1575W        W 5626   7.136  10.484   9.225
 1576W        W 5627  10.961  10.630  11.420
 1577W        W 5628   5.477   6.226   2.297
 1578W        W 5629   6.374   6.172   2.531
 1579W        W 5630   3.278   8.581  10.386
 1580W        W 5631   2.690   5.533   2.846
 1581W        W 5632   0.287   9.464  11.327
 1582W        W 5633   3.182   6.212   3.375
 1583W        W 5634   0.583   1.495   3.628
 1584W        W 5635   0.314   7.073  11.773
 1585W        W 5636   3.682   3.855  11.813
 1586W        W 5637   9.901  11.485   1.853
 1587W        W 5638  10.400   1.291  11.352
 1588W        W 5639   6.249   7.897   0.381
 1589W        W 5640  11.003  10.016   1.469
 1590W        W 5641  10.825   1.353   9.619
 1591W        W 5642  10.449   6.492  11.991
 1592W        W 5643   0.801   1.101   3.234
 1593W        W 5644   0.891   3.785   2.535
 1594W        W 5645   9.632   2.097   2.611
 1595W        W 5646   3.156   2.080  10.754
 1596W        W 5647   4.533   0.955  10.102
 1597W        W 5648   1.383   2.336   1.959
 1598W        W 5649   8.860   4.601   2.221
 1599W        W 5650   5.807   9.021   9.947
 1600W        W 5651  11.019   9.851   2.338
 1601W        W 5652   8.856   1.727   1.047
 1602W        W 5653   8.016   7.465   1.310
 1603W        W 5654   9.027   7.659   2.867
 1604W        W 5655  10.008   7.008   8.976
 1605W        W 5656   3.396   3.386   1.421
 1606W        W 5657   9.174   7.592  11.940
 1607W        W 5658  10.642   3.614   9.652
 1608W        W 5659   8.083  10.312  11.880
 1609W        W 5660  10.109   8.807   8.929
 1610W        W 5661   6.967   4.621  11.735
 1611W        W 5662   6.565   1.134   9.592
 1612W        W 5663   6.275   8.974   2.678
 1613W        W 5664  10.010   8.947  11.011
 1614W        W 5665   8.327   6.829   0.762
 1615W        W 5666   2.833  11.403   8.818
 1616W        W 5667   2.505   0.067  10.383
 1617W        W 5668   6.641  10.931   1.357
 1618W        W 5669   4.578   9.036  11.941
 1619W        W 5670   9.415   2.887   0.900
 1620W        W 5671   5.025   2.834   3.169
 1621W        W 5672   0.163  10.337   1.426
 1622W        W 5673   9.835   4.800   2.308
 1623W        W 5674  10.075   0.385   9.727
 1624W        W 5675   3.297   9.962   1.305
 1625W        W 5676  10.901   6.476   1.294
 1626W        W 5677   6.106   3.644   1.988
 1627W        W 5678   4.131   4.260  11.191
 1628W        W 5679   0.832  10.894   3.363
 1629W        W 5680   9.387   8.051   1.807
 1630W        W 5681   0.435   6.187  11.771
 1631W        W 5682   4.220  10.110   3.281
 1632W        W 5683   9.450   3.933   2.311
 1633W        W 5684   2.889   2.590  10.508
 1634W        W 5685   0.776   4.209   0.701
 1635W        W 5686   1.801   0.919   8.662
 1636W        W 5687   3.809   3.611  11.376
 1637W        W 5688   2.175   5.696   9.121
 1638W        W 5689   8.109   5.843  10.985
 1639W        W 5690   4.963   9.536   8.964
 1640W        W 5691   3.897   7.543   3.242
 1641W        W 5692   5.618   3.676   2.088
 1642W        W 5693   5.056   3.551   2.764
 1643W        W 5694   0.061   6.701   2.382
 1644W        W 5695  10.513   3.202   2.713
 1645W        W 5696   5.657   7.666   1.918
 1646W        W 5697   7.348   0.914   8.478
 1647W        W 5698   7.975   4.998  10.405
 1648W        W 5699   4.437   1.077  11.048
 1649W        W 5700   2.660   3.295   0.218
 1650W        W 5701   0.476   0.227   3.500
 1651W        W 5702   3.191   3.631  10.560
 1652W        W 5703   3.186   6.048   9.802
 1653W        W 5704   9.896   2.862   1.155
 1654W        W 5705   0.414   8.619  10.050
 1655W        W 5706   7.098   2.835   0.462
 1656W        W 5707   8.118  10.034   2.390
 1657W        W 5708   0.841   8.367  11.275
 1658W        W 5709   6.189   5.301   2.408
 1659W        W 5710   1.895   2.262   1.869
 1660W        W 5711   3.202   5.308   2.491
 1661W        W 5712   5.814   5.044   0.393
 1662W        W 5713   5.163   9.750  11.711
 1663W        W 5714   1.381   5.748   1.782
 1664W        W 5715   2.157   9.034   8.913
 1665W        W 5716  10.516   6.973   9.084
 1666W        W 5717   5.535   7.958   8.695
 1667W        W 5718   4.728   0.833   3.617
 1668W        W 5719   6.420   2.124   9.310
 1669W        W 5720   1.285   7.639   9.020
 1670W        W 5721  11.236   2.815   1.712
 1671W        W 5722   3.453   2.242   2.971
 1672W        W 5723  10.825   3.700   0.936
 1673W        W 5724  11.011   6.161   0.538
 1674W        W 5725   0.873   8.649  10.283
 1675W        W 5726   2.665   0.529  11.243
 1676W        W 5727  11.462   8.077   2.585
 1677W        W 5728   7.307  10.771   2.136
 1678W        W 5729  10.422   0.464   8.919
 1679W        W 5730   5.494   6.700   0.367
 1680W        W 5731   2.697   0.247   0.250
 1681W        W 5732   3.542   3.993   1.994
 1682W        W 5733   9.633   2.929  11.076
 1683W        W 5734   4.619   9.369   9.393
 1684W        W 5735   8.713   5.117   0.347
 1685W        W 5736   5.067   4.024   0.084
 1686W        W 5737   1.679   9.494   9.612
 1687W        W 5738   4.779   1.467  11.528
 1688W        W 5739   5.635   9.392  11.778
 1689W        W 5740   1.805   0.470   1.192
 1690W        W 5741   2.684   3.577   3.059
 1691W        W 5742   9.956   4.827   1.253
 1692W        W 5743   9.023   4.814   2.677
 1693W        W 5744   0.066   9.424   3.305
 1694W        W 5745   4.555   4.814   0.463
 1695W        W 5746  10.785   5.736   3.591
 1696W        W 5747   7.079   9.841   2.254
 1697W        W 5748   6.131   4.882  10.395
 1698W        W 5749  10.998   0.721   0.849
 1699W        W 5750   8.465  10.039  10.353
 1700W        W 5751   2.722   3.662   1.539
 1701W        W 5752   3.831  10.255   0.689
 1702W        W 5753  11.135   0.038  11.804
 1703W        W 5754   4.447   9.308   1.278
 1704W        W 5755   4.661  10.781   1.740
 1705W        W 5756   9.069  11.375  10.545
 1706W        W 5757   4.237   7.773  10.962
 1707W        W 5758   5.486  10.756   1.168
 1708W        W 5759   7.923   3.191  11.621
 1709W        W 5760   5.522   6.811  10.054
 1710W        W 5761  10.139   5.175  10.522
 1711W        W 5762   6.244   3.169   2.163
 1712W        W 5763   8.493   5.208   3.338
 1713W        W 5764  10.820   0.751   0.345
 1714W        W 5765  10.104   6.296  11.689
 1715W        W 5766   8.930   3.546   9.964
 1716W        W 5767   4.810   6.986   2.446
 1717W        W 5768   3.340   8.151  11.847
 1718W        W 5769   1.080   7.927  11.092
 1719W        W 5770   2.242   0.949   3.082
 1720W        W 5771   4.210   8.411   9.482
 1721W        W 5772   8.129   7.823   3.050
 1722W        W 5773   7.861  11.488  10.383
 1723W        W 5774   1.479   3.750   1.187
 1724W        W 5775   7.276   4.489   8.214
 1725W        W 5776   6.187  11.196   9.096
 1726W        W 5777   7.871   5.470   1.742
 1727W        W 5778   5.580   1.705   8.970
 1728W        W 5779   2.685   2.653   1.947
 1729W        W 5780   0.427   4.070   0.375
 1730W        W 5781   2.406   8.570   8.816
 1731W        W 5782   3.861  11.132   8.628
 1732W        W 5783   8.407  10.941  11.783
 1733W        W 5784   9.502   0.100   9.369
 1734W        W 5785   5.570   7.982   3.680
 1735W        W 5786   8.962   9.966   3.032
 1736W        W 5787   0.427   0.326   1.039
 1737W        W 5788   6.332   8.016   0.892
 1738W        W 5789   6.215   4.066   8.148
 1739W        W 5790   5.173   2.564  11.773
 1740W        W 5791   3.186   8.340   3.103
 1741W        W 5792   3.077   5.581   1.235
 1742W        W 5793   0.753  10.457  10.632
 1743W        W 5794   5.327   6.939   3.547
 1744W        W 5795   5.989   4.173   3.630
 1745W        W 5796   8.880   5.072   1.130
 1746W        W 5797   6.184   4.322   0.986
 1747W        W 5798   4.696   3.742  10.796
 1748W        W 5799   6.600   7.976   8.537
 1749W        W 5800   0.938   2.938   0.767
 1750W        W 5801   1.704   3.243   1.909
 1751W        W 5802  10.947   5.534   2.183
 1752W        W 5803   9.446   4.253  10.897
 1753W        W 5804   3.670   6.179   9.659
 1754W        W 5805   3.619   3.543   9.900
 1755W        W 5806   6.316   5.375  10.438
 1756W        W 5807   9.905   4.683   8.909
 1757W        W 5808  10.777   7.687   9.067
 1758W        W 5809   4.249   5.588  10.873
 1759W        W 5810   5.743  10.476   8.879
 1760W        W 5811   5.925   3.796   2.859
 1761W        W 5812   7.211  10.128   0.435
 1762W        W 5813   3.316   9.679   3.590
 1763W        W 5814  11.443   8.050   1.873
 1764W        W 5815   5.694   4.118   0.257
 1765W        W 5816   4.173   6.663   0.305
 1766W        W 5817   6.908   0.746  10.300
 1767W        W 5818  10.450  10.543   0.571
 1768W        W 5819   2.916   2.964  11.911
 1769W        W 5820  10.026   2.565  11.288
 1770W        W 5821   4.448   6.658   3.565
 1771W        W 5822   1.331   8.924   2.388
 1772W        W 5823   2.177   3.318  10.487
 1773W        W 5824   7.934   9.168   9.679
 1774W        W 5825   3.303   4.103   2.825
 1775W        W 5826  11.148   9.497   9.530
 1776W        W 5827   2.753   3.739   8.955
 1777W        W 5828   9.090   8.086   2.225
 1778W        W 5829   7.776   2.837   2.800
 1779W        W 5830   7.498   3.147  10.909
 1780W        W 5831   8.511   0.621   1.199
 1781W        W 5832   6.544   0.796  11.553
 1782W        W 5833   6.518   2.218   2.391
 1783W        W 5834   9.656   8.701  11.313
 1784W        W 5835   3.245   9.809   2.341
 1785W        W 5836   4.593   0.323   1.433
 1786W        W 5837   6.719   1.101  11.958
 1787W        W 5838   5.185   0.986   3.434
 1788W        W 5839   4.482   5.384  10.443
 1789W        W 5840   0.987   8.525   9.367
 1790W        W 5841  10.772   8.464  10.904
 1791W        W 5842   7.095   9.742   1.216
 1792W        W 5843   1.951   2.234   9.997
 1793W        W 5844   6.527   8.349   0.244
 1794W        W 5845   3.377   9.099  11.517
 1795W        W 5846   5.990   7.876  11.022
 1796W        W 5847   6.237   6.474   9.835
 1797W        W 5848   1.229   0.989   0.927
 1798W        W 5849   1.443   3.093   9.911
 1799W        W 5850   1.680   4.603   3.364
 1800W        W 5851   4.041   6.758   2.871
 1801W        W 5852   6.029   1.840   9.504
 1802W        W 5853  10.781   9.114   2.954
 1803W        W 5854   9.760   8.434   8.953
 1804W        W 5855   1.482   8.020   0.028
 1805W        W 5856   9.393   6.666   1.033
 1806W        W 5857   9.417   4.735   3.584
 1807W        W 5858   0.668   6.710  11.801
 1808W        W 5859   2.614  10.556  11.445
 1809W        W 5860   3.800   2.160   9.035
 1810W        W 5861  10.910  10.898   9.959
 1811W        W 5862  10.942   6.647   3.171
 1812W        W 5863   8.028  10.079  10.092
 1813W        W 5864   4.671  10.925   3.276
 1814W        W 5865   1.481   9.654   0.051
 1815W        W 5866   9.530   2.665   1.485
 1816W        W 5867   4.282  10.812  10.618
 1817W        W 5868   9.239   5.162  10.717
 1818W        W 5869   3.224   3.835  11.539
 1819W        W 5870   5.715   4.230   9.931
 1820W        W 5871   4.083  10.035  10.233
 1821W        W 5872   1.282   9.156   2.850
 1822W        W 5873   2.554  10.084   3.004
 1823W        W 5874   6.633   9.440   9.266
 1824W        W 5875   1.625   5.550   0.456
 1825W        W 5876   8.876   4.177   9.684
 1826W        W 5877   9.917   7.176   2.645
 1827W        W 5878   2.492   5.337   1.011
 1828W        W 5879   4.178   3.093  11.064
 1829W        W 5880   1.383   5.796   9.636
 1830W        W 5881   1.183   2.896   3.463
 1831W        W 5882   1.719   6.623  10.996
 1832W        W 5883   1.143  10.963   9.364
 1833W        W 5884   4.134   5.223  11.556
 1834W        W 5885   0.555  10.220   8.871
 1835W        W 5886   5.013   5.814   9.589
 1836W        W 5887   1.372   3.793   1.831
 1837W        W 5888   0.213   3.503   9.866
 1838W        W 5889   9.958   0.500   8.690
 1839W        W 5890   9.523   1.950   9.015
 1840W        W 5891   4.628   3.223   0.247
 1841W        W 5892   9.170   0.472   9.547
 1842W        W 5893   3.587   4.238   3.242
 1843W        W 5894   8.527   5.380  10.949
 1844W        W 5895   5.677   8.719   1.869
 1845W        W 5896  10.018   2.712   9.353
 1846W        W 5897  10.218   3.417  10.880
 1847W        W 5898   8.008   9.469   8.826
 1848W        W 5899   0.790   8.251   2.301
 1849W        W 5900   0.725   8.096   9.233
 1850W        W 5901   9.092   6.659   2.909
 1851W        W 5902   8.534  10.356   0.185
 1852W        W 5903   6.571   2.650  11.191
 1853W        W 5904   0.255   5.862   1.477
 1854W        W 5905   1.810   2.786   1.200
 1855W        W 5906   3.458   8.429   1.638
 1856W        W 5907   3.838   4.810  10.866
 1857W        W 5908   8.100   2.673   8.485
 1858W        W 5909   1.539  11.024   0.855
 1859W        W 5910   6.726   9.901   0.365
 1860W        W 5911   5.844   6.230  11.477
 1861W        W 5912   4.667  11.296   2.897
 1862W        W 5913   7.175   9.383   1.959
 1863W        W 5914  10.652  11.397  11.793
 1864W        W 5915   2.003   6.280  11.861
 1865W        W 5916   7.467   3.334   1.572
 1866W        W 5917   5.735   4.108   3.193
 1867W        W 5918   8.113  10.825   1.721
 1868W        W 5919   2.460  10.879  10.897
 1869W        W 5920  11.248   4.277   3.015
 1870W        W 5921   7.168   2.647   9.478
 1871W        W 5922   9.271   0.654   1.780
 1872W        W 5923   7.201   3.263   3.033
 1873W        W 5924   2.186   3.671   3.238
 1874W        W 5925  10.324   3.417   9.984
 1875W        W 5926   1.336   9.168   1.938
 1876W        W 5927   3.734   2.090   8.454
 1877W        W 5928  10.285   3.938   9.907
 1878W        W 5929   6.919   5.358   2.035
 1879W        W 5930   4.533   2.731   0.987
 1880W        W 5931   6.247   3.664   1.490
 1881W        W 5932   8.356  10.839   9.527
 1882W        W 5933   4.747   5.232   0.757
 1883W        W 5934   7.114   4.530   1.714
 1884W        W 5935  11.032  11.338   0.271
 1885W        W 5936   9.734   5.949  11.716
 1886W        W 5937   6.697  10.439   9.472
 1887W        W 5938   5.298  10.954   8.987
 1888W        W 5939   6.292   2.341   1.366
 1889W        W 5940   4.558   0.524   2.401
 1890W        W 5941   0.490   2.768  10.561
 1891W        W 5942  10.928   1.990   2.760
 1892W        W 5943   6.457   6.042   0.975
 1893W        W 5944   1.909  10.139   2.014
 1894W        W 5945   1.160   0.842   9.120
 1895W        W 5946   3.484   9.613   9.693
 1896W        W 5947  10.588   2.764   2.425
 1897W        W 5948   1.240   8.038   9.368
 1898W        W 5949   0.336   0.831   2.428
 1899W        W 5950   1.711   5.554   1.428
 1900W        W 5951   3.303   8.862   3.245
 1901W        W 5952  10.055   4.992  10.046
 1902W        W 5953   2.082   1.813   1.725
 1903W        W 5954   8.432   3.265  10.429
 1904W        W 5955   3.786   3.099  11.380
 1905W        W 5956   9.054   6.073   9.089
 1906W        W 5957  11.182   5.727  11.222
 1907W        W 5958   1.755   4.575   1.536
 1908W        W 5959   8.724   2.511   2.808
 1909W        W 5960  11.360  10.565  11.101
 1910W        W 5961  10.071   2.607  10.327
 1911W        W 5962   8.245   0.918  10.399
 1912W        W 5963   5.507   2.109   2.549
 1913W        W 5964   5.622   0.384   9.634
 1914W        W 5965  10.961   5.217  11.493
 1915W        W 5966  10.128   3.633   9.517
 1916W        W 5967   0.253   7.258   2.970
 1917W        W 5968   3.314  11.361   1.423
 1918W        W 5969   6.717   6.140   8.698
 1919W        W 5970   1.436   7.057   8.425
 1920W        W 5971  11.368   5.674   9.230
 1921W        W 5972  10.123   6.039   2.212
 1922W        W 5973   5.068  10.322   2.318
 1923W        W 5974   0.433   9.779   3.458
 1924W        W 5975   9.159   9.569   0.331
 1925W        W 5976   9.006  10.459   2.190
 1926W        W 5977   1.783   8.934   1.794
 1927W        W 5978   2.244   2.783  10.064
 1928W        W 5979   4.106   4.242   1.542
 1929W        W 5980   2.334   1.853   3.562
 1930W        W 5981   4.104   3.333  10.035
 1931W        W 5982   0.199   1.443   1.697
 1932W        W 5983   8.492  10.703   2.755
 1933W        W 5984   4.645   3.867   2.817
 1934W        W 5985   6.633   8.445  10.238
 1935W        W 5986   2.995  10.439  10.107
 1936W        W 5987   3.188   1.774   9.012
 1937W        W 5988   9.591  10.771   1.006
 1938W        W 5989   3.499   8.003   0.926
 1939W        W 5990   5.414   7.828   9.200
 1940W        W 5991   4.054   2.608   2.438
 1941W        W 5992   7.696  11.032   0.464
 1942W        W 5993   3.612   2.095   0.249
 1943W        W 5994   6.582   1.269   9.066
 1944W        W 5995   8.079   8.311   2.762
 1945W        W 5996   0.904   0.360   2.320
 1946W        W 5997   6.896   3.320   0.571
 1947W        W 5998   4.168   9.072   1.692
 1948W        W 5999   3.522   0.475   3.736
 1949W        W 6000   3.724   3.580   1.754
 1950W        W 6001   9.928   4.765  10.787
 1951W        W 6002   7.235   1.882   2.674
 1952W        W 6003   8.679   3.682  11.306
 1953W        W 6004  11.407   9.917   9.335
 1954W        W 6005   9.793   0.092   1.004
 1955W        W 6006   1.477   5.124   2.117
 1956W        W 6007   2.423   6.121   8.817
 1957W        W 6008   3.370   9.484   0.396
 1958W        W 6009   8.611   5.260  11.860
 1959W        W 6010   5.984   6.067  10.982
 1960W        W 6011  10.541   3.416   0.260
 1961W        W 6012   3.115  11.343  11.132
 1962W        W 6013   8.618   8.809   1.216
 1963W        W 6014   1.785   5.980   2.209
 1964W        W 6015   1.651  10.811   9.271
 1965W        W 6016  11.283   9.756  11.362
 1966W        W 6017   5.296   8.947   0.694
 1967W        W 6018  10.572  11.350  10.950
 1968W        W 6019  11.453   7.569   1.686
 1969W        W 6020   9.913   5.603   0.028
 1970W        W 6021   1.312   1.404   3.170
 1971W        W 6022   4.775   1.700  11.986
 1972W        W 6023   6.535   7.559   1.002
 1973W        W 6024   4.975   6.545   3.560
 1974W        W 6025   3.862   3.165   1.480
 1975W        W 6026   7.131   8.846  11.057
 1976W        W 6027   3.261   2.682   1.765
 1977W        W 6028   2.259   7.925   1.188
 1978W        W 6029   3.664   0.309   3.226
 1979W        W 6030   4.157  11.196  10.294
 1980W        W 6031  10.421   5.184  11.478
 1981W        W 6032   2.834   8.793   0.799
 1982W        W 6033  10.832   3.279   9.297
 1983W        W 6034   3.938   7.126   9.259
 1984W        W 6035   3.851   3.380  11.823
 1985W        W 6036  11.376   3.119  10.010
 1986W        W 6037   2.219   8.918  11.321
 1987W        W 6038   6.209  10.809  10.740
 1988W        W 6039   2.192   2.226  11.478
 1989W        W 6040   3.262   9.065  10.639
 1990W        W 6041   1.293   5.280   1.639
 1991W        W 6042   9.746   4.600  10.200
 1992W        W 6043   3.905   8.197   8.367
 1993W        W 6044   8.110  10.456   2.053
 1994W        W 6045   6.963   8.431   0.565
 1995W        W 6046   5.542   2.367   9.751
 1996W        W 6047   0.691   5.988   1.221
 1997W        W 6048   1.676   6.701  11.981
 1998W        W 6049   6.076   8.899   1.600
 1999W        W 6050   0.625   1.832   9.065
 2000W        W 6051   2.763   1.124  10.440
 2001W        W 6052   6.060   0.398   2.280
 2002W        W 6053   8.579   9.727   1.619
 2003W        W 6054  11.417   0.901  11.848
 2004W        W 6055   7.218   7.829   9.944
 2005W        W 6056   8.639  10.012  11.081
 2006W        W 6057   3.338   2.245   9.783
 2007W        W 6058   1.808   6.445   1.939
 2008W        W 6059   3.642   8.907   9.040
 2009W        W 6060   2.256   3.679  11.283
 2010W        W 6061  10.063   0.227   1.450
 2011W        W 6062   8.250   1.541  11.299
 2012W        W 6063   2.902   1.864  11.229
 2013W        W 6064   8.374   9.578   0.015
 2014W        W 6065   0.303   7.952   9.515
 2015W        W 6066   2.697   3.466   8.528
 2016W        W 6067   1.336   9.535   3.231
 2017W        W 6068  10.852   7.017  10.846
 2018W        W 6069   3.833   7.487   0.249
 2019W        W 6070   1.996   7.706   3.170
 2020W        W 6071   1.843   1.356   1.920
 2021W        W 6072   9.390   9.374  11.871
 2022W        W 6073   1.632  10.520   1.757
 2023W        W 6074   8.006  11.457   0.902
 2024W        W 6075   8.583   0.602   2.290
 2025W        W 6076   4.268   4.570  11.684
 2026W        W 6077   2.440   7.480   4.076
 2027W        W 6078   9.506   9.827   8.997
 2028W        W 6079   8.110   5.321   3.667
 2029W        W 6080   9.645  10.963  11.282
 2030W        W 6081   8.900   3.632  10.841
 2031W        W 6082   6.082   9.489   0.747
 2032W        W 6083   2.624  10.877   0.201
 2033W        W 6084  10.550   0.404   3.209
 2034W        W 6085   1.554   2.420   0.101
 2035W        W 6086  10.899   1.206   8.610
 2036W        W 6087   9.099  11.260   2.185
 2037W        W 6088   8.163   7.546   1.813
 2038W        W 6089   3.066   1.475   3.354
 2039W        W 6090   2.197   4.990   3.812
 2040W        W 6091   0.124   6.769  10.140
 2041W        W 6092  10.362   7.001  11.978
 2042W        W 6093  10.817   6.108  11.199
 2043W        W 6094   1.668   2.759   3.285
 2044W        W 6095  10.099   2.734   8.848
 2045W        W 6096   4.810  10.069   1.370
 2046W        W 6097   5.696  11.336   8.942
 2047W        W 6098   2.787   4.562   1.452
 2048W        W 6099   4.490  11.258  11.960
 2049W        W 6100   8.973   9.499  10.305
 2050W        W 6101   3.036   7.797   0.718
 2051W        W 6102   5.688   8.197   1.880
 2052W        W 6103   6.415   3.339   9.358
 2053W        W 6104   1.121   2.236   1.521
 2054W        W 6105   5.540   5.708   0.449
 2055W        W 6106   8.911   5.925  11.417
 2056W        W 6107  11.479   6.763   0.873
 2057W        W 6108   6.740  10.430   1.483
 2058W        W 6109   4.379   6.531   0.957
 2059W        W 6110  10.780   5.146   1.392
 2060W        W 6111   0.406  10.335   9.893
 2061W        W 6112   6.965   3.762   2.284
 2062W        W 6113   4.029   7.928   0.960
 2063W        W 6114   5.513   3.311   1.698
 2064W        W 6115  11.265   0.409  11.096
 2065W        W 6116   1.759  10.381   2.804
 2066W        W 6117   1.010   9.982   1.361
 2067W        W 6118  10.461   8.964  11.280
 2068W        W 6119   9.665   8.162   9.572
 2069W        W 6120   1.904   2.520  11.757
 2070W        W 6121   5.972   6.177   8.927
 2071W        W 6122   0.660   1.645   1.877
 2072W        W 6123   2.217  11.328  10.911
 2073W        W 6124   4.213  10.278   2.387
 2074W        W 6125   5.262   9.606   4.097
 2075W        W 6126   2.943   8.384   8.117
 2076W        W 6127   2.848   2.935  10.905
 2077W        W 6128   7.395   2.996  11.756
 2078W        W 6129   5.454   4.659   0.353
 2079W        W 6130   1.896   0.214   3.224
 2080W        W 6131  10.902   5.970   2.425
 2081W        W 6132   6.948   9.924  11.481
 2082W        W 6133   5.746   4.769  10.054
 2083W        W 6134  11.475   5.068   1.829
 2084W        W 6135   8.177   2.928   8.957
 2085W        W 6136   4.131   3.058   2.710
 2086W        W 6137   3.590  11.051   0.381
 2087W        W 6138   2.335   9.024   3.335
 2088W        W 6139   1.668   1.862   0.770
 2089W        W 6140   0.304  10.035  10.647
 2090W        W 6141  10.467   5.480   9.393
 2091W        W 6142  10.818   9.661  10.464
 2092W        W 6143   1.385   1.769  11.282
 2093W        W 6144   9.236   3.896   1.817
 2094W        W 6145   2.610   3.193   1.750
 2095W        W 6146   8.613   1.812   9.557
 2096W        W 6147   8.197  11.102  10.453
 2097W        W 6148   8.233   5.061   0.478
 2098W        W 6149   2.408   5.333   0.025
 2099W        W 6150   3.179   7.980   1.324
 2100W        W 6151   3.668   7.577   9.211
 2101W        W 6152   1.327   9.422   2.374
 2102W        W 6153   7.617  10.371   9.006
 2103W        W 6154   0.064   0.569   9.814
 2104W        W 6155  10.394   2.414   0.302
 2105W        W 6156  11.045   5.986  11.643
 2106W        W 6157   1.960   3.178   9.144
 2107W        W 6158  10.012   6.160   9.901
 2108W        W 6159   6.148  10.810   2.879
 2109W        W 6160  11.491   2.768   2.167
 2110W        W 6161   7.145   7.022  11.528
 2111W        W 6162   0.052   3.354  11.379
 2112W        W 6163   5.710   0.762   2.199
 2113W        W 6164   0.193   3.171  11.862
 2114W        W 6165   3.888   1.043  11.390
 2115W        W 6166   1.897   0.240  10.871
 2116W        W 6167   6.017   4.392  10.309
 2117W        W 6168   9.349   7.597   8.789
 2118W        W 6169   3.315   5.114   9.645
 2119W        W 6170   3.377   3.319   3.150
 2120W        W 6171   3.585   9.326  10.243
 2121W        W 6172  10.192   0.268   2.894
 2122W        W 6173   3.995   8.908   9.428
 2123W        W 6174   5.404   8.086   4.183
 2124W        W 6175   2.191   8.448   2.105
 2125W        W 6176  10.417   6.540   2.426
 2126W        W 6177   8.126   9.969   0.252
 2127W        W 6178  11.316   3.902   1.016
 2128W        W 6179   0.846   7.419   1.744
 2129W        W 6180  10.461   6.754   1.349
 2130W        W 6181   1.929   9.681  11.321
 2131W        W 6182   3.293   2.233  10.284
 2132W        W 6183   8.560   2.625   3.614
 2133W        W 6184   4.607   2.400   9.576
 2134W        W 6185   3.166   9.407  11.920
 2135W        W 6186   2.113   5.612   0.336
 2136W        W 6187  10.021   1.207   2.572
 2137W        W 6188   1.052   3.661   1.466
 2138W        W 6189   9.563   9.783  10.826
 2139W        W 6190   0.800   6.135  10.395
 2140W        W 6191  10.062   0.822   9.088
 2141W        W 6192   9.154   1.277   3.197
 2142W        W 6193   9.256   8.382  11.473
 2143W        W 6194   1.882   1.911   1.265
 2144W        W 6195   4.372   4.399   0.179
 2145W        W 6196   8.643   1.752   0.421
 2146W        W 6197   9.759   6.722   1.849
 2147W        W 6198   1.646   9.403   1.605
 2148W        W 6199   4.488   8.376  10.033
 2149W        W 6200   3.766   9.670   8.858
 2150W        W 6201   3.597   0.274   2.264
 2151W        W 6202   0.477   8.851   9.293
 2152W        W 6203   2.403   3.159   3.187
 2153W        W 6204   5.056   2.975  10.006
 2154W        W 6205   5.237   8.624   3.060
 2155W        W 6206   1.441   1.751  11.785
 2156W        W 6207   9.996  10.509  11.820
 2157W        W 6208   4.575   4.206   3.402
 2158W        W 6209   4.112   2.552   0.761
 2159W        W 6210   8.282   3.700   1.877
 2160W        W 6211   0.521  10.341   1.832
 2161W        W 6212   7.871   4.097   9.338
 2162W        W 6213   0.795   3.674   9.068
 2163W        W 6214   7.056   3.373  11.062
 2164W        W 6215   1.623  10.550  10.383
 2165W        W 6216   6.611   4.557   0.861
 2166W        W 6217   5.256   1.157   9.559
 2167W        W 6218   0.122   7.097   1.253
 2168W        W 6219   2.140  11.309   2.329
 2169W        W 6220   7.049   0.384   9.436
 2170W        W 6221   2.748   5.653  11.772
 2171W        W 6222   5.555   9.444   2.283
 2172W        W 6223   0.828   4.824  10.931
 2173W        W 6224   1.743   8.064  10.064
 2174W        W 6225   2.493   9.054   1.548
 2175W        W 6226   9.636   8.457   1.642
 2176W        W 6227   8.414   2.325   3.202
 2177W        W 6228   7.027   9.730   0.728
 2178W        W 6229   9.585   7.461  11.646
 2179W        W 6230  11.260   6.082   1.488
 2180W        W 6231  10.591   6.123   2.060
 2181W        W 6232   7.710   0.676   9.292
 2182W        W 6233   1.528   9.501  10.999
 2183W        W 6234   9.989   1.707   2.107
 2184W        W 6235   3.224   6.080   1.268
 2185W        W 6236   3.792   9.263  11.248
 2186W        W 6237   5.092   5.564   0.255
 2187W        W 6238   8.643   3.740  10.391
 2188W        W 6239   0.933   9.762  11.421
 2189W        W 6240   9.899   8.902   2.389
 2190W        W 6241  11.065   3.177   0.965
 2191W        W 6242   9.787   7.495   9.050
 2192W        W 6243  10.814   7.525  10.894
 2193W        W 6244   5.456   4.086   9.529
 2194W        W 6245   7.105   7.465  11.273
 2195W        W 6246   1.759   0.511   1.713
 2196W        W 6247   9.234   0.753  10.723
 2197W        W 6248   3.720   3.274   1.007
 2198W        W 6249   8.383   6.319   0.769
 2199W        W 6250   1.787   9.035   9.797
 2200W        W 6251   3.135   0.243   0.018
 2201W        W 6252   1.356   7.095   0.070
 2202W        W 6253   2.834   7.936  10.951
 2203W        W 6254  10.507  11.371   2.980
 2204W        W 6255   0.789   9.897  10.042
 2205W        W 6256   6.456   9.959   1.825
 2206W        W 6257   6.538   0.865   3.364
 2207W        W 6258   7.670   6.348   1.192
 2208W        W 6259   7.912   5.588   0.204
 2209W        W 6260   9.400   3.758  10.815
 2210W        W 6261  10.409   7.004   2.693
 2211W        W 6262   2.277   8.452   0.195
 2212W        W 6263   5.093   7.017   1.877
 2213W        W 6264   8.469  11.328  11.206
 2214W        W 6265   5.554  10.227   3.449
 2215W        W 6266  10.460   2.752  11.891
 2216W        W 6267   6.647   0.925  11.046
 2217W        W 6268  11.018   1.371   2.915
 2218W        W 6269   7.616   3.048   3.257
 2219W        W 6270   8.903   4.229  11.647
 2220W        W 6271   1.595  10.252   0.151
 2221W        W 6272  10.659   3.527   1.852
 2222W        W 6273  11.117   9.953  10.888
 2223W        W 6274   7.532   6.254  11.536
 2224W        W 6275   4.586   9.317   0.739
 2225W        W 6276  10.275  11.132   9.246
 2226W        W 6277   5.429   3.729   3.054
 2227W        W 6278   5.621   4.844   0.819
 2228W        W 6279   0.511   0.750  10.032
 2229W        W 6280   1.464   8.663   0.554
 2230W        W 6281   7.399   5.770  11.523
 2231W        W 6282   0.449   3.556  11.650
 2232W        W 6283  10.223   3.682   3.345
 2233W        W 6284   1.408   3.541   8.974
 2234W        W 6285  10.647   7.484  10.334
 2235W        W 6286  10.816   9.080   9.593
 2236W        W 6287   3.531   4.658   0.146
 2237W        W 6288  10.582  10.562   2.330
 2238W        W 6289   6.619   6.322   9.539
 2239W        W 6290   6.210   0.638   0.459
 2240W        W 6291   6.496   7.513  10.525
 2241W        W 6292   5.152   3.545   9.156
 2242W        W 6293   4.662   2.459   1.401
 2243W        W 6294   4.045   4.770   0.295
 2244W        W 6295  10.932   6.908  11.474
 2245W        W 6296   8.105   5.914   1.563
 2246W        W 6297  10.465   4.108  11.401
 2247W        W 6298   6.741   9.815  10.090
 2248W        W 6299   8.410   3.503   9.977
 2249W        W 6300   3.313   9.309   1.314
 2250W        W 6301   8.246   1.183   9.972
 2251W        W 6302   9.752   6.050  10.344
 2252W        W 6303   2.644   1.190   3.289
 2253W        W 6304   4.251   7.192   0.234
 2254W        W 6305   3.725   1.822  10.980
 2255W        W 6306   1.795   3.657   2.597
 2256W        W 6307   7.954   9.785   0.885
 2257W        W 6308  11.284   7.282  10.966
 2258W        W 6309  10.512   7.839   2.676
 2259W        W 6310   9.407   8.502  10.431
 2260W        W 6311   6.684  10.305   9.990
 2261W        W 6312   7.098   5.146  11.816
 2262W        W 6313   2.404   9.524   2.117
 2263W        W 6314   4.289   8.550   2.889
 2264W        W 6315  10.408   7.991   0.066
 2265W        W 6316   5.535   7.114   2.203
 2266W        W 6317   2.900   7.253  10.290
 2267W        W 6318   3.818   4.576   9.060
 2268W        W 6319   0.372   0.985  10.516
 2269W        W 6320  11.206   3.692   9.982
 2270W        W 6321   6.259   3.186   2.734
 2271W        W 6322   1.183   8.761  11.945
 2272W        W 6323   3.558   8.486   2.236
 2273W        W 6324   0.075  10.096  11.105
 2274W        W 6325   0.385   6.397   9.268
 2275W        W 6326   3.767  10.518   2.433
 2276W        W 6327   1.943   4.315  11.928
 2277W        W 6328   7.914   1.448   2.611
 2278W        W 6329   2.224  10.794  10.087
 2279W        W 6330   1.233  10.937  11.859
 2280W        W 6331   7.551   4.512   0.964
 2281W        W 6332   4.591   0.686   8.968
 2282W        W 6333   7.720   8.477  10.860
 2283W        W 6334   3.403   1.752  10.434
 2284W        W 6335   8.545   8.176  10.429
 2285W        W 6336   3.369   0.291   8.375
 2286W        W 6337   6.215   7.001  11.407
 2287W        W 6338   0.447   8.140   1.716
 2288W        W 6339   4.456   0.420   3.357
 2289W        W 6340   6.303   6.964   2.652
 2290W        W 6341   2.459   6.625   0.177
 2291W        W 6342   2.949   5.115  10.012
 2292W        W 6343   5.933  10.924   0.950
 2293W        W 6344   9.003   9.099   0.056
 2294W        W 6345   0.575  11.467   2.293
 2295W        W 6346   8.691   0.380   3.357
 2296W        W 6347   4.579  10.401  10.852
 2297W        W 6348   4.238   7.626   2.722
 2298W        W 6349   1.679   9.008   8.731
 2299W        W 6350   5.496   0.185   0.904
 2300W        W 6351   5.310   6.875  11.295
 2301W        W 6352  10.295   9.905   2.649
 2302W        W 6353   2.588   8.553  11.499
 2303W        W 6354  10.916   4.337  11.339
 2304W        W 6355   1.436   2.864   0.858
 2305W        W 6356   3.133  11.361   9.698
 2306W        W 6357   7.533   7.541   9.381
 2307W        W 6358   6.630   1.968   0.046
 2308W        W 6359   8.393   5.525   1.687
 2309W        W 6360   2.176   9.999  10.374
 2310W        W 6361   2.797   7.043   0.158
 2311W        W 6362   2.368   7.616   2.769
 2312W        W 6363  11.411   7.699   2.223
 2313W        W 6364   2.731   6.033   9.550
 2314W        W 6365   6.123   0.908   2.497
 2315W        W 6366   0.041   2.700   1.307
 2316W        W 6367   7.324   0.352  11.969
 2317W        W 6368   4.535  10.456   9.829
 2318W        W 6369   9.474   5.564   1.593
 2319W        W 6370   5.611   9.939   9.990
 2320W        W 6371  10.908   0.271   8.931
 2321W        W 6372   6.203   8.457   2.636
 2322W        W 6373   6.961   5.991   1.735
 2323W        W 6374   8.484   9.455   9.040
 2324W        W 6375   6.736   8.969   8.297
 2325W        W 6376   8.356  11.186   1.155
 2326W        W 6377   6.469   3.642   0.727
 2327W        W 6378   5.590   6.923   3.103
 2328W        W 6379   8.046   6.582   2.252
 2329W        W 6380   9.424   0.041   2.443
 2330W        W 6381   1.972   4.601  11.458
 2331W        W 6382   6.535   2.730   1.151
 2332W        W 6383   1.937   7.612   1.447
 2333W        W 6384   4.534   8.123  11.259
 2334W        W 6385  10.621   9.210   0.999
 2335W        W 6386   6.431   4.339  11.420
 2336W        W 6387   3.212   1.824   0.424
 2337W        W 6388   9.012   6.751   3.788
 2338W        W 6389   1.743   8.651   1.357
 2339W        W 6390   7.476   4.679   0.489
 2340W        W 6391   3.005   0.474   2.008
 2341W        W 6392   0.725   6.761   3.515
 2342W        W 6393   8.005   5.093   0.955
 2343W        W 6394   3.692   3.067  10.111
 2344W        W 6395   9.707   6.212   0.667
 2345W        W 6396   7.776   3.767   8.963
 2346W        W 6397   2.979   9.712   9.601
 2347W        W 6398   8.141  10.886   0.222
 2348W        W 6399  10.423   5.737   1.324
 2349W        W 6400   6.105   0.420   0.918
 2350W        W 6401   0.034   2.303   0.959
 2351W        W 6402   5.699   0.894   0.019
 2352W        W 6403   9.802   4.263  11.999
 2353W        W 6404   0.229   6.759   2.950
 2354W        W 6405   0.174  10.951   9.479
 2355W        W 6406   5.463   3.221  10.775
 2356W        W 6407   2.147   6.827  11.267
 2357W        W 6408   4.080   0.501   3.005
 2358W        W 6409   2.746   5.560   2.313
 2359W        W 6410  10.895   6.489   2.262
 2360W        W 6411   8.379   2.409  10.587
 2361W        W 6412   6.291   5.226   0.541
 2362W        W 6413   8.960   7.939   1.259
 2363W        W 6414  10.852   7.246  11.982
 2364W        W 6415   5.087   2.262   8.626
 2365W        W 6416   5.861   6.781  11.987
 2366W        W 6417   3.634   5.596   1.185
 2367W        W 6418   2.798  10.056   2.519
 2368W        W 6419   7.653   9.962   1.336
 2369W        W 6420   8.133   5.793   2.077
 2370W        W 6421   7.625   2.909  10.428
 2371W        W 6422   9.112   4.094   1.338
 2372W        W 6423   6.192   4.106  10.976
 2373W        W 6424   7.769   3.453   2.938
 2374W        W 6425   6.064   9.635  11.320
 2375W        W 6426  10.402   1.164  10.826
 2376W        W 6427   7.732   4.393   3.355
 2377W        W 6428   6.246   6.477   1.239
 2378W        W 6429  10.973   2.807   3.094
 2379W        W 6430   7.249   6.592  11.886
 2380W        W 6431   7.955   2.121   3.421
 2381W        W 6432   0.375   3.186  10.266
 2382W        W 6433   0.059  11.330   2.371
 2383W        W 6434   1.619   1.785   8.531
 2384W        W 6435   4.096   3.967   0.105
 2385W        W 6436   8.510   4.679   1.866
 2386W        W 6437   9.814   1.918   3.038
 2387W        W 6438   0.892   5.540   0.934
 2388W        W 6439   7.939   3.256  10.649
 2389W        W 6440   3.234   7.922   2.777
 2390W        W 6441   1.803   5.518   1.958
 2391W        W 6442   2.937  10.500   2.325
 2392W        W 6443   5.448   3.750   9.984
 2393W        W 6444   0.078   6.984   0.410
 2394W        W 6445   1.623   7.513   8.646
 2395W        W 6446   6.632   2.433   3.156
 2396W        W 6447   8.498   1.290   0.210
 2397W        W 6448   1.855   2.754   1.718
 2398W        W 6449   3.613   1.797   0.847
 2399W        W 6450   4.570  11.292   1.803
 2400W        W 6451   0.946   5.521   1.938
 2401W        W 6452   5.277   7.084   2.676
 2402W        W 6453   7.099  10.843  11.697
 2403W        W 6454  10.716   8.518  11.423
 2404W        W 6455   9.836   7.082  11.067
 2405W        W 6456   4.668   1.709  11.077
 2406W        W 6457  10.004   6.564   0.905
 2407W        W 6458   2.929   5.090   9.079
 2408W        W 6459  10.767   4.635  10.474
 2409W        W 6460   0.318   6.278  10.271
 2410W        W 6461   3.275   6.920   0.308
 2411W        W 6462   6.190   1.445   0.643
 2412W        W 6463   1.832   7.149  11.780
 2413W        W 6464   0.778   9.362   1.743
 2414W        W 6465   4.022   1.774   9.755
 2415W        W 6466   7.400  10.809  10.918
 2416W        W 6467   0.673   0.423   0.341
 2417W        W 6468  11.147   6.921   2.182
 2418W        W 6469   5.247   2.625  11.276
 2419W        W 6470   6.544  10.497  11.765
 2420W        W 6471   9.864   6.916   8.462
 2421W        W 6472   3.346   3.624   0.947
 2422W        W 6473   7.920   1.843   9.594
 2423W        W 6474   1.290   9.912   2.289
 2424W        W 6475   9.882   7.098   9.968
 2425W        W 6476   5.380   1.197   0.316
 2426W        W 6477   6.979  10.844  11.181
 2427W        W 6478   5.470   4.328  10.391
 2428W        W 6479   1.829   7.062  10.777
 2429W        W 6480   2.222   8.086   3.462
 2430W        W 6481   5.386   2.298   0.292
 2431W        W 6482   8.982   0.061   0.513
 2432W        W 6483   8.992   5.553  11.076
 2433W        W 6484   1.833   1.151   2.859
 2434W        W 6485   2.809   5.942   0.951
 2435W        W 6486   4.323   3.909   1.862
 2436W        W 6487  10.549   9.322  10.905
 2437W        W 6488  10.107   1.433   3.037
 2438W        W 6489   8.863  10.796   9.971
 2439W        W 6490  10.900   9.950   9.540
 2440W        W 6491  10.092   4.795   1.851
 2441W        W 6492   0.582   0.453   2.716
 2442W        W 6493   8.195   9.732   2.821
 2443W        W 6494   2.224   6.679  10.048
 2444W        W 6495   0.923  10.865   1.446
 2445W        W 6496   2.709   1.453  10.005
 2446W        W 6497   9.967   9.205   8.642
 2447W        W 6498   6.506   7.841   1.439
 2448W        W 6499   0.301   4.718   3.330
 2449W        W 6500   8.366   9.184  10.610
 2450W        W 6501   3.213   3.142   0.888
 2451W        W 6502  10.929  11.497  10.026
 2452W        W 6503   8.585   5.523   9.554
 2453W        W 6504  10.590   8.975  10.016
 2454W        W 6505   1.274   1.504   0.927
 2455W        W 6506   8.510  10.382   2.348
 2456W        W 6507  11.164   5.595   3.202
 2457W        W 6508   6.001   6.705  10.218
 2458W        W 6509   7.327   3.237   1.075
 2459W        W 6510   9.538   4.644   9.270
 2460W        W 6511   3.589   5.061  11.400
 2461W        W 6512   2.932  10.547   0.490
 2462W        W 6513   6.195   1.052  11.273
 2463W        W 6514   5.683   8.754   3.302
 2464W        W 6515   2.712   0.469   0.710
 2465W        W 6516   8.492   7.644   1.411
 2466W        W 6517   3.173   4.262   1.721
 2467W        W 6518   0.145   0.409   3.022
 2468W        W 6519   8.320   5.530   4.070
 2469W        W 6520   1.657   9.492   2.775
 2470W        W 6521  10.699   1.254   0.135
 2471W        W 6522   6.604   5.057   0.918
 2472W        W 6523   2.199   9.484   9.670
 2473W        W 6524   1.330   6.163   2.998
 2474W        W 6525   1.917   4.619   2.918
 2475W        W 6526   8.947   5.897   9.826
 2476W        W 6527   2.219   6.673   2.629
 2477W        W 6528  11.025   8.710   3.190
 2478W        W 6529   8.504   4.162  11.318
 2479W        W 6530   3.110   5.067   2.962
 2480W        W 6531   3.610   9.844  10.245
 2481W        W 6532   7.776   0.279  11.779
 2482W        W 6533   6.198  10.797   9.468
 2483W        W 6534  10.565   8.187   2.305
 2484W        W 6535   5.220  11.472   2.224
 2485W        W 6536   0.532   5.022   0.252
 2486W        W 6537   3.332   4.222  11.853
 2487W        W 6538   3.881   1.705  10.275
 2488W        W 6539   3.664   0.248   0.856
 2489W        W 6540   3.226   9.757   0.840
 2490W        W 6541   7.460   8.916   9.689
 2491W        W 6542   5.259   8.771   1.163
 2492W        W 6543   2.309  11.454   2.800
 2493W        W 6544   9.017   3.116   2.295
 2494W        W 6545   1.384   0.757   1.379
 2495W        W 6546  10.865   0.021  11.333
 2496W        W 6547   8.005   1.783   2.987
 2497W        W 6548  11.276  11.241   9.281
 2498W        W 6549   9.914   5.240   0.377
 2499W        W 6550   5.520   5.355   0.036
 2500W        W 6551   3.144   9.214   9.631
 2501W        W 6552   3.630   4.934   2.254
 2502W        W 6553   1.795   7.665   9.140
 2503W        W 6554   9.338   8.473   9.890
 2504W        W 6555   8.983   6.380   0.118
 2505W        W 6556  10.611   8.959   1.906
 2506W        W 6557   3.263  11.437   0.476
 2507W        W 6558   1.120   9.393   1.367
 2508W        W 6559   5.224   0.471   3.489
 2509W        W 6560   7.142  10.824   2.624
 2510W        W 6561   2.093   7.236   3.295
 2511W        W 6562   1.718   5.089   3.090
 2512W        W 6563   5.691   5.670  10.062
 2513W        W 6564   0.119   3.563   2.077
 2514W        W 6565   0.892   7.175  11.854
 2515W        W 6566   9.689   7.977  10.939
 2516W        W 6567   1.328   3.626  11.204
 2517W        W 6568   8.276  10.897   2.304
 2518W        W 6569   1.770   4.714  10.561
 2519W        W 6570   9.810   5.675   1.990
 2520W        W 6571   3.464   8.039   9.337
 2521W        W 6572   2.614   4.078   3.103
 2522W        W 6573   6.262   1.150   9.991
 2523W        W 6574   5.516   3.760   2.560
 2524W        W 6575   3.096   8.612  11.418
 2525W        W 6576   9.505   5.737   1.117
 2526W        W 6577   8.347   4.175   9.527
 2527W        W 6578   2.258   0.272  11.976
 2528W        W 6579   6.510   4.015   3.668
 2529W        W 6580   4.722   9.729   0.989
 2530W        W 6581   2.761   6.221   1.408
 2531W        W 6582  11.000   6.521  10.714
 2532W        W 6583   1.719   4.069   0.372
 2533W        W 6584   2.920   0.306  10.709
 2534W        W 6585  10.445   9.456   1.866
 2535W        W 6586   2.741   7.559  11.308
 2536W        W 6587   0.411   3.100   1.375
 2537W        W 6588   4.678  10.412   3.169
 2538W        W 6589   0.047   9.631  10.886
 2539W        W 6590   5.640   6.209   1.807
 2540W        W 6591   6.235   8.088   9.493
 2541W        W 6592   2.638   5.112  11.271
 2542W        W 6593   6.065   2.013  11.376
 2543W        W 6594   1.404   4.215   0.006
 2544W        W 6595   6.583   7.604   1.905
 2545W        W 6596   3.603   9.387   3.886
 2546W        W 6597   0.886   7.226   9.047
 2547W        W 6598   7.539   2.288   2.186
 2548W        W 6599  11.327   6.980   3.145
 2549W        W 6600   7.124  10.513   9.860
 2550W        W 6601   8.915   9.196  10.720
 2551W        W 6602  10.337   2.785   0.873
 2552W        W 6603   8.745   6.838  11.942
 2553W        W 6604  11.091   9.002   1.018
 2554W        W 6605  10.429   0.796   9.863
 2555W        W 6606  10.377   3.678   0.683
 2556W        W 6607   1.852   5.851   9.865
 2557W        W 6608   9.756  10.611   2.787
 2558W        W 6609   9.772   0.935  11.911
 2559W        W 6610  10.880   3.504  10.816
 2560W        W 6611   8.824   5.629   9.108
 2561W        W 6612   5.731   3.630   3.440
 2562W        W 6613   3.767   9.859   8.349
 2563W        W 6614   7.486   9.197   0.236
 2564W        W 6615  10.315   5.349   3.884
 2565W        W 6616   0.174   5.660   3.258
 2566W        W 6617   1.685   5.096  11.500
 2567W        W 6618  10.392   8.105  11.459
 2568W        W 6619   6.855   7.210   3.600
 2569W        W 6620   9.662   5.064  10.379
 2570W        W 6621   0.246   1.936   0.363
 2571W        W 6622   7.065   9.484   0.286
 2572W        W 6623   3.021   4.685   9.638
 2573W        W 6624   6.432   4.728  10.023
 2574W        W 6625   4.763   0.485   9.409
 2575W        W 6626   4.905   4.378  10.349
 2576W        W 6627   7.053   1.801   3.138
 2577W        W 6628   8.932   6.318   9.526
 2578W        W 6629   9.903   9.589   2.588
 2579W        W 6630   4.614   8.368  10.530
 2580W        W 6631   4.859   5.720   1.549
 2581W        W 6632   2.214   2.062   9.607
 2582W        W 6633  11.238   5.276   8.938
 2583W        W 6634   6.483   2.692   2.173
 2584W        W 6635   9.356   8.520   0.758
 2585W        W 6636  10.318   3.104   3.720
 2586W        W 6637   2.909   2.464   9.983
 2587W        W 6638  10.558   3.676   2.946
 2588W        W 6639   3.605   7.566  10.250
 2589W        W 6640   1.749   8.434  10.472
 2590W        W 6641   5.004   3.510   0.924
 2591W        W 6642   0.966   2.665   1.756
 2592W        W 6643   3.820  10.933   9.493
 2593W        W 6644  11.408   2.121   3.449
 2594W        W 6645   8.915   5.101   9.796
 2595W        W 6646  11.500   5.550   3.754
 2596W        W 6647   7.372   6.429   0.763
 2597W        W 6648   1.276   0.896   3.280
 2598W        W 6649   3.107   0.217   2.447
 2599W        W 6650   2.727   6.895   9.917
 2600W        W 6651   8.045   3.819  11.038
 2601W        W 6652   9.697   5.215   2.548
 2602W        W 6653   7.221  10.038   8.977
 2603W        W 6654   2.278   5.759   9.605
 2604W        W 6655   3.594   1.773   9.362
 2605W        W 6656  10.965   4.800   9.368
 2606W        W 6657   8.571  11.165   3.549
 2607W        W 6658   3.894   9.324   1.333
 2608W        W 6659   8.039   9.201  10.186
 2609W        W 6660   0.931   5.345   9.097
 2610W        W 6661   0.371   7.682   1.982
 2611W        W 6662   1.638  11.342   2.415
 2612W        W 6663   9.317  10.371   1.340
 2613W        W 6664   0.836   4.834   9.085
 2614W        W 6665   3.270  10.287   0.848
 2615W        W 6666   7.205   2.254   9.163
 2616W        W 6667   9.515   1.495  10.329
 2617W        W 6668   3.787   5.072   1.235
 2618W        W 6669  10.354   7.912  10.311
 2619W        W 6670  10.988   9.331   2.065
 2620W        W 6671   1.815   0.446   0.671
 2621W        W 6672   2.845   9.922  11.965
 2622W        W 6673   0.579   3.319   2.779
 2623W        W 6674   3.901   5.630   1.612
 2624W        W 6675   9.214  10.616  11.709
 2625W        W 6676   2.184   1.740   0.860
 2626W        W 6677   2.229   6.183   2.458
 2627W        W 6678  10.956   7.516   3.492
 2628W        W 6679   7.256   5.669  10.740
 2629W        W 6680   2.954   8.995   2.902
 2630W        W 6681   1.360   5.457  11.135
 2631W        W 6682   5.635   0.725   8.930
 2632W        W 6683   0.376  11.012   2.119
 2633W        W 6684   9.462  10.595   9.372
 2634W        W 6685  10.351   2.270   1.669
 2635W        W 6686   3.136   1.654   0.920
 2636W        W 6687   4.513   3.666   9.938
 2637W        W 6688   7.917   7.121   1.671
 2638W        W 6689   2.059   4.235   8.858
 2639W        W 6690   0.411   4.767  10.263
 2640W        W 6691  10.746   8.648   0.905
 2641W        W 6692   5.396   2.830   1.900
 2642W        W 6693   3.142   7.506  11.007
 2643W        W 6694   5.581   4.103   1.240
 2644W        W 6695   4.569  11.323  10.583
 2645W        W 6696   0.977   9.756  11.958
 2646W        W 6697   3.934  10.598   1.523
 2647W        W 6698   5.066  10.320  11.007
 2648W        W 6699   4.218  10.615   3.410
 2649W        W 6700   4.725   4.285  10.816
 2650W        W 6701  10.802   1.186   2.088
 2651W        W 6702   2.486   7.609   3.290
 2652W        W 6703  10.433  10.392   9.131
 2653W        W 6704   4.705   8.855   1.416
 2654W        W 6705   4.709   3.930   1.506
 2655W        W 6706   7.725   3.982   2.789
 2656W        W 6707   6.978   3.813   0.742
 2657W        W 6708   4.260   3.290   2.274
 2658W        W 6709   5.772   7.112   0.693
 2659W        W 6710   9.500  10.571   0.496
 2660W        W 6711   9.540   0.988   0.831
 2661W        W 6712  10.328   8.360  10.589
 2662W        W 6713   0.436   6.928  11.232
 2663W        W 6714   7.958   1.708  10.082
 2664W        W 6715   8.417   5.053   8.646
 2665W        W 6716   9.841   7.630   9.911
 2666W        W 6717   1.478  10.408   3.225
 2667W        W 6718   0.859   0.997  10.329
 2668W        W 6719  10.448  11.464   3.481
 2669W        W 6720   6.204   9.920  10.065
 2670W        W 6721   9.108   8.904   1.056
 2671W        W 6722   9.816  10.362   1.235
 2672W        W 6723   6.127   2.954  11.222
 2673W        W 6724   8.898   1.032  11.002
 2674W        W 6725  11.198   0.218   2.242
 2675W        W 6726   2.750   5.090   2.633
 2676W        W 6727   8.492  11.228   2.624
 2677W        W 6728   3.217  11.017   1.799
 2678W        W 6729   1.443   3.308   9.459
 2679W        W 6730   9.520   3.659  11.645
 2680W        W 6731   9.814   2.150  10.506
 2681W        W 6732   7.315   8.943   2.169
 2682W        W 6733   7.589  11.217   8.990
 2683W        W 6734   5.785   7.768   3.255
 2684W        W 6735   7.994   0.479  10.472
 2685W        W 6736   6.972   0.479   2.262
 2686W        W 6737   1.003   9.241  11.861
 2687W        W 6738   4.749   0.974  11.466
 2688W        W 6739   7.445   0.060   2.674
 2689W        W 6740   6.985   6.709   0.879
 2690W        W 6741   6.081   7.432   2.697
 2691W        W 6742   6.621   2.673   0.648
 2692W        W 6743   6.721   3.039   2.967
 2693W        W 6744   7.175   8.942   2.655
 2694W        W 6745   6.551   8.347   1.403
 2695W        W 6746   4.784   2.904   8.701
 2696W        W 6747   8.498   6.068   0.206
 2697W        W 6748   3.819   9.874  10.729
 2698W        W 6749  10.406   1.544   1.349
 2699W        W 6750   2.374   6.058  10.486
 2700W        W 6751   0.284   4.491   8.925
 2701W        W 6752   8.435   7.134  11.662
 2702W        W 6753   1.433  10.068   1.821
 2703W        W 6754   5.631   1.464   9.405
 2704W        W 6755   3.733   0.843   9.468
 2705W        W 6756   9.799  11.273   1.401
 2706W        W 6757  10.533   2.670   9.611
 2707W        W 6758   8.121   0.499   0.874
 2708W        W 6759   8.722   3.119   3.538
 2709W        W 6760   9.935   2.355   1.317
 2710W        W 6761   7.625   9.826  10.283
 2711W        W 6762   3.308   0.702   2.339
 2712W        W 6763   6.110   1.799   1.857
 2713W        W 6764   3.176   7.848   3.291
 2714W        W 6765   5.050   9.143  10.270
 2715W        W 6766   2.429   5.171   9.039
 2716W        W 6767   7.757   5.535   3.969
 2717W        W 6768   4.089   5.737  10.423
 2718W        W 6769   2.227   4.653  10.811
 2719W        W 6770   0.598  10.234   9.413
 2720W        W 6771   8.174   6.803   9.059
 2721W        W 6772   6.121   9.602   9.220
 2722W        W 6773   5.872   3.896  10.269
 2723W        W 6774   8.993   8.149   2.708
 2724W        W 6775   0.192   6.041   2.664
 2725W        W 6776  11.144   8.824  10.520
 2726W        W 6777   5.417   0.362   1.883
 2727W        W 6778   0.427   7.850  10.492
 2728W        W 6779  10.902   9.610   3.643
 2729W        W 6780   0.441   3.872   1.811
 2730W        W 6781  11.340   9.867   9.839
 2731W        W 6782   0.715   5.522   1.468
 2732W        W 6783   0.513   8.422   9.585
 2733W        W 6784   0.626   1.917  10.664
 2734W        W 6785   7.196  10.064  10.089
 2735W        W 6786   4.547   5.814  10.157
 2736W        W 6787   7.850  10.892  10.162
 2737W        W 6788  10.071   6.568   3.290
 2738W        W 6789   7.403   0.815   1.108
 2739W        W 6790   5.584   5.154   9.721
 2740W        W 6791   9.913   3.982   2.574
 2741W        W 6792   5.599   8.454  10.463
 2742W        W 6793   8.486  10.176   1.870
 2743W        W 6794   5.209   4.946  11.131
 2744W        W 6795  10.923   8.200   9.050
 2745W        W 6796   7.483   3.478  11.909
 2746W        W 6797   7.144   5.153  10.854
 2747W        W 6798  11.327  10.268  11.524
 2748W        W 6799   0.961   1.156   1.853
 2749W        W 6800   2.217   6.462  10.915
 2750W        W 6801   5.212   4.125  10.796
 2751W        W 6802   8.886   2.329  10.505
 2752W        W 6803   2.919   7.146   2.225
 2753W        W 6804   7.807   3.090   0.096
 2754W        W 6805   8.090  11.357   0.414
 2755W        W 6806   7.528   1.191   9.481
 2756W        W 6807   4.317   8.281   2.034
 2757W        W 6808   2.630   6.719   1.390
 2758W        W 6809   6.477   3.185   1.408
 2759W        W 6810   2.411   4.710   8.825
 2760W        W 6811   7.089   9.910  11.999
 2761W        W 6812  11.135   5.714   0.726
 2762W        W 6813   5.940  10.085   1.848
 2763W        W 6814   9.583   7.967   2.380
 2764W        W 6815   5.244   4.755  10.202
 2765W        W 6816  10.040   1.346   9.025
 2766W        W 6817   5.588   0.390   0.001
 2767W        W 6818   4.824  10.371   0.334
 2768W        W 6819   7.609   8.152   1.092
 2769W        W 6820   2.233   6.128   0.343
 2770W        W 6821   2.818   9.023   1.945
 2771W        W 6822   2.232   0.439   1.504
 2772W        W 6823   2.125   4.649   2.393
 2773W        W 6824   4.031   2.047  11.896
 2774W        W 6825  10.546   1.197   2.715
 2775W        W 6826  10.219   5.108   9.075
 2776W        W 6827   7.733   4.499   2.837
 2777W        W 6828   2.132   5.060  11.227
 2778W        W 6829   3.949  10.684   0.353
 2779W        W 6830   8.659   7.810   3.202
 2780W        W 6831   2.905   9.621   1.233
 2781W        W 6832   5.646   1.205   2.494
 2782W        W 6833   7.682   4.670   8.484
 2783W        W 6834   2.551   4.225   9.445
 2784W        W 6835   7.009   7.575   0.802
 2785W        W 6836  10.288   4.554   0.961
 2786W        W 6837  10.386   8.673   2.292
 2787W        W 6838   4.624   2.760  11.872
 2788W        W 6839   6.504   2.192  10.225
 2789W        W 6840   8.319   3.162  11.966
 2790W        W 6841   8.202  10.535   8.897
 2791W        W 6842   5.784   9.843  10.917
 2792W        W 6843   8.522   9.152   0.259
 2793W        W 6844   5.301   2.297   1.744
 2794W        W 6845   8.501   4.626   1.366
 2795W        W 6846   5.541   8.936   2.359
 2796W        W 6847   5.894   1.198  10.794
 2797W        W 6848   9.765   4.500  11.214
 2798W        W 6849   6.525   0.598   2.746
 2799W        W 6850   2.928   3.254   1.305
 2800W        W 6851   7.174   9.351   3.416
 2801W        W 6852   3.221   6.271  10.256
 2802W        W 6853   5.076   6.475   1.812
 2803W        W 6854   4.474   7.964   9.343
 2804W        W 6855   5.698   7.476   9.446
 2805W        W 6856   9.438   3.370   9.761
 2806W        W 6857   9.535   1.225  11.325
 2807W        W 6858   3.736   4.612   2.622
 2808W        W 6859   5.497   3.680  10.532
 2809W        W 6860  10.106   7.635  11.766
 2810W        W 6861   0.788   6.920   1.753
 2811W        W 6862   0.418   7.938   0.741
 2812W        W 6863   5.671   0.764  11.495
 2813W        W 6864  11.023   8.232  10.217
 2814W        W 6865   9.874   0.213   2.290
 2815W        W 6866   9.834  11.334   9.036
 2816W        W 6867   8.619   9.293   1.908
 2817W        W 6868   7.184   1.884   8.804
 2818W        W 6869   4.701   9.090   8.951
 2819W        W 6870  10.100   4.685   9.390
 2820W        W 6871   1.362   4.167   1.468
 2821W        W 6872   7.136   0.370   3.424
 2822W        W 6873   2.429   1.003   2.201
 2823W        W 6874   1.354  11.397   3.489
 2824W        W 6875   2.970   7.069   8.118
 2825W        W 6876   8.491   0.220   9.019
 2826W        W 6877   0.637   5.793   9.065
 2827W        W 6878   9.979   9.800   8.778
 2828W        W 6879   6.611   1.265   2.433
 2829W        W 6880   4.546   1.818   9.054
 2830W        W 6881   0.276  11.279  11.630
 2831W        W 6882   9.018   6.850   0.383
 2832W        W 6883   6.275   9.014   0.756
 2833W        W 6884  10.648   7.017   2.211
 2834W        W 6885   8.966  10.004   1.924
 2835W        W 6886   3.701   0.628  11.148
 2836W        W 6887   7.869   1.649  11.942
 2837W        W 6888   3.093   1.122   2.553
 2838W        W 6889  11.389   1.285   8.809
 2839W        W 6890  10.239   6.154   2.707
 2840W        W 6891   0.456   3.551  11.138
 2841W        W 6892   8.635  10.302   3.945
 2842W        W 6893   5.232  10.628   1.900
 2843W        W 6894   6.618  10.935  11.519
 2844W        W 6895  10.905   6.839   2.667
 2845W        W 6896   7.496  10.500  11.816
 2846W        W 6897   5.626   6.119   9.370
 2847W        W 6898   1.796   6.027   2.736
 2848W        W 6899   2.388   7.065   2.301
 2849W        W 6900   0.248   9.921  11.573
 2850W        W 6901   2.232   3.884   2.786
 2851W        W 6902  11.452   8.454   3.278
 2852W        W 6903   7.135   6.421   9.636
 2853W        W 6904  10.457  10.574  11.536
 2854W        W 6905   1.070   7.442   2.220
 2855W        W 6906   3.975   3.699   2.181
 2856W        W 6907   8.960   6.353  10.475
 2857W        W 6908   6.566   8.534  11.662
 2858W        W 6909  10.445   1.917   2.282
 2859W        W 6910   1.285   3.343  10.335
 2860W        W 6911   6.047   7.147   2.236
 2861W        W 6912   4.516   3.930   9.505
 2862W        W 6913   0.858  10.702   1.976
 2863W        W 6914   0.414   8.854   0.465
 2864W        W 6915   3.773   2.175  10.086
 2865W        W 6916   7.098   0.404   9.962
 2866W        W 6917  11.087   3.794   1.970
 2867W        W 6918   7.125   0.353  11.002
 2868W        W 6919   7.551   6.679   3.832
 2869W        W 6920   9.627   7.819   0.031
 2870W        W 6921   5.029   8.197  11.167
 2871W        W 6922   4.895   8.006   2.543
 2872W        W 6923   1.573   5.975   8.564
 2873W        W 6924   6.099   9.654   2.066
 2874W        W 6925   1.750   4.152   1.830
 2875W        W 6926   1.066   7.378   8.581
 2876W        W 6927   5.347  10.297   0.408
 2877W        W 6928   0.503   9.942   0.027
 2878W        W 6929   8.349   8.649  11.953
 2879W        W 6930   8.687   5.629   3.111
 2880W        W 6931   5.583   4.717  11.439
 2881W        W 6932   0.759   1.878   0.455
 2882W        W 6933  10.135   4.251   0.410
 2883W        W 6934   6.633   1.916   0.555
 2884W        W 6935   5.323   7.397  11.387
 2885W        W 6936   5.459   9.126   9.471
 2886W        W 6937   5.632   0.770   3.272
 2887W        W 6938  10.357   4.226   2.517
 2888W        W 6939   2.072   8.789  10.848
 2889W        W 6940   6.068   7.086   1.334
 2890W        W 6941   4.805   3.843   3.690
 2891W        W 6942   5.921   2.370   2.703
 2892W        W 6943   9.342   3.775   9.057
 2893W        W 6944   1.703   4.648   2.036
 2894W        W 6945   4.770   2.268   9.104
 2895W        W 6946   2.181   6.632   1.143
 2896W        W 6947   0.034   7.533  10.580
 2897W        W 6948   3.961   9.313   2.868
 2898W        W 6949   1.981   4.146   2.360
 2899W        W 6950   5.095   2.331   4.047
 2900W        W 6951  10.069   2.202  10.050
 2901W        W 6952   3.422  10.257   2.156
 2902W        W 6953   3.790  10.803   3.160
 2903W        W 6954   7.053   9.139  10.561
 2904W        W 6955   7.992   2.805   2.259
 2905W        W 6956   7.077   3.806  10.803
 2906W        W 6957  10.863   2.620   0.233
 2907W        W 6958   7.174   9.581  10.337
 2908W        W 6959   2.284   9.999   2.357
 2909W        W 6960   4.083   6.492   2.031
 2910W        W 6961   7.593   4.726   1.865
 2911W        W 6962   0.409   1.360   8.982
 2912W        W 6963   0.897   3.725   2.018
 2913W        W 6964  11.331   6.255   2.355
 2914W        W 6965   6.772   8.923   2.235
 2915W        W 6966   2.100   0.725  10.848
 2916W        W 6967   2.910   4.680   8.688
 2917W        W 6968  11.048  10.395   9.803
 2918W        W 6969   7.573   3.612   9.943
 2919W        W 6970   0.709   3.109  11.901
 2920W        W 6971   7.505  10.255   3.160
 2921W        W 6972   4.217   3.386   1.762
 2922W        W 6973  10.885   9.467   9.975
 2923W        W 6974   9.547   8.341   3.163
 2924W        W 6975  11.065   4.500   8.857
 2925W        W 6976   8.349   9.482   1.003
 2926W        W 6977   0.956   0.149   9.713
 2927W        W 6978   9.051   4.759   0.277
 2928W        W 6979   6.725   3.811   1.435
 2929W        W 6980   5.179   5.982   1.907
 2930W        W 6981   0.861   3.081   3.118
 2931W        W 6982  10.307   5.552   8.405
 2932W        W 6983   0.992   7.944   0.090
 2933W        W 6984   7.559   3.650  10.962
 2934W        W 6985  11.248   0.252  10.538
 2935W        W 6986   1.868   8.453   2.700
 2936W        W 6987   1.820   3.683   1.579
 2937W        W 6988   8.423   4.778   0.022
 2938W        W 6989   4.755  11.205  11.149
 2939W        W 6990   0.936   3.142   1.489
 2940W        W 6991   7.314   9.963   2.768
 2941W        W 6992   6.913   4.143  11.512
 2942W        W 6993   3.307   2.727   9.617
 2943W        W 6994   1.121   1.926  10.849
 2944W        W 6995   0.654   9.318   9.489
 2945W        W 6996   1.803   8.313   0.352
 2946W        W 6997   7.400   4.850   1.406
 2947W        W 6998   5.420   7.048  11.766
 2948W        W 6999   4.691   3.465   1.324
 2949W        W 7000   0.784   5.095  10.439
 2950W        W 7001   9.934   3.238   3.354
 2951W        W 7002   1.759   8.147   9.376
 2952W        W 7003   3.015   4.808   3.387
 2953W        W 7004   9.704   1.977   0.711
 2954W        W 7005   0.757  10.109   0.899
 2955W        W 7006   2.747   8.363   9.631
 2956W        W 7007   3.767   7.971   9.960
 2957W        W 7008   8.712   3.024   2.725
 2958W        W 7009  10.585   8.189   9.947
 2959W        W 7010   0.381   1.940   3.215
 2960W        W 7011   1.718   9.961   9.811
 2961W        W 7012   2.681   4.744   3.811
 2962W        W 7013   9.919   9.931   9.859
 2963W        W 7014   0.023   0.194   1.365
 2964W        W 7015   6.635   4.541   1.940
 2965W        W 7016   1.711   0.001  11.550
 2966W        W 7017   5.010   4.336   9.476
 2967W        W 7018   5.232   8.932   3.545
 2968W        W 7019   8.226   3.057   3.614
 2969W        W 7020   7.689   6.583   8.961
 2970W        W 7021   7.172   7.571   2.764
 2971W        W 7022  10.259  10.429   2.758
 2972W        W 7023   7.174   4.227  11.049
 2973W        W 7024   9.738   3.693   3.508
 2974W        W 7025   2.764   0.755   1.664
 2975W        W 7026   8.620   9.048   0.783
 2976W        W 7027   5.024   3.165   1.814
 2977W        W 7028   3.114   0.741   1.272
 2978W        W 7029   4.825  10.692  11.226
 2979W        W 7030   2.151   5.242   4.263
 2980W        W 7031   7.117   0.493   0.801
 2981W        W 7032   2.803   6.115  11.495
 2982W        W 7033   2.125   0.749   9.970
 2983W        W 7034   1.828   9.991   8.875
 2984W        W 7035  10.719   8.613  10.366
 2985W        W 7036   0.497   5.008   8.368
 2986W        W 7037   4.156   2.665   9.520
 2987W        W 7038   7.163   6.381   3.990
 2988W        W 7039   7.480   9.067   1.633
 2989W        W 7040   3.216   6.582  10.738
 2990W        W 7041   0.999   4.426  11.208
 2991W        W 7042   2.261   3.755  10.248
 2992W        W 7043  11.378  10.937   3.309
 2993W        W 7044   9.867  10.873   3.281
 2994W        W 7045   5.959   0.928  10.332
 2995W        W 7046   1.261   7.658   0.860
 2996W        W 7047   6.899   7.020   1.568
 2997W        W 7048  10.786   6.061  10.334
 2998W        W 7049   8.662   0.450   9.459
 2999W        W 7050   4.730   4.778  10.993
 3000W        W 7051   9.641   3.578   1.706
 3001W        W 7052   9.401   6.446   2.092
 3002W        W 7053   5.736   9.931   2.368
 3003W        W 7054   8.472   7.817  10.978
 3004W        W 7055   4.679   3.640   0.529
 3005W        W 7056   3.682   3.513  10.420
 3006W        W 7057   9.138   2.762  10.345
 3007W        W 7058   4.262   7.778   0.402
 3008W        W 7059   0.679   1.571   9.509
 3009W        W 7060  10.455   0.404   0.537
 3010W        W 7061   0.285   5.878   9.455
 3011W        W 7062   1.098   8.227   8.903
 3012W        W 7063   9.081   1.727  11.438
 3013W        W 7064   8.917   9.091   1.505
 3014W        W 7065   4.601   0.242   0.899
 3015W        W 7066   1.345   3.718   0.198
 3016W        W 7067   9.269   5.649   3.264
 3017W        W 7068   8.407   9.007   9.869
 3018W        W 7069   4.013   7.444   0.730
 3019W        W 7070   9.036   2.255   1.163
 3020W        W 7071   8.393   4.364   2.244
 3021W        W 7072   6.028  10.489   0.661
 3022W        W 7073  11.265   1.783   1.625
 3023W        W 7074   7.119   4.833   2.122
 3024W        W 7075   2.141   4.252   3.195
 3025W        W 7076   3.278  10.829  10.371
 3026W        W 7077   0.853   5.341  11.362
 3027W        W 7078   5.536   2.797  10.005
 3028W        W 7079   1.772   1.633   3.105
 3029W        W 7080   4.469   7.589   0.908
 3030W        W 7081   1.758   6.036   9.389
 3031W        W 7082   4.187   7.572  11.871
 3032W        W 7083  11.128   9.171   3.392
 3033W        W 7084   4.016   6.669  10.375
 3034W        W 7085   6.182   7.918   2.647
 3035W        W 7086   5.425   1.887   8.525
 3036W        W 7087   0.588   3.380   1.770
 3037W        W 7088   3.540   1.282   3.348
 3038W        W 7089  11.018   1.041   2.524
 3039W        W 7090   4.661   8.104   0.242
 3040W        W 7091   7.450   4.019   9.674
 3041W        W 7092   7.084   6.740   3.601
 3042W        W 7093   8.699   6.474   3.166
 3043W        W 7094   5.967   5.962   0.398
 3044W        W 7095  10.485  10.789   1.875
 3045W        W 7096   4.793   1.982  11.517
 3046W        W 7097   1.472  10.333   9.088
 3047W        W 7098   8.039   3.270   1.589
 3048W        W 7099   6.324  10.705   2.323
 3049W        W 7100   5.505   8.377   9.098
 3050W        W 7101   3.241   9.647   4.174
 3051W        W 7102   2.128   5.579   3.884
 3052W        W 7103   3.982  11.027   1.207
 3053W        W 7104   7.025   3.231   0.071
 3054W        W 7105   7.874   0.764  10.066
 3055W        W 7106  10.110  10.296   8.645
 3056W        W 7107   0.005   4.100   2.007
 3057W        W 7108  10.077   3.441   2.888
 3058W        W 7109   6.750   7.338  11.922
 3059W        W 7110   2.624   0.875   9.037
 3060W        W 7111   2.532   9.632   2.632
 3061W        W 7112   0.859   6.806   2.751
 3062W        W 7113   1.407   1.245  11.939
 3063W        W 7114  11.361   1.317  11.536
 3064W        W 7115   2.038   4.859   9.831
 3065W        W 7116   3.246   5.082   8.680
 3066W        W 7117   5.084   3.911  10.338
 3067W        W 7118   1.175   1.238   1.380
 3068W        W 7119   9.957   2.263   9.054
 3069W        W 7120   7.476   4.975   9.663
 3070W        W 7121   8.956   9.100   2.982
 3071W        W 7122   2.221   9.978   9.856
 3072W        W 7123   4.598  11.095   2.330
 3073W        W 7124   6.675   7.807   0.092
 3074W        W 7125   1.720   8.679  11.393
 3075W        W 7126   8.572  10.706   1.935
 3076W        W 7127   9.961   1.470   1.629
 3077W        W 7128   7.869   3.685   2.393
 3078W        W 7129  10.848   3.093   0.020
 3079W        W 7130   1.596   7.403   3.448
 3080W        W 7131   7.558   6.564   2.429
 3081W        W 7132   9.595   6.587   3.089
 3082W        W 7133   8.434   0.643   1.726
 3083W        W 7134   8.343   0.126  10.369
 3084W        W 7135  11.386   8.084   8.828
 3085W        W 7136   3.069   7.045   2.932
 3086W        W 7137   9.914   0.931   2.975
 3087W        W 7138   2.119   1.282  10.007
 3088W        W 7139   1.634   4.525   2.523
 3089W        W 7140   3.743  10.061   9.786
 3090W        W 7141   0.734  10.556   0.592
 3091W        W 7142   5.166  11.057   3.470
 3092W        W 7143   0.057   8.536   1.772
 3093W        W 7144   8.006   1.950   1.222
 3094W        W 7145   1.191   3.224   0.063
 3095W        W 7146   7.566  11.483   0.655
 3096W        W 7147  11.202   2.239   1.361
 3097W        W 7148   6.782   8.638  10.714
 3098W        W 7149   3.802   3.712   0.734
 3099W        W 7150   8.714   1.386   9.259
 3100W        W 7151  10.969   5.079   3.271
 3101W        W 7152   9.382   8.401  10.971
 3102W        W 7153   4.775   1.668   2.868
 3103W        W 7154   6.322   7.259   3.558
 3104W        W 7155   5.990   6.222   2.210
 3105W        W 7156   0.295   8.796   8.793
 3106W        W 7157   2.951  10.921  10.779
 3107W        W 7158   6.856   2.344   0.329
 3108W        W 7159  11.276   0.801   3.696
 3109W        W 7160   4.067   7.068  11.702
 3110W        W 7161   9.754   1.440  11.987
 3111W        W 7162   1.481   7.788   3.095
 3112W        W 7163   3.864   2.749  10.856
 3113W        W 7164   3.315   4.728   9.055
 3114W        W 7165   2.203  10.476   3.031
 3115W        W 7166   5.534   3.576   3.910
 3116W        W 7167   9.487   3.342   9.258
 3117W        W 7168   6.215  10.696   8.964
 3118W        W 7169   1.339   3.604   2.312
 3119W        W 7170   1.009   3.187   9.158
 3120W        W 7171   6.272   8.778  10.833
 3121W        W 7172   5.495   5.562  11.410
 3122W        W 7173   1.822   2.774   2.277
 3123W        W 7174   0.997   8.466   0.723
 3124W        W 7175   3.825   9.482   2.422
 3125W        W 7176   5.199   2.556  10.285
 3126W        W 7177  10.638   4.410   0.256
 3127W        W 7178   4.000   4.926   8.205
 3128W        W 7179   2.790   4.614   9.185
 3129W        W 7180   1.649   5.152  10.315
 3130W        W 7181   8.893   9.613  11.904
 3131W        W 7182   9.987   0.772  10.568
 3132W        W 7183   2.984  10.875   2.653
 3133W        W 7184   8.904  11.002  10.875
 3134W        W 7185   7.096   8.429   2.865
 3135W        W 7186   4.352   8.050   1.370
 3136W        W 7187   4.207   9.781   2.261
 3137W        W 7188   0.962   9.341   9.929
 3138W        W 7189   1.227   8.787   8.825
 3139W        W 7190   9.845   3.625   9.939
 3140W        W 7191   4.202   3.588   9.235
 3141W        W 7192   9.369   9.981  10.371
 3142W        W 7193   8.874   9.417   8.682
 3143W        W 7194   7.654   8.122   2.528
 3144W        W 7195   1.356   8.354   1.484
 3145W        W 7196   8.648   2.624  11.035
 3146W        W 7197  11.347   9.353   1.295
 3147W        W 7198  10.706   6.081   0.947
 3148W        W 7199   1.900   7.908  10.534
 3149W        W 7200   1.918   0.855   2.098
 3150W        W 7201  10.384   9.391   2.747
 3151W        W 7202   2.764  11.294   9.334
 3152W        W 7203   4.181   0.927  11.835
 3153W        W 7204  10.248   8.593   0.983
 3154W        W 7205   6.640   7.666   2.775
 3155W        W 7206   3.590   0.483   1.324
 3156W        W 7207  10.744   4.824  11.242
 3157W        W 7208   3.179   6.410   0.297
 3158W        W 7209   6.713  11.418  11.341
 3159W        W 7210   1.135   1.619   8.430
 3160W        W 7211   3.829   8.803  11.448
 3161W        W 7212  10.443   4.726   1.428
 3162W        W 7213   5.397   6.530  11.812
 3163W        W 7214   5.169   0.758  11.266
 3164W        W 7215   1.301  11.045   0.375
 3165W        W 7216   3.199   3.870   1.367
 3166W        W 7217  11.279   5.765   8.729
 3167W        W 7218  10.430   3.053   9.055
 3168W        W 7219   1.431   0.132   2.999
 3169W        W 7220   6.281   7.670   3.145
 3170W        W 7221   7.868   4.157   0.710
 3171W        W 7222   6.733   3.673   3.283
 3172W        W 7223   3.862   6.582  11.800
 3173W        W 7224  10.681   5.662  11.438
 3174W        W 7225   4.772   9.897   9.707
 3175W        W 7226   4.056   0.920   1.215
 3176W        W 7227   9.539   4.371   3.243
 3177W        W 7228   8.514   8.694  10.556
 3178W        W 7229   0.075   8.987  10.253
 3179W        W 7230   0.745   6.371   0.866
 3180W        W 7231   4.301   9.017   3.116
 3181W        W 7232   6.278   0.133   0.515
 3182W        W 7233   5.870   3.334   3.049
 3183W        W 7234   2.221   5.299   2.962
 3184W        W 7235   6.454   5.875  10.536
 3185W        W 7236  10.376   7.167  10.023
 3186W        W 7237   9.820   5.753   0.513
 3187W        W 7238   3.535   8.465   0.643
 3188W        W 7239   8.369  10.031   0.695
 3189W        W 7240   9.183   6.509   3.375
 3190W        W 7241   9.239   8.097   8.579
 3191W        W 7242   1.979   2.709   0.209
 3192W        W 7243   1.665  10.019  10.324
 3193W        W 7244   4.479  10.937   1.265
 3194W        W 7245   6.226   5.730  10.086
 3195W        W 7246  10.555   3.680  11.801
 3196W        W 7247  10.008   1.813   8.763
 3197W        W 7248   9.966   6.148   3.567
 3198W        W 7249   6.964   1.318  10.968
 3199W        W 7250   0.328   2.945   3.474
 3200W        W 7251   8.495   5.832   0.681
 3201W        W 7252   8.872   5.456   1.459
 3202W        W 7253   3.317   2.722  10.171
 3203W        W 7254   4.651   6.718   9.130
 3204W        W 7255   8.476   7.460   9.787
 3205W        W 7256   3.694  10.178   8.974
 3206W        W 7257  10.683   9.503   9.331
 3207W        W 7258  11.330   8.367   0.254
 3208W        W 7259  10.899   7.004  10.330
 3209W        W 7260   3.579   1.371  11.173
 3210W        W 7261   2.093   4.491   3.654
 3211W        W 7262   3.143  10.362  11.141
 3212W        W 7263  11.244   9.377   0.206
 3213W        W 7264   8.057   7.955   0.322
 3214W        W 7265   5.791   0.553  10.652
 3215W        W 7266   0.454   8.170   1.189
 3216W        W 7267   1.277   4.326   1.934
 3217W        W 7268   2.061   5.128   8.103
 3218W        W 7269   4.017   7.932   2.339
 3219W        W 7270   7.011  10.820   1.708
 3220W        W 7271   9.438   9.855   1.746
 3221W        W 7272   3.413   4.323   2.366
 3222W        W 7273   1.649   0.548   9.103
 3223W        W 7274   0.335   3.470   8.862
 3224W        W 7275   8.069   7.669   9.998
 3225W        W 7276   9.199   1.455  11.018
 3226W        W 7277   0.776   1.261   1.016
 3227W        W 7278   3.812  11.063   2.549
 3228W        W 7279   7.366   2.437  11.332
 3229W        W 7280   4.115   4.688   2.299
 3230W        W 7281   2.851  10.335   3.394
 3231W        W 7282  10.949   9.627   1.124
 3232W        W 7283   3.090  10.443  10.642
 3233W        W 7284   5.817   1.711   2.429
 3234W        W 7285   2.833  10.098   1.032
 3235W        W 7286   9.786   4.823   3.224
 3236W        W 7287  10.898  11.320   2.659
 3237W        W 7288   6.717   1.261  11.443
 3238W        W 7289  11.062  10.366   2.344
 3239W        W 7290   1.002  11.275  10.457
 3240W        W 7291   9.299  11.294   1.401
 3241W        W 7292   0.924   6.990  11.375
 3242W        W 7293   9.342   1.924  10.552
 3243W        W 7294   5.453   1.412  10.968
 3244W        W 7295   1.699   2.032   2.780
 3245W        W 7296   7.818  10.089   2.799
 3246W        W 7297   3.259   7.284   9.071
 3247W        W 7298   4.848   8.229   2.085
 3248W        W 7299   2.814  10.607   0.993
 3249W        W 7300   8.645   2.124   1.832
 3250W        W 7301   5.698   5.112  11.072
 3251W        W 7302   0.660   3.303   0.985
 3252W        W 7303   6.577   1.242   1.930
 3253W        W 7304   0.806   4.018   9.477
 3254W        W 7305   6.988   9.995  10.558
 3255W        W 7306  10.883   8.575   2.212
 3256W        W 7307   3.609   7.547  10.771
 3257W        W 7308   0.280   2.629   0.558
 3258W        W 7309   8.998   1.894   1.510
 3259W        W 7310   0.470   9.484   9.932
 3260W        W 7311   0.707   5.789  11.585
 3261W        W 7312   1.452   1.960   0.274
 3262W        W 7313   9.504   2.869   0.002
 3263W        W 7314   4.881   9.560   1.448
 3264W        W 7315   2.498   7.567  10.224
 3265W        W 7316   6.549   6.713  10.772
 3266W        W 7317   0.381   4.794   9.344
 3267W        W 7318   8.936  10.011  10.642
 3268W        W 7319   2.878   7.194   1.403
 3269W        W 7320   7.079   3.601   1.765
 3270W        W 7321   1.000   0.961  11.790
 3271W        W 7322   9.964   1.270  11.579
 3272W        W 7323   1.694   5.696  10.833
 3273W        W 7324   5.419  11.312  10.345
 3274W        W 7325  10.547   4.611   9.104
 3275W        W 7326   0.315   7.160  10.803
 3276W        W 7327   5.430  10.401   9.776
 3277W        W 7328   1.402   0.801  11.518
 3278W        W 7329   9.849   9.359  10.124
 3279W        W 7330   2.684   2.644   9.146
 3280W        W 7331   4.975   5.359  11.320
 3281W        W 7332   1.704   4.775  11.904
 3282W        W 7333   8.895   2.917   0.796
 3283W        W 7334   4.522   7.857   2.208
 3284W        W 7335  11.477   0.759   1.416
 3285W        W 7336   6.701   7.977  10.476
 3286W        W 7337  11.271   1.571   9.790
 3287W        W 7338   4.866   9.357   9.853
 3288W        W 7339   1.750   8.963   2.730
 3289W        W 7340   8.213   8.509   1.391
 3290W        W 7341   4.140   4.704   1.296
 3291W        W 7342   0.834   9.792   9.538
 3292W        W 7343   0.936   6.423   2.412
 3293W        W 7344  10.355   8.373   2.733
 3294W        W 7345  10.930   5.703   1.210
 3295W        W 7346  10.096   5.231   2.196
 3296W        W 7347   5.766   1.184   2.996
 3297W        W 7348   9.574   8.877  11.826
 3298W        W 7349   1.212   6.711   9.215
 3299W        W 7350   5.207   5.089   0.988
 3300W        W 7351   1.315   2.402   3.457
 3301W        W 7352   5.312   2.555   2.796
 3302W        W 7353   2.288   4.791   0.676
 3303W        W 7354   1.967  10.875  10.767
 3304W        W 7355   2.206  11.266   0.740
 3305W        W 7356   0.296   9.018   9.751
 3306W        W 7357   1.216  11.268   9.993
 3307W        W 7358  11.205   6.287   8.867
 3308W        W 7359   3.635   1.776   3.189
 3309W        W 7360   3.227   8.486   9.401
 3310W        W 7361   0.061   2.935   9.548
 3311W        W 7362   6.421   3.331   0.330
 3312W        W 7363   5.052  10.851   2.440
 3313W        W 7364   2.810   0.240   9.584
 3314W        W 7365   0.819   5.811   0.082
 3315W        W 7366   2.006   7.993  11.044
 3316W        W 7367   8.818   0.788   9.819
 3317W        W 7368   2.332   1.416   2.844
 3318W        W 7369   9.500   7.133   0.346
 3319W        W 7370   7.374   8.926   8.381
 3320W        W 7371   0.064  10.554   1.894
 3321W        W 7372   1.790  10.305  10.781
 3322W        W 7373   0.789   7.312  10.981
 3323W        W 7374   8.159   4.249   2.676
 3324W        W 7375   0.405   2.628   2.486
 3325W        W 7376   8.270   6.684  11.882
 3326W        W 7377   6.923   2.727   1.755
 3327W        W 7378   5.727   5.613  10.944
 3328W        W 7379  11.251   0.739   8.833
 3329W        W 7380   4.764   7.972   9.776
 3330W        W 7381   4.375  10.857  11.104
 3331W        W 7382   3.228   0.947   9.595
 3332W        W 7383   2.439   2.814   0.048
 3333W        W 7384  10.399   3.161   9.555
 3334W        W 7385   3.405   4.660  11.632
 3335W        W 7386   3.947   8.789  10.953
 3336W        W 7387   2.687   7.221   2.663
 3337W        W 7388   3.546   5.523   8.731
 3338W        W 7389   9.461   8.023   9.071
 3339W        W 7390   8.035   0.835  10.864
 3340W        W 7391   8.235  10.497  10.338
 3341W        W 7392   5.145  11.464   8.977
 3342W        W 7393   9.106  10.899  10.405
 3343W        W 7394  10.809   7.952  11.204
 3344W        W 7395   0.722   2.579   9.810
 3345W        W 7396   1.882  10.564   1.290
 3346W        W 7397  10.944   4.481   3.665
 3347W        W 7398  11.378   3.077   3.209
 3348W        W 7399   2.426   7.162   8.986
 3349W        W 7400   6.500   4.304   9.586
 3350W        W 7401   1.894   3.830   0.856
 3351W        W 7402   9.527   4.574   1.396
 3352W        W 7403   7.939   9.809  11.777
 3353W        W 7404   7.534   7.720   0.454
 3354W        W 7405   5.033   6.493   0.266
 3355W        W 7406   6.419   4.121   8.638
 3356W        W 7407  10.243   9.081  10.366
 3357W        W 7408  11.290   6.544   0.307
 3358W        W 7409   6.515  10.929  10.343
 3359W        W 7410   5.064  11.341  10.758
 3360W        W 7411   4.746   4.133   9.909
 3361W        W 7412   4.653   9.214   1.794
 3362W        W 7413   8.858   6.578   0.802
 3363W        W 7414   2.495   3.217  11.724
 3364W        W 7415   8.765   8.005   9.478
 3365W        W 7416   6.472   2.731   8.895
 3366W        W 7417   3.731   5.690  10.819
 3367W        W 7418   3.187   1.417   9.796
 3368W        W 7419  10.115   7.927   2.385
 3369W        W 7420   9.876   7.017   3.116
 3370W        W 7421   7.429   5.736   1.785
 3371W        W 7422   2.682  10.436  10.942
 3372W        W 7423   2.186  10.482  11.064
 3373W        W 7424   5.180  10.210  11.935
 3374W        W 7425   8.997   6.591   2.426
 3375W        W 7426   1.895   8.927   3.596
 3376W        W 7427   9.559   2.650  11.540
 3377W        W 7428  11.451  10.270  10.116
 3378W        W 7429   3.088   1.910   3.095
 3379W        W 7430   4.914   5.693  10.526
 3380W        W 7431   4.670   3.428   9.484
 3381W        W 7432   8.043   1.069  11.326
 3382W        W 7433   0.785   9.287  11.378
 3383W        W 7434   7.375   3.607   2.666
 3384W        W 7435   1.677   6.701   8.925
 3385W        W 7436   3.780   9.783  11.252
 3386W        W 7437   5.268   0.672   9.378
 3387W        W 7438   5.667   5.043   9.219
 3388W        W 7439   7.524   9.435   9.512
 3389W        W 7440   3.024  10.364   1.844
 3390W        W 7441   9.783   0.456  10.903
 3391W        W 7442   3.695   3.365   2.716
 3392W        W 7443   8.196   5.862   9.431
 3393W        W 7444   6.933   6.417  10.965
 3394W        W 7445   2.560   8.797  11.943
 3395W        W 7446   3.731   5.053   8.841
 3396W        W 7447   2.267   1.376   0.499
 3397W        W 7448  11.102   0.855   1.775
 3398W        W 7449   7.962   0.781   0.477
 3399W        W 7450   9.447   5.517   0.259
 3400W        W 7451   5.745   7.673  11.476
 3401W        W 7452   6.851   9.495   8.049
 3402W        W 7453   4.483   8.127   0.747
 3403W        W 7454   8.859   6.188   2.738
 3404W        W 7455   0.439   4.528   0.148
 3405W        W 7456   6.265  10.245   9.238
 3406W        W 7457   8.421   7.055   2.553
 3407W        W 7458   2.669   9.220  10.405
 3408W        W 7459   1.920   7.078  10.250
 3409W        W 7460   3.597   3.832   2.501
 3410W        W 7461   3.374   5.442   0.463
 3411W        W 7462   6.071   5.415   1.925
 3412W        W 7463   3.914   0.883   1.699
 3413W        W 7464   7.414   2.144   3.461
 3414W        W 7465   5.745  10.926  10.972
 3415W        W 7466  11.372   8.118   9.841
 3416W        W 7467   0.708   5.990   2.611
 3417W        W 7468   5.782   8.491   2.323
 3418W        W 7469   0.596   3.392   2.272
 3419W        W 7470   7.465   3.340  11.386
 3420W        W 7471   6.036  11.464   3.152
 3421W        W 7472   5.196   1.213  10.581
 3422W        W 7473   7.426   8.520   0.275
 3423W        W 7474   1.846  10.090   1.035
 3424W        W 7475   3.776   7.023   3.252
 3425W        W 7476  11.129   8.477   1.195
 3426W        W 7477   4.620   6.206  11.753
 3427W        W 7478   1.665   4.313   0.832
 3428W        W 7479   8.016   4.616   1.174
 3429W        W 7480   6.796   4.026   2.707
 3430W        W 7481   9.055   3.247   1.429
 3431W        W 7482  10.671   7.986  10.704
 3432W        W 7483   0.128   1.086   9.918
 3433W        W 7484   9.216  10.260   9.048
 3434W        W 7485   7.950   8.231   9.293
 3435W        W 7486   8.031   0.934   1.817
 3436W        W 7487   6.155   6.764   3.107
 3437W        W 7488   4.524   1.267   0.874
 3438W        W 7489  11.434  10.769  10.008
 3439W        W 7490  11.306   6.522   2.804
 3440W        W 7491   4.532   1.605   8.561
 3441W        W 7492   2.291   3.868   9.162
 3442W        W 7493   8.944   9.894  11.482
 3443W        W 7494   1.908   5.921   0.690
 3444W        W 7495   2.931   9.047   0.328
 3445W        W 7496   2.319   1.043   9.566
 3446W        W 7497   5.051   0.788   1.187
 3447W        W 7498   9.298   1.335   1.169
 3448W        W 7499   8.344  10.891  10.915
 3449W        W 7500   0.311   5.738   0.075
 3450W        W 7501   6.680   4.218  10.945
 3451W        W 7502   2.352  11.385   1.431
 3452W        W 7503   3.713   1.404  10.666
 3453W        W 7504   3.991   1.477   3.514
 3454W        W 7505   8.904   9.953  10.100
 3455W        W 7506   7.154   2.384   8.652
 3456W        W 7507   0.980   2.652   9.360
 3457W        W 7508   9.387   4.401   8.533
 3458W        W 7509   3.783   1.277   9.140
 3459W        W 7510   4.658   3.352   3.653
 3460W        W 7511   8.438  10.342   9.459
 3461W        W 7512   0.722   7.100   3.143
 3462W        W 7513   4.485   0.128  11.022
 3463W        W 7514   4.362   6.626   2.458
 3464W        W 7515   5.600   8.036   1.398
 3465W        W 7516   4.972   3.926   3.206
 3466W        W 7517   6.226  10.193   2.246
 3467W        W 7518   5.631   3.069   1.266
 3468W        W 7519   0.410   2.125   2.465
 3469W        W 7520  10.874   2.133   0.395
 3470W        W 7521   6.977   6.496   1.632
 3471W        W 7522   4.639   0.943  10.608
 3472W        W 7523   5.205   2.081  10.039
 3473W        W 7524   8.091   7.862  11.319
 3474W        W 7525   6.396   7.673   4.060
 3475W        W 7526   8.135   6.180  11.857
 3476W        W 7527   8.801   4.760   3.496
 3477W        W 7528   1.889   1.690   0.346
 3478W        W 7529  11.190   3.344   1.803
 3479W        W 7530  11.039  10.860   9.011
 3480W        W 7531   3.709   7.918   1.444
 3481W        W 7532   9.140   1.694   2.433
 3482W        W 7533   0.254   1.877   9.428
 3483W        W 7534   0.375  10.872  11.272
 3484W        W 7535   5.545  10.677   0.662
 3485W        W 7536   8.810   4.060   2.169
 3486W        W 7537   2.052   6.124   8.436
 3487W        W 7538   9.592   1.489   8.760
 3488W        W 7539   0.541   5.567   2.870
 3489W        W 7540   2.368  10.841   2.291
 3490W        W 7541   8.783   5.820   1.838
 3491W        W 7542  10.497   4.647   2.792
 3492W        W 7543   1.354   6.124   2.471
 3493W        W 7544  10.375   1.354   9.905
 3494W        W 7545   7.604   8.067   0.109
 3495W        W 7546   6.579   8.974  10.371
 3496W        W 7547   8.010   7.729   9.150
 3497W        W 7548  10.388   9.846   9.611
 3498W        W 7549   6.471   1.932   9.786
 3499W        W 7550   8.919   0.843   2.990
 3500W        W 7551   7.164   2.090  10.030
 3501W        W 7552   8.289   0.225   8.522
 3502W        W 7553   3.240   7.034   9.991
 3503W        W 7554   0.974   3.751  10.387
 3504W        W 7555   5.755   6.518   8.609
 3505W        W 7556   8.950   6.043   3.222
 3506W        W 7557   6.522   6.684   0.688
 3507W        W 7558   9.364   4.377   0.959
 3508W        W 7559   6.701   0.400   0.491
 3509W        W 7560   2.397   3.714   0.850
 3510W        W 7561  11.445   0.416  11.644
 3511W        W 7562   7.627   7.547   1.759
 3512W        W 7563   1.654   1.337  10.350
 3513W        W 7564  11.053   9.445  10.872
 3514W        W 7565   6.363   9.904   8.847
 3515W        W 7566   4.188  10.505   1.043
 3516W        W 7567   2.741  10.460  11.954
 3517W        W 7568   5.604   2.197   3.073
 3518W        W 7569   5.635   0.676   1.000
 3519W        W 7570   5.307   1.371   3.085
 3520W        W 7571   3.299   8.036  10.717
 3521W        W 7572   4.331   5.075  10.810
 3522W        W 7573   2.205   2.343   3.431
 3523W        W 7574   7.277   4.573   3.519
 3524W        W 7575   1.931   9.869   0.270
 3525W        W 7576   6.075   3.687   9.141
 3526W        W 7577   7.230   7.496  11.784
 3527W        W 7578   3.726   2.604   0.272
 3528W        W 7579   5.998   8.259   3.537
 3529W        W 7580   9.483   0.501   0.976
 3530W        W 7581   5.664   3.135   3.578
 3531W        W 7582   9.447   7.031  10.216
 3532W        W 7583   3.766   4.104   9.667
 3533W        W 7584   1.704   3.080   0.434
 3534W        W 7585   3.343   6.006   8.707
 3535W        W 7586  10.726   9.043   2.425
 3536W        W 7587   1.944   1.655  10.611
 3537W        W 7588  11.335  10.426   8.995
 3538W        W 7589   4.380   4.416  10.333
 3539W        W 7590   3.362   2.840  11.563
 3540W        W 7591   4.093   7.434  11.342
 3541W        W 7592   3.823   4.490  10.028
 3542W        W 7593   1.637   0.410  11.270
 3543W        W 7594   4.822  11.343   1.334
 3544W        W 7595   9.287   9.123   8.484
 3545W        W 7596   1.987   2.050   8.792
 3546W        W 7597   3.021   4.095   0.819
 3547W        W 7598   2.856   3.666   1.032
 3548W        W 7599   6.152   9.911   2.664
 3549W        W 7600   2.162  10.841   9.172
 3550W        W 7601  10.869   6.983   9.476
 3551W        W 7602   5.219   8.526   9.507
 3552W        W 7603  11.144   3.798  10.487
 3553W        W 7604  11.180   8.300  11.212
 3554W        W 7605   0.237   7.539  11.988
 3555W        W 7606   0.371   8.116  10.024
 3556W        W 7607   4.310   5.122   2.087
 3557W        W 7608   6.090   3.653  11.915
 3558W        W 7609   6.568   2.084  11.534
 3559W        W 7610   7.178   3.179   2.486
 3560W        W 7611  10.021   4.389   1.549
 3561W        W 7612  10.220   6.570   0.437
 3562W        W 7613   8.491   3.805  11.935
 3563W        W 7614   4.933   8.423   0.855
 3564W        W 7615   9.973   1.325  11.066
 3565W        W 7616   3.533   6.202  11.994
 3566W        W 7617   2.579   7.084   3.138
 3567W        W 7618   1.506   1.244   8.385
 3568W        W 7619   0.403   5.570   1.048
 3569W        W 7620   5.993   8.381   0.752
 3570W        W 7621  10.324   4.738   2.315
 3571W        W 7622   7.703   6.667   1.597
 3572W        W 7623   6.452   8.582   3.599
 3573W        W 7624   1.707   8.349   0.908
 3574W        W 7625   0.526   7.052   8.691
 3575W        W 7626   1.382   1.401   8.847
 3576W        W 7627   9.537   6.099   8.531
 3577W        W 7628  11.358   1.563   9.263
 3578W        W 7629   5.849   5.057   2.693
 3579W        W 7630   7.600  11.459   0.153
 3580W        W 7631   1.412  10.761   1.319
 3581W        W 7632   7.944   1.498   1.007
 3582W        W 7633   2.345  10.412   3.513
 3583W        W 7634   0.400   8.434   3.553
 3584W        W 7635  11.182  11.345   8.805
 3585W        W 7636   6.135   7.648   2.193
 3586W        W 7637  11.034   2.294   0.869
 3587W        W 7638   9.501  11.173   1.856
 3588W        W 7639   9.665   6.634   3.604
 3589W        W 7640   3.353   0.430   0.493
 3590W        W 7641   6.598   5.311   1.362
 3591W        W 7642  10.140   6.933   2.254
 3592W        W 7643   6.765   1.190  10.068
 3593W        W 7644   4.452   9.533   8.932
 3594W        W 7645   3.268   0.060   3.457
 3595W        W 7646   2.856   6.716   0.544
 3596W        W 7647   1.302   1.636   2.283
 3597W        W 7648   0.797   7.104   9.978
 3598W        W 7649   2.963   7.040  10.793
 3599W        W 7650   3.807   2.592  11.354
 3600W        W 7651   8.943  10.477   9.438
 3601W        W 7652   0.273   3.384   3.190
 3602W        W 7653   2.119   8.571   0.656
 3603W        W 7654   5.226   9.873   1.148
 3604W        W 7655   3.759   8.414  10.247
 3605W        W 7656   5.333  11.317   1.250
 3606W        W 7657   3.406  10.006   3.200
 3607W        W 7658   3.834   4.363  11.818
 3608W        W 7659   2.430   7.968  11.315
 3609W        W 7660   5.476   6.998   9.558
 3610W        W 7661   6.264   5.882   8.610
 3611W        W 7662  10.269   9.422   9.005
 3612W        W 7663   4.669   6.441  10.824
 3613W        W 7664   2.910   5.271  10.869
 3614W        W 7665   3.011   2.463   3.151
 3615W        W 7666  10.064   5.664   9.678
 3616W        W 7667   3.632   4.343  10.961
 3617W        W 7668   6.580   1.214   0.902
 3618W        W 7669  10.306   1.050   1.310
 3619W        W 7670   2.110   8.112   9.005
 3620W        W 7671   2.183   7.155   2.787
 3621W        W 7672   0.744   4.681   2.444
 3622W        W 7673   3.186   5.783  11.501
 3623W        W 7674   7.519   1.525   2.912
 3624W        W 7675   3.732   7.752   2.767
 3625W        W 7676   6.235   0.064  11.261
 3626W        W 7677   1.943   6.310  11.342
 3627W        W 7678   5.243   4.239   0.509
 3628W        W 7679   5.451   3.275   0.835
 3629W        W 7680   4.001   0.666   3.484
 3630W        W 7681   7.687   6.955   2.097
 3631W        W 7682   2.659   9.353   9.410
 3632W        W 7683   2.709   3.777  11.478
 3633W        W 7684   8.419   5.323   9.076
 3634W        W 7685   5.749   6.529   9.676
 3635W        W 7686   8.398   4.187   1.780
 3636W        W 7687   8.084   8.139  10.890
 3637W        W 7688   2.332   8.634   9.797
 3638W        W 7689   4.831   1.724   0.959
 3639W        W 7690   5.343   9.895   8.913
 3640W        W 7691   3.664  10.140   1.647
 3641W        W 7692   5.472  10.203   2.017
 3642W        W 7693   9.739   6.098   2.568
 3643W        W 7694   6.921   9.365   1.517
 3644W        W 7695   0.301   4.105   0.880
 3645W        W 7696  10.688   6.621  11.118
 3646W        W 7697   6.491   1.994   7.991
 3647W        W 7698   1.926   1.400   8.870
 3648W        W 7699   7.441   3.997   2.359
 3649W        W 7700   3.168  10.035  10.376
 3650W        W 7701   4.821   2.000   0.410
 3651W        W 7702  10.145   5.713   2.971
 3652W        W 7703   4.131   0.482   0.916
 3653W        W 7704   7.874   6.260   1.879
 3654W        W 7705  10.948   6.706   8.596
 3655W        W 7706   0.663   9.307   0.278
 3656W        W 7707   6.152   3.207   9.856
 3657W        W 7708   0.962   0.168   3.241
 3658W        W 7709   2.095   2.388   1.369
 3659W        W 7710  10.831   0.323  10.824
 3660W        W 7711   8.566   4.124   1.308
 3661W        W 7712  10.560   4.982   0.920
 3662W        W 7713   5.885   7.999   9.069
 3663W        W 7714   1.754   7.367   1.896
 3664W        W 7715   1.167   3.297   1.929
 3665W        W 7716   3.550   1.375   2.400
 3666W        W 7717   8.195   2.173  10.137
 3667W        W 7718   4.588   4.844   1.502
 3668W        W 7719   0.292  10.566  10.369
 3669W        W 7720   1.021   3.288   2.539
 3670W        W 7721   9.900   7.639  11.272
 3671W        W 7722   8.660  10.380   3.165
 3672W        W 7723   6.504   4.832  11.485
 3673W        W 7724   8.121   3.577   3.316
 3674W        W 7725  10.621   2.711   3.495
 3675W        W 7726   5.549   6.159   0.146
 3676W        W 7727   1.915   6.196  10.237
 3677W        W 7728   7.359  11.031   0.872
 3678W        W 7729   1.899   9.815  10.820
 3679W        W 7730   5.166   8.867  11.236
 3680W        W 7731   3.887   9.928  11.739
 3681W        W 7732   6.998   4.335   3.910
 3682W        W 7733   2.553   1.687  10.886
 3683W        W 7734   6.866  11.328  10.441
 3684W        W 7735  11.239  10.330   1.138
 3685W        W 7736   5.478   4.041  11.227
 3686W        W 7737   7.119   9.656   9.317
 3687W        W 7738   4.414   4.315   2.145
 3688W        W 7739  10.277   5.301   2.688
 3689W        W 7740   2.258   0.720  11.719
 3690W        W 7741   8.086   9.639  10.441
 3691W        W 7742   1.756   2.254   3.228
 3692W        W 7743   6.026   3.226   1.666
 3693W        W 7744  10.872   1.737   9.266
 3694W        W 7745   2.248   6.158   1.452
 3695W        W 7746   0.190  11.360   1.000
 3696W        W 7747   9.588   5.372   0.760
 3697W        W 7748   4.225   1.885  11.214
 3698W        W 7749  10.080   3.859   1.613
 3699W        W 7750   3.186  10.457   1.341
 3700W        W 7751   4.910   8.631   9.105
 3701W        W 7752   8.678   8.259   3.490
 3702W        W 7753   3.050   3.103  10.451
 3703W        W 7754   5.360  11.148   0.308
 3704W        W 7755   8.434   6.722  11.343
 3705W        W 7756   6.741   7.144   0.797
 3706W        W 7757   6.089   1.608   9.943
 3707W        W 7758  10.123   8.472   1.467
 3708W        W 7759   7.971   0.988   9.594
 3709W        W 7760   1.157   1.481  10.318
 3710W        W 7761   5.934   9.418   1.630
 3711W        W 7762  11.406  11.499  11.356
 3712W        W 7763   1.145   4.336   2.648
 3713W        W 7764   3.126   1.298   0.538
 3714W        W 7765   9.464   3.887   0.893
 3715W        W 7766   3.085   8.512   1.983
 3716W        W 7767   3.811   4.710   3.118
 3717W        W 7768   6.200   0.800  10.823
 3718W        W 7769   4.438   1.819   2.100
 3719W        W 7770   1.334   6.588   2.690
 3720W        W 7771  10.994  10.753   2.023
 3721W        W 7772   3.025   4.640  11.985
 3722W        W 7773   6.465   9.581  10.974
 3723W        W 7774   4.065   8.663   9.900
 3724W        W 7775  10.293   3.237  11.869
 3725W        W 7776  10.115  11.484  11.836
 3726W        W 7777   4.177   8.307   0.395
 3727W        W 7778   9.939   2.185   0.311
 3728W        W 7779   1.174   4.053   9.834
 3729W        W 7780   9.461   6.762  11.256
 3730W        W 7781   1.276   7.102   1.868
 3731W        W 7782   2.902   2.340   9.490
 3732W        W 7783   3.013   0.573   9.916
 3733W        W 7784   4.261   7.243  10.870
 3734W        W 7785   0.859  11.021   2.885
 3735W        W 7786   5.497   6.589   2.687
 3736W        W 7787   6.068   4.647  11.723
 3737W        W 7788   7.176   3.687   0.288
 3738W        W 7789  10.203   6.664   9.992
 3739W        W 7790   8.982   9.560   2.714
 3740W        W 7791   0.329   2.403   2.022
 3741W        W 7792   3.775  10.001   2.516
 3742W        W 7793   0.008   5.210   9.416
 3743W        W 7794  11.472   5.290   1.009
 3744W        W 7795   4.970   5.209  10.314
 3745W        W 7796   7.129   2.884  10.323
 3746W        W 7797   9.804   0.519   2.685
 3747W        W 7798   3.520   1.328  11.695
 3748W        W 7799  11.039   8.588  11.871
 3749W        W 7800   4.171   2.341   1.265
 3750W        W 7801   9.949   6.559   9.545
 3751W        W 7802   0.435   1.434   3.134
 3752W        W 7803   4.124   3.082   0.750
 3753W        W 7804   9.946   6.686  11.998
 3754W        W 7805   1.647   1.453   1.314
 3755W        W 7806  10.716   4.017   1.633
 3756W        W 7807   0.353   7.509   1.017
 3757W        W 7808  11.456   0.453   1.829
 3758W        W 7809   0.204   3.047   0.910
 3759W        W 7810   3.712  11.144   1.659
 3760W        W 7811   2.028   6.872   0.304
 3761W        W 7812  11.408   3.887   9.519
 3762W        W 7813  10.273   6.089  10.355
 3763W        W 7814   1.450   7.816   1.386
 3764W        W 7815  11.099   1.696  11.294
 3765W        W 7816   2.261   8.140   1.679
 3766W        W 7817   3.711   7.436   2.376
 3767W        W 7818   8.007  10.249   1.052
 3768W        W 7819   1.363   5.613   2.258
 3769W        W 7820   7.351   8.574   0.903
 3770W        W 7821   5.265   9.056   2.788
 3771W        W 7822   6.031   3.084   8.129
 3772W        W 7823   6.762   3.665  10.426
 3773W        W 7824   5.994   4.197   8.957
 3774W        W 7825   9.482   1.897  11.926
 3775W        W 7826   6.427   8.124   3.816
 3776W        W 7827   9.139   3.342   0.936
 3777W        W 7828   4.227   9.284   2.160
 3778W        W 7829   4.775  10.887  10.760
 3779W        W 7830   0.852   4.606   1.465
 3780W        W 7831   4.280   2.305  11.505
 3781W        W 7832  10.011   6.396   8.525
 3782W        W 7833   1.016   7.508  11.396
 3783W        W 7834  10.145   9.751   2.171
 3784W        W 7835   6.745   6.400   1.192
 3785W        W 7836   6.144   6.535  11.190
 3786W        W 7837   2.418   9.381   1.158
 3787W        W 7838   5.532   9.413  10.793
 3788W        W 7839   1.835   0.819   9.538
 3789W        W 7840   5.722   8.851  10.822
 3790W        W 7841   6.180   0.945   9.115
 3791W        W 7842   6.991   9.576  10.844
 3792W        W 7843   5.650   1.825  10.563
 3793W        W 7844   1.806   3.575   9.928
 3794W        W 7845   4.756   1.121   1.686
 3795W        W 7846   7.436  10.211   8.535
 3796W        W 7847   4.699   7.095   1.037
 3797W        W 7848   6.531   2.878   9.908
 3798W        W 7849   9.954   6.661  11.334
 3799W        W 7850  10.816   4.650   2.298
 3800W        W 7851   5.486   4.615   1.416
 3801W        W 7852   0.157   6.042   8.974
 3802W        W 7853   7.533  10.806   9.300
 3803W        W 7854   8.001   9.497   2.367
 3804W        W 7855   2.229  10.906   3.332
 3805W        W 7856   3.653   4.157   0.238
 3806W        W 7857   0.379   8.836  10.639
 3807W        W 7858   8.615   2.717   0.035
 3808W        W 7859   9.821   6.595   1.369
 3809W        W 7860   5.144   0.174   9.510
 3810W        W 7861  11.487   8.170   1.399
 3811W        W 7862  10.000   7.082   1.390
 3812W        W 7863   7.730   5.889  10.640
 3813W        W 7864   6.280   3.563   8.213
 3814W        W 7865   5.107   6.742   3.028
 3815W        W 7866   0.654   1.311   1.491
 3816W        W 7867   4.226  10.475   2.888
 3817W        W 7868  10.927   7.724   0.109
 3818W        W 7869   1.856   1.486  11.886
 3819W        W 7870   7.232   1.263  10.467
 3820W        W 7871  10.035   8.432   3.248
 3821W        W 7872   7.940  11.445   9.500
 3822W        W 7873  10.302   8.494  11.099
 3823W        W 7874   2.404   8.927   0.425
 3824W        W 7875   1.196   4.543   3.512
 3825W        W 7876   5.470   0.839  10.377
 3826W        W 7877   1.958  10.286   0.566
 3827W        W 7878   9.257   7.144   0.808
 3828W        W 7879   2.385   1.953   1.308
 3829W        W 7880   2.709  10.539   1.484
 3830W        W 7881   2.306   7.649   9.047
 3831W        W 7882   4.853   9.034   0.391
 3832W        W 7883   1.676   3.158  10.629
 3833W        W 7884   6.025   9.265  10.901
 3834W        W 7885   8.365   2.933   1.793
 3835W        W 7886   3.489   3.441   2.207
 3836W        W 7887   0.894   0.490  11.900
 3837W        W 7888  10.782   4.552   3.199
 3838W        W 7889   1.770   7.886   1.839
 3839W        W 7890   4.607   9.827   1.776
 3840W        W 7891  11.139   5.107   0.040
 3841W        W 7892   1.643   1.771   9.085
 3842W        W 7893   5.025   2.493   9.827
 3843W        W 7894  10.427   0.996   8.775
 3844W        W 7895   2.710   1.403   2.328
 3845W        W 7896   4.750   3.268  11.752
 3846W        W 7897   5.118   8.173  10.651
 3847W        W 7898   7.733   4.293   0.252
 3848W        W 7899   8.980   8.376   0.374
 3849W        W 7900   9.563   0.291   9.865
 3850W        W 7901   4.242   7.314   1.723
 3851W        W 7902   8.730   8.540   9.052
 3852W        W 7903   3.848   7.083  10.631
 3853W        W 7904   5.099   6.025   0.498
 3854W        W 7905   6.770   8.049   9.933
 3855W        W 7906   9.707   7.660   1.808
 3856W        W 7907   6.532   1.928   3.239
 3857W        W 7908  11.051   9.392   2.596
 3858W        W 7909   2.384   1.466  10.416
 3859W        W 7910   0.904   1.400   0.557
 3860W        W 7911   4.198   0.009   3.103
 3861W        W 7912   0.092   8.895   3.534
 3862W        W 7913   0.471   6.474   2.623
 3863W        W 7914   5.657   1.356  10.357
 3864W        W 7915   3.132   3.795   3.213
 3865W        W 7916   7.127   3.575   9.589
 3866W        W 7917   8.662   1.826   2.310
 3867W        W 7918   1.722   2.552   2.795
 3868W        W 7919   3.223   1.010   1.701
 3869W        W 7920   2.655   2.707   2.861
 3870W        W 7921  10.351   7.000   1.780
 3871W        W 7922  10.018   4.336   2.143
 3872W        W 7923   0.957   5.962   2.175
 3873W        W 7924   0.846   1.045   9.516
 3874W        W 7925   5.636   5.105   1.261
 3875W        W 7926   6.831   2.389   1.399
 3876W        W 7927   7.053   6.686  10.538
 3877W        W 7928   0.084   7.195   2.147
 3878W        W 7929   2.659   9.671   0.789
 3879W        W 7930   4.216   5.216   0.047
 3880W        W 7931  11.061   2.825  11.263
 3881W        W 7932   1.203   5.651  11.593
 3882W        W 7933   5.130   7.735  11.046
 3883W        W 7934   4.419   2.099   1.652
 3884W        W 7935   5.723   8.549   2.830
 3885W        W 7936   9.421   5.653  10.834
 3886W        W 7937   4.097   7.085   9.756
 3887W        W 7938  11.329   3.331   8.666
 3888W        W 7939   8.677   2.823  10.537
 3889W        W 7940   8.438   8.550   8.595
 3890W        W 7941   4.918   2.490   0.211
 3891W        W 7942   3.946   7.974   9.422
 3892W        W 7943   3.272   2.887   2.236
 3893W        W 7944  10.793  10.155  10.533
 3894W        W 7945   2.885  10.029   9.188
 3895W        W 7946   1.194   6.630   3.199
 3896W        W 7947   7.685   0.265   3.396
 3897W        W 7948   3.380   6.651  11.216
 3898W        W 7949  10.917   1.780   3.221
 3899W        W 7950   4.052   1.312   2.403
 3900W        W 7951   6.617   2.207   8.461
 3901W        W 7952   3.795   7.240   1.487
 3902W        W 7953   1.128   6.975   1.368
 3903W        W 7954   3.714  11.468  10.513
 3904W        W 7955   2.207   4.626  10.286
 3905W        W 7956   3.868   1.364   1.432
 3906W        W 7957   7.872   8.572   0.904
 3907W        W 7958   5.427   1.145   1.164
 3908W        W 7959   0.040   3.634   1.578
 3909W        W 7960   0.474   5.376   9.347
 3910W        W 7961   5.223  10.952  11.058
 3911W        W 7962   7.031   9.482  11.722
 3912W        W 7963   1.827   0.320   2.192
 3913W        W 7964  11.287   2.550   9.305
 3914W        W 7965   0.807   1.769   0.976
 3915W        W 7966   7.092   2.136  11.881
 3916W        W 7967   5.317   5.145   0.477
 3917W        W 7968   1.822   3.876  10.980
 3918W        W 7969   0.264   1.297   9.468
 3919W        W 7970   5.836   9.647   1.166
 3920W        W 7971   5.030   3.051   2.710
 3921W        W 7972   1.225   2.297  11.189
 3922W        W 7973   7.969   4.661   0.671
 3923W        W 7974   9.635   2.377  11.952
 3924W        W 7975  11.393   6.595   3.512
 3925W        W 7976   2.762   0.744   9.502
 3926W        W 7977  10.888   3.573   8.838
 3927W        W 7978   8.565   3.842   3.180
 3928W        W 7979   5.268   2.755   0.496
 3929W        W 7980   2.175   1.312  11.532
 3930W        W 7981   2.365   8.410   2.591
 3931W        W 7982   0.261   0.776  11.495
 3932W        W 7983  11.092   1.610  10.788
 3933W        W 7984   1.480   1.857  10.463
 3934W        W 7985   2.890   6.926   9.049
 3935W        W 7986   3.132   8.282   2.430
 3936W        W 7987  10.586   7.864   3.479
 3937W        W 7988   3.479  10.597   1.759
 3938W        W 7989   2.399   9.873   1.221
 3939W        W 7990   0.760   1.166  10.807
 3940W        W 7991  11.219  10.589  11.943
 3941W        W 7992  11.233   7.873  11.487
 3942W        W 7993   5.300  10.009   2.675
 3943W        W 7994   6.120   4.772   0.739
 3944W        W 7995  11.469   4.896   1.318
 3945W        W 7996   6.549   0.850   8.754
 3946W        W 7997   3.562   6.139   0.491
 3947W        W 7998   8.476   4.003   9.975
 3948W        W 7999   2.850   9.111   1.203
 3949W        W 8000   9.932   2.828   8.375
 3950W        W 8001   8.407   4.299  11.811
 3951W        W 8002   8.933   2.624   2.170
 3952W        W 8003   7.603   0.738  11.128
 3953W        W 8004   8.235   6.448  10.084
 3954W        W 8005   9.158   1.283   9.012
 3955W        W 8006   8.308   6.974  10.779
 3956W        W 8007   9.131   6.935   8.074
 3957W        W 8008   2.792   0.324   3.463
 3958W        W 8009   9.528   6.248   9.073
 3959W        W 8010  10.317   9.422   1.383
 3960W        W 8011   8.950   8.089   9.004
 3961W        W 8012   4.990   4.705   1.225
 3962W        W 8013   2.822   5.919  10.187
 3963W        W 8014   6.265   4.293   0.490
 3964W        W 8015   5.600   3.879   9.078
 3965W        W 8016   3.663   2.560   2.081
 3966W        W 8017   2.617   9.439   3.099
 3967W        W 8018   0.532   9.841  11.076
 3968W        W 8019   7.867   2.424  10.488
 3969W        W 8020   4.192   9.983   8.865
 3970W        W 8021   2.684   0.577  10.330
 3971W        W 8022   3.459  10.137  11.485
 3972W        W 8023   9.474   1.620   0.360
 3973W        W 8024   7.731   1.246  10.003
 3974W        W 8025   3.613  10.299  10.967
 3975W        W 8026   7.726  11.085  10.657
 3976W        W 8027   4.190   3.462   0.401
 3977W        W 8028   7.528  10.364   9.567
 3978W        W 8029   1.617  10.492  11.687
 3979W        W 8030   7.615   6.127   3.783
 3980W        W 8031   9.924   2.768   2.295
 3981W        W 8032   6.664   9.929   1.356
 3982W        W 8033   6.669   3.363   9.796
 3983W        W 8034  11.311   9.025   9.596
 3984W        W 8035   2.788  10.027   1.537
 3985W        W 8036   7.203   8.485   2.380
 3986W        W 8037   9.176   5.487  10.078
 3987W        W 8038  10.698   2.349   1.275
 3988W        W 8039   5.630   4.865  11.933
 3989W        W 8040   6.107   2.320   3.195
 3990W        W 8041   0.628   5.869   9.948
 3991W        W 8042   4.641   6.836   0.199
 3992W        W 8043   2.217   3.931   1.846
 3993W        W 8044   4.517  10.794   8.829
 3994W        W 8045   0.979   6.646  10.387
 3995W        W 8046   9.253   9.003  10.335
 3996W        W 8047   0.428   0.057   0.586
 3997W        W 8048   8.570   7.967   2.241
 3998W        W 8049   1.455   9.343  10.074
 3999W        W 8050   4.330  10.393   0.538
 4000W        W 8051   4.556   0.830   1.288
 4001W        W 8052   0.312   0.679   8.699
 4002W        W 8053   7.617   9.030   1.108
 4003W        W 8054   5.376   0.408   2.994
 4004W        W 8055   0.048   5.267   2.319
 4005W        W 8056   0.824   6.265  10.897
 4006W        W 8057   9.693   9.602   0.233
 4007W        W 8058   5.248  11.404  11.284
 4008W        W 8059   0.805   4.635   1.957
 4009W        W 8060   7.648   7.562  10.413
 4010W        W 8061   8.156   0.462   3.513
 4011W        W 8062   4.450   7.136   9.353
 4012W        W 8063   4.143  10.082   1.852
 4013W        W 8064   3.099   3.616  10.061
 4014W        W 8065   9.513   0.701   3.557
 4015W        W 8066   3.359  10.986  11.681
 4016W        W 8067   1.038   5.129   0.303
 4017W        W 8068   7.848   2.406  11.489
 4018W        W 8069  10.869   4.995   0.474
 4019W        W 8070   5.011   0.456   2.172
 4020W        W 8071   6.314  11.268   1.133
 4021W        W 8072   1.912  10.864   9.705
 4022W        W 8073   3.745   4.985   1.750
 4023W        W 8074   8.811  10.638   3.558
 4024W        W 8075   6.037  10.008   0.848
 4025W        W 8076   3.548  10.646  11.349
 4026W        W 8077   5.031   3.429  10.566
 4027W        W 8078  10.855   7.721   3.036
 4028W        W 8079   3.107   7.399   0.366
 4029W        W 8080   9.516   4.898   4.339
 4030W        W 8081   4.800   7.971  10.283
 4031W        W 8082   3.378   2.799   3.179
 4032W        W 8083   0.543   0.874   1.710
 4033W        W 8084   7.480   9.734   3.214
 4034W        W 8085   2.888   4.508  10.368
 4035W        W 8086   5.135   8.973   2.047
 4036W        W 8087   5.221   3.206   8.768
 4037W        W 8088  10.304   6.934   9.568
 4038W        W 8089   9.120   3.691   9.502
 4039W        W 8090   8.806   1.296   1.299
 4040W        W 8091   2.790   1.269   9.498
 4041W        W 8092   2.147   2.726   3.052
 4042W        W 8093   5.814  10.599  10.495
 4043W        W 8094   3.744   2.626   9.839
 4044W        W 8095  10.863   3.284   9.960
 4045W        W 8096  11.093   5.073   2.420
 4046W        W 8097   8.059   0.982   3.524
 4047W        W 8098  11.015   3.112  10.429
 4048W        W 8099  11.373   2.333   0.413
 4049W        W 8100   3.331   9.351  11.062
 4050W        W 8101   5.131   1.589   9.254
 4051W        W 8102   9.533   7.542  10.322
 4052W        W 8103   4.210   2.839  11.539
 4053W        W 8104   6.580   0.441   1.372
 4054W        W 8105   0.128   8.563   1.082
 4055W        W 8106   0.058   2.357  10.390
 4056W        W 8107   0.634   3.717   3.284
 4057W        W 8108   2.640   6.191   3.314
 4058W        W 8109   2.871   2.019   1.203
 4059W        W 8110   2.578   3.102   3.657
 4060W        W 8111   8.849   0.378   1.871
 4061W        W 8112   0.522   9.266   3.509
 4062W        W 8113   8.944   5.133   2.278
 4063W        W 8114   6.160   3.080   3.742
 4064W        W 8115  11.275   5.632   9.718
 4065W        W 8116   9.156   8.091  11.934
 4066W        W 8117   7.654  11.251  11.134
 4067W        W 8118   1.811   2.466  10.882
 4068W        W 8119   2.348  11.438   3.306
 4069W        W 8120   3.298   9.646  11.475
 4070W        W 8121   6.677   7.015   0.307
 4071W        W 8122   1.307   7.625   1.819
 4072W        W 8123   9.490   8.651   8.543
 4073W        W 8124  10.041   4.861   2.773
 4074W        W 8125  10.134  11.427   0.656
 4075W        W 8126   9.653   4.064   1.336
 4076W        W 8127   4.606   2.116   8.635
 4077W        W 8128   6.685   0.398   3.191
 4078W        W 8129   9.667   1.481   0.816
 4079W        W 8130   4.646  11.493   9.554
 4080W        W 8131   6.056   1.317   2.170
 4081W        W 8132   9.813   7.483  10.768
 4082W        W 8133   7.931   5.002  11.538
 4083W        W 8134   7.903   9.478   0.193
 4084W        W 8135   5.634   5.699   1.907
 4085W        W 8136   8.229   2.280   0.894
 4086W        W 8137   2.846   9.816   3.399
 4087W        W 8138   6.774   8.969   0.833
 4088W        W 8139   6.414   9.904   3.106
 4089W        W 8140   5.433   5.897   1.475
 4090W        W 8141   8.492   8.222   0.208
 4091W        W 8142   6.392   2.250   1.869
 4092W        W 8143   0.766   3.294   0.407
 4093W        W 8144   9.575   8.934   8.969
 4094W        W 8145   8.301   3.016   9.933
 4095W        W 8146  11.052   2.914   9.621
 4096W        W 8147   4.657   2.979  11.348
 4097W        W 8148   6.592  11.334  11.836
 4098W        W 8149  10.167   2.300   8.594
 4099W        W 8150  10.417   0.373  11.689
 4100W        W 8151   0.757   4.335  10.003
 4101W        W 8152  11.284   4.840   0.806
 4102W        W 8153   8.421   2.060   2.750
 4103W        W 8154   5.517   9.741   3.267
 4104W        W 8155  10.526  10.886   1.375
 4105W        W 8156   9.001   8.666  10.737
 4106W        W 8157  11.374   8.737  11.384
 4107W        W 8158   7.075  10.087   9.580
 4108W        W 8159   0.226   0.695   3.460
 4109W        W 8160   4.919   1.858   8.297
 4110W        W 8161   7.858   1.151   2.224
 4111W        W 8162   8.046  11.307  11.906
 4112W        W 8163   6.450   6.437   9.049
 4113W        W 8164  10.595   9.540   3.222
 4114W        W 8165  11.034   4.686   2.777
 4115W        W 8166   0.010   9.818   2.254
 4116W        W 8167   8.991   2.185   9.566
 4117W        W 8168   4.584  10.999   0.405
 4118W        W 8169   7.091   2.308   2.474
 4119W        W 8170   5.743   1.256  11.351
 4120W        W 8171  10.436   0.872   3.707
 4121W        W 8172   0.015   6.192   3.151
 4122W        W 8173   5.248   5.493   1.270
 4123W        W 8174   2.673   6.954   1.836
 4124W        W 8175   5.082   7.594  10.053
 4125W        W 8176  10.877   5.451   8.606
 4126W        W 8177   0.805   5.621  10.451
 4127W        W 8178   5.569   9.561   2.768
 4128W        W 8179   3.103   8.467  10.913
 4129W        W 8180   5.560  10.202   0.898
 4130W        W 8181   1.378   1.927   1.199
 4131W        W 8182   4.141   7.575   1.307
 4132W        W 8183   3.806   0.006   1.284
 4133W        W 8184   6.142   0.835   3.013
 4134W        W 8185  11.151  10.522   1.599
 4135W        W 8186   0.956   0.551   3.637
 4136W        W 8187  10.028   3.271   0.336
 4137W        W 8188   4.272   9.085  11.218
 4138W        W 8189  11.124   3.920   0.120
 4139W        W 8190   3.806   3.119   0.301
 4140W        W 8191   0.138   3.124   1.807
 4141W        W 8192   6.490   7.354   2.388
 4142W        W 8193   4.785   6.974   3.350
 4143W        W 8194   4.514  10.313  10.339
 4144W        W 8195   9.588   2.472  10.179
 4145W        W 8196   0.708   8.809   3.355
 4146W        W 8197   9.456   6.234   1.478
 4147W        W 8198   6.978   1.794   9.274
 4148W        W 8199  11.241   3.054  11.671
 4149W        W 8200   8.115   8.119   0.812
 4150W        W 8201   6.582   1.593   2.856
 4151W        W 8202   9.051   2.235   9.058
 4152W        W 8203   8.763   4.608  11.327
 4153W        W 8204   2.314   1.806  10.050
 4154W        W 8205   1.920   5.342   9.914
 4155W        W 8206   1.073   2.333   0.239
 4156W        W 8207  11.210   6.907   9.856
 4157W        W 8208   2.110  10.925  11.302
 4158W        W 8209   7.928   4.053   1.686
 4159W        W 8210   0.896   8.409   2.804
 4160W        W 8211   8.587   1.875  11.487
 4161W        W 8212   6.942   4.678  10.242
 4162W        W 8213   7.009   1.290   9.418
 4163W        W 8214  11.246   1.358   1.924
 4164W        W 8215   4.343   5.608   1.880
 4165W        W 8216   9.122   8.512   1.774
 4166W        W 8217   5.115   9.567   2.982
 4167W        W 8218   6.025   2.902   3.265
 4168W        W 8219   2.185   7.469   0.495
 4169W        W 8220   8.264   2.706   2.710
 4170W        W 8221   9.009  11.218   2.696
 4171W        W 8222   2.562   8.992   8.551
 4172W        W 8223   4.923   2.934  10.516
 4173W        W 8224   8.865   9.518   9.784
 4174W        W 8225   5.222   7.503   9.587
 4175W        W 8226   9.231   6.084  11.768
 4176W        W 8227   8.007   8.714  10.018
 4177W        W 8228   5.517   8.078   0.221
 4178W        W 8229   9.552   1.527   9.807
 4179W        W 8230   6.084   3.821   1.013
 4180W        W 8231   1.120   7.449   3.141
 4181W        W 8232   3.816   8.997   3.265
 4182W        W 8233   4.864   1.000   0.391
 4183W        W 8234   2.468   8.002   9.379
 4184W        W 8235   2.169   8.438   1.143
 4185W        W 8236   2.045   4.268   9.365
 4186W        W 8237   4.677   5.274   0.252
 4187W        W 8238   1.355   8.641   2.814
 4188W        W 8239   4.410   9.447   2.625
 4189W        W 8240  11.285   7.796  10.982
 4190W        W 8241   6.107   5.902   1.825
 4191W        W 8242   0.356   8.049  11.777
 4192W        W 8243  10.872   8.134  11.720
 4193W        W 8244  10.836   1.494  10.107
 4194W        W 8245   8.413   9.411   9.563
 4195W        W 8246  11.443   4.377   0.641
 4196W        W 8247   5.926   4.603   9.253
 4197W        W 8248  10.476   5.115   1.802
 4198W        W 8249   5.203   3.965   0.923
 4199W        W 8250   4.691   6.964  10.879
 4200W        W 8251   1.227  10.564   3.639
 4201W        W 8252   5.403  10.345  10.277
 4202W        W 8253   7.671   2.724   9.527
 4203W        W 8254   6.649   0.925   0.469
 4204W        W 8255   8.124   8.685   1.978
 4205W        W 8256   0.782   1.076  11.319
 4206W        W 8257   1.557   0.859   0.564
 4207W        W 8258   8.552   5.580  11.412
 4208W        W 8259   4.543   7.555  10.553
 4209W        W 8260   1.491   3.043   9.048
 4210W        W 8261   2.555   8.617  11.001
 4211W        W 8262   6.345   2.331   0.369
 4212W        W 8263   9.280   4.191   9.374
 4213W        W 8264  11.230   5.366   1.460
 4214W        W 8265   4.355   6.673   9.981
 4215W        W 8266   9.653   1.001   1.713
 4216W        W 8267   9.135   8.066   0.793
 4217W        W 8268  10.445  10.320  11.035
 4218W        W 8269   9.825   9.564  11.645
 4219W        W 8270  10.500   8.498   9.126
 4220W        W 8271   2.997  10.954   1.339
 4221W        W 8272   0.738   3.833   9.948
 4222W        W 8273  10.203   7.658   1.117
 4223W        W 8274   9.110   1.738   8.764
 4224W        W 8275   9.485   8.432   2.148
 4225W        W 8276   7.409   7.577  10.868
 4226W        W 8277   0.856   9.637   2.211
 4227W        W 8278   1.953   9.598   1.206
 4228W        W 8279   4.173   6.253   9.749
 4229W        W 8280   0.495   2.633   1.569
 4230W        W 8281   5.914   5.735   2.315
 4231W        W 8282   5.063   0.480   8.949
 4232W        W 8283   7.725  10.564   0.256
 4233W        W 8284   7.693   9.050   2.601
 4234W        W 8285   7.424   2.779   0.893
 4235W        W 8286   8.229   1.317  11.756
 4236W        W 8287   2.328   8.492   9.309
 4237W        W 8288   7.969  11.329   2.516
 4238W        W 8289   4.252   6.996   1.242
 4239W        W 8290   8.541   0.192   1.499
 4240W        W 8291   9.291   4.485  11.422
 4241W        W 8292  11.323   1.233  11.022
 4242W        W 8293   3.674   1.331   9.641
 4243W        W 8294   9.112   5.776   8.672
 4244W        W 8295   9.997  10.558  11.303
 4245W        W 8296   2.281   7.251  11.539
 4246W        W 8297   4.838   2.131   1.920
 4247W        W 8298   5.229   1.193  10.072
 4248W        W 8299   0.035  10.443   3.295
 4249W        W 8300   1.774   8.396   1.813
 4250W        W 8301   6.045   3.702   3.837
 4251W        W 8302   4.114   4.757   8.674
 4252W        W 8303   8.122   9.439   1.804
 4253W        W 8304   5.855   8.972   0.014
 4254W        W 8305  11.163   4.313  10.317
 4255W        W 8306   4.048   1.485   0.945
 4256W        W 8307  11.393   7.660   1.179
 4257W        W 8308   5.254   8.459  11.531
 4258W        W 8309   4.728   4.322  11.808
 4259W        W 8310   9.989   1.655   0.372
 4260W        W 8311   8.393  10.339   1.400
 4261W        W 8312  10.519  10.838   8.900
 4262W        W 8313   0.475   9.534   2.993
 4263W        W 8314   7.391   4.083   9.166
 4264W        W 8315   1.728   6.012   3.255
 4265W        W 8316   4.308   0.272   0.447
 4266W        W 8317   6.203   7.495  11.288
 4267W        W 8318   7.167   9.143  10.064
 4268W        W 8319   2.924   0.963   2.112
 4269W        W 8320   9.364   8.934   3.594
 4270W        W 8321   2.281   2.866   2.545
 4271W        W 8322  11.224   0.056   0.910
 4272W        W 8323   6.602   3.646   1.913
 4273W        W 8324   6.152   2.507   0.842
 4274W        W 8325   2.004  10.752   0.823
 4275W        W 8326   7.978   4.034  11.904
 4276W        W 8327   7.432  10.912   9.879
 4277W        W 8328  10.964   1.242   9.128
 4278W        W 8329  10.723   6.540   1.778
 4279W        W 8330  10.372   6.043   9.536
 4280W        W 8331   8.345   2.344  11.452
 4281W        W 8332   8.399   1.543   2.680
 4282W        W 8333   3.085   2.106   2.621
 4283W        W 8334   7.565   2.541   3.175
 4284W        W 8335   7.889  10.441   8.496
 4285W        W 8336   4.955   8.982   9.501
 4286W        W 8337   5.048   8.833  11.854
 4287W        W 8338   2.625   2.199   2.944
 4288W        W 8339   6.507   5.897  11.889
 4289W        W 8340   7.574   6.879   0.822
 4290W        W 8341   5.339   0.351  11.519
 4291W        W 8342   9.169   2.787   2.829
 4292W        W 8343   1.831  11.272   2.936
 4293W        W 8344   4.231   9.537  11.986
 4294W        W 8345   9.015   4.091  11.177
 4295W        W 8346   1.779   9.176   2.252
 4296W        W 8347   6.874   9.398   2.454
 4297W        W 8348   8.367   1.585   1.361
 4298W        W 8349   6.990   6.947  11.019
 4299W        W 8350   9.114   3.090   3.224
 4300W        W 8351   3.552   9.333   0.880
 4301W        W 8352   8.384   1.098   2.162
 4302W        W 8353   6.958   4.660   1.235
 4303W        W 8354   1.795   8.863   0.899
 4304W        W 8355   3.626   1.749   1.727
 4305W        W 8356   5.619   1.744  11.460
 4306W        W 8357   4.235   3.176   9.571
 4307W        W 8358   8.580   2.792   8.650
 4308W        W 8359  10.679   2.305  10.528
 4309W        W 8360   6.254  10.841   8.461
 4310W        W 8361   9.358  10.820   9.835
 4311W        W 8362   1.732  10.890   0.002
 4312W        W 8363   2.755   5.646  11.255
 4313W        W 8364   0.141   2.412   9.633
 4314W        W 8365   4.426   8.639  10.951
 4315W        W 8366   9.087   2.416   1.685
 4316W        W 8367   0.512   2.891   2.041
 4317W        W 8368   2.431   2.529   9.626
 4318W        W 8369   2.851  11.425   3.168
 4319W        W 8370   3.616   0.761   0.853
 4320W        W 8371   1.878  10.005  11.765
 4321W        W 8372   1.816  10.635   8.792
 4322W        W 8373   1.006   0.665   9.883
 4323W        W 8374   8.570   5.340   0.800
 4324W        W 8375   6.755   7.484   8.672
 4325W        W 8376  10.405   5.535  11.884
 4326W        W 8377   5.121   7.382   2.283
 4327W        W 8378   1.228   2.637   9.881
 4328W        W 8379  10.031   6.695   4.360
 4329W        W 8380  10.733   5.136   9.024
 4330W        W 8381   4.139   6.485   4.200
 4331W        W 8382   0.596  10.975   8.602
 4332W        W 8383   5.595   8.003  10.707
 4333W        W 8384   8.696   7.128   2.120
 4334W        W 8385  10.958   0.827  10.931
 4335W        W 8386   6.805   6.133   0.234
 4336W        W 8387  10.351  11.482  11.380
 4337W        W 8388   8.468   1.652  10.035
 4338W        W 8389   3.258   3.082   2.710
 4339W        W 8390   3.541   9.055   0.049
 4340W        W 8391   8.596   9.637  10.623
 4341W        W 8392   9.977  11.319  10.501
 4342W        W 8393  10.896   5.079   9.831
 4343W        W 8394   7.143  11.395   9.922
 4344W        W 8395  10.512   6.566   0.863
 4345W        W 8396   5.490  11.007   2.118
 4346W        W 8397   9.915   9.204   0.020
 4347W        W 8398  10.202   8.005  10.952
 4348W        W 8399   0.867  10.616   9.035
 4349W        W 8400  11.407   2.297   2.383
 4350W        W 8401   5.175   1.771   1.768
 4351W        W 8402   0.390   8.497  11.031
 4352W        W 8403   0.480   8.119   2.691
 4353W        W 8404   8.482   7.195   8.899
 4354W        W 8405   8.403   5.148   1.340
 4355W        W 8406   0.320   7.470   0.498
 4356W        W 8407  10.067   7.003   3.583
 4357W        W 8408   3.160   2.594   2.671
 4358W        W 8409   5.623   7.186   0.219
 4359W        W 8410   2.226  10.937   2.789
 4360W        W 8411  11.325   9.083   2.925
 4361W        W 8412   9.332   9.355   1.269
 4362W        W 8413  11.485   4.133  10.710
 4363W        W 8414   0.980   7.972   1.491
 4364W        W 8415   1.908   9.619   3.209
 4365W        W 8416   6.557   3.419  11.837
 4366W        W 8417   4.267   0.368   9.361
 4367W        W 8418   4.106   0.011   1.716
 4368W        W 8419   8.371   4.201  10.430
 4369W        W 8420   7.581   8.579   2.804
 4370W        W 8421  10.357   1.017  10.308
 4371W        W 8422   7.568   6.684   2.930
 4372W        W 8423   6.033   4.555  10.788
 4373W        W 8424  11.457   2.140   2.884
 4374W        W 8425   9.280   6.447   0.547
 4375W        W 8426   9.883   7.898  10.482
 4376W        W 8427  10.623   1.758  11.418
 4377W        W 8428   6.257   6.585  11.687
 4378W        W 8429   6.187   1.396  10.439
 4379W        W 8430   4.547  10.904  11.589
 4380W        W 8431   9.873   8.125   1.978
 4381W        W 8432   6.109   9.201   1.191
 4382W        W 8433   5.546   7.029  10.862
 4383W        W 8434   0.529   7.382  11.423
 4384W        W 8435   0.631   4.243   2.660
 4385W        W 8436   2.004   5.678   8.656
 4386W        W 8437   3.537   1.776   9.880
 4387W        W 8438   5.441   5.654  10.505
 4388W        W 8439   6.418   9.507   1.506
 4389W        W 8440   0.861   4.628   0.972
 4390W        W 8441  10.452   7.403   3.693
 4391W        W 8442   6.281   4.145   2.719
 4392W        W 8443   2.453   2.640  11.054
 4393W        W 8444   1.697   7.393   0.735
 4394W        W 8445   1.690   3.300   1.002
 4395W        W 8446   0.045  10.968   8.913
 4396W        W 8447   7.387  10.050   0.915
 4397W        W 8448   9.317   1.040   2.140
 4398W        W 8449   1.252   4.262   0.496
 4399W        W 8450   5.607   4.362  11.812
 4400W        W 8451   8.468   2.322   9.585
 4401W        W 8452   1.816   1.004   1.547
 4402W        W 8453   8.703   2.132   0.778
 4403W        W 8454   4.514   2.189  10.912
 4404W        W 8455   1.494  11.256   9.036
 4405W        W 8456   9.900   9.162   2.847
 4406W        W 8457   8.454   4.851   0.911
 4407W        W 8458   0.443   0.273  11.759
 4408W        W 8459   5.152   7.744   1.365
 4409W        W 8460  10.511   1.706   2.815
 4410W        W 8461   7.907   6.494   0.775
 4411W        W 8462   5.979   5.237  10.068
 4412W        W 8463   4.648   5.299  11.733
 4413W        W 8464   8.696   2.109   9.992
 4414W        W 8465   1.707  11.316   9.871
 4415W        W 8466   0.012  10.370   9.564
 4416W        W 8467   2.854  11.147  10.312
 4417W        W 8468   4.482   0.264   1.978
 4418W        W 8469   5.732   9.405  10.326
 4419W        W 8470   5.603   0.255   1.400
 4420W        W 8471   7.861   0.987   0.943
 4421W        W 8472   7.745   9.917   8.793
 4422W        W 8473   1.821  10.968   1.611
 4423W        W 8474   1.260   7.988   9.880
 4424W        W 8475   4.501   9.329   3.562
 4425W        W 8476   6.034   6.674   0.832
 4426W        W 8477   8.184   7.060   2.106
 4427W        W 8478   0.329   4.859   2.153
 4428W        W 8479   4.638   9.800  10.253
 4429W        W 8480   0.428   0.251  10.107
 4430W        W 8481  11.233   0.844  11.373
 4431W        W 8482   7.611   9.895   2.354
 4432W        W 8483   5.149   9.965   8.440
 4433W        W 8484   4.042   9.247   8.992
 4434W        W 8485   5.061   2.973   0.069
 4435W        W 8486   3.501   6.004   3.040
 4436W        W 8487  10.357  10.082   0.765
 4437W        W 8488   3.124   5.273  11.353
 4438W        W 8489   0.434  10.851   9.904
 4439W        W 8490   2.310   5.529  11.066
 4440W        W 8491   6.654   0.545  10.693
 4441W        W 8492   1.180   0.514   0.423
 4442W        W 8493   3.320   7.965   1.837
 4443W        W 8494   0.981   2.902   2.210
 4444W        W 8495   2.718   5.568   9.786
 4445W        W 8496   3.497   0.617   1.860
 4446W        W 8497  10.450   1.755   3.470
 4447W        W 8498   7.634   0.394   0.946
 4448W        W 8499  10.757   3.009  10.899
 4449W        W 8500   8.295   1.456   8.968
 4450W        W 8501   7.956   8.701   9.505
 4451W        W 8502   3.370   9.997   9.362
 4452W        W 8503  10.887  10.917  10.544
 4453W        W 8504   0.221   1.930   1.843
 4454W        W 8505   0.519   9.345  10.871
 4455W        W 8506  10.640   2.583   8.728
 4456W        W 8507   6.963  10.371   2.856
 4457W        W 8508   4.572   4.800   0.979
 4458W        W 8509   8.512   3.960  10.855
 4459W        W 8510   8.346   2.156   0.386
 4460W        W 8511   0.846   7.303   2.660
 4461W        W 8512   8.185   3.753   8.653
 4462W        W 8513   3.503   7.604   0.610
 4463W        W 8514   1.622   1.054   9.129
 4464W        W 8515   6.179  10.324   8.592
 4465W        W 8516  11.325   3.791   2.435
 4466W        W 8517  10.416  11.496  10.237
 4467W        W 8518   8.473   8.097   1.166
 4468W        W 8519   0.046   9.497  11.784
 4469W        W 8520   5.250  10.362   1.420
 4470W        W 8521   5.592  10.451  11.726
 4471W        W 8522   2.871   9.567   0.338
 4472W        W 8523   8.156   2.763   0.319
 4473W        W 8524   1.381   4.727   2.930
 4474W        W 8525   2.841   6.399   9.948
 4475W        W 8526  10.824  10.896  11.864
 4476W        W 8527   8.398   9.457   8.506
 4477W        W 8528   9.452   5.344  11.259
 4478W        W 8529   8.986   5.225   3.309
 4479W        W 8530   3.417   2.214   1.732
 4480W        W 8531  10.514  10.887   2.750
 4481W        W 8532  10.388  11.275   9.756
 4482W        W 8533   1.292   4.758  10.321
 4483W        W 8534   2.671   0.048  11.290
 4484W        W 8535   8.150   2.729  11.787
 4485W        W 8536   1.353   6.994  11.065
 4486W        W 8537   1.483   6.294  11.683
 4487W        W 8538   2.178   5.785  11.880
 4488W        W 8539  11.349   9.010  11.801
 4489W        W 8540  10.072   2.934   2.796
 4490W        W 8541   4.545   2.972   3.051
 4491W        W 8542   9.976   3.211   9.261
 4492W        W 8543  10.891   3.134   1.474
 4493W        W 8544   9.203   3.616  11.255
 4494W        W 8545   3.500   2.286  11.077
 4495W        W 8546   7.982   0.285   9.918
 4496W        W 8547   2.107   0.868   9.108
 4497W        W 8548   1.920   3.138   9.649
 4498W        W 8549  10.269  11.279   1.149
 4499W        W 8550   6.680  11.322   1.969
 4500W        W 8551   4.063   2.987   9.121
 4501W        W 8552   3.965   0.977  10.835
 4502W        W 8553   1.694   2.227  11.371
 4503W        W 8554   3.186   0.706  11.819
 4504W        W 8555   3.343   6.551   9.828
 4505W        W 8556   8.728   9.053  10.261
 4506W        W 8557   5.678   4.043   8.196
 4507W        W 8558   5.875  10.997   0.450
 4508W        W 8559   0.124   0.356   2.490
 4509W        W 8560   5.579   9.728   0.696
 4510W        W 8561   1.183   3.829   3.423
 4511W        W 8562   9.025  10.575   0.241
 4512W        W 8563   2.877   1.351   8.985
 4513W        W 8564   9.521   0.978  10.344
 4514W        W 8565   6.973   1.833   1.132
 4515W        W 8566   1.215   0.217   9.114
 4516W        W 8567   8.945   7.167   1.653
 4517W        W 8568  11.223   9.363  10.386
 4518W        W 8569   9.116   9.520   3.228
 4519W        W 8570   3.907   6.940   2.418
 4520W        W 8571   3.752   7.099  10.122
 4521W        W 8572   4.626   6.404   3.979
 4522W        W 8573   4.710   7.525   9.549
 4523W        W 8574   7.039   8.741  11.582
 4524W        W 8575   1.296  10.489  10.874
 4525W        W 8576   5.689   8.459   8.617
 4526W        W 8577   9.365   1.087   0.222
 4527W        W 8578   2.001   6.988   0.816
 4528W        W 8579   1.133   7.119   9.526
 4529W        W 8580   5.824   5.291  10.564
 4530W        W 8581   6.865   8.533   1.063
 4531W        W 8582   4.045   7.549  10.526
 4532W        W 8583   6.058   2.804   1.310
 4533W        W 8584  11.458   5.142  11.600
 4534W        W 8585   6.696   9.527   1.960
 4535W        W 8586   6.863   8.154  11.774
 4536W        W 8587   4.298   6.982   2.093
 4537W        W 8588   6.073   7.393   1.752
 4538W        W 8589   6.208   0.474  10.334
 4539W        W 8590   9.642   7.999   0.787
 4540W        W 8591   9.912   3.828  10.799
 4541W        W 8592  11.197   1.320   0.067
 4542W        W 8593   5.999   2.644   9.071
 4543W        W 8594  11.376   2.482  11.549
 4544W        W 8595   3.107   6.648   2.046
 4545W        W 8596   6.250   9.056   9.098
 4546W        W 8597   6.829   0.252   0.006
 4547W        W 8598   2.293   0.951  10.402
 4548W        W 8599   7.125   0.284  10.489
 4549W        W 8600   8.088   8.423  10.452
 4550W        W 8601   7.953   3.319  10.152
 4551W        W 8602   9.651  10.411   3.276
 4552W        W 8603   2.606   8.090   8.882
 4553W        W 8604   7.901   3.200   9.647
 4554W        W 8605   9.840   6.126   1.147
 4555W        W 8606   2.474   6.537   9.626
 4556W        W 8607   4.598   9.504  11.219
 4557W        W 8608   5.975   4.385   8.471
 4558W        W 8609   7.756   7.927   9.645
 4559W        W 8610   1.214  11.445   0.955
 4560W        W 8611   6.599  10.816   9.805
 4561W        W 8612   4.610   6.305   8.819
 4562W        W 8613   8.588   9.448   3.020
 4563W        W 8614   5.032  11.050  11.569
 4564W        W 8615   4.590  11.233   0.862
 4565W        W 8616   0.030   9.927   3.151
 4566W        W 8617   4.546   3.375   2.738
 4567W        W 8618   3.338   7.157   0.767
 4568W        W 8619   3.004   9.861   2.924
 4569W        W 8620  10.736  10.326   1.841
 4570W        W 8621   7.513   7.194   2.923
 4571W        W 8622  10.469   6.508   9.346
 4572W        W 8623  11.463   6.805  10.984
 4573W        W 8624   1.294   8.772  10.553
 4574W        W 8625   3.418   9.299   8.776
 4575W        W 8626   8.805   3.044  10.052
 4576W        W 8627   9.623   5.774   9.907
 4577W        W 8628   9.471   6.100   3.426
 4578W        W 8629   2.683   2.302  11.370
 4579W        W 8630   1.474   2.663  11.493
 4580W        W 8631   9.884   8.369  10.319
 4581W        W 8632   9.717   4.769   9.726
 4582W        W 8633   8.107   2.253  11.940
 4583W        W 8634   9.826   4.122  10.054
 4584W        W 8635   2.363  10.145  11.892
 4585W        W 8636   1.318   5.547  10.516
 4586W        W 8637   7.467   1.190  10.938
 4587W        W 8638  10.115   2.744   3.311
 4588W        W 8639   2.146   6.761  11.784
 4589W        W 8640   1.731   4.049   3.407
 4590W        W 8641   5.961   9.130   2.082
 4591W        W 8642  10.503   2.690   2.955
 4592W        W 8643  10.870   8.662   0.386
 4593W        W 8644   6.518  10.629   3.237
 4594W        W 8645   9.378   0.849   1.316
 4595W        W 8646   9.295   3.965   3.441
 4596W        W 8647   4.548  10.816  10.188
 4597W        W 8648   6.420  10.745   0.932
 4598W        W 8649   9.560  11.155   8.465
 4599W        W 8650  10.852   4.036   3.302
 4600W        W 8651   0.752   8.611   8.925
 4601W        W 8652   0.398   5.655   2.370
 4602W        W 8653   4.640   3.195  10.867
 4603W        W 8654  10.279  10.101  10.578
 4604W        W 8655  11.376   4.405   1.151
 4605W        W 8656   7.995   9.948   1.901
 4606W        W 8657   9.926   4.378   2.907
 4607W        W 8658   2.213   4.854   1.660
 4608W        W 8659   6.511   0.699   9.985
 4609W        W 8660   8.618   6.659   9.272
 4610W        W 8661   5.889   3.382  10.285
 4611W        W 8662   7.189   6.166   1.195
 4612W        W 8663   4.251   6.685   9.475
 4613W        W 8664   8.635   2.080   3.587
 4614W        W 8665   7.448   4.269  11.499
 4615W        W 8666   4.242   0.556  10.888
 4616W        W 8667   9.285   3.375   0.013
 4617W        W 8668   0.307   2.694  10.073
 4618W        W 8669   3.805   2.204   9.556
 4619W        W 8670   7.420  11.279   9.480
 4620W        W 8671   0.157   2.248  11.950
 4621W        W 8672   8.043  11.275   2.011
 4622W        W 8673   1.447   8.430   9.695
 4623W        W 8674   2.335   7.664   9.730
 4624W        W 8675   4.987   2.848   2.247
 4625W        W 8676   5.572   7.083   1.192
 4626W        W 8677   5.685   4.236   2.703
 4627W        W 8678   8.843   9.487   1.175
 4628W        W 8679   8.324   0.213   2.512
 4629W        W 8680   2.798   4.735  10.882
 4630W        W 8681   5.186   9.275  11.543
 4631W        W 8682   6.066   0.361   2.808
 4632W        W 8683   4.181   7.536   9.533
 4633W        W 8684   2.352   3.478   9.478
 4634W        W 8685  11.288  11.247   1.321
 4635W        W 8686   8.368  10.785   3.267
 4636W        W 8687   1.220   2.654   8.899
 4637W        W 8688   2.643   8.656   2.253
 4638W        W 8689  10.105   9.785   0.445
 4639W        W 8690   1.864   2.029  11.936
 4640W        W 8691   5.785   1.223   8.967
 4641W        W 8692   1.839   3.696  10.504
 4642W        W 8693   4.583   3.173   9.961
 4643W        W 8694   5.691   3.638  11.000
 4644W        W 8695   6.442   8.275  10.858
 4645W        W 8696   9.373  10.826   3.109
 4646W        W 8697   1.215   3.141   8.645
 4647W        W 8698   7.709   8.585   2.301
 4648W        W 8699  10.977   8.636   9.347
 4649W        W 8700   3.106   0.799   0.753
 4650W        W 8701   4.722   9.063  10.960
 4651W        W 8702   3.157   0.867   9.097
 4652W        W 8703   6.334   8.870  11.934
 4653W        W 8704   5.182  10.577   3.309
 4654W        W 8705  11.315   2.600   9.999
 4655W        W 8706   8.080   0.985   9.082
 4656W        W 8707   6.748   7.705  11.555
 4657W        W 8708   2.164   9.809   0.752
 4658W        W 8709   0.379  10.977   2.636
 4659W        W 8710  11.076   2.604  10.476
 4660W        W 8711   7.556   5.980   0.848
 4661W        W 8712   3.179   4.352   1.213
 4662W        W 8713   2.336   4.136  11.610
 4663W        W 8714  10.023  10.235   2.339
 4664W        W 8715   7.202  10.324   2.413
 4665W        W 8716   8.244   8.546   3.414
 4666W        W 8717   1.312   9.284   8.965
 4667W        W 8718  10.908   0.869  11.856
 4668W        W 8719   6.512   0.084   2.849
 4669W        W 8720  10.374   8.986   0.080
 4670W        W 8721   2.691   1.164   0.310
 4671W        W 8722   7.830   7.719   0.883
 4672W        W 8723   7.517   4.625  10.044
 4673W        W 8724   5.683   3.593   0.254
 4674W        W 8725  10.485   3.633   1.348
 4675W        W 8726   8.245   2.446   1.948
 4676W        W 8727  11.492   9.049   9.128
 4677W        W 8728   3.237   3.358   9.457
 4678W        W 8729   1.666  10.689   0.445
 4679W        W 8730   2.293   4.371   1.457
 4680W        W 8731   0.549   7.063   0.238
 4681W        W 8732  10.996   7.212   9.031
 4682W        W 8733  10.126   9.093   0.941
 4683W        W 8734   1.371   3.345   3.348
 4684W        W 8735   4.813   0.471  11.521
 4685W        W 8736   0.829  10.901   0.217
 4686W        W 8737   9.526   2.388   0.992
 4687W        W 8738   2.880  10.937   8.487
 4688W        W 8739   5.000   9.380   3.461
 4689W        W 8740   8.071   8.475   0.397
 4690W        W 8741   0.565   2.314   0.281
 4691W        W 8742   0.817   7.413   3.560
 4692W        W 8743   8.077   2.028   8.552
 4693W        W 8744   8.553   8.459   2.494
 4694W        W 8745   6.162   6.210  10.274
 4695W        W 8746   0.303   5.260  10.267
 4696W        W 8747   9.818   9.435  11.138
 4697W        W 8748  10.328   0.735   2.747
 4698W        W 8749   2.886   5.054   2.160
 4699W        W 8750   4.975  11.065  10.326
 4700W        W 8751   4.043  10.562  10.255
 4701W        W 8752   9.597  10.991  10.335
 4702W        W 8753   2.963   4.975   1.675
 4703W        W 8754  10.126   3.766  11.248
 4704W        W 8755   5.107  10.936   1.511
 4705W        W 8756   7.527   0.586  10.653
 4706W        W 8757   6.736   6.286  10.518
 4707W        W 8758   6.255   7.123   0.866
 4708W        W 8759   0.129   4.171   2.671
 4709W        W 8760   7.025   1.442   2.115
 4710W        W 8761   2.982   6.867   1.014
 4711W        W 8762  10.608   0.792   1.832
 4712W        W 8763   9.613   1.682  11.498
 4713W        W 8764   2.452   7.035   0.542
 4714W        W 8765   3.157   9.593  10.086
 4715W        W 8766  10.459   9.002   9.243
 4716W        W 8767   5.123  10.555  11.587
 4717W        W 8768   4.782   5.243   1.268
 4718W        W 8769   8.085   0.653   2.246
 4719W        W 8770   0.594   8.709   0.937
 4720W        W 8771   3.493   4.653   3.533
 4721W        W 8772   6.118   5.205   1.049
 4722W        W 8773   2.010   9.086   1.326
 4723W        W 8774   4.841   0.986   9.311
 4724W        W 8775   0.892   2.432   0.712
 4725W        W 8776   8.613   4.636   9.530
 4726W        W 8777   7.258   9.971  11.084
 4727W        W 8778   4.265   7.141  10.280
 4728W        W 8779   7.386   0.838  10.226
 4729W        W 8780   2.584   4.271  10.722
 4730W        W 8781   0.454  10.821   1.663
 4731W        W 8782   9.739   6.614  10.858
 4732W        W 8783   5.883   6.899   3.538
 4733W        W 8784   5.638   4.530   3.478
 4734W        W 8785  10.793   9.566  11.305
 4735W        W 8786   1.560   6.901   0.525
 4736W        W 8787  10.328   3.657   2.467
 4737W        W 8788   8.852  10.872   3.067
 4738W        W 8789   6.353   0.672   9.518
 4739W        W 8790   9.876   0.447  11.809
 4740W        W 8791   6.028   2.667   9.947
 4741W        W 8792   3.131   1.032   3.104
 4742W        W 8793   1.612   0.676   9.968
 4743W        W 8794   4.727   5.251   1.781
 4744W        W 8795   1.820   0.464  11.744
 4745W        W 8796   1.696   3.367  11.951
 4746W        W 8797  11.412   6.160  10.941
 4747W        W 8798   0.715   9.585   1.106
 4748W        W 8799   6.094   7.903   1.746
 4749W        W 8800   1.259   8.285  10.698
 4750W        W 8801   2.708   0.375  11.740
 4751W        W 8802   5.545   6.692   0.881
 4752W        W 8803   0.254   6.180   1.015
 4753W        W 8804   1.715   9.556   9.111
 4754W        W 8805   7.766   6.590  11.885
 4755W        W 8806   9.956   7.999   9.169
 4756W        W 8807   1.904   7.181   8.955
 4757W        W 8808   7.366  11.291  10.367
 4758W        W 8809   4.854  10.839   0.006
 4759W        W 8810   1.303  10.691   2.825
 4760W        W 8811   8.470   9.913   3.227
 4761W        W 8812   8.115  11.454   3.488
 4762W        W 8813   8.044   0.214   1.333
 4763W        W 8814   4.694   2.209  10.069
 4764W        W 8815   2.246   5.710   2.214
 4765W        W 8816   4.328   1.884  10.161
 4766W        W 8817   9.518  10.090   9.441
 4767W        W 8818   1.400   1.472   0.416
 4768W        W 8819  10.434   5.555   8.887
 4769W        W 8820   5.727  11.429   2.306
 4770W        W 8821  10.287   5.241   1.309
 4771W        W 8822   3.647   8.251   2.696
 4772W        W 8823   2.608   9.144   2.437
 4773W        W 8824   5.017   6.200   1.401
 4774W        W 8825  11.445   4.719  10.071
 4775W        W 8826   2.491   7.190   3.640
 4776W        W 8827   0.705   7.570  10.197
 4777W        W 8828   8.032   0.483   8.914
 4778W        W 8829   1.876  11.262   3.458
 4779W        W 8830   1.058  10.506   1.046
 4780W        W 8831   0.186   9.355   0.496
 4781W        W 8832   9.042   3.441   1.894
 4782W        W 8833   9.681   3.732   0.108
 4783W        W 8834   5.970   1.681  11.817
 4784W        W 8835   9.962   5.270   1.699
 4785W        W 8836   6.093   6.405   1.744
 4786W        W 8837  10.420   5.814  10.994
 4787W        W 8838   6.601   4.325   1.428
 4788W        W 8839   8.195   3.719   2.814
 4789W        W 8840   0.826  11.334   3.619
 4790W        W 8841   3.817   9.830   3.522
 4791W        W 8842  11.244   1.208  10.234
 4792W        W 8843   5.334  10.693   0.080
 4793W        W 8844   6.256   1.537  11.414
 4794W        W 8845   3.225   7.208  11.877
 4795W        W 8846   5.908  11.085  10.407
 4796W        W 8847  11.091  11.221   2.188
 4797W        W 8848   6.083   7.568   0.739
 4798W        W 8849   6.521   9.843   0.847
 4799W        W 8850   1.983   3.263   2.324
 4800W        W 8851   2.899   2.254   1.706
 4801W        W 8852  10.037   9.928   1.355
 4802W        W 8853   2.030  10.483   0.071
 4803W        W 8854   6.176   8.681   9.466
 4804W        W 8855   0.819   2.845   2.685
 4805W        W 8856  10.844   2.243   9.237
 4806W        W 8857   4.264   1.048   3.702
 4807W        W 8858   2.269   3.116  11.271
 4808W        W 8859  10.697   0.077   2.246
 4809W        W 8860   2.546  11.369  11.780
 4810W        W 8861   0.903   1.408   2.842
 4811W        W 8862   1.306   1.049  10.095
 4812W        W 8863   3.111   1.173   0.009
 4813W        W 8864   8.547   3.578   0.396
 4814W        W 8865  11.479   3.868   0.498
 4815W        W 8866  10.434   5.307   9.892
 4816W        W 8867   2.235   5.234   8.570
 4817W        W 8868   2.638   5.087   3.162
 4818W        W 8869   6.545   3.949  11.816
 4819W        W 8870   8.499   9.386   2.495
 4820W        W 8871   8.178   2.363   1.446
 4821W        W 8872   0.210   9.522   0.975
 4822W        W 8873   3.221   1.602  10.907
 4823W        W 8874   1.993  11.467  10.449
 4824W        W 8875   7.060   9.308   8.483
 4825W        W 8876   7.266   4.267   2.756
 4826W        W 8877   9.978  11.454  11.011
 4827W        W 8878   8.387   0.820  11.682
 4828W        W 8879   4.674   3.742   9.064
 4829W        W 8880   5.993   9.583   3.036
 4830W        W 8881   9.063   1.736   9.808
 4831W        W 8882   5.749   6.429   3.102
 4832W        W 8883   6.933   2.207  10.495
 4833W        W 8884   5.461   4.508   8.316
 4834W        W 8885   2.720   7.083   8.578
 4835W        W 8886   4.673   4.822  10.486
 4836W        W 8887   7.928   6.215   9.752
 4837W        W 8888   3.572  11.273   2.137
 4838W        W 8889  11.266   2.038   9.474
 4839W        W 8890  10.273   0.492  10.234
 4840W        W 8891  10.413   8.341   0.491
 4841W        W 8892   4.524   2.387   0.513
 4842W        W 8893   6.993   8.920   1.752
 4843W        W 8894   5.136   2.623   8.997
 4844W        W 8895   6.989   2.751   2.256
 4845W        W 8896   2.582   0.948   0.758
 4846W        W 8897  10.557   3.497  11.259
 4847W        W 8898   9.638   4.095   0.452
 4848W        W 8899   6.079   8.166   1.298
 4849W        W 8900   3.132  11.292   0.953
 4850W        W 8901   0.254  10.029   0.901
 4851W        W 8902   5.700  10.491   1.632
 4852W        W 8903   6.935   2.952   0.952
 4853W        W 8904  10.452   4.892  10.820
 4854W        W 8905   3.506  10.860   1.296
 4855W        W 8906   8.037   2.317   2.413
 4856W        W 8907   8.346   0.214   1.995
 4857W        W 8908   2.420   5.122  10.798
 4858W        W 8909   1.696   9.658   2.057
 4859W        W 8910   2.259  10.501   9.623
 4860W        W 8911   3.015   9.427   2.656
 4861W        W 8912   6.744   2.609   2.682
 4862W        W 8913  10.658   5.474   3.161
 4863W        W 8914   6.825   8.015   1.074
 4864W        W 8915   3.915   8.763   0.454
 4865W        W 8916   8.562  10.855   9.064
 4866W        W 8917   9.949  10.956  10.868
 4867W        W 8918   0.307  11.411   8.788
 4868W        W 8919   9.422   7.495   2.579
 4869W        W 8920  11.428   6.558   1.346
 4870W        W 8921  10.450   3.180   3.223
 4871W        W 8922   4.917   1.774   2.299
 4872W        W 8923  10.337   4.640  11.904
 4873W        W 8924   7.571   2.028   3.016
 4874W        W 8925   6.122   8.422   1.741
 4875W        W 8926  10.810   0.609   2.306
 4876W        W 8927   3.868   1.351   2.922
 4877W        W 8928   1.450   6.099   0.563
 4878W        W 8929   6.166   5.049   0.024
 4879W        W 8930   7.055   5.165   1.164
 4880W        W 8931   2.274  10.299   1.445
 4881W        W 8932   8.852   1.322   2.242
 4882W        W 8933   8.569  10.378   9.949
 4883W        W 8934   0.732   0.583  11.420
 4884W        W 8935   1.478   4.083   2.323
 4885W        W 8936   4.090   6.331   8.074
 4886W        W 8937   8.854   2.086   3.113
 4887W        W 8938   2.222   2.453   2.214
 4888W        W 8939  10.565   0.294   9.828
 4889W        W 8940   0.773   9.488  10.401
 4890W        W 8941   3.583   7.479  11.265
 4891W        W 8942   7.726   5.074  11.054
 4892W        W 8943   3.132   6.775   8.516
 4893W        W 8944   0.919   7.966   0.580
 4894W        W 8945   5.977   2.573   3.632
 4895W        W 8946   3.180   7.596  10.515
 4896W        W 8947   8.373  10.870  10.027
 4897W        W 8948   9.576  10.893   8.942
 4898W        W 8949   3.506   8.885   9.528
 4899W        W 8950   7.791   3.609   1.877
 4900W        W 8951   2.953   1.154  10.926
 4901W        W 8952   2.309   7.439  11.063
 4902W        W 8953   7.957   5.511  10.313
 4903W        W 8954   5.203   8.617   1.654
 4904W        W 8955  11.460   2.055   9.944
 4905W        W 8956   6.617   1.439   0.363
 4906W        W 8957   2.604   5.769   0.249
 4907W        W 8958   0.867   3.609  11.952
 4908W        W 8959   3.677   6.309   9.002
 4909W        W 8960   0.891   9.556   9.083
 4910W        W 8961  10.147   6.563   3.840
 4911W        W 8962   4.673   7.487  11.044
 4912W        W 8963   7.113   8.066   0.229
 4913W        W 8964  10.014   5.175   9.553
 4914W        W 8965   0.281   1.656   2.267
 4915W        W 8966   2.853   1.421   2.872
 4916W        W 8967   1.498  10.409   2.258
 4917W        W 8968  11.427   7.005  11.451
 4918W        W 8969   9.481   3.436   2.181
 4919W        W 8970   8.970   0.892   9.338
 4920W        W 8971   3.664  10.351   1.172
 4921W        W 8972  10.913   2.210  11.435
 4922W        W 8973  10.443   0.101   9.344
 4923W        W 8974   9.252   6.090   2.427
 4924W        W 8975   6.872   7.484   3.179
 4925W        W 8976   6.267  11.314   1.649
 4926W        W 8977   6.404   5.861   9.624
 4927W        W 8978   7.246   2.734   1.359
 4928W        W 8979  10.234   6.514   1.922
 4929W        W 8980   0.762   5.758  11.042
 4930W        W 8981   5.467   2.847   2.415
 4931W        W 8982   7.526   0.472   0.444
 4932W        W 8983   1.124   6.024   0.945
 4933W        W 8984   3.679   8.518   3.141
 4934W        W 8985  10.200   1.160   0.050
 4935W        W 8986   2.753   1.903   0.692
 4936W        W 8987   3.184  10.469   9.573
 4937W        W 8988   3.919   6.973  11.158
 4938W        W 8989   7.430   1.961  10.509
 4939W        W 8990   4.230   2.405   8.823
 4940W        W 8991   3.396   9.868  11.933
 4941W        W 8992   8.751   3.831   1.701
 4942W        W 8993   8.029   6.487   2.773
 4943W        W 8994   1.152  10.444  11.980
 4944W        W 8995  10.437   7.482   0.157
 4945W        W 8996  10.846   1.565   2.447
 4946W        W 8997   9.937   8.950   0.466
 4947W        W 8998   9.627   4.213   8.993
 4948W        W 8999   2.618   1.355  11.257
 4949W        W 9000   4.191  10.997   1.685
 4950W        W 9001   6.999   0.797   3.134
 4951W        W 9002   8.519   8.828   1.705
 4952W        W 9003   1.838   3.037   2.751
 4953W        W 9004  11.499   2.878  10.455
 4954W        W 9005   8.877   7.822  10.622
 4955W        W 9006   5.919  10.441   1.174
 4956W        W 9007   2.797  11.338   2.659
 4957W        W 9008   2.600   2.435   1.276
 4958W        W 9009  10.327   7.429   2.391
 4959W        W 9010   9.335   4.806   2.289
 4960W        W 9011   2.916   5.093   1.195
 4961W        W 9012  10.371   1.658  10.956
 4962W        W 9013  10.887   6.118   3.233
 4963W        W 9014   1.241   4.297   9.393
 4964W        W 9015   1.343   0.386   2.007
 4965W        W 9016   7.218   7.921  11.490
 4966W        W 9017   3.815   8.154   1.915
 4967W        W 9018   1.731   8.147   2.286
 4968W        W 9019   5.887   7.270  11.771
 4969W        W 9020   0.762   3.286   3.555
 4970W        W 9021   2.189   5.851   3.256
 4971W        W 9022  10.268  11.399   2.507
 4972W        W 9023   6.458   0.943  10.425
 4973W        W 9024   6.506   6.220   2.023
 4974W        W 9025  10.133   5.107  11.923
 4975W        W 9026  11.005   4.971  10.807
 4976W        W 9027   8.845   6.524   8.284
 4977W        W 9028   1.761   4.960   0.769
 4978W        W 9029   6.450   5.739   0.409
 4979W        W 9030   6.658   4.939  11.963
 4980W        W 9031   6.233  10.425   1.612
 4981W        W 9032  11.065   0.499   9.913
 4982W        W 9033  10.169   3.753   0.215
 4983W        W 9034   5.223   6.708   2.268
 4984W        W 9035   9.352   5.954   9.488
 4985W        W 9036   0.387   9.025  11.605
 4986W        W 9037   2.304   3.712   0.341
 4987W        W 9038   4.931   9.984   9.219
 4988W        W 9039   9.099   5.507   9.548
 4989W        W 9040   1.735   6.741   9.897
 4990W        W 9041   4.748  11.473  11.569
 4991W        W 9042   7.043   5.543  11.209
 4992W        W 9043   2.484   4.152   2.270
 4993W        W 9044   6.687  11.013   3.564
 4994W        W 9045   7.901   5.914  11.448
 4995W        W 9046   6.733   7.968   0.574
 4996W        W 9047   3.507   7.918   2.313
 4997W        W 9048   8.385   6.061  11.409
 4998W        W 9049  11.420   6.431   9.833
 4999W        W 9050   1.984   2.680   9.390
 5000W        W 9051   7.329   9.713   8.593
 5001W        W 9052   5.793   6.652   1.387
 5002W        W 9053  11.265   2.136   8.969
 5003W        W 9054   8.267  10.562  11.444
 5004W        W 9055   0.169   8.074  11.288
 5005W        W 9056  10.002   5.213   3.508
 5006W        W 9057   0.966   9.090   3.736
 5007W        W 9058   2.877   6.534  11.913
 5008W        W 9059   7.292  10.443  11.340
 5009W        W 9060   4.018   0.174   3.554
 5010W        W 9061   8.044   6.846   1.232
 5011W        W 9062   8.639   4.036   2.713
 5012W        W 9063   3.631  11.229   0.867
 5013W        W 9064   0.694   7.740   2.429
 5014W        W 9065   5.464   9.416   3.671
 5015W        W 9066   0.998   9.615  10.898
 5016W        W 9067   7.391   2.606   9.939
 5017W        W 9068   4.163   6.079   1.673
 5018W        W 9069   7.573  11.070   2.749
 5019W        W 9070   8.571   7.406  10.699
 5020W        W 9071   6.541   6.124   8.211
 5021W        W 9072   2.673   6.458   0.949
 5022W        W 9073   3.268   2.620  11.996
 5023W        W 9074   6.545   8.465   9.182
 5024W        W 9075   2.599  11.110   1.066
 5025W        W 9076   6.701  10.289   2.429
 5026W        W 9077   3.115   1.188   1.061
 5027W        W 9078   8.689  10.317   9.016
 5028W        W 9079   5.453   3.138   9.274
 5029W        W 9080   5.942   5.798  10.509
 5030W        W 9081  10.038   3.694  11.730
 5031W        W 9082  10.015   5.599   9.175
 5032W        W 9083   8.506   2.582  10.101
 5033W        W 9084   5.289   2.140  11.487
 5034W        W 9085   0.562   2.316  10.345
 5035W        W 9086   1.370   9.501  11.556
 5036W        W 9087   6.672   8.385   2.286
 5037W        W 9088   8.177   9.493   3.327
 5038W        W 9089   9.855   8.659   2.835
 5039W        W 9090   2.520   6.681   3.454
 5040W        W 9091   1.359   1.456   1.805
 5041W        W 9092   9.817   9.348   2.147
 5042W        W 9093   5.314   5.116  11.603
 5043W        W 9094   6.700  11.449   1.431
 5044W        W 9095   8.953   8.250   8.151
 5045W        W 9096   2.738   7.913   9.882
 5046W        W 9097   1.662   1.553   2.616
 5047W        W 9098   5.792   9.118   0.522
 5048W        W 9099  10.926   5.551  11.882
 5049W        W 9100   1.484   4.545   9.022
 5050W        W 9101   5.592   6.149  10.663
 5051W        W 9102  11.197  10.786   9.511
 5052W        W 9103   9.355   1.848   1.059
 5053W        W 9104   5.254   1.387   8.597
 5054W        W 9105   9.629   3.795   9.493
 5055W        W 9106   2.502   2.933  10.520
 5056W        W 9107   3.750   8.455   9.240
 5057W        W 9108  11.131   1.497   0.971
 5058W        W 9109   8.617  10.822  10.480
 5059W        W 9110   5.594   7.646   8.282
 5060W        W 9111   1.394   5.702   2.749
 5061W        W 9112   7.549  10.929   1.335
 5062W        W 9113   0.465   1.480   0.308
 5063W        W 9114   4.515   1.269  11.993
 5064W        W 9115   0.265   7.495   2.519
 5065W        W 9116   2.473   5.302   0.514
 5066W        W 9117   7.812   5.501  11.713
 5067W        W 9118   7.591   8.920  10.183
 5068W        W 9119   3.072   1.834  10.053
 5069W        W 9120   3.997   0.460   1.977
 5070W        W 9121   7.494   0.678  11.609
 5071W        W 9122   4.080   4.822   0.807
 5072W        W 9123   9.608   1.352   2.920
 5073W        W 9124   6.641   7.546   9.167
 5074W        W 9125   3.261   7.792   8.925
 5075W        W 9126  11.477   0.789  10.815
 5076W        W 9127   1.425   5.099   8.998
 5077W        W 9128   7.068  10.447   3.328
 5078W        W 9129   1.291   2.306   2.935
 5079W        W 9130   8.783   3.135  10.973
 5080W        W 9131   1.763   7.640  11.859
 5081W        W 9132   4.084   2.176   2.200
 5082W        W 9133  10.107   1.729  11.393
 5083W        W 9134   3.344   8.660   2.741
 5084W        W 9135   7.837   7.426   3.263
 5085W        W 9136   4.598   4.402  11.319
 5086W        W 9137  11.313   9.247  11.288
 5087W        W 9138   8.556   7.185  10.229
 5088W        W 9139   3.450   7.082  10.972
 5089W        W 9140   1.939   0.260  10.001
 5090W        W 9141   2.926  10.046   0.514
 5091W        W 9142   0.527  11.035   9.099
 5092W        W 9143   1.783   6.452   2.450
 5093W        W 9144   3.595   8.858  10.024
 5094W        W 9145   8.518   2.829   3.157
 5095W        W 9146   6.998   0.709  11.779
 5096W        W 9147   9.345  11.163  11.693
 5097W        W 9148   9.319  11.115   9.349
 5098W        W 9149   2.660   5.568   9.260
 5099W        W 9150   1.374   7.892  10.401
 5100W        W 9151   4.348   9.094   8.581
 5101W        W 9152  11.115   9.581   3.096
 5102W        W 9153   0.783   6.609   0.296
 5103W        W 9154   3.797   7.999   0.506
 5104W        W 9155   2.468   9.607  11.136
 5105W        W 9156   9.014   6.295   1.786
 5106W        W 9157   4.345   7.123   2.617
 5107W        W 9158  10.794   8.232   3.164
 5108W        W 9159   6.620   9.407   0.556
 5109W        W 9160   1.355   0.467   0.929
 5110W        W 9161   4.555   3.020   1.915
 5111W        W 9162   8.599   3.633   8.383
 5112W        W 9163   4.487   5.987  10.653
 5113W        W 9164   4.479   1.476   3.334
 5114W        W 9165   3.455   9.158   2.818
 5115W        W 9166   0.874   5.311   3.174
 5116W        W 9167   0.354  11.075   3.633
 5117W        W 9168   0.245   9.446  10.427
 5118W        W 9169   1.746  10.868   2.618
 5119W        W 9170   1.887   3.218   3.224
 5120W        W 9171  11.450  10.807   2.331
 5121W        W 9172   0.384   5.411  11.658
 5122W        W 9173   1.767  11.363   1.928
 5123W        W 9174   3.763   7.629   1.891
 5124W        W 9175   7.996   6.931  11.522
 5125W        W 9176   4.598   4.383   1.690
 5126W        W 9177  10.831   0.976  10.080
 5127W        W 9178  10.623   2.240  11.863
 5128W        W 9179   5.476   5.216  10.207
 5129W        W 9180   7.447   8.854  10.668
 5130W        W 9181   4.041   3.131  10.515
 5131W        W 9182   0.762   4.321   9.064
 5132W        W 9183   3.254   6.700   9.347
 5133W        W 9184   4.504   3.760   2.324
 5134W        W 9185  10.882   2.141   3.575
 5135W        W 9186   6.530   9.800   2.335
 5136W        W 9187   0.894   1.677   3.285
 5137W        W 9188   0.945   1.901  11.499
 5138W        W 9189   1.392   9.920  11.253
 5139W        W 9190   2.637   3.790   9.933
 5140W        W 9191   3.386   3.195  11.967
 5141W        W 9192   1.002   7.916   2.865
 5142W        W 9193   8.146   4.604   3.130
 5143W        W 9194   6.008   2.822   8.579
 5144W        W 9195  10.399   7.001   3.212
 5145W        W 9196   6.200   1.790   0.271
 5146W        W 9197  11.472   9.220   1.780
 5147W        W 9198   0.422   9.567   2.480
 5148W        W 9199   5.028   4.316   3.609
 5149W        W 9200   1.559   1.905   1.691
 5150W        W 9201   2.235   0.740   1.095
 5151W        W 9202   5.250   1.276   1.628
 5152W        W 9203   3.058   5.373   3.382
 5153W        W 9204   6.050   7.434  10.772
 5154W        W 9205  10.840   2.784  10.060
 5155W        W 9206   6.174   2.141  11.869
 5156W        W 9207   4.598   4.837  11.957
 5157W        W 9208  10.596   1.371   3.198
 5158W        W 9209   0.901   8.442   1.255
 5159W        W 9210   5.709   0.944   9.403
 5160W        W 9211   6.893   4.081   1.843
 5161W        W 9212   3.589   5.207   8.327
 5162W        W 9213   8.835  11.346   1.201
 5163W        W 9214   3.707   7.461  11.748
 5164W        W 9215   9.064   2.273  10.989
 5165W        W 9216   9.963   9.826   9.306
 5166W        W 9217   4.197   5.178   1.588
 5167W        W 9218   2.469  10.441   2.597
 5168W        W 9219   1.300   4.733   0.705
 5169W        W 9220   1.245   8.133   1.039
 5170W        W 9221   1.901   4.081  10.118
 5171W        W 9222   2.647   4.641   2.426
 5172W        W 9223   7.906   8.810  11.571
 5173W        W 9224   8.557   5.740   2.626
 5174W        W 9225  10.263   7.020   0.941
 5175W        W 9226   0.812   4.203   3.485
 5176W        W 9227   0.930   5.526   2.530
 5177W        W 9228   8.772   6.097   1.014
 5178W        W 9229   1.773   4.130   2.841
 5179W        W 9230   2.146   9.285   2.895
 5180W        W 9231   5.117   7.028   0.212
 5181W        W 9232  10.748   2.673   1.672
 5182W        W 9233   9.504   5.736   9.001
 5183W        W 9234  10.846  10.433   8.767
 5184W        W 9235   3.608   4.200   1.462
 5185W        W 9236   0.421   5.473  10.766
 5186W        W 9237   6.089   7.629   1.255
 5187W        W 9238   9.655   1.227   3.425
 5188W        W 9239   3.361   4.289   9.884
 5189W        W 9240  10.995   1.127   3.390
 5190W        W 9241   8.104   1.920   9.100
 5191W        W 9242   6.053   0.935   3.520
 5192W        W 9243   0.708  10.869  10.331
 5193W        W 9244   6.908   9.612   8.864
 5194W        W 9245  10.978   2.492   2.654
 5195W        W 9246   9.235   5.315   9.099
 5196W        W 9247   0.939   4.159  10.766
 5197W        W 9248   9.510  10.358   2.371
 5198W        W 9249   3.842   6.469  11.294
 5199W        W 9250   1.830   7.543  10.936
 5200W        W 9251   3.702   6.118   2.002
 5201W        W 9252   2.678   1.759   9.287
 5202W        W 9253   8.904   4.159  10.186
 5203W        W 9254   4.953   3.070   9.179
 5204W        W 9255   6.382   6.230   0.518
 5205W        W 9256   8.634   1.882   9.043
 5206W        W 9257   9.409  10.844   2.230
 5207W        W 9258   9.113   5.207   0.026
 5208W        W 9259   4.656   9.487   0.262
 5209W        W 9260   3.399   7.034   2.312
 5210W        W 9261   2.006   6.334   9.728
 5211W        W 9262   6.783  11.130   0.906
 5212W        W 9263   3.996   1.002   9.938
 5213W        W 9264   6.134   0.527   8.803
 5214W        W 9265   9.123   6.606  11.675
 5215W        W 9266   9.554   1.439   1.955
 5216W        W 9267   8.957   8.540   8.577
 5217W        W 9268   6.588   6.809   3.413
 5218W        W 9269  10.415   5.214   0.433
 5219W        W 9270   0.802   7.125  10.507
 5220W        W 9271   2.250   5.574  10.583
 5221W        W 9272   1.515   4.978   9.847
 5222W        W 9273   0.267   2.140  11.457
 5223W        W 9274   9.329   0.012   2.956
 5224W        W 9275   7.975   1.193   0.178
 5225W        W 9276   3.363   7.070   1.286
 5226W        W 9277   3.556   8.463   1.137
 5227W        W 9278   8.940   7.314  11.541
 5228W        W 9279   2.480   4.252   0.103
 5229W        W 9280   0.882   0.336   1.303
 5230W        W 9281   5.293   1.110   9.056
 5231W        W 9282   7.953   9.351  10.878
 5232W        W 9283   1.250   8.659  11.076
 5233W        W 9284   2.672   0.082   2.184
 5234W        W 9285   3.173  10.830   0.134
 5235W        W 9286   0.643   5.480   0.436
 5236W        W 9287   1.108   1.837   9.504
 5237W        W 9288   2.080   2.911  10.823
 5238W        W 9289   8.480   4.927   2.317
 5239W        W 9290   6.643   0.426  11.206
 5240W        W 9291   9.369   9.866  11.974
 5241W        W 9292   9.685   8.537   1.144
 5242W        W 9293  11.148   8.209  10.700
 5243W        W 9294  11.052   3.972  10.975
 5244W        W 9295   9.320   2.174  11.517
 5245W        W 9296   3.167   4.773   2.512
 5246W        W 9297  11.221   0.476   0.090
 5247W        W 9298   1.477   2.742   9.449
 5248W        W 9299   9.817   2.153  11.495
 5249W        W 9300   7.597   4.128  10.171
 5250W        W 9301   0.654   7.592   3.030
 5251W        W 9302   0.960   2.797  11.355
 5252W        W 9303   6.095   2.047  10.843
 5253W        W 9304   7.229   1.513  11.334
 5254W        W 9305   1.805   8.178   3.117
 5255W        W 9306   3.931   2.795   1.151
 5256W        W 9307   8.526  10.015  11.814
 5257W        W 9308  10.390   1.255   1.792
 5258W        W 9309   1.729   0.016   0.928
 5259W        W 9310   9.251   7.613   1.554
 5260W        W 9311   9.564   8.957   9.870
 5261W        W 9312   9.125   5.414   1.908
 5262W        W 9313   3.706   3.103   9.595
 5263W        W 9314   1.778   0.706   3.136
 5264W        W 9315   7.087   6.316  10.146
 5265W        W 9316   5.128   0.745  10.754
 5266W        W 9317   2.862   2.802   1.497
 5267W        W 9318   1.343   8.902   9.507
 5268W        W 9319   4.401   9.952  11.670
 5269W        W 9320   9.358   3.862   9.936
 5270W        W 9321   2.824   0.020   1.270
 5271W        W 9322  10.769   5.384  11.018
 5272W        W 9323   1.338   7.576   0.359
 5273W        W 9324   0.034   4.781  11.039
 5274W        W 9325  11.065   3.522  11.788
 5275W        W 9326   1.229   4.694   2.277
 5276W        W 9327   4.958  10.388   9.554
 5277W        W 9328   4.294   7.133   3.149
 5278W        W 9329   3.423   6.668   0.727
 5279W        W 9330   5.714   8.528  11.341
 5280W        W 9331   9.635   5.132  11.942
 5281W        W 9332   3.401   0.239  10.946
 5282W        W 9333   6.446   3.588   2.398
 5283W        W 9334   9.114   2.439  11.905
 5284W        W 9335   2.728  10.283   9.637
 5285W        W 9336   4.852  10.092  11.451
 5286W        W 9337   8.885   2.946   1.789
 5287W        W 9338   2.876   9.429  10.863
 5288W        W 9339   0.021   1.172   3.362
 5289W        W 9340   3.460   8.843  11.066
 5290W        W 9341   0.392   4.468  10.715
 5291W        W 9342   6.212   8.656   1.158
 5292W        W 9343   2.291   5.658  10.097
 5293W        W 9344   0.472   1.781   1.387
 5294W        W 9345   0.796   6.581   9.536
 5295W        W 9346   0.948   1.275   2.351
 5296W        W 9347  10.782   4.156  11.825
 5297W        W 9348   1.216   9.751  10.326
 5298W        W 9349   4.340   6.529  11.312
 5299W        W 9350   9.148   7.120   2.355
 5300W        W 9351   1.228   6.252   9.458
 5301W        W 9352   3.353  11.289  10.157
 5302W        W 9353   5.129   0.303  11.005
 5303W        W 9354  11.425   1.683   3.175
 5304W        W 9355   1.471   3.120   2.366
 5305W        W 9356  10.829   7.407   0.494
 5306W        W 9357  10.746   6.570   0.406
 5307W        W 9358   5.169   9.926   1.692
 5308W        W 9359   9.481   4.879  11.078
 5309W        W 9360   7.028   0.989   0.796
 5310W        W 9361   2.081   1.550  11.080
 5311W        W 9362   6.185   0.882   1.925
 5312W        W 9363   7.950   1.374  10.904
 5313W        W 9364   1.594   4.193  10.550
 5314W        W 9365  10.814   8.627   2.723
 5315W        W 9366   5.283   0.680   0.297
 5316W        W 9367   3.593   9.636   1.585
 5317W        W 9368   3.352   6.685  11.850
 5318W        W 9369   8.387   1.678  10.839
 5319W        W 9370   1.496   4.510  11.316
 5320W        W 9371  10.391   1.561  11.819
 5321W        W 9372   5.236   0.346   9.991
 5322W        W 9373   9.895   2.686   9.842
 5323W        W 9374   6.617   4.056   0.991
 5324W        W 9375   1.342   6.069  10.361
 5325W        W 9376   7.675   2.151  10.089
 5326W        W 9377  10.607  11.071   2.284
 5327W        W 9378   9.749   5.259  10.843
 5328W        W 9379   0.036   5.552   2.778
 5329W        W 9380   5.813   6.079   2.692
 5330W        W 9381   6.859   9.773   3.648
 5331W        W 9382   3.923   4.204   2.291
 5332W        W 9383   9.805  11.497   2.765
 5333W        W 9384   4.684   7.362   1.989
 5334W        W 9385   3.875   0.575   0.455
 5335W        W 9386   8.709   7.381  11.993
 5336W        W 9387   5.136   3.494   0.018
 5337W        W 9388   1.425   7.533   9.495
 5338W        W 9389  11.370   5.572  10.233
 5339W        W 9390   2.380   2.990   9.385
 5340W        W 9391   8.995   1.462   0.228
 5341W        W 9392   8.013   7.434  11.581
 5342W        W 9393   8.047   8.764   2.984
 5343W        W 9394   7.689   1.526  10.492
 5344W        W 9395   5.702   2.359  11.274
 5345W        W 9396   7.975   1.890  11.064
 5346W        W 9397   1.401   0.050   0.491
 5347W        W 9398   6.643   4.996  10.562
 5348W        W 9399   1.008   1.978  10.349
 5349W        W 9400   1.689   3.671   3.096
 5350W        W 9401   0.059   9.000   0.818
 5351W        W 9402  10.129   4.232  11.007
 5352W        W 9403   3.017   7.879   8.027
 5353W        W 9404   2.034   5.111   0.349
 5354W        W 9405  10.381   1.430   2.281
 5355W        W 9406   1.375   0.280   2.511
 5356W        W 9407   0.058   5.243   8.533
 5357W        W 9408   2.698   0.878  11.888
 5358W        W 9409   2.717   0.594   2.409
 5359W        W 9410   4.698   7.954  10.812
 5360W        W 9411   0.459   4.525  11.225
 5361W        W 9412   0.974   5.809   3.014
 5362W        W 9413   9.063  10.873   1.841
 5363W        W 9414   3.767   0.013   2.801
 5364W        W 9415   6.435   1.510  11.893
 5365W        W 9416   6.651  10.427   8.937
 5366W        W 9417   4.315   4.677   9.148
 5367W        W 9418   7.201   3.359  10.558
 5368W        W 9419   9.437  10.238   0.866
 5369W        W 9420   9.074  10.780   9.041
 5370W        W 9421   1.906  11.257   9.377
 5371W        W 9422  10.243   9.622  11.973
 5372W        W 9423   0.402   4.628   0.706
 5373W        W 9424   6.084   4.612   2.672
 5374W        W 9425   8.029  10.054   9.581
 5375W        W 9426  11.429   0.134  10.081
 5376W        W 9427   4.415   2.788  10.610
 5377W        W 9428   2.830  10.801   9.425
 5378W        W 9429   5.531   4.609   9.612
 5379W        W 9430  10.341   2.913  10.026
 5380W        W 9431   5.072   0.347  11.958
 5381W        W 9432   7.519   4.020   1.070
 5382W        W 9433   6.802   7.114  10.402
 5383W        W 9434   4.622   4.639   2.505
 5384W        W 9435   7.126   5.294  10.357
 5385W        W 9436   6.237   3.869  11.430
 5386W        W 9437   2.921   6.620  11.410
 5387W        W 9438   9.940   9.601   1.719
 5388W        W 9439   9.021   8.951   8.891
 5389W        W 9440   8.964  11.491  11.957
 5390W        W 9441   7.519   9.682   0.501
 5391W        W 9442   2.669   1.432   0.851
 5392W        W 9443   1.183   8.375   0.250
 5393W        W 9444   8.098   2.373  11.004
 5394W        W 9445   1.154   9.155  11.046
 5395W        W 9446   5.714   1.461   1.433
 5396W        W 9447   6.191   3.797   3.327
 5397W        W 9448   4.142   8.250  10.739
 5398W        W 9449   8.090   6.764   9.577
 5399W        W 9450   3.866   8.668   1.847
 5400W        W 9451   8.871  11.432   3.177
 5401W        W 9452   4.154   8.853   1.242
 5402W        W 9453   6.110   1.899  10.366
 5403W        W 9454   8.687   9.561   3.540
 5404W        W 9455   3.646   7.527   9.722
 5405W        W 9456   3.538   0.992   2.716
 5406W        W 9457   1.209  10.822  10.309
 5407W        W 9458   8.845  10.387   1.137
 5408W        W 9459  11.308   4.691   2.136
 5409W        W 9460   5.239   2.739   8.497
 5410W        W 9461   4.281   5.201   1.083
 5411W        W 9462   1.733   6.469   3.018
 5412W        W 9463   0.254  11.424   9.299
 5413W        W 9464   3.248   1.271  10.515
 5414W        W 9465   9.994   8.622   0.066
 5415W        W 9466   3.414  10.996   8.399
 5416W        W 9467   5.421   9.512   1.439
 5417W        W 9468   5.515   8.945  10.351
 5418W        W 9469   6.063   4.530   9.734
 5419W        W 9470   2.890   8.117  11.477
 5420W        W 9471   8.478  11.266   8.742
 5421W        W 9472   0.832   2.359  10.805
 5422W        W 9473   9.459   4.550   0.489
 5423W        W 9474   2.500   3.269   2.280
 5424W        W 9475  10.029   2.233   2.308
 5425W        W 9476   7.299   6.158   8.786
 5426W        W 9477  10.684   0.296   2.724
 5427W        W 9478   7.562   0.432   1.451
 5428W        W 9479   7.607   9.934   9.290
 5429W        W 9480   3.673   2.694   2.767
 5430W        W 9481  10.363   6.044   9.040
 5431W        W 9482   0.374   3.706   9.398
 5432W        W 9483   8.740   6.348  10.010
 5433W        W 9484  10.977   4.585   9.905
 5434W        W 9485   5.029   4.760   0.662
 5435W        W 9486   3.860   9.863   3.009
 5436W        W 9487   9.022   3.778   2.918
 5437W        W 9488   2.144   0.819   2.575
 5438W        W 9489   7.046   5.495   1.559
 5439W        W 9490   0.025   6.135   0.540
 5440W        W 9491   4.659   9.877   3.120
 5441W        W 9492  10.687   3.096  11.539
 5442W        W 9493   9.898   2.246   9.566
 5443W        W 9494   3.146   4.252   8.880
 5444W        W 9495  10.037   0.366  11.335
 5445W        W 9496   8.042   2.649   3.343
 5446W        W 9497   3.942   5.250  11.089
 5447W        W 9498   1.160   4.245  10.304
 5448W        W 9499   0.476   1.221   2.092
 5449W        W 9500   4.319   0.253  11.524
 5450W        W 9501   3.357   0.331  10.420
 5451W        W 9502   5.878   0.535   1.741
 5452W        W 9503   5.275   7.905   2.217
 5453W        W 9504   4.653   8.507  11.906
 5454W        W 9505   8.438   7.179   1.148
 5455W        W 9506   9.483   6.546   2.593
 5456W        W 9507   8.298   3.826   9.149
 5457W        W 9508   3.277   7.968  11.202
 5458W        W 9509   8.275   3.205   8.493
 5459W        W 9510   7.439   6.123   2.141
 5460W        W 9511  10.886   5.666   9.078
 5461W        W 9512   5.969   9.182   9.496
 5462W        W 9513   5.732  11.006  11.954
 5463W        W 9514   8.945   9.988   9.574
 5464W        W 9515   5.255   1.622   9.762
 5465W        W 9516   8.996   6.436   1.305
 5466W        W 9517   4.775   9.924   0.028
 5467W        W 9518   7.723   7.589  11.970
 5468W        W 9519   0.717   2.217   1.214
 5469W        W 9520  10.917   4.292   9.316
 5470W        W 9521  10.822  11.076   8.551
 5471W        W 9522   1.293   5.245   0.748
 5472W        W 9523   7.016   9.839   1.730
 5473W        W 9524   8.090   5.416  11.289
 5474W        W 9525   1.179   5.226  10.137
 5475W        W 9526   2.694   3.286   0.744
 5476W        W 9527   7.469  10.547   1.692
 5477W        W 9528   9.995  10.447  10.811
 5478W        W 9529   6.274   6.660   2.188
 5479W        W 9530  10.278   9.196   2.271
 5480W        W 9531   2.395   2.272   1.755
 5481W        W 9532   8.855   7.638   0.784
 5482W        W 9533  10.959   4.718   1.186
 5483W        W 9534   9.813  10.987  11.783
 5484W        W 9535  11.130   2.245  11.948
 5485W        W 9536   3.904   1.594  11.486
 5486W        W 9537  11.423   4.243   8.485
 5487W        W 9538   7.584   7.107  11.780
 5488W        W 9539   5.960   2.757   1.870
 5489W        W 9540   1.811  10.887   2.117
 5490W        W 9541   6.117  10.535   3.677
 5491W        W 9542   8.782   8.901  11.614
 5492W        W 9543  10.432   4.097   3.616
 5493W        W 9544   4.603   0.455  10.444
 5494W        W 9545   5.246   0.858   2.432
 5495W        W 9546   7.362   7.605   3.228
 5496W        W 9547   9.669   2.616   2.796
 5497W        W 9548   1.799   0.422   8.505
 5498W        W 9549   8.061   6.834  10.372
 5499W        W 9550   9.324   1.112   8.545
 5500W        W 9551   6.904   2.485  11.528
 5501W        W 9552   8.636   0.758  10.671
 5502W        W 9553   0.808   7.736   8.860
 5503W        W 9554   2.197   3.630  11.815
 5504W        W 9555   9.443  10.815  10.810
 5505W        W 9556   8.880   4.340   1.727
 5506W        W 9557   4.851   7.154   8.944
 5507W        W 9558   5.328   8.295   2.607
 5508W        W 9559   0.488   3.194   9.271
 5509W        W 9560  10.531   6.124   0.340
 5510W        W 9561  10.920   6.648   9.105
 5511W        W 9562   0.960   6.155   0.437
 5512W        W 9563   5.858   1.375   0.242
 5513W        W 9564   1.330   8.936   1.484
 5514W        W 9565   7.712   2.476   1.270
 5515W        W 9566   2.718   3.018   8.796
 5516W        W 9567   9.472   9.158   0.346
 5517W        W 9568   3.673   0.866  11.835
 5518W        W 9569  10.091   5.175   0.846
 5519W        W 9570  11.085   7.387   1.994
 5520W        W 9571   1.601   8.075   8.879
 5521W        W 9572   1.571   2.890  11.944
 5522W        W 9573   4.157   1.265   9.504
 5523W        W 9574   6.079   3.255  11.608
 5524W        W 9575   6.162   6.730   9.381
 5525W        W 9576  11.360   8.891   0.317
 5526W        W 9577   4.091   9.292   0.875
 5527W        W 9578   8.053   5.222   2.358
 5528W        W 9579   6.878   1.670  11.702
 5529W        W 9580   5.293   7.157  10.422
 5530W        W 9581   9.079   8.116   3.200
 5531W        W 9582   7.223   3.790  11.329
 5532W        W 9583   7.117   8.965   1.239
 5533W        W 9584   0.370   5.029   9.797
 5534W        W 9585   9.601   8.891   1.965
 5535W        W 9586   8.436   0.299  10.868
 5536W        W 9587   3.673   4.582   1.078
 5537W        W 9588   6.131   0.311   9.825
 5538W        W 9589   1.520   5.664   0.938
 5539W        W 9590   4.430   0.834   9.607
 5540W        W 9591   3.722   3.626   0.251
 5541W        W 9592   8.782  10.327   0.630
 5542W        W 9593   0.682   4.613   8.628
 5543W        W 9594   2.663   6.439   1.863
 5544W        W 9595   0.691   6.544   8.451
 5545W        W 9596   3.158   0.005   1.942
 5546W        W 9597   9.448   9.746   0.711
 5547W        W 9598   4.488   4.331   1.211
 5548W        W 9599   8.217   3.226   2.618
 5549W        W 9600   7.808   9.071   2.084
 5550W        W 9601   8.577   8.672   0.426
 5551W        W 9602   0.815   8.349  11.819
 5552W        W 9603   9.592   5.552  10.374
 5553W        W 9604   1.294   8.286   3.184
 5554W        W 9605   5.568  10.829  10.092
 5555W        W 9606   5.064   7.624  10.558
 5556W        W 9607   2.040   2.489   8.525
 5557W        W 9608   7.703   8.585   1.376
 5558W        W 9609   5.101  10.486   2.810
 5559W        W 9610  11.005   6.642   0.825
 5560W        W 9611   2.327   2.277  11.969
 5561W        W 9612   9.971   7.655   2.805
 5562W        W 9613   3.676   1.698   8.859
 5563W        W 9614  10.370   7.115  11.077
 5564W        W 9615   2.307   0.986   1.686
 5565W        W 9616   2.592  11.066  11.342
 5566W        W 9617   5.575   0.876  10.994
 5567W        W 9618   4.427   9.855   9.317
 5568W        W 9619   6.459   6.570   0.154
 5569W        W 9620  10.845   3.052   2.025
 5570W        W 9621  10.446   1.119   9.324
 5571W        W 9622   5.963   5.753   9.210
 5572W        W 9623   2.179   2.323   2.711
 5573W        W 9624   8.092   7.831   2.541
 5574W        W 9625   7.503  10.984  11.992
 5575W        W 9626  11.370   8.553   2.782
 5576W        W 9627   4.882   3.983  11.215
 5577W        W 9628   5.597   1.944   1.505
 5578W        W 9629   0.363   2.892   2.963
 5579W        W 9630   7.655  11.363   9.938
 5580W        W 9631   7.742   8.930  11.089
 5581W        W 9632   5.972   3.968   2.363
 5582W        W 9633   5.221   7.457   0.472
 5583W        W 9634   8.174   1.931   1.728
 5584W        W 9635   8.682   8.086   8.581
 5585W        W 9636   5.071   9.357   0.024
 5586W        W 9637   6.982   4.116   3.444
 5587W        W 9638   6.501   7.327   1.468
 5588W        W 9639   6.199   0.432   3.346
 5589W        W 9640   0.392   3.577   0.168
 5590W        W 9641   7.779   7.122  10.705
 5591W        W 9642   0.076   9.781   0.260
 5592W        W 9643   9.064   2.793   0.313
 5593W        W 9644   8.149   1.656   0.374
 5594W        W 9645   2.177   3.888   9.716
 5595W        W 9646   9.586   9.537   8.556
 5596W        W 9647   3.368   8.305   8.420
 5597W        W 9648   5.464   4.397   9.137
 5598W        W 9649   0.784  10.579  11.146
 5599W        W 9650   8.945   8.595  10.229
 5600W        W 9651   5.619   7.547   1.398
 5601W        W 9652   4.269   4.059  10.734
 5602W        W 9653   4.810   1.733   9.989
 5603W        W 9654   8.566   6.703  10.354
 5604W        W 9655   4.044   9.101  10.175
 5605W        W 9656   3.825   5.285   0.777
 5606W        W 9657   8.866  10.058   3.555
 5607W        W 9658   3.683   5.888  11.647
 5608W        W 9659  10.954   3.128   3.511
 5609W        W 9660   4.785   2.589   2.743
 5610W        W 9661   4.040   0.903   2.708
 5611W        W 9662  10.310  10.502   1.059
 5612W        W 9663   3.853   4.888  11.819
 5613W        W 9664   8.615   4.461  10.846
 5614W        W 9665  10.860   0.359   1.855
 5615W        W 9666   3.695   9.455  11.746
 5616W        W 9667  10.240  10.755   9.583
 5617W        W 9668   7.874   5.123   8.673
 5618W        W 9669   9.557   1.141  10.823
 5619W        W 9670   0.360  11.366  11.116
 5620W        W 9671   9.542   0.258   1.429
 5621W        W 9672  11.368   8.170   9.330
 5622W        W 9673   6.026   8.966  10.428
 5623W        W 9674   0.384   0.842   1.120
 5624W        W 9675   6.909   1.650   9.810
 5625W        W 9676   1.307   4.081  11.526
 5626W        W 9677   9.820   7.502   0.799
 5627W        W 9678   7.878   2.746   9.999
 5628W        W 9679   2.673   8.306  10.627
 5629W        W 9680   9.377   6.524   8.261
 5630W        W 9681  11.345   0.028   2.801
 5631W        W 9682   3.723  11.300   3.297
 5632W        W 9683   3.003   7.819   2.252
 5633W        W 9684   3.748   3.012   2.365
 5634W        W 9685   3.666   6.215   3.523
 5635W        W 9686  11.458   9.863   1.286
 5636W        W 9687   7.730   5.177   0.485
 5637W        W 9688   3.162   2.425   1.310
 5638W        W 9689   0.770   7.957   9.743
 5639W        W 9690   0.520   5.801   1.895
 5640W        W 9691   9.547   3.167   1.356
 5641W        W 9692   5.974   8.284   0.218
 5642W        W 9693   2.275   9.018   1.999
 5643W        W 9694   4.567  10.323   9.065
 5644W        W 9695   7.883  11.434   3.013
 5645W        W 9696   9.432   8.161   0.360
 5646W        W 9697   4.194   6.100  11.070
 5647W        W 9698   1.358   6.993  10.549
 5648W        W 9699   8.451   6.237  10.533
 5649W        W 9700   9.325   4.974  11.582
 5650W        W 9701   0.923   3.748   0.946
 5651W        W 9702   7.984   9.026   3.425
 5652W        W 9703   0.447   9.284   9.013
 5653W        W 9704   8.623   1.278   3.105
 5654W        W 9705   8.546   4.734   9.026
 5655W        W 9706   6.458   6.226  10.945
 5656W        W 9707   2.935   4.707  11.427
 5657W        W 9708   2.273   0.543   9.520
 5658W        W 9709   6.581  11.212   2.483
 5659W        W 9710   5.636   5.145   1.770
 5660W        W 9711   6.028   6.233   8.155
 5661W        W 9712   9.813  10.598   2.020
 5662W        W 9713   3.231   3.778   9.136
 5663W        W 9714   1.174   3.302   1.062
 5664W        W 9715   9.099  11.254   9.988
 5665W        W 9716   9.609   2.891  10.495
 5666W        W 9717   5.072   3.242   0.495
 5667W        W 9718   3.377   9.297   2.301
 5668W        W 9719   5.078   7.797   0.110
 5669W        W 9720   3.079   4.134  10.800
 5670W        W 9721   3.632   1.268   0.697
 5671W        W 9722   6.549   4.136   3.155
 5672W        W 9723   7.550   0.340  10.187
 5673W        W 9724   3.606  10.532  11.838
 5674W        W 9725   9.067   2.756   1.275
 5675W        W 9726   3.830  10.836   2.049
 5676W        W 9727   6.150   9.952   1.403
 5677W        W 9728   5.259   7.927   0.901
 5678W        W 9729   7.847   1.465   9.214
 5679W        W 9730   3.378   7.686   0.062
 5680W        W 9731   7.704   1.151  11.730
 5681W        W 9732   9.925  10.733   0.275
 5682W        W 9733   7.283   8.049   9.464
 5683W        W 9734   7.601   9.748  10.781
 5684W        W 9735   3.332   5.249   1.972
 5685W        W 9736   8.436   4.709  10.426
 5686W        W 9737   3.095   0.636   2.784
 5687W        W 9738  10.495   2.294   2.608
 5688W        W 9739  10.034   0.876   9.591
 5689W        W 9740  10.221   9.373   9.514
 5690W        W 9741   9.470   2.695   3.307
 5691W        W 9742   7.390   9.082  11.443
 5692W        W 9743   8.040   3.377   9.180
 5693W        W 9744   5.814   5.542   1.455
 5694W        W 9745   2.161   5.359   3.444
 5695W        W 9746   0.723   5.732   3.443
 5696W        W 9747   4.081   1.438  11.027
 5697W        W 9748   2.667   4.154   1.768
 5698W        W 9749   5.561   8.248   3.227
 5699W        W 9750   6.649   9.990   8.118
 5700W        W 9751   3.368   1.925   1.304
 5701W        W 9752   1.001  10.966   0.833
 5702W        W 9753   6.675   6.710   2.908
 5703W        W 9754   3.870   4.379   0.631
 5704W        W 9755   2.314   0.038   9.540
 5705W        W 9756   0.049  11.438   3.284
 5706W        W 9757   9.163   6.636   9.996
 5707W        W 9758   7.918   4.167   2.197
 5708W        W 9759   9.060   4.281   3.076
 5709W        W 9760   3.220   9.880   1.823
 5710W        W 9761   2.693   6.654   2.373
 5711W        W 9762  10.412   7.066  10.541
 5712W        W 9763   6.747   2.079   2.811
 5713W        W 9764   2.708   9.059  11.484
 5714W        W 9765   4.461   6.766   8.627
 5715W        W 9766   2.114   8.616  11.742
 5716W        W 9767   7.699   3.773  11.525
 5717W        W 9768  10.415   7.616  11.243
 5718W        W 9769   4.414   0.731   1.771
 5719W        W 9770   3.901   4.389  10.529
 5720W        W 9771  10.233  10.439   1.575
 5721W        W 9772   0.084   0.967   1.886
 5722W        W 9773   2.154   7.468   1.000
 5723W        W 9774   1.146   0.237  10.690
 5724W        W 9775  11.303   1.246   1.412
 5725W        W 9776   3.460   9.666   2.780
 5726W        W 9777   3.571   2.274   2.477
 5727W        W 9778   7.650   0.196   9.162
 5728W        W 9779   1.736   1.173   3.374
 5729W        W 9780   3.194   5.705  10.989
 5730W        W 9781   6.972   4.654   0.269
 5731W        W 9782  11.030   0.266   3.135
 5732W        W 9783   4.318   8.700  11.553
 5733W        W 9784   1.223   0.626  10.365
 5734W        W 9785   9.999   1.882  11.891
 5735W        W 9786   5.630   3.253   9.828
 5736W        W 9787   2.505   8.538   8.318
 5737W        W 9788   1.297   1.070  10.611
 5738W        W 9789  10.922   3.320   3.032
 5739W        W 9790   3.952   8.370   1.414
 5740W        W 9791   8.682   7.880  11.908
 5741W        W 9792   9.332   1.787   2.904
 5742W        W 9793   9.440   4.914   0.982
 5743W        W 9794   1.914   3.646   8.881
 5744W        W 9795  11.393   8.859   1.424
 5745W        W 9796   4.221   9.972   0.862
 5746W        W 9797   2.762   1.662   0.208
 5747W        W 9798   7.218   3.840  10.299
 5748W        W 9799   7.717   8.011  11.629
 5749W        W 9800   3.171   3.669   1.837
 5750W        W 9801   5.203   9.058   9.036
 5751W        W 9802  10.635   7.695  11.698
 5752W        W 9803   2.730  10.251   8.744
 5753W        W 9804   0.045   7.502  11.351
 5754W        W 9805   0.280   1.189  11.229
 5755W        W 9806  10.920  11.326   3.371
 5756W        W 9807   5.757   1.478   8.530
 5757W        W 9808   3.287   1.357   9.295
 5758W        W 9809   6.028   6.538   2.656
 5759W        W 9810  10.946   6.252   0.051
 5760W        W 9811   3.868   3.872  10.953
 5761W        W 9812  11.352   7.176   9.398
 5762W        W 9813   0.177   1.415  10.344
 5763W        W 9814   0.769   0.819   2.175
 5764W        W 9815   1.050   6.077  11.338
 5765W        W 9816   3.164   4.948   0.401
 5766W        W 9817   0.670   8.402   0.320
 5767W        W 9818   6.709  11.365   0.363
 5768W        W 9819   8.990   0.940   0.958
 5769W        W 9820  11.287   1.117   9.522
 5770W        W 9821   0.871   4.199   2.216
 5771W        W 9822   8.123   9.237   2.847
 5772W        W 9823   9.470   2.158   1.458
 5773W        W 9824   1.250   7.560  11.858
 5774W        W 9825   2.232   6.139   1.950
 5775W        W 9826   9.502   9.332   1.747
 5776W        W 9827  10.566   6.246  10.766
 5777W        W 9828   9.394   7.006   3.325
 5778W        W 9829   8.598   6.147   1.475
 5779W        W 9830   7.069   6.236   8.322
 5780W        W 9831   0.941   5.326  10.858
 5781W        W 9832   8.890   9.587   2.213
 5782W        W 9833  11.319   7.432   0.300
 5783W        W 9834   8.735   0.403   2.796
 5784W        W 9835   6.714   3.170  10.276
 5785W        W 9836   5.980   9.942   3.418
 5786W        W 9837   5.960   4.581   0.218
 5787W        W 9838   5.712   7.386   3.599
 5788W        W 9839   6.339   8.097  11.847
 5789W        W 9840  11.377   5.757   2.343
 5790W        W 9841  10.804  10.877   0.371
 5791W        W 9842   7.013   3.708  11.807
 5792W        W 9843   6.864   2.294   2.021
 5793W        W 9844   8.155  10.453   0.493
 5794W        W 9845   2.762   1.282   1.755
 5795W        W 9846   8.527   6.635   1.183
 5796W        W 9847   8.035  10.515   2.559
 5797W        W 9848   5.614  10.978   1.607
 5798W        W 9849  11.418   4.721   9.580
 5799W        W 9850   2.884   0.395   9.106
 5800W        W 9851  10.763   4.124  10.561
 5801W        W 9852   3.105   7.138  11.372
 5802W        W 9853   4.660  10.273   2.676
 5803W        W 9854   1.278  10.066   0.913
 5804W        W 9855   5.488   3.659   8.566
 5805W        W 9856   2.310   7.202   0.050
 5806W        W 9857   6.135   9.815  11.840
 5807W        W 9858   4.058   7.536  10.024
 5808W        W 9859   5.270   8.602   4.162
 5809W        W 9860   7.415   0.982   2.900
 5810W        W 9861   0.251   1.346   1.177
 5811W        W 9862   7.140   9.616   9.826
 5812W        W 9863  10.546   2.787  10.491
 5813W        W 9864  11.322   0.725   2.245
 5814W        W 9865   1.323  10.930   3.276
 5815W        W 9866   2.480  10.816   0.683
 5816W        W 9867   0.932   9.587   8.577
 5817W        W 9868   6.747   2.282   8.957
 5818W        W 9869   2.635   0.767  10.797
 5819W        W 9870   4.580   6.189   0.289
 5820W        W 9871   3.427   0.906   0.329
 5821W        W 9872   0.555   9.490  11.791
 5822W        W 9873   5.911   2.270   1.722
 5823W        W 9874   2.780   3.343   9.751
 5824W        W 9875   2.856  10.086  11.462
 5825W        W 9876   5.137   3.289   9.625
 5826W        W 9877   0.214   3.974   8.979
 5827W        W 9878   8.201   3.676  11.516
 5828W        W 9879   6.614   0.144   0.934
 5829W        W 9880   1.781   1.366   0.755
 5830W        W 9881  11.486  10.723   3.777
 5831W        W 9882   0.114   3.828  10.275
 5832W        W 9883  10.264   4.590   3.275
 5833W        W 9884  10.414   8.022   8.940
 5834W        W 9885   5.315   8.016  10.219
 5835W        W 9886   6.981   6.600   0.355
 5836W        W 9887  10.401   6.742  11.534
 5837W        W 9888   6.152   4.574   1.705
 5838W        W 9889  10.538   7.854   1.443
 5839W        W 9890   6.296   7.947  10.052
 5840W        W 9891   4.031   6.447   1.311
 5841W        W 9892   6.701   5.566   0.835
 5842W        W 9893   0.365   0.929   2.987
 5843W        W 9894   3.091   6.216  11.083
 5844W        W 9895   7.287   4.166   0.440
 5845W        W 9896  10.134  10.267   0.283
 5846W        W 9897   6.894   2.185   9.588
 5847W        W 9898  11.059   3.793   2.875
 5848W        W 9899   6.673   0.273  10.245
 5849W        W 9900   1.815   4.384  10.962
 5850W        W 9901  10.851   1.887   9.754
 5851W        W 9902   9.119   7.694   9.266
 5852W        W 9903   0.074   0.072   0.054
 5853W        W 9904   8.274   5.693  11.817
 5854W        W 9905   0.329   9.061   1.234
 5855W        W 9906   4.370   1.750  11.685
 5856W        W 9907   4.196   8.653  10.414
 5857W        W 9908   0.798   4.845  11.458
 5858W        W 9909   6.479   7.191  10.956
 5859W        W 9910   1.726   5.272   8.486
 5860W        W 9911   7.584   0.932   1.567
 5861W        W 9912   7.144   0.140   0.397
 5862W        W 9913   3.515  10.476   9.972
 5863W        W 9914   2.362   0.356   9.061
 5864W        W 9915   9.857  10.090   2.855
 5865W        W 9916   8.247   7.627  11.970
 5866W        W 9917   4.753   6.730   0.675
 5867W        W 9918   9.398   9.264   2.779
 5868W        W 9919  11.092   4.993  10.293
 5869W        W 9920   2.860   4.237   9.859
 5870W        W 9921   3.528   3.043  10.589
 5871W        W 9922  10.923   2.654  11.723
 5872W        W 9923   7.555   1.866   0.324
 5873W        W 9924   7.562   6.679  10.471
 5874W        W 9925   1.902   5.242  10.779
 5875W        W 9926   4.682   9.512  11.724
 5876W        W 9927   7.032   4.318   2.274
 5877W        W 9928   7.108   3.412  10.068
 5878W        W 9929   5.661   5.798   1.013
 5879W        W 9930   2.830   2.863   9.586
 5880W        W 9931  10.605   7.445   1.847
 5881W        W 9932  10.506   4.984   9.497
 5882W        W 9933   7.615  10.415  10.073
 5883W        W 9934   6.312   7.566  11.782
 5884W        W 9935   5.589   8.121  11.722
 5885W        W 9936   9.135   4.168   0.505
 5886W        W 9937  11.260   3.066   9.140
 5887W        W 9938   2.843   8.352  10.147
 5888W        W 9939   7.203   9.253   0.801
 5889W        W 9940   4.214   2.308   9.886
 5890W        W 9941   3.848   6.647   9.886
 5891W        W 9942  11.038   2.720   1.216
 5892W        W 9943   0.199   7.776   2.937
 5893W        W 9944   4.014   1.473  11.969
 5894W        W 9945   5.143   4.659  10.703
 5895W        W 9946   0.285  10.707   0.329
 5896W        W 9947   7.030   7.926  10.925
 5897W        W 9948   1.757   1.794   9.593
 5898W        W 9949  10.185   1.290   3.526
 5899W        W 9950  10.860   9.146   0.540
 5900W        W 9951   8.128   1.518   3.465
 5901W        W 9952   3.584   4.695   8.523
 5902W        W 9953   7.936  10.107  10.590
 5903W        W 9954   5.208   8.083   1.745
 5904W        W 9955   1.745   9.981   2.486
 5905W        W 9956   2.337   1.926   0.392
 5906W        W 9957   6.602   8.184   2.794
 5907W        W 9958   9.791   1.200   1.244
 5908W        W 9959   2.739   3.207   2.731
 5909W        W 9960   8.942   6.854  11.280
 5910W        W 9961   6.134   0.557  11.268
 5911W        W 9962   2.894  10.437   2.882
 5912W        W 9963   9.965  10.799   8.570
 5913W        W 9964   4.633   3.889   0.984
 5914W        W 9965   9.388   9.892   9.880
 5915W        W 9966   5.222   3.723   0.476
 5916W        W 9967   3.289   2.899   0.406
 5917W        W 9968   3.272   1.071   3.750
 5918W        W 9969   0.798  11.188   1.870
 5919W        W 9970   3.711   8.394   0.165
 5920W        W 9971   4.769   8.565  11.385
 5921W        W 9972   9.959  11.467  10.021
 5922W        W 9973   3.773   0.158   8.671
 5923W        W 9974   2.163   9.445   1.663
 5924W        W 9975   9.897   3.780   2.125
 5925W        W 9976  10.890   4.056   9.772
 5926W        W 9977   5.202   7.268   3.176
 5927W        W 9978   5.099   9.462   1.901
 5928W        W 9979   9.045   3.648   2.379
 5929W        W 9980   1.113  10.431   1.641
 5930W        W 9981   1.392   1.440   9.370
 5931W        W 9982   3.325   6.601   3.681
 5932W        W 9983  10.528   7.364   9.441
 5933W        W 9984   6.233   5.591  10.897
 5934W        W 9985  11.333   6.984  11.971
 5935W        W 9986   6.114   5.658   0.791
 5936W        W 9987   4.140   7.916  11.484
 5937W        W 9988   1.262  10.889  11.221
 5938W        W 9989   0.809   3.275  10.543
 5939W        W 9990   4.217   7.823   1.802
 5940W        W 9991   2.961   8.956  11.052
 5941W        W 9992  10.932   1.631   0.432
 5942W        W 9993   4.181   0.180  10.514
 5943W        W 9994   6.411   3.672   2.890
 5944W        W 9995   0.802   7.830   1.048
 5945W        W 9996   1.716   8.949  10.319
 5946W        W 9997   7.308   6.048  11.101
 5947W        W 9998   6.842   7.191   2.719
 5948W        W 9999   8.877   2.216   0.305
 5949W        W10000   2.517   7.785   0.734
 5950W        W10001   6.763   5.481  10.680
 5951W        W10002   9.004   8.074  11.056
 5952W        W10003   3.387   1.823  11.376
 5953W        W10004   8.187   5.405   9.869
 5954W        W10005   0.841  10.691  11.644
 5955W        W10006   2.565   7.562   2.292
 5956W        W10007   2.096   2.857   3.562
 5957W        W10008   1.540   1.170   2.306
 5958W        W10009   4.707   1.953   3.309
 5959W        W10010   5.962   4.703   1.229
 5960W        W10011   8.551  10.387  10.740
 5961W        W10012   2.748   7.397  11.786
 5962W        W10013   8.644   2.800   9.627
 5963W        W10014   7.583   9.893   9.789
 5964W        W10015   4.614   4.267   3.926
 5965W        W10016   4.763   8.824   9.975
 5966W        W10017  11.183   4.300   2.466
 5967W        W10018   8.066  10.515   9.839
 5968W        W10019   1.572   9.940   3.017
 5969W        W10020   1.377  11.430   9.510
 5970W        W10021   2.586   4.102   0.577
 5971W        W10022   9.981   2.088  11.009
 5972W        W10023   4.113  11.203   0.307
 5973W        W10024   8.514   7.616  11.491
 5974W        W10025   7.703   9.579   2.783
 5975W        W10026   3.801   2.494   3.238
 5976W        W10027   7.749   1.504  11.376
 5977W        W10028   7.677   3.110   1.975
 5978W        W10029   9.888   5.404  11.557
 5979W        W10030   2.710   5.276   4.143
 5980W        W10031   8.894   0.512  11.032
 5981W        W10032   4.714   9.937   8.743
 5982W        W10033   6.318   7.049  11.920
 5983W        W10034   9.637   3.365   0.905
 5984W        W10035   0.268   6.926   9.167
 5985W        W10036   9.336   0.155   1.917
 5986W        W10037   8.525   4.683   8.290
 5987W        W10038   9.551   8.638   9.412
 5988W        W10039   2.311   0.494   3.399
 5989W        W10040   2.334   1.451   1.983
 5990W        W10041   6.984   5.655   0.330
 5991W        W10042  10.847   1.696   1.951
 5992W        W10043   0.370   4.255   9.387
 5993W        W10044   5.009  11.343  11.995
 5994W        W10045   6.214   5.269  11.306
 5995W        W10046   5.118  10.449   0.889
 5996W        W10047   9.359   8.008  10.565
 5997W        W10048   0.817  11.076  11.314
 5998W        W10049   6.036   6.939  10.910
 5999W        W10050   8.903   1.813  10.800
 6000W        W10051   8.142   9.114   9.206
 6001W        W10052   7.248   2.220   1.707
 6002W        W10053   0.029   3.847   3.080
 6003W        W10054   8.957   2.113   2.624
 6004W        W10055   3.239   6.222   2.325
 6005W        W10056   8.005   1.932  10.558
 6006W        W10057   8.447   0.800   3.228
 6007W        W10058   5.529   8.054  11.212
 6008W        W10059   3.357   4.490  10.561
 6009W        W10060   4.938   0.135   1.778
 6010W        W10061   8.084   4.939   9.089
 6011W        W10062   6.716   1.348  10.547
 6012W        W10063   6.593   8.959   1.358
 6013W        W10064   0.281   6.555   8.789
 6014W        W10065   7.758   7.073   9.202
 6015W        W10066   8.843   8.480   9.734
 6016W        W10067  10.037  10.699   9.078
 6017W        W10068   6.075   4.159  11.885
 6018W        W10069   7.981   6.851   3.596
 6019W        W10070   9.188   4.784   3.147
 6020W        W10071   9.097   2.810   3.681
 6021W        W10072   5.091   9.954   0.672
 6022W        W10073   3.601   6.577   2.237
 6023W        W10074   3.284   7.057   3.406
 6024W        W10075  10.946  10.975  11.040
 6025W        W10076   1.671  10.401   9.567
 6026W        W10077  10.847   0.649   3.512
 6027W        W10078   6.556   7.487   0.478
 6028W        W10079   5.096  10.990   2.965
 6029W        W10080   5.140   2.358   2.273
 6030W        W10081  10.661   4.056   8.943
 6031W        W10082   2.240   2.926   2.019
 6032W        W10083   9.602   6.947  11.693
 6033W        W10084   3.560   6.847   8.957
 6034W        W10085  11.288  11.206   9.794
 6035W        W10086   3.774   8.881   0.920
 6036W        W10087   6.291   6.820   3.847
 6037W        W10088   5.989   3.401   0.633
 6038W        W10089   7.859   0.829   8.564
 6039W        W10090   3.492   6.582   3.185
 6040W        W10091   2.168   9.135  10.482
 6041W        W10092   5.000   2.428   0.791
 6042W        W10093   8.939   6.206   3.701
 6043W        W10094   2.133   9.409   3.622
 6044W        W10095   6.681  11.355   9.016
 6045W        W10096   1.243   7.863   8.565
 6046W        W10097   7.670   8.211   0.590
 6047W        W10098   4.879  10.723   9.186
 6048W        W10099  10.820   4.558   0.728
 6049W        W10100   6.475   9.061   9.610
 6050W        W10101   7.300   6.693   1.282
 6051W        W10102   2.127   8.255   8.508
 6052W        W10103   0.901   4.531   3.076
 6053W        W10104   4.239   9.099  10.674
 6054W        W10105   0.861   8.741   2.368
 6055W        W10106   1.966   4.710   9.078
 6056W        W10107   2.948   4.330   2.166
 6057W        W10108  11.216   8.912   2.444
 6058W        W10109   3.899   1.060   0.254
 6059W        W10110   2.295   2.790   1.033
 6060W        W10111   7.193  11.264  11.395
 6061W        W10112   8.984   4.953   8.295
 6062W        W10113   9.323   5.822   0.635
 6063W        W10114   9.348   6.169   2.928
 6064W        W10115   6.521  10.318   0.639
 6065W        W10116  10.594   4.410  10.947
 6066W        W10117   1.363  10.287   9.959
 6067W        W10118   5.744   0.886   0.523
 6068W        W10119   8.018  10.977   9.146
 6069W        W10120   8.051   9.530  11.356
 6070W        W10121   9.922   2.943   1.691
 6071W        W10122   0.358  10.838   3.134
 6072W        W10123   8.102   3.102   3.099
 6073W        W10124  10.294   7.475   8.997
 6074W        W10125   6.975   8.028   1.565
 6075W        W10126  11.430   8.331  11.681
 6076W        W10127   5.501   6.956   8.779
 6077W        W10128   7.026  10.345  11.772
 6078W        W10129   4.262   7.968   9.819
 6079W        W10130   8.390   6.119   2.939
 6080W        W10131   4.267   8.962   2.581
 6081W        W10132  11.364   4.269   9.839
 6082W        W10133   0.778   1.736   9.979
 6083W        W10134   7.143   8.382   9.891
 6084W        W10135   6.148   7.617   9.252
 6085W        W10136   1.402   0.228   9.997
 6086W        W10137   5.004  11.186   9.370
 6087W        W10138   7.454   5.699  10.257
 6088W        W10139   6.200   1.938   2.790
 6089W        W10140   2.711   2.179   3.438
 6090W        W10141   7.101   8.196   8.497
 6091W        W10142   4.136   1.691   1.707
 6092W        W10143   1.554   9.257   1.125
 6093W        W10144   8.506   5.434   2.190
 6094W        W10145   0.303   8.356   9.089
 6095W        W10146   8.756   0.452  11.864
 6096W        W10147  10.452   3.584   9.129
 6097W        W10148   6.432  11.434   3.443
 6098W        W10149   1.261   3.781   9.400
 6099W        W10150   5.937   3.469   2.467
 6100W        W10151   9.783   9.619   3.648
 6101W        W10152   4.633   5.735   0.015
 6102W        W10153   9.008   3.732  11.706
 6103W        W10154   8.983   7.102   9.976
 6104W        W10155   9.123  10.003   2.417
 6105W        W10156   6.107   2.457  10.444
 6106W        W10157   2.899   8.492   8.631
 6107W        W10158   8.965   9.786   9.071
 6108W        W10159   8.061   5.968   1.020
 6109W        W10160   5.551   2.795   0.018
 6110W        W10161   0.429   2.377   2.960
 6111W        W10162   6.453   9.504   2.773
 6112W        W10163   5.588   3.306  11.821
 6113W        W10164   3.521   1.437   0.207
 6114W        W10165   8.788   6.167   2.226
 6115W        W10166   4.573   8.539   2.422
 6116W        W10167   0.863   9.881   3.107
 6117W        W10168   5.572   9.287   0.951
 6118W        W10169   3.700   6.183   4.033
 6119W        W10170  10.129  10.793   2.388
 6120W        W10171   0.263  11.349   9.807
 6121W        W10172   6.061   7.562   9.769
 6122W        W10173   2.736   5.163   8.616
 6123W        W10174   2.407   5.754   0.721
 6124W        W10175   5.644   1.816  10.028
 6125W        W10176   6.538   0.744   2.259
 6126W        W10177   1.274   9.215   8.461
 6127W        W10178   8.183   8.652  10.958
 6128W        W10179   3.668   4.835  10.386
 6129W        W10180  11.063   6.978   0.432
 6130W        W10181   2.519   5.240   1.499
 6131W        W10182   4.694   2.298   3.700
 6132W        W10183   9.495   3.142   0.439
 6133W        W10184   7.430   9.556   1.536
 6134W        W10185  10.473   4.029   9.427
 6135W        W10186   8.494   5.699   1.197
 6136W        W10187   4.675   9.549   2.190
 6137W        W10188   8.903  11.268  11.478
 6138W        W10189   6.607  10.000  11.872
 6139W        W10190   2.456   5.278   1.988
 6140W        W10191   7.439   1.667  10.082
 6141W        W10192   9.577   5.183   2.027
 6142W        W10193   7.129  11.342  11.915
 6143W        W10194   7.863   2.324   0.377
 6144W        W10195   0.392   2.617  11.569
 6145W        W10196   8.565   6.579   0.356
 6146W        W10197   0.738   1.892   2.846
 6147W        W10198   0.885   8.082  10.271
 6148W        W10199   1.823   0.985  11.782
 6149W        W10200   4.107   9.414   9.471
 6150W        W10201   4.342   9.839   1.342
 6151W        W10202   6.211  11.401   2.163
 6152W        W10203   1.700  10.652  11.160
 6153W        W10204  10.551   9.966   0.275
 6154W        W10205   3.998   6.565   3.339
 6155W        W10206  11.145   3.048   0.431
 6156W        W10207   1.703   6.198  10.716
 6157W        W10208  10.915   8.574   9.853
 6158W        W10209  10.652  10.526   3.110
 6159W        W10210   5.315   2.199   1.163
 6160W        W10211   4.376   4.414   0.715
 6161W        W10212   6.898   2.950  10.783
 6162W        W10213   9.525  11.084   2.694
 6163W        W10214   6.830   3.829   9.938
 6164W        W10215   9.847   3.861   3.052
 6165W        W10216   6.010   2.770   2.390
 6166W        W10217   4.789   0.491   0.375
 6167W        W10218   1.811   1.176   0.275
 6168W        W10219   9.106   4.802   1.820
 6169W        W10220  10.316   0.348   1.878
 6170W        W10221   7.984   7.210   0.867
 6171W        W10222   6.968  10.904   3.122
 6172W        W10223   6.192   7.932  10.568
 6173W        W10224   9.455   9.465  10.440
 6174W        W10225   3.866   9.836   9.340
 6175W        W10226   8.582   8.049   9.937
 6176W        W10227   3.378   0.933  11.395
 6177W        W10228   3.892   5.910   8.766
 6178W        W10229   8.510   8.993   8.844
 6179W        W10230   7.104   4.167   1.365
 6180W        W10231  11.432  11.048   1.839
 6181W        W10232   3.835   8.809   2.775
 6182W        W10233   0.854   0.528   9.381
 6183W        W10234   8.885   0.808   1.468
 6184W        W10235   4.167   1.855  10.685
 6185W        W10236   6.400  10.287   1.124
 6186W        W10237   0.947  10.190   2.068
 6187W        W10238   6.967  10.465  10.364
 6188W        W10239   7.778   2.268   1.748
 6189W        W10240   4.672   1.629   1.680
 6190W        W10241   0.905   8.888   1.870
 6191W        W10242   5.056   3.767   2.317
 6192W        W10243   4.644   0.146   9.049
 6193W        W10244   8.169   3.697  10.544
 6194W        W10245  10.781   6.421  11.591
 6195W        W10246  10.759   5.986   8.707
 6196W        W10247   1.851   9.370   0.314
 6197W        W10248   7.279  10.534   0.733
 6198W        W10249   7.334   6.619   1.967
 6199W        W10250  11.389   3.443   0.173
 6200W        W10251   9.180  10.711   2.658
 6201W        W10252   7.427   9.579  11.393
 6202W        W10253   2.333   8.085  10.234
 6203W        W10254  11.466   4.303  11.213
 6204W        W10255   4.500   3.700   3.279
 6205W        W10256   8.851   4.248   0.918
 6206W        W10257   9.084   1.755   9.278
 6207W        W10258   1.358   2.347  10.684
 6208W        W10259   3.072   0.799   4.123
 6209W        W10260  11.076   5.987   1.951
 6210W        W10261   8.048   4.560   1.681
 6211W        W10262   6.750   9.991   9.171
 6212W        W10263   2.170   0.456  10.415
 6213W        W10264   2.344   2.806   1.539
 6214W        W10265   3.340   9.876  11.009
 6215W        W10266   5.042  10.332   8.823
 6216W        W10267   5.603   7.425   2.913
 6217W        W10268  11.192   3.993   8.887
 6218W        W10269   8.946   7.074   9.067
 6219W        W10270   1.526   7.303   1.433
 6220W        W10271   9.445   0.535   2.267
 6221W        W10272  10.978   5.262   0.923
 6222W        W10273   7.441   4.108   3.694
 6223W        W10274   5.077   9.548  10.573
 6224W        W10275   9.520   7.109   8.826
 6225W        W10276   9.399   8.865   2.456
 6226W        W10277  10.111   7.640   9.479
 6227W        W10278   4.641  10.711   0.817
 6228W        W10279  11.313   1.838   2.132
 6229W        W10280   7.280   6.782  10.041
 6230W        W10281   5.487   1.963  11.017
 6231W        W10282   6.604   9.495   0.029
 6232W        W10283   8.128   8.804   2.476
 6233W        W10284   7.102   7.505   1.808
 6234W        W10285   4.184   6.140   0.657
 6235W        W10286  10.792   3.972   2.358
 6236W        W10287   4.773   3.478  11.276
 6237W        W10288   9.362   5.068   9.521
 6238W        W10289  11.048   8.380   1.712
 6239W        W10290   7.905   8.280   1.770
 6240W        W10291   2.987   6.662   3.271
 6241W        W10292   0.921   9.599   3.543
 6242W        W10293  10.759   9.755   2.788
 6243W        W10294   2.233   5.753   2.735
 6244W        W10295   1.268   3.323   0.562
 6245W        W10296   3.414   2.886   1.294
 6246W        W10297   9.573   6.603   8.729
 6247W        W10298   7.426   6.231   1.633
 6248W        W10299  10.383   9.952  11.376
 6249W        W10300   2.537  10.451   9.185
 6250W        W10301   0.645   7.891  11.369
 6251W        W10302  11.386  10.320  10.650
 6252W        W10303   8.910  10.976  11.919
 6253W        W10304   4.696   6.686   2.046
 6254W        W10305   3.615   0.143   1.748
 6255W        W10306   8.957   3.558   3.392
 6256W        W10307   7.067   1.187   0.322
 6257W        W10308   4.659   9.367   3.066
 6258W        W10309   3.200  10.883   9.874
 6259W        W10310   3.963   5.824   9.943
 6260W        W10311   5.863   4.159   1.908
 6261W        W10312   5.493   9.842  10.477
 6262W        W10313   3.630   8.893   1.443
 6263W        W10314  11.427   0.238   9.045
 6264W        W10315   2.826   7.903  10.391
 6265W        W10316  11.052   1.676   8.799
 6266W        W10317   2.168   4.426   1.946
 6267W        W10318   9.418   7.271   8.344
 6268W        W10319   4.242   4.178   9.883
 6269W        W10320   1.393   9.951  10.758
 6270W        W10321   7.673   3.765   0.333
 6271W        W10322   9.354   6.181  10.000
 6272W        W10323  11.158   8.856   1.909
 6273W        W10324   8.654  10.855  11.324
 6274W        W10325   4.812   1.263   9.788
 6275W        W10326   7.533   4.513   2.349
 6276W        W10327   4.947   4.546   0.211
 6277W        W10328   9.151   1.319   9.531
 6278W        W10329  10.756   9.154  10.464
 6279W        W10330   0.597   7.869   3.646
 6280W        W10331   0.704   3.201   8.594
 6281W        W10332   2.148   8.417  11.262
 6282W        W10333  11.425  10.835  10.632
 6283W        W10334   4.983   3.500  10.058
 6284W        W10335   7.673   5.976  11.954
 6285W        W10336   4.317  11.432   1.260
 6286W        W10337   0.360   7.658  10.977
 6287W        W10338   1.649   7.448  10.481
 6288W        W10339   6.238   7.628   8.731
 6289W        W10340   7.114   8.680  10.317
 6290W        W10341   5.624  11.466   9.910
 6291W        W10342   8.536   1.945  10.450
 6292W        W10343   3.045  11.399  11.635
 6293W        W10344  11.019   2.182  10.166
 6294W        W10345   1.730   6.895   1.709
 6295W        W10346   3.403   0.242   9.909
 6296W        W10347  10.878   3.065   8.777
 6297W        W10348   8.391   1.787  11.956
 6298W        W10349   1.908   8.579   8.957
 6299W        W10350   4.197   7.459   2.224
 6300W        W10351   7.234   1.228   9.898
 6301W        W10352   4.220  11.032   9.807
 6302W        W10353   5.767   6.736  11.492
 6303W        W10354   5.164   5.538   0.755
 6304W        W10355   6.774   3.432   1.069
 6305W        W10356   0.520   5.165   2.528
 6306W        W10357  10.853  11.336   9.554
 6307W        W10358   7.478   9.609  11.936
 6308W        W10359   8.884   6.928   3.315
 6309W        W10360   9.555   0.950   2.582
 6310W        W10361   2.189   7.122   1.845
 6311W        W10362  10.981   5.119   1.909
 6312W        W10363   4.562   0.862   2.777
 6313W        W10364   0.299  10.568   9.155
 6314W        W10365   2.961   6.738  10.340
 6315W        W10366   1.971   4.791   8.547
 6316W        W10367   0.977  10.424   3.179
 6317W        W10368   9.798  10.974   9.429
 6318W        W10369   1.903   9.580  10.079
 6319W        W10370  11.340   2.719   0.050
 6320W        W10371   8.412   6.351   9.617
 6321W        W10372   8.054  10.971   8.633
 6322W        W10373   8.360   8.027   1.746
 6323W        W10374   2.147   6.760   3.121
 6324W        W10375   1.151   5.821   9.175
 6325W        W10376   2.721   5.094   9.535
 6326W        W10377   3.122   0.370  11.437
 6327W        W10378   1.778   5.955   0.185
 6328W        W10379   6.227  11.242   0.172
 6329W        W10380   0.482   9.962   1.337
 6330W        W10381   1.211  10.400  11.392
 6331W        W10382   0.460   5.290   3.467
 6332W        W10383   6.255   1.079   0.200
 6333W        W10384   0.021   1.297   2.861
 6334W        W10385   3.143  10.995   8.928
 6335W        W10386   5.559  11.418  10.830
 6336W        W10387   3.752  10.732   0.842
 6337W        W10388   5.076   5.046   0.041
 6338W        W10389   0.911   6.272   9.030
 6339W        W10390   0.789  10.128   3.547
 6340W        W10391   9.176   2.153  10.119
 6341W        W10392   0.211   5.642  11.220
 6342W        W10393   9.892   2.894   0.654
 6343W        W10394   8.538   8.478   3.002
 6344W        W10395  10.456   1.484   0.521
 6345W        W10396   6.158   6.927   0.395
 6346W        W10397   4.651  10.588   2.248
 6347W        W10398   1.795   7.243   9.780
 6348W        W10399  10.278   9.132   3.197
 6349W        W10400   9.958   1.809   9.280
 6350W        W10401   4.619  11.306  10.047
 6351W        W10402   7.039   1.078   8.894
 6352W        W10403   8.832   5.289   2.754
 6353W        W10404   2.621   1.721   3.184
 6354W        W10405   3.118   3.350   8.864
 6355W        W10406   0.841   4.842   9.997
 6356W        W10407   9.858   5.687  11.120
 6357W        W10408   2.674   9.605   8.952
 6358W        W10409   2.745   7.541   8.316
 6359W        W10410   3.140   6.272   0.789
 6360W        W10411   4.031   5.128   2.535
 6361W        W10412  10.360   7.904   1.925
 6362W        W10413   9.011   4.713   0.781
 6363W        W10414   7.077  10.322   1.921
 6364W        W10415   5.206   1.674   0.268
 6365W        W10416   7.040   2.456   0.818
 6366W        W10417   4.412   9.579   9.843
 6367W        W10418   5.629   3.593   1.164
 6368W        W10419   3.223   2.137   0.866
 6369W        W10420   2.334   8.929   0.940
 6370W        W10421  10.872   1.773  11.905
 6371W        W10422   7.908   8.937   8.770
 6372W        W10423   4.127   6.155  11.602
 6373W        W10424   2.037   9.322  10.957
 6374W        W10425   0.683   8.845   0.029
 6375W        W10426   7.380   5.542  11.988
 6376W        W10427   3.324   5.791   0.841
 6377W        W10428   0.490   6.205   2.198
 6378W        W10429   0.461   6.098  11.264
 6379W        W10430   1.786   6.033   1.170
 6380W        W10431   8.618   3.733   9.561
 6381W        W10432   9.632   5.263   9.912
 6382W        W10433   0.333   7.491   3.403
 6383W        W10434  10.520   0.439  11.189
 6384W        W10435  11.119   6.969   1.244
 6385W        W10436   3.427  10.002   0.442
 6386W        W10437   0.470   2.158   0.770
 6387W        W10438   3.484   5.246  10.186
 6388W        W10439   1.798   1.811   2.169
 6389W        W10440  10.782   7.029   3.545
 6390W        W10441   6.341   3.611  10.134
 6391W        W10442   0.857  10.528   8.523
 6392W        W10443   7.209   8.477   1.429
 6393W        W10444   3.337   4.410   0.557
 6394W        W10445   4.541   6.741  10.441
 6395W        W10446   6.482   4.691  10.985
 6396W        W10447   9.342  11.403   8.909
 6397W        W10448   8.357   7.385   3.242
 6398W        W10449  10.827   0.796   2.945
 6399W        W10450   9.497   9.176  11.419
 6400W        W10451   9.928   5.737   1.475
 6401W        W10452  10.714   7.615   0.998
 6402W        W10453   8.934  10.397  11.323
 6403W        W10454   5.228   1.651  10.292
 6404W        W10455   6.845   3.199   3.454
 6405W        W10456   0.225   5.519   8.917
 6406W        W10457   1.679   5.808  11.715
 6407W        W10458   8.976   0.259   2.353
 6408W        W10459   2.149   5.690   1.181
 6409W        W10460   1.456   2.401   0.594
 6410W        W10461  10.400   8.083   9.465
 6411W        W10462   0.469   0.772  10.991
 6412W        W10463  11.070  11.095   0.755
 6413W        W10464   1.926   2.698   0.702
 6414W        W10465   7.134  11.290  10.888
 6415W        W10466  10.258   9.600   0.916
 6416W        W10467   7.852   2.782  10.861
 6417W        W10468   5.540   6.219   0.652
 6418W        W10469   9.398   3.075   1.828
 6419W        W10470   6.045   8.477   9.012
 6420W        W10471  11.496   6.101  11.460
 6421W        W10472  10.931   0.456  11.565
 6422W        W10473   9.211   9.308   0.774
 6423W        W10474   5.155   9.430   0.542
 6424W        W10475   6.210   8.659   3.121
 6425W        W10476   5.557   4.514  10.978
 6426W        W10477   5.455   0.739   1.495
 6427W        W10478   9.307   2.301   2.978
 6428W        W10479   1.274   8.419   2.356
 6429W        W10480   4.240   3.106  11.957
 6430W        W10481   1.017   2.180   9.872
 6431W        W10482   1.812   7.798   0.372
 6432W        W10483   4.078   2.223   0.370
 6433W        W10484   2.808   8.512   9.132
 6434W        W10485   8.579  10.805   1.429
 6435W        W10486   7.940   8.895  10.581
 6436W        W10487   8.618   8.088   0.676
 6437W        W10488   7.003   7.944   2.064
 6438W        W10489   7.199   1.916   2.128
 6439W        W10490  11.282   3.241   2.282
 6440W        W10491   8.503   2.900   2.279
 6441W        W10492   4.197   9.571   3.244
 6442W        W10493   3.081   4.237   9.389
 6443W        W10494  10.418   1.630   9.462
 6444W        W10495   9.903   2.586  10.793
 6445W        W10496   2.806   9.697  10.448
 6446W        W10497   0.601   8.178   8.705
 6447W        W10498   3.711   8.685   8.221
 6448W        W10499   2.310   5.934  11.420
 6449W        W10500  11.456   7.988  10.331
 6450W        W10501  10.567   2.640  11.345
 6451W        W10502   3.926   9.582   9.939
 6452W        W10503   2.358   4.358   2.743
 6453W        W10504  11.279   6.525  11.749
 6454W        W10505  10.740  10.243   2.704
 6455W        W10506   9.329   5.250   2.913
 6456W        W10507   0.268   6.972   3.441
 6457W        W10508   5.513   0.271   9.150
 6458W        W10509   3.194   7.625   9.473
 6459W        W10510  11.482  10.759  11.554
 6460W        W10511   8.125   9.918   8.461
 6461W        W10512   1.087   1.925   1.931
 6462W        W10513   5.170   4.142  11.606
 6463W        W10514   5.671   5.276   2.258
 6464W        W10515   1.324   2.624   2.465
 6465W        W10516   9.965   1.272  10.540
 6466W        W10517   9.836   0.700  10.051
 6467W        W10518   4.042   8.469   2.429
 6468W        W10519   8.819   0.519   0.358
 6469W        W10520   8.965   4.590  10.469
 6470W        W10521   5.004   2.118   2.721
 6471W        W10522   8.233  10.028  11.411
 6472W        W10523  10.707   9.481   0.167
 6473W        W10524   1.540   0.681  10.850
 6474W        W10525   7.405   6.605  10.953
 6475W        W10526   8.551   6.549   3.653
 6476W        W10527   3.842   3.029   3.127
 6477W        W10528   9.446   0.156  11.810
 6478W        W10529   8.386   8.611  11.440
 6479W        W10530   4.766   5.698   1.045
 6480W        W10531   0.664  10.555   2.803
 6481W        W10532  10.513   6.483   8.814
 6482W        W10533   0.446   3.646   0.673
 6483W        W10534   0.710   2.191   9.438
 6484W        W10535   1.227   0.766   2.363
 6485W        W10536  10.551   9.289  11.703
 6486W        W10537   4.925   8.371   3.376
 6487W        W10538   7.609   7.512   9.895
 6488W        W10539   1.668   1.971  10.924
 6489W        W10540   4.631   7.566   0.110
 6490W        W10541   0.797  10.182  11.657
 6491W        W10542   2.118   3.310   0.722
 6492W        W10543   0.473  11.410   1.457
 6493W        W10544   1.865   5.545  11.310
 6494W        W10545   4.918   4.098   1.952
 6495W        W10546   3.797   7.025   1.014
 6496W        W10547  10.642   5.865   2.853
 6497W        W10548   8.222   4.377   0.291
 6498W        W10549   0.807   8.880   9.725
 6499W        W10550   7.397  11.343   3.161
 6500W        W10551   9.100   1.847   0.617
 6501W        W10552   9.549  11.260   3.324
 6502W        W10553   2.720   7.672   1.183
 6503W        W10554   6.939   4.999   1.643
 6504W        W10555  11.425   3.404   0.682
 6505W        W10556   2.476   7.071   1.063
 6506W        W10557   0.315   0.654   0.628
 6507W        W10558   5.269   9.957   9.612
 6508W        W10559   3.593   3.064   1.878
 6509W        W10560   5.677   5.346   0.795
 6510W        W10561   7.389   9.418   2.417
 6511W        W10562   1.487   2.307  10.198
 6512W        W10563   3.580   6.509   8.544
 6513W        W10564   2.042   7.440   2.364
 6514W        W10565  11.274  10.046   2.722
 6515W        W10566   4.557   1.363   2.316
 6516W        W10567   6.970   4.183   0.024
 6517W        W10568   0.719   5.361   9.990
 6518W        W10569   6.683   1.711  11.188
 6519W        W10570   8.377  11.273   3.099
 6520W        W10571   7.144   1.999   0.625
 6521W        W10572   1.447   0.718   0.031
 6522W        W10573   7.770   9.925  11.225
 6523W        W10574   4.110   0.454   0.008
 6524W        W10575   8.091   8.194   9.969
 6525W        W10576   0.351   6.488   3.794
 6526W        W10577   4.545   5.745  11.499
 6527W        W10578   4.025  10.529   9.754
 6528W        W10579   5.680   2.343  10.746
 6529W        W10580   8.894   9.284   9.309
 6530W        W10581   1.872   6.938   2.217
 6531W        W10582   0.395  10.823  11.838
 6532W        W10583   3.057  10.853  11.271
 6533W        W10584   0.802   9.960  10.566
 6534W        W10585   2.543   5.379   8.179
 6535W        W10586   6.624   6.684  11.305
 6536W        W10587   3.187   3.306  10.936
 6537W        W10588  10.837  10.298  11.795
 6538W        W10589   1.325  11.192   2.778
 6539W        W10590   3.766  10.944  10.530
 6540W        W10591   7.572   1.975  11.381
 6541W        W10592   4.007  11.466  11.829
 6542W        W10593   0.864   0.843   1.289
 6543W        W10594   1.875   8.633   9.485
 6544W        W10595   3.645   6.179   0.980
 6545W        W10596   9.772   1.689  10.755
 6546W        W10597   3.281   5.608  11.968
 6547W        W10598   0.597   7.262   2.162
 6548W        W10599   5.792   7.011   2.653
 6549W        W10600   9.776  11.419  11.481
 6550W        W10601   5.270   6.697   1.362
 6551W        W10602   6.232   4.121   4.098
 6552W        W10603   1.554   5.983  11.243
 6553W        W10604   6.568   6.885   1.195
 6554W        W10605   7.139   7.661  10.434
 6555W        W10606   6.521   7.755  10.973
 6556W        W10607   4.211  11.007   2.927
 6557W        W10608   7.095   0.841  10.776
 6558W        W10609   5.943  11.498   9.457
 6559W        W10610   5.871   9.532   9.860
 6560W        W10611   3.816   8.956   2.295
 6561W        W10612   4.156   6.252   3.737
 6562W        W10613   1.274   2.811   0.364
 6563W        W10614  10.540   2.381  10.043
 6564W        W10615   0.359  11.484   2.769
 6565W        W10616   0.356   7.249   1.703
 6566W        W10617   3.186   2.117  11.968
 6567W        W10618   2.874   2.795  11.416
 6568W        W10619   5.480   9.236   3.200
 6569W        W10620   9.942   8.406   2.393
 6570W        W10621  10.876  11.128   1.674
 6571W        W10622   1.689   9.168   3.197
 6572W        W10623   2.346  11.095  10.462
 6573W        W10624   7.488   0.967   0.563
 6574W        W10625   1.631   1.329  11.434
 6575W        W10626   6.674   3.112   2.440
 6576W        W10627   2.134   6.570   8.679
 6577W        W10628   2.861   6.227  10.608
 6578W        W10629   4.224   3.519  10.825
 6579W        W10630   6.429   3.123   8.492
 6580W        W10631   2.299   2.469  10.585
 6581W        W10632   1.614   7.039   9.363
 6582W        W10633  11.235   7.626   2.694
 6583W        W10634   9.246   0.678   0.565
 6584W        W10635   1.739   8.662   2.252
 6585W        W10636   5.124  11.287   9.873
 6586W        W10637   2.219   9.480   9.163
 6587W        W10638  10.086   3.400   1.881
 6588W        W10639   8.776   3.357  11.965
 6589W        W10640   4.250   0.082   9.850
 6590W        W10641   9.891   2.454   1.838
 6591W        W10642  10.945   8.208   0.731
 6592W        W10643   9.696   0.676   0.329
 6593W        W10644   5.185   5.964   0.999
 6594W        W10645   7.749   4.545   9.037
 6595W        W10646   3.240   2.638   0.859
 6596W        W10647   5.216   6.086  10.326
 6597W        W10648  10.011   8.147  11.785
 6598W        W10649   6.123   0.946   0.870
 6599W        W10650   1.984   3.406  10.950
 6600W        W10651  10.209   6.103   0.742
 6601W        W10652   8.991   7.858  11.524
 6602W        W10653   1.366   1.915   3.288
 6603W        W10654   6.575   8.635   1.818
 6604W        W10655   6.297   7.182   8.972
 6605W        W10656  10.800   0.764   9.080
 6606W        W10657   2.766   8.862   9.543
 6607W        W10658  11.259   8.600   0.719
 6608W        W10659   3.544   4.105   0.947
 6609W        W10660   4.042   6.174   0.133
 6610W        W10661   4.410   1.767   0.698
 6611W        W10662   6.208   0.290  10.810
 6612W        W10663   4.100  11.451   0.796
 6613W        W10664   7.636   8.877   0.589
 6614W        W10665   2.008   3.027  11.709
 6615W        W10666   8.153   2.842  10.406
 6616W        W10667   1.315   3.613  11.708
 6617W        W10668   4.551   3.391  10.408
 6618W        W10669   4.883   7.158  11.382
 6619W        W10670   5.671   6.311  10.174
 6620W        W10671   7.472   3.870   1.576
 6621W        W10672   0.154   5.643   0.598
 6622W        W10673  10.286   8.579  10.109
 6623W        W10674   7.173   3.122   1.960
 6624W        W10675   5.999   2.367   9.494
 6625W        W10676   4.615   1.445   9.371
 6626W        W10677   4.491   4.695   3.246
 6627W        W10678  10.082   7.451  10.315
 6628W        W10679  10.057  10.921   0.797
 6629W        W10680  11.342   5.257  11.109
 6630W        W10681   4.791   1.345  10.306
 6631W        W10682   0.823   3.502   9.549
 6632W        W10683   5.771   4.370   0.687
 6633W        W10684  10.171   7.512   1.616
 6634W        W10685   8.709   1.295   9.770
 6635W        W10686   3.247   8.603   0.230
 6636W        W10687   5.909   1.635  11.043
 6637W        W10688   4.950   1.800   4.081
 6638W        W10689   7.006   1.320   1.188
 6639W        W10690   7.880   5.241   9.482
 6640W        W10691   0.455   3.795   2.819
 6641W        W10692   8.082  11.382  10.875
 6642W        W10693   1.924   5.256   8.983
 6643W        W10694   1.379   2.830  10.352
 6644W        W10695   8.154  11.310   9.975
 6645W        W10696   9.198   0.361   3.331
 6646W        W10697   0.419  11.216   0.181
 6647W        W10698   8.659  11.261  10.223
 6648W        W10699   2.690   6.562   8.740
 6649W        W10700  10.521   0.698  10.673
 6650W        W10701   5.754   7.684   4.054
 6651W        W10702   3.343   3.345  11.422
 6652W        W10703   4.071  10.356  10.752
 6653W        W10704   9.016   3.335   9.074
 6654W        W10705   6.201   5.723   2.738
 6655W        W10706   4.978   8.127   9.232
 6656W        W10707   9.250   5.922  10.425
 6657W        W10708  10.351   4.126   3.082
 6658W        W10709   3.427   7.418   3.033
 6659W        W10710   7.623   2.120  11.879
 6660W        W10711   3.109   1.389  11.377
 6661W        W10712  10.744  11.282   9.060
 6662W        W10713  10.406   0.913   3.206
 6663W        W10714   4.118   1.243  10.386
 6664W        W10715   5.883  10.918   2.452
 6665W        W10716   2.007  10.361   9.189
 6666W        W10717   1.376   3.720  10.699
 6667W        W10718   1.730   4.599   0.396
 6668W        W10719   4.270   1.238   1.884
 6669W        W10720   9.025   8.981   9.841
 6670W        W10721   1.305   4.571  10.809
 6671W        W10722   4.271   2.762   1.544
 6672W        W10723   0.716   4.158   1.210
 6673W        W10724   9.405  10.094   3.634
 6674W        W10725  10.739   6.069   1.551
 6675W        W10726   2.129  10.595   1.835
 6676W        W10727  11.269   0.721   3.198
 6677W        W10728   0.577   1.897  11.149
 6678W        W10729   1.867   9.980   1.537
 6679W        W10730   7.603   6.215  10.205
 6680W        W10731   4.375   6.658  11.803
 6681W        W10732   0.104   1.687  11.261
 6682W        W10733   7.610  10.328  10.965
 6683W        W10734   7.583   8.018  10.643
 6684W        W10735   3.766   5.002   9.346
 6685W        W10736   5.101   0.285   1.292
 6686W        W10737   1.221   5.933  10.851
 6687W        W10738   9.810   8.903   3.309
 6688W        W10739   7.651   5.488   0.910
 6689W        W10740   2.164   8.859   2.458
 6690W        W10741   7.581   1.920   9.228
 6691W        W10742   9.306   4.847  10.055
 6692W        W10743   7.140   7.441   9.049
 6693W        W10744  10.927  10.953   3.043
 6694W        W10745   7.970   2.342   9.711
 6695W        W10746   3.712   6.622  10.810
 6696W        W10747   7.903  11.009   3.328
 6697W        W10748   3.935  10.282  11.351
 6698W        W10749   5.402   8.480  10.944
 6699W        W10750   0.585   9.068  10.193
 6700W        W10751   0.228   3.107   2.478
 6701W        W10752   6.091   2.521  10.986
 6702W        W10753  10.634   8.397   1.353
 6703W        W10754   3.218  11.487   9.201
 6704W        W10755  10.138   4.243   9.106
 6705W        W10756   6.812   1.768   2.429
 6706W        W10757   0.830   4.580  10.476
 6707W        W10758   5.765   2.857   2.835
 6708W        W10759   9.979   2.722   0.184
 6709W        W10760   3.899   7.265   2.818
 6710W        W10761  10.094   0.360   3.409
 6711W        W10762   7.382   1.051   2.396
 6712W        W10763   7.946   3.308  11.141
 6713W        W10764   0.815   7.376   0.808
 6714W        W10765   1.865   3.115  10.162
 6715W        W10766   1.806   6.422   0.383
 6716W        W10767   5.561   1.898  11.992
 6717W        W10768   2.351   9.582  10.650
 6718W        W10769   6.177   2.511  11.507
 6719W        W10770   4.519   6.118   1.290
 6720W        W10771   4.745  11.485   0.415
 6721W        W10772   9.029   7.371  10.406
 6722W        W10773   1.644  11.003  11.532
 6723W        W10774   4.163   9.526  11.487
 6724W        W10775   6.257   8.729   2.202
 6725W        W10776   3.653   0.891  10.411
 6726W        W10777   0.943   6.265  11.818
 6727W        W10778   8.831   7.607   8.835
 6728W        W10779   5.345   4.458   0.956
 6729W        W10780   9.985   3.240   8.746
 6730W        W10781   8.056   1.925  11.564
 6731W        W10782   9.622   9.390   3.219
 6732W        W10783   5.592   4.609   1.915
 6733W        W10784   5.837   7.074   9.182
 6734W        W10785   3.392   1.907   2.162
 6735W        W10786   8.424   5.916   9.894
 6736W        W10787   8.376   8.398   9.550
 6737W        W10788   0.219   4.064   1.374
 6738W        W10789   6.115   1.600   9.065
 6739W        W10790   4.783   7.969   1.117
 6740W        W10791   8.906   9.116   3.487
 6741W        W10792  10.005   7.971   1.526
 6742W        W10793   6.812  10.840   2.210
 6743W        W10794   9.437   3.360   8.746
 6744W        W10795   8.495   0.152   3.777
 6745W        W10796   2.955   0.696   0.283
 6746W        W10797   6.029   2.149   9.942
 6747W        W10798   4.911   2.638   1.802
 6748W        W10799   7.036   8.661   9.493
 6749W        W10800   7.802  10.383  11.437
 6750W        W10801   5.698   0.730   2.733
 6751W        W10802  11.388   5.182   9.911
 6752W        W10803   7.442  10.032  11.617
 6753W        W10804   7.112  11.188   1.317
 6754W        W10805  11.380   3.825  11.372
 6755W        W10806   9.866   9.996  11.929
 6756W        W10807   7.133   8.893   0.465
 6757W        W10808   2.156   4.987  11.744
 6758W        W10809   4.732   8.923   2.813
 6759W        W10810   2.700   9.516   1.689
 6760W        W10811  10.760   7.710   2.251
 6761W        W10812   1.755   2.687   9.883
 6762W        W10813   5.391   9.363   9.915
 6763W        W10814   2.326  10.035  11.391
 6764W        W10815  11.427   8.117   0.904
 6765W        W10816   8.205   1.219   0.638
 6766W        W10817   9.971   7.605   0.320
 6767W        W10818   5.107   7.243  10.914
 6768W        W10819   3.542   6.918   2.796
 6769W        W10820   8.637   3.041   1.240
 6770W        W10821   7.768   3.592   1.253
 6771W        W10822   1.371   7.170  11.553
 6772W        W10823   0.894   3.800   0.427
 6773W        W10824   2.794   2.855   0.993
 6774W        W10825  10.314  11.010  11.856
 6775W        W10826   6.512   2.342  10.760
 6776W        W10827   9.474   6.940   9.700
 6777W        W10828   4.768   9.903  10.961
 6778W        W10829   6.566   0.800   3.874
 6779W        W10830  10.520   7.268   1.339
 6780W        W10831  11.369   0.162   9.568
 6781W        W10832   5.203   9.010  10.748
 6782W        W10833   2.348   1.965  10.519
 6783W        W10834   5.077   9.362   2.440
 6784W        W10835   3.094   5.086   3.808
 6785W        W10836  11.305   5.269   0.509
 6786W        W10837   8.169   5.999   8.443
 6787W        W10838   9.757   0.476   1.834
 6788W        W10839  10.491   3.869  10.901
 6789W        W10840   1.165   6.683   8.697
 6790W        W10841   2.119   7.611   3.667
 6791W        W10842   4.485   1.445  10.689
 6792W        W10843   6.051   7.532  10.265
 6793W        W10844   2.704   7.520   9.336
 6794W        W10845   4.375  10.700   9.391
 6795W        W10846   4.795   7.177  10.341
 6796W        W10847   7.917  10.344   1.574
 6797W        W10848   7.967   1.240   1.425
 6798W        W10849   7.145   6.787   2.670
 6799W        W10850   9.189   8.424   1.261
 6800W        W10851   5.766   2.638   0.454
 6801W        W10852   1.886   2.155  10.492
 6802W        W10853   3.035   2.490  11.037
 6803W        W10854  10.415   7.447   2.973
 6804W        W10855  11.072   0.431   1.400
 6805W        W10856   5.905   4.290  11.373
 6806W        W10857   7.510   5.351   1.373
 6807W        W10858   7.159   9.470   2.893
 6808W        W10859   9.375   8.874   1.496
 6809W        W10860   5.686  10.730   3.435
 6810W        W10861   7.893   2.371   9.212
 6811W        W10862   3.691   7.036   0.028
 6812W        W10863   2.265  11.091   1.856
 6813W        W10864  11.449   0.518   0.966
 6814W        W10865   3.282   8.889   1.030
 6815W        W10866   7.346   6.984   8.847
 6816W        W10867   8.909   7.624   9.982
 6817W        W10868  10.511   9.082   8.717
 6818W        W10869   4.827   6.663  11.279
 6819W        W10870   0.393   4.863   1.631
 6820W        W10871   2.429   6.454  11.471
 6821W        W10872   9.451   9.767   2.712
 6822W        W10873   8.807   5.753  11.901
 6823W        W10874  10.890   0.338   9.436
 6824W        W10875   4.993   7.491   0.955
 6825W        W10876   2.350  10.326   0.916
 6826W        W10877  10.326   6.267   1.243
 6827W        W10878   5.312   9.799   0.221
 6828W        W10879  11.287   4.680   3.340
 6829W        W10880   5.236   0.802  11.781
 6830W        W10881   5.129   2.604   3.623
 6831W        W10882   5.743   4.095  10.745
 6832W        W10883   9.360  10.264   2.845
 6833W        W10884   1.846   7.810   2.695
 6834W        W10885  10.771   7.101   0.901
 6835W        W10886   9.876   4.735   0.207
 6836W        W10887   9.972   1.193   2.071
 6837W        W10888   3.187   4.748   0.911
 6838W        W10889   2.964   3.433  11.756
 6839W        W10890   0.654  10.440   0.080
 6840W        W10891   6.689   8.679   2.687
 6841W        W10892   8.475   9.484  10.132
 6842W        W10893   1.818   5.583   3.009
 6843W        W10894  11.432   2.735   2.703
 6844W        W10895   5.481  11.309   9.406
 6845W        W10896   9.002   9.922   0.870
 6846W        W10897   8.403   3.468  10.923
 6847W        W10898   6.538   1.646  10.180
 6848W        W10899   0.823   5.325  11.888
 6849W        W10900   2.685   8.169   1.316
 6850W        W10901   9.379   4.228  10.363
 6851W        W10902   7.495   6.696   0.329
 6852W        W10903  10.018   3.768   1.091
 6853W        W10904   2.166   7.408  10.575
 6854W        W10905   9.229   7.912   9.733
 6855W        W10906   8.469   9.896   9.826
 6856W        W10907   2.684   3.787  11.996
 6857W        W10908   1.004   0.721  10.862
 6858W        W10909  10.542  10.334   9.626
 6859W        W10910   6.248   1.304   8.665
 6860W        W10911   0.500   6.019   3.085
 6861W        W10912   0.803   4.552   9.537
 6862W        W10913   7.468   1.407   1.418
 6863W        W10914   9.405   5.832  11.319
 6864W        W10915  10.851   1.333  11.624
 6865W        W10916   8.888   4.783  11.788
 6866W        W10917   2.510   3.318  10.864
 6867W        W10918   6.378   1.378  10.927
 6868W        W10919   7.480   7.372   0.807
 6869W        W10920   1.328  10.917   2.322
 6870W        W10921   9.036   7.418   3.308
 6871W        W10922   5.487  10.576   2.441
 6872W        W10923   4.129  10.366  11.822
 6873W        W10924   1.352   1.809   9.960
 6874W        W10925   3.827   4.160   2.795
 6875W        W10926   5.043   6.043  11.995
 6876W        W10927   9.445   8.392   2.658
 6877W        W10928   7.663   5.549   2.205
 6878W        W10929   1.284  10.004   3.470
 6879W        W10930   5.516   7.494   0.899
 6880W        W10931  10.436  10.040   3.118
 6881W        W10932   4.267   5.229   0.552
 6882W        W10933   4.249   2.198   9.287
 6883W        W10934   8.903   7.139   2.817
 6884W        W10935   5.781   3.676  11.494
 6885W        W10936   7.906   2.755   1.692
 6886W        W10937   3.198   2.334  11.505
 6887W        W10938   7.490  10.024   1.829
 6888W        W10939   2.349   6.665   9.133
 6889W        W10940   9.039   9.533   1.710
 6890W        W10941   4.115  10.275   9.299
 6891W        W10942   3.172   6.190   1.788
 6892W        W10943   1.685   8.140  11.452
 6893W        W10944   6.122   0.224   1.389
 6894W        W10945   3.001   3.346   2.297
 6895W        W10946   4.179  11.448   8.912
 6896W        W10947   8.948   8.654   3.254
 6897W        W10948   7.161   8.159  10.347
 6898W        W10949   7.276   2.228   1.200
 6899W        W10950  10.081   8.087   9.892
 6900W        W10951   5.672   1.768   0.496
 6901W        W10952   0.815  11.352  10.910
 6902W        W10953   0.665  10.724   9.479
 6903W        W10954   3.326  11.257   2.593
 6904W        W10955   0.308   7.840   9.003
 6905W        W10956   2.009   7.599  10.125
 6906W        W10957   4.701   1.899  10.504
 6907W        W10958   7.561  10.450   1.189
 6908W        W10959   5.281   8.853   9.897
 6909W        W10960   7.172   5.348   0.710
 6910W        W10961   8.017   7.455   0.423
 6911W        W10962   5.593   3.123   0.390
 6912W        W10963  10.949   8.950  10.988
 6913W        W10964   3.653  10.437   9.421
 6914W        W10965   8.047   6.339   9.260
 6915W        W10966  10.289   1.991  10.576
 6916W        W10967   2.846   5.679   3.795
 6917W        W10968   6.110   0.266   0.058
 6918W        W10969   2.361   0.918  11.259
 6919W        W10970   8.125  10.322  11.009
 6920W        W10971   2.668  10.176  10.491
 6921W        W10972   1.433   1.511  10.832
 6922W        W10973   9.525   0.340  11.331
 6923W        W10974   7.154   9.196   9.088
 6924W        W10975   3.340   5.237   0.934
 6925W        W10976   9.889   7.220   0.007
 6926W        W10977   7.481   1.799   0.970
 6927W        W10978   6.907   7.422  10.813
 6928W        W10979  11.218   4.731  11.422
 6929W        W10980   9.275   7.612   2.082
 6930W        W10981   2.846   9.946  10.925
 6931W        W10982   7.335  10.060   3.593
 6932W        W10983  10.818   5.516   0.381
 6933W        W10984  10.459   8.841  10.759
 6934W        W10985   0.906   0.028   2.737
 6935W        W10986  11.056   3.364  11.281
 6936W        W10987  10.738   5.102   2.804
 6937W        W10988   4.261  10.017   0.169
 6938W        W10989   8.081  11.071  11.406
 6939W        W10990   0.287   6.748   9.645
 6940W        W10991   9.740   9.479   9.635
 6941W        W10992   7.367   2.443  10.404
 6942W        W10993   5.278   4.338   3.164
 6943W        W10994   2.667  11.336   9.875
 6944W        W10995   3.457   0.988  10.876
 6945W        W10996   1.627   5.698   9.007
 6946W        W10997   1.650   4.033   9.141
 6947W        W10998   8.426   9.253   1.435
 6948W        W10999   3.390   4.708   1.501
 6949W        W11000   1.623   6.877   1.168
 6950W        W11001   6.809   8.820   9.925
 6951W        W11002   9.832   9.469   1.199
 6952W        W11003   9.015   9.954   1.405
 6953W        W11004   3.120   3.869   2.312
 6954W        W11005   7.348   2.673  10.849
 6955W        W11006   8.433   5.227  10.460
 6956W        W11007   8.363   8.550   0.869
 6957W        W11008   7.488   5.664   0.462
 6958W        W11009  11.302   0.313   3.567
 6959W        W11010   8.025   0.726   1.348
 6960W        W11011   0.465   4.011  10.914
 6961W        W11012  10.901   2.472  10.954
 6962W        W11013   6.526   7.684   9.644
 6963W        W11014   4.290   1.348   8.963
 6964W        W11015   6.055   5.016   9.589
 6965W        W11016   5.255   1.655   1.246
 6966W        W11017   5.807  10.015   9.111
 6967W        W11018   6.355  11.420  10.444
 6968W        W11019   4.384   5.613   1.375
 6969W        W11020   8.846   0.975  11.932
 6970W        W11021   3.331   2.203   8.748
 6971W        W11022   9.921   5.973   8.826
 6972W        W11023   7.522   1.699  10.945
 6973W        W11024   3.809  11.425  10.001
 6974W        W11025  10.243   5.339  11.004
 6975W        W11026   7.480   1.296   1.919
 6976W        W11027   9.827   7.519   2.281
 6977W        W11028   5.533   8.548  11.988
 6978W        W11029   5.800  11.032   9.684
 6979W        W11030   6.206   4.081   9.945
 6980W        W11031   5.487  11.420  11.765
 6981W        W11032   8.513   0.791   0.708
 6982W        W11033   5.731   8.893   9.093
 6983W        W11034   9.556  11.281   9.776
 6984W        W11035   2.700   0.707   3.115
 6985W        W11036   4.528   9.274  10.234
 6986W        W11037   6.645   5.178  11.059
 6987W        W11038   4.782   3.310   2.298
 6988W        W11039   2.435   5.175   9.948
 6989W        W11040  11.251   6.510   1.854
 6990W        W11041   2.867   1.935   2.161
 6991W        W11042   3.728   6.237  10.173
 6992W        W11043  11.277   7.367  10.146
 6993W        W11044   4.610  11.426   3.446
 6994W        W11045  10.320   2.025   1.200
 6995W        W11046   9.526   0.429   8.977
 6996W        W11047   8.309   0.674   9.814
 6997W        W11048   4.028  10.187   3.810
 6998W        W11049   1.200   4.562  11.694
 6999W        W11050   5.110   7.095   9.936
 7000W        W11051   6.336  11.143   0.647
 7001W        W11052   2.671   1.383  11.766
 7002W        W11053  10.337   9.543   8.489
 7003W        W11054   9.124   2.853   8.906
 7004W        W11055   1.897   0.102   8.984
 7005W        W11056   7.573   1.040   8.948
 7006W        W11057   3.782   2.871  11.841
 7007W        W11058   6.947   4.055   9.479
 7008W        W11059   2.740   2.947  10.076
 7009W        W11060   0.301   4.021   9.835
 7010W        W11061  10.225   1.932   0.707
 7011W        W11062   1.787  10.796   3.125
 7012W        W11063   8.978   4.127  10.685
 7013W        W11064   2.076   6.365   3.456
 7014W        W11065   2.760  11.252   1.718
 7015W        W11066  10.296   5.691   0.381
 7016W        W11067  10.835   1.350   1.570
 7017W        W11068   9.844   1.165   0.428
 7018W        W11069   1.029   7.042   0.462
 7019W        W11070   0.937   4.981   2.797
 7020W        W11071   7.289   7.150  10.583
 7021W        W11072  11.413   1.042   0.922
 7022W        W11073   2.922  11.290   0.121
 7023W        W11074   5.767   6.673   2.249
 7024W        W11075   1.855   0.878  11.280
 7025W        W11076   4.076   8.368  11.226
 7026W        W11077   7.358   2.353   0.291
 7027W        W11078   0.848   4.654   0.456
 7028W        W11079   1.328   9.799   8.864
 7029W        W11080   8.670   2.946   9.141
 7030W        W11081   6.721   9.015   3.410
 7031W        W11082   4.299   5.652   0.851
 7032W        W11083   6.062   3.688  10.680
 7033W        W11084   5.527   6.285   1.171
 7034W        W11085   4.984   3.655   8.677
 7035W        W11086   5.994   9.963   9.597
 7036W        W11087   6.462  10.880   1.826
 7037W        W11088  11.306   1.688   2.613
 7038W        W11089   7.621   2.772   0.434
 7039W        W11090   0.306   8.132   2.213
 7040W        W11091   9.050   4.653   9.106
 7041W        W11092   1.325  10.782   8.888
 7042W        W11093   7.823   0.218   2.223
 7043W        W11094   3.408   8.970   0.543
 7044W        W11095   7.957   3.658   0.782
 7045W        W11096   5.130   9.756  10.095
 7046W        W11097   8.839   0.899   1.964
 7047W        W11098  10.041  11.049   2.832
 7048W        W11099   5.608   1.264   3.521
 7049W        W11100   5.988   8.937  11.496
 7050W        W11101   5.627   4.671   2.417
 7051W        W11102   8.398   0.768   0.193
 7052W        W11103   8.046   5.830   3.658
 7053W        W11104   0.635   0.897   9.068
 7054W        W11105   2.847   4.222  11.713
 7055W        W11106  11.203   5.972   2.828
 7056W        W11107   7.495   8.045   1.577
 7057W        W11108   5.360   0.318  10.516
 7058W        W11109   5.713   6.580   9.146
 7059W        W11110   7.875   7.867   2.081
 7060W        W11111   8.894  10.417  10.339
 7061W        W11112   7.918  10.781  11.781
 7062W        W11113  10.972   0.297   0.526
 7063W        W11114   3.551   4.000  10.580
 7064W        W11115  10.158   1.465   0.925
 7065W        W11116   9.989   6.507  10.423
 7066W        W11117   4.208   2.758   3.397
 7067W        W11118   6.586   1.785   8.919
 7068W        W11119   5.721   8.170   9.518
 7069W        W11120   3.217   9.346   1.802
 7070W        W11121   7.550  11.452   1.202
 7071W        W11122   1.698   8.663   3.187
 7072W        W11123   7.335   8.346  11.777
 7073W        W11124   6.796  10.391  11.322
 7074W        W11125   0.844   8.535  10.773
 7075W        W11126   5.755  11.449   0.232
 7076W        W11127   6.723   6.342  11.759
 7077W        W11128   9.709   8.179   3.668
 7078W        W11129   5.776   8.817   0.939
 7079W        W11130  10.534   5.537   0.848
 7080W        W11131   9.152  10.397   3.285
 7081W        W11132   7.881  10.965   9.651
 7082W        W11133   6.638  10.897   9.246
 7083W        W11134   2.449   7.051  10.333
 7084W        W11135  10.746   0.335   0.060
 7085W        W11136   6.653   9.124  10.857
 7086W        W11137   4.066   2.889   1.989
 7087W        W11138   8.142   9.871   1.403
 7088W        W11139   5.096   4.520   2.228
 7089W        W11140   0.882   4.122   1.689
 7090W        W11141   6.890   2.509   9.987
 7091W        W11142   2.634   4.936  10.390
 7092W        W11143   8.264   0.353  11.850
 7093W        W11144   7.643   9.032   9.225
 7094W        W11145   3.727   5.740   0.182
 7095W        W11146  10.362   6.125   3.218
 7096W        W11147   0.024  10.810   1.385
 7097W        W11148   4.716   0.341   9.928
 7098W        W11149   5.988   3.359   8.561
 7099W        W11150   8.404  10.525   0.920
 7100W        W11151   4.721   4.134   0.441
 7101W        W11152   0.001   1.819   1.172
 7102W        W11153  10.805   7.348   2.598
 7103W        W11154   5.561   9.415   8.974
 7104W        W11155   1.425   9.147   0.142
 7105W        W11156   9.368   0.459  10.337
 7106W        W11157   2.633   7.049  11.209
 7107W        W11158   2.847  10.929  11.749
 7108W        W11159   2.125   7.335   9.400
 7109W        W11160   1.666   9.667   0.767
 7110W        W11161   0.966  10.119  11.026
 7111W        W11162   9.989   2.859  11.695
 7112W        W11163   2.354   1.551   9.620
 7113W        W11164   8.583   3.359   1.630
 7114W        W11165   0.151  10.520   2.782
 7115W        W11166  11.407   8.468   2.255
 7116W        W11167   8.436   7.111   9.414
 7117W        W11168   5.281   1.642   2.635
 7118W        W11169   9.855   6.137   3.067
 7119W        W11170   7.957   6.955   3.096
 7120W        W11171   6.984   6.583   8.775
 7121W        W11172   1.753   6.464   0.885
 7122W        W11173   6.550   1.829  10.667
 7123W        W11174   2.728   5.738  10.733
 7124W        W11175   6.071  11.301  10.851
 7125W        W11176   1.109   5.733  10.052
 7126W        W11177   1.272   8.861  10.014
 7127W        W11178   5.044   2.950   0.930
 7128W        W11179   0.744   6.507  11.348
 7129W        W11180   8.463   1.140   1.636
 7130W        W11181   7.850   7.406   2.320
 7131W        W11182   2.573   2.680   3.365
 7132W        W11183   5.560   1.344  11.834
 7133W        W11184   2.012   7.669  11.423
 7134W        W11185   8.436   0.744  11.151
 7135W        W11186   0.468   6.729  10.528
 7136W        W11187   1.966  11.133   1.163
 7137W        W11188   0.252  11.119  10.282
 7138W        W11189   4.006   4.558   9.550
 7139W        W11190  10.887   9.034   0.031
 7140W        W11191   5.108   5.567  11.764
 7141W        W11192   9.857   5.286   3.025
 7142W        W11193   6.581   9.609   8.474
 7143W        W11194  10.037   1.784   9.778
 7144W        W11195   4.694   5.712   0.534
 7145W        W11196   1.331   8.382  10.199
 7146W        W11197   8.389  11.300   9.282
 7147W        W11198   3.132   1.024  10.096
 7148W        W11199   8.611   5.785   8.228
 7149W        W11200   3.559   4.164   9.214
 7150W        W11201   2.343  10.048  10.869
 7151W        W11202   1.757   5.028   9.410
 7152W        W11203   8.065   5.999  10.243
 7153W        W11204   6.981   0.951   2.115
 7154W        W11205   5.252   0.901   2.929
 7155W        W11206   4.612   3.218   0.815
 7156W        W11207   3.511   0.053  11.431
 7157W        W11208   8.052   0.070  11.399
 7158W        W11209   4.604   0.325   8.559
 7159W        W11210   8.509   7.643   0.403
 7160W        W11211  10.315   2.697   1.394
 7161W        W11212   8.568   1.176  11.372
 7162W        W11213   5.353  11.422   3.177
 7163W        W11214   4.858   0.673   3.154
 7164W        W11215  10.049   8.472   9.375
 7165W        W11216   4.135   1.871   8.762
 7166W        W11217   5.177   8.274   1.272
 7167W        W11218   3.353  10.803   2.254
 7168W        W11219   5.124   9.109   1.529
 7169W        W11220   6.761  10.909   0.077
 7170W        W11221   1.618   9.005  10.871
 7171W        W11222  11.378   1.880  11.676
 7172W        W11223   2.613   5.729   1.367
 7173W        W11224   8.609   4.086   0.489
 7174W        W11225   3.360   5.227   1.462
 7175W        W11226   6.885   4.572  11.249
 7176W        W11227  10.823   2.754   0.730
 7177W        W11228   6.514  11.127   3.046
 7178W        W11229   5.096   3.094  11.082
 7179W        W11230   9.426  10.879   0.110
 7180W        W11231   3.770   7.977  10.504
 7181W        W11232   7.148   7.051   0.058
 7182W        W11233   1.458   8.505   9.179
 7183W        W11234   3.879   1.868   1.296
 7184W        W11235   1.188   6.728  11.742
 7185W        W11236   5.207   1.438   0.757
 7186W        W11237   4.744   8.694   1.921
 7187W        W11238   3.322   8.797   8.639
 7188W        W11239   1.274   4.672   0.184
 7189W        W11240   7.228   8.394  10.799
 7190W        W11241   0.664   1.482  10.413
 7191W        W11242   2.608   8.661   1.249
 7192W        W11243   7.007   1.714  10.348
 7193W        W11244   5.055  10.797   0.511
 7194W        W11245   2.667   2.345   2.441
 7195W        W11246  10.782   4.217   2.807
 7196W        W11247   4.674   6.114   1.823
 7197W        W11248   8.804   3.656   1.224
 7198W        W11249   5.509   3.278   2.685
 7199W        W11250   1.801   5.533   9.454
 7200W        W11251   4.490   2.128   2.869
 7201W        W11252   6.156   3.136   8.976
 7202W        W11253   6.557   5.646   1.742
 7203W        W11254   3.599  11.246  10.959
 7204W        W11255   3.366   7.136  10.477
 7205W        W11256   3.810   2.625  10.360
 7206W        W11257  11.403   4.327   9.231
 7207W        W11258   9.461   5.028   0.403
 7208W        W11259   6.543   5.689  11.278
 7209W        W11260   8.705   6.633   8.778
 7210W        W11261   0.619   1.245   9.937
 7211W        W11262   4.295   4.567  10.813
 7212W        W11263   1.052   7.874   3.402
 7213W        W11264   4.150   2.537  11.952
 7214W        W11265   5.750   7.515   8.914
 7215W        W11266   8.095   3.702   9.613
 7216W        W11267   0.381   4.897  11.760
 7217W        W11268   0.854   9.033  10.628
 7218W        W11269   6.966   0.854   2.623
 7219W        W11270   0.207   7.638  10.082
 7220W        W11271   3.815   2.087  11.427
 7221W        W11272   7.031  11.472   2.316
 7222W        W11273   9.148   3.306   2.759
 7223W        W11274   4.080   1.714   9.250
 7224W        W11275   9.433   2.427   9.707
 7225W        W11276   5.212   6.749   9.158
 7226W        W11277   6.128   6.226   9.397
 7227W        W11278   0.232   6.612   0.051
 7228W        W11279   2.262   0.205   1.029
 7229W        W11280   5.505  10.273  10.761
 7230W        W11281   4.926   0.181   3.151
 7231W        W11282   2.172   1.952   3.080
 7232W        W11283   0.767  11.203  11.799
 7233W        W11284   8.062  10.950   2.838
 7234W        W11285   8.680   1.341   0.765
 7235W        W11286   0.547   9.719   0.591
 7236W        W11287   7.022   7.590   9.542
 7237W        W11288   0.117   5.269   0.090
 7238W        W11289   4.684   6.168  11.240
 7239W        W11290   3.843  10.978  11.922
 7240W        W11291   4.559   7.576  10.045
 7241W        W11292   8.383   9.898   3.741
 7242W        W11293   3.588   1.313  10.137
 7243W        W11294   2.764   9.927   2.040
 7244W        W11295   2.150   5.129  10.349
 7245W        W11296   1.785   3.559  11.456
 7246W        W11297   8.554   8.883   9.395
 7247W        W11298   6.496   7.094   1.947
 7248W        W11299   2.621   0.940   9.967
 7249W        W11300   2.632   1.818   2.619
 7250W        W11301   0.226   0.000   1.899
 7251W        W11302   4.152   3.679  10.376
 7252W        W11303   3.723   6.071   8.322
 7253W        W11304   3.286   4.743  10.075
 7254W        W11305   0.410   6.666   1.137
 7255W        W11306   0.772   3.158  11.026
 7256W        W11307   8.624   8.910  11.019
 7257W        W11308   1.742   8.974  11.803
 7258W        W11309   8.356   1.106   1.115
 7259W        W11310   2.534   5.628   8.725
 7260W        W11311   7.428   0.472   3.000
 7261W        W11312   2.711   8.838  10.059
 7262W        W11313   4.767   2.482  11.447
 7263W        W11314  10.993   3.013   2.620
 7264W        W11315   3.467  10.545   0.449
 7265W        W11316   6.218   5.498  11.759
 7266W        W11317   7.548   8.075  11.139
 7267W        W11318   8.857   8.503   0.867
 7268W        W11319   8.143   6.365   1.358
 7269W        W11320  10.001   0.319   9.185
 7270W        W11321   9.845   7.914   3.258
 7271W        W11322   5.104   8.275  11.970
 7272W        W11323   1.755   2.634   8.927
 7273W        W11324  10.326   8.889   2.738
 7274W        W11325   3.686   4.221   8.716
 7275W        W11326  10.353   2.181  11.393
 7276W        W11327   6.261  10.383   9.743
 7277W        W11328   2.335   3.840   8.625
 7278W        W11329   3.801   9.712   0.199
 7279W        W11330   4.063   0.411   2.493
 7280W        W11331  10.378   1.778   1.789
 7281W        W11332  11.006   2.586   2.135
 7282W        W11333   1.851   7.743   9.655
 7283W        W11334   0.428   0.419   1.554
 7284W        W11335   9.106   2.748  11.340
 7285W        W11336  10.831   6.156   9.215
 7286W        W11337   2.199   6.647   1.646
 7287W        W11338  10.312   8.021   3.099
 7288W        W11339  10.887   4.659  11.813
 7289W        W11340   6.781   5.822   1.282
 7290W        W11341   0.824   2.896  10.187
 7291W        W11342   2.745   9.931  10.004
 7292W        W11343  11.268   9.520   9.029
 7293W        W11344   8.951   2.569   3.264
 7294W        W11345   0.987   2.824  10.694
 7295W        W11346   7.515  11.301   2.232
 7296W        W11347   5.709   4.044   4.055
 7297W        W11348   0.894  11.352   0.510
 7298W        W11349   1.191   4.191   0.998
 7299W        W11350   8.467   0.966   9.439
 7300W        W11351  11.175   1.701   3.682
 7301W        W11352   3.708   1.286   1.923
 7302W        W11353   2.289   9.364  11.541
 7303W        W11354   7.067   2.010  11.366
 7304W        W11355   1.741   7.832   0.975
 7305W        W11356   9.087  10.829   1.324
 7306W        W11357  10.128  11.040  11.369
 7307W        W11358   1.371   4.108  11.025
 7308W        W11359   4.192   4.690   1.804
 7309W        W11360  10.517   8.426   1.846
 7310W        W11361   2.115   3.371   3.656
 7311W        W11362   6.700   1.401   3.321
 7312W        W11363   1.557  10.497   0.895
 7313W        W11364   5.477   8.390   0.874
 7314W        W11365   0.371  10.395  11.423
 7315W        W11366   4.992  11.083   1.990
 7316W        W11367   1.061   7.476   1.293
 7317W        W11368   2.044   5.163   1.247
 7318W        W11369   0.459   2.618   1.029
 7319W        W11370   5.650   4.664   2.972
 7320W        W11371   4.512   3.243   9.007
 7321W        W11372   9.881   4.236   0.892
 7322W        W11373   3.896   8.353  11.695
 7323W        W11374   4.243  10.565   1.956
 7324W        W11375   8.846   2.316  11.440
 7325W        W11376   6.220   9.244   0.276
 7326W        W11377   0.300   5.154   0.672
 7327W        W11378   5.691   2.806  10.492
 7328W        W11379   0.447  10.990  10.761
 7329W        W11380   0.473   2.126   9.878
 7330W        W11381   0.507   6.719   2.132
 7331W        W11382  10.415   1.969   9.068
 7332W        W11383   6.895   6.038  11.393
 7333W        W11384   9.036   0.308   1.377
 7334W        W11385   2.714   6.225   0.474
 7335W        W11386  11.362  10.233   0.268
 7336W        W11387   9.066   2.132   2.125
 7337W        W11388   1.169   7.921   2.368
 7338W        W11389   3.320   5.088  11.916
 7339W        W11390   6.491   4.511  10.512
 7340W        W11391   9.245   0.567   0.060
 7341W        W11392   1.756   9.072   9.251
 7342W        W11393   3.346   1.748   8.480
 7343W        W11394  10.048   0.977   0.864
 7344W        W11395  10.007   2.400   0.789
 7345W        W11396   0.699  11.239   9.537
 7346W        W11397   8.686   6.079   8.658
 7347W        W11398   7.915   4.263   9.812
 7348W        W11399   8.991  10.176  11.926
 7349W        W11400   6.946   0.826   9.730
 7350W        W11401   7.960   4.499  10.276
 7351W        W11402   9.638   2.918   8.971
 7352W        W11403  10.395   0.926   2.276
 7353W        W11404  11.311   6.126   9.438
 7354W        W11405   5.830   2.281   1.187
 7355W        W11406   6.553   0.222   2.356
 7356W        W11407   8.261   7.892   9.569
 7357W        W11408   8.039   7.144   0.002
 7358W        W11409   7.951  11.219   1.443
 7359W        W11410   2.768   4.970   0.732
 7360W        W11411   4.950   7.069   9.452
 7361W        W11412   4.688   4.775   2.014
 7362W        W11413   1.769   2.311   0.979
 7363W        W11414   0.324   5.762  10.338
 7364W        W11415   2.879   3.691   0.486
 7365W        W11416   4.982   1.781   8.792
 7366W        W11417  10.695   6.789   9.914
 7367W        W11418   2.255   0.260   0.512
 7368W        W11419   4.159   4.868  10.394
 7369W        W11420   2.003   5.407   0.788
 7370W        W11421   6.058   6.485  10.683
 7371W        W11422   8.759   9.515   0.653
 7372W        W11423   9.960   5.646   2.490
 7373W        W11424  10.345   7.448   0.672
 7374W        W11425   1.485  11.391  10.423
 7375W        W11426  10.707   9.639   0.669
 7376W        W11427   8.623   2.561   1.050
 7377W        W11428   4.288   9.956  11.170
 7378W        W11429   8.760   5.920  10.294
 7379W        W11430   8.424   3.832   0.893
 7380W        W11431   2.097   8.071   0.720
 7381W        W11432  11.201   3.597   3.378
 7382W        W11433   7.555  10.533   2.717
 7383W        W11434   8.999   8.604   2.253
 7384W        W11435   0.967   6.924   2.261
 7385W        W11436   7.622  11.328  11.639
 7386W        W11437  10.382   8.908   1.382
 7387W        W11438   3.758   7.114   1.968
 7388W        W11439   0.570   3.677   1.348
 7389W        W11440   3.539   0.738   9.936
 7390W        W11441   0.600   9.147   2.211
 7391W        W11442  11.421   8.626  10.889
 7392W        W11443   7.228   2.782   2.804
 7393W        W11444   8.718   8.395   1.483
 7394W        W11445   3.687   3.638   9.375
 7395W        W11446   4.722   5.711  11.009
 7396W        W11447   5.330   7.274   9.142
 7397W        W11448   7.423   0.539   2.490
 7398W        W11449   3.221   3.144   9.919
 7399W        W11450   9.671   0.361   3.146
 7400W        W11451   2.328   9.843   3.391
 7401W        W11452   7.817  10.597  10.591
 7402W        W11453   7.179   1.292   3.209
 7403W        W11454   1.382   0.249   1.420
 7404W        W11455   4.500   8.482   1.127
 7405W        W11456   5.737   2.810  11.546
 7406W        W11457   1.144   1.022   0.322
 7407W        W11458   6.556   8.122   1.865
 7408W        W11459   2.825   2.699   0.356
 7409W        W11460   9.481   1.950   9.529
 7410W        W11461   3.578   7.013  11.524
 7411W        W11462   0.763   6.069   9.477
 7412W        W11463  10.261   2.920  11.007
 7413W        W11464   3.576   3.187   9.100
 7414W        W11465   2.192   0.972   3.593
 7415W        W11466   5.484   7.575  11.911
 7416W        W11467  11.328   2.731   0.787
 7417W        W11468   6.534   6.651  10.232
 7418W        W11469   7.428  10.245  10.512
 7419W        W11470   6.090   5.088   1.544
 7420W        W11471   3.597   1.810  11.840
 7421W        W11472   1.798   3.575   0.411
 7422W        W11473   5.071   4.234   1.345
 7423W        W11474   3.248   4.707   2.001
 7424W        W11475   6.095   7.745   3.653
 7425W        W11476   7.561   4.490   9.517
 7426W        W11477   5.398   9.031   0.198
 7427W        W11478  10.800   5.573   1.694
 7428W        W11479   8.564   8.893   2.212
 7429W        W11480   9.338   3.642   1.311
 7430W        W11481   8.220   8.125  11.772
 7431W        W11482   2.417   7.412   1.489
 7432W        W11483   9.085   2.679   9.397
 7433W        W11484   2.342  10.001   9.009
 7434W        W11485   6.764   4.231   0.489
 7435W        W11486   8.882   1.012   0.436
 7436W        W11487   9.888  11.243   0.227
 7437W        W11488   5.927  10.659  11.422
 7438W        W11489   4.270   1.349   0.432
 7439W        W11490  10.009  10.313   9.465
 7440W        W11491   2.842   4.538   0.467
 7441W        W11492   8.626   2.569   1.551
 7442W        W11493   8.686   7.570   1.882
 7443W        W11494   3.648   8.016   3.192
 7444W        W11495   9.935   3.297   2.402
 7445W        W11496   0.378   5.017   8.881
 7446W        W11497   0.368   8.587   2.507
 7447W        W11498   9.378  10.370   1.853
 7448W        W11499  11.114   4.574   0.292
 7449W        W11500   2.143   3.229   0.181
 7450W        W11501   5.238   1.226  11.451
 7451W        W11502   9.831   2.291   3.426
 7452W        W11503   4.661  10.398  11.831
 7453W        W11504   5.642   4.799  10.555
 7454W        W11505   7.157   3.848   3.045
 7455W        W11506   4.300   4.715   9.939
 7456W        W11507   0.481   2.687   9.383
 7457W        W11508   9.606   5.705   2.870
 7458W        W11509  10.051   7.460   3.343
 7459W        W11510   2.057   8.765   8.475
 7460W        W11511   1.771   6.462   1.426
 7461W        W11512   4.041   5.939   1.178
 7462W        W11513   5.185   7.856  11.566
 7463W        W11514   2.190  11.303  10.003
 7464W        W11515   1.979   2.681  11.291
 7465W        W11516   8.581   1.595   1.851
 7466W        W11517   0.152   9.434   9.447
 7467W        W11518  10.017   6.140   0.194
 7468W        W11519   3.631   8.422  10.770
 7469W        W11520   6.342  10.736   0.327
 7470W        W11521  10.356   9.965   1.754
 7471W        W11522   7.667   0.012   1.731
 7472W        W11523   5.111   8.628  10.392
 7473W        W11524   8.157   3.884   0.366
 7474W        W11525   8.920   3.245  11.450
 7475W        W11526   7.644   5.610  11.081
 7476W        W11527   6.712   3.665  11.386
 7477W        W11528   8.145   0.409   9.408
 7478W        W11529   4.638   2.483   3.221
 7479W        W11530  10.055   6.168  10.815
 7480W        W11531   2.372   3.388   8.940
 7481W        W11532   8.459   4.995  10.006
 7482W        W11533  11.490   4.755   8.606
 7483W        W11534   8.565   8.319  10.908
 7484W        W11535   0.779   4.873   3.470
 7485W        W11536  10.191   5.823  11.482
 7486W        W11537   0.461   4.682   2.855
 7487W        W11538   0.393   8.520   3.022
 7488W        W11539   8.422  11.230   1.664
 7489W        W11540   9.005   5.048  11.188
 7490W        W11541   7.856   4.520  11.759
 7491W        W11542   7.511   6.981   3.392
 7492W        W11543   8.953   9.113   2.466
 7493W        W11544   5.107   4.037   9.040
 7494W        W11545   8.947   5.677   2.305
 7495W        W11546  11.230  10.136   1.930
 7496W        W11547   5.016  10.059  10.536
 7497W        W11548   4.646   7.004   1.596
 7498W        W11549   1.698   3.098  11.234
 7499W        W11550   0.873  10.429  10.057
 7500W        W11551   6.008   4.914   2.081
 7501W        W11552   2.260   1.153   0.023
 7502W        W11553   2.697   5.435  10.325
 7503W        W11554  10.973  10.085   3.156
 7504W        W11555   7.196   8.372   3.368
 7505W        W11556  11.479   0.280   0.508
 7506W        W11557   6.393   0.211   9.274
 7507W        W11558   3.760   2.657   1.602
 7508W        W11559   6.950   7.979   3.107
 7509W        W11560   9.869   1.045   8.634
 7510W        W11561   5.247   3.584  11.500
 7511W        W11562   6.429   0.967   1.345
 7512W        W11563   2.006   5.067   2.114
 7513W        W11564   4.449   6.523   1.617
 7514W        W11565   0.871   2.187   3.242
 7515W        W11566   2.807   6.452   9.254
 7516W        W11567   5.023   1.236  11.946
 7517W        W11568   6.946   5.656  11.740
 7518W        W11569   9.988   1.359   9.530
 7519W        W11570   0.839   2.367   2.163
 7520W        W11571   6.469   8.122   3.305
 7521W        W11572   5.035   3.462   3.987
 7522W        W11573   8.316   2.978  10.863
 7523W        W11574   9.429   7.643   0.480
 7524W        W11575   7.466  10.774   3.170
 7525W        W11576   6.467   6.125   1.527
 7526W        W11577   6.097   0.686  11.777
 7527W        W11578   8.130   3.291   0.451
 7528W        W11579   8.537   6.574   2.682
 7529W        W11580  11.353   2.305   1.854
 7530W        W11581   9.092   5.217   0.684
 7531W        W11582   5.519  10.957  11.493
 7532W        W11583   0.238   8.588   0.033
 7533W        W11584   9.522   8.660   0.301
 7534W        W11585   6.451   5.933   9.106
 7535W        W11586   5.285   7.461   8.666
 7536W        W11587   4.236   6.221  10.260
 7537W        W11588   5.130   3.111   3.608
 7538W        W11589   8.285   3.703   1.380
 7539W        W11590   8.416   9.731   2.115
 7540W        W11591   6.198  10.853  11.826
 7541W        W11592   4.295   9.115   0.341
 7542W        W11593   1.282  11.425   1.805
 7543W        W11594   1.766   3.186   8.644
 7544W        W11595   3.748   9.285   1.913
 7545W        W11596   3.142   4.078  10.281
 7546W        W11597   2.638   8.991   9.058
 7547W        W11598   4.102  11.368   9.411
 7548W        W11599   6.381  10.086  11.417
 7549W        W11600   4.745   0.064   2.416
 7550W        W11601   1.286   7.051   2.895
 7551W        W11602   7.657   9.551   1.984
 7552W        W11603   7.383  10.767  10.392
 7553W        W11604  10.327   0.407   2.377
 7554W        W11605   0.025   4.722   2.595
 7555W        W11606   5.418   6.028  11.661
 7556W        W11607   7.371   1.658   9.589
 7557W        W11608   8.175   3.304   1.089
 7558W        W11609   6.153   1.323   1.655
 7559W        W11610   5.256   0.932   0.736
 7560W        W11611   2.556   7.028   9.457
 7561W        W11612   2.998   5.831   3.125
 7562W        W11613   2.665  10.685  10.433
 7563W        W11614   6.255   2.861   9.467
 7564W        W11615   0.472   6.181   0.276
 7565W        W11616   5.011   8.368   9.978
 7566W        W11617   5.783   9.552   0.239
 7567W        W11618   7.915   7.654  10.862
 7568W        W11619   2.593   4.228   8.904
 7569W        W11620   8.569  11.284   0.678
 7570W        W11621   3.095   5.876   0.405
 7571W        W11622   2.502  10.356   2.070
 7572W        W11623   9.979   4.180  11.530
 7573W        W11624   6.729   8.546   3.181
 7574W        W11625  11.267   1.733  10.293
 7575W        W11626   0.819  11.006   2.383
 7576W        W11627   6.983  10.940  10.125
 7577W        W11628   6.639   4.272  10.085
 7578W        W11629  10.241   4.601  10.405
 7579W        W11630   8.147   4.792   2.669
 7580W        W11631   1.307   7.543   2.681
 7581W        W11632   9.840   4.288  10.581
 7582W        W11633   2.830   3.715  10.970
 7583W        W11634   0.486   5.044   1.149
 7584W        W11635   9.035   6.855  10.447
 7585W        W11636   8.995   3.177   9.568
 7586W        W11637   9.308   4.100  11.992
 7587W        W11638  11.261   4.232  11.695
 7588W        W11639   5.026   3.808   9.606
 7589W        W11640   4.051   2.057   0.862
 7590W        W11641   8.970   7.866   0.342
 7591W        W11642   3.447   5.238  10.881
 7592W        W11643   7.424   3.252   0.404
 7593W        W11644   2.225   7.654   1.912
 7594W        W11645   3.906   1.714   0.441
 7595W        W11646   4.223   6.709  10.847
 7596W        W11647   3.577   6.605   1.735
 7597W        W11648  10.611   9.565   2.333
 7598W        W11649   9.610   6.438  11.665
 7599W        W11650   6.114   4.431   3.160
 7600W        W11651   9.440   7.021   2.796
 7601W        W11652   0.365  10.207   0.443
 7602W        W11653   2.295   7.947   0.272
 7603W        W11654   9.133   6.862   8.598
 7604W        W11655  10.773   1.983  10.972
 7605W        W11656   2.793   3.291  11.293
 7606W        W11657   6.031  10.408   3.185
 7607W        W11658   2.259   8.069   2.931
 7608W        W11659   1.241   1.785   2.804
 7609W        W11660   2.885   5.992   9.030
 7610W        W11661  10.984   3.559   0.470
 7611W        W11662   9.536   4.780   2.778
 7612W        W11663  10.891   4.132   8.479
 7613W        W11664   2.705  11.352  10.803
 7614W        W11665   4.717   8.444   9.564
 7615W        W11666   1.675   6.745  11.485
 7616W        W11667   9.780   5.678   3.373
 7617W        W11668   6.649   2.893   0.174
 7618W        W11669   7.394   4.552  11.995
 7619W        W11670  10.102   3.571  10.397
 7620W        W11671   6.101  10.877   1.430
 7621W        W11672   8.827   5.085   9.304
 7622W        W11673   9.929   0.728   2.243
 7623W        W11674  11.240   9.908  11.865
 7624W        W11675   7.705   3.221   2.476
 7625W        W11676   8.883   8.013   1.768
 7626W        W11677   8.222   8.614   9.072
 7627W        W11678   6.904  10.214   0.972
 7628W        W11679  10.296   4.132  11.920
 7629W        W11680   3.409   2.866  11.069
 7630W        W11681  10.988   9.973   9.020
 7631W        W11682   3.681  11.268   9.082
 7632W        W11683   8.515   5.070  11.381
 7633W        W11684   3.364   7.523   1.557
 7634W        W11685   5.052   8.706   2.477
 7635W        W11686   9.283   9.626   9.444
 7636W        W11687   2.490   9.109  10.893
 7637W        W11688   4.282   4.830  11.253
 7638W        W11689  11.336   7.194   3.609
 7639W        W11690   2.848   2.162   9.004
 7640W        W11691   0.286   0.336  11.265
 7641W        W11692  11.260   3.385   9.575
 7642W        W11693   5.585   2.362   8.731
 7643W        W11694  10.327   7.554  10.741
 7644W        W11695   1.310  10.918   1.805
 7645W        W11696   7.625   3.605   9.425
 7646W        W11697  11.051  10.549   3.436
 7647W        W11698   5.910   0.947   1.367
 7648W        W11699  11.315   9.861  10.409
 7649W        W11700   5.171   4.066   2.748
 7650W        W11701   6.582   0.679   0.912
 7651W        W11702   9.314   0.258  10.841
 7652W        W11703   6.096   1.855   1.334
 7653W        W11704   3.341   4.610   2.967
 7654W        W11705   7.604   7.592  11.343
 7655W        W11706  10.700  10.864   9.412
 7656W        W11707   4.371   9.077   9.771
 7657W        W11708   5.398   3.229  10.275
 7658W        W11709   4.385   1.797   1.234
 7659W        W11710  11.318   1.902   0.691
 7660W        W11711   1.232   8.886   3.301
 7661W        W11712   8.823   4.630   9.999
 7662W        W11713   0.501   7.911   0.242
 7663W        W11714   7.643   5.849   1.335
 7664W        W11715   5.154   7.599   2.741
 7665W        W11716   3.823   7.927  11.998
 7666W        W11717   3.153   4.978  10.519
 7667W        W11718   4.688   3.554   1.860
 7668W        W11719   0.209   3.761   3.556
 7669W        W11720   5.388   4.136   1.730
 7670W        W11721   5.694   7.657   0.431
 7671W        W11722   7.051  10.901   9.545
 7672W        W11723   1.628   8.497  11.910
 7673W        W11724  10.427   8.647   8.460
 7674W        W11725   8.352   5.059   9.515
 7675W        W11726   7.166   6.090  11.859
 7676W        W11727   6.177   4.429   2.206
 7677W        W11728   6.969   3.253  11.564
 7678W        W11729   0.462   0.278   9.610
 7679W        W11730   8.087   4.948   8.245
 7680W        W11731   3.191   7.631  11.574
 7681W        W11732   4.986   0.753  10.266
 7682W        W11733   1.806   5.653  10.335
 7683W        W11734   8.911   5.064   8.795
 7684W        W11735  11.395  11.011   2.803
 7685W        W11736   4.398   8.108   2.647
 7686W        W11737   1.391   3.808   0.695
 7687W        W11738   7.878  10.763  11.071
 7688W        W11739   5.522   5.160   3.081
 7689W        W11740   1.374   7.131   8.929
 7690W        W11741   9.867   6.053   9.393
 7691W        W11742   7.344   4.357   8.728
 7692W        W11743   5.576   3.121   8.412
 7693W        W11744   0.892   2.351   3.767
 7694W        W11745   5.014   1.526   3.474
 7695W        W11746   6.548   4.070   2.263
 7696W        W11747   8.346   2.930   0.793
 7697W        W11748   3.138   9.424   3.158
 7698W        W11749   8.634   4.868   3.015
 7699W        W11750   4.112   3.714   2.685
 7700W        W11751  11.078  10.530  10.312
 7701W        W11752   8.188   9.809  10.925
 7702W        W11753   2.433  10.421   0.376
 7703W        W11754   7.938   8.943   0.109
 7704W        W11755   4.074   3.714   9.708
 7705W        W11756   1.166   7.427  10.343
 7706W        W11757   2.671   0.502   1.221
 7707W        W11758   9.955   4.994  11.259
 7708W        W11759   6.113  11.331   9.993
 7709W        W11760   7.463   2.219   9.615
 7710W        W11761   7.182   0.664   1.727
 7711W        W11762  11.446  11.060  11.100
 7712W        W11763   5.667   0.041   2.799
 7713W        W11764   5.185   5.044   1.535
 7714W        W11765   6.067   2.644   0.001
 7715W        W11766   0.539   0.000  10.524
 7716W        W11767   3.125   0.767  10.537
 7717W        W11768   7.083  10.685   1.187
 7718W        W11769   4.310   4.050  11.648
 7719W        W11770  11.465   9.386   9.940
 7720W        W11771   0.227   8.396   0.590
 7721W        W11772   2.393   2.933   0.542
 7722W        W11773   4.784   2.409  10.539
 7723W        W11774   0.362   4.378   2.246
 7724W        W11775   7.045   8.016   2.566
 7725W        W11776   5.739  10.059   2.938
 7726W        W11777   6.512   1.613   9.417
 7727W        W11778   1.440  10.794   9.845
 7728W        W11779   1.239   2.122   2.415
 7729W        W11780   0.988   6.251   9.928
 7730W        W11781  10.887   3.836  11.437
 7731W        W11782   4.760   8.897   3.349
 7732W        W11783   6.416   2.281   3.612
 7733W        W11784  10.652   1.263   0.965
 7734W        W11785   6.428   3.128   0.831
 7735W        W11786   5.575   7.315   9.974
 7736W        W11787   4.185   8.660   0.040
 7737W        W11788   2.203  10.490  10.523
 7738W        W11789  10.488   3.145   1.189
 7739W        W11790   1.085   2.721  11.871
 7740W        W11791  10.284   5.664   3.463
 7741W        W11792   5.170   5.629  10.059
 7742W        W11793   9.859   3.137  10.090
 7743W        W11794   5.253   2.092   9.073
 7744W        W11795   0.121   0.943   9.122
 7745W        W11796  10.013   6.461   9.043
 7746W        W11797  11.372   6.643   9.359
 7747W        W11798   2.548   4.559   3.334
 7748W        W11799   9.893   0.674   1.260
 7749W        W11800   6.932   7.909   8.934
 7750W        W11801   2.583   3.605   3.562
 7751W        W11802   2.026   9.303   0.795
 7752W        W11803   0.179   4.321  10.257
 7753W        W11804   0.555  11.310   3.195
 7754W        W11805   0.737   2.659   3.350
 7755W        W11806   5.272   0.865   1.941
 7756W        W11807   7.957  10.506   3.095
 7757W        W11808   5.171   7.530   1.810
 7758W        W11809  10.405  10.876  10.073
 7759W        W11810   1.814   0.192   0.212
 7760W        W11811   5.019   7.379  11.819
 7761W        W11812  10.857   9.282   8.389
 7762W        W11813   1.287   4.785   1.728
 7763W        W11814   8.340   4.499   9.941
 7764W        W11815   1.837   5.364  11.943
 7765W        W11816  11.011   5.519   2.695
 7766W        W11817   8.566  11.326  10.707
 7767W        W11818   2.285   0.315   2.426
 7768W        W11819   9.868   8.466  10.821
 7769W        W11820   8.341   7.639   0.902
 7770W        W11821   5.527   9.203   1.844
 7771W        W11822  10.241   6.060   1.697
 7772W        W11823   9.776   8.875  10.332
 7773W        W11824   0.424   3.599  10.608
 7774W        W11825   0.348   6.566   0.587
 7775W        W11826   5.455   0.370   2.450
 7776W        W11827  10.843   7.282   9.894
 7777W        W11828   4.502   2.853   2.406
 7778W        W11829   2.259   6.559   0.641
 7779W        W11830   5.827   8.049  10.240
 7780W        W11831   1.979   3.198   1.456
 7781W        W11832   6.912   2.167   3.500
 7782W        W11833   3.110   1.791   1.722
 7783W        W11834   6.487   3.493   3.699
 7784W        W11835   1.704   8.415  10.969
 7785W        W11836   4.054   5.691  11.336
 7786W        W11837   2.062   1.309   2.401
 7787W        W11838   8.256   1.439   9.522
 7788W        W11839  11.094   9.007  10.051
 7789W        W11840  10.632  10.418  10.114
 7790W        W11841  10.954   3.784   9.302
 7791W        W11842  11.397   3.572   9.117
 7792W        W11843   2.806   7.331   0.771
 7793W        W11844   7.446   8.074   2.995
 7794W        W11845   3.246  11.089   3.101
 7795W        W11846   0.410   7.050   0.792
 7796W        W11847   0.883   0.303   0.786
 7797W        W11848   9.652  10.391   9.843
 7798W        W11849   8.643   3.529   2.654
 7799W        W11850   0.487   8.352  10.478
 7800W        W11851   5.603   9.149  11.219
 7801W        W11852   3.119   1.642  11.819
 7802W        W11853   9.687  10.086   0.418
 7803W        W11854   3.508   6.685  10.311
 7804W        W11855   6.916   4.075   8.926
 7805W        W11856   1.322   5.481   0.055
 7806W        W11857   5.853   0.278  11.584
 7807W        W11858   9.569  10.772   1.549
 7808W        W11859   5.240   2.762   9.494
 7809W        W11860   8.467   8.536  10.070
 7810W        W11861   7.740   4.907   3.639
 7811W        W11862   1.359   2.819   1.433
 7812W        W11863  10.629  11.053  11.421
 7813W        W11864  10.302  11.469   8.845
 7814W        W11865   8.011   7.407   9.547
 7815W        W11866  11.310   1.822   0.173
 7816W        W11867   8.027   5.499   1.258
 7817W        W11868   9.572   7.444   3.080
 7818W        W11869   5.486  11.162   0.798
 7819W        W11870   7.432   4.781  11.542
 7820W        W11871   7.644   2.863  11.322
 7821W        W11872   3.568   8.900   3.702
 7822W        W11873   4.738   2.887   9.594
 7823W        W11874   8.957   3.793   0.205
 7824W        W11875   0.840   4.780  11.955
 7825W        W11876   6.218   1.320   3.198
 7826W        W11877  10.536   2.318   0.784
 7827W        W11878  10.169  10.468   3.268
 7828W        W11879   0.699  11.303  10.049
 7829W        W11880   4.793   4.174   2.443
 7830W        W11881  10.314   9.330   0.471
 7831W        W11882   8.076   6.345   3.717
 7832W        W11883   6.763   9.120   2.901
 7833W        W11884   1.487  11.254   1.345
 7834W        W11885   5.328   5.175  10.693
 7835W        W11886  11.494   1.222   2.354
 7836W        W11887   8.504   7.687  10.281
 7837W        W11888   3.374   3.782  11.051
 7838W        W11889   0.650   5.420   8.640
 7839W        W11890   6.811   9.872   2.741
 7840W        W11891   0.638   8.082  10.893
 7841W        W11892   5.936   6.072   1.379
 7842W        W11893   8.584   4.088   8.741
 7843W        W11894   9.631   9.866   2.230
 7844W        W11895   8.660   5.477  10.067
 7845W        W11896   9.120   2.777  10.842
 7846W        W11897   8.053   5.362  10.787
 7847W        W11898  10.406   2.471   9.161
 7848W        W11899   2.688   1.976   9.768
 7849W        W11900   1.112   1.408  11.556
 7850W        W11901   3.608  10.745   9.004
 7851W        W11902   6.363   0.312   1.855
 7852W        W11903   7.084  10.407  10.871
 7853W        W11904   0.749   2.309  11.812
 7854W        W11905   7.948   6.913   0.443
 7855W        W11906   9.951   0.501   0.727
 7856W        W11907   7.051   7.009   3.148
 7857W        W11908   0.359   6.492  10.966
 7858W        W11909   4.081   6.703   8.986
 7859W        W11910   3.355   0.389   8.899
 7860W        W11911   8.177   5.607   3.203
 7861W        W11912   0.016   7.905   0.444
 7862W        W11913   2.307   3.314   9.969
 7863W        W11914   7.471   0.758   9.744
 7864W        W11915   9.168   1.204   1.667
 7865W        W11916  11.342   2.132  11.151
 7866W        W11917   5.652   6.526  11.031
 7867W        W11918   4.945   6.793  11.769
 7868W        W11919   5.637   9.040   1.387
 7869W        W11920   7.000   8.339  11.267
 7870W        W11921   0.581   4.068  10.406
 7871W        W11922   2.608   4.689   9.936
 7872W        W11923   8.591   1.168   3.595
 7873W        W11924   3.720   8.865  10.511
 7874W        W11925   8.998   0.289  10.011
 7875W        W11926   5.878   2.184   0.269
 7876W        W11927   2.485   6.559  10.473
 7877W        W11928   5.864   0.085  10.442
 7878W        W11929   0.319   9.884   9.655
 7879W        W11930   0.856   2.298   8.962
 7880W        W11931  11.466   3.623  10.908
 7881W        W11932   5.640   2.455   2.148
 7882W        W11933   5.959   3.162  10.769
 7883W        W11934   9.394  10.146  11.565
 7884W        W11935   9.901   8.253  11.303
 7885W        W11936   0.406   0.791   9.519
 7886W        W11937   4.686   9.049   2.302
 7887W        W11938   2.315   3.777  10.769
 7888W        W11939   7.755   1.036  10.503
 7889W        W11940  10.913  10.491  10.884
 7890W        W11941   0.188   9.959   1.771
 7891W        W11942   7.950   5.998   0.511
 7892W        W11943   3.080  10.499   9.069
 7893W        W11944  10.132   3.281   0.862
 7894W        W11945   3.327  10.986   9.393
 7895W        W11946   4.501   1.892   9.617
 7896W        W11947  10.969   5.895  10.774
 7897W        W11948   5.373   8.462   3.658
 7898W        W11949   0.516   2.717  11.060
 7899W        W11950   5.587   2.865   8.875
 7900W        W11951  10.240   0.841  11.615
 7901W        W11952  10.546   1.482   8.923
 7902W        W11953   8.195   5.083   1.878
 7903W        W11954   6.019   8.098  11.462
 7904W        W11955   7.592   9.405  10.001
 7905W        W11956   6.669   3.142   1.900
 7906W        W11957  10.691   3.583   3.500
 7907W        W11958   9.623   1.972  10.032
 7908W        W11959   8.899   0.016  11.023
 7909W        W11960   9.596   3.100   2.974
 7910W        W11961   4.148   9.569   8.531
 7911W        W11962   4.349   1.809   0.206
 7912W        W11963  10.410  11.081  10.551
 7913W        W11964   7.670   7.664   2.779
 7914W        W11965   6.355   6.134  11.448
 7915W        W11966   7.633   7.050   9.695
 7916W        W11967   3.553   6.606   1.222
 7917W        W11968  10.969   7.573   9.514
 7918W        W11969   8.623   2.783  11.530
 7919W        W11970   8.869  11.288   9.088
 7920W        W11971  10.283   4.600  11.364
 7921W        W11972   5.372   3.221   3.163
 7922W        W11973   8.913  11.383   1.720
 7923W        W11974   4.042   6.828   1.662
 7924W        W11975   9.801   6.180  11.261
 7925W        W11976   4.227   1.020   3.184
 7926W        W11977   4.061   9.095  11.803
 7927W        W11978   3.772   9.743   0.710
 7928W        W11979  10.957   2.399   9.703
 7929W        W11980   9.261   8.506   8.977
 7930W        W11981  10.046   7.159  11.525
 7931W        W11982   5.276   9.857  10.953
 7932W        W11983   2.642   4.920   0.215
 7933W        W11984   9.514  10.302  10.732
 7934W        W11985   6.587   7.199   4.033
 7935W        W11986   5.920   8.368  10.880
 7936W        W11987   1.351   4.243   3.125
 7937W        W11988   1.653   0.703   2.631
 7938W        W11989   8.662   1.218  10.294
 7939W        W11990   4.288   6.037   2.174
 7940W        W11991   3.301   9.582  10.590
 7941W        W11992  11.006   4.288   1.980
 7942W        W11993   8.996   0.819   3.508
 7943W        W11994   9.711   5.130   9.123
 7944W        W11995   6.662   1.784   1.942
 7945W        W11996   9.141   1.243   2.683
 7946W        W11997   2.777   8.069   0.382
 7947W        W11998   1.281   7.149   0.907
 7948W        W11999   4.941  10.742   8.535
 7949W        W12000  11.290   5.708   0.224
 7950W        W12001   1.270   2.240  11.716
 7951W        W12002   5.287   8.060   8.177
 7952W        W12003   5.797   9.069   2.835
 7953W        W12004   9.337   7.241  11.216
 7954W        W12005   3.507   4.597   9.516
 7955W        W12006  11.005   5.320   9.415
 7956W        W12007  11.352   6.853   8.884
 7957W        W12008   9.158  10.871  11.279
 7958W        W12009  10.579  10.932   0.864
 7959W        W12010  10.573   6.298   9.931
 7960W        W12011  10.426   8.850   0.574
 7961W        W12012   6.604   7.687   3.565
 7962W        W12013   5.035  10.967   1.005
 7963W        W12014   2.268   4.199   0.981
 7964W        W12015   8.124   3.283   2.122
 7965W        W12016  10.131   2.374  11.828
 7966W        W12017   9.108   1.243  10.562
 7967W        W12018   9.016   0.295   9.094
 7968W        W12019   4.682   7.495   2.496
 7969W        W12020   3.459  10.757   2.756
 7970W        W12021   7.567   1.896   1.475
 7971W        W12022   5.759  11.363  11.293
 7972W        W12023   5.643   2.296  10.248
 7973W        W12024   9.895   7.006  10.508
 7974W        W12025   5.921   3.282   9.407
 7975W        W12026   8.873   7.565   2.386
 7976W        W12027   9.397   7.170   1.313
 7977W        W12028   2.241   0.462   2.914
 7978W        W12029   2.842   1.539   1.332
 7979W        W12030   2.348   4.728   9.432
 7980W        W12031   9.184   8.286   9.415
 7981W        W12032   4.156   4.306   3.139
 7982W        W12033   9.542  11.308  10.758
 7983W        W12034   7.962   4.882   9.884
 7984W        W12035   1.277   6.481  10.763
 7985W        W12036   7.906   4.776   0.189
 7986W        W12037   2.040   7.094   1.350
 7987W        W12038   1.027   2.469  10.319
 7988W        W12039   0.812   0.912   2.704
 7989W        W12040   6.119   1.987   0.755
 7990W        W12041   2.723   6.129   2.301
 7991W        W12042  10.473   5.684   2.395
 7992W        W12043   9.931  10.430   0.727
 7993W        W12044   7.476   8.564  11.335
 7994W        W12045   4.432   2.509   1.975
 7995W        W12046  11.214   0.010   1.756
 7996W        W12047   9.580   0.995   9.084
 7997W        W12048   8.905   0.435   0.880
 7998W        W12049   1.369   6.128   1.441
 7999W        W12050   2.251   9.011   9.442
 8000W        W12051  10.510   8.098   0.971
 8001W        W12052   9.381  11.364   0.230
 8002W        W12053   6.591  10.427   1.969
 8003W        W12054   0.359   4.000  11.405
 8004W        W12055  10.290   5.469   7.893
 8005W        W12056  11.292   0.633   9.358
 8006W        W12057   1.804   7.198  11.281
 8007W        W12058   8.706   5.133   1.812
 8008W        W12059  10.050   5.527  10.158
 8009W        W12060   2.223   5.660   1.694
 8010W        W12061   4.178   4.546   4.055
 8011W        W12062   0.707   9.857   1.769
 8012W        W12063   9.328   6.727   1.558
 8013W        W12064   8.150   4.337  10.964
 8014W        W12065   6.013   5.372   3.076
 8015W        W12066   9.855   8.968   1.359
 8016W        W12067  10.159   0.805  11.081
 8017W        W12068   2.401   6.137   9.966
 8018W        W12069   6.072  10.315  11.761
 8019W        W12070   7.660   7.106  10.205
 8020W        W12071   9.425   0.853   3.084
 8021W        W12072   6.432   2.419   9.757
 8022W        W12073   7.643  10.377   2.187
 8023W        W12074   9.057   8.781   9.371
 8024W        W12075   8.625   3.356   0.839
 8025W        W12076   3.589   6.049  11.159
 8026W        W12077   7.036   2.742   3.284
 8027W        W12078   7.920   9.416   1.310
 8028W        W12079   0.297  10.012   2.705
 8029W        W12080   8.266  10.340   3.517
 8030W        W12081   1.811   1.162  10.841
 8031W        W12082   1.788   0.853  10.419
 8032W        W12083   5.133   4.449   8.728
 8033W        W12084   8.858  10.338   2.703
 8034W        W12085   0.877   6.245   3.420
 8035W        W12086   7.484   8.830  11.871
 8036W        W12087   5.965   2.039   3.735
 8037W        W12088   4.245  10.045   9.748
 8038W        W12089  11.337   0.780   0.476
 8039W        W12090   1.814   5.995   1.687
 8040W        W12091   6.388   2.869  10.780
 8041W        W12092   1.742   0.954   1.044
 8042W        W12093   0.344   7.200  10.293
 8043W        W12094   0.811  10.049   2.594
 8044W        W12095   8.417   5.526   0.279
 8045W        W12096   0.797   5.076   0.740
 8046W        W12097   6.405  10.330   2.832
 8047W        W12098   1.738   5.082   3.596
 8048W        W12099  11.150   2.627   3.570
 8049W        W12100   7.880   4.106  10.592
 8050W        W12101   9.357   5.312   8.618
 8051W        W12102   1.170   4.028   8.953
 8052W        W12103   9.447   5.614   2.361
 8053W        W12104   6.067  11.345  11.711
 8054W        W12105   0.864   6.856   0.937
 8055W        W12106   6.053   1.185  11.750
 8056W        W12107   8.196   1.428  10.437
 8057W        W12108   4.767   1.490   0.459
 8058W        W12109   3.702   2.150  10.587
 8059W        W12110   6.985   3.174   1.468
 8060W        W12111  11.040   2.312   3.136
 8061W        W12112   1.330   0.311  11.710
 8062W        W12113   0.895   4.259   0.130
 8063W        W12114   7.507   3.105   9.972
 8064W        W12115   9.863   7.185   9.457
 8065W        W12116  10.552   3.320  10.450
 8066W        W12117   0.825   7.500   0.298
 8067W        W12118   6.879   0.262   1.801
 8068W        W12119  11.072   8.100   2.205
 8069W        W12120   4.829   4.644   9.917
 8070W        W12121   4.315   1.283  11.497
 8071W        W12122  10.457   1.864  10.076
 8072W        W12123   1.181   7.065   3.451
 8073W        W12124   9.852   4.708  11.684
 8074W        W12125   3.130  10.507  11.636
 8075W        W12126   0.050   3.822  11.853
 8076W        W12127   3.820   6.646   3.814
 8077W        W12128   8.604   4.623   0.491
 8078W        W12129   1.897   1.782  11.482
 8079W        W12130   0.008  11.254   0.502
 8080W        W12131   1.241   3.247  10.865
 8081W        W12132   7.926   0.741  11.940
 8082W        W12133   9.595   7.680   9.464
 8083W        W12134   9.260   4.339   2.072
 8084W        W12135   6.097   1.292   9.501
 8085W        W12136   8.748   7.120   0.752
 8086W        W12137   4.934   1.224  11.028
 8087W        W12138   8.228   4.322   9.049
 8088W        W12139   8.886   0.336  10.545
 8089W        W12140   1.934  10.379  10.022
 8090W        W12141   5.488  10.541  11.198
 8091W        W12142   9.020   7.355   0.385
 8092W        W12143   8.276   9.547   0.516
 8093W        W12144   8.953   1.672  10.297
 8094W        W12145   0.387   5.107  11.237
 8095W        W12146   6.649  10.760   2.718
 8096W        W12147   5.994   5.492   0.233
 8097W        W12148   2.339   1.452   1.455
 8098W        W12149   0.774   2.779   0.310
 8099W        W12150   5.940   3.675   9.786
 8100W        W12151   3.577   5.063   2.772
 8101W        W12152   9.511   2.449   9.205
 8102W        W12153  11.371   7.115   2.639
 8103W        W12154   7.534   0.087  10.767
 8104W        W12155   0.270   1.742   2.768
 8105W        W12156   8.888   1.646   3.428
 8106W        W12157   7.039   1.168   1.663
 8107W        W12158   8.318   6.175   2.428
 8108W        W12159   6.953   8.569   0.065
 8109W        W12160  10.490  10.573  10.573
 8110W        W12161   9.136  10.352   9.884
 8111W        W12162   1.525   5.126   1.198
 8112W        W12163   6.850   5.924  10.889
 8113W        W12164   6.914   4.192  10.495
 8114W        W12165   1.855   2.660  10.401
 8115W        W12166   4.649   2.699  10.134
 8116W        W12167   6.488  10.001  10.493
 8117W        W12168   2.458   0.331   9.949
 8118W        W12169   3.768  10.341   3.407
 8119W        W12170   3.038   9.290   0.768
 8120W        W12171  11.111   0.745  10.444
 8121W        W12172   0.448   5.307   1.963
 8122W        W12173   3.587   5.754  10.305
 8123W        W12174   1.718   5.598   3.541
 8124W        W12175   5.226   2.125  10.564
 8125W        W12176   0.238   8.980  11.133
 8126W        W12177   8.121   7.369  10.429
 8127W        W12178   5.833   0.017   1.807
 8128W        W12179   5.960   0.787   9.820
 8129W        W12180   2.363   1.198  10.840
 8130W        W12181   1.740   3.858  11.885
 8131W        W12182   4.613   9.928   0.520
 8132W        W12183   9.405   3.323  10.266
 8133W        W12184   3.672   6.127   1.497
 8134W        W12185   2.922  11.048   0.568
 8135W        W12186   2.697   7.464  10.716
 8136W        W12187   6.047   1.805   3.281
 8137W        W12188   6.158   1.826   8.579
 8138W        W12189   2.013  10.476   2.370
 8139W        W12190   9.483   9.897   3.190
 8140W        W12191  10.448   9.892   9.083
 8141W        W12192   5.684   2.347  11.792
 8142W        W12193   6.774  10.382   0.208
 8143W        W12194   3.050   4.308   3.253
 8144W        W12195  10.015  10.993   1.788
 8145W        W12196   7.357   0.270   2.024
 8146W        W12197   7.771   6.231  11.044
 8147W        W12198   4.280   8.124  11.927
 8148W        W12199   6.393  11.264   9.555
 8149W        W12200   3.178   5.583   9.987
 8150W        W12201   5.365  10.328   9.236
 8151W        W12202   5.784   7.942   0.918
 8152W        W12203   0.621   6.636  10.036
 8153W        W12204   2.789   7.559   8.832
 8154W        W12205   2.114  10.475  11.569
 8155W        W12206   1.529   2.243   9.705
 8156W        W12207   1.456   3.839  10.202
 8157W        W12208   3.773   4.956   9.857
 8158W        W12209   8.000   3.549  11.992
 8159W        W12210   5.452  11.105   2.622
 8160W        W12211   7.912   6.736  11.024
 8161W        W12212   6.635  11.310   9.992
 8162W        W12213   8.383   6.226   1.915
 8163W        W12214  10.416   3.010   8.544
 8164W        W12215  10.815   5.790   9.583
 8165W        W12216  10.432   3.097   1.691
 8166W        W12217   7.764   3.170   0.790
 8167W        W12218   5.177   7.035   0.790
 8168W        W12219   0.434   9.793   9.166
 8169W        W12220   4.983   0.493   2.686
 8170W        W12221   1.819   1.869   3.585
 8171W        W12222   6.049   4.779  11.243
 8172W        W12223   3.735   9.323  10.736
 8173W        W12224   1.236   4.957  11.233
 8174W        W12225   9.820  11.194   2.282
 8175W        W12226   5.332  10.810   9.497
 8176W        W12227   9.877   9.943   0.881
 8177W        W12228   7.638  11.010   1.827
 8178W        W12229   3.767   0.874   2.246
 8179W        W12230   4.132   9.584   1.743
 8180W        W12231   4.093  10.493   8.828
 8181W        W12232   5.836  11.308   1.295
 8182W        W12233  10.119   0.812   1.728
 8183W        W12234   1.047   0.037   0.066
 8184W        W12235  11.471  10.421   0.708
 8185W        W12236   2.334   5.426  11.546
 8186W        W12237  10.387   9.955  10.113
 8187W        W12238   0.970  10.889  10.790
 8188W        W12239  10.465   8.638   9.626
 8189W        W12240   4.296   3.162   1.229
 8190W        W12241   9.067   6.049  10.897
 8191W        W12242   9.403   4.843   8.804
 8192W        W12243  10.977   7.779   9.985
 8193W        W12244   8.942   4.130   8.371
 8194W        W12245   1.316   6.604   1.652
 8195W        W12246   6.038   8.372   9.879
 8196W        W12247   9.115   4.645   9.594
 8197W        W12248   8.171   2.778   9.461
 8198W        W12249   7.718   2.996   1.276
 8199W        W12250   3.344   1.434   1.446
 8200W        W12251   7.004   9.185   9.574
 8201W        W12252   0.821   9.088   8.697
 8202W        W12253   6.142   8.726   0.375
 8203W        W12254   1.472  10.969  10.736
 8204W        W12255   1.796   3.715   2.094
 8205W        W12256   4.875   3.349   3.189
 8206W        W12257  11.456   9.335   2.286
 8207W        W12258   2.685  11.472   0.711
 8208W        W12259   1.424   8.059   0.572
 8209W        W12260   6.861   3.509   2.739
 8210W        W12261   5.650   2.231   0.727
 8211W        W12262   9.806   4.274   9.529
 8212W        W12263   3.310   6.274  11.547
 8213W        W12264   4.003   2.268  10.970
 8214W        W12265   9.362   3.635   0.480
 8215W        W12266   7.486   7.129  11.123
 8216W        W12267   2.044   9.557   2.466
 8217W        W12268   2.952   7.983   8.529
 8218W        W12269   6.661   5.293  11.567
 8219W        W12270  10.924   8.979  11.508
 8220W        W12271   2.688   3.701   2.562
 8221W        W12272   5.075   9.332   1.042
 8222W        W12273   4.560   6.376   8.305
 8223W        W12274  10.105   3.259  11.388
 8224W        W12275   7.918   2.671   0.836
 8225W        W12276   9.406   9.677  11.344
 8226W        W12277  10.437   1.901   0.218
 8227W        W12278   9.643   3.785  10.375
 8228W        W12279   8.410   3.226  11.381
 8229W        W12280  10.821   1.845   1.371
 8230W        W12281   2.519   6.164  11.916
 8231W        W12282   4.279   8.791   2.101
 8232W        W12283   0.372   4.542   1.222
 8233W        W12284   0.709   7.650  11.811
 8234W        W12285   4.531   0.306   2.852
 8235W        W12286   9.075   5.915   1.409
 8236W        W12287   0.474  10.223   3.143
 8237W        W12288   0.717   2.812   8.938
 8238W        W12289   9.140   0.762   8.878
 8239W        W12290   5.309   8.450   2.120
 8240W        W12291  10.333   2.691   1.981
 8241W        W12292  10.472  10.582   0.066
 8242W        W12293   4.972   6.697   8.699
 8243W        W12294   1.271   9.300  10.562
 8244W        W12295   2.643   6.054   2.805
 8245W        W12296   6.363   4.084   1.805
 8246W        W12297   1.654   0.367  10.432
 8247W        W12298   9.611   4.653   1.882
 8248W        W12299   5.723   0.457  10.137
 8249W        W12300   7.121  11.496   0.893
 8250W        W12301   1.484   6.558  10.293
 8251W        W12302   5.923   2.098   9.054
 8252W        W12303   9.037   2.938  11.823
 8253W        W12304   4.339   8.583   1.633
 8254W        W12305  10.389   0.978   0.490
 8255W        W12306   2.894   0.810   3.569
 8256W        W12307   4.395   3.595  11.946
 8257W        W12308   3.686   4.110  11.395
 8258W        W12309   0.185  10.345  11.899
 8259W        W12310   8.497  11.434  11.711
 8260W        W12311   6.490   4.817   1.382
 8261W        W12312   2.418   0.297  10.850
 8262W        W12313  10.547   6.569   3.483
 8263W        W12314   1.539   5.078   0.300
 8264W        W12315  10.994   7.988   1.238
 8265W        W12316   2.614   1.001   2.703
 8266W        W12317   6.602   1.085   2.910
 8267W        W12318   5.565   7.596  10.408
 8268W        W12319   8.369   5.718  10.552
 8269W        W12320   9.409   9.139   9.422
 8270W        W12321   5.220   4.267   9.949
 8271W        W12322   4.092   0.974   0.723
 8272W        W12323  10.620   5.144  10.378
 8273W        W12324  10.425  11.488   0.232
 8274W        W12325   8.990   0.814  10.294
 8275W        W12326   2.259   6.163   0.955
 8276W        W12327   1.829   4.103  11.437
 8277W        W12328   6.953   7.505   2.311
 8278W        W12329   1.051   7.521   9.840
 8279W        W12330   2.620   6.909  11.701
 8280W        W12331   3.090   6.292   2.883
 8281W        W12332  11.024  10.825   1.204
 8282W        W12333   9.856   3.679   9.035
 8283W        W12334   8.776   6.361  11.219
 8284W        W12335   6.046   4.148   1.428
 8285W        W12336   0.320   6.015   3.601
 8286W        W12337   5.011   2.183  11.043
 8287W        W12338  10.762   0.395  10.316
 8288W        W12339   8.319   5.796   8.894
 8289W        W12340   4.805   4.877  11.481
 8290W        W12341   4.658   7.488   1.384
 8291W        W12342   2.244   4.171  11.103
 8292W        W12343   7.262   5.096   0.289
 8293W        W12344   9.370   7.246   9.301
 8294W        W12345   6.864  10.059   8.605
 8295W        W12346   7.116   2.885  11.255
 8296W        W12347   1.878   0.052   1.469
 8297W        W12348   9.637  11.214   0.677
 8298W        W12349   4.408   7.027  11.317
 8299W        W12350   8.913   5.603   0.399
 8300W        W12351  11.234   6.216   0.988
 8301W        W12352   5.505   8.900  11.645
 8302W        W12353   7.457   5.277  11.442
 8303W        W12354   7.396   9.291  10.960
 8304W        W12355   1.060   9.069   0.930
 8305W        W12356   0.171   3.539   1.094
 8306W        W12357   8.123   5.191  11.981
 8307W        W12358  10.324   4.731   0.482
 8308W        W12359   5.922  11.425   0.793
 8309W        W12360   5.680   4.679   8.777
 8310W        W12361   5.500   3.852  11.865
 8311W        W12362   2.831   8.778  10.571
 8312W        W12363   5.196   4.578   2.719
 8313W        W12364  10.425   2.924   0.375
 8314W        W12365   3.856   5.378   2.069
 8315W        W12366  10.347  10.140  11.837
 8316W        W12367   3.358   3.889   0.519
 8317W        W12368   6.640   0.264   9.728
 8318W        W12369  10.915   8.103   9.563
 8319W        W12370   2.379  11.029   9.583
 8320W        W12371   6.483   8.526   0.724
 8321W        W12372   5.066   6.099  10.849
 8322W        W12373   8.239   4.880  10.957
 8323W        W12374   9.283   6.173   0.985
 8324W        W12375   7.564  10.785   8.719
 8325W        W12376   3.354   5.508   2.959
 8326W        W12377   9.893   1.213  10.031
 8327W        W12378   2.794   2.848   2.389
 8328W        W12379   4.403  10.361   1.500
 8329W        W12380   9.524   8.030   1.300
 8330W        W12381   3.915   6.576   0.763
 8331W        W12382   3.370   5.692   8.285
 8332W        W12383   6.930   6.126   0.744
 8333W        W12384   0.836   5.079   9.547
 8334W        W12385   9.778   6.188   1.864
 8335W        W12386   1.356   0.471   9.540
 8336W        W12387   5.104   8.146   0.483
 8337W        W12388  10.479   4.440   1.892
 8338W        W12389   9.483  11.472  10.260
 8339W        W12390   8.890  10.426   1.642
 8340W        W12391   1.955   6.635  10.509
 8341W        W12392   8.983   2.567   9.909
 8342W        W12393   8.518   9.862   9.322
 8343W        W12394  10.697   3.758  10.177
 8344W        W12395   3.224   0.553   3.278
 8345W        W12396   0.853   2.347   2.672
 8346W        W12397   9.261   8.419   3.573
 8347W        W12398   6.177   9.325  11.756
 8348W        W12399   1.122  11.397   2.280
 8349W        W12400   5.214   3.595   3.507
 8350W        W12401   0.263   9.090   2.611
 8351W        W12402   5.712   1.249   9.861
 8352W        W12403   1.706   4.545  10.083
 8353W        W12404   5.695   0.265   3.382
 8354W        W12405   4.531   2.725   9.146
 8355W        W12406   1.752   9.429  10.532
 8356W        W12407   7.680   6.481   3.381
 8357W        W12408   9.288   9.372   8.974
 8358W        W12409   5.077   4.578   1.728
 8359W        W12410   3.273   6.180   9.319
 8360W        W12411   7.806   4.600  11.248
 8361W        W12412   3.825   5.773   0.705
 8362W        W12413   1.256   5.897   3.474
 8363W        W12414   7.078   2.663  11.976
 8364W        W12415   1.781   7.335   3.934
 8365W        W12416   4.669   8.869  10.497
 8366W        W12417   9.094   1.652   1.932
 8367W        W12418   8.343   4.347   0.859
 8368W        W12419   2.666   0.250   1.695
 8369W        W12420  10.500   8.654   3.161
 8370W        W12421   1.437   7.137   2.397
 8371W        W12422   2.350   4.849   2.810
 8372W        W12423  10.459   5.806   9.982
 8373W        W12424   4.221   4.269   8.804
 8374W        W12425   1.990   4.626   1.088
 8375W        W12426   5.107   7.206   1.383
 8376W        W12427   2.345   1.949   2.164
 8377W        W12428   8.908   5.075  10.303
 8378W        W12429   4.076   5.306  10.099
 8379W        W12430   8.351   3.855   2.343
 8380W        W12431   9.369   9.325  10.932
 8381W        W12432   4.803   7.752   0.570
 8382W        W12433   1.336   4.638   1.221
 8383W        W12434   8.531   9.581  11.530
 8384W        W12435   2.186   1.429   3.332
 8385W        W12436   3.255   0.145   2.937
 8386W        W12437   7.502   8.509   9.340
 8387W        W12438   1.359   7.088  10.022
 8388W        W12439   8.535   0.318  11.389
 8389W        W12440   7.183  11.309   1.822
 8390W        W12441  11.415   4.825   9.091
 8391W        W12442   0.280   9.890  10.164
 8392W        W12443   5.068   1.677  10.763
 8393W        W12444   1.925   6.145   8.927
 8394W        W12445   7.173   0.024   9.080
 8395W        W12446   7.401   4.342  10.598
 8396W        W12447   2.777   3.284   9.241
 8397W        W12448   6.209   2.869   0.445
 8398W        W12449   8.481   0.161   0.996
 8399W        W12450   2.157   0.424  11.300
 8400W        W12451   3.293   3.848   9.644
 8401W        W12452   6.412   3.343  10.626
 8402W        W12453   0.345   9.524   1.986
 8403W        W12454   0.937   5.990   1.665
 8404W        W12455   1.349   0.975   9.588
 8405W        W12456   1.364   5.078  10.730
 8406W        W12457   7.513   0.262   9.653
 8407W        W12458   3.743   8.517   8.724
 8408W        W12459   4.193  10.938   0.742
 8409W        W12460   9.190   1.338   0.680
 8410W        W12461   2.311   5.278   2.474
 8411W        W12462   2.729   8.083   3.139
 8412W        W12463   6.158   3.463  11.137
 8413W        W12464   4.149   0.874   9.164
 8414W        W12465   5.986   7.248   3.174
 8415W        W12466  10.546   6.017  11.811
 8416W        W12467   3.354  11.397   8.715
 8417W        W12468   7.510   8.611   1.838
 8418W        W12469   1.222  10.439   0.506
 8419W        W12470   6.554   9.599  11.510
 8420W        W12471   9.105   2.455   0.701
 8421W        W12472   3.108   0.667  11.034
 8422W        W12473   8.600   0.721   9.005
 8423W        W12474   1.581   7.648   2.271
 8424W        W12475  11.488   6.517  10.568
 8425W        W12476   7.690   1.802   1.982
 8426W        W12477   7.177   1.208  11.757
 8427W        W12478   4.678   2.848   3.567
 8428W        W12479   6.797   0.378   8.970
 8429W        W12480   2.755   7.393   9.820
 8430W        W12481   0.384   4.973  10.729
 8431W        W12482  10.828  11.419  10.515
 8432W        W12483   1.439   3.331   2.827
 8433W        W12484  10.854   0.841   9.577
 8434W        W12485   8.414   2.470   9.085
 8435W        W12486   1.360   6.205   1.968
 8436W        W12487   7.832   6.074   8.857
 8437W        W12488   9.902   7.200   1.898
 8438W        W12489   9.531   3.881   8.597
 8439W        W12490   6.358   2.072   4.083
 8440W        W12491   2.909   8.413  11.897
 8441W        W12492   9.413   1.685   3.405
 8442W        W12493  10.840  10.098   0.903
 8443W        W12494   3.155   6.678   2.569
 8444W        W12495   4.839  10.309   1.820
 8445W        W12496   3.238  10.053   9.867
 8446W        W12497   5.983  11.003   1.950
 8447W        W12498   3.157   0.315   0.983
 8448ION    NA+12499   2.215   0.096   1.898
 8449ION    NA+12500   3.671   7.533   1.095
 8450ION    NA+12501   9.640   3.928  11.237
 8451ION    NA+12502   3.109   8.850   1.561
 8452ION    NA+12503   9.446   4.678  10.605
 8453ION    NA+12504   2.250   6.605   2.137
 8454ION    NA+12505   4.796   3.794  11.696
 8455ION    NA+12506   7.456   1.282   3.635
 8456ION    NA+12507   0.007   8.486  10.401
 8457ION    NA+12508   6.166   8.190   2.194
 8458ION    NA+12509   9.564   8.368  11.879
 8459ION    NA+12510   9.490   6.082   0.208
 8460ION    NA+12511   3.380   5.717   1.649
 8461ION    NA+12512   9.310   0.929  11.701
 8462ION    NA+12513   5.236   4.985   2.063
 8463ION    NA+12514  11.443   5.192  10.611
 8464ION    NA+12515   7.402   3.521   2.167
 8465ION    NA+12516   7.966  10.513   9.347
 8466ION    NA+12517   0.094   7.354   8.944
 8467ION    NA+12518   9.433   6.449   9.556
 8468ION    NA+12519   2.141   8.168   9.739
 8469ION    NA+12520   7.621   2.179   8.807
 8470ION    NA+12521   8.091   2.595   3.870
 8471ION    NA+12522   8.856  10.966   9.491
 8472ION    NA+12523   5.237   6.354  11.298
 8473ION    NA+12524   0.536   7.510   9.721
 8474ION    NA+12525   9.130  10.661   0.810
 8475ION    NA+12526   3.883   4.010  10.172
 8476ION    NA+12527   9.379   7.741  11.250
 8477ION    NA+12528   3.922   2.186   1.705
 8478ION    NA+12529   4.771   0.912   2.149
 8479ION    NA+12530   1.256   5.056  11.789
 8480ION    NA+12531   0.978  11.187   8.903
 8481ION    NA+12532   8.779   8.380  11.732
 8482ION    NA+12533   0.909   4.014   2.998
 8483ION    NA+12534   7.040   1.394   2.733
 8484ION    NA+12535   5.075   2.097  11.949
 8485ION    NA+12536   4.157   0.730  10.407
 8486ION    NA+12537  10.585   0.085   1.492
 8487ION    NA+12538   5.603   7.569   2.430
 8488ION    NA+12539  11.152   0.487   2.685
 8489ION    NA+12540   4.238   3.951   0.595
 8490ION    NA+12541   6.015   9.424   2.521
 8491ION    NA+12542   3.214   2.368   0.424
 8492ION    NA+12543   1.482   2.209   8.888
 8493ION    NA+12544   3.045   8.910  11.852
 8494ION    NA+12545   4.224   1.784   2.569
 8495ION    NA+12546   8.549   6.823   9.836
 8496ION    NA+12547   7.522   9.562   1.024
 8497ION    NA+12548   7.423   0.857   0.078
 8498ION    NA+12549   1.849   4.127   1.294
 8499ION    NA+12550   7.956   6.373  10.584
 8500ION    NA+12551   3.082   5.821   2.619
 8501ION    NA+12552   5.423   1.513   2.141
 8502ION    NA+12553   0.240   4.397  11.685
 8503ION    NA+12554   3.053   8.287   0.875
 8504ION    NA+12555   7.087   1.700   1.640
 8505ION    NA+12556   3.079  11.031   8.004
 8506ION    NA+12557   8.175   1.099   2.904
 8507ION    NA+12558   4.041   8.437   0.882
 8508ION    NA+12559   9.260   0.049   0.958
 8509ION    NA+12560   3.495   2.011   3.628
 8510ION    NA+12561   5.365  10.108  11.412
 8511ION    NA+12562   8.028   5.088   3.248
 8512ION    NA+12563  11.373   7.923  11.970
 8513ION    NA+12564   9.333   0.758   9.921
 8514ION    NA+12565  11.424  11.075  11.982
 8515ION    NA+12566  11.052   6.511  10.190
 8516ION    NA+12567   5.752   2.818   9.538
 8517ION    NA+12568   6.646   9.172   8.776
 8518ION    NA+12569   1.009   5.093   1.218
 8519ION    NA+12570   7.544   0.234  11.305
 8520ION    NA+12571   0.427   0.386   9.120
 8521ION    NA+12572   2.333   7.770   8.562
 8522ION    NA+12573   8.987   3.300   0.442
 8523ION    NA+12574   9.618   1.561   2.442
 8524ION    NA+12575  10.465   7.674   9.861
 8525ION    NA+12576  10.520   4.151   0.746
 8526ION    NA+12577   7.407   8.732   8.887
 8527ION    NA+12578   0.563   1.525  11.477
 8528ION    NA+12579   9.759  10.123  11.154
 8529ION    NA+12580  10.331  11.019   0.383
 8530ION    NA+12581   9.558   1.490   9.275
 8531ION    NA+12582   0.033   1.813  10.724
 8532ION    NA+12583   8.608   4.527   2.658
 8533ION    NA+12584   1.802  11.210   0.424
 8534ION    NA+12585   2.667   3.419  10.331
 8535ION    NA+12586   8.494   0.178   9.869
 8536ION    NA+12587   5.131   3.374   8.278
 8537ION    CL-12588   2.821   4.638   2.911
 8538ION    CL-12589   4.691   3.245   8.289
 8539ION    CL-12590   0.355   2.370   3.504
 8540ION    CL-12591   1.213  11.338  11.536
 8541ION    CL-12592   9.960   4.163   3.437
 8542ION    CL-12593  11.135  11.425  10.919
 8543ION    CL-12594   5.809  10.114  11.362
 8544ION    CL-12595   9.140   3.751  10.386
 8545ION    CL-12596   9.483  10.483  11.211
 8546ION    CL-12597   0.102   0.585  10.326
 8547ION    CL-12598   2.812   5.114  11.759
 8548ION    CL-12599   5.037   1.278   2.118
 8549ION    CL-12600   3.488  10.743   3.589
 8550ION    CL-12601  11.237   4.076   1.540
 8551ION    CL-12602   1.504   7.651  11.356
 8552ION    CL-12603   0.372   1.527  10.875
 8553ION    CL-12604   6.389   9.297   2.310
 8554ION    CL-12605   0.320  10.505  10.897
 8555ION    CL-12606   4.545   3.958  10.335
 8556ION    CL-12607   6.237   9.335  10.156
 8557ION    CL-12608   0.722   0.035   9.100
 8558ION    CL-12609   2.660   2.197  10.860
 8559ION    CL-12610   7.721   1.731   8.791
 8560ION    CL-12611   9.526   1.900   2.160
 8561ION    CL-12612   9.057   1.201  11.454
 8562ION    CL-12613   0.853   8.796  11.559
 8563ION    CL-12614   8.291   0.701   2.734
 8564ION    CL-12615   9.432  10.813   3.615
 8565ION    CL-12616  11.438   0.821   2.734
 8566ION    CL-12617   8.270   4.621  11.440
 8567ION    CL-12618   2.504   9.840   9.464
 8568ION    CL-12619   8.608   3.075   0.386
 8569ION    CL-12620   9.401   2.892   9.945
 8570ION    CL-12621   4.774   7.232   2.908
 8571ION    CL-12622   9.150   8.592  11.935
 8572ION    CL-12623   8.578   8.123  11.404
 8573ION    CL-12624   6.104   7.409   0.236
 8574ION    CL-12625  10.540   2.141   3.092
 8575ION    CL-12626  11.238   9.423   0.744
 8576ION    CL-12627   1.712   4.986   4.095
 8577ION    CL-12628   0.529   1.822  11.817
 8578ION    CL-12629   8.614  11.264   9.728
 8579ION    CL-12630   1.914  10.155   3.326
 8580ION    CL-12631   8.552   2.125  11.015
 8581ION    CL-12632  11.446   1.434   0.531
 8582ION    CL-12633   2.678  10.968   3.047
 8583ION    CL-12634   8.067   7.909  10.439
 8584ION    CL-12635  10.069   9.844  10.966
 8585ION    CL-12636   4.172   0.059   8.373
 8586ION    CL-12637   0.309   6.748   1.640
 8587ION    CL-12638   5.788   7.972   2.325
 8588ION    CL-12639   7.391   7.075   1.690
 8589ION    CL-12640   1.275   2.256   9.281
 8590ION    CL-12641   9.696   3.488  11.174
 8591ION    CL-12642   5.864  10.373  10.039
 8592ION    CL-12643   2.091  11.072   8.713
 8593ION    CL-12644   4.085   4.070   0.999
 8594ION    CL-12645   0.391  10.517   0.963
 8595ION    CL-12646   3.077   8.500   1.276
 8596ION    CL-12647   9.193  11.104   0.901
 8597ION    CL-12648  10.380   3.943   2.037
 8598ION    CL-12649  10.853   1.200  10.570
 8599ION    CL-12650   4.744   7.841   1.737
 8600ION    CL-12651   5.608   3.234  11.292
 8601ION    CL-12652  10.517   7.008   0.462
 8602ION    CL-12653   2.733   3.838  10.468
 8603ION    CL-12654   4.829   1.311   8.907
 8604ION    CL-12655  11.462   7.737   8.447
 8605ION    CL-12656   6.932   9.286  11.259
 8606ION    CL-12657   9.852   8.550   9.841
 8607ION    CL-12658   5.949   7.009   9.788
 8608ION    CL-12659   4.251   0.553  10.008
 8609ION    CL-12660   9.555   8.001  11.579
 8610ION    CL-12661   0.302   7.440   9.339
 8611ION    CL-12662   8.071   7.360   2.797
 8612ION    CL-12663   1.654   6.533   9.419
 8613ION    CL-12664   6.981   8.858   8.766
 8614ION    CL-12665   2.123  10.914   0.331
 8615ION    CL-12666   9.595   4.387   2.470
 8616ION    CL-12667   5.496   6.022  11.149
 8617ION    CL-12668   4.834   5.246  10.819
 8618ION    CL-12669   7.076   0.677   0.294
 8619ION    CL-12670   0.594   8.071   3.175
 8620ION    CL-12671  11.205   2.131  10.663
 8621ION    CL-12672   4.216   9.609   0.495
 8622ION    CL-12673   0.997  10.090   9.130
 8623ION    CL-12674   6.509   4.446  11.962
 8624ION    CL-12675   0.466   8.595   1.471
 8625ION    CL-12676   6.755   7.567  10.092
  11.50000  11.50000  12.00000
