Protein in INSANE! Membrane UpperLeaflet>POPC=1.0 LowerLeaflet>POPC=1.0
11125
    1AU     AUC    1   5.238   5.287   6.002
    1AU     AUC    2   5.529   5.282   5.837
    1AU     AUC    3   5.480   5.268   6.176
    1AU     AUC    4   4.971   5.282   5.838
    1AU     AUC    5   4.972   5.328   6.186
    1AU     AUC    6   5.081   5.568   5.999
    1AU     AUC    7   5.427   5.554   5.991
    1AU     AUC    8   5.046   5.019   6.003
    1AU     AUC    9   5.398   5.001   6.009
    1AU     AUC   10   5.232   5.109   6.273
    1AU     AUC   11   5.234   5.475   6.264
    1AU     AUC   12   5.234   5.121   5.733
    1AU     AUC   13   5.273   5.439   5.720
    1AU     AUC   14   5.857   5.272   5.695
    1AU     AUC   15   5.845   5.256   6.033
    1AU     AUC   16   5.776   5.243   6.385
    1AU     AUC   17   4.652   5.295   5.672
    1AU     AUC   18   4.635   5.338   6.036
    1AU     AUC   19   4.681   5.374   6.370
    1AU     AUC   20   4.937   5.888   5.972
    1AU     AUC   21   5.290   5.902   5.944
    1AU     AUC   22   5.614   5.836   5.979
    1AU     AUC   23   4.842   4.743   6.001
    1AU     AUC   24   5.179   4.676   5.971
    1AU     AUC   25   5.567   4.684   5.998
    1AU     AUC   26   5.207   4.930   6.569
    1AU     AUC   27   5.231   5.291   6.605
    1AU     AUC   28   5.274   5.649   6.553
    1AU     AUC   29   5.266   4.950   5.455
    1AU     AUC   30   5.259   5.270   5.386
    1AU     AUC   31   5.266   5.583   5.408
    1AU     AUC   32   5.492   5.048   6.502
    1AU     AUC   33   5.536   5.435   6.499
    1AU     AUC   34   5.581   5.111   5.527
    1AU     AUC   35   5.579   5.455   5.531
    1AU     AUC   36   4.929   5.168   6.517
    1AU     AUC   37   4.963   5.541   6.489
    1AU     AUC   38   4.935   5.110   5.549
    1AU     AUC   39   4.922   5.424   5.497
    1AU     AUC   40   5.781   5.561   5.826
    1AU     AUC   41   5.704   5.546   6.195
    1AU     AUC   42   4.763   5.600   5.836
    1AU     AUC   43   4.787   5.664   6.189
    1AU     AUC   44   5.742   4.965   5.869
    1AU     AUC   45   5.681   4.930   6.196
    1AU     AUC   46   4.707   5.004   5.870
    1AU     AUC   47   4.757   5.054   6.216
    1AU     AUC   48   5.109   5.825   6.257
    1AU     AUC   49   5.443   5.767   6.273
    1AU     AUC   50   5.028   4.825   6.291
    1AU     AUC   51   5.349   4.754   6.271
    1AU     AUC   52   5.081   5.720   5.682
    1AU     AUC   53   5.463   5.735   5.662
    1AU     AUC   54   5.034   4.808   5.713
    1AU     AUC   55   5.422   4.829   5.723
    1AU    AUSL   56   5.762   5.160   6.759
    1AU    AUSL   57   5.489   4.744   6.671
    1AU     AUL   58   5.764   4.770   6.857
    1AU       S   59   5.819   4.350   6.656
    1AU     LIG   60   5.930   3.986   6.919
    1AU     LIG   61   6.140   3.645   7.192
    1AU     LIG   62   6.388   3.462   7.551
    1AU     LIG   63   6.381   3.451   8.024
    1AU       S   64   6.022   5.154   6.932
    1AU     LIG   65   6.249   5.397   7.251
    1AU     LIG   66   6.435   5.278   7.677
    1AU     LIG   67   6.688   5.165   8.073
    1AU     LIG   68   7.013   5.233   8.419
    1AU    AUSL   69   5.353   5.079   6.914
    1AU    AUSL   70   5.099   5.474   6.936
    1AU     AUL   71   5.297   5.352   7.203
    1AU       S   72   5.651   5.043   7.215
    1AU     LIG   73   5.299   4.783   7.491
    1AU     LIG   74   5.317   4.610   7.938
    1AU     LIG   75   5.639   4.602   8.301
    1AU     LIG   76   5.908   4.654   8.694
    1AU       S   77   4.860   5.225   7.152
    1AU     LIG   78   4.877   5.177   7.648
    1AU     LIG   79   4.690   5.118   8.080
    1AU     LIG   80   4.542   5.200   8.520
    1AU     LIG   81   4.620   5.459   8.921
    1AU    AUSL   82   5.432   5.462   6.673
    1AU    AUSL   83   5.886   5.550   6.619
    1AU     AUL   84   5.676   5.466   6.951
    1AU       S   85   5.345   5.826   7.098
    1AU     LIG   86   5.624   5.957   7.426
    1AU     LIG   87   5.728   6.001   7.897
    1AU     LIG   88   5.770   5.983   8.381
    1AU     LIG   89   5.784   5.893   8.852
    1AU       S   90   6.054   5.713   6.833
    1AU     LIG   91   6.474   5.751   6.930
    1AU     LIG   92   6.745   5.999   7.202
    1AU     LIG   93   6.943   6.239   7.543
    1AU     LIG   94   7.292   6.431   7.788
    1AU    AUSL   95   5.739   5.314   5.381
    1AU    AUSL   96   5.662   5.752   5.350
    1AU     AUL   97   5.832   5.634   5.108
    1AU       S   98   5.701   5.350   4.785
    1AU     LIG   99   6.023   5.304   4.455
    1AU     LIG  100   6.241   5.012   4.175
    1AU     LIG  101   6.352   4.925   3.737
    1AU     LIG  102   6.567   5.100   3.366
    1AU       S  103   6.042   5.967   5.369
    1AU     LIG  104   6.128   6.188   4.965
    1AU     LIG  105   6.297   6.404   4.579
    1AU     LIG  106   6.491   6.649   4.245
    1AU     LIG  107   6.700   6.974   4.014
    1AU    AUSL  108   5.546   5.040   5.092
    1AU    AUSL  109   5.994   4.976   5.451
    1AU     AUL  110   5.941   5.165   5.167
    1AU       S  111   6.092   4.716   5.232
    1AU     LIG  112   6.261   4.401   4.898
    1AU     LIG  113   6.480   4.013   4.729
    1AU     LIG  114   6.757   3.739   4.456
    1AU     LIG  115   7.166   3.742   4.200
    1AU       S  116   5.687   5.126   4.775
    1AU     LIG  117   5.896   4.798   4.560
    1AU     LIG  118   5.866   4.665   4.113
    1AU     LIG  119   5.866   4.762   3.658
    1AU     LIG  120   6.112   4.842   3.264
    1AU    AUSL  121   5.386   5.459   5.181
    1AU    AUSL  122   5.138   5.085   5.235
    1AU     AUL  123   5.260   5.099   4.933
    1AU       S  124   4.802   5.111   4.801
    1AU     LIG  125   4.724   4.784   4.476
    1AU     LIG  126   4.621   4.595   4.042
    1AU     LIG  127   4.496   4.683   3.595
    1AU     LIG  128   4.638   4.804   3.164
    1AU       S  129   5.465   5.502   4.837
    1AU     LIG  130   5.501   5.357   4.343
    1AU     LIG  131   5.788   5.182   3.990
    1AU     LIG  132   5.977   5.256   3.554
    1AU     LIG  133   5.907   5.451   3.127
    1AU    AUSL  134   4.701   5.433   6.747
    1AU    AUSL  135   5.029   5.773   6.633
    1AU     AUL  136   4.868   5.710   6.960
    1AU       S  137   4.686   5.335   7.190
    1AU     LIG  138   4.390   5.170   7.467
    1AU     LIG  139   4.289   4.913   7.843
    1AU     LIG  140   4.145   4.934   8.298
    1AU     LIG  141   3.782   5.077   8.582
    1AU       S  142   4.633   6.051   6.735
    1AU     LIG  143   4.523   6.239   7.157
    1AU     LIG  144   4.350   6.455   7.557
    1AU     LIG  145   4.119   6.712   7.903
    1AU     LIG  146   3.949   6.847   8.336
    1AU    AUSL  147   5.005   5.136   6.666
    1AU    AUSL  148   4.577   5.013   6.640
    1AU     AUL  149   4.500   5.236   6.779
    1AU       S  150   4.466   4.779   6.899
    1AU     LIG  151   4.015   4.578   6.899
    1AU     LIG  152   3.772   4.167   6.925
    1AU     LIG  153   3.528   3.832   7.174
    1AU     LIG  154   3.090   3.709   7.369
    1AU       S  155   4.877   5.073   7.049
    1AU     LIG  156   4.716   4.789   7.382
    1AU     LIG  157   4.775   4.673   7.807
    1AU     LIG  158   4.555   4.618   8.197
    1AU     LIG  159   4.443   4.594   8.634
    1AU    AUSL  160   4.721   5.204   5.284
    1AU    AUSL  161   4.911   4.815   5.474
    1AU     AUL  162   4.916   4.827   5.140
    1AU       S  163   4.585   5.106   4.968
    1AU     LIG  164   4.291   4.965   4.695
    1AU     LIG  165   4.244   4.893   4.234
    1AU     LIG  166   4.046   4.909   3.799
    1AU     LIG  167   3.606   5.041   3.623
    1AU       S  168   4.506   4.684   5.293
    1AU     LIG  169   4.311   4.363   5.031
    1AU     LIG  170   4.019   4.053   4.795
    1AU     LIG  171   3.770   3.799   4.485
    1AU     LIG  172   3.814   3.450   4.172
    1AU    AUSL  173   4.983   5.481   5.052
    1AU    AUSL  174   4.520   5.572   5.421
    1AU     AUL  175   4.634   5.543   5.099
    1AU       S  176   4.247   5.752   5.275
    1AU     LIG  177   4.027   6.034   4.977
    1AU     LIG  178   3.971   6.274   4.584
    1AU     LIG  179   3.656   6.439   4.282
    1AU     LIG  180   3.184   6.483   4.187
    1AU       S  181   4.881   5.337   4.760
    1AU     LIG  182   4.606   5.270   4.368
    1AU     LIG  183   4.588   5.107   3.916
    1AU     LIG  184   4.621   5.216   3.460
    1AU     LIG  185   4.756   5.466   3.072
    1AU    AUSL  186   6.051   5.787   6.029
    1AU    AUSL  187   6.009   5.561   5.603
    1AU     AUL  188   6.316   5.859   5.777
    1AU       S  189   6.129   5.628   5.448
    1AU     LIG  190   6.458   5.782   5.139
    1AU     LIG  191   6.629   6.102   4.855
    1AU     LIG  192   6.810   6.311   4.491
    1AU     LIG  193   7.025   6.645   4.253
    1AU       S  194   6.499   5.833   6.200
    1AU     LIG  195   6.928   5.934   6.008
    1AU     LIG  196   7.358   6.132   5.966
    1AU     LIG  197   7.535   6.544   6.096
    1AU     LIG  198   7.809   6.796   6.381
    1AU    AUSL  199   6.225   5.379   5.931
    1AU    AUSL  200   6.143   5.060   6.267
    1AU     AUL  201   6.314   5.295   6.411
    1AU       S  202   6.448   5.462   5.990
    1AU     LIG  203   6.872   5.420   5.855
    1AU     LIG  204   7.272   5.624   5.778
    1AU     LIG  205   7.699   5.742   5.808
    1AU     LIG  206   8.073   5.537   5.585
    1AU       S  207   6.398   4.912   6.132
    1AU     LIG  208   6.796   4.687   6.257
    1AU     LIG  209   7.237   4.481   6.224
    1AU     LIG  210   7.671   4.347   6.318
    1AU     LIG  211   8.095   4.486   6.475
    1AU    AUSL  212   5.904   5.407   6.218
    1AU    AUSL  213   5.708   5.799   6.293
    1AU     AUL  214   6.075   5.732   6.366
    1AU       S  215   6.045   5.999   6.747
    1AU     LIG  216   6.371   6.265   6.949
    1AU     LIG  217   6.695   6.540   7.185
    1AU     LIG  218   6.892   6.969   7.301
    1AU     LIG  219   6.982   7.457   7.263
    1AU       S  220   6.505   5.644   6.189
    1AU     LIG  221   6.928   5.559   6.345
    1AU     LIG  222   7.369   5.711   6.272
    1AU     LIG  223   7.784   5.709   6.462
    1AU     LIG  224   8.120   5.968   6.641
    1AU    AUSL  225   4.629   5.890   6.010
    1AU    AUSL  226   4.660   5.684   6.407
    1AU     AUL  227   4.388   6.018   6.234
    1AU       S  228   4.518   5.839   6.637
    1AU     LIG  229   4.195   5.883   6.926
    1AU     LIG  230   4.020   6.164   7.256
    1AU     LIG  231   3.832   6.404   7.606
    1AU     LIG  232   3.599   6.525   8.000
    1AU       S  233   4.646   6.281   5.932
    1AU     LIG  234   4.220   6.479   5.774
    1AU     LIG  235   3.743   6.622   5.867
    1AU     LIG  236   3.267   6.768   5.964
    1AU     LIG  237   2.800   6.672   6.069
    1AU    AUSL  238   4.569   5.489   5.830
    1AU    AUSL  239   4.690   5.945   5.589
    1AU     AUL  240   4.397   5.850   5.713
    1AU       S  241   4.186   5.264   5.447
    1AU     LIG  242   3.798   5.509   5.351
    1AU     LIG  243   3.438   5.804   5.483
    1AU     LIG  244   3.070   6.113   5.463
    1AU     LIG  245   2.600   6.162   5.477
    1AU       S  246   4.538   6.202   5.422
    1AU     LIG  247   4.254   6.454   5.197
    1AU     LIG  248   4.208   6.681   4.787
    1AU     LIG  249   3.963   7.023   4.580
    1AU     LIG  250   3.633   7.331   4.707
    1AU    AUSL  251   4.320   5.564   6.185
    1AU    AUSL  252   4.271   5.191   5.904
    1AU     AUL  253   4.165   5.494   5.877
    1AU       S  254   4.051   5.134   6.175
    1AU     LIG  255   3.624   5.147   5.943
    1AU     LIG  256   3.350   4.831   5.744
    1AU     LIG  257   2.946   4.637   5.728
    1AU     LIG  258   2.555   4.801   5.628
    1AU       S  259   4.158   5.610   6.376
    1AU     LIG  260   3.684   5.544   6.332
    1AU     LIG  261   3.263   5.696   6.488
    1AU     LIG  262   2.865   5.951   6.448
    1AU     LIG  263   2.466   6.214   6.341
    1AU    AUSL  264   5.960   4.695   6.086
    1AU    AUSL  265   5.743   4.961   6.386
    1AU     AUL  266   6.071   4.857   6.486
    1AU       S  267   6.289   4.618   6.127
    1AU     LIG  268   6.568   4.293   6.001
    1AU     LIG  269   7.000   4.092   5.975
    1AU     LIG  270   7.450   3.935   6.060
    1AU     LIG  271   7.771   3.843   6.386
    1AU       S  272   5.954   4.428   6.521
    1AU     LIG  273   6.324   4.275   6.756
    1AU     LIG  274   6.486   4.027   7.136
    1AU     LIG  275   6.749   3.835   7.486
    1AU     LIG  276   7.047   3.862   7.862
    1AU    AUSL  277   5.938   5.073   5.860
    1AU    AUSL  278   5.844   4.618   5.673
    1AU     AUL  279   6.130   4.772   5.715
    1AU       S  280   6.471   4.966   5.938
    1AU     LIG  281   6.777   4.699   5.747
    1AU     LIG  282   7.182   4.498   5.713
    1AU     LIG  283   7.605   4.354   5.792
    1AU     LIG  284   7.986   4.316   5.538
    1AU       S  285   6.053   4.470   5.353
    1AU     LIG  286   6.013   4.041   5.200
    1AU     LIG  287   6.243   3.657   5.013
    1AU     LIG  288   6.560   3.359   4.803
    1AU     LIG  289   6.788   2.924   4.863
    1AU    AUSL  290   4.442   4.814   6.066
    1AU    AUSL  291   4.581   5.037   5.655
    1AU     AUL  292   4.222   4.895   5.784
    1AU       S  293   4.435   4.844   5.376
    1AU     LIG  294   4.041   4.789   5.157
    1AU     LIG  295   3.763   4.423   5.053
    1AU     LIG  296   3.485   4.105   4.839
    1AU     LIG  297   3.105   4.068   4.552
    1AU       S  298   4.037   4.899   6.221
    1AU     LIG  299   3.668   4.656   6.113
    1AU     LIG  300   3.213   4.537   6.163
    1AU     LIG  301   2.873   4.320   6.393
    1AU     LIG  302   2.554   3.969   6.323
    1AU    AUSL  303   4.536   5.201   6.261
    1AU    AUSL  304   4.785   4.803   6.324
    1AU     AUL  305   4.445   4.780   6.399
    1AU       S  306   4.491   4.558   6.795
    1AU     LIG  307   4.256   4.161   6.686
    1AU     LIG  308   4.007   3.746   6.699
    1AU     LIG  309   3.734   3.421   6.923
    1AU     LIG  310   3.307   3.334   7.108
    1AU       S  311   4.144   5.134   6.374
    1AU     LIG  312   3.629   5.055   6.448
    1AU     LIG  313   3.200   5.046   6.212
    1AU     LIG  314   2.768   4.867   6.164
    1AU     LIG  315   2.443   4.654   6.436
    1AU    AUSL  316   5.310   6.005   6.398
    1AU    AUSL  317   4.871   6.058   6.329
    1AU     AUL  318   5.100   6.089   6.694
    1AU       S  319   4.728   6.267   6.458
    1AU     LIG  320   4.364   6.468   6.729
    1AU     LIG  321   4.146   6.657   7.125
    1AU     LIG  322   3.925   7.037   7.351
    1AU     LIG  323   3.696   7.486   7.354
    1AU       S  324   5.346   6.399   6.461
    1AU     LIG  325   5.506   6.585   6.839
    1AU     LIG  326   5.566   7.026   6.965
    1AU     LIG  327   5.640   7.481   7.089
    1AU     LIG  328   5.647   7.804   7.433
    1AU    AUSL  329   5.146   6.238   6.051
    1AU    AUSL  330   5.443   6.164   5.678
    1AU     AUL  331   5.356   6.504   5.852
    1AU       S  332   5.160   6.463   6.285
    1AU     LIG  333   5.227   6.887   6.520
    1AU     LIG  334   5.326   7.352   6.639
    1AU     LIG  335   5.105   7.789   6.653
    1AU     LIG  336   4.893   8.177   6.833
    1AU       S  337   5.239   6.387   5.427
    1AU     LIG  338   5.508   6.797   5.302
    1AU     LIG  339   5.699   7.258   5.201
    1AU     LIG  340   6.006   7.671   5.247
    1AU     LIG  341   6.191   8.130   5.259
    1AU    AUSL  342   5.591   6.155   6.092
    1AU    AUSL  343   5.570   5.865   6.705
    1AU     AUL  344   5.712   6.104   6.444
    1AU       S  345   5.795   5.944   6.904
    1AU     LIG  346   6.116   5.952   7.267
    1AU     LIG  347   6.401   6.247   7.496
    1AU     LIG  348   6.628   6.595   7.732
    1AU     LIG  349   6.710   6.796   8.153
    1AU       S  350   5.520   6.500   6.290
    1AU     LIG  351   5.739   6.875   6.482
    1AU     LIG  352   5.873   7.316   6.646
    1AU     LIG  353   5.895   7.782   6.748
    1AU     LIG  354   5.682   8.102   6.997
    1AU    AUSL  355   5.169   4.597   6.417
    1AU    AUSL  356   5.592   4.565   6.273
    1AU     AUL  357   5.371   4.447   6.644
    1AU       S  358   5.117   4.098   6.487
    1AU     LIG  359   5.094   3.785   6.787
    1AU     LIG  360   4.843   3.415   6.914
    1AU     LIG  361   4.890   2.949   6.899
    1AU     LIG  362   5.041   2.500   6.957
    1AU       S  363   5.742   4.343   6.342
    1AU     LIG  364   6.065   3.964   6.411
    1AU     LIG  365   6.359   3.731   6.731
    1AU     LIG  366   6.632   3.509   7.080
    1AU     LIG  367   6.884   3.092   7.154
    1AU    AUSL  368   4.850   4.427   6.144
    1AU    AUSL  369   4.938   4.728   6.747
    1AU     AUL  370   4.826   4.467   6.495
    1AU       S  371   4.939   4.039   6.345
    1AU     LIG  372   4.757   3.628   6.432
    1AU     LIG  373   4.639   3.169   6.490
    1AU     LIG  374   4.467   2.760   6.678
    1AU     LIG  375   4.594   2.316   6.756
    1AU       S  376   4.730   4.613   6.936
    1AU     LIG  377   4.427   4.267   7.173
    1AU     LIG  378   4.117   3.891   7.180
    1AU     LIG  379   3.906   3.538   7.415
    1AU     LIG  380   3.975   3.378   7.856
    1AU    AUSL  381   5.285   4.318   6.101
    1AU    AUSL  382   5.044   4.477   5.756
    1AU     AUL  383   4.916   4.205   5.914
    1AU       S  384   5.270   4.156   5.624
    1AU     LIG  385   5.026   3.696   5.563
    1AU     LIG  386   4.841   3.221   5.548
    1AU     LIG  387   4.719   2.751   5.487
    1AU     LIG  388   4.604   2.432   5.179
    1AU       S  389   5.276   4.130   6.246
    1AU     LIG  390   5.269   3.655   6.298
    1AU     LIG  391   5.163   3.264   6.545
    1AU     LIG  392   5.359   2.846   6.686
    1AU     LIG  393   5.791   2.648   6.703
    1AU    AUSL  394   5.259   5.912   5.345
    1AU    AUSL  395   5.721   5.853   5.763
    1AU     AUL  396   5.582   6.071   5.362
    1AU       S  397   5.177   6.291   5.239
    1AU     LIG  398   5.252   6.573   4.921
    1AU     LIG  399   5.413   6.994   4.832
    1AU     LIG  400   5.509   7.412   4.688
    1AU     LIG  401   5.590   7.641   4.281
    1AU       S  402   5.933   6.058   5.646
    1AU     LIG  403   6.156   6.443   5.416
    1AU     LIG  404   6.471   6.567   5.047
    1AU     LIG  405   6.757   6.777   4.710
    1AU     LIG  406   7.121   7.108   4.666
    1AU    AUSL  407   5.075   5.946   5.752
    1AU    AUSL  408   4.961   5.621   5.451
    1AU     AUL  409   4.914   5.923   5.311
    1AU       S  410   5.003   6.314   5.572
    1AU     LIG  411   4.960   6.767   5.334
    1AU     LIG  412   5.162   7.197   5.252
    1AU     LIG  413   5.044   7.666   5.281
    1AU     LIG  414   4.803   8.025   5.089
    1AU       S  415   4.476   5.979   5.179
    1AU     LIG  416   4.517   6.218   4.819
    1AU     LIG  417   4.436   6.408   4.409
    1AU     LIG  418   4.144   6.709   4.215
    1AU     LIG  419   4.151   7.172   4.066
    1AU    AUSL  420   5.265   4.583   5.387
    1AU    AUSL  421   4.639   4.604   5.748
    1AU     AUL  422   4.895   4.438   5.447
    1AU       S  423   4.451   4.561   5.546
    1AU     LIG  424   4.062   4.336   5.475
    1AU     LIG  425   3.852   3.960   5.271
    1AU     LIG  426   3.680   3.629   4.971
    1AU     LIG  427   3.493   3.195   4.819
    1AU       S  428   5.305   4.185   5.401
    1AU     LIG  429   5.275   3.793   5.138
    1AU     LIG  430   5.018   3.374   5.087
    1AU     LIG  431   4.834   2.930   5.008
    1AU     LIG  432   4.798   2.558   4.704
    1AU    AUSL  433   5.451   4.587   5.812
    1AU    AUSL  434   5.546   4.893   5.487
    1AU     AUL  435   5.601   4.542   5.424
    1AU       S  436   5.515   4.199   5.717
    1AU     LIG  437   5.552   3.748   5.578
    1AU     LIG  438   5.362   3.322   5.463
    1AU     LIG  439   5.216   2.873   5.372
    1AU     LIG  440   5.372   2.409   5.418
    1AU       S  441   5.866   4.688   5.087
    1AU     LIG  442   5.760   4.334   4.835
    1AU     LIG  443   5.960   3.944   4.684
    1AU     LIG  444   6.235   3.636   4.460
    1AU     LIG  445   6.459   3.555   4.050
    2POPC   NC3  446  10.058   5.968   8.069
    2POPC   PO4  447  10.433   5.419   8.020
    2POPC   GL1  448  10.271   5.508   7.676
    2POPC   GL2  449  10.286   5.806   7.653
    2POPC   C1A  450  10.177   5.346   7.287
    2POPC   D2A  451  10.369   5.380   6.906
    2POPC   C3A  452  10.151   5.431   6.490
    2POPC   C4A  453  10.135   5.407   5.993
    2POPC   C1B  454  10.213   5.920   7.295
    2POPC   C2B  455  10.225   6.003   6.918
    2POPC   C3B  456  10.007   5.911   6.601
    2POPC   C4B  457  10.218   5.856   6.234
    3POPC   NC3  458   0.477   9.270   8.314
    3POPC   PO4  459   0.692   9.628   7.843
    3POPC   GL1  460   0.529   9.488   7.488
    3POPC   GL2  461   0.384   9.207   7.567
    3POPC   C1A  462   0.239   9.566   7.193
    3POPC   D2A  463   0.369   9.698   6.814
    3POPC   C3A  464   0.086   9.680   6.511
    3POPC   C4A  465   0.266   9.721   6.148
    3POPC   C1B  466   0.263   9.032   7.197
    3POPC   C2B  467   0.504   9.125   6.815
    3POPC   C3B  468   0.433   9.320   6.420
    3POPC   C4B  469   0.497   9.316   5.929
    4POPC   NC3  470   9.454   7.333   8.172
    4POPC   PO4  471   9.081   6.787   8.108
    4POPC   GL1  472   9.263   7.045   7.790
    4POPC   GL2  473   9.622   6.993   7.778
    4POPC   C1A  474   9.176   7.098   7.367
    4POPC   D2A  475   9.141   6.895   6.963
    4POPC   C3A  476   9.201   7.166   6.592
    4POPC   C4A  477   9.202   7.125   6.156
    4POPC   C1B  478   9.716   7.171   7.374
    4POPC   C2B  479   9.780   7.008   6.980
    4POPC   C3B  480   9.855   7.196   6.603
    4POPC   C4B  481   9.641   7.414   6.293
    5POPC   NC3  482   5.930   8.571   7.982
    5POPC   PO4  483   5.759   9.240   8.105
    5POPC   GL1  484   5.963   9.010   7.756
    5POPC   GL2  485   5.652   8.974   7.543
    5POPC   C1A  486   6.105   9.025   7.319
    5POPC   D2A  487   5.809   9.229   7.003
    5POPC   C3A  488   5.737   9.078   6.570
    5POPC   C4A  489   5.671   8.743   6.292
    5POPC   C1B  490   5.755   8.677   7.201
    5POPC   C2B  491   5.602   8.570   6.787
    5POPC   C3B  492   5.618   8.248   6.465
    5POPC   C4B  493   5.706   8.263   6.012
    6POPC   NC3  494   6.441   1.981   8.103
    6POPC   PO4  495   6.046   2.446   8.000
    6POPC   GL1  496   6.361   2.161   7.633
    6POPC   GL2  497   6.502   1.800   7.612
    6POPC   C1A  498   6.489   2.044   7.157
    6POPC   D2A  499   6.280   2.274   6.787
    6POPC   C3A  500   6.528   2.338   6.398
    6POPC   C4A  501   6.387   2.253   5.956
    6POPC   C1B  502   6.675   1.464   7.302
    6POPC   C2B  503   6.740   1.591   6.870
    6POPC   C3B  504   6.568   1.882   6.645
    6POPC   C4B  505   6.385   1.861   6.270
    7POPC   NC3  506   9.059   5.917   8.074
    7POPC   PO4  507   8.861   5.311   8.181
    7POPC   GL1  508   8.856   5.365   7.732
    7POPC   GL2  509   8.545   5.466   7.644
    7POPC   C1A  510   8.932   5.517   7.281
    7POPC   D2A  511   9.082   5.652   6.853
    7POPC   C3A  512   8.945   5.499   6.441
    7POPC   C4A  513   8.899   5.660   6.027
    7POPC   C1B  514   8.422   5.647   7.237
    7POPC   C2B  515   8.559   5.608   6.793
    7POPC   C3B  516   8.464   5.656   6.345
    7POPC   C4B  517   8.120   5.649   6.078
    8POPC   NC3  518   3.714   9.693   8.054
    8POPC   PO4  519   3.064   9.731   8.162
    8POPC   GL1  520   3.282   9.700   7.766
    8POPC   GL2  521   3.391   9.347   7.792
    8POPC   C1A  522   3.348   9.810   7.331
    8POPC   D2A  523   3.167   9.723   6.898
    8POPC   C3A  524   3.461   9.580   6.580
    8POPC   C4A  525   3.440   9.433   6.144
    8POPC   C1B  526   3.447   9.177   7.391
    8POPC   C2B  527   3.436   9.247   6.967
    8POPC   C3B  528   3.547   9.049   6.552
    8POPC   C4B  529   3.764   8.947   6.172
    9POPC   NC3  530   2.603   7.856   8.421
    9POPC   PO4  531   3.039   8.225   8.091
    9POPC   GL1  532   2.672   7.981   7.883
    9POPC   GL2  533   2.439   8.180   7.694
    9POPC   C1A  534   2.601   7.760   7.446
    9POPC   D2A  535   2.849   7.657   7.056
    9POPC   C3A  536   2.674   7.731   6.642
    9POPC   C4A  537   2.525   7.526   6.265
    9POPC   C1B  538   2.875   8.198   7.452
    9POPC   C2B  539   3.009   8.147   7.029
    9POPC   C3B  540   3.013   8.107   6.557
    9POPC   C4B  541   2.798   7.969   6.169
   10POPC   NC3  542   8.642   6.769   8.321
   10POPC   PO4  543   8.553   7.460   8.320
   10POPC   GL1  544   8.784   7.365   7.876
   10POPC   GL2  545   8.761   7.036   7.697
   10POPC   C1A  546   8.767   7.485   7.364
   10POPC   D2A  547   8.505   7.672   6.971
   10POPC   C3A  548   8.423   7.501   6.511
   10POPC   C4A  549   8.435   7.553   6.040
   10POPC   C1B  550   8.695   7.006   7.229
   10POPC   C2B  551   8.738   7.200   6.818
   10POPC   C3B  552   8.736   7.047   6.381
   10POPC   C4B  553   8.744   7.151   5.916
   11POPC   NC3  554   6.132   9.040   8.265
   11POPC   PO4  555   6.289   8.372   8.178
   11POPC   GL1  556   6.389   8.529   7.746
   11POPC   GL2  557   6.659   8.759   7.722
   11POPC   C1A  558   6.368   8.589   7.276
   11POPC   D2A  559   6.668   8.438   6.963
   11POPC   C3A  560   6.551   8.508   6.534
   11POPC   C4A  561   6.424   8.532   6.093
   11POPC   C1B  562   6.703   8.951   7.329
   11POPC   C2B  563   6.571   8.957   6.914
   11POPC   C3B  564   6.620   9.005   6.489
   11POPC   C4B  565   6.186   8.960   6.262
   12POPC   NC3  566   5.042   1.175   8.084
   12POPC   PO4  567   5.264   1.828   8.078
   12POPC   GL1  568   4.934   1.578   7.765
   12POPC   GL2  569   4.907   1.232   7.616
   12POPC   C1A  570   4.726   1.549   7.292
   12POPC   D2A  571   5.008   1.505   6.895
   12POPC   C3A  572   4.809   1.511   6.494
   12POPC   C4A  573   4.856   1.412   6.043
   12POPC   C1B  574   4.949   1.069   7.210
   12POPC   C2B  575   4.825   1.067   6.787
   12POPC   C3B  576   5.014   1.053   6.379
   12POPC   C4B  577   4.621   0.972   6.167
   13POPC   NC3  578   0.220   9.531   7.893
   13POPC   PO4  579  10.006   9.425   8.053
   13POPC   GL1  580  10.223   9.560   7.719
   13POPC   GL2  581  10.351   9.220   7.654
   13POPC   C1A  582  10.163   9.828   7.354
   13POPC   D2A  583  10.324   9.779   6.939
   13POPC   C3A  584  10.108   9.880   6.556
   13POPC   C4A  585  10.217   9.679   6.154
   13POPC   C1B  586  10.292   9.319   7.242
   13POPC   C2B  587  10.466   9.273   6.834
   13POPC   C3B  588  10.144   9.361   6.559
   13POPC   C4B  589   9.995   9.231   6.176
   14POPC   NC3  590   1.415   5.562   7.940
   14POPC   PO4  591   0.879   5.586   8.094
   14POPC   GL1  592   1.017   5.689   7.677
   14POPC   GL2  593   1.274   5.402   7.494
   14POPC   C1A  594   1.120   5.845   7.312
   14POPC   D2A  595   1.243   5.657   6.906
   14POPC   C3A  596   1.086   5.848   6.513
   14POPC   C4A  597   1.148   5.652   6.110
   14POPC   C1B  598   0.873   5.406   7.252
   14POPC   C2B  599   0.796   5.355   6.816
   14POPC   C3B  600   0.837   5.366   6.366
   14POPC   C4B  601   0.826   5.290   5.881
   15POPC   NC3  602   8.546   3.391   8.019
   15POPC   PO4  603   8.605   4.019   7.820
   15POPC   GL1  604   8.712   3.665   7.516
   15POPC   GL2  605   8.712   3.276   7.540
   15POPC   C1A  606   8.852   3.533   7.084
   15POPC   D2A  607   8.617   3.441   6.700
   15POPC   C3A  608   8.853   3.360   6.349
   15POPC   C4A  609   8.807   3.562   5.966
   15POPC   C1B  610   8.383   3.393   7.221
   15POPC   C2B  611   8.206   3.667   6.918
   15POPC   C3B  612   8.120   3.499   6.523
   15POPC   C4B  613   8.380   3.578   6.214
   16POPC   NC3  614   0.497   2.748   8.071
   16POPC   PO4  615   0.299   2.090   8.166
   16POPC   GL1  616   0.361   2.380   7.738
   16POPC   GL2  617   0.139   2.674   7.708
   16POPC   C1A  618   0.120   2.393   7.309
   16POPC   D2A  619   0.155   2.637   6.915
   16POPC   C3A  620   0.476   2.548   6.583
   16POPC   C4A  621   0.150   2.488   6.276
   16POPC   C1B  622   0.414   2.811   7.336
   16POPC   C2B  623   0.450   3.058   6.950
   16POPC   C3B  624   0.312   3.034   6.516
   16POPC   C4B  625   0.490   2.867   6.147
   17POPC   NC3  626   8.933   7.725   8.291
   17POPC   PO4  627   8.614   8.155   7.927
   17POPC   GL1  628   8.668   7.962   7.575
   17POPC   GL2  629   8.986   7.791   7.690
   17POPC   C1A  630   8.618   8.239   7.220
   17POPC   D2A  631   8.343   8.249   6.883
   17POPC   C3A  632   8.504   8.044   6.577
   17POPC   C4A  633   8.599   8.189   6.165
   17POPC   C1B  634   9.073   7.935   7.249
   17POPC   C2B  635   8.960   8.129   6.830
   17POPC   C3B  636   8.963   7.937   6.411
   17POPC   C4B  637   8.903   7.515   6.279
   18POPC   NC3  638   2.837  10.098   8.358
   18POPC   PO4  639   3.323  10.270   7.916
   18POPC   GL1  640   3.617  10.200   7.630
   18POPC   GL2  641   3.946  10.085   7.763
   18POPC   C1A  642   3.575  10.274   7.194
   18POPC   D2A  643   3.422  10.181   6.777
   18POPC   C3A  644   3.597  10.412   6.391
   18POPC   C4A  645   3.398  10.335   5.956
   18POPC   C1B  646   3.884   9.870   7.364
   18POPC   C2B  647   3.720   9.795   6.977
   18POPC   C3B  648   3.814   9.944   6.582
   18POPC   C4B  649   3.549   9.937   6.230
   19POPC   NC3  650   9.684   8.233   8.061
   19POPC   PO4  651   9.374   7.708   8.416
   19POPC   GL1  652   9.500   7.736   7.889
   19POPC   GL2  653   9.469   8.012   7.661
   19POPC   C1A  654   9.379   7.559   7.455
   19POPC   D2A  655   9.172   7.477   7.015
   19POPC   C3A  656   9.332   7.657   6.604
   19POPC   C4A  657   9.332   7.752   6.112
   19POPC   C1B  658   9.557   8.190   7.300
   19POPC   C2B  659   9.466   8.053   6.897
   19POPC   C3B  660   9.441   8.140   6.455
   19POPC   C4B  661   9.705   8.096   6.095
   20POPC   NC3  662   8.386   9.210   8.145
   20POPC   PO4  663   8.959   8.960   8.060
   20POPC   GL1  664   8.698   9.091   7.690
   20POPC   GL2  665   8.483   9.410   7.674
   20POPC   C1A  666   8.604   9.167   7.232
   20POPC   D2A  667   8.763   9.133   6.827
   20POPC   C3A  668   8.574   9.136   6.453
   20POPC   C4A  669   8.809   9.144   6.100
   20POPC   C1B  670   8.879   9.533   7.441
   20POPC   C2B  671   8.913   9.600   6.996
   20POPC   C3B  672   8.593   9.609   6.674
   20POPC   C4B  673   8.655   9.604   6.246
   21POPC   NC3  674   9.354   4.665   8.484
   21POPC   PO4  675   9.368   4.502   7.885
   21POPC   GL1  676   9.495   4.756   7.624
   21POPC   GL2  677   9.525   5.043   7.810
   21POPC   C1A  678   9.490   4.750   7.187
   21POPC   D2A  679   9.204   4.750   6.894
   21POPC   C3A  680   9.328   4.706   6.483
   21POPC   C4A  681   9.002   4.634   6.216
   21POPC   C1B  682   9.654   5.194   7.399
   21POPC   C2B  683   9.390   5.274   7.060
   21POPC   C3B  684   9.277   5.196   6.663
   21POPC   C4B  685   9.457   5.169   6.288
   22POPC   NC3  686   0.846   0.900   8.152
   22POPC   PO4  687   1.409   0.764   8.043
   22POPC   GL1  688   1.157   0.910   7.700
   22POPC   GL2  689   1.029   1.237   7.796
   22POPC   C1A  690   1.163   1.092   7.279
   22POPC   D2A  691   1.393   1.094   6.913
   22POPC   C3A  692   1.212   0.888   6.586
   22POPC   C4A  693   1.170   1.079   6.212
   22POPC   C1B  694   1.264   1.518   7.531
   22POPC   C2B  695   1.244   1.578   7.089
   22POPC   C3B  696   1.080   1.455   6.685
   22POPC   C4B  697   1.385   1.515   6.375
   23POPC   NC3  698   6.905   8.702   8.161
   23POPC   PO4  699   7.315   9.224   8.196
   23POPC   GL1  700   7.072   9.064   7.833
   23POPC   GL2  701   7.241   8.726   7.766
   23POPC   C1A  702   7.197   9.037   7.378
   23POPC   D2A  703   7.115   8.790   6.997
   23POPC   C3A  704   7.260   8.895   6.569
   23POPC   C4A  705   7.049   8.811   6.170
   23POPC   C1B  706   7.022   8.500   7.426
   23POPC   C2B  707   7.152   8.268   7.053
   23POPC   C3B  708   7.083   8.415   6.630
   23POPC   C4B  709   6.916   8.333   6.225
   24POPC   NC3  710   0.157   6.361   8.341
   24POPC   PO4  711   9.991   6.397   8.250
   24POPC   GL1  712   9.903   6.471   7.801
   24POPC   GL2  713  10.161   6.304   7.678
   24POPC   C1A  714   9.843   6.337   7.294
   24POPC   D2A  715   9.997   6.470   6.855
   24POPC   C3A  716   9.763   6.352   6.504
   24POPC   C4A  717   9.768   6.077   6.187
   24POPC   C1B  718  10.335   6.414   7.264
   24POPC   C2B  719  10.489   6.431   6.832
   24POPC   C3B  720  10.298   6.351   6.413
   24POPC   C4B  721  10.409   6.573   6.018
   25POPC   NC3  722   5.362   0.415   8.212
   25POPC   PO4  723   4.722   0.097   8.207
   25POPC   GL1  724   4.811   0.343   7.819
   25POPC   GL2  725   4.928   0.709   7.838
   25POPC   C1A  726   4.988   0.275   7.382
   25POPC   D2A  727   5.109   0.426   6.961
   25POPC   C3A  728   4.987   0.141   6.614
   25POPC   C4A  729   5.154   0.110   6.197
   25POPC   C1B  730   4.698   0.693   7.457
   25POPC   C2B  731   4.635   0.657   7.015
   25POPC   C3B  732   4.782   0.618   6.573
   25POPC   C4B  733   4.972   0.590   6.163
   26POPC   NC3  734   5.936   1.263   8.003
   26POPC   PO4  735   5.405   0.841   7.999
   26POPC   GL1  736   5.373   1.016   7.572
   26POPC   GL2  737   5.444   1.374   7.651
   26POPC   C1A  738   5.444   1.133   7.101
   26POPC   D2A  739   5.773   1.227   6.753
   26POPC   C3A  740   5.587   1.026   6.375
   26POPC   C4A  741   5.405   0.840   6.023
   26POPC   C1B  742   5.687   1.529   7.265
   26POPC   C2B  743   5.506   1.678   6.866
   26POPC   C3B  744   5.402   1.516   6.468
   26POPC   C4B  745   5.800   1.458   6.239
   27POPC   NC3  746   9.393   5.188   8.284
   27POPC   PO4  747   9.558   5.878   8.173
   27POPC   GL1  748   9.410   5.839   7.725
   27POPC   GL2  749   9.675   6.045   7.678
   27POPC   C1A  750   9.386   5.759   7.255
   27POPC   D2A  751   9.519   6.013   6.875
   27POPC   C3A  752   9.359   5.863   6.475
   27POPC   C4A  753   9.298   5.991   6.073
   27POPC   C1B  754   9.822   5.670   7.485
   27POPC   C2B  755   9.847   5.622   7.034
   27POPC   C3B  756   9.674   5.505   6.665
   27POPC   C4B  757   9.729   5.583   6.234
   28POPC   NC3  758   5.308   9.152   7.901
   28POPC   PO4  759   5.650   9.742   8.104
   28POPC   GL1  760   5.527   9.561   7.719
   28POPC   GL2  761   5.806   9.466   7.642
   28POPC   C1A  762   5.386   9.335   7.292
   28POPC   D2A  763   5.168   9.465   6.917
   28POPC   C3A  764   5.316   9.364   6.519
   28POPC   C4A  765   5.437   9.550   6.145
   28POPC   C1B  766   5.760   9.682   7.286
   28POPC   C2B  767   5.599   9.761   6.912
   28POPC   C3B  768   5.759   9.615   6.543
   28POPC   C4B  769   5.955   9.439   6.199
   29POPC   NC3  770   9.520   2.594   8.336
   29POPC   PO4  771   9.717   3.210   8.147
   29POPC   GL1  772   9.619   2.874   7.824
   29POPC   GL2  773   9.245   2.766   7.753
   29POPC   C1A  774   9.606   2.697   7.394
   29POPC   D2A  775   9.267   2.764   7.075
   29POPC   C3A  776   9.399   2.874   6.663
   29POPC   C4A  777   9.616   2.618   6.354
   29POPC   C1B  778   9.193   2.392   7.456
   29POPC   C2B  779   9.150   2.260   7.046
   29POPC   C3B  780   9.199   2.397   6.639
   29POPC   C4B  781   9.191   2.368   6.216
   30POPC   NC3  782   2.683   3.447   8.525
   30POPC   PO4  783   2.291   3.310   8.160
   30POPC   GL1  784   2.326   3.466   7.755
   30POPC   GL2  785   2.340   3.155   7.585
   30POPC   C1A  786   2.572   3.564   7.365
   30POPC   D2A  787   2.753   3.371   6.994
   30POPC   C3A  788   2.595   3.450   6.561
   30POPC   C4A  789   2.439   3.482   6.134
   30POPC   C1B  790   2.806   3.106   7.473
   30POPC   C2B  791   2.985   2.924   7.087
   30POPC   C3B  792   2.963   3.037   6.644
   30POPC   C4B  793   3.161   3.222   6.279
   31POPC   NC3  794   4.688  10.142   8.345
   31POPC   PO4  795   4.161   9.772   8.140
   31POPC   GL1  796   4.442   9.917   7.820
   31POPC   GL2  797   4.463  10.247   7.722
   31POPC   C1A  798   4.414   9.874   7.356
   31POPC   D2A  799   4.198   9.976   6.961
   31POPC   C3A  800   4.309   9.829   6.567
   31POPC   C4A  801   4.435   9.975   6.174
   31POPC   C1B  802   4.157  10.323   7.348
   31POPC   C2B  803   3.964  10.409   6.912
   31POPC   C3B  804   4.159  10.314   6.535
   31POPC   C4B  805   4.185   0.022   6.183
   32POPC   NC3  806   2.834   5.306   8.596
   32POPC   PO4  807   2.387   5.210   8.157
   32POPC   GL1  808   2.381   5.386   7.689
   32POPC   GL2  809   2.440   5.750   7.633
   32POPC   C1A  810   2.578   5.443   7.235
   32POPC   D2A  811   2.676   5.598   6.802
   32POPC   C3A  812   2.851   5.393   6.409
   32POPC   C4A  813   3.103   5.521   6.030
   32POPC   C1B  814   2.430   5.946   7.181
   32POPC   C2B  815   2.294   5.928   6.733
   32POPC   C3B  816   2.443   5.706   6.352
   32POPC   C4B  817   2.386   5.875   5.912
   33POPC   NC3  818   5.676  10.207   8.146
   33POPC   PO4  819   6.282  10.089   7.913
   33POPC   GL1  820   5.899   9.991   7.676
   33POPC   GL2  821   5.543  10.121   7.675
   33POPC   C1A  822   5.821  10.174   7.269
   33POPC   D2A  823   5.979  10.344   6.913
   33POPC   C3A  824   5.859  10.114   6.571
   33POPC   C4A  825   6.012  10.161   6.158
   33POPC   C1B  826   5.312  10.323   7.324
   33POPC   C2B  827   5.462  10.257   6.915
   33POPC   C3B  828   5.397  10.325   6.514
   33POPC   C4B  829   5.512  10.162   6.124
   34POPC   NC3  830   6.170   9.650   7.986
   34POPC   PO4  831   6.574   9.077   8.157
   34POPC   GL1  832   6.436   9.252   7.735
   34POPC   GL2  833   6.738   9.378   7.579
   34POPC   C1A  834   6.222   9.501   7.374
   34POPC   D2A  835   6.122   9.629   6.935
   34POPC   C3A  836   6.195   9.312   6.626
   34POPC   C4A  837   6.465   9.398   6.232
   34POPC   C1B  838   6.645   9.613   7.175
   34POPC   C2B  839   6.608   9.540   6.756
   34POPC   C3B  840   6.760   9.752   6.450
   34POPC   C4B  841   6.960   9.819   6.117
   35POPC   NC3  842   0.594   1.832   7.896
   35POPC   PO4  843  10.418   1.713   8.007
   35POPC   GL1  844   0.152   1.665   7.714
   35POPC   GL2  845   0.178   1.943   7.597
   35POPC   C1A  846   0.241   1.541   7.304
   35POPC   D2A  847   0.405   1.671   6.936
   35POPC   C3A  848   0.522   1.514   6.592
   35POPC   C4A  849   0.417   1.696   6.220
   35POPC   C1B  850   0.469   2.026   7.304
   35POPC   C2B  851   0.396   2.177   6.928
   35POPC   C3B  852   0.276   2.064   6.549
   35POPC   C4B  853   0.566   2.173   6.200
   36POPC   NC3  854   3.370   1.096   8.315
   36POPC   PO4  855   3.106   1.444   7.905
   36POPC   GL1  856   3.397   1.184   7.700
   36POPC   GL2  857   3.539   0.836   7.654
   36POPC   C1A  858   3.290   1.126   7.291
   36POPC   D2A  859   3.032   1.085   6.953
   36POPC   C3A  860   3.283   1.196   6.608
   36POPC   C4A  861   3.158   1.339   6.206
   36POPC   C1B  862   3.801   1.037   7.340
   36POPC   C2B  863   3.833   1.255   6.983
   36POPC   C3B  864   3.844   1.101   6.616
   36POPC   C4B  865   3.654   1.198   6.246
   37POPC   NC3  866   9.778   4.298   8.037
   37POPC   PO4  867  10.492   4.421   8.018
   37POPC   GL1  868  10.322   4.439   7.672
   37POPC   GL2  869  10.050   4.205   7.627
   37POPC   C1A  870  10.394   4.435   7.285
   37POPC   D2A  871  10.118   4.453   6.981
   37POPC   C3A  872  10.358   4.477   6.646
   37POPC   C4A  873  10.242   4.617   6.243
   37POPC   C1B  874  10.230   3.947   7.312
   37POPC   C2B  875  10.130   3.940   6.910
   37POPC   C3B  876   9.976   4.175   6.581
   37POPC   C4B  877  10.133   4.121   6.174
   38POPC   NC3  878   7.586   0.145   7.837
   38POPC   PO4  879   7.654   0.766   8.026
   38POPC   GL1  880   7.897   0.525   7.709
   38POPC   GL2  881   7.977   0.155   7.539
   38POPC   C1A  882   7.889   0.599   7.285
   38POPC   D2A  883   7.854   0.864   6.967
   38POPC   C3A  884   7.778   0.682   6.601
   38POPC   C4A  885   7.970   0.757   6.251
   38POPC   C1B  886   7.963   0.108   7.142
   38POPC   C2B  887   7.686   0.242   6.841
   38POPC   C3B  888   7.925   0.194   6.483
   38POPC   C4B  889   7.919   0.282   6.048
   39POPC   NC3  890   8.031   1.997   8.076
   39POPC   PO4  891   7.456   1.615   8.197
   39POPC   GL1  892   7.534   1.676   7.733
   39POPC   GL2  893   7.870   1.739   7.673
   39POPC   C1A  894   7.615   1.658   7.253
   39POPC   D2A  895   7.907   1.718   6.929
   39POPC   C3A  896   7.627   1.774   6.599
   39POPC   C4A  897   7.564   1.769   6.186
   39POPC   C1B  898   7.976   2.025   7.374
   39POPC   C2B  899   8.221   2.123   6.984
   39POPC   C3B  900   8.016   2.089   6.570
   39POPC   C4B  901   7.852   2.202   6.188
   40POPC   NC3  902  10.334   7.828   7.963
   40POPC   PO4  903   9.885   7.358   7.993
   40POPC   GL1  904   9.908   7.590   7.603
   40POPC   GL2  905   9.968   7.941   7.613
   40POPC   C1A  906   9.785   7.711   7.174
   40POPC   D2A  907   9.977   7.956   6.842
   40POPC   C3A  908  10.023   7.825   6.402
   40POPC   C4A  909  10.397   7.796   6.104
   40POPC   C1B  910  10.293   7.818   7.290
   40POPC   C2B  911  10.491   7.873   6.871
   40POPC   C3B  912  10.398   8.162   6.529
   40POPC   C4B  913  10.203   8.270   6.134
   41POPC   NC3  914   2.187   4.766   8.058
   41POPC   PO4  915   1.685   5.234   8.077
   41POPC   GL1  916   1.879   5.271   7.652
   41POPC   GL2  917   1.845   4.937   7.578
   41POPC   C1A  918   2.205   5.101   7.280
   41POPC   D2A  919   2.182   4.965   6.812
   41POPC   C3A  920   2.384   5.153   6.420
   41POPC   C4A  921   2.271   4.950   6.013
   41POPC   C1B  922   1.738   5.225   7.157
   41POPC   C2B  923   1.686   5.145   6.705
   41POPC   C3B  924   1.904   4.902   6.363
   41POPC   C4B  925   1.764   4.648   5.973
   42POPC   NC3  926   7.719   8.466   8.108
   42POPC   PO4  927   8.273   8.290   8.342
   42POPC   GL1  928   8.156   8.424   7.817
   42POPC   GL2  929   7.853   8.640   7.655
   42POPC   C1A  930   8.119   8.368   7.335
   42POPC   D2A  931   7.897   8.496   6.937
   42POPC   C3A  932   7.931   8.312   6.522
   42POPC   C4A  933   8.147   8.399   6.143
   42POPC   C1B  934   7.658   8.822   7.268
   42POPC   C2B  935   7.813   8.978   6.848
   42POPC   C3B  936   7.756   8.843   6.426
   42POPC   C4B  937   7.524   8.980   6.043
   43POPC   NC3  938   1.073   5.971   8.256
   43POPC   PO4  939   1.187   6.611   8.069
   43POPC   GL1  940   1.273   6.268   7.772
   43POPC   GL2  941   0.956   6.209   7.648
   43POPC   C1A  942   1.432   6.224   7.338
   43POPC   D2A  943   1.221   6.189   6.953
   43POPC   C3A  944   1.416   6.273   6.583
   43POPC   C4A  945   1.526   6.107   6.205
   43POPC   C1B  946   1.110   6.603   7.401
   43POPC   C2B  947   1.159   6.832   7.019
   43POPC   C3B  948   1.267   6.920   6.575
   43POPC   C4B  949   1.144   6.599   6.285
   44POPC   NC3  950   1.439   3.196   8.382
   44POPC   PO4  951   0.876   3.021   8.032
   44POPC   GL1  952   1.141   3.187   7.687
   44POPC   GL2  953   1.255   3.548   7.745
   44POPC   C1A  954   1.224   3.318   7.261
   44POPC   D2A  955   1.166   3.596   6.921
   44POPC   C3A  956   1.246   3.320   6.623
   44POPC   C4A  957   1.059   3.274   6.256
   44POPC   C1B  958   1.466   3.757   7.370
   44POPC   C2B  959   1.670   3.551   7.016
   44POPC   C3B  960   1.603   3.686   6.612
   44POPC   C4B  961   1.416   3.614   6.226
   45POPC   NC3  962   1.208   9.529   7.973
   45POPC   PO4  963   0.770   8.959   8.154
   45POPC   GL1  964   0.868   9.123   7.723
   45POPC   GL2  965   1.033   9.399   7.533
   45POPC   C1A  966   0.791   9.084   7.259
   45POPC   D2A  967   1.051   9.360   6.990
   45POPC   C3A  968   0.902   9.444   6.610
   45POPC   C4A  969   0.885   9.178   6.260
   45POPC   C1B  970   1.337   9.608   7.340
   45POPC   C2B  971   1.448   9.721   6.934
   45POPC   C3B  972   1.419   9.513   6.577
   45POPC   C4B  973   1.242   9.501   6.203
   46POPC   NC3  974   8.832   2.507   8.388
   46POPC   PO4  975   8.434   3.008   8.263
   46POPC   GL1  976   8.491   2.824   7.787
   46POPC   GL2  977   8.729   2.525   7.776
   46POPC   C1A  978   8.351   2.876   7.318
   46POPC   D2A  979   8.574   2.986   6.940
   46POPC   C3A  980   8.382   3.004   6.529
   46POPC   C4A  981   8.571   2.990   6.135
   46POPC   C1B  982   8.791   2.646   7.315
   46POPC   C2B  983   8.669   2.464   6.905
   46POPC   C3B  984   8.710   2.598   6.477
   46POPC   C4B  985   9.040   2.852   6.292
   47POPC   NC3  986   0.479   8.583   8.078
   47POPC   PO4  987   0.085   9.124   8.094
   47POPC   GL1  988   0.166   8.791   7.732
   47POPC   GL2  989   0.542   8.725   7.570
   47POPC   C1A  990   0.113   8.504   7.385
   47POPC   D2A  991   0.107   8.404   6.959
   47POPC   C3A  992   0.282   8.681   6.643
   47POPC   C4A  993   0.137   8.539   6.225
   47POPC   C1B  994   0.590   8.646   7.089
   47POPC   C2B  995   0.815   8.429   6.748
   47POPC   C3B  996   0.873   8.698   6.415
   47POPC   C4B  997   0.501   8.869   6.187
   48POPC   NC3  998   2.820   0.551   8.021
   48POPC   PO4  999   2.669  10.428   8.061
   48POPC   GL1 1000   2.526   0.261   7.708
   48POPC   GL2 1001   2.633   0.618   7.569
   48POPC   C1A 1002   2.578   0.234   7.260
   48POPC   D2A 1003   2.600   0.526   6.945
   48POPC   C3A 1004   2.734   0.346   6.562
   48POPC   C4A 1005   2.529   0.383   6.177
   48POPC   C1B 1006   2.970   0.699   7.289
   48POPC   C2B 1007   3.101   0.596   6.859
   48POPC   C3B 1008   3.021   0.776   6.528
   48POPC   C4B 1009   2.917   0.694   6.176
   49POPC   NC3 1010   9.610   0.239   8.367
   49POPC   PO4 1011   9.648   0.721   7.910
   49POPC   GL1 1012   9.591   0.445   7.588
   49POPC   GL2 1013   9.246   0.451   7.618
   49POPC   C1A 1014   9.489   0.332   7.160
   49POPC   D2A 1015   9.134   0.171   6.907
   49POPC   C3A 1016   9.328   0.242   6.510
   49POPC   C4A 1017   9.671   0.192   6.211
   49POPC   C1B 1018   9.288   0.771   7.307
   49POPC   C2B 1019   9.215   0.684   6.890
   49POPC   C3B 1020   9.305   0.806   6.494
   49POPC   C4B 1021   9.438   0.629   6.181
   50POPC   NC3 1022   3.889   1.006   7.970
   50POPC   PO4 1023   4.563   1.206   8.172
   50POPC   GL1 1024   4.456   1.034   7.780
   50POPC   GL2 1025   4.333   0.706   7.829
   50POPC   C1A 1026   4.446   1.112   7.331
   50POPC   D2A 1027   4.371   1.348   6.961
   50POPC   C3A 1028   4.382   1.230   6.549
   50POPC   C4A 1029   4.370   1.499   6.173
   50POPC   C1B 1030   4.171   0.672   7.394
   50POPC   C2B 1031   4.162   0.858   6.987
   50POPC   C3B 1032   4.239   0.719   6.594
   50POPC   C4B 1033   4.115   0.932   6.234
   51POPC   NC3 1034   3.171   2.733   8.024
   51POPC   PO4 1035   3.744   2.781   8.099
   51POPC   GL1 1036   3.662   2.753   7.648
   51POPC   GL2 1037   3.426   2.460   7.637
   51POPC   C1A 1038   3.656   2.945   7.196
   51POPC   D2A 1039   3.447   2.984   6.772
   51POPC   C3A 1040   3.643   3.018   6.351
   51POPC   C4A 1041   3.533   3.146   5.907
   51POPC   C1B 1042   3.299   2.534   7.204
   51POPC   C2B 1043   3.140   2.542   6.783
   51POPC   C3B 1044   3.308   2.640   6.395
   51POPC   C4B 1045   3.224   2.344   6.061
   52POPC   NC3 1046   2.501   1.195   7.951
   52POPC   PO4 1047   2.860   1.627   8.356
   52POPC   GL1 1048   2.677   1.620   7.764
   52POPC   GL2 1049   2.817   1.252   7.556
   52POPC   C1A 1050   2.648   1.590   7.237
   52POPC   D2A 1051   2.892   1.539   6.808
   52POPC   C3A 1052   2.747   1.218   6.484
   52POPC   C4A 1053   2.553   1.351   6.078
   52POPC   C1B 1054   2.581   1.024   7.248
   52POPC   C2B 1055   2.349   0.987   6.874
   52POPC   C3B 1056   2.468   0.784   6.510
   52POPC   C4B 1057   2.439   0.869   6.095
   53POPC   NC3 1058   3.456   7.966   8.093
   53POPC   PO4 1059   3.920   8.485   8.036
   53POPC   GL1 1060   3.668   8.336   7.646
   53POPC   GL2 1061   3.342   8.146   7.650
   53POPC   C1A 1062   3.554   8.200   7.195
   53POPC   D2A 1063   3.426   8.297   6.787
   53POPC   C3A 1064   3.493   8.015   6.430
   53POPC   C4A 1065   3.303   8.080   6.025
   53POPC   C1B 1066   3.256   7.817   7.357
   53POPC   C2B 1067   3.353   7.779   6.904
   53POPC   C3B 1068   3.162   7.613   6.517
   53POPC   C4B 1069   3.159   7.606   6.074
   54POPC   NC3 1070   3.616   8.831   7.932
   54POPC   PO4 1071   3.050   9.009   8.004
   54POPC   GL1 1072   3.051   8.920   7.592
   54POPC   GL2 1073   3.240   8.640   7.607
   54POPC   C1A 1074   2.972   8.691   7.185
   54POPC   D2A 1075   3.242   8.777   6.873
   54POPC   C3A 1076   3.195   8.660   6.486
   54POPC   C4A 1077   3.220   8.941   6.142
   54POPC   C1B 1078   3.574   8.701   7.258
   54POPC   C2B 1079   3.785   8.659   6.818
   54POPC   C3B 1080   3.680   8.489   6.380
   54POPC   C4B 1081   3.518   8.558   5.930
   55POPC   NC3 1082   1.393   4.161   8.121
   55POPC   PO4 1083   0.968   4.592   8.149
   55POPC   GL1 1084   0.942   4.359   7.751
   55POPC   GL2 1085   1.071   4.032   7.737
   55POPC   C1A 1086   1.179   4.410   7.352
   55POPC   D2A 1087   1.246   4.604   6.926
   55POPC   C3A 1088   1.012   4.508   6.563
   55POPC   C4A 1089   1.094   4.417   6.137
   55POPC   C1B 1090   1.002   3.933   7.298
   55POPC   C2B 1091   1.328   4.084   6.954
   55POPC   C3B 1092   1.260   4.053   6.501
   55POPC   C4B 1093   0.939   3.750   6.390
   56POPC   NC3 1094   9.079   8.509   8.072
   56POPC   PO4 1095   9.647   8.782   8.036
   56POPC   GL1 1096   9.470   8.581   7.684
   56POPC   GL2 1097   9.212   8.810   7.646
   56POPC   C1A 1098   9.508   8.706   7.230
   56POPC   D2A 1099   9.290   8.533   6.838
   56POPC   C3A 1100   9.486   8.645   6.505
   56POPC   C4A 1101   9.486   8.560   6.084
   56POPC   C1B 1102   9.148   9.094   7.308
   56POPC   C2B 1103   9.248   9.029   6.883
   56POPC   C3B 1104   9.092   8.950   6.470
   56POPC   C4B 1105   9.302   9.029   6.071
   57POPC   NC3 1106   1.091   7.847   8.132
   57POPC   PO4 1107   1.413   8.301   7.811
   57POPC   GL1 1108   1.260   7.943   7.642
   57POPC   GL2 1109   0.885   7.918   7.671
   57POPC   C1A 1110   1.387   7.991   7.228
   57POPC   D2A 1111   1.509   7.746   6.917
   57POPC   C3A 1112   1.345   7.871   6.554
   57POPC   C4A 1113   1.548   7.838   6.209
   57POPC   C1B 1114   0.856   7.759   7.272
   57POPC   C2B 1115   0.977   7.931   6.911
   57POPC   C3B 1116   0.804   7.903   6.529
   57POPC   C4B 1117   0.977   7.950   6.171
   58POPC   NC3 1118   2.080   7.302   8.009
   58POPC   PO4 1119   1.458   7.572   8.010
   58POPC   GL1 1120   1.611   7.281   7.668
   58POPC   GL2 1121   1.923   7.252   7.538
   58POPC   C1A 1122   1.545   7.085   7.260
   58POPC   D2A 1123   1.764   7.284   6.907
   58POPC   C3A 1124   1.630   7.275   6.469
   58POPC   C4A 1125   1.692   6.887   6.201
   58POPC   C1B 1126   2.325   7.320   7.365
   58POPC   C2B 1127   2.402   7.413   6.941
   58POPC   C3B 1128   2.136   7.477   6.604
   58POPC   C4B 1129   2.097   7.217   6.228
   59POPC   NC3 1130   6.903   9.426   8.216
   59POPC   PO4 1131   7.506   9.862   8.152
   59POPC   GL1 1132   7.243   9.595   7.819
   59POPC   GL2 1133   7.462   9.342   7.683
   59POPC   C1A 1134   7.137   9.562   7.338
   59POPC   D2A 1135   6.955   9.275   7.008
   59POPC   C3A 1136   7.053   9.356   6.593
   59POPC   C4A 1137   6.990   9.306   6.180
   59POPC   C1B 1138   7.627   9.340   7.293
   59POPC   C2B 1139   7.440   9.295   6.941
   59POPC   C3B 1140   7.568   9.326   6.558
   59POPC   C4B 1141   7.487   9.458   6.214
   60POPC   NC3 1142   0.539   7.557   7.861
   60POPC   PO4 1143   0.650   8.159   8.074
   60POPC   GL1 1144   0.452   8.226   7.696
   60POPC   GL2 1145   0.208   7.974   7.625
   60POPC   C1A 1146   0.589   8.197   7.294
   60POPC   D2A 1147   0.479   8.066   6.902
   60POPC   C3A 1148   0.401   8.212   6.520
   60POPC   C4A 1149   0.623   8.336   6.193
   60POPC   C1B 1150   0.325   7.735   7.256
   60POPC   C2B 1151   0.474   7.580   6.840
   60POPC   C3B 1152   0.274   7.728   6.456
   60POPC   C4B 1153   0.457   7.889   6.066
   61POPC   NC3 1154   2.641   1.966   8.154
   61POPC   PO4 1155   2.033   2.185   8.279
   61POPC   GL1 1156   2.310   2.189   7.789
   61POPC   GL2 1157   2.654   2.127   7.673
   61POPC   C1A 1158   2.386   2.050   7.270
   61POPC   D2A 1159   2.579   1.926   6.822
   61POPC   C3A 1160   2.460   2.168   6.405
   61POPC   C4A 1161   2.337   2.196   5.915
   61POPC   C1B 1162   2.977   1.960   7.396
   61POPC   C2B 1163   3.102   2.053   6.963
   61POPC   C3B 1164   2.988   2.068   6.533
   61POPC   C4B 1165   2.758   1.723   6.341
   62POPC   NC3 1166   4.159   2.596   8.086
   62POPC   PO4 1167   4.576   3.094   7.923
   62POPC   GL1 1168   4.267   2.845   7.610
   62POPC   GL2 1169   4.128   2.488   7.586
   62POPC   C1A 1170   4.181   2.767   7.134
   62POPC   D2A 1171   3.976   2.973   6.772
   62POPC   C3A 1172   4.160   3.019   6.360
   62POPC   C4A 1173   4.005   2.951   5.956
   62POPC   C1B 1174   3.793   2.459   7.254
   62POPC   C2B 1175   3.688   2.546   6.813
   62POPC   C3B 1176   3.912   2.566   6.407
   62POPC   C4B 1177   4.351   2.459   6.287
   63POPC   NC3 1178   2.814   8.623   8.000
   63POPC   PO4 1179   2.307   9.085   8.116
   63POPC   GL1 1180   2.555   8.991   7.745
   63POPC   GL2 1181   2.615   8.643   7.556
   63POPC   C1A 1182   2.646   9.080   7.330
   63POPC   D2A 1183   2.536   8.878   6.977
   63POPC   C3A 1184   2.741   8.889   6.598
   63POPC   C4A 1185   2.593   8.895   6.204
   63POPC   C1B 1186   2.502   8.408   7.202
   63POPC   C2B 1187   2.657   8.414   6.789
   63POPC   C3B 1188   2.680   8.427   6.367
   63POPC   C4B 1189   3.004   8.482   6.063
   64POPC   NC3 1190   5.809   0.547   7.951
   64POPC   PO4 1191   5.385   0.029   7.957
   64POPC   GL1 1192   5.609   0.167   7.654
   64POPC   GL2 1193   5.412   0.476   7.618
   64POPC   C1A 1194   5.673   0.162   7.225
   64POPC   D2A 1195   5.574   0.229   6.816
   64POPC   C3A 1196   5.807   0.118   6.463
   64POPC   C4A 1197   5.676   0.135   6.009
   64POPC   C1B 1198   5.667   0.672   7.266
   64POPC   C2B 1199   5.591   0.731   6.816
   64POPC   C3B 1200   5.434   0.525   6.431
   64POPC   C4B 1201   5.815   0.577   6.211
   65POPC   NC3 1202   8.924   4.359   7.869
   65POPC   PO4 1203   9.449   4.111   8.304
   65POPC   GL1 1204   9.407   4.014   7.807
   65POPC   GL2 1205   9.650   3.835   7.661
   65POPC   C1A 1206   9.432   4.218   7.337
   65POPC   D2A 1207   9.520   4.321   6.879
   65POPC   C3A 1208   9.136   4.256   6.616
   65POPC   C4A 1209   9.199   4.140   6.208
   65POPC   C1B 1210   9.724   3.829   7.204
   65POPC   C2B 1211   9.645   3.817   6.770
   65POPC   C3B 1212   9.632   3.912   6.344
   65POPC   C4B 1213   9.654   4.372   6.233
   66POPC   NC3 1214   1.464  10.216   8.236
   66POPC   PO4 1215   0.902   0.026   8.154
   66POPC   GL1 1216   1.180  10.383   7.788
   66POPC   GL2 1217   1.233  10.025   7.762
   66POPC   C1A 1218   1.369  10.455   7.376
   66POPC   D2A 1219   1.351  10.212   6.966
   66POPC   C3A 1220   1.419  10.389   6.594
   66POPC   C4A 1221   1.363  10.341   6.182
   66POPC   C1B 1222   1.070  10.030   7.348
   66POPC   C2B 1223   0.955   9.885   6.905
   66POPC   C3B 1224   1.120   9.947   6.467
   66POPC   C4B 1225   1.129   9.940   5.991
   67POPC   NC3 1226  10.323   1.312   8.204
   67POPC   PO4 1227   0.528   1.233   8.104
   67POPC   GL1 1228   0.275   1.184   7.697
   67POPC   GL2 1229   0.565   1.281   7.596
   67POPC   C1A 1230   0.259   1.034   7.269
   67POPC   D2A 1231   0.080   1.239   6.936
   67POPC   C3A 1232   0.217   1.100   6.561
   67POPC   C4A 1233   0.254   0.974   6.145
   67POPC   C1B 1234   0.771   1.466   7.288
   67POPC   C2B 1235   0.729   1.195   6.963
   67POPC   C3B 1236   0.732   1.047   6.551
   67POPC   C4B 1237   0.729   1.297   6.187
   68POPC   NC3 1238   8.766   6.551   7.858
   68POPC   PO4 1239   8.745   5.922   7.736
   68POPC   GL1 1240   8.862   6.192   7.455
   68POPC   GL2 1241   8.993   6.590   7.425
   68POPC   C1A 1242   8.766   5.997   7.078
   68POPC   D2A 1243   8.593   6.139   6.718
   68POPC   C3A 1244   8.841   6.018   6.396
   68POPC   C4A 1245   8.859   6.183   5.995
   68POPC   C1B 1246   8.645   6.516   7.155
   68POPC   C2B 1247   8.705   6.661   6.762
   68POPC   C3B 1248   8.674   6.519   6.373
   68POPC   C4B 1249   8.442   6.773   6.075
   69POPC   NC3 1250   7.720   9.443   8.092
   69POPC   PO4 1251   8.097   8.867   8.063
   69POPC   GL1 1252   7.998   9.144   7.704
   69POPC   GL2 1253   7.961   9.504   7.653
   69POPC   C1A 1254   8.086   9.106   7.268
   69POPC   D2A 1255   8.263   9.233   6.856
   69POPC   C3A 1256   8.065   9.272   6.451
   69POPC   C4A 1257   8.266   9.350   6.057
   69POPC   C1B 1258   8.111   9.613   7.276
   69POPC   C2B 1259   7.892   9.563   6.896
   69POPC   C3B 1260   7.814   9.810   6.550
   69POPC   C4B 1261   7.933   9.723   6.158
   70POPC   NC3 1262   1.287   4.931   8.193
   70POPC   PO4 1263   1.760   4.430   8.154
   70POPC   GL1 1264   1.453   4.610   7.765
   70POPC   GL2 1265   1.145   4.832   7.721
   70POPC   C1A 1266   1.431   4.861   7.325
   70POPC   D2A 1267   1.244   5.145   7.024
   70POPC   C3A 1268   1.183   5.032   6.609
   70POPC   C4A 1269   1.408   4.784   6.314
   70POPC   C1B 1270   0.915   4.872   7.339
   70POPC   C2B 1271   0.776   4.808   6.955
   70POPC   C3B 1272   0.691   4.906   6.554
   70POPC   C4B 1273   0.922   4.892   6.176
   71POPC   NC3 1274  10.416   2.217   7.926
   71POPC   PO4 1275   9.816   2.226   8.289
   71POPC   GL1 1276   9.906   2.219   7.821
   71POPC   GL2 1277  10.018   1.895   7.742
   71POPC   C1A 1278  10.048   2.236   7.355
   71POPC   D2A 1279  10.289   2.254   6.953
   71POPC   C3A 1280  10.238   2.042   6.557
   71POPC   C4A 1281  10.460   1.937   6.178
   71POPC   C1B 1282  10.265   1.771   7.359
   71POPC   C2B 1283  10.384   1.738   6.951
   71POPC   C3B 1284   0.013   1.601   6.572
   71POPC   C4B 1285  10.498   1.418   6.197
   72POPC   NC3 1286   7.306   1.371   8.559
   72POPC   PO4 1287   7.156   0.912   8.122
   72POPC   GL1 1288   7.167   0.992   7.668
   72POPC   GL2 1289   6.932   1.260   7.740
   72POPC   C1A 1290   6.955   0.979   7.269
   72POPC   D2A 1291   6.715   1.071   6.905
   72POPC   C3A 1292   6.921   1.090   6.528
   72POPC   C4A 1293   7.004   0.949   6.120
   72POPC   C1B 1294   7.177   1.447   7.433
   72POPC   C2B 1295   7.168   1.387   7.020
   72POPC   C3B 1296   7.224   1.469   6.605
   72POPC   C4B 1297   7.254   1.374   6.175
   73POPC   NC3 1298  10.462   3.976   7.915
   73POPC   PO4 1299   0.620   3.955   8.017
   73POPC   GL1 1300   0.549   4.027   7.626
   73POPC   GL2 1301   0.342   4.316   7.621
   73POPC   C1A 1302   0.383   3.920   7.229
   73POPC   D2A 1303   0.100   4.112   6.954
   73POPC   C3A 1304   0.001   4.003   6.541
   73POPC   C4A 1305   0.119   4.283   6.234
   73POPC   C1B 1306   0.681   4.365   7.279
   73POPC   C2B 1307   0.790   4.162   6.891
   73POPC   C3B 1308   0.592   4.151   6.500
   73POPC   C4B 1309   0.595   4.484   6.221
   74POPC   NC3 1310   1.612   6.423   8.119
   74POPC   PO4 1311   1.830   6.924   8.001
   74POPC   GL1 1312   1.606   6.699   7.671
   74POPC   GL2 1313   1.803   6.360   7.662
   74POPC   C1A 1314   1.714   6.616   7.232
   74POPC   D2A 1315   1.642   6.692   6.813
   74POPC   C3A 1316   1.991   6.870   6.609
   74POPC   C4A 1317   2.299   6.720   6.302
   74POPC   C1B 1318   1.948   6.143   7.283
   74POPC   C2B 1319   2.038   6.354   6.901
   74POPC   C3B 1320   1.946   6.309   6.491
   74POPC   C4B 1321   1.998   5.936   6.257
   75POPC   NC3 1322   9.984   0.293   7.914
   75POPC   PO4 1323  10.181   0.804   8.349
   75POPC   GL1 1324  10.134   0.843   7.832
   75POPC   GL2 1325  10.401   0.678   7.692
   75POPC   C1A 1326  10.009   0.627   7.358
   75POPC   D2A 1327  10.000   0.334   6.992
   75POPC   C3A 1328   9.789   0.489   6.614
   75POPC   C4A 1329   9.942   0.614   6.204
   75POPC   C1B 1330   0.013   0.569   7.268
   75POPC   C2B 1331   0.029   0.537   6.844
   75POPC   C3B 1332  10.396   0.645   6.450
   75POPC   C4B 1333  10.355   0.259   6.208
   76POPC   NC3 1334   6.445   7.945   8.239
   76POPC   PO4 1335   6.811   7.534   8.022
   76POPC   GL1 1336   6.526   7.820   7.748
   76POPC   GL2 1337   6.179   8.004   7.803
   76POPC   C1A 1338   6.474   8.128   7.417
   76POPC   D2A 1339   6.197   8.146   7.063
   76POPC   C3A 1340   6.352   8.059   6.679
   76POPC   C4A 1341   6.484   8.053   6.258
   76POPC   C1B 1342   6.154   7.736   7.388
   76POPC   C2B 1343   6.335   7.615   6.972
   76POPC   C3B 1344   6.313   7.589   6.501
   76POPC   C4B 1345   6.030   7.834   6.213
   77POPC   NC3 1346   1.876   8.935   8.145
   77POPC   PO4 1347   1.593   8.408   8.297
   77POPC   GL1 1348   1.840   8.540   7.821
   77POPC   GL2 1349   2.209   8.613   7.886
   77POPC   C1A 1350   1.677   8.601   7.315
   77POPC   D2A 1351   1.627   8.816   6.886
   77POPC   C3A 1352   1.727   8.648   6.458
   77POPC   C4A 1353   1.788   8.733   5.997
   77POPC   C1B 1354   2.150   8.753   7.429
   77POPC   C2B 1355   2.092   8.601   6.991
   77POPC   C3B 1356   2.248   8.659   6.594
   77POPC   C4B 1357   2.215   8.560   6.202
   78POPC   NC3 1358   2.001   9.944   8.251
   78POPC   PO4 1359   1.682   0.081   8.047
   78POPC   GL1 1360   1.733  10.213   7.758
   78POPC   GL2 1361   1.997  10.304   7.518
   78POPC   C1A 1362   1.648  10.016   7.331
   78POPC   D2A 1363   1.868  10.111   6.921
   78POPC   C3A 1364   1.670   9.964   6.542
   78POPC   C4A 1365   1.618   9.812   6.135
   78POPC   C1B 1366   2.147   0.007   7.163
   78POPC   C2B 1367   2.324   0.062   6.759
   78POPC   C3B 1368   2.144  10.317   6.440
   78POPC   C4B 1369   2.105   9.918   6.301
   79POPC   NC3 1370   0.527   7.140   8.351
   79POPC   PO4 1371   0.083   7.429   7.908
   79POPC   GL1 1372   0.311   7.123   7.689
   79POPC   GL2 1373   0.652   7.035   7.789
   79POPC   C1A 1374   0.373   7.235   7.264
   79POPC   D2A 1375   0.135   7.212   6.917
   79POPC   C3A 1376   0.332   7.203   6.512
   79POPC   C4A 1377   0.660   7.455   6.298
   79POPC   C1B 1378   0.623   6.803   7.362
   79POPC   C2B 1379   0.403   6.735   6.944
   79POPC   C3B 1380   0.339   6.645   6.515
   79POPC   C4B 1381   0.467   6.849   6.168
   80POPC   NC3 1382   1.863   0.838   8.053
   80POPC   PO4 1383   2.109   1.472   7.969
   80POPC   GL1 1384   2.062   1.119   7.656
   80POPC   GL2 1385   1.699   0.983   7.586
   80POPC   C1A 1386   2.154   1.288   7.262
   80POPC   D2A 1387   2.182   1.638   7.004
   80POPC   C3A 1388   2.351   1.495   6.637
   80POPC   C4A 1389   2.166   1.191   6.367
   80POPC   C1B 1390   1.821   0.924   7.149
   80POPC   C2B 1391   1.884   1.221   6.807
   80POPC   C3B 1392   1.670   1.109   6.426
   80POPC   C4B 1393   1.549   0.728   6.227
   81POPC   NC3 1394   2.911  10.069   7.855
   81POPC   PO4 1395   2.240  10.028   7.864
   81POPC   GL1 1396   2.526  10.258   7.558
   81POPC   GL2 1397   2.891  10.445   7.548
   81POPC   C1A 1398   2.549  10.206   7.109
   81POPC   D2A 1399   2.376   9.956   6.769
   81POPC   C3A 1400   2.602  10.014   6.395
   81POPC   C4A 1401   2.639  10.419   6.280
   81POPC   C1B 1402   3.050  10.219   7.173
   81POPC   C2B 1403   2.956  10.405   6.747
   81POPC   C3B 1404   3.102  10.214   6.369
   81POPC   C4B 1405   3.051   9.761   6.327
   82POPC   NC3 1406   7.896  10.164   8.227
   82POPC   PO4 1407   8.213   9.625   8.071
   82POPC   GL1 1408   8.136   9.990   7.777
   82POPC   GL2 1409   7.818  10.183   7.725
   82POPC   C1A 1410   8.154  10.148   7.333
   82POPC   D2A 1411   8.219   9.972   6.917
   82POPC   C3A 1412   8.204  10.245   6.572
   82POPC   C4A 1413   7.929  10.259   6.216
   82POPC   C1B 1414   7.636  10.269   7.298
   82POPC   C2B 1415   7.747  10.226   6.854
   82POPC   C3B 1416   7.512  10.357   6.487
   82POPC   C4B 1417   7.506  10.441   6.002
   83POPC   NC3 1418   1.388   7.063   8.047
   83POPC   PO4 1419   0.840   7.453   8.196
   83POPC   GL1 1420   1.049   7.419   7.754
   83POPC   GL2 1421   1.143   7.072   7.608
   83POPC   C1A 1422   1.291   7.514   7.353
   83POPC   D2A 1423   1.239   7.319   6.934
   83POPC   C3A 1424   1.074   7.440   6.580
   83POPC   C4A 1425   1.216   7.468   6.163
   83POPC   C1B 1426   0.878   7.235   7.300
   83POPC   C2B 1427   0.728   7.141   6.906
   83POPC   C3B 1428   0.768   6.921   6.567
   83POPC   C4B 1429   0.936   7.057   6.201
   84POPC   NC3 1430   6.995   9.929   8.130
   84POPC   PO4 1431   7.157   0.067   7.973
   84POPC   GL1 1432   7.213  10.405   7.592
   84POPC   GL2 1433   7.318  10.104   7.745
   84POPC   C1A 1434   7.131  10.098   7.271
   84POPC   D2A 1435   6.943   9.920   6.919
   84POPC   C3A 1436   6.856  10.228   6.607
   84POPC   C4A 1437   7.072  10.301   6.236
   84POPC   C1B 1438   7.559   9.813   7.466
   84POPC   C2B 1439   7.463   9.806   7.000
   84POPC   C3B 1440   7.294   9.818   6.561
   84POPC   C4B 1441   7.463   9.955   6.173
   85POPC   NC3 1442   4.409   0.444   8.288
   85POPC   PO4 1443   3.846   0.547   8.033
   85POPC   GL1 1444   3.991   0.298   7.711
   85POPC   GL2 1445   4.295   0.197   7.854
   85POPC   C1A 1446   3.879   0.242   7.298
   85POPC   D2A 1447   3.847   0.465   6.936
   85POPC   C3A 1448   3.924   0.289   6.562
   85POPC   C4A 1449   3.953   0.466   6.174
   85POPC   C1B 1450   4.452   0.235   7.429
   85POPC   C2B 1451   4.310   0.276   7.001
   85POPC   C3B 1452   4.451   0.231   6.582
   85POPC   C4B 1453   4.468   0.471   6.196
   86POPC   NC3 1454   1.602   2.365   8.397
   86POPC   PO4 1455   1.511   2.985   7.984
   86POPC   GL1 1456   1.643   2.811   7.590
   86POPC   GL2 1457   1.999   2.779   7.645
   86POPC   C1A 1458   1.626   2.547   7.221
   86POPC   D2A 1459   1.658   2.355   6.797
   86POPC   C3A 1460   1.510   2.522   6.468
   86POPC   C4A 1461   1.780   2.688   6.180
   86POPC   C1B 1462   2.148   2.504   7.352
   86POPC   C2B 1463   2.074   2.596   6.964
   86POPC   C3B 1464   2.109   2.568   6.555
   86POPC   C4B 1465   2.307   2.619   6.175
   87POPC   NC3 1466   8.446   5.128   8.031
   87POPC   PO4 1467   8.865   4.696   8.379
   87POPC   GL1 1468   9.015   4.883   7.922
   87POPC   GL2 1469   8.730   4.843   7.718
   87POPC   C1A 1470   9.094   5.015   7.414
   87POPC   D2A 1471   8.863   5.137   6.973
   87POPC   C3A 1472   8.837   4.957   6.566
   87POPC   C4A 1473   8.608   5.140   6.233
   87POPC   C1B 1474   8.620   4.839   7.297
   87POPC   C2B 1475   8.740   4.551   6.954
   87POPC   C3B 1476   8.641   4.441   6.531
   87POPC   C4B 1477   8.464   4.649   6.167
   88POPC   NC3 1478  10.178   9.853   8.170
   88POPC   PO4 1479   9.803  10.399   8.150
   88POPC   GL1 1480   9.965  10.302   7.727
   88POPC   GL2 1481  10.314  10.146   7.761
   88POPC   C1A 1482   9.805  10.439   7.300
   88POPC   D2A 1483   9.577  10.391   6.897
   88POPC   C3A 1484   9.844  10.335   6.548
   88POPC   C4A 1485  10.042  10.366   6.152
   88POPC   C1B 1486  10.307  10.339   7.347
   88POPC   C2B 1487  10.190  10.282   6.935
   88POPC   C3B 1488   0.014  10.194   6.635
   88POPC   C4B 1489  10.459  10.107   6.220
   89POPC   NC3 1490   0.694   1.942   8.389
   89POPC   PO4 1491   1.336   1.991   8.336
   89POPC   GL1 1492   1.389   2.102   7.904
   89POPC   GL2 1493   1.099   1.923   7.813
   89POPC   C1A 1494   1.458   1.987   7.466
   89POPC   D2A 1495   1.354   2.090   7.079
   89POPC   C3A 1496   1.283   1.943   6.663
   89POPC   C4A 1497   1.413   2.009   6.250
   89POPC   C1B 1498   0.968   1.950   7.383
   89POPC   C2B 1499   0.861   1.900   6.987
   89POPC   C3B 1500   0.768   1.964   6.618
   89POPC   C4B 1501   0.930   1.770   6.297
   90POPC   NC3 1502   8.626   5.110   8.533
   90POPC   PO4 1503   8.157   5.474   8.021
   90POPC   GL1 1504   8.109   5.236   7.601
   90POPC   GL2 1505   8.201   4.904   7.631
   90POPC   C1A 1506   8.273   5.169   7.148
   90POPC   D2A 1507   8.381   4.883   6.779
   90POPC   C3A 1508   8.144   5.001   6.382
   90POPC   C4A 1509   8.112   5.123   5.926
   90POPC   C1B 1510   8.136   4.679   7.211
   90POPC   C2B 1511   7.878   4.791   6.816
   90POPC   C3B 1512   7.654   4.853   6.391
   90POPC   C4B 1513   7.485   4.852   5.955
   91POPC   NC3 1514   5.579   2.186   7.972
   91POPC   PO4 1515   6.098   1.692   7.983
   91POPC   GL1 1516   5.736   1.831   7.665
   91POPC   GL2 1517   5.863   2.188   7.568
   91POPC   C1A 1518   5.548   2.027   7.233
   91POPC   D2A 1519   5.751   2.171   6.865
   91POPC   C3A 1520   5.532   2.216   6.463
   91POPC   C4A 1521   5.513   1.899   6.137
   91POPC   C1B 1522   6.044   1.887   7.281
   91POPC   C2B 1523   6.081   1.783   6.857
   91POPC   C3B 1524   5.926   1.893   6.462
   91POPC   C4B 1525   5.979   1.979   6.002
   92POPC   NC3 1526   1.693   8.015   8.039
   92POPC   PO4 1527   2.272   7.686   8.167
   92POPC   GL1 1528   2.127   7.723   7.685
   92POPC   GL2 1529   1.767   7.767   7.599
   92POPC   C1A 1530   2.106   7.752   7.186
   92POPC   D2A 1531   2.319   8.043   6.874
   92POPC   C3A 1532   2.328   8.019   6.400
   92POPC   C4A 1533   2.051   7.719   6.175
   92POPC   C1B 1534   1.941   8.166   7.420
   92POPC   C2B 1535   1.814   8.179   6.992
   92POPC   C3B 1536   1.861   7.970   6.607
   92POPC   C4B 1537   1.879   8.203   6.222
   93POPC   NC3 1538   9.563   3.662   8.193
   93POPC   PO4 1539   8.854   3.711   8.218
   93POPC   GL1 1540   9.104   3.604   7.836
   93POPC   GL2 1541   9.386   3.372   7.782
   93POPC   C1A 1542   9.227   3.720   7.399
   93POPC   D2A 1543   9.198   3.919   6.994
   93POPC   C3A 1544   9.158   3.719   6.594
   93POPC   C4A 1545   9.261   3.621   6.166
   93POPC   C1B 1546   9.233   3.206   7.372
   93POPC   C2B 1547   9.358   3.413   6.970
   93POPC   C3B 1548   9.546   3.377   6.551
   93POPC   C4B 1549   9.477   3.115   6.207
   94POPC   NC3 1550   0.515   4.426   8.107
   94POPC   PO4 1551   0.277   5.037   8.296
   94POPC   GL1 1552   0.267   4.822   7.822
   94POPC   GL2 1553   0.617   4.768   7.738
   94POPC   C1A 1554   0.329   4.715   7.313
   94POPC   D2A 1555   0.357   4.539   6.856
   94POPC   C3A 1556   0.230   4.750   6.459
   94POPC   C4A 1557   0.194   4.735   5.998
   94POPC   C1B 1558   0.487   5.157   7.488
   94POPC   C2B 1559   0.375   5.146   7.031
   94POPC   C3B 1560   0.318   5.265   6.590
   94POPC   C4B 1561   0.442   5.142   6.154
   95POPC   NC3 1562   1.231   8.637   8.083
   95POPC   PO4 1563   1.612   9.257   7.970
   95POPC   GL1 1564   1.422   8.913   7.685
   95POPC   GL2 1565   1.090   8.678   7.597
   95POPC   C1A 1566   1.303   8.983   7.259
   95POPC   D2A 1567   1.079   8.848   6.896
   95POPC   C3A 1568   1.276   9.017   6.546
   95POPC   C4A 1569   1.312   8.814   6.170
   95POPC   C1B 1570   1.086   8.422   7.206
   95POPC   C2B 1571   1.334   8.347   6.817
   95POPC   C3B 1572   1.280   8.340   6.357
   95POPC   C4B 1573   1.058   8.415   5.952
   96POPC   NC3 1574   6.788   0.746   7.911
   96POPC   PO4 1575   6.133   0.843   8.096
   96POPC   GL1 1576   6.360   0.990   7.756
   96POPC   GL2 1577   6.419   1.328   7.793
   96POPC   C1A 1578   6.431   0.945   7.322
   96POPC   D2A 1579   6.138   0.847   6.996
   96POPC   C3A 1580   6.312   0.915   6.602
   96POPC   C4A 1581   6.097   1.025   6.243
   96POPC   C1B 1582   6.180   1.393   7.392
   96POPC   C2B 1583   6.274   1.335   6.960
   96POPC   C3B 1584   6.285   1.431   6.525
   96POPC   C4B 1585   6.547   1.241   6.216
   97POPC   NC3 1586   3.268   1.757   8.192
   97POPC   PO4 1587   3.806   1.374   8.248
   97POPC   GL1 1588   3.702   1.581   7.819
   97POPC   GL2 1589   3.408   1.822   7.707
   97POPC   C1A 1590   3.640   1.545   7.353
   97POPC   D2A 1591   3.382   1.567   6.976
   97POPC   C3A 1592   3.483   1.666   6.528
   97POPC   C4A 1593   3.261   1.846   6.165
   97POPC   C1B 1594   3.492   2.041   7.316
   97POPC   C2B 1595   3.619   2.044   6.894
   97POPC   C3B 1596   3.516   2.182   6.490
   97POPC   C4B 1597   3.735   2.168   6.121
   98POPC   NC3 1598   6.330   0.562   8.412
   98POPC   PO4 1599   5.770   0.202   8.272
   98POPC   GL1 1600   6.089   0.114   7.870
   98POPC   GL2 1601   6.283   0.437   7.741
   98POPC   C1A 1602   6.155   0.060   7.377
   98POPC   D2A 1603   6.075   0.348   6.972
   98POPC   C3A 1604   6.254   0.397   6.536
   98POPC   C4A 1605   6.174   0.190   6.128
   98POPC   C1B 1606   6.503   0.426   7.326
   98POPC   C2B 1607   6.592   0.561   6.924
   98POPC   C3B 1608   6.748   0.615   6.527
   98POPC   C4B 1609   6.560   0.728   6.174
   99POPC   NC3 1610   1.271   2.606   7.913
   99POPC   PO4 1611   0.765   2.244   8.032
   99POPC   GL1 1612   0.873   2.397   7.628
   99POPC   GL2 1613   0.822   2.748   7.614
   99POPC   C1A 1614   0.790   2.426   7.172
   99POPC   D2A 1615   1.068   2.394   6.803
   99POPC   C3A 1616   1.021   2.339   6.364
   99POPC   C4A 1617   0.890   2.578   5.994
   99POPC   C1B 1618   1.167   2.797   7.308
   99POPC   C2B 1619   1.318   2.847   6.894
   99POPC   C3B 1620   1.082   2.832   6.516
   99POPC   C4B 1621   1.285   2.859   6.148
  100POPC   NC3 1622   1.961   4.005   8.116
  100POPC   PO4 1623   2.312   4.355   7.889
  100POPC   GL1 1624   1.914   4.401   7.670
  100POPC   GL2 1625   1.654   4.129   7.698
  100POPC   C1A 1626   1.687   4.426   7.269
  100POPC   D2A 1627   1.746   4.673   6.897
  100POPC   C3A 1628   1.742   4.427   6.520
  100POPC   C4A 1629   2.091   4.367   6.224
  100POPC   C1B 1630   1.927   3.986   7.369
  100POPC   C2B 1631   1.883   4.017   6.931
  100POPC   C3B 1632   2.041   3.955   6.525
  100POPC   C4B 1633   1.720   4.012   6.224
  101POPC   NC3 1634   8.137   2.673   8.132
  101POPC   PO4 1635   8.155   3.216   7.810
  101POPC   GL1 1636   7.959   2.814   7.661
  101POPC   GL2 1637   8.103   2.436   7.690
  101POPC   C1A 1638   7.828   2.973   7.257
  101POPC   D2A 1639   8.041   3.136   6.898
  101POPC   C3A 1640   7.873   3.045   6.479
  101POPC   C4A 1641   8.097   3.177   6.107
  101POPC   C1B 1642   8.003   2.505   7.255
  101POPC   C2B 1643   8.177   2.639   6.889
  101POPC   C3B 1644   8.038   2.577   6.518
  101POPC   C4B 1645   8.105   2.670   6.146
  102POPC   NC3 1646   1.244   0.325   8.031
  102POPC   PO4 1647   0.592   0.533   8.037
  102POPC   GL1 1648   0.794   0.256   7.709
  102POPC   GL2 1649   1.080   0.410   7.547
  102POPC   C1A 1650   0.849   0.003   7.326
  102POPC   D2A 1651   1.087   0.140   6.948
  102POPC   C3A 1652   0.911  10.452   6.559
  102POPC   C4A 1653   0.751   0.144   6.197
  102POPC   C1B 1654   1.410   0.627   7.310
  102POPC   C2B 1655   1.518   0.580   6.868
  102POPC   C3B 1656   1.331   0.371   6.505
  102POPC   C4B 1657   1.209   0.321   6.067
  103POPC   NC3 1658  10.359   4.977   8.135
  103POPC   PO4 1659   9.751   4.870   8.298
  103POPC   GL1 1660   9.956   4.750   7.874
  103POPC   GL2 1661  10.044   5.061   7.729
  103POPC   C1A 1662   9.949   4.687   7.405
  103POPC   D2A 1663   9.935   4.951   7.018
  103POPC   C3A 1664   9.843   4.737   6.614
  103POPC   C4A 1665   9.928   5.001   6.250
  103POPC   C1B 1666  10.397   4.932   7.463
  103POPC   C2B 1667  10.446   4.864   7.009
  103POPC   C3B 1668  10.303   4.972   6.620
  103POPC   C4B 1669  10.455   5.118   6.239
  104POPC   NC3 1670  10.247   7.075   7.952
  104POPC   PO4 1671   0.325   6.777   8.140
  104POPC   GL1 1672   0.027   6.681   7.742
  104POPC   GL2 1673  10.153   6.822   7.535
  104POPC   C1A 1674   0.094   6.829   7.326
  104POPC   D2A 1675  10.276   6.870   7.018
  104POPC   C3A 1676  10.391   6.893   6.612
  104POPC   C4A 1677  10.103   6.821   6.368
  104POPC   C1B 1678  10.235   7.264   7.332
  104POPC   C2B 1679  10.175   7.452   6.935
  104POPC   C3B 1680  10.353   7.433   6.538
  104POPC   C4B 1681  10.129   7.365   6.197
  105POPC   NC3 1682   8.351   5.883   7.960
  105POPC   PO4 1683   8.349   6.520   8.048
  105POPC   GL1 1684   8.376   6.285   7.623
  105POPC   GL2 1685   8.052   6.131   7.613
  105POPC   C1A 1686   8.290   6.154   7.162
  105POPC   D2A 1687   8.220   6.488   6.858
  105POPC   C3A 1688   8.178   6.439   6.439
  105POPC   C4A 1689   8.357   6.142   6.200
  105POPC   C1B 1690   7.937   6.489   7.318
  105POPC   C2B 1691   7.720   6.550   6.896
  105POPC   C3B 1692   7.689   6.284   6.525
  105POPC   C4B 1693   7.845   6.106   6.157
  106POPC   NC3 1694   1.751   1.827   8.148
  106POPC   PO4 1695   1.730   2.503   7.977
  106POPC   GL1 1696   1.831   2.250   7.635
  106POPC   GL2 1697   1.921   1.873   7.656
  106POPC   C1A 1698   1.883   2.093   7.179
  106POPC   D2A 1699   2.100   2.087   6.774
  106POPC   C3A 1700   1.897   2.143   6.369
  106POPC   C4A 1701   1.844   2.239   5.938
  106POPC   C1B 1702   1.744   1.604   7.297
  106POPC   C2B 1703   1.689   1.709   6.856
  106POPC   C3B 1704   1.881   1.629   6.469
  106POPC   C4B 1705   2.229   1.757   6.209
  107POPC   NC3 1706   9.543   6.343   8.284
  107POPC   PO4 1707   8.869   6.309   8.239
  107POPC   GL1 1708   9.209   6.310   7.826
  107POPC   GL2 1709   9.399   6.538   7.776
  107POPC   C1A 1710   9.336   6.242   7.343
  107POPC   D2A 1711   9.081   6.347   6.943
  107POPC   C3A 1712   9.220   6.358   6.512
  107POPC   C4A 1713   9.398   6.491   6.114
  107POPC   C1B 1714   9.503   6.710   7.366
  107POPC   C2B 1715   9.523   6.562   6.944
  107POPC   C3B 1716   9.519   6.783   6.566
  107POPC   C4B 1717   9.652   6.922   6.186
  108POPC   NC3 1718   2.184   2.592   8.099
  108POPC   PO4 1719   2.844   2.396   8.059
  108POPC   GL1 1720   2.881   2.579   7.635
  108POPC   GL2 1721   2.534   2.663   7.633
  108POPC   C1A 1722   2.801   2.421   7.232
  108POPC   D2A 1723   2.529   2.407   6.918
  108POPC   C3A 1724   2.600   2.685   6.645
  108POPC   C4A 1725   2.827   2.519   6.332
  108POPC   C1B 1726   2.483   2.843   7.192
  108POPC   C2B 1727   2.303   3.076   6.870
  108POPC   C3B 1728   2.297   3.054   6.422
  108POPC   C4B 1729   2.696   2.996   6.212
  109POPC   NC3 1730   6.617  10.387   8.045
  109POPC   PO4 1731   6.639   9.694   7.959
  109POPC   GL1 1732   6.580   9.873   7.586
  109POPC   GL2 1733   6.800  10.109   7.658
  109POPC   C1A 1734   6.313  10.014   7.238
  109POPC   D2A 1735   6.435  10.014   6.812
  109POPC   C3A 1736   6.245   9.804   6.441
  109POPC   C4A 1737   6.269   9.761   5.940
  109POPC   C1B 1738   6.663  10.394   7.329
  109POPC   C2B 1739   6.483   0.035   6.915
  109POPC   C3B 1740   6.306  10.383   6.514
  109POPC   C4B 1741   6.547  10.144   6.196
  110POPC   NC3 1742   2.055   5.526   8.098
  110POPC   PO4 1743   1.548   5.966   8.119
  110POPC   GL1 1744   1.613   5.893   7.657
  110POPC   GL2 1745   1.926   5.796   7.668
  110POPC   C1A 1746   1.613   5.738   7.245
  110POPC   D2A 1747   1.791   5.868   6.850
  110POPC   C3A 1748   1.569   5.703   6.507
  110POPC   C4A 1749   1.632   5.571   6.091
  110POPC   C1B 1750   2.085   5.599   7.300
  110POPC   C2B 1751   2.158   5.466   6.893
  110POPC   C3B 1752   2.006   5.469   6.489
  110POPC   C4B 1753   2.124   5.458   6.075
  111POPC   NC3 1754   0.769   3.468   7.972
  111POPC   PO4 1755   0.171   3.070   8.015
  111POPC   GL1 1756   0.452   3.160   7.700
  111POPC   GL2 1757   0.381   3.532   7.654
  111POPC   C1A 1758   0.716   3.266   7.345
  111POPC   D2A 1759   0.655   3.553   6.988
  111POPC   C3A 1760   0.718   3.340   6.609
  111POPC   C4A 1761   0.581   3.382   6.160
  111POPC   C1B 1762   0.216   3.412   7.267
  111POPC   C2B 1763   0.053   3.597   6.893
  111POPC   C3B 1764   0.278   3.581   6.524
  111POPC   C4B 1765   0.349   3.844   6.158
  112POPC   NC3 1766   6.442   2.678   8.044
  112POPC   PO4 1767   6.914   3.056   7.946
  112POPC   GL1 1768   6.663   2.899   7.600
  112POPC   GL2 1769   6.688   2.547   7.628
  112POPC   C1A 1770   6.389   3.044   7.229
  112POPC   D2A 1771   6.393   3.179   6.778
  112POPC   C3A 1772   6.707   3.027   6.451
  112POPC   C4A 1773   6.733   3.036   5.988
  112POPC   C1B 1774   6.521   2.544   7.225
  112POPC   C2B 1775   6.591   2.695   6.822
  112POPC   C3B 1776   6.264   2.743   6.511
  112POPC   C4B 1777   6.017   2.392   6.310
  113POPC   NC3 1778  10.082   8.955   8.048
  113POPC   PO4 1779  10.157   8.256   8.016
  113POPC   GL1 1780   9.979   8.453   7.647
  113POPC   GL2 1781   9.924   8.815   7.582
  113POPC   C1A 1782  10.060   8.312   7.229
  113POPC   D2A 1783   9.801   8.444   6.906
  113POPC   C3A 1784   9.906   8.359   6.525
  113POPC   C4A 1785   9.947   8.727   6.312
  113POPC   C1B 1786  10.185   8.810   7.208
  113POPC   C2B 1787  10.240   8.720   6.762
  113POPC   C3B 1788  10.403   8.944   6.410
  113POPC   C4B 1789   0.010   9.262   6.155
  114POPC   NC3 1790  10.167   3.081   8.049
  114POPC   PO4 1791  10.023   3.832   8.011
  114POPC   GL1 1792  10.002   3.479   7.746
  114POPC   GL2 1793  10.371   3.391   7.683
  114POPC   C1A 1794   9.720   3.358   7.382
  114POPC   D2A 1795   9.709   3.049   7.038
  114POPC   C3A 1796   9.897   3.011   6.609
  114POPC   C4A 1797   9.947   3.269   6.217
  114POPC   C1B 1798  10.200   3.438   7.257
  114POPC   C2B 1799   9.993   3.450   6.866
  114POPC   C3B 1800  10.074   3.676   6.482
  114POPC   C4B 1801  10.395   3.630   6.186
  115POPC   NC3 1802   7.300   0.466   8.187
  115POPC   PO4 1803   6.626   0.372   8.121
  115POPC   GL1 1804   6.836   0.301   7.684
  115POPC   GL2 1805   7.202   0.481   7.682
  115POPC   C1A 1806   7.015   0.264   7.267
  115POPC   D2A 1807   7.120   0.446   6.890
  115POPC   C3A 1808   7.044   0.204   6.546
  115POPC   C4A 1809   6.670   0.143   6.299
  115POPC   C1B 1810   7.377   0.680   7.293
  115POPC   C2B 1811   7.313   0.909   6.870
  115POPC   C3B 1812   7.273   0.700   6.468
  115POPC   C4B 1813   7.476   0.344   6.311
  116POPC   NC3 1814   9.235  10.192   8.198
  116POPC   PO4 1815   9.229   0.399   8.177
  116POPC   GL1 1816   9.408   0.038   7.848
  116POPC   GL2 1817   9.473  10.160   7.771
  116POPC   C1A 1818   9.283  10.421   7.390
  116POPC   D2A 1819   9.183  10.075   7.090
  116POPC   C3A 1820   9.150  10.217   6.643
  116POPC   C4A 1821   9.390  10.283   6.295
  116POPC   C1B 1822   9.654   9.966   7.418
  116POPC   C2B 1823   9.764   9.911   6.982
  116POPC   C3B 1824   9.574   9.888   6.568
  116POPC   C4B 1825   9.773   9.944   6.173
  117POPC   NC3 1826   7.502   1.198   7.972
  117POPC   PO4 1827   8.182   1.473   7.970
  117POPC   GL1 1828   8.075   1.268   7.561
  117POPC   GL2 1829   7.792   1.017   7.581
  117POPC   C1A 1830   8.290   0.977   7.272
  117POPC   D2A 1831   8.371   0.929   6.827
  117POPC   C3A 1832   8.075   1.156   6.577
  117POPC   C4A 1833   8.001   1.515   6.311
  117POPC   C1B 1834   7.561   1.157   7.264
  117POPC   C2B 1835   7.641   1.304   6.845
  117POPC   C3B 1836   7.580   1.122   6.455
  117POPC   C4B 1837   7.703   1.145   6.042
  118POPC   NC3 1838   9.378   9.185   8.020
  118POPC   PO4 1839   9.071   9.780   8.042
  118POPC   GL1 1840   9.324   9.647   7.684
  118POPC   GL2 1841   9.668   9.479   7.660
  118POPC   C1A 1842   9.366   9.579   7.241
  118POPC   D2A 1843   9.481   9.466   6.839
  118POPC   C3A 1844   9.130   9.472   6.524
  118POPC   C4A 1845   9.121   9.848   6.264
  118POPC   C1B 1846   9.723   9.187   7.286
  118POPC   C2B 1847   9.774   8.981   6.862
  118POPC   C3B 1848   9.601   9.132   6.472
  118POPC   C4B 1849   9.533   9.489   6.191
  119POPC   NC3 1850   0.414   5.456   8.139
  119POPC   PO4 1851   0.582   6.111   8.337
  119POPC   GL1 1852   0.548   5.934   7.861
  119POPC   GL2 1853   0.276   5.713   7.742
  119POPC   C1A 1854   0.606   5.848   7.386
  119POPC   D2A 1855   0.784   5.869   6.946
  119POPC   C3A 1856   0.580   5.762   6.559
  119POPC   C4A 1857   0.634   5.844   6.151
  119POPC   C1B 1858   0.164   5.554   7.348
  119POPC   C2B 1859   0.310   5.642   6.963
  119POPC   C3B 1860   0.063   5.741   6.618
  119POPC   C4B 1861   0.160   5.601   6.227
  120POPC   NC3 1862   4.240   1.535   8.281
  120POPC   PO4 1863   4.399   2.171   8.131
  120POPC   GL1 1864   4.330   1.937   7.729
  120POPC   GL2 1865   4.424   1.569   7.768
  120POPC   C1A 1866   4.027   2.031   7.373
  120POPC   D2A 1867   4.110   2.243   6.926
  120POPC   C3A 1868   4.073   2.072   6.500
  120POPC   C4A 1869   4.223   2.018   6.040
  120POPC   C1B 1870   4.156   1.535   7.394
  120POPC   C2B 1871   4.010   1.721   6.987
  120POPC   C3B 1872   4.005   1.578   6.581
  120POPC   C4B 1873   3.886   1.674   6.179
  121POPC   NC3 1874   2.137   9.513   7.994
  121POPC   PO4 1875   1.590   9.808   8.051
  121POPC   GL1 1876   1.768   9.649   7.653
  121POPC   GL2 1877   2.104   9.727   7.504
  121POPC   C1A 1878   1.796   9.483   7.201
  121POPC   D2A 1879   2.011   9.607   6.818
  121POPC   C3A 1880   1.897   9.471   6.415
  121POPC   C4A 1881   1.638   9.208   6.162
  121POPC   C1B 1882   2.196   9.278   7.411
  121POPC   C2B 1883   2.093   9.109   7.007
  121POPC   C3B 1884   2.284   9.166   6.604
  121POPC   C4B 1885   2.132   9.089   6.180
  122POPC   NC3 1886   8.674   1.595   8.008
  122POPC   PO4 1887   8.395   2.260   8.175
  122POPC   GL1 1888   8.492   2.037   7.781
  122POPC   GL2 1889   8.880   2.020   7.753
  122POPC   C1A 1890   8.391   1.750   7.395
  122POPC   D2A 1891   8.349   1.466   7.015
  122POPC   C3A 1892   8.358   1.746   6.653
  122POPC   C4A 1893   8.368   1.895   6.223
  122POPC   C1B 1894   8.737   2.130   7.333
  122POPC   C2B 1895   8.748   1.951   6.920
  122POPC   C3B 1896   8.790   2.077   6.477
  122POPC   C4B 1897   8.725   2.275   6.064
  123POPC   NC3 1898   8.627   9.842   7.968
  123POPC   PO4 1899   8.820  10.387   8.295
  123POPC   GL1 1900   8.910  10.383   7.817
  123POPC   GL2 1901   8.974  10.062   7.623
  123POPC   C1A 1902   8.758  10.473   7.371
  123POPC   D2A 1903   8.451  10.493   7.027
  123POPC   C3A 1904   8.651   0.044   6.637
  123POPC   C4A 1905   8.915   0.043   6.266
  123POPC   C1B 1906   8.666   9.979   7.272
  123POPC   C2B 1907   8.710  10.077   6.837
  123POPC   C3B 1908   8.675  10.100   6.377
  123POPC   C4B 1909   8.346  10.014   6.086
  124POPC   NC3 1910   1.909   3.200   7.942
  124POPC   PO4 1911   1.569   3.736   8.142
  124POPC   GL1 1912   1.798   3.628   7.720
  124POPC   GL2 1913   1.658   3.313   7.527
  124POPC   C1A 1914   2.066   3.506   7.329
  124POPC   D2A 1915   2.248   3.609   6.945
  124POPC   C3A 1916   2.040   3.438   6.612
  124POPC   C4A 1917   1.943   3.561   6.204
  124POPC   C1B 1918   1.867   3.043   7.187
  124POPC   C2B 1919   1.800   2.961   6.733
  124POPC   C3B 1920   1.657   3.157   6.359
  124POPC   C4B 1921   1.842   3.141   5.952
  125POPC   NC3 1922   4.851   2.046   8.025
  125POPC   PO4 1923   5.276   2.410   7.715
  125POPC   GL1 1924   5.198   1.998   7.616
  125POPC   GL2 1925   4.824   2.012   7.514
  125POPC   C1A 1926   5.198   1.692   7.328
  125POPC   D2A 1927   4.997   1.981   7.025
  125POPC   C3A 1928   5.106   1.947   6.604
  125POPC   C4A 1929   5.035   1.848   6.188
  125POPC   C1B 1930   4.493   1.979   7.179
  125POPC   C2B 1931   4.463   1.810   6.759
  125POPC   C3B 1932   4.587   1.971   6.376
  125POPC   C4B 1933   4.856   2.331   6.282
  126POPC   NC3 1934   2.792   9.332   8.197
  126POPC   PO4 1935   2.460   9.822   8.304
  126POPC   GL1 1936   2.605   9.667   7.843
  126POPC   GL2 1937   2.853   9.417   7.713
  126POPC   C1A 1938   2.599   9.718   7.370
  126POPC   D2A 1939   2.488   9.459   7.016
  126POPC   C3A 1940   2.661   9.537   6.622
  126POPC   C4A 1941   2.410   9.529   6.264
  126POPC   C1B 1942   3.016   9.421   7.314
  126POPC   C2B 1943   2.943   9.215   6.938
  126POPC   C3B 1944   3.083   9.253   6.535
  126POPC   C4B 1945   2.867   9.315   6.171
  127POPC   NC3 1946   7.364   2.053   8.078
  127POPC   PO4 1947   6.791   2.356   8.105
  127POPC   GL1 1948   7.041   2.188   7.721
  127POPC   GL2 1949   7.020   1.823   7.745
  127POPC   C1A 1950   7.416   2.097   7.401
  127POPC   D2A 1951   7.679   2.168   6.988
  127POPC   C3A 1952   7.511   2.282   6.589
  127POPC   C4A 1953   7.340   2.225   6.183
  127POPC   C1B 1954   6.964   1.886   7.288
  127POPC   C2B 1955   7.232   1.900   6.926
  127POPC   C3B 1956   7.087   1.931   6.505
  127POPC   C4B 1957   6.837   1.642   6.285
  128POPC   NC3 1958   3.553   0.177   7.967
  128POPC   PO4 1959   3.227   0.757   8.027
  128POPC   GL1 1960   3.151   0.394   7.651
  128POPC   GL2 1961   3.419   0.162   7.501
  128POPC   C1A 1962   3.080   0.218   7.169
  128POPC   D2A 1963   3.415   0.192   6.833
  128POPC   C3A 1964   3.232   0.287   6.415
  128POPC   C4A 1965   3.011   0.198   6.019
  128POPC   C1B 1966   3.461   0.558   7.260
  128POPC   C2B 1967   3.522   0.851   6.937
  128POPC   C3B 1968   3.563   0.677   6.557
  128POPC   C4B 1969   3.423   0.741   6.195
  129POPC   NC3 1970   8.061   1.006   8.013
  129POPC   PO4 1971   8.654   0.766   8.016
  129POPC   GL1 1972   8.615   1.103   7.711
  129POPC   GL2 1973   8.850   0.904   7.532
  129POPC   C1A 1974   8.738   1.391   7.352
  129POPC   D2A 1975   8.864   1.444   6.888
  129POPC   C3A 1976   8.561   1.322   6.538
  129POPC   C4A 1977   8.477   0.937   6.307
  129POPC   C1B 1978   8.816   0.956   7.100
  129POPC   C2B 1979   8.865   0.966   6.666
  129POPC   C3B 1980   8.963   1.154   6.260
  129POPC   C4B 1981   9.210   0.998   5.933
  130POPC   NC3 1982   8.332   7.852   8.157
  130POPC   PO4 1983   7.675   7.824   8.009
  130POPC   GL1 1984   7.793   8.097   7.686
  130POPC   GL2 1985   8.145   7.949   7.653
  130POPC   C1A 1986   7.609   8.303   7.314
  130POPC   D2A 1987   7.641   8.059   6.897
  130POPC   C3A 1988   7.449   8.090   6.470
  130POPC   C4A 1989   7.435   8.481   6.249
  130POPC   C1B 1990   8.051   7.889   7.196
  130POPC   C2B 1991   7.894   7.612   6.860
  130POPC   C3B 1992   7.865   7.616   6.423
  130POPC   C4B 1993   8.145   7.894   6.274
  131POPC   NC3 1994   7.236   7.715   8.023
  131POPC   PO4 1995   7.251   8.380   8.148
  131POPC   GL1 1996   7.273   8.163   7.746
  131POPC   GL2 1997   6.885   8.190   7.819
  131POPC   C1A 1998   7.414   7.849   7.352
  131POPC   D2A 1999   7.222   7.771   6.916
  131POPC   C3A 2000   7.352   7.586   6.506
  131POPC   C4A 2001   7.458   7.685   6.073
  131POPC   C1B 2002   6.933   7.954   7.427
  131POPC   C2B 2003   6.743   7.928   7.023
  131POPC   C3B 2004   6.858   7.963   6.600
  131POPC   C4B 2005   6.982   7.819   6.207
  132POPC   NC3 2006   0.255   0.843   8.037
  132POPC   PO4 2007  10.450   0.184   7.891
  132POPC   GL1 2008   0.299   0.328   7.624
  132POPC   GL2 2009   0.408   0.677   7.591
  132POPC   C1A 2010   0.511   0.382   7.200
  132POPC   D2A 2011   0.490   0.742   6.920
  132POPC   C3A 2012   0.406   0.636   6.515
  132POPC   C4A 2013   0.355   0.481   6.155
  132POPC   C1B 2014   0.751   0.820   7.379
  132POPC   C2B 2015   0.989   0.668   7.019
  132POPC   C3B 2016   0.863   0.485   6.633
  132POPC   C4B 2017   0.849   0.664   6.231
  133POPC   NC3 2018   4.188   8.084   8.104
  133POPC   PO4 2019   3.789   7.657   8.085
  133POPC   GL1 2020   3.890   7.876   7.683
  133POPC   GL2 2021   4.253   7.894   7.647
  133POPC   C1A 2022   3.970   7.914   7.206
  133POPC   D2A 2023   3.909   8.127   6.781
  133POPC   C3A 2024   3.986   7.897   6.360
  133POPC   C4A 2025   3.675   7.656   6.073
  133POPC   C1B 2026   4.430   8.135   7.315
  133POPC   C2B 2027   4.407   7.979   6.906
  133POPC   C3B 2028   4.561   7.934   6.508
  133POPC   C4B 2029   4.453   8.035   6.125
  134POPC   NC3 2030   8.534   8.575   8.093
  134POPC   PO4 2031   9.175   8.074   8.069
  134POPC   GL1 2032   9.045   8.286   7.643
  134POPC   GL2 2033   8.774   8.547   7.648
  134POPC   C1A 2034   9.093   8.439   7.284
  134POPC   D2A 2035   8.849   8.716   7.099
  134POPC   C3A 2036   8.750   8.600   6.687
  134POPC   C4A 2037   9.021   8.442   6.365
  134POPC   C1B 2038   8.438   8.733   7.438
  134POPC   C2B 2039   8.339   8.750   7.000
  134POPC   C3B 2040   8.253   8.738   6.559
  134POPC   C4B 2041   8.551   8.697   6.207
  135POPC   NC3 2042   0.432  10.498   8.033
  135POPC   PO4 2043   0.149   9.869   8.194
  135POPC   GL1 2044   0.334  10.038   7.752
  135POPC   GL2 2045   0.699  10.150   7.709
  135POPC   C1A 2046   0.329  10.377   7.387
  135POPC   D2A 2047   0.145   0.061   7.001
  135POPC   C3A 2048   0.371   0.108   6.585
  135POPC   C4A 2049   0.279  10.476   6.150
  135POPC   C1B 2050   0.579   9.963   7.276
  135POPC   C2B 2051   0.525  10.197   6.890
  135POPC   C3B 2052   0.495  10.084   6.456
  135POPC   C4B 2053   0.668  10.146   6.062
  136POPC   NC3 2054   9.788   1.037   8.201
  136POPC   PO4 2055   9.939   1.597   8.295
  136POPC   GL1 2056   9.904   1.415   7.858
  136POPC   GL2 2057  10.229   1.357   7.689
  136POPC   C1A 2058   9.817   1.540   7.404
  136POPC   D2A 2059  10.006   1.381   7.019
  136POPC   C3A 2060   9.826   1.531   6.636
  136POPC   C4A 2061  10.037   1.647   6.307
  136POPC   C1B 2062  10.257   1.068   7.358
  136POPC   C2B 2063  10.195   0.904   6.940
  136POPC   C3B 2064  10.218   1.168   6.581
  136POPC   C4B 2065  10.171   1.052   6.194
  137POPC   NC3 2066   0.619   6.425   7.998
  137POPC   PO4 2067   0.019   6.088   8.002
  137POPC   GL1 2068   0.147   6.181   7.597
  137POPC   GL2 2069   0.417   6.366   7.539
  137POPC   C1A 2070   0.193   6.074   7.177
  137POPC   D2A 2071   0.417   6.181   6.829
  137POPC   C3A 2072   0.269   6.152   6.439
  137POPC   C4A 2073   0.132   6.121   6.054
  137POPC   C1B 2074   0.723   6.320   7.213
  137POPC   C2B 2075   0.835   6.484   6.830
  137POPC   C3B 2076   0.782   6.271   6.477
  137POPC   C4B 2077   0.588   6.353   6.100
  138POPC   NC3 2078   9.126   0.805   7.961
  138POPC   PO4 2079   9.139   1.514   8.104
  138POPC   GL1 2080   9.116   1.310   7.718
  138POPC   GL2 2081   9.454   1.169   7.722
  138POPC   C1A 2082   9.221   1.271   7.276
  138POPC   D2A 2083   9.500   1.315   6.969
  138POPC   C3A 2084   9.324   1.338   6.576
  138POPC   C4A 2085   9.414   1.502   6.169
  138POPC   C1B 2086   9.720   1.050   7.363
  138POPC   C2B 2087   9.695   0.839   6.981
  138POPC   C3B 2088   9.751   1.011   6.573
  138POPC   C4B 2089   9.675   1.072   6.137
  139POPC   NC3 2090   2.181  10.480   7.968
  139POPC   PO4 2091   2.379   0.740   7.997
  139POPC   GL1 2092   2.102   0.576   7.683
  139POPC   GL2 2093   1.719   0.483   7.728
  139POPC   C1A 2094   2.211   0.625   7.286
  139POPC   D2A 2095   2.052   0.479   6.946
  139POPC   C3A 2096   1.954   0.734   6.628
  139POPC   C4A 2097   2.061   0.560   6.268
  139POPC   C1B 2098   1.782   0.282   7.368
  139POPC   C2B 2099   1.681   0.108   6.978
  139POPC   C3B 2100   1.827   0.206   6.571
  139POPC   C4B 2101   1.700   0.229   6.154
  140POPC   NC3 2102   5.330   9.477   8.294
  140POPC   PO4 2103   4.845   9.048   8.046
  140POPC   GL1 2104   4.789   9.215   7.681
  140POPC   GL2 2105   5.004   9.449   7.622
  140POPC   C1A 2106   4.904   9.079   7.278
  140POPC   D2A 2107   4.701   9.171   6.935
  140POPC   C3A 2108   4.854   9.179   6.559
  140POPC   C4A 2109   4.764   8.904   6.272
  140POPC   C1B 2110   4.816   9.592   7.246
  140POPC   C2B 2111   4.727   9.685   6.806
  140POPC   C3B 2112   4.784   9.659   6.399
  140POPC   C4B 2113   4.953   9.513   6.016
  141POPC   NC3 2114   9.536   1.824   8.194
  141POPC   PO4 2115   9.184   2.365   8.109
  141POPC   GL1 2116   9.409   2.081   7.772
  141POPC   GL2 2117   9.447   1.712   7.713
  141POPC   C1A 2118   9.576   2.041   7.328
  141POPC   D2A 2119   9.863   1.918   6.982
  141POPC   C3A 2120   9.726   2.115   6.591
  141POPC   C4A 2121   9.616   2.087   6.170
  141POPC   C1B 2122   9.138   1.774   7.370
  141POPC   C2B 2123   9.265   1.776   6.929
  141POPC   C3B 2124   9.265   1.880   6.492
  141POPC   C4B 2125   9.103   1.902   6.056
  142POPC   NC3 2126  10.198   1.975   8.315
  142POPC   PO4 2127  10.219   2.618   8.018
  142POPC   GL1 2128  10.104   2.677   7.611
  142POPC   GL2 2129  10.036   3.004   7.555
  142POPC   C1A 2130  10.071   2.701   7.149
  142POPC   D2A 2131   9.771   2.553   6.879
  142POPC   C3A 2132  10.065   2.520   6.567
  142POPC   C4A 2133  10.049   2.371   6.170
  142POPC   C1B 2134  10.435   2.986   7.351
  142POPC   C2B 2135  10.437   3.105   6.931
  142POPC   C3B 2136  10.354   3.243   6.536
  142POPC   C4B 2137  10.282   2.886   6.284
  143POPC   NC3 2138   4.515   9.483   8.070
  143POPC   PO4 2139   3.907   9.186   7.995
  143POPC   GL1 2140   4.231   9.218   7.715
  143POPC   GL2 2141   4.120   9.550   7.667
  143POPC   C1A 2142   4.420   9.298   7.345
  143POPC   D2A 2143   4.315   9.500   7.000
  143POPC   C3A 2144   4.374   9.337   6.579
  143POPC   C4A 2145   4.426   9.432   6.144
  143POPC   C1B 2146   3.909   9.360   7.276
  143POPC   C2B 2147   3.890   9.346   6.802
  143POPC   C3B 2148   3.907   9.384   6.391
  143POPC   C4B 2149   3.997   9.690   6.190
  144POPC   NC3 2150   4.937   8.577   8.102
  144POPC   PO4 2151   5.511   8.751   7.985
  144POPC   GL1 2152   5.165   8.744   7.644
  144POPC   GL2 2153   4.789   8.705   7.637
  144POPC   C1A 2154   5.250   8.720   7.215
  144POPC   D2A 2155   5.332   8.994   6.905
  144POPC   C3A 2156   5.220   8.828   6.539
  144POPC   C4A 2157   5.197   8.498   6.258
  144POPC   C1B 2158   4.787   8.518   7.219
  144POPC   C2B 2159   4.772   8.680   6.791
  144POPC   C3B 2160   4.697   8.430   6.420
  144POPC   C4B 2161   4.530   8.524   6.020
  145POPC   NC3 2162   8.696   4.149   8.264
  145POPC   PO4 2163   8.401   4.677   8.066
  145POPC   GL1 2164   8.371   4.433   7.671
  145POPC   GL2 2165   8.657   4.380   7.451
  145POPC   C1A 2166   8.228   4.169   7.297
  145POPC   D2A 2167   8.318   4.261   6.881
  145POPC   C3A 2168   8.266   4.007   6.494
  145POPC   C4A 2169   8.076   4.128   6.078
  145POPC   C1B 2170   8.735   4.058   7.167
  145POPC   C2B 2171   8.713   3.937   6.765
  145POPC   C3B 2172   8.756   3.909   6.346
  145POPC   C4B 2173   8.737   4.228   6.069
  146POPC   NC3 2174   7.139   2.697   8.092
  146POPC   PO4 2175   7.716   2.353   8.061
  146POPC   GL1 2176   7.496   2.512   7.683
  146POPC   GL2 2177   7.171   2.700   7.591
  146POPC   C1A 2178   7.492   2.578   7.227
  146POPC   D2A 2179   7.669   2.709   6.855
  146POPC   C3A 2180   7.402   2.803   6.533
  146POPC   C4A 2181   7.597   2.656   6.214
  146POPC   C1B 2182   7.011   2.401   7.265
  146POPC   C2B 2183   6.857   2.250   6.884
  146POPC   C3B 2184   7.012   2.428   6.551
  146POPC   C4B 2185   7.004   2.656   6.231
  147POPC   NC3 2186   4.986  10.348   7.897
  147POPC   PO4 2187   4.907   9.744   8.210
  147POPC   GL1 2188   5.143   9.869   7.845
  147POPC   GL2 2189   4.886   9.964   7.591
  147POPC   C1A 2190   5.281   9.821   7.358
  147POPC   D2A 2191   5.059   9.986   7.008
  147POPC   C3A 2192   5.202   9.871   6.588
  147POPC   C4A 2193   5.029  10.047   6.203
  147POPC   C1B 2194   4.741  10.294   7.301
  147POPC   C2B 2195   4.553  10.333   6.932
  147POPC   C3B 2196   4.692  10.184   6.573
  147POPC   C4B 2197   4.680  10.425   6.213
  148POPC   NC3 2198   8.652   0.317   8.189
  148POPC   PO4 2199   7.991   0.081   8.046
  148POPC   GL1 2200   8.372   0.342   7.769
  148POPC   GL2 2201   8.745   0.380   7.692
  148POPC   C1A 2202   8.377   0.445   7.304
  148POPC   D2A 2203   8.176   0.468   6.870
  148POPC   C3A 2204   8.366   0.461   6.474
  148POPC   C4A 2205   8.366   0.098   6.210
  148POPC   C1B 2206   8.885   0.459   7.269
  148POPC   C2B 2207   8.698   0.497   6.892
  148POPC   C3B 2208   8.882   0.481   6.528
  148POPC   C4B 2209   8.923   0.648   6.175
  149POPC   NC3 2210   4.229   8.840   8.059
  149POPC   PO4 2211   4.597   8.275   8.081
  149POPC   GL1 2212   4.319   8.479   7.690
  149POPC   GL2 2213   4.001   8.732   7.604
  149POPC   C1A 2214   4.392   8.796   7.316
  149POPC   D2A 2215   4.207   8.980   6.951
  149POPC   C3A 2216   4.314   8.845   6.517
  149POPC   C4A 2217   4.271   8.962   6.076
  149POPC   C1B 2218   4.026   8.443   7.241
  149POPC   C2B 2219   4.292   8.466   6.864
  149POPC   C3B 2220   4.188   8.368   6.412
  149POPC   C4B 2221   4.031   8.534   6.007
  150POPC   NC3 2222   9.754  10.245   4.145
  150POPC   PO4 2223   9.181  10.246   3.709
  150POPC   GL1 2224   9.244   9.895   4.134
  150POPC   GL2 2225   9.461   9.925   4.387
  150POPC   C1A 2226   9.076  10.044   4.675
  150POPC   D2A 2227   9.048  10.332   5.078
  150POPC   C3A 2228   9.251  10.215   5.467
  150POPC   C4A 2229   9.122  10.272   5.872
  150POPC   C1B 2230   9.597  10.126   4.785
  150POPC   C2B 2231   9.814  10.046   5.182
  150POPC   C3B 2232   9.862  10.350   5.521
  150POPC   C4B 2233   9.630  10.336   5.857
  151POPC   NC3 2234   6.374   9.896   3.868
  151POPC   PO4 2235   6.871  10.222   3.744
  151POPC   GL1 2236   6.753  10.034   4.165
  151POPC   GL2 2237   6.451  10.260   4.222
  151POPC   C1A 2238   6.487   9.870   4.550
  151POPC   D2A 2239   6.284   9.996   4.947
  151POPC   C3A 2240   6.560   9.932   5.289
  151POPC   C4A 2241   6.671   9.963   5.719
  151POPC   C1B 2242   6.239  10.388   4.594
  151POPC   C2B 2243   6.234   0.044   5.012
  151POPC   C3B 2244   6.338  10.381   5.372
  151POPC   C4B 2245   6.319  10.322   5.788
  152POPC   NC3 2246   0.783   9.583   4.128
  152POPC   PO4 2247   1.238   9.344   3.638
  152POPC   GL1 2248   1.194   9.269   4.117
  152POPC   GL2 2249   1.399   9.508   4.226
  152POPC   C1A 2250   1.041   9.203   4.609
  152POPC   D2A 2251   1.035   9.000   5.060
  152POPC   C3A 2252   0.807   9.128   5.445
  152POPC   C4A 2253   0.989   9.384   5.785
  152POPC   C1B 2254   1.443   9.650   4.640
  152POPC   C2B 2255   1.387   9.374   4.963
  152POPC   C3B 2256   1.280   9.362   5.367
  152POPC   C4B 2257   1.503   9.513   5.742
  153POPC   NC3 2258   1.325  10.338   3.873
  153POPC   PO4 2259   0.731  10.036   4.074
  153POPC   GL1 2260   1.041  10.253   4.293
  153POPC   GL2 2261   1.233   9.982   4.305
  153POPC   C1A 2262   1.246  10.281   4.707
  153POPC   D2A 2263   0.881  10.303   4.945
  153POPC   C3A 2264   0.885  10.272   5.396
  153POPC   C4A 2265   1.029  10.410   5.804
  153POPC   C1B 2266   0.965   9.856   4.679
  153POPC   C2B 2267   1.106   9.822   5.074
  153POPC   C3B 2268   1.148   9.836   5.498
  153POPC   C4B 2269   1.500  10.050   5.670
  154POPC   NC3 2270   1.151   1.384   4.086
  154POPC   PO4 2271   1.617   0.932   3.781
  154POPC   GL1 2272   1.543   1.101   4.246
  154POPC   GL2 2273   1.246   1.039   4.472
  154POPC   C1A 2274   1.537   1.395   4.689
  154POPC   D2A 2275   1.344   1.418   5.122
  154POPC   C3A 2276   1.561   1.482   5.534
  154POPC   C4A 2277   1.562   1.258   5.938
  154POPC   C1B 2278   0.988   1.354   4.701
  154POPC   C2B 2279   0.847   1.514   5.060
  154POPC   C3B 2280   0.821   1.227   5.393
  154POPC   C4B 2281   1.073   1.241   5.730
  155POPC   NC3 2282   8.790   7.821   3.904
  155POPC   PO4 2283   8.247   8.267   3.814
  155POPC   GL1 2284   8.327   8.060   4.218
  155POPC   GL2 2285   8.674   8.029   4.342
  155POPC   C1A 2286   8.297   8.026   4.675
  155POPC   D2A 2287   8.566   8.134   5.008
  155POPC   C3A 2288   8.520   8.014   5.441
  155POPC   C4A 2289   8.241   8.014   5.796
  155POPC   C1B 2290   8.829   7.827   4.677
  155POPC   C2B 2291   8.821   7.700   5.101
  155POPC   C3B 2292   9.024   7.857   5.480
  155POPC   C4B 2293   8.835   7.852   5.895
  156POPC   NC3 2294   2.761   1.067   3.990
  156POPC   PO4 2295   3.152   1.595   3.747
  156POPC   GL1 2296   3.045   1.409   4.187
  156POPC   GL2 2297   2.654   1.472   4.260
  156POPC   C1A 2298   3.002   1.369   4.670
  156POPC   D2A 2299   3.042   1.055   5.012
  156POPC   C3A 2300   3.076   1.192   5.438
  156POPC   C4A 2301   2.874   1.061   5.835
  156POPC   C1B 2302   2.525   1.200   4.624
  156POPC   C2B 2303   2.595   1.379   5.052
  156POPC   C3B 2304   2.584   1.312   5.489
  156POPC   C4B 2305   2.329   0.994   5.627
  157POPC   NC3 2306   0.603   3.428   3.999
  157POPC   PO4 2307  10.449   3.443   3.842
  157POPC   GL1 2308   0.129   3.572   4.246
  157POPC   GL2 2309   0.306   3.277   4.379
  157POPC   C1A 2310   0.032   3.602   4.696
  157POPC   D2A 2311   0.254   3.441   5.043
  157POPC   C3A 2312   0.142   3.449   5.460
  157POPC   C4A 2313   0.348   3.170   5.745
  157POPC   C1B 2314   0.618   3.433   4.670
  157POPC   C2B 2315   0.822   3.403   5.044
  157POPC   C3B 2316   0.737   3.355   5.458
  157POPC   C4B 2317   0.531   3.660   5.729
  158POPC   NC3 2318   8.797   5.363   3.854
  158POPC   PO4 2319   8.891   6.042   3.927
  158POPC   GL1 2320   8.859   5.739   4.305
  158POPC   GL2 2321   8.538   5.709   4.233
  158POPC   C1A 2322   8.961   5.516   4.730
  158POPC   D2A 2323   8.735   5.507   5.114
  158POPC   C3A 2324   8.842   5.552   5.523
  158POPC   C4A 2325   8.537   5.371   5.799
  158POPC   C1B 2326   8.475   5.657   4.676
  158POPC   C2B 2327   8.248   5.667   5.059
  158POPC   C3B 2328   8.411   5.862   5.400
  158POPC   C4B 2329   8.497   5.871   5.809
  159POPC   NC3 2330   7.901   4.985   3.793
  159POPC   PO4 2331   8.468   5.003   3.890
  159POPC   GL1 2332   8.284   4.749   4.240
  159POPC   GL2 2333   7.906   4.799   4.309
  159POPC   C1A 2334   8.242   4.822   4.713
  159POPC   D2A 2335   8.085   4.694   5.165
  159POPC   C3A 2336   7.843   4.800   5.574
  159POPC   C4A 2337   7.952   4.649   6.015
  159POPC   C1B 2338   7.784   5.024   4.747
  159POPC   C2B 2339   7.848   5.183   5.214
  159POPC   C3B 2340   7.645   5.257   5.654
  159POPC   C4B 2341   7.679   5.318   6.117
  160POPC   NC3 2342   2.012  10.240   3.824
  160POPC   PO4 2343   1.588   0.234   3.878
  160POPC   GL1 2344   1.845   0.053   4.217
  160POPC   GL2 2345   1.623  10.308   4.321
  160POPC   C1A 2346   2.112   0.025   4.655
  160POPC   D2A 2347   2.210  10.409   5.129
  160POPC   C3A 2348   2.028   0.088   5.545
  160POPC   C4A 2349   2.165   0.095   6.012
  160POPC   C1B 2350   1.745  10.168   4.753
  160POPC   C2B 2351   1.832  10.038   5.185
  160POPC   C3B 2352   2.005  10.075   5.606
  160POPC   C4B 2353   1.834  10.240   6.006
  161POPC   NC3 2354   1.857   4.501   4.042
  161POPC   PO4 2355   1.807   3.892   3.769
  161POPC   GL1 2356   2.017   4.037   4.191
  161POPC   GL2 2357   1.785   4.114   4.438
  161POPC   C1A 2358   2.188   3.979   4.678
  161POPC   D2A 2359   1.946   4.095   5.069
  161POPC   C3A 2360   2.165   4.000   5.480
  161POPC   C4A 2361   2.208   3.963   5.947
  161POPC   C1B 2362   1.784   4.480   4.704
  161POPC   C2B 2363   1.785   4.673   5.095
  161POPC   C3B 2364   1.772   4.423   5.434
  161POPC   C4B 2365   1.772   4.173   5.768
  162POPC   NC3 2366   7.025   0.483   4.003
  162POPC   PO4 2367   7.643   0.345   3.877
  162POPC   GL1 2368   7.634   0.496   4.262
  162POPC   GL2 2369   7.351   0.283   4.326
  162POPC   C1A 2370   7.521   0.555   4.703
  162POPC   D2A 2371   7.454   0.428   5.141
  162POPC   C3A 2372   7.410   0.722   5.488
  162POPC   C4A 2373   7.431   0.706   5.957
  162POPC   C1B 2374   7.103   0.264   4.713
  162POPC   C2B 2375   6.987   0.223   5.132
  162POPC   C3B 2376   7.099   0.296   5.598
  162POPC   C4B 2377   7.024   0.410   6.056
  163POPC   NC3 2378   8.002   0.075   3.921
  163POPC   PO4 2379   8.664   0.080   3.788
  163POPC   GL1 2380   8.400   0.217   4.198
  163POPC   GL2 2381   8.169   0.532   4.177
  163POPC   C1A 2382   8.048   0.198   4.546
  163POPC   D2A 2383   7.775  10.483   4.863
  163POPC   C3A 2384   7.856   0.090   5.310
  163POPC   C4A 2385   7.617   0.284   5.642
  163POPC   C1B 2386   7.997   0.719   4.563
  163POPC   C2B 2387   7.952   0.486   4.958
  163POPC   C3B 2388   7.890   0.634   5.345
  163POPC   C4B 2389   7.891   0.711   5.754
  164POPC   NC3 2390   8.838  10.217   4.064
  164POPC   PO4 2391   8.733   9.589   3.895
  164POPC   GL1 2392   8.853   9.719   4.354
  164POPC   GL2 2393   8.618   9.985   4.458
  164POPC   C1A 2394   8.761   9.625   4.792
  164POPC   D2A 2395   8.781   9.919   5.099
  164POPC   C3A 2396   8.965   9.801   5.493
  164POPC   C4A 2397   8.799   9.900   5.874
  164POPC   C1B 2398   8.662  10.344   4.730
  164POPC   C2B 2399   8.539  10.461   5.130
  164POPC   C3B 2400   8.633  10.227   5.485
  164POPC   C4B 2401   8.634  10.368   5.872
  165POPC   NC3 2402   1.913   2.843   3.928
  165POPC   PO4 2403   1.326   2.541   3.982
  165POPC   GL1 2404   1.554   2.790   4.279
  165POPC   GL2 2405   1.907   2.688   4.396
  165POPC   C1A 2406   1.535   2.783   4.716
  165POPC   D2A 2407   1.821   2.689   5.032
  165POPC   C3A 2408   1.598   2.837   5.357
  165POPC   C4A 2409   1.539   2.800   5.725
  165POPC   C1B 2410   2.197   2.522   4.702
  165POPC   C2B 2411   2.352   2.364   5.066
  165POPC   C3B 2412   2.178   2.391   5.454
  165POPC   C4B 2413   2.019   2.671   5.732
  166POPC   NC3 2414   6.688   8.359   3.772
  166POPC   PO4 2415   6.165   8.849   3.849
  166POPC   GL1 2416   6.169   8.778   4.361
  166POPC   GL2 2417   6.519   8.812   4.524
  166POPC   C1A 2418   6.272   8.453   4.738
  166POPC   D2A 2419   6.506   8.576   5.118
  166POPC   C3A 2420   6.332   8.538   5.544
  166POPC   C4A 2421   6.189   8.181   5.809
  166POPC   C1B 2422   6.233   8.961   4.849
  166POPC   C2B 2423   6.216   9.030   5.280
  166POPC   C3B 2424   6.563   8.990   5.533
  166POPC   C4B 2425   6.613   8.990   5.972
  167POPC   NC3 2426  10.198   7.243   3.971
  167POPC   PO4 2427   9.779   6.836   3.849
  167POPC   GL1 2428   9.823   7.064   4.293
  167POPC   GL2 2429  10.180   7.155   4.451
  167POPC   C1A 2430   9.841   7.021   4.771
  167POPC   D2A 2431   9.974   6.875   5.141
  167POPC   C3A 2432  10.001   7.105   5.496
  167POPC   C4A 2433  10.054   6.992   5.887
  167POPC   C1B 2434  10.224   7.420   4.834
  167POPC   C2B 2435  10.407   7.207   5.209
  167POPC   C3B 2436  10.496   6.965   5.632
  167POPC   C4B 2437   0.008   7.048   6.119
  168POPC   NC3 2438   8.181   1.579   4.226
  168POPC   PO4 2439   8.153   0.937   3.863
  168POPC   GL1 2440   8.239   1.070   4.239
  168POPC   GL2 2441   7.865   1.143   4.251
  168POPC   C1A 2442   8.377   1.083   4.663
  168POPC   D2A 2443   8.170   0.931   5.034
  168POPC   C3A 2444   8.291   0.948   5.478
  168POPC   C4A 2445   8.190   1.100   5.900
  168POPC   C1B 2446   7.889   1.225   4.700
  168POPC   C2B 2447   7.875   1.316   5.149
  168POPC   C3B 2448   7.795   1.162   5.538
  168POPC   C4B 2449   7.595   1.534   5.727
  169POPC   NC3 2450   4.903   8.426   4.042
  169POPC   PO4 2451   4.854   9.125   3.958
  169POPC   GL1 2452   4.893   8.959   4.346
  169POPC   GL2 2453   4.608   8.749   4.336
  169POPC   C1A 2454   4.778   9.006   4.769
  169POPC   D2A 2455   4.611   8.946   5.156
  169POPC   C3A 2456   4.802   8.814   5.477
  169POPC   C4A 2457   4.961   8.690   5.849
  169POPC   C1B 2458   4.784   8.482   4.678
  169POPC   C2B 2459   4.920   8.518   5.100
  169POPC   C3B 2460   4.821   8.314   5.521
  169POPC   C4B 2461   4.914   8.183   5.954
  170POPC   NC3 2462   7.788   6.507   3.905
  170POPC   PO4 2463   7.565   7.018   4.091
  170POPC   GL1 2464   7.834   6.696   4.389
  170POPC   GL2 2465   8.050   6.409   4.322
  170POPC   C1A 2466   7.955   6.512   4.826
  170POPC   D2A 2467   7.710   6.387   5.198
  170POPC   C3A 2468   7.775   6.569   5.608
  170POPC   C4A 2469   8.019   6.552   5.962
  170POPC   C1B 2470   8.221   6.113   4.600
  170POPC   C2B 2471   8.350   6.182   4.998
  170POPC   C3B 2472   8.201   6.366   5.347
  170POPC   C4B 2473   8.043   6.105   5.693
  171POPC   NC3 2474   5.699   2.252   3.971
  171POPC   PO4 2475   5.346   1.677   3.825
  171POPC   GL1 2476   5.520   1.729   4.240
  171POPC   GL2 2477   5.849   1.859   4.267
  171POPC   C1A 2478   5.672   1.634   4.682
  171POPC   D2A 2479   5.849   1.726   5.076
  171POPC   C3A 2480   5.602   1.826   5.415
  171POPC   C4A 2481   5.723   1.622   5.767
  171POPC   C1B 2482   5.656   2.128   4.635
  171POPC   C2B 2483   5.752   2.232   5.087
  171POPC   C3B 2484   5.867   2.256   5.547
  171POPC   C4B 2485   5.631   2.360   5.939
  172POPC   NC3 2486   1.541   3.749   4.129
  172POPC   PO4 2487   0.975   3.337   3.730
  172POPC   GL1 2488   1.087   3.446   4.187
  172POPC   GL2 2489   1.203   3.166   4.320
  172POPC   C1A 2490   1.077   3.668   4.625
  172POPC   D2A 2491   1.238   3.746   5.064
  172POPC   C3A 2492   0.955   3.800   5.438
  172POPC   C4A 2493   1.007   3.598   5.863
  172POPC   C1B 2494   1.412   3.277   4.691
  172POPC   C2B 2495   1.279   3.189   5.097
  172POPC   C3B 2496   1.318   3.410   5.467
  172POPC   C4B 2497   1.370   3.258   5.857
  173POPC   NC3 2498   0.588   2.313   4.112
  173POPC   PO4 2499   0.701   3.005   4.178
  173POPC   GL1 2500   0.570   2.712   4.419
  173POPC   GL2 2501   0.251   2.750   4.425
  173POPC   C1A 2502   0.692   2.475   4.763
  173POPC   D2A 2503   0.491   2.491   5.140
  173POPC   C3A 2504   0.668   2.645   5.534
  173POPC   C4A 2505   0.423   2.472   5.833
  173POPC   C1B 2506   0.431   2.976   4.814
  173POPC   C2B 2507   0.444   3.000   5.240
  173POPC   C3B 2508   0.175   2.736   5.475
  173POPC   C4B 2509   0.034   2.807   5.873
  174POPC   NC3 2510   1.889   7.163   3.957
  174POPC   PO4 2511   2.516   7.161   3.935
  174POPC   GL1 2512   2.229   7.110   4.324
  174POPC   GL2 2513   1.906   7.295   4.439
  174POPC   C1A 2514   2.166   7.049   4.782
  174POPC   D2A 2515   2.139   7.280   5.163
  174POPC   C3A 2516   2.150   6.959   5.458
  174POPC   C4A 2517   2.089   6.872   5.865
  174POPC   C1B 2518   1.669   7.184   4.793
  174POPC   C2B 2519   1.699   7.006   5.198
  174POPC   C3B 2520   1.699   7.152   5.609
  174POPC   C4B 2521   1.685   7.409   5.958
  175POPC   NC3 2522   7.225   7.323   4.037
  175POPC   PO4 2523   6.768   7.909   3.898
  175POPC   GL1 2524   7.013   7.923   4.349
  175POPC   GL2 2525   7.375   7.953   4.396
  175POPC   C1A 2526   7.088   7.752   4.785
  175POPC   D2A 2527   7.264   7.748   5.225
  175POPC   C3A 2528   7.096   7.707   5.665
  175POPC   C4A 2529   7.073   7.364   5.982
  175POPC   C1B 2530   7.340   8.215   4.758
  175POPC   C2B 2531   7.378   8.398   5.156
  175POPC   C3B 2532   7.216   8.194   5.504
  175POPC   C4B 2533   7.263   8.135   5.920
  176POPC   NC3 2534   1.228   2.119   3.843
  176POPC   PO4 2535   1.573   1.605   4.076
  176POPC   GL1 2536   1.407   1.911   4.348
  176POPC   GL2 2537   1.131   1.757   4.443
  176POPC   C1A 2538   1.424   1.889   4.812
  176POPC   D2A 2539   1.370   1.968   5.201
  176POPC   C3A 2540   1.103   1.734   5.473
  176POPC   C4A 2541   1.245   1.653   5.918
  176POPC   C1B 2542   0.888   1.943   4.784
  176POPC   C2B 2543   0.922   2.211   5.153
  176POPC   C3B 2544   0.759   2.151   5.560
  176POPC   C4B 2545   0.993   2.093   5.910
  177POPC   NC3 2546   5.012   0.560   3.848
  177POPC   PO4 2547   4.412   0.677   4.134
  177POPC   GL1 2548   4.643   0.639   4.465
  177POPC   GL2 2549   4.851   0.381   4.294
  177POPC   C1A 2550   4.685   0.681   4.919
  177POPC   D2A 2551   4.660   0.402   5.237
  177POPC   C3A 2552   4.732   0.574   5.616
  177POPC   C4A 2553   4.770   0.247   5.845
  177POPC   C1B 2554   4.949   0.302   4.698
  177POPC   C2B 2555   5.128   0.484   5.055
  177POPC   C3B 2556   5.140   0.325   5.438
  177POPC   C4B 2557   5.281   0.393   5.810
  178POPC   NC3 2558   3.489   1.871   3.971
  178POPC   PO4 2559   2.957   1.877   4.265
  178POPC   GL1 2560   3.252   1.821   4.490
  178POPC   GL2 2561   3.620   1.904   4.465
  178POPC   C1A 2562   3.178   1.819   4.913
  178POPC   D2A 2563   3.392   1.942   5.240
  178POPC   C3A 2564   3.247   1.656   5.479
  178POPC   C4A 2565   2.958   1.583   5.811
  178POPC   C1B 2566   3.452   2.216   4.748
  178POPC   C2B 2567   3.593   2.408   5.098
  178POPC   C3B 2568   3.727   2.285   5.495
  178POPC   C4B 2569   3.462   2.037   5.735
  179POPC   NC3 2570   6.604   2.241   3.962
  179POPC   PO4 2571   6.839   1.646   4.039
  179POPC   GL1 2572   6.705   1.875   4.362
  179POPC   GL2 2573   6.360   1.819   4.313
  179POPC   C1A 2574   6.625   1.989   4.787
  179POPC   D2A 2575   6.769   1.877   5.181
  179POPC   C3A 2576   6.583   2.083   5.515
  179POPC   C4A 2577   6.603   1.799   5.826
  179POPC   C1B 2578   6.132   1.947   4.709
  179POPC   C2B 2579   6.229   2.061   5.157
  179POPC   C3B 2580   6.139   1.819   5.545
  179POPC   C4B 2581   6.197   1.499   5.924
  180POPC   NC3 2582   9.059   0.293   3.682
  180POPC   PO4 2583   9.291  10.363   4.195
  180POPC   GL1 2584   8.904   0.114   4.375
  180POPC   GL2 2585   8.831   0.479   4.294
  180POPC   C1A 2586   8.876   0.318   4.798
  180POPC   D2A 2587   9.132   0.352   5.162
  180POPC   C3A 2588   8.942   0.150   5.497
  180POPC   C4A 2589   8.752   0.348   5.822
  180POPC   C1B 2590   8.489   0.578   4.609
  180POPC   C2B 2591   8.461   0.500   5.080
  180POPC   C3B 2592   8.324   0.405   5.521
  180POPC   C4B 2593   8.339   0.583   5.954
  181POPC   NC3 2594  10.303   0.539   3.949
  181POPC   PO4 2595   9.628   0.535   3.705
  181POPC   GL1 2596   9.824   0.554   4.193
  181POPC   GL2 2597  10.167   0.381   4.395
  181POPC   C1A 2598   9.743   0.305   4.605
  181POPC   D2A 2599   9.652   0.443   5.010
  181POPC   C3A 2600   9.881   0.394   5.389
  181POPC   C4A 2601   9.998   0.273   5.812
  181POPC   C1B 2602  10.150   0.465   4.825
  181POPC   C2B 2603  10.148   0.730   5.132
  181POPC   C3B 2604  10.374   0.688   5.480
  181POPC   C4B 2605  10.379   0.668   5.929
  182POPC   NC3 2606   8.398   2.530   3.987
  182POPC   PO4 2607   8.948   3.011   3.874
  182POPC   GL1 2608   8.874   2.797   4.262
  182POPC   GL2 2609   8.557   2.971   4.342
  182POPC   C1A 2610   9.043   2.708   4.690
  182POPC   D2A 2611   8.963   2.909   5.074
  182POPC   C3A 2612   9.018   2.651   5.415
  182POPC   C4A 2613   8.862   2.694   5.820
  182POPC   C1B 2614   8.529   2.595   4.634
  182POPC   C2B 2615   8.619   2.511   5.071
  182POPC   C3B 2616   8.524   2.813   5.356
  182POPC   C4B 2617   8.336   2.784   5.733
  183POPC   NC3 2618   4.623  10.139   3.828
  183POPC   PO4 2619   5.167   0.081   3.858
  183POPC   GL1 2620   5.203  10.455   4.259
  183POPC   GL2 2621   5.025  10.152   4.165
  183POPC   C1A 2622   5.323  10.456   4.677
  183POPC   D2A 2623   5.067  10.463   5.055
  183POPC   C3A 2624   5.244  10.335   5.424
  183POPC   C4A 2625   5.044  10.336   5.788
  183POPC   C1B 2626   4.812  10.272   4.570
  183POPC   C2B 2627   4.808  10.041   4.981
  183POPC   C3B 2628   4.967   9.885   5.361
  183POPC   C4B 2629   4.757   9.906   5.771
  184POPC   NC3 2630   9.284   1.115   3.991
  184POPC   PO4 2631   9.867   1.105   4.190
  184POPC   GL1 2632   9.657   0.951   4.477
  184POPC   GL2 2633   9.371   1.086   4.488
  184POPC   C1A 2634   9.743   0.947   4.876
  184POPC   D2A 2635   9.674   0.861   5.264
  184POPC   C3A 2636   9.836   1.113   5.490
  184POPC   C4A 2637   9.531   1.310   5.702
  184POPC   C1B 2638   9.453   1.376   4.782
  184POPC   C2B 2639   9.419   1.305   5.203
  184POPC   C3B 2640   9.081   1.195   5.479
  184POPC   C4B 2641   9.015   1.458   5.832
  185POPC   NC3 2642   2.428   8.738   4.016
  185POPC   PO4 2643   2.867   8.293   3.750
  185POPC   GL1 2644   2.753   8.409   4.240
  185POPC   GL2 2645   2.396   8.471   4.431
  185POPC   C1A 2646   2.794   8.638   4.678
  185POPC   D2A 2647   2.955   8.739   5.090
  185POPC   C3A 2648   2.757   9.069   5.358
  185POPC   C4A 2649   2.847   8.923   5.784
  185POPC   C1B 2650   2.197   8.350   4.791
  185POPC   C2B 2651   2.424   8.546   5.087
  185POPC   C3B 2652   2.630   8.589   5.468
  185POPC   C4B 2653   2.559   8.413   5.869
  186POPC   NC3 2654   7.316  10.233   3.853
  186POPC   PO4 2655   6.817   0.105   4.147
  186POPC   GL1 2656   7.131  10.323   4.338
  186POPC   GL2 2657   7.273   9.967   4.279
  186POPC   C1A 2658   6.900  10.148   4.655
  186POPC   D2A 2659   6.689  10.325   4.986
  186POPC   C3A 2660   6.858  10.335   5.415
  186POPC   C4A 2661   6.817  10.438   5.837
  186POPC   C1B 2662   7.287   9.837   4.701
  186POPC   C2B 2663   7.185  10.056   5.068
  186POPC   C3B 2664   7.070   9.868   5.430
  186POPC   C4B 2665   7.195  10.099   5.768
  187POPC   NC3 2666   7.113   9.256   3.786
  187POPC   PO4 2667   7.544   9.564   4.082
  187POPC   GL1 2668   7.404   9.292   4.389
  187POPC   GL2 2669   7.081   9.211   4.291
  187POPC   C1A 2670   7.207   9.329   4.795
  187POPC   D2A 2671   7.329   9.567   5.129
  187POPC   C3A 2672   7.367   9.347   5.478
  187POPC   C4A 2673   7.245   9.560   5.798
  187POPC   C1B 2674   6.915   9.605   4.464
  187POPC   C2B 2675   6.845   9.685   4.939
  187POPC   C3B 2676   6.890   9.345   5.295
  187POPC   C4B 2677   7.035   9.059   5.692
  188POPC   NC3 2678   9.210   8.970   3.958
  188POPC   PO4 2679   9.722   8.591   3.830
  188POPC   GL1 2680   9.734   8.743   4.221
  188POPC   GL2 2681   9.425   8.612   4.310
  188POPC   C1A 2682   9.749   8.759   4.673
  188POPC   D2A 2683   9.608   8.693   5.103
  188POPC   C3A 2684   9.861   8.831   5.446
  188POPC   C4A 2685   9.781   8.911   5.871
  188POPC   C1B 2686   9.232   8.757   4.718
  188POPC   C2B 2687   9.100   8.775   5.141
  188POPC   C3B 2688   9.255   8.764   5.578
  188POPC   C4B 2689   8.967   8.678   5.916
  189POPC   NC3 2690   3.711  10.169   3.851
  189POPC   PO4 2691   3.044   9.749   3.897
  189POPC   GL1 2692   3.174   9.788   4.288
  189POPC   GL2 2693   3.436   9.967   4.217
  189POPC   C1A 2694   2.989   9.847   4.695
  189POPC   D2A 2695   3.083  10.071   5.071
  189POPC   C3A 2696   3.022   9.880   5.465
  189POPC   C4A 2697   3.225   9.839   5.857
  189POPC   C1B 2698   3.428  10.110   4.645
  189POPC   C2B 2699   3.614  10.132   5.060
  189POPC   C3B 2700   3.533  10.182   5.491
  189POPC   C4B 2701   3.835   0.010   5.715
  190POPC   NC3 2702   8.298   9.372   3.878
  190POPC   PO4 2703   8.374  10.023   3.986
  190POPC   GL1 2704   8.402   9.547   4.315
  190POPC   GL2 2705   8.722   9.245   4.251
  190POPC   C1A 2706   8.458   9.216   4.663
  190POPC   D2A 2707   8.627   9.160   5.070
  190POPC   C3A 2708   8.619   9.488   5.302
  190POPC   C4A 2709   8.630   9.460   5.730
  190POPC   C1B 2710   8.968   9.178   4.642
  190POPC   C2B 2711   9.106   9.318   5.080
  190POPC   C3B 2712   9.037   9.257   5.507
  190POPC   C4B 2713   9.107   9.485   5.900
  191POPC   NC3 2714   2.401   0.490   3.836
  191POPC   PO4 2715   3.005   0.779   3.723
  191POPC   GL1 2716   2.792   0.550   4.144
  191POPC   GL2 2717   2.895   0.194   4.167
  191POPC   C1A 2718   2.710   0.696   4.638
  191POPC   D2A 2719   2.566   0.861   5.053
  191POPC   C3A 2720   2.752   0.810   5.399
  191POPC   C4A 2721   2.666   0.597   5.748
  191POPC   C1B 2722   2.564   0.240   4.504
  191POPC   C2B 2723   2.434   0.351   4.932
  191POPC   C3B 2724   2.467   0.312   5.371
  191POPC   C4B 2725   2.591   0.094   5.740
  192POPC   NC3 2726   8.788   6.508   3.870
  192POPC   PO4 2727   8.163   6.774   3.966
  192POPC   GL1 2728   8.498   6.634   4.276
  192POPC   GL2 2729   8.550   6.263   4.249
  192POPC   C1A 2730   8.475   6.598   4.730
  192POPC   D2A 2731   8.746   6.528   5.111
  192POPC   C3A 2732   8.746   6.739   5.543
  192POPC   C4A 2733   8.933   6.678   5.985
  192POPC   C1B 2734   8.746   6.117   4.642
  192POPC   C2B 2735   8.815   6.001   5.073
  192POPC   C3B 2736   8.787   6.182   5.490
  192POPC   C4B 2737   8.470   6.383   5.764
  193POPC   NC3 2738   9.706   8.107   3.860
  193POPC   PO4 2739   9.017   8.228   3.986
  193POPC   GL1 2740   9.222   8.150   4.344
  193POPC   GL2 2741   9.541   8.070   4.338
  193POPC   C1A 2742   9.474   8.320   4.754
  193POPC   D2A 2743   9.582   8.087   5.122
  193POPC   C3A 2744   9.430   8.245   5.533
  193POPC   C4A 2745   9.184   8.201   5.925
  193POPC   C1B 2746   9.335   7.845   4.717
  193POPC   C2B 2747   9.333   7.639   5.118
  193POPC   C3B 2748   9.541   7.707   5.535
  193POPC   C4B 2749   9.869   7.666   5.876
  194POPC   NC3 2750   1.059   2.901   3.907
  194POPC   PO4 2751   0.808   2.264   3.721
  194POPC   GL1 2752   1.037   2.288   4.281
  194POPC   GL2 2753   1.060   2.663   4.374
  194POPC   C1A 2754   1.196   2.338   4.713
  194POPC   D2A 2755   1.367   2.467   5.087
  194POPC   C3A 2756   1.191   2.445   5.533
  194POPC   C4A 2757   1.371   2.413   5.972
  194POPC   C1B 2758   1.017   2.890   4.742
  194POPC   C2B 2759   0.959   2.773   5.142
  194POPC   C3B 2760   1.088   2.947   5.523
  194POPC   C4B 2761   0.861   3.067   5.854
  195POPC   NC3 2762   6.592   0.991   3.479
  195POPC   PO4 2763   7.212   0.973   3.846
  195POPC   GL1 2764   7.059   0.975   4.217
  195POPC   GL2 2765   7.037   1.292   4.415
  195POPC   C1A 2766   6.969   0.771   4.601
  195POPC   D2A 2767   7.061   0.926   4.987
  195POPC   C3A 2768   6.936   0.689   5.304
  195POPC   C4A 2769   6.826   0.739   5.705
  195POPC   C1B 2770   7.425   1.047   4.569
  195POPC   C2B 2771   7.577   0.944   5.007
  195POPC   C3B 2772   7.366   1.209   5.299
  195POPC   C4B 2773   7.286   1.140   5.729
  196POPC   NC3 2774   1.884   1.325   3.879
  196POPC   PO4 2775   2.324   1.746   3.868
  196POPC   GL1 2776   2.137   1.503   4.298
  196POPC   GL2 2777   2.053   1.129   4.334
  196POPC   C1A 2778   2.067   1.354   4.775
  196POPC   D2A 2779   2.127   1.107   5.121
  196POPC   C3A 2780   2.093   1.402   5.427
  196POPC   C4A 2781   2.092   1.397   5.861
  196POPC   C1B 2782   1.776   0.956   4.663
  196POPC   C2B 2783   1.636   0.961   5.092
  196POPC   C3B 2784   1.778   1.008   5.534
  196POPC   C4B 2785   1.939   0.935   5.967
  197POPC   NC3 2786   3.363   9.271   4.064
  197POPC   PO4 2787   4.100   9.163   4.038
  197POPC   GL1 2788   3.769   9.172   4.355
  197POPC   GL2 2789   3.672   9.536   4.357
  197POPC   C1A 2790   3.733   9.193   4.817
  197POPC   D2A 2791   3.685   9.201   5.263
  197POPC   C3A 2792   3.880   9.570   5.416
  197POPC   C4A 2793   3.717   9.759   5.768
  197POPC   C1B 2794   3.388   9.545   4.693
  197POPC   C2B 2795   3.414   9.668   5.110
  197POPC   C3B 2796   3.362   9.513   5.491
  197POPC   C4B 2797   3.006   9.397   5.699
  198POPC   NC3 2798   8.463  10.211   3.529
  198POPC   PO4 2799   7.798  10.176   3.809
  198POPC   GL1 2800   7.963  10.210   4.238
  198POPC   GL2 2801   7.666  10.377   4.319
  198POPC   C1A 2802   8.186  10.211   4.632
  198POPC   D2A 2803   8.280   9.953   4.995
  198POPC   C3A 2804   8.116  10.123   5.388
  198POPC   C4A 2805   8.132  10.420   5.748
  198POPC   C1B 2806   7.730  10.011   4.610
  198POPC   C2B 2807   7.722   9.940   5.038
  198POPC   C3B 2808   7.579  10.090   5.415
  198POPC   C4B 2809   7.779  10.026   5.784
  199POPC   NC3 2810   4.927   1.906   3.754
  199POPC   PO4 2811   4.518   2.304   3.937
  199POPC   GL1 2812   4.733   1.944   4.229
  199POPC   GL2 2813   4.994   1.655   4.236
  199POPC   C1A 2814   4.645   1.695   4.622
  199POPC   D2A 2815   4.843   1.739   5.028
  199POPC   C3A 2816   4.650   1.646   5.425
  199POPC   C4A 2817   4.666   1.847   5.842
  199POPC   C1B 2818   5.183   1.798   4.626
  199POPC   C2B 2819   5.278   2.001   5.039
  199POPC   C3B 2820   4.979   2.072   5.417
  199POPC   C4B 2821   5.106   2.212   5.838
  200POPC   NC3 2822   2.220   2.188   3.956
  200POPC   PO4 2823   1.772   2.496   3.667
  200POPC   GL1 2824   1.733   2.281   4.130
  200POPC   GL2 2825   1.907   1.966   4.266
  200POPC   C1A 2826   1.699   2.291   4.618
  200POPC   D2A 2827   1.865   2.185   5.050
  200POPC   C3A 2828   1.683   2.320   5.450
  200POPC   C4A 2829   1.462   2.026   5.686
  200POPC   C1B 2830   1.910   1.818   4.679
  200POPC   C2B 2831   1.801   1.682   5.114
  200POPC   C3B 2832   1.933   1.864   5.551
  200POPC   C4B 2833   1.756   1.741   5.984
  201POPC   NC3 2834   3.130   3.585   4.049
  201POPC   PO4 2835   2.603   3.405   3.781
  201POPC   GL1 2836   2.494   3.307   4.216
  201POPC   GL2 2837   2.799   3.305   4.428
  201POPC   C1A 2838   2.348   3.435   4.651
  201POPC   D2A 2839   2.579   3.345   5.026
  201POPC   C3A 2840   2.495   3.365   5.425
  201POPC   C4A 2841   2.780   3.247   5.775
  201POPC   C1B 2842   2.762   3.715   4.736
  201POPC   C2B 2843   2.579   3.849   5.195
  201POPC   C3B 2844   2.627   3.773   5.700
  201POPC   C4B 2845   2.909   3.650   6.081
  202POPC   NC3 2846   5.248   9.351   3.883
  202POPC   PO4 2847   4.700   9.701   3.940
  202POPC   GL1 2848   4.848   9.698   4.360
  202POPC   GL2 2849   5.102   9.446   4.356
  202POPC   C1A 2850   4.930   9.581   4.806
  202POPC   D2A 2851   4.670   9.439   5.101
  202POPC   C3A 2852   4.770   9.422   5.523
  202POPC   C4A 2853   4.681   9.128   5.835
  202POPC   C1B 2854   5.257   9.197   4.711
  202POPC   C2B 2855   5.111   9.075   5.163
  202POPC   C3B 2856   5.174   9.106   5.642
  202POPC   C4B 2857   5.207   9.073   6.098
  203POPC   NC3 2858   9.181   2.593   3.888
  203POPC   PO4 2859   9.445   1.983   3.967
  203POPC   GL1 2860   9.464   2.328   4.253
  203POPC   GL2 2861   9.397   2.699   4.333
  203POPC   C1A 2862   9.346   2.215   4.633
  203POPC   D2A 2863   9.300   2.283   5.093
  203POPC   C3A 2864   9.747   2.363   5.262
  203POPC   C4A 2865   9.767   2.317   5.730
  203POPC   C1B 2866   9.591   2.613   4.746
  203POPC   C2B 2867   9.443   2.771   5.118
  203POPC   C3B 2868   9.512   2.698   5.533
  203POPC   C4B 2869   9.374   2.725   5.909
  204POPC   NC3 2870   2.216   5.124   4.089
  204POPC   PO4 2871   1.572   4.886   3.979
  204POPC   GL1 2872   1.706   5.148   4.306
  204POPC   GL2 2873   1.917   4.872   4.404
  204POPC   C1A 2874   1.711   5.424   4.725
  204POPC   D2A 2875   1.883   5.407   5.164
  204POPC   C3A 2876   1.633   5.419   5.556
  204POPC   C4A 2877   1.795   5.137   5.898
  204POPC   C1B 2878   2.060   5.041   4.795
  204POPC   C2B 2879   2.204   4.953   5.209
  204POPC   C3B 2880   2.050   4.835   5.562
  204POPC   C4B 2881   2.174   4.469   5.730
  205POPC   NC3 2882   2.214   5.744   3.653
  205POPC   PO4 2883   1.612   5.739   3.897
  205POPC   GL1 2884   1.961   5.576   4.143
  205POPC   GL2 2885   2.146   5.876   4.161
  205POPC   C1A 2886   2.180   5.554   4.576
  205POPC   D2A 2887   2.105   5.785   4.934
  205POPC   C3A 2888   2.255   5.746   5.385
  205POPC   C4A 2889   2.157   5.348   5.594
  205POPC   C1B 2890   1.803   5.909   4.510
  205POPC   C2B 2891   1.688   6.051   4.924
  205POPC   C3B 2892   1.772   5.945   5.345
  205POPC   C4B 2893   1.907   5.824   5.757
  206POPC   NC3 2894   5.791   0.676   3.987
  206POPC   PO4 2895   5.960   0.061   3.969
  206POPC   GL1 2896   5.768   0.003   4.352
  206POPC   GL2 2897   5.597   0.297   4.311
  206POPC   C1A 2898   5.796   0.097   4.776
  206POPC   D2A 2899   5.522   0.174   5.099
  206POPC   C3A 2900   5.654   0.168   5.478
  206POPC   C4A 2901   6.063   0.230   5.629
  206POPC   C1B 2902   5.517   0.511   4.690
  206POPC   C2B 2903   5.547   0.765   5.048
  206POPC   C3B 2904   5.394   0.781   5.460
  206POPC   C4B 2905   5.720   0.620   5.694
  207POPC   NC3 2906   6.531   1.306   3.977
  207POPC   PO4 2907   6.628   0.686   3.857
  207POPC   GL1 2908   6.574   0.980   4.326
  207POPC   GL2 2909   6.250   1.131   4.400
  207POPC   C1A 2910   6.601   1.132   4.766
  207POPC   D2A 2911   6.544   1.007   5.193
  207POPC   C3A 2912   6.873   1.179   5.434
  207POPC   C4A 2913   6.853   1.363   5.834
  207POPC   C1B 2914   6.124   1.403   4.727
  207POPC   C2B 2915   6.344   1.566   5.077
  207POPC   C3B 2916   6.453   1.439   5.480
  207POPC   C4B 2917   6.437   1.072   5.740
  208POPC   NC3 2918   7.016   3.063   3.570
  208POPC   PO4 2919   6.822   2.646   4.013
  208POPC   GL1 2920   7.112   2.671   4.342
  208POPC   GL2 2921   7.230   2.314   4.328
  208POPC   C1A 2922   7.277   2.957   4.686
  208POPC   D2A 2923   7.202   3.140   5.105
  208POPC   C3A 2924   7.301   2.999   5.533
  208POPC   C4A 2925   7.251   3.046   6.014
  208POPC   C1B 2926   7.393   2.466   4.714
  208POPC   C2B 2927   7.253   2.614   5.079
  208POPC   C3B 2928   7.424   2.514   5.447
  208POPC   C4B 2929   7.294   2.574   5.824
  209POPC   NC3 2930   9.894   3.717   3.638
  209POPC   PO4 2931  10.363   4.050   3.904
  209POPC   GL1 2932  10.180   4.176   4.260
  209POPC   GL2 2933  10.299   4.438   4.351
  209POPC   C1A 2934   9.916   4.190   4.620
  209POPC   D2A 2935   9.711   4.306   4.999
  209POPC   C3A 2936   9.916   4.088   5.315
  209POPC   C4A 2937  10.004   4.121   5.690
  209POPC   C1B 2938  10.425   4.112   4.690
  209POPC   C2B 2939  10.372   3.949   5.094
  209POPC   C3B 2940  10.408   4.263   5.405
  209POPC   C4B 2941  10.377   4.429   5.787
  210POPC   NC3 2942   7.800   3.318   4.136
  210POPC   PO4 2943   8.236   3.699   4.017
  210POPC   GL1 2944   8.109   3.580   4.445
  210POPC   GL2 2945   8.107   3.195   4.530
  210POPC   C1A 2946   8.177   3.543   4.898
  210POPC   D2A 2947   8.118   3.163   5.172
  210POPC   C3A 2948   8.058   3.297   5.616
  210POPC   C4A 2949   7.941   3.646   5.935
  210POPC   C1B 2950   7.730   3.316   4.832
  210POPC   C2B 2951   7.639   3.348   5.300
  210POPC   C3B 2952   7.522   3.425   5.744
  210POPC   C4B 2953   7.603   3.374   6.202
  211POPC   NC3 2954   0.294   8.908   3.994
  211POPC   PO4 2955   0.553   8.333   3.920
  211POPC   GL1 2956   0.522   8.503   4.316
  211POPC   GL2 2957   0.199   8.621   4.399
  211POPC   C1A 2958   0.479   8.350   4.721
  211POPC   D2A 2959   0.488   8.077   5.046
  211POPC   C3A 2960   0.425   8.304   5.413
  211POPC   C4A 2961   0.522   8.563   5.762
  211POPC   C1B 2962   0.454   8.938   4.634
  211POPC   C2B 2963   0.466   9.086   5.044
  211POPC   C3B 2964   0.344   8.867   5.395
  211POPC   C4B 2965   0.179   8.960   5.782
  212POPC   NC3 2966   2.345   6.731   3.916
  212POPC   PO4 2967   1.704   6.734   3.938
  212POPC   GL1 2968   1.752   6.814   4.354
  212POPC   GL2 2969   2.062   6.615   4.361
  212POPC   C1A 2970   1.781   6.685   4.790
  212POPC   D2A 2971   1.769   6.480   5.174
  212POPC   C3A 2972   1.748   6.638   5.583
  212POPC   C4A 2973   1.868   6.430   6.000
  212POPC   C1B 2974   2.110   6.280   4.699
  212POPC   C2B 2975   2.198   6.222   5.146
  212POPC   C3B 2976   2.110   6.262   5.574
  212POPC   C4B 2977   2.380   6.420   5.886
  213POPC   NC3 2978  10.131   4.451   3.837
  213POPC   PO4 2979  10.009   5.127   3.719
  213POPC   GL1 2980   9.992   4.857   4.127
  213POPC   GL2 2981  10.315   4.929   4.185
  213POPC   C1A 2982   9.982   4.707   4.607
  213POPC   D2A 2983  10.195   4.482   4.982
  213POPC   C3A 2984  10.008   4.580   5.397
  213POPC   C4A 2985   9.875   4.593   5.843
  213POPC   C1B 2986  10.253   5.135   4.599
  213POPC   C2B 2987  10.162   4.994   5.022
  213POPC   C3B 2988  10.070   5.072   5.457
  213POPC   C4B 2989  10.227   4.933   5.832
  214POPC   NC3 2990   3.360   2.661   3.686
  214POPC   PO4 2991   3.224   3.152   4.121
  214POPC   GL1 2992   3.502   2.761   4.244
  214POPC   GL2 2993   3.338   2.427   4.289
  214POPC   C1A 2994   3.786   2.705   4.643
  214POPC   D2A 2995   3.827   2.869   5.087
  214POPC   C3A 2996   3.701   2.787   5.533
  214POPC   C4A 2997   3.607   2.640   5.962
  214POPC   C1B 2998   3.300   2.701   4.712
  214POPC   C2B 2999   3.241   2.758   5.158
  214POPC   C3B 3000   3.219   2.559   5.575
  214POPC   C4B 3001   3.121   2.832   5.947
  215POPC   NC3 3002   1.450   8.827   3.826
  215POPC   PO4 3003   2.100   9.143   3.870
  215POPC   GL1 3004   1.980   8.904   4.208
  215POPC   GL2 3005   1.756   8.635   4.223
  215POPC   C1A 3006   2.047   8.817   4.639
  215POPC   D2A 3007   1.889   8.686   5.043
  215POPC   C3A 3008   2.096   8.747   5.415
  215POPC   C4A 3009   2.297   8.829   5.776
  215POPC   C1B 3010   1.674   8.431   4.637
  215POPC   C2B 3011   1.700   8.156   4.984
  215POPC   C3B 3012   1.902   8.220   5.363
  215POPC   C4B 3013   2.051   8.364   5.756
  216POPC   NC3 3014   0.486   9.446   3.679
  216POPC   PO4 3015  10.384   9.037   3.786
  216POPC   GL1 3016  10.469   9.147   4.280
  216POPC   GL2 3017   0.316   9.348   4.336
  216POPC   C1A 3018   0.004   9.222   4.746
  216POPC   D2A 3019   0.175   9.533   5.040
  216POPC   C3A 3020   0.279   9.373   5.453
  216POPC   C4A 3021   0.025   9.563   5.750
  216POPC   C1B 3022   0.586   9.480   4.742
  216POPC   C2B 3023   0.704   9.551   5.220
  216POPC   C3B 3024   0.663   9.756   5.688
  216POPC   C4B 3025   0.757   9.670   6.176
  217POPC   NC3 3026   4.154   7.912   3.889
  217POPC   PO4 3027   3.654   8.303   3.873
  217POPC   GL1 3028   3.807   8.072   4.268
  217POPC   GL2 3029   4.165   7.949   4.394
  217POPC   C1A 3030   3.777   7.839   4.693
  217POPC   D2A 3031   3.789   8.056   5.106
  217POPC   C3A 3032   3.895   7.826   5.496
  217POPC   C4A 3033   4.159   7.728   5.857
  217POPC   C1B 3034   4.356   8.115   4.810
  217POPC   C2B 3035   4.324   7.979   5.254
  217POPC   C3B 3036   4.626   7.845   5.607
  217POPC   C4B 3037   4.803   7.679   6.014
  218POPC   NC3 3038   0.598   7.040   4.035
  218POPC   PO4 3039   0.035   7.109   3.672
  218POPC   GL1 3040   0.141   7.154   4.200
  218POPC   GL2 3041   0.410   7.420   4.332
  218POPC   C1A 3042   0.153   7.168   4.693
  218POPC   D2A 3043   0.406   7.318   5.069
  218POPC   C3A 3044   0.290   7.366   5.509
  218POPC   C4A 3045   0.268   7.443   5.973
  218POPC   C1B 3046   0.676   7.144   4.664
  218POPC   C2B 3047   0.867   7.033   5.055
  218POPC   C3B 3048   0.805   7.265   5.412
  218POPC   C4B 3049   0.633   7.135   5.797
  219POPC   NC3 3050   0.862   0.524   4.194
  219POPC   PO4 3051   0.250   0.335   3.898
  219POPC   GL1 3052   0.373   0.552   4.263
  219POPC   GL2 3053   0.111   0.675   4.315
  219POPC   C1A 3054   0.479   0.587   4.718
  219POPC   D2A 3055   0.726   0.418   5.041
  219POPC   C3A 3056   0.790   0.665   5.407
  219POPC   C4A 3057   0.722   0.444   5.785
  219POPC   C1B 3058   0.103   0.295   4.601
  219POPC   C2B 3059   0.098   0.384   5.040
  219POPC   C3B 3060   0.349   0.364   5.383
  219POPC   C4B 3061   0.178   0.324   5.733
  220POPC   NC3 3062   6.477   2.802   4.276
  220POPC   PO4 3063   6.137   2.303   4.067
  220POPC   GL1 3064   6.370   2.314   4.436
  220POPC   GL2 3065   6.703   2.372   4.431
  220POPC   C1A 3066   6.380   2.443   4.849
  220POPC   D2A 3067   6.432   2.727   5.180
  220POPC   C3A 3068   6.312   2.554   5.558
  220POPC   C4A 3069   6.288   2.742   5.997
  220POPC   C1B 3070   6.894   2.430   4.759
  220POPC   C2B 3071   6.808   2.383   5.151
  220POPC   C3B 3072   6.897   2.656   5.451
  220POPC   C4B 3073   6.755   2.564   5.814
  221POPC   NC3 3074   1.710   8.142   4.054
  221POPC   PO4 3075   1.571   7.486   3.962
  221POPC   GL1 3076   1.980   7.723   4.199
  221POPC   GL2 3077   1.967   8.029   4.462
  221POPC   C1A 3078   2.245   7.638   4.631
  221POPC   D2A 3079   2.235   7.895   5.019
  221POPC   C3A 3080   2.135   7.722   5.419
  221POPC   C4A 3081   2.168   7.427   5.749
  221POPC   C1B 3082   1.733   7.725   4.672
  221POPC   C2B 3083   1.749   7.592   5.080
  221POPC   C3B 3084   1.626   7.656   5.476
  221POPC   C4B 3085   1.817   7.903   5.776
  222POPC   NC3 3086   1.066   7.761   3.853
  222POPC   PO4 3087   1.348   8.416   3.993
  222POPC   GL1 3088   1.300   8.200   4.357
  222POPC   GL2 3089   1.380   7.838   4.267
  222POPC   C1A 3090   1.174   8.261   4.784
  222POPC   D2A 3091   0.973   8.207   5.181
  222POPC   C3A 3092   1.304   8.248   5.485
  222POPC   C4A 3093   1.535   8.309   5.877
  222POPC   C1B 3094   1.229   7.776   4.634
  222POPC   C2B 3095   1.297   7.821   5.044
  222POPC   C3B 3096   1.113   7.779   5.412
  222POPC   C4B 3097   1.283   7.857   5.796
  223POPC   NC3 3098   0.188   7.921   3.875
  223POPC   PO4 3099   0.727   7.821   3.544
  223POPC   GL1 3100   0.640   7.863   4.116
  223POPC   GL2 3101   0.333   7.993   4.350
  223POPC   C1A 3102   0.743   7.896   4.612
  223POPC   D2A 3103   0.808   7.630   5.003
  223POPC   C3A 3104   0.610   7.760   5.410
  223POPC   C4A 3105   0.780   8.083   5.699
  223POPC   C1B 3106   0.249   7.723   4.739
  223POPC   C2B 3107   0.091   7.725   5.177
  223POPC   C3B 3108   0.149   7.836   5.628
  223POPC   C4B 3109   0.132   8.223   5.841
  224POPC   NC3 3110  10.146   3.701   4.100
  224POPC   PO4 3111   9.806   3.252   3.673
  224POPC   GL1 3112   9.897   3.234   4.161
  224POPC   GL2 3113  10.243   3.183   4.254
  224POPC   C1A 3114   9.959   3.389   4.650
  224POPC   D2A 3115  10.200   3.430   5.072
  224POPC   C3A 3116  10.052   3.590   5.492
  224POPC   C4A 3117   9.960   3.697   5.945
  224POPC   C1B 3118  10.437   3.101   4.649
  224POPC   C2B 3119  10.458   2.985   5.063
  224POPC   C3B 3120  10.314   3.075   5.456
  224POPC   C4B 3121  10.295   3.265   5.847
  225POPC   NC3 3122   1.786   0.612   4.054
  225POPC   PO4 3123   2.301   0.932   3.946
  225POPC   GL1 3124   2.254   0.640   4.311
  225POPC   GL2 3125   1.912   0.470   4.495
  225POPC   C1A 3126   2.223   0.770   4.715
  225POPC   D2A 3127   1.952   0.555   4.986
  225POPC   C3A 3128   2.081   0.633   5.370
  225POPC   C4A 3129   2.170   0.527   5.774
  225POPC   C1B 3130   1.624   0.166   4.688
  225POPC   C2B 3131   1.694   0.079   5.109
  225POPC   C3B 3132   1.610   0.444   5.347
  225POPC   C4B 3133   1.636   0.568   5.758
  226POPC   NC3 3134   7.229   1.434   3.959
  226POPC   PO4 3135   7.834   1.651   3.940
  226POPC   GL1 3136   7.589   1.582   4.330
  226POPC   GL2 3137   7.278   1.787   4.350
  226POPC   C1A 3138   7.486   1.541   4.778
  226POPC   D2A 3139   7.536   1.693   5.204
  226POPC   C3A 3140   7.161   1.668   5.478
  226POPC   C4A 3141   7.138   1.774   5.902
  226POPC   C1B 3142   7.137   1.976   4.750
  226POPC   C2B 3143   7.244   2.112   5.184
  226POPC   C3B 3144   7.056   2.181   5.614
  226POPC   C4B 3145   6.866   2.151   6.077
  227POPC   NC3 3146   7.886   7.988   3.942
  227POPC   PO4 3147   8.403   7.556   4.004
  227POPC   GL1 3148   8.115   7.620   4.313
  227POPC   GL2 3149   7.879   7.876   4.425
  227POPC   C1A 3150   8.072   7.551   4.758
  227POPC   D2A 3151   8.169   7.801   5.127
  227POPC   C3A 3152   8.130   7.596   5.531
  227POPC   C4A 3153   7.932   7.580   5.915
  227POPC   C1B 3154   7.638   7.802   4.805
  227POPC   C2B 3155   7.697   7.984   5.195
  227POPC   C3B 3156   7.639   7.898   5.625
  227POPC   C4B 3157   7.756   8.083   6.031
  228POPC   NC3 3158   4.342   2.709   3.865
  228POPC   PO4 3159   3.785   2.321   3.886
  228POPC   GL1 3160   3.866   2.328   4.290
  228POPC   GL2 3161   4.185   2.494   4.323
  228POPC   C1A 3162   3.961   2.241   4.711
  228POPC   D2A 3163   4.098   2.392   5.116
  228POPC   C3A 3164   4.183   2.586   5.492
  228POPC   C4A 3165   4.070   2.461   5.866
  228POPC   C1B 3166   4.297   2.668   4.745
  228POPC   C2B 3167   4.336   2.914   5.139
  228POPC   C3B 3168   4.335   3.063   5.585
  228POPC   C4B 3169   4.510   2.859   5.983
  229POPC   NC3 3170   9.688   5.335   3.989
  229POPC   PO4 3171   9.157   5.091   3.655
  229POPC   GL1 3172   9.254   4.918   4.176
  229POPC   GL2 3173   9.540   5.007   4.318
  229POPC   C1A 3174   9.184   5.041   4.665
  229POPC   D2A 3175   9.343   5.290   5.064
  229POPC   C3A 3176   9.191   5.150   5.532
  229POPC   C4A 3177   9.055   5.172   5.997
  229POPC   C1B 3178   9.700   5.124   4.715
  229POPC   C2B 3179   9.671   4.873   5.100
  229POPC   C3B 3180   9.520   4.747   5.507
  229POPC   C4B 3181   9.410   4.776   5.959
  230POPC   NC3 3182   7.950   7.198   3.930
  230POPC   PO4 3183   7.495   7.690   3.977
  230POPC   GL1 3184   7.623   7.440   4.375
  230POPC   GL2 3185   7.918   7.186   4.426
  230POPC   C1A 3186   7.619   7.286   4.820
  230POPC   D2A 3187   7.758   7.464   5.219
  230POPC   C3A 3188   7.537   7.390   5.636
  230POPC   C4A 3189   7.595   7.192   6.071
  230POPC   C1B 3190   8.102   6.998   4.784
  230POPC   C2B 3191   8.019   6.889   5.251
  230POPC   C3B 3192   7.962   7.066   5.705
  230POPC   C4B 3193   8.116   7.161   6.149
  231POPC   NC3 3194  10.477   6.285   4.023
  231POPC   PO4 3195   9.919   6.051   4.007
  231POPC   GL1 3196  10.093   6.277   4.346
  231POPC   GL2 3197  10.164   6.646   4.291
  231POPC   C1A 3198  10.283   6.261   4.751
  231POPC   D2A 3199  10.058   6.333   5.122
  231POPC   C3A 3200  10.200   6.084   5.459
  231POPC   C4A 3201  10.166   6.155   5.847
  231POPC   C1B 3202  10.319   6.766   4.740
  231POPC   C2B 3203  10.433   6.675   5.187
  231POPC   C3B 3204  10.127   6.592   5.574
  231POPC   C4B 3205   9.909   6.525   6.022
  232POPC   NC3 3206   5.564  10.322   3.910
  232POPC   PO4 3207   5.934   9.751   3.908
  232POPC   GL1 3208   5.867  10.006   4.258
  232POPC   GL2 3209   5.506  10.032   4.309
  232POPC   C1A 3210   5.800  10.086   4.716
  232POPC   D2A 3211   5.852  10.228   5.137
  232POPC   C3A 3212   6.053   9.975   5.458
  232POPC   C4A 3213   5.812  10.246   5.708
  232POPC   C1B 3214   5.207   9.974   4.614
  232POPC   C2B 3215   5.359  10.026   5.014
  232POPC   C3B 3216   5.530   9.928   5.405
  232POPC   C4B 3217   5.272   9.882   5.780
  233POPC   NC3 3218   0.587  10.423   3.866
  233POPC   PO4 3219   0.289   9.849   3.734
  233POPC   GL1 3220   0.278   9.895   4.239
  233POPC   GL2 3221   0.300  10.287   4.289
  233POPC   C1A 3222   0.449   9.996   4.684
  233POPC   D2A 3223   0.532   9.998   5.122
  233POPC   C3A 3224   0.251   9.874   5.418
  233POPC   C4A 3225   0.224  10.061   5.792
  233POPC   C1B 3226   0.560   0.021   4.578
  233POPC   C2B 3227   0.398  10.486   4.982
  233POPC   C3B 3228   0.268  10.378   5.384
  233POPC   C4B 3229   0.532  10.475   5.711
  234POPC   NC3 3230  10.493  10.157   3.911
  234POPC   PO4 3231  10.006   0.130   4.012
  234POPC   GL1 3232  10.238  10.362   4.318
  234POPC   GL2 3233  10.045  10.068   4.506
  234POPC   C1A 3234  10.283  10.438   4.744
  234POPC   D2A 3235  10.044   0.026   5.074
  234POPC   C3A 3236  10.318   0.149   5.410
  234POPC   C4A 3237  10.393  10.436   5.797
  234POPC   C1B 3238  10.430   9.922   4.629
  234POPC   C2B 3239   0.038  10.076   5.010
  234POPC   C3B 3240  10.308  10.139   5.381
  234POPC   C4B 3241  10.137  10.010   5.786
  235POPC   NC3 3242   3.380   0.614   3.977
  235POPC   PO4 3243   3.367  10.451   3.996
  235POPC   GL1 3244   3.574   0.201   4.312
  235POPC   GL2 3245   3.418   0.497   4.459
  235POPC   C1A 3246   3.627   0.087   4.753
  235POPC   D2A 3247   3.296   0.046   5.101
  235POPC   C3A 3248   3.406   0.178   5.537
  235POPC   C4A 3249   3.526   0.316   5.964
  235POPC   C1B 3250   3.085   0.296   4.661
  235POPC   C2B 3251   2.935   0.464   5.035
  235POPC   C3B 3252   2.970   0.365   5.431
  235POPC   C4B 3253   3.171   0.603   5.748
  236POPC   NC3 3254   9.671   6.394   3.830
  236POPC   PO4 3255   9.137   6.632   4.143
  236POPC   GL1 3256   9.600   6.540   4.302
  236POPC   GL2 3257   9.596   6.171   4.438
  236POPC   C1A 3258   9.834   6.539   4.681
  236POPC   D2A 3259   9.543   6.659   4.965
  236POPC   C3A 3260   9.644   6.542   5.342
  236POPC   C4A 3261   9.639   6.758   5.684
  236POPC   C1B 3262   9.601   6.164   4.936
  236POPC   C2B 3263   9.218   6.301   5.196
  236POPC   C3B 3264   9.226   6.406   5.629
  236POPC   C4B 3265   9.626   6.219   5.728
  237POPC   NC3 3266   1.207   4.593   3.967
  237POPC   PO4 3267   0.861   5.179   3.917
  237POPC   GL1 3268   1.161   4.976   4.312
  237POPC   GL2 3269   1.431   4.674   4.407
  237POPC   C1A 3270   1.068   4.790   4.759
  237POPC   D2A 3271   0.968   5.049   5.136
  237POPC   C3A 3272   1.054   4.937   5.575
  237POPC   C4A 3273   1.301   5.146   5.927
  237POPC   C1B 3274   1.536   4.954   4.737
  237POPC   C2B 3275   1.472   5.115   5.144
  237POPC   C3B 3276   1.548   4.889   5.522
  237POPC   C4B 3277   1.347   4.520   5.709
  238POPC   NC3 3278   8.613   8.423   4.031
  238POPC   PO4 3279   8.343   8.963   4.058
  238POPC   GL1 3280   8.561   8.775   4.394
  238POPC   GL2 3281   8.916   8.693   4.335
  238POPC   C1A 3282   8.687   8.753   4.800
  238POPC   D2A 3283   8.597   8.596   5.186
  238POPC   C3A 3284   8.722   8.856   5.481
  238POPC   C4A 3285   8.491   8.981   5.774
  238POPC   C1B 3286   8.930   8.340   4.684
  238POPC   C2B 3287   9.072   8.216   5.099
  238POPC   C3B 3288   8.910   8.357   5.510
  238POPC   C4B 3289   8.501   8.461   5.730
  239POPC   NC3 3290   7.226   8.084   3.924
  239POPC   PO4 3291   7.005   8.763   3.825
  239POPC   GL1 3292   7.019   8.709   4.273
  239POPC   GL2 3293   7.180   8.437   4.334
  239POPC   C1A 3294   6.994   8.881   4.697
  239POPC   D2A 3295   7.195   8.919   5.112
  239POPC   C3A 3296   6.958   8.641   5.363
  239POPC   C4A 3297   6.803   8.564   5.766
  239POPC   C1B 3298   7.467   8.694   4.631
  239POPC   C2B 3299   7.714   8.753   5.019
  239POPC   C3B 3300   7.580   8.855   5.462
  239POPC   C4B 3301   7.296   8.629   5.748
  240POPC   NC3 3302   4.258   1.017   3.858
  240POPC   PO4 3303   3.838   1.571   3.905
  240POPC   GL1 3304   3.962   1.214   4.210
  240POPC   GL2 3305   4.290   1.146   4.342
  240POPC   C1A 3306   3.907   1.189   4.672
  240POPC   D2A 3307   4.142   1.307   5.068
  240POPC   C3A 3308   4.083   1.110   5.466
  240POPC   C4A 3309   3.987   1.250   5.876
  240POPC   C1B 3310   4.332   0.955   4.720
  240POPC   C2B 3311   4.185   0.750   5.046
  240POPC   C3B 3312   4.256   0.631   5.413
  240POPC   C4B 3313   4.310   0.784   5.806
  241POPC   NC3 3314   9.978   9.308   3.876
  241POPC   PO4 3315  10.090   9.965   4.016
  241POPC   GL1 3316   9.851   9.672   4.212
  241POPC   GL2 3317  10.171   9.556   4.341
  241POPC   C1A 3318   9.796   9.660   4.662
  241POPC   D2A 3319  10.155   9.571   4.957
  241POPC   C3A 3320  10.152   9.657   5.411
  241POPC   C4A 3321   9.868   9.588   5.799
  241POPC   C1B 3322   9.987   9.202   4.561
  241POPC   C2B 3323  10.041   9.044   4.984
  241POPC   C3B 3324  10.324   9.171   5.296
  241POPC   C4B 3325  10.198   9.186   5.712
  242POPC   NC3 3326   6.332   7.770   3.982
  242POPC   PO4 3327   6.331   8.406   4.062
  242POPC   GL1 3328   6.659   8.339   4.301
  242POPC   GL2 3329   6.524   8.042   4.388
  242POPC   C1A 3330   6.827   8.391   4.707
  242POPC   D2A 3331   6.931   8.157   5.075
  242POPC   C3A 3332   6.688   8.188   5.427
  242POPC   C4A 3333   6.743   8.064   5.826
  242POPC   C1B 3334   6.506   8.004   4.832
  242POPC   C2B 3335   6.558   7.758   5.192
  242POPC   C3B 3336   6.402   7.752   5.611
  242POPC   C4B 3337   6.546   7.605   6.024
  243POPC   NC3 3338   8.594   0.779   3.945
  243POPC   PO4 3339   8.594   1.462   4.029
  243POPC   GL1 3340   8.814   1.140   4.242
  243POPC   GL2 3341   9.001   1.389   4.366
  243POPC   C1A 3342   8.882   0.949   4.655
  243POPC   D2A 3343   8.679   0.985   5.076
  243POPC   C3A 3344   8.773   0.740   5.445
  243POPC   C4A 3345   8.700   0.946   5.837
  243POPC   C1B 3346   8.717   1.468   4.727
  243POPC   C2B 3347   8.780   1.482   5.176
  243POPC   C3B 3348   8.594   1.364   5.566
  243POPC   C4B 3349   8.543   1.423   6.040
  244POPC   NC3 3350   2.499   9.368   3.779
  244POPC   PO4 3351   2.874   8.909   4.029
  244POPC   GL1 3352   2.569   9.181   4.248
  244POPC   GL2 3353   2.824   9.419   4.246
  244POPC   C1A 3354   2.297   9.286   4.606
  244POPC   D2A 3355   2.354   9.052   5.006
  244POPC   C3A 3356   2.279   9.227   5.408
  244POPC   C4A 3357   2.475   9.290   5.823
  244POPC   C1B 3358   2.812   9.358   4.701
  244POPC   C2B 3359   2.815   9.557   5.106
  244POPC   C3B 3360   2.576   9.642   5.474
  244POPC   C4B 3361   2.704   9.747   5.912
  245POPC   NC3 3362   5.808   8.621   4.022
  245POPC   PO4 3363   5.330   8.253   4.076
  245POPC   GL1 3364   5.306   8.658   4.297
  245POPC   GL2 3365   5.591   8.830   4.436
  245POPC   C1A 3366   5.240   8.703   4.751
  245POPC   D2A 3367   5.446   8.505   5.083
  245POPC   C3A 3368   5.306   8.656   5.443
  245POPC   C4A 3369   5.457   8.685   5.842
  245POPC   C1B 3370   5.810   8.664   4.738
  245POPC   C2B 3371   5.963   8.601   5.143
  245POPC   C3B 3372   5.821   8.477   5.530
  245POPC   C4B 3373   5.977   8.697   5.882
  246POPC   NC3 3374   9.423   3.066   3.850
  246POPC   PO4 3375   9.678   3.684   4.048
  246POPC   GL1 3376   9.378   3.606   4.317
  246POPC   GL2 3377   9.403   3.241   4.323
  246POPC   C1A 3378   9.468   3.606   4.731
  246POPC   D2A 3379   9.746   3.735   5.017
  246POPC   C3A 3380   9.537   3.691   5.428
  246POPC   C4A 3381   9.555   3.440   5.809
  246POPC   C1B 3382   9.528   3.109   4.725
  246POPC   C2B 3383   9.624   3.253   5.144
  246POPC   C3B 3384   9.316   3.146   5.476
  246POPC   C4B 3385   9.092   3.161   5.876
  247POPC   NC3 3386   0.278   1.795   3.826
  247POPC   PO4 3387   0.775   1.880   4.126
  247POPC   GL1 3388   0.492   1.645   4.378
  247POPC   GL2 3389   0.119   1.698   4.324
  247POPC   C1A 3390   0.375   1.765   4.784
  247POPC   D2A 3391   0.504   1.933   5.151
  247POPC   C3A 3392   0.579   1.681   5.464
  247POPC   C4A 3393   0.752   1.662   5.833
  247POPC   C1B 3394   0.127   2.133   4.548
  247POPC   C2B 3395   0.071   2.144   4.999
  247POPC   C3B 3396   0.182   2.217   5.436
  247POPC   C4B 3397   0.322   1.971   5.794
  248POPC   NC3 3398   9.527   0.148   3.916
  248POPC   PO4 3399   9.053   0.723   3.881
  248POPC   GL1 3400   9.313   0.653   4.231
  248POPC   GL2 3401   9.341   0.348   4.334
  248POPC   C1A 3402   9.294   0.645   4.721
  248POPC   D2A 3403   9.177   0.860   5.099
  248POPC   C3A 3404   9.282   0.688   5.532
  248POPC   C4A 3405   9.689   0.698   5.757
  248POPC   C1B 3406   9.328   0.098   4.762
  248POPC   C2B 3407   9.527  10.491   5.156
  248POPC   C3B 3408   9.455   0.198   5.553
  248POPC   C4B 3409   9.242   0.252   5.932
  249POPC   NC3 3410   8.533   3.355   3.886
  249POPC   PO4 3411   8.802   4.001   3.773
  249POPC   GL1 3412   8.749   3.743   4.192
  249POPC   GL2 3413   8.917   3.395   4.222
  249POPC   C1A 3414   8.579   3.479   4.579
  249POPC   D2A 3415   8.611   3.267   4.993
  249POPC   C3A 3416   8.443   3.520   5.326
  249POPC   C4A 3417   8.394   3.675   5.712
  249POPC   C1B 3418   9.023   3.235   4.650
  249POPC   C2B 3419   9.144   3.392   5.062
  249POPC   C3B 3420   8.933   3.477   5.471
  249POPC   C4B 3421   8.612   3.202   5.676
  250POPC   NC3 3422  10.216   5.705   3.764
  250POPC   PO4 3423   0.293   5.567   3.987
  250POPC   GL1 3424   0.096   5.597   4.372
  250POPC   GL2 3425  10.366   5.838   4.247
  250POPC   C1A 3426   0.032   5.503   4.817
  250POPC   D2A 3427   0.006   5.325   5.223
  250POPC   C3A 3428  10.236   5.552   5.481
  250POPC   C4A 3429  10.441   5.746   5.787
  250POPC   C1B 3430  10.150   5.783   4.602
  250POPC   C2B 3431  10.138   5.829   5.034
  250POPC   C3B 3432   9.768   5.867   5.335
  250POPC   C4B 3433   9.839   5.760   5.770
  251POPC   NC3 3434   9.073   9.794   3.666
  251POPC   PO4 3435   9.509   9.317   3.880
  251POPC   GL1 3436   9.289   9.402   4.261
  251POPC   GL2 3437   9.434   9.127   4.404
  251POPC   C1A 3438   9.276   9.583   4.684
  251POPC   D2A 3439   9.295   9.829   5.075
  251POPC   C3A 3440   9.474   9.718   5.447
  251POPC   C4A 3441   9.419   9.867   5.834
  251POPC   C1B 3442   9.518   9.169   4.816
  251POPC   C2B 3443   9.658   9.426   5.070
  251POPC   C3B 3444   9.799   9.312   5.385
  251POPC   C4B 3445   9.504   9.259   5.674
  252POPC   NC3 3446   3.095   5.498   4.046
  252POPC   PO4 3447   2.449   5.493   3.947
  252POPC   GL1 3448   2.629   5.579   4.306
  252POPC   GL2 3449   2.584   5.922   4.416
  252POPC   C1A 3450   2.667   5.475   4.731
  252POPC   D2A 3451   2.408   5.385   5.071
  252POPC   C3A 3452   2.636   5.291   5.477
  252POPC   C4A 3453   2.607   5.341   5.949
  252POPC   C1B 3454   2.572   5.958   4.878
  252POPC   C2B 3455   2.756   5.733   5.226
  252POPC   C3B 3456   2.807   5.738   5.675
  252POPC   C4B 3457   2.834   6.120   5.957
  253POPC   NC3 3458   2.185   3.614   3.718
  253POPC   PO4 3459   1.650   3.298   4.062
  253POPC   GL1 3460   1.976   3.206   4.294
  253POPC   GL2 3461   2.039   3.550   4.273
  253POPC   C1A 3462   1.976   3.077   4.705
  253POPC   D2A 3463   1.778   3.211   5.069
  253POPC   C3A 3464   1.978   3.193   5.465
  253POPC   C4A 3465   2.134   3.517   5.726
  253POPC   C1B 3466   1.866   3.584   4.700
  253POPC   C2B 3467   2.102   3.599   5.101
  253POPC   C3B 3468   1.770   3.681   5.382
  253POPC   C4B 3469   1.656   3.676   5.791
  254POPC   NC3 3470   0.291   4.155   3.820
  254POPC   PO4 3471   0.840   3.883   4.024
  254POPC   GL1 3472   0.574   4.236   4.231
  254POPC   GL2 3473   0.217   4.148   4.300
  254POPC   C1A 3474   0.480   4.402   4.651
  254POPC   D2A 3475   0.241   4.340   5.022
  254POPC   C3A 3476   0.394   4.436   5.423
  254POPC   C4A 3477   0.374   4.248   5.805
  254POPC   C1B 3478   0.439   3.898   4.593
  254POPC   C2B 3479   0.538   3.869   5.027
  254POPC   C3B 3480   0.297   3.936   5.389
  254POPC   C4B 3481  10.477   3.885   5.747
  255POPC   NC3 3482   5.040   1.302   3.873
  255POPC   PO4 3483   4.633   0.789   3.656
  255POPC   GL1 3484   4.723   1.032   4.097
  255POPC   GL2 3485   4.999   0.897   4.231
  255POPC   C1A 3486   4.767   1.196   4.544
  255POPC   D2A 3487   4.651   1.276   4.971
  255POPC   C3A 3488   4.568   1.013   5.315
  255POPC   C4A 3489   4.516   1.231   5.721
  255POPC   C1B 3490   5.105   0.814   4.654
  255POPC   C2B 3491   5.095   1.025   5.069
  255POPC   C3B 3492   4.990   1.241   5.458
  255POPC   C4B 3493   4.977   0.979   5.805
  256POPC   NC3 3494   7.945   8.777   3.871
  256POPC   PO4 3495   7.589   8.306   4.074
  256POPC   GL1 3496   7.822   8.381   4.385
  256POPC   GL2 3497   7.913   8.711   4.369
  256POPC   C1A 3498   7.855   8.277   4.802
  256POPC   D2A 3499   8.097   8.348   5.172
  256POPC   C3A 3500   7.791   8.375   5.499
  256POPC   C4A 3501   7.761   8.555   5.872
  256POPC   C1B 3502   8.185   8.656   4.733
  256POPC   C2B 3503   8.191   8.895   5.123
  256POPC   C3B 3504   8.092   8.788   5.554
  256POPC   C4B 3505   8.074   8.898   6.037
  257POPC   NC3 3506   2.768   4.423   3.639
  257POPC   PO4 3507   2.321   4.679   4.043
  257POPC   GL1 3508   2.232   4.453   4.428
  257POPC   GL2 3509   2.492   4.214   4.340
  257POPC   C1A 3510   2.245   4.499   4.901
  257POPC   D2A 3511   2.586   4.503   5.204
  257POPC   C3A 3512   2.609   4.265   5.571
  257POPC   C4A 3513   2.569   4.396   6.007
  257POPC   C1B 3514   2.644   4.211   4.770
  257POPC   C2B 3515   2.982   4.152   5.062
  257POPC   C3B 3516   3.121   4.206   5.487
  257POPC   C4B 3517   2.989   4.131   5.917
  258POPC   NC3 3518   5.726   1.346   3.829
  258POPC   PO4 3519   5.369   0.866   3.913
  258POPC   GL1 3520   5.406   1.214   4.224
  258POPC   GL2 3521   5.754   1.273   4.326
  258POPC   C1A 3522   5.328   1.272   4.668
  258POPC   D2A 3523   5.626   1.265   5.043
  258POPC   C3A 3524   5.488   1.284   5.482
  258POPC   C4A 3525   5.351   1.342   5.958
  258POPC   C1B 3526   5.808   0.960   4.636
  258POPC   C2B 3527   6.057   0.955   5.015
  258POPC   C3B 3528   6.007   1.159   5.430
  258POPC   C4B 3529   5.814   1.108   5.842
  259POPC   NC3 3530   9.280   5.859   4.078
  259POPC   PO4 3531   9.773   5.648   3.668
  259POPC   GL1 3532   9.720   5.700   4.299
  259POPC   GL2 3533   9.409   5.555   4.480
  259POPC   C1A 3534   9.707   5.674   4.824
  259POPC   D2A 3535   9.871   5.402   5.115
  259POPC   C3A 3536   9.652   5.377   5.469
  259POPC   C4A 3537   9.711   5.158   5.827
  259POPC   C1B 3538   9.237   5.913   4.725
  259POPC   C2B 3539   9.269   5.793   5.153
  259POPC   C3B 3540   9.252   5.870   5.577
  259POPC   C4B 3541   9.371   5.541   5.869
  260POPC   NC3 3542   6.121   9.314   3.892
  260POPC   PO4 3543   5.547   9.021   3.985
  260POPC   GL1 3544   5.758   9.274   4.265
  260POPC   GL2 3545   5.595   9.544   4.234
  260POPC   C1A 3546   5.805   9.198   4.725
  260POPC   D2A 3547   5.603   8.998   5.076
  260POPC   C3A 3548   5.732   8.990   5.504
  260POPC   C4A 3549   5.679   9.130   5.930
  260POPC   C1B 3550   5.534   9.619   4.686
  260POPC   C2B 3551   5.385   9.506   5.128
  260POPC   C3B 3552   5.487   9.473   5.593
  260POPC   C4B 3553   5.773   9.758   5.843
  261POPC   NC3 3554   9.343   6.989   3.923
  261POPC   PO4 3555   9.672   7.592   3.817
  261POPC   GL1 3556   9.545   7.568   4.247
  261POPC   GL2 3557   9.343   7.308   4.324
  261POPC   C1A 3558   9.640   7.452   4.684
  261POPC   D2A 3559   9.783   7.408   5.096
  261POPC   C3A 3560   9.527   7.204   5.383
  261POPC   C4A 3561   9.593   7.250   5.811
  261POPC   C1B 3562   9.120   7.385   4.702
  261POPC   C2B 3563   9.272   7.096   4.956
  261POPC   C3B 3564   9.188   6.815   5.289
  261POPC   C4B 3565   9.188   6.955   5.682
  262POPC   NC3 3566   2.758   1.888   3.865
  262POPC   PO4 3567   2.959   2.519   3.892
  262POPC   GL1 3568   2.683   2.302   4.306
  262POPC   GL2 3569   2.464   1.973   4.332
  262POPC   C1A 3570   2.717   2.113   4.798
  262POPC   D2A 3571   3.020   2.272   5.134
  262POPC   C3A 3572   2.980   2.075   5.571
  262POPC   C4A 3573   2.813   2.074   5.991
  262POPC   C1B 3574   2.425   1.709   4.675
  262POPC   C2B 3575   2.286   1.828   5.070
  262POPC   C3B 3576   2.472   1.972   5.426
  262POPC   C4B 3577   2.474   1.736   5.767
  263POPC   NC3 3578   4.136   2.006   3.909
  263POPC   PO4 3579   4.652   1.562   3.862
  263POPC   GL1 3580   4.296   1.645   4.242
  263POPC   GL2 3581   4.259   1.991   4.381
  263POPC   C1A 3582   4.059   1.684   4.708
  263POPC   D2A 3583   3.858   1.927   5.074
  263POPC   C3A 3584   3.864   1.790   5.496
  263POPC   C4A 3585   4.212   1.644   5.695
  263POPC   C1B 3586   4.458   2.157   4.732
  263POPC   C2B 3587   4.375   1.956   5.110
  263POPC   C3B 3588   4.340   2.106   5.524
  263POPC   C4B 3589   4.583   2.362   5.818
  264POPC   NC3 3590   2.988  10.195   3.987
  264POPC   PO4 3591   2.374   0.025   3.904
  264POPC   GL1 3592   2.565  10.276   4.271
  264POPC   GL2 3593   2.638   9.902   4.221
  264POPC   C1A 3594   2.816  10.325   4.679
  264POPC   D2A 3595   2.767  10.484   5.117
  264POPC   C3A 3596   3.004  10.372   5.502
  264POPC   C4A 3597   2.895  10.211   5.897
  264POPC   C1B 3598   2.488   9.802   4.646
  264POPC   C2B 3599   2.560  10.003   5.059
  264POPC   C3B 3600   2.531  10.152   5.492
  264POPC   C4B 3601   2.380  10.139   5.934
  265POPC   NC3 3602   4.339   0.441   3.751
  265POPC   PO4 3603   3.797   0.840   3.834
  265POPC   GL1 3604   3.894   0.664   4.250
  265POPC   GL2 3605   4.076   0.315   4.260
  265POPC   C1A 3606   3.842   0.594   4.703
  265POPC   D2A 3607   3.586   0.474   5.084
  265POPC   C3A 3608   3.799   0.478   5.489
  265POPC   C4A 3609   3.798   0.783   5.819
  265POPC   C1B 3610   4.284   0.359   4.687
  265POPC   C2B 3611   4.074   0.234   5.042
  265POPC   C3B 3612   4.228   0.097   5.395
  265POPC   C4B 3613   4.259   0.286   5.774
  266POPC   NC3 3614   1.331   7.013   3.905
  266POPC   PO4 3615   0.889   7.408   4.100
  266POPC   GL1 3616   1.065   7.074   4.324
  266POPC   GL2 3617   1.381   7.266   4.367
  266POPC   C1A 3618   1.311   6.851   4.624
  266POPC   D2A 3619   1.311   6.710   5.040
  266POPC   C3A 3620   1.220   6.880   5.456
  266POPC   C4A 3621   1.316   6.950   5.894
  266POPC   C1B 3622   1.177   7.312   4.781
  266POPC   C2B 3623   1.302   7.326   5.211
  266POPC   C3B 3624   1.226   7.370   5.659
  266POPC   C4B 3625   0.842   7.587   5.836
  267POPC   NC3 3626   7.619   2.355   3.937
  267POPC   PO4 3627   8.019   2.934   4.014
  267POPC   GL1 3628   7.960   2.610   4.281
  267POPC   GL2 3629   7.632   2.669   4.326
  267POPC   C1A 3630   8.032   2.408   4.660
  267POPC   D2A 3631   8.141   2.665   5.017
  267POPC   C3A 3632   8.111   2.482   5.407
  267POPC   C4A 3633   7.819   2.473   5.767
  267POPC   C1B 3634   7.771   2.833   4.696
  267POPC   C2B 3635   7.670   2.874   5.093
  267POPC   C3B 3636   7.806   2.877   5.464
  267POPC   C4B 3637   7.726   2.970   5.856
  268POPC   NC3 3638   1.652   9.307   3.822
  268POPC   PO4 3639   1.637   9.982   3.654
  268POPC   GL1 3640   1.779   9.843   4.135
  268POPC   GL2 3641   1.967   9.520   4.172
  268POPC   C1A 3642   1.962   9.724   4.623
  268POPC   D2A 3643   2.187   9.611   5.041
  268POPC   C3A 3644   1.930   9.592   5.440
  268POPC   C4A 3645   2.034   9.600   5.899
  268POPC   C1B 3646   1.763   9.256   4.504
  268POPC   C2B 3647   1.869   9.210   4.925
  268POPC   C3B 3648   1.735   9.121   5.316
  268POPC   C4B 3649   1.890   9.143   5.722
  269POPC   NC3 3650   9.127   1.668   3.929
  269POPC   PO4 3651   8.806   2.331   3.885
  269POPC   GL1 3652   8.958   2.187   4.286
  269POPC   GL2 3653   8.807   1.863   4.377
  269POPC   C1A 3654   8.875   2.221   4.750
  269POPC   D2A 3655   8.732   2.005   5.112
  269POPC   C3A 3656   8.726   2.224   5.520
  269POPC   C4A 3657   8.651   1.855   5.789
  269POPC   C1B 3658   8.427   2.043   4.629
  269POPC   C2B 3659   8.227   2.129   5.043
  269POPC   C3B 3660   8.273   2.011   5.473
  269POPC   C4B 3661   8.270   2.254   5.855
  270POPC   NC3 3662   2.844   2.968   3.929
  270POPC   PO4 3663   2.308   2.614   4.077
  270POPC   GL1 3664   2.569   2.815   4.345
  270POPC   GL2 3665   2.939   2.767   4.367
  270POPC   C1A 3666   2.483   2.956   4.728
  270POPC   D2A 3667   2.253   2.939   5.111
  270POPC   C3A 3668   2.417   2.880   5.508
  270POPC   C4A 3669   2.324   3.052   5.886
  270POPC   C1B 3670   2.817   2.588   4.738
  270POPC   C2B 3671   2.724   2.707   5.129
  270POPC   C3B 3672   2.682   2.458   5.472
  270POPC   C4B 3673   2.694   2.578   5.857
  271POPC   NC3 3674  10.109   8.694   3.617
  271POPC   PO4 3675  10.139   8.028   3.681
  271POPC   GL1 3676  10.117   8.354   4.060
  271POPC   GL2 3677  10.242   8.687   4.138
  271POPC   C1A 3678   9.956   8.345   4.499
  271POPC   D2A 3679  10.060   8.463   4.956
  271POPC   C3A 3680   9.937   8.343   5.358
  271POPC   C4A 3681   9.877   8.432   5.771
  271POPC   C1B 3682  10.269   8.769   4.598
  271POPC   C2B 3683  10.493   8.751   5.020
  271POPC   C3B 3684  10.355   8.687   5.477
  271POPC   C4B 3685  10.265   8.731   5.927
  272POPC   NC3 3686   8.876   4.787   3.896
  272POPC   PO4 3687   9.203   5.397   4.084
  272POPC   GL1 3688   8.824   5.218   4.331
  272POPC   GL2 3689   8.775   4.872   4.365
  272POPC   C1A 3690   8.643   5.138   4.758
  272POPC   D2A 3691   8.916   5.039   5.096
  272POPC   C3A 3692   8.687   5.030   5.446
  272POPC   C4A 3693   8.785   4.813   5.799
  272POPC   C1B 3694   8.829   4.652   4.731
  272POPC   C2B 3695   8.587   4.679   5.055
  272POPC   C3B 3696   8.543   4.523   5.400
  272POPC   C4B 3697   8.317   4.702   5.682
  273POPC   NC3 3698  10.208   3.060   3.747
  273POPC   PO4 3699   9.662   2.661   3.895
  273POPC   GL1 3700   9.904   2.735   4.305
  273POPC   GL2 3701  10.249   2.644   4.320
  273POPC   C1A 3702  10.002   2.887   4.750
  273POPC   D2A 3703   9.931   2.855   5.195
  273POPC   C3A 3704   9.838   3.078   5.590
  273POPC   C4A 3705   9.882   2.828   5.960
  273POPC   C1B 3706  10.414   2.573   4.754
  273POPC   C2B 3707  10.284   2.506   5.186
  273POPC   C3B 3708  10.178   2.581   5.590
  273POPC   C4B 3709  10.429   2.319   5.859
  274POPC   NC3 3710   0.359   0.798   3.812
  274POPC   PO4 3711   0.946   0.954   4.076
  274POPC   GL1 3712   0.682   0.991   4.435
  274POPC   GL2 3713   0.378   1.109   4.262
  274POPC   C1A 3714   0.677   1.000   4.920
  274POPC   D2A 3715   0.344   0.821   5.186
  274POPC   C3A 3716   0.342   0.801   5.653
  274POPC   C4A 3717   0.676   0.950   5.840
  274POPC   C1B 3718   0.253   1.277   4.667
  274POPC   C2B 3719   0.374   1.373   5.092
  274POPC   C3B 3720   0.311   1.258   5.460
  274POPC   C4B 3721   0.360   1.367   5.840
  275POPC   NC3 3722   4.277   9.567   3.785
  275POPC   PO4 3723   4.217  10.311   3.699
  275POPC   GL1 3724   4.169  10.280   4.153
  275POPC   GL2 3725   3.852  10.254   4.329
  275POPC   C1A 3726   4.297  10.351   4.600
  275POPC   D2A 3727   4.557   0.002   4.957
  275POPC   C3A 3728   4.671  10.333   5.390
  275POPC   C4A 3729   4.430  10.298   5.774
  275POPC   C1B 3730   3.949   9.989   4.682
  275POPC   C2B 3731   4.150  10.169   5.075
  275POPC   C3B 3732   4.034  10.095   5.506
  275POPC   C4B 3733   3.971  10.128   5.983
  276POPC   NC3 3734   6.578   8.799   4.033
  276POPC   PO4 3735   6.570   9.457   3.883
  276POPC   GL1 3736   6.567   9.258   4.276
  276POPC   GL2 3737   6.249   9.284   4.407
  276POPC   C1A 3738   6.636   9.268   4.741
  276POPC   D2A 3739   6.357   9.482   5.043
  276POPC   C3A 3740   6.446   9.496   5.489
  276POPC   C4A 3741   6.727   9.466   5.790
  276POPC   C1B 3742   6.044   9.634   4.624
  276POPC   C2B 3743   5.875   9.687   5.063
  276POPC   C3B 3744   5.956   9.457   5.452
  276POPC   C4B 3745   6.167   9.199   5.793
  277POPC   NC3 3746   1.341   5.344   3.933
  277POPC   PO4 3747   1.069   5.964   4.000
  277POPC   GL1 3748   1.068   5.574   4.287
  277POPC   GL2 3749   1.422   5.589   4.351
  277POPC   C1A 3750   1.112   5.329   4.694
  277POPC   D2A 3751   0.924   5.550   5.042
  277POPC   C3A 3752   1.084   5.432   5.458
  277POPC   C4A 3753   0.885   5.756   5.703
  277POPC   C1B 3754   1.305   5.803   4.692
  277POPC   C2B 3755   1.416   5.647   5.085
  277POPC   C3B 3756   1.271   5.877   5.387
  277POPC   C4B 3757   1.403   5.933   5.756
  278POPC   NC3 3758   1.193   3.725   3.771
  278POPC   PO4 3759   1.457   4.231   4.086
  278POPC   GL1 3760   1.238   4.110   4.380
  278POPC   GL2 3761   1.019   4.381   4.422
  278POPC   C1A 3762   1.406   4.145   4.781
  278POPC   D2A 3763   1.346   4.368   5.152
  278POPC   C3A 3764   1.384   4.057   5.474
  278POPC   C4A 3765   1.297   4.014   5.920
  278POPC   C1B 3766   0.901   4.148   4.789
  278POPC   C2B 3767   0.835   4.260   5.215
  278POPC   C3B 3768   0.889   4.280   5.656
  278POPC   C4B 3769   0.788   4.037   6.008
  279POPC   NC3 3770  10.084   1.473   4.061
  279POPC   PO4 3771  10.388   2.008   3.948
  279POPC   GL1 3772  10.148   1.948   4.305
  279POPC   GL2 3773   9.937   2.217   4.412
  279POPC   C1A 3774  10.265   1.822   4.701
  279POPC   D2A 3775  10.428   1.605   5.014
  279POPC   C3A 3776   0.065   1.726   5.370
  279POPC   C4A 3777  10.438   1.648   5.753
  279POPC   C1B 3778  10.002   2.272   4.814
  279POPC   C2B 3779  10.097   1.998   5.140
  279POPC   C3B 3780  10.182   2.068   5.510
  279POPC   C4B 3781  10.038   1.931   5.895
  280POPC   NC3 3782   9.225   4.048   3.971
  280POPC   PO4 3783   9.785   4.169   3.661
  280POPC   GL1 3784   9.685   4.192   4.145
  280POPC   GL2 3785   9.544   4.491   4.202
  280POPC   C1A 3786   9.419   4.103   4.590
  280POPC   D2A 3787   9.275   3.998   5.040
  280POPC   C3A 3788   9.424   4.203   5.431
  280POPC   C4A 3789   9.547   4.017   5.850
  280POPC   C1B 3790   9.480   4.616   4.638
  280POPC   C2B 3791   9.250   4.552   5.010
  280POPC   C3B 3792   9.040   4.615   5.379
  280POPC   C4B 3793   9.107   4.420   5.766
  281POPC   NC3 3794   2.617   7.905   3.803
  281POPC   PO4 3795   2.127   8.313   4.049
  281POPC   GL1 3796   2.445   7.989   4.282
  281POPC   GL2 3797   2.519   7.611   4.207
  281POPC   C1A 3798   2.651   8.105   4.694
  281POPC   D2A 3799   2.760   8.167   5.148
  281POPC   C3A 3800   2.409   8.148   5.445
  281POPC   C4A 3801   2.356   7.945   5.849
  281POPC   C1B 3802   2.786   7.625   4.590
  281POPC   C2B 3803   2.702   7.665   4.991
  281POPC   C3B 3804   2.653   7.712   5.407
  281POPC   C4B 3805   2.721   7.592   5.812
  282POPC   NC3 3806   0.729   6.274   3.955
  282POPC   PO4 3807   0.231   6.656   4.095
  282POPC   GL1 3808   0.473   6.479   4.394
  282POPC   GL2 3809   0.712   6.695   4.378
  282POPC   C1A 3810   0.387   6.519   4.827
  282POPC   D2A 3811   0.288   6.238   5.150
  282POPC   C3A 3812   0.101   6.363   5.546
  282POPC   C4A 3813   0.338   6.610   5.757
  282POPC   C1B 3814   0.896   6.603   4.746
  282POPC   C2B 3815   0.822   6.513   5.149
  282POPC   C3B 3816   0.722   6.742   5.466
  282POPC   C4B 3817   0.876   6.693   5.862
  283POPC   NC3 3818  10.062   7.588   3.573
  283POPC   PO4 3819  10.428   7.608   4.107
  283POPC   GL1 3820  10.046   7.627   4.351
  283POPC   GL2 3821   9.998   7.894   4.222
  283POPC   C1A 3822   9.869   7.884   4.719
  283POPC   D2A 3823  10.090   7.934   5.088
  283POPC   C3A 3824  10.129   7.612   5.395
  283POPC   C4A 3825  10.321   7.433   5.734
  283POPC   C1B 3826  10.337   8.022   4.571
  283POPC   C2B 3827   0.012   8.217   4.924
  283POPC   C3B 3828  10.431   8.204   5.353
  283POPC   C4B 3829  10.173   8.024   5.687
  284POPC   NC3 3830   8.424   7.116   4.149
  284POPC   PO4 3831   8.916   6.956   3.746
  284POPC   GL1 3832   8.911   7.089   4.201
  284POPC   GL2 3833   8.808   7.446   4.306
  284POPC   C1A 3834   8.841   6.960   4.654
  284POPC   D2A 3835   8.755   7.051   5.101
  284POPC   C3A 3836   9.022   7.305   5.355
  284POPC   C4A 3837   9.130   7.453   5.763
  284POPC   C1B 3838   8.563   7.398   4.734
  284POPC   C2B 3839   8.312   7.302   5.126
  284POPC   C3B 3840   8.427   7.163   5.508
  284POPC   C4B 3841   8.635   7.527   5.578
  285POPC   NC3 3842   6.422   0.274   3.958
  285POPC   PO4 3843   6.101   1.031   3.929
  285POPC   GL1 3844   6.215   0.637   4.250
  285POPC   GL2 3845   6.573   0.496   4.368
  285POPC   C1A 3846   6.106   0.499   4.688
  285POPC   D2A 3847   5.963   0.459   5.139
  285POPC   C3A 3848   6.215   0.682   5.449
  285POPC   C4A 3849   6.171   0.676   5.879
  285POPC   C1B 3850   6.586   0.288   4.728
  285POPC   C2B 3851   6.513   0.477   5.084
  285POPC   C3B 3852   6.593   0.309   5.457
  285POPC   C4B 3853   6.545   0.346   5.845
  286POPC   NC3 3854   4.511   9.334   4.186
  286POPC   PO4 3855   3.960   9.797   4.002
  286POPC   GL1 3856   4.289   9.790   4.276
  286POPC   GL2 3857   4.154   9.508   4.492
  286POPC   C1A 3858   4.455   9.852   4.677
  286POPC   D2A 3859   4.226   9.666   5.012
  286POPC   C3A 3860   4.433   9.811   5.370
  286POPC   C4A 3861   4.272   9.723   5.760
  286POPC   C1B 3862   4.263   9.171   4.781
  286POPC   C2B 3863   4.133   9.017   5.168
  286POPC   C3B 3864   4.264   9.234   5.538
  286POPC   C4B 3865   3.967   9.314   5.868
  287POPC   NC3 3866   8.414   4.118   3.980
  287POPC   PO4 3867   9.007   4.419   4.144
  287POPC   GL1 3868   8.668   4.373   4.320
  287POPC   GL2 3869   8.855   4.137   4.528
  287POPC   C1A 3870   8.403   4.348   4.647
  287POPC   D2A 3871   8.606   4.194   4.980
  287POPC   C3A 3872   8.373   4.032   5.304
  287POPC   C4A 3873   8.421   4.166   5.716
  287POPC   C1B 3874   8.988   3.763   4.666
  287POPC   C2B 3875   8.805   3.752   5.057
  287POPC   C3B 3876   8.880   4.055   5.402
  287POPC   C4B 3877   9.068   3.920   5.758
  288POPC   NC3 3878   8.242   1.603   3.719
  288POPC   PO4 3879   8.044   2.213   3.988
  288POPC   GL1 3880   7.729   2.104   4.346
  288POPC   GL2 3881   7.959   1.943   4.459
  288POPC   C1A 3882   7.634   2.050   4.801
  288POPC   D2A 3883   7.734   2.341   5.085
  288POPC   C3A 3884   7.774   2.094   5.421
  288POPC   C4A 3885   7.531   2.051   5.750
  288POPC   C1B 3886   8.010   1.712   4.841
  288POPC   C2B 3887   8.289   1.598   5.167
  288POPC   C3B 3888   8.127   1.536   5.592
  288POPC   C4B 3889   7.986   1.822   5.883
  289POPC   NC3 3890   9.854   2.166   3.919
  289POPC   PO4 3891   9.567   1.450   3.832
  289POPC   GL1 3892   9.557   1.517   4.263
  289POPC   GL2 3893   9.333   1.767   4.397
  289POPC   C1A 3894   9.786   1.714   4.602
  289POPC   D2A 3895   9.632   1.934   4.933
  289POPC   C3A 3896   9.623   1.895   5.371
  289POPC   C4A 3897   9.553   1.800   5.772
  289POPC   C1B 3898   9.125   1.770   4.759
  289POPC   C2B 3899   9.195   1.756   5.146
  289POPC   C3B 3900   9.108   1.881   5.526
  289POPC   C4B 3901   9.239   2.269   5.707
  290POPC   NC3 3902   3.260   8.534   3.698
  290POPC   PO4 3903   3.009   7.842   4.030
  290POPC   GL1 3904   3.347   7.840   4.341
  290POPC   GL2 3905   3.313   7.504   4.362
  290POPC   C1A 3906   3.417   8.184   4.713
  290POPC   D2A 3907   3.275   8.238   5.160
  290POPC   C3A 3908   3.502   8.141   5.559
  290POPC   C4A 3909   3.802   8.113   5.917
  290POPC   C1B 3910   3.266   7.691   4.809
  290POPC   C2B 3911   3.421   7.722   5.228
  290POPC   C3B 3912   3.167   7.764   5.591
  290POPC   C4B 3913   2.886   8.085   5.678
  291POPC   NC3 3914   0.367   5.120   3.938
  291POPC   PO4 3915   0.091   4.542   3.953
  291POPC   GL1 3916   0.258   4.705   4.303
  291POPC   GL2 3917   0.243   5.095   4.427
  291POPC   C1A 3918   0.053   4.701   4.687
  291POPC   D2A 3919   0.157   4.870   5.033
  291POPC   C3A 3920   0.019   4.803   5.427
  291POPC   C4A 3921   0.156   5.152   5.701
  291POPC   C1B 3922   0.589   4.908   4.631
  291POPC   C2B 3923   0.628   4.704   5.029
  291POPC   C3B 3924   0.544   4.913   5.414
  291POPC   C4B 3925   0.645   4.733   5.788
  292POPC   NC3 3926   0.945   8.557   3.767
  292POPC   PO4 3927   0.687   9.153   3.977
  292POPC   GL1 3928   0.899   8.843   4.242
  292POPC   GL2 3929   1.263   8.802   4.319
  292POPC   C1A 3930   0.900   8.678   4.677
  292POPC   D2A 3931   0.693   8.622   5.097
  292POPC   C3A 3932   0.959   8.641   5.477
  292POPC   C4A 3933   0.905   8.880   5.866
  292POPC   C1B 3934   1.434   8.870   4.737
  292POPC   C2B 3935   1.396   8.601   5.109
  292POPC   C3B 3936   1.590   8.669   5.508
  292POPC   C4B 3937   1.392   9.008   5.721
  293POPC   NC3 3938   7.946   9.770   3.991
  293POPC   PO4 3939   7.897   9.195   3.693
  293POPC   GL1 3940   7.906   9.212   4.201
  293POPC   GL2 3941   7.913   9.533   4.423
  293POPC   C1A 3942   7.968   9.111   4.682
  293POPC   D2A 3943   8.172   9.419   5.018
  293POPC   C3A 3944   8.191   9.299   5.471
  293POPC   C4A 3945   8.200   9.714   5.704
  293POPC   C1B 3946   7.684   9.507   4.767
  293POPC   C2B 3947   7.718   9.261   5.124
  293POPC   C3B 3948   7.788   9.594   5.431
  293POPC   C4B 3949   7.801   9.364   5.819
  294POPC   NC3 3950   3.500   1.239   3.826
  294POPC   PO4 3951   3.127   0.892   4.237
  294POPC   GL1 3952   3.492   1.041   4.354
  294POPC   GL2 3953   3.525   1.418   4.306
  294POPC   C1A 3954   3.490   0.944   4.788
  294POPC   D2A 3955   3.732   0.961   5.126
  294POPC   C3A 3956   3.463   0.860   5.433
  294POPC   C4A 3957   3.372   1.064   5.829
  294POPC   C1B 3958   3.497   1.463   4.732
  294POPC   C2B 3959   3.640   1.470   5.114
  294POPC   C3B 3960   3.637   1.335   5.503
  294POPC   C4B 3961   3.528   1.537   5.874
  295POPC   NC3 3962   3.230   8.243   4.082
  295POPC   PO4 3963   3.517   8.868   3.890
  295POPC   GL1 3964   3.525   8.648   4.249
  295POPC   GL2 3965   3.200   8.678   4.359
  295POPC   C1A 3966   3.628   8.723   4.651
  295POPC   D2A 3967   3.468   8.794   5.036
  295POPC   C3A 3968   3.523   8.618   5.410
  295POPC   C4A 3969   3.130   8.522   5.579
  295POPC   C1B 3970   3.211   9.033   4.654
  295POPC   C2B 3971   3.185   9.210   5.064
  295POPC   C3B 3972   3.241   9.019   5.454
  295POPC   C4B 3973   3.503   9.105   5.763
  296POPC   NC3 3974   2.943   7.330   4.042
  296POPC   PO4 3975   3.500   7.060   4.078
  296POPC   GL1 3976   3.140   7.012   4.397
  296POPC   GL2 3977   2.800   6.873   4.260
  296POPC   C1A 3978   3.094   7.212   4.825
  296POPC   D2A 3979   3.032   7.386   5.271
  296POPC   C3A 3980   3.052   7.211   5.729
  296POPC   C4A 3981   2.955   7.167   6.204
  296POPC   C1B 3982   2.640   7.141   4.606
  296POPC   C2B 3983   2.618   7.161   5.051
  296POPC   C3B 3984   2.583   7.216   5.495
  296POPC   C4B 3985   2.531   7.108   5.936
  297POPC   NC3 3986   1.487   6.221   3.968
  297POPC   PO4 3987   0.929   6.722   3.901
  297POPC   GL1 3988   1.172   6.522   4.239
  297POPC   GL2 3989   0.965   6.240   4.410
  297POPC   C1A 3990   1.399   6.353   4.628
  297POPC   D2A 3991   1.207   6.204   5.008
  297POPC   C3A 3992   1.343   6.369   5.412
  297POPC   C4A 3993   1.365   6.452   5.847
  297POPC   C1B 3994   0.744   6.106   4.797
  297POPC   C2B 3995   0.776   6.016   5.259
  297POPC   C3B 3996   0.914   6.250   5.630
  297POPC   C4B 3997   1.038   6.141   6.058
  298POPC   NC3 3998   0.733   5.645   3.887
  298POPC   PO4 3999   0.330   6.217   3.725
  298POPC   GL1 4000   0.358   6.025   4.197
  298POPC   GL2 4001   0.627   5.853   4.344
  298POPC   C1A 4002   0.244   6.007   4.652
  298POPC   D2A 4003   0.426   5.753   4.993
  298POPC   C3A 4004   0.229   5.797   5.378
  298POPC   C4A 4005   0.459   6.049   5.685
  298POPC   C1B 4006   0.601   5.454   4.593
  298POPC   C2B 4007   0.500   5.250   5.001
  298POPC   C3B 4008   0.571   5.417   5.415
  298POPC   C4B 4009   0.415   5.561   5.800
  299POPC   NC3 4010   1.361   0.565   3.631
  299POPC   PO4 4011   0.976   0.176   3.919
  299POPC   GL1 4012   1.266   0.217   4.288
  299POPC   GL2 4013   1.352   0.567   4.263
  299POPC   C1A 4014   1.087   0.250   4.723
  299POPC   D2A 4015   1.183   0.150   5.143
  299POPC   C3A 4016   1.167   0.322   5.535
  299POPC   C4A 4017   1.517   0.069   5.714
  299POPC   C1B 4018   1.418   0.620   4.696
  299POPC   C2B 4019   1.196   0.668   5.064
  299POPC   C3B 4020   1.274   0.861   5.443
  299POPC   C4B 4021   1.158   0.754   5.831
  300POPC   NC3 4022   3.943   8.696   3.970
  300POPC   PO4 4023   4.458   8.230   4.026
  300POPC   GL1 4024   4.182   8.445   4.339
  300POPC   GL2 4025   4.102   8.795   4.446
  300POPC   C1A 4026   3.930   8.341   4.691
  300POPC   D2A 4027   3.913   8.560   5.088
  300POPC   C3A 4028   3.965   8.360   5.481
  300POPC   C4A 4029   4.290   8.215   5.695
  300POPC   C1B 4030   4.335   8.655   4.809
  300POPC   C2B 4031   4.420   8.482   5.226
  300POPC   C3B 4032   4.321   8.720   5.589
  300POPC   C4B 4033   3.914   8.861   5.634
  301POPC   NC3 4034   9.806   0.952   3.767
  301POPC   PO4 4035  10.464   1.012   3.897
  301POPC   GL1 4036  10.360   1.129   4.353
  301POPC   GL2 4037  10.169   0.862   4.502
  301POPC   C1A 4038  10.129   1.308   4.738
  301POPC   D2A 4039   9.883   1.497   5.069
  301POPC   C3A 4040  10.002   1.599   5.481
  301POPC   C4A 4041   9.997   1.408   5.875
  301POPC   C1B 4042   0.009   0.830   4.772
  301POPC   C2B 4043  10.461   1.106   5.062
  301POPC   C3B 4044  10.317   1.232   5.387
  301POPC   C4B 4045  10.420   1.135   5.768
  302W        W 4046  10.382   3.596   8.973
  303W        W 4047   3.391   7.422   2.256
  304W        W 4048   8.017   2.761   1.841
  305W        W 4049   6.076   0.514   0.260
  306W        W 4050   9.192   2.118   8.579
  307W        W 4051   9.848   3.088   8.670
  308W        W 4052   8.189   5.488   9.718
  309W        W 4053   2.267   3.563   0.850
  310W        W 4054  10.071   3.196   0.950
  311W        W 4055   0.275   7.406  10.514
  312W        W 4056   5.255   1.874   2.187
  313W        W 4057   9.678   7.144   9.553
  314W        W 4058   9.919   7.951   8.992
  315W        W 4059   8.431   5.665   0.077
  316W        W 4060   8.924   0.964   3.245
  317W        W 4061   5.264   6.448   1.662
  318W        W 4062   8.004   6.168   1.479
  319W        W 4063   5.652  10.451  11.921
  320W        W 4064   6.511  10.334   1.440
  321W        W 4065   1.849   5.692  11.748
  322W        W 4066   3.514   6.670  11.485
  323W        W 4067   6.445   8.055   0.344
  324W        W 4068   8.951   7.684   9.830
  325W        W 4069   0.975   1.862   9.789
  326W        W 4070  10.301   1.819   9.101
  327W        W 4071   4.632   0.749  10.107
  328W        W 4072  10.000   8.577  10.918
  329W        W 4073   9.746   2.285   0.742
  330W        W 4074   1.864   6.961   2.781
  331W        W 4075   1.359   7.012   1.789
  332W        W 4076   9.539   2.106  11.780
  333W        W 4077   6.352   3.135  10.002
  334W        W 4078   2.218   2.863   2.603
  335W        W 4079   0.416   1.039   9.422
  336W        W 4080   8.720   2.224   2.236
  337W        W 4081   8.884   8.831  10.592
  338W        W 4082   4.970   0.452   1.505
  339W        W 4083   2.719   9.483  11.144
  340W        W 4084   3.517   7.378   2.997
  341W        W 4085   8.984   0.834   2.732
  342W        W 4086   1.370   2.559   0.094
  343W        W 4087   2.367   4.694   2.655
  344W        W 4088   6.676   0.168   3.516
  345W        W 4089  10.463   4.218   9.656
  346W        W 4090   7.013  10.308   1.722
  347W        W 4091   7.397   3.684   9.895
  348W        W 4092   1.646   6.776  10.305
  349W        W 4093  10.247   5.078   2.000
  350W        W 4094   8.442   5.602   0.611
  351W        W 4095   3.584   6.896  11.029
  352W        W 4096   6.973   4.121   1.898
  353W        W 4097   4.696   4.173  10.383
  354W        W 4098   8.543   7.599   9.030
  355W        W 4099   5.150  10.101  10.710
  356W        W 4100   8.539   7.673   9.545
  357W        W 4101   6.418   9.148   2.078
  358W        W 4102   2.257   1.295   1.689
  359W        W 4103   7.579   4.637   9.427
  360W        W 4104   0.889   0.845   0.293
  361W        W 4105   4.804   8.445   9.704
  362W        W 4106   5.299   4.781   0.317
  363W        W 4107   8.403   3.171   1.923
  364W        W 4108   0.430   0.800   1.393
  365W        W 4109   8.901   8.141   0.214
  366W        W 4110   5.183   3.044  11.387
  367W        W 4111   9.385   2.734   3.452
  368W        W 4112   2.136   1.860   3.061
  369W        W 4113   4.843   0.935   1.753
  370W        W 4114   8.467   0.193   1.754
  371W        W 4115   8.978   9.097  10.150
  372W        W 4116   9.297   1.381   1.100
  373W        W 4117   8.050   6.071   2.928
  374W        W 4118   6.143   3.719   0.682
  375W        W 4119   4.917   7.931   0.229
  376W        W 4120   8.729   9.766  10.957
  377W        W 4121   0.930   8.609   9.487
  378W        W 4122   5.683   9.439  10.206
  379W        W 4123   0.995   7.176   2.597
  380W        W 4124   1.909   0.946   1.775
  381W        W 4125   4.583   9.902   9.803
  382W        W 4126   6.701   9.707  11.723
  383W        W 4127   0.969   4.675   2.936
  384W        W 4128   7.140   3.559  10.468
  385W        W 4129   8.118   7.331   1.649
  386W        W 4130   4.796   2.190   2.915
  387W        W 4131   9.650   9.854   0.712
  388W        W 4132   8.482   9.555   3.064
  389W        W 4133   6.674   4.584   9.181
  390W        W 4134   7.019   9.453  10.227
  391W        W 4135   0.777   7.730   0.014
  392W        W 4136   5.440   7.575  10.478
  393W        W 4137   7.494   6.258  11.820
  394W        W 4138   1.627   0.533   1.719
  395W        W 4139   7.858   1.316   2.980
  396W        W 4140   0.926   3.742   8.788
  397W        W 4141   3.517   2.393  11.364
  398W        W 4142   4.054   9.634   9.786
  399W        W 4143   3.097   5.274   2.794
  400W        W 4144   7.188   4.354   3.332
  401W        W 4145   9.397   8.073   2.570
  402W        W 4146   7.694   1.427   9.499
  403W        W 4147   2.341   5.507   8.577
  404W        W 4148   8.160   3.770   2.910
  405W        W 4149   9.790   8.569   1.539
  406W        W 4150   7.582   4.591   3.134
  407W        W 4151   0.735  10.341   0.688
  408W        W 4152   2.597   2.802   2.247
  409W        W 4153   8.127   9.307   9.327
  410W        W 4154   1.750   4.499   8.687
  411W        W 4155   0.391   4.363   9.925
  412W        W 4156   7.910  10.267  10.566
  413W        W 4157   1.194   9.164  11.194
  414W        W 4158   7.044   8.204  11.912
  415W        W 4159   1.266   3.606   9.611
  416W        W 4160   6.358   9.772  11.319
  417W        W 4161   3.652   0.466   0.488
  418W        W 4162   9.236   7.206   2.913
  419W        W 4163   6.693   9.397  11.228
  420W        W 4164   8.064   1.257  10.136
  421W        W 4165   7.865   0.444   0.013
  422W        W 4166   7.747   2.708   8.834
  423W        W 4167  10.138   3.366   3.318
  424W        W 4168   0.975  10.479   1.762
  425W        W 4169   4.169   2.509  11.774
  426W        W 4170   4.753   4.116   2.201
  427W        W 4171   5.274   6.169   3.453
  428W        W 4172   7.460   8.537   3.657
  429W        W 4173   2.078   0.954   3.463
  430W        W 4174   4.275   0.843   1.860
  431W        W 4175  10.089   6.844  11.781
  432W        W 4176   1.987   9.132   1.251
  433W        W 4177   7.527   7.678   2.731
  434W        W 4178   1.770   2.103   0.362
  435W        W 4179   9.916   2.798  10.056
  436W        W 4180   0.230   4.655   9.538
  437W        W 4181   4.459   3.196   3.645
  438W        W 4182   6.516   5.027  11.569
  439W        W 4183   7.865   1.653   3.395
  440W        W 4184   1.862   0.622   8.907
  441W        W 4185   5.011   6.687   0.302
  442W        W 4186   3.748   3.749   1.955
  443W        W 4187   4.106   8.519  10.933
  444W        W 4188   1.310   0.461   2.813
  445W        W 4189   4.548   1.721   1.905
  446W        W 4190   8.138   5.715   9.223
  447W        W 4191   6.909   9.907   0.353
  448W        W 4192   3.445   0.766   0.867
  449W        W 4193   9.560   5.547   2.162
  450W        W 4194   6.647   9.954   3.017
  451W        W 4195   9.211   4.480   3.678
  452W        W 4196   5.082   5.248  11.401
  453W        W 4197   6.790   9.469   2.922
  454W        W 4198  10.327  10.371   2.436
  455W        W 4199   8.395   0.222  11.333
  456W        W 4200   2.864   1.327   8.784
  457W        W 4201   6.079   3.791  11.203
  458W        W 4202   0.761   8.620   1.769
  459W        W 4203   2.183   7.190   1.256
  460W        W 4204   9.502   9.600   2.437
  461W        W 4205   6.683   4.099  11.834
  462W        W 4206   6.940   4.141   9.280
  463W        W 4207   3.197   2.375   2.883
  464W        W 4208   8.169   3.729   0.296
  465W        W 4209   1.770   2.266  11.859
  466W        W 4210   8.066   1.192   3.431
  467W        W 4211   1.494  10.314  11.893
  468W        W 4212   5.483   6.633   9.431
  469W        W 4213   2.094   0.815   0.882
  470W        W 4214   5.959   8.167   0.502
  471W        W 4215  10.396   2.029   1.529
  472W        W 4216   6.623   4.101   9.676
  473W        W 4217   8.998   0.285   9.144
  474W        W 4218   8.033   4.700   2.928
  475W        W 4219   5.132   2.508   1.720
  476W        W 4220   3.067   8.233   2.604
  477W        W 4221   7.419   8.941  11.730
  478W        W 4222   2.885   0.354  11.808
  479W        W 4223  10.377   0.231   1.665
  480W        W 4224   1.948   0.869   0.388
  481W        W 4225   9.282   8.352   3.565
  482W        W 4226   9.832   6.405   9.001
  483W        W 4227   6.041   9.178  11.936
  484W        W 4228   9.404   6.644  10.816
  485W        W 4229   7.544   8.849   9.300
  486W        W 4230   2.387   4.232   9.885
  487W        W 4231   5.498   3.279   1.262
  488W        W 4232   4.502   9.959  11.325
  489W        W 4233   5.238   3.735   1.169
  490W        W 4234   5.043   0.756   9.780
  491W        W 4235   5.092   0.805   9.276
  492W        W 4236   1.322   4.992   3.546
  493W        W 4237   8.126   4.182  10.023
  494W        W 4238   2.934   2.339   3.318
  495W        W 4239   8.515   8.434  11.463
  496W        W 4240   9.775   2.350  10.296
  497W        W 4241   2.354   6.281   8.803
  498W        W 4242   5.960   6.295   9.483
  499W        W 4243   6.135   3.735   1.198
  500W        W 4244   2.801   7.416   0.996
  501W        W 4245   9.323   5.157  10.499
  502W        W 4246   6.853   2.139   1.667
  503W        W 4247   7.214   5.342   2.105
  504W        W 4248   6.125   6.027   2.532
  505W        W 4249   3.265   1.375   2.494
  506W        W 4250   0.083   3.898   0.783
  507W        W 4251   0.184   1.262   2.274
  508W        W 4252  10.048   3.986   8.715
  509W        W 4253   7.215   5.837   8.157
  510W        W 4254   2.777   5.868   9.474
  511W        W 4255  10.154   4.264  10.071
  512W        W 4256   2.173   5.211   2.946
  513W        W 4257   3.816   2.793  11.529
  514W        W 4258   8.311   6.493   0.046
  515W        W 4259   6.863   0.124  10.802
  516W        W 4260   6.648   4.554   1.904
  517W        W 4261   5.644   6.504   3.263
  518W        W 4262   6.095   3.684   2.828
  519W        W 4263   7.704   3.570   2.908
  520W        W 4264   6.571   5.950   1.819
  521W        W 4265   4.602   5.447   2.399
  522W        W 4266   2.913   3.166   0.394
  523W        W 4267   5.154   0.839   0.660
  524W        W 4268   1.423   7.578   1.143
  525W        W 4269   2.797   2.751  11.686
  526W        W 4270   6.526   1.426   2.717
  527W        W 4271   1.814   5.882   9.405
  528W        W 4272   3.589   2.341   2.200
  529W        W 4273  10.011   0.029  10.461
  530W        W 4274   6.509   1.668  10.072
  531W        W 4275   5.716   6.213   4.239
  532W        W 4276   6.707   7.024   0.106
  533W        W 4277   7.716   4.321  11.833
  534W        W 4278   9.327   8.582   9.497
  535W        W 4279   9.069  10.216  10.882
  536W        W 4280   9.126   4.667  10.560
  537W        W 4281   4.209   1.254  10.599
  538W        W 4282   9.890   4.749   1.216
  539W        W 4283   1.675   6.103   0.757
  540W        W 4284   9.653   4.165  10.043
  541W        W 4285   3.468   2.304   3.316
  542W        W 4286   0.465   5.262   9.772
  543W        W 4287   0.350   4.535   2.392
  544W        W 4288   2.402   6.038  10.315
  545W        W 4289   5.537  10.464  10.478
  546W        W 4290   1.938   0.691   2.240
  547W        W 4291   7.641   3.564   8.923
  548W        W 4292   7.954   1.866   9.324
  549W        W 4293   6.635   5.458   0.464
  550W        W 4294   9.804   7.174  10.531
  551W        W 4295  10.152   4.665  10.389
  552W        W 4296   3.749   6.625  10.638
  553W        W 4297   9.614   2.604   3.027
  554W        W 4298   7.551   1.144  11.472
  555W        W 4299   6.613   8.614   2.710
  556W        W 4300   4.562   1.819   3.327
  557W        W 4301   5.016   2.779   8.018
  558W        W 4302   4.192   0.588   9.888
  559W        W 4303   6.463   5.682   2.259
  560W        W 4304   8.917   5.096   9.547
  561W        W 4305   8.918   2.160   0.509
  562W        W 4306   8.494   2.748   2.224
  563W        W 4307   2.175   4.709   9.879
  564W        W 4308   1.388   0.717   0.349
  565W        W 4309   7.884   7.438   1.210
  566W        W 4310   6.907   3.146   1.213
  567W        W 4311  10.119   5.076  10.069
  568W        W 4312   0.789   2.777   9.707
  569W        W 4313   5.218   4.314   2.314
  570W        W 4314   1.199   4.764   9.620
  571W        W 4315   6.580   5.885   0.202
  572W        W 4316   2.017   8.022  11.926
  573W        W 4317   4.723   4.955  11.636
  574W        W 4318   0.667   1.685   1.722
  575W        W 4319   7.098   5.583  11.927
  576W        W 4320   3.336   1.866   2.179
  577W        W 4321   8.853   4.243   1.540
  578W        W 4322   0.325   9.887   1.812
  579W        W 4323   0.465   5.622   1.902
  580W        W 4324   8.496   8.914   8.786
  581W        W 4325   6.065   6.946   2.779
  582W        W 4326   6.243   6.545   9.856
  583W        W 4327   2.697   5.204   3.136
  584W        W 4328   7.128   6.526   9.378
  585W        W 4329   3.756   2.572   0.066
  586W        W 4330   3.257   8.236   0.557
  587W        W 4331   9.350   7.322   9.192
  588W        W 4332   6.678   9.254   0.666
  589W        W 4333   3.068   3.390   2.556
  590W        W 4334   9.414   7.542   2.475
  591W        W 4335   9.048   4.112   0.406
  592W        W 4336   4.506   4.107   0.672
  593W        W 4337   5.197   7.068   9.305
  594W        W 4338   5.114   9.926   9.032
  595W        W 4339   1.951   6.708   9.887
  596W        W 4340   3.769   6.052  10.468
  597W        W 4341   5.968   9.723   3.411
  598W        W 4342   9.437   3.784   0.440
  599W        W 4343   0.882   0.330  10.504
  600W        W 4344   2.305   4.569   1.013
  601W        W 4345   6.660   1.781   8.642
  602W        W 4346   2.723   3.534   3.292
  603W        W 4347   7.690   3.794   3.899
  604W        W 4348   6.046   3.219  10.794
  605W        W 4349   1.302   3.814   9.138
  606W        W 4350   9.540   4.729   1.960
  607W        W 4351   0.877   8.334  11.193
  608W        W 4352   3.550   1.576   3.435
  609W        W 4353   1.256   7.469   8.844
  610W        W 4354   4.786   1.027   1.208
  611W        W 4355   7.688   2.823   1.355
  612W        W 4356   1.332   2.394  11.049
  613W        W 4357   4.617   2.153  10.580
  614W        W 4358   3.233   9.740   9.171
  615W        W 4359   9.278   6.265   9.803
  616W        W 4360   4.087   8.398   9.074
  617W        W 4361   6.974   1.843  11.007
  618W        W 4362   4.114   5.995  11.780
  619W        W 4363   3.419   1.004   2.144
  620W        W 4364   9.047   1.672   0.651
  621W        W 4365   5.152   3.836   0.664
  622W        W 4366   3.365   5.012   9.842
  623W        W 4367   2.129   5.695  10.009
  624W        W 4368   4.568   2.824   8.816
  625W        W 4369   1.579   0.239   9.075
  626W        W 4370   6.940   7.049   3.503
  627W        W 4371   7.668   1.055   9.845
  628W        W 4372   2.399   7.361   0.224
  629W        W 4373   7.616   4.124  10.035
  630W        W 4374   6.146   8.355   1.868
  631W        W 4375   4.795   4.591   2.428
  632W        W 4376   7.247   3.629  11.962
  633W        W 4377   3.608   6.142   2.672
  634W        W 4378   4.742   7.361   0.985
  635W        W 4379   2.415   6.548  10.071
  636W        W 4380   7.511   0.829  11.857
  637W        W 4381   5.024   6.486  10.353
  638W        W 4382   3.208  10.300  11.413
  639W        W 4383   9.871   8.462   9.053
  640W        W 4384   9.195   5.744   0.706
  641W        W 4385   0.361   5.958   0.380
  642W        W 4386  10.148   2.803   1.743
  643W        W 4387   5.521   5.137  10.916
  644W        W 4388   2.151   2.083   9.949
  645W        W 4389   3.285   8.383  10.499
  646W        W 4390   4.750   0.024   2.003
  647W        W 4391  10.069   8.295   9.966
  648W        W 4392   5.671   4.139   9.539
  649W        W 4393   4.083   2.343   2.312
  650W        W 4394   4.505   4.215   1.182
  651W        W 4395   7.989  10.423   0.422
  652W        W 4396   9.451   6.733   9.885
  653W        W 4397   0.038   6.570  11.054
  654W        W 4398   1.740   6.968   3.287
  655W        W 4399   9.003   4.289   1.023
  656W        W 4400   1.932   8.790  10.531
  657W        W 4401   8.623   7.223   2.301
  658W        W 4402   9.837   1.375   0.250
  659W        W 4403   3.309   5.074   8.373
  660W        W 4404   2.316   2.099   0.997
  661W        W 4405   9.323   7.704   2.962
  662W        W 4406   6.718   5.994   8.738
  663W        W 4407   5.236   5.774   9.081
  664W        W 4408   7.604   5.697   2.137
  665W        W 4409   4.846   2.683  11.264
  666W        W 4410   9.095   2.369   1.359
  667W        W 4411   5.661   5.607   1.087
  668W        W 4412   5.916   8.627   1.495
  669W        W 4413   4.063   3.268   2.294
  670W        W 4414   6.096   0.322   2.492
  671W        W 4415   9.457   9.462   8.954
  672W        W 4416   3.826   0.033   1.705
  673W        W 4417   4.977   3.271   3.631
  674W        W 4418  10.073   3.638   1.712
  675W        W 4419   1.218   4.218   1.966
  676W        W 4420   0.520   3.453   3.468
  677W        W 4421   8.055   8.623  11.012
  678W        W 4422   6.513   3.603  11.726
  679W        W 4423   5.366  10.367   2.954
  680W        W 4424   5.055   6.062   1.409
  681W        W 4425   8.016   1.750   0.827
  682W        W 4426   0.830   0.947  11.803
  683W        W 4427   9.829   6.982   0.943
  684W        W 4428   1.956   3.693  11.922
  685W        W 4429   6.540   0.540   2.218
  686W        W 4430   0.330   2.063   1.823
  687W        W 4431   0.349   3.953  10.532
  688W        W 4432   6.225   4.684   0.505
  689W        W 4433   9.632   0.594   0.093
  690W        W 4434   0.506   4.738   1.936
  691W        W 4435   9.973   2.312   1.716
  692W        W 4436  10.260   7.798   9.844
  693W        W 4437   6.735   7.260   2.204
  694W        W 4438   0.824   8.570   2.263
  695W        W 4439   2.338   1.560   9.991
  696W        W 4440   8.632   6.527   1.898
  697W        W 4441   4.791   0.373   3.423
  698W        W 4442   1.911  10.435   3.371
  699W        W 4443   0.278   4.818  11.119
  700W        W 4444   7.188   1.894   8.559
  701W        W 4445   2.018   3.961   9.338
  702W        W 4446   3.721   7.636   2.605
  703W        W 4447   8.934   3.103   0.560
  704W        W 4448   7.777   3.127   3.133
  705W        W 4449   3.874   0.189   3.628
  706W        W 4450   8.021   8.400   3.076
  707W        W 4451   4.768   0.342   0.029
  708W        W 4452   5.211   6.032   1.939
  709W        W 4453   8.595   9.484   2.584
  710W        W 4454   1.311   5.605   8.503
  711W        W 4455   5.614   3.434   8.988
  712W        W 4456   7.891   5.239   9.084
  713W        W 4457   0.980   8.064   9.508
  714W        W 4458   2.319   6.983   8.901
  715W        W 4459   6.982  10.437   8.464
  716W        W 4460   7.141   7.393   1.888
  717W        W 4461   1.648  10.307   2.414
  718W        W 4462   3.212   0.336   0.789
  719W        W 4463   5.173   7.874  10.832
  720W        W 4464   7.106   4.222  10.924
  721W        W 4465   8.445   8.880   9.300
  722W        W 4466   5.684   8.920   2.186
  723W        W 4467   9.751   6.955   9.079
  724W        W 4468   5.132   7.162   0.474
  725W        W 4469   5.502   5.161   2.634
  726W        W 4470   6.426   7.426   0.382
  727W        W 4471   8.178   4.881   8.624
  728W        W 4472   6.409   7.409  11.196
  729W        W 4473   7.710   0.556   9.890
  730W        W 4474   1.411   1.405   1.748
  731W        W 4475   0.307   7.894   2.310
  732W        W 4476   1.574   8.406   1.637
  733W        W 4477   6.041   4.237  11.470
  734W        W 4478   0.091   4.709   0.427
  735W        W 4479   3.641   9.928   9.991
  736W        W 4480   9.534   5.269  10.974
  737W        W 4481   9.716   0.149   9.982
  738W        W 4482   3.787   1.907   0.423
  739W        W 4483   1.258   3.794   0.030
  740W        W 4484   0.427   5.725  11.035
  741W        W 4485   9.921   2.754   3.453
  742W        W 4486   1.160   7.800   3.294
  743W        W 4487   5.667   1.843   0.033
  744W        W 4488   2.139   9.280   8.969
  745W        W 4489   7.560   6.657   1.101
  746W        W 4490   5.648   9.574   8.841
  747W        W 4491   5.687   2.182   2.922
  748W        W 4492  10.047   3.515  10.703
  749W        W 4493   7.491   9.725   8.993
  750W        W 4494   1.763   7.589  11.825
  751W        W 4495   1.442   0.070  11.296
  752W        W 4496   4.330   6.666   1.602
  753W        W 4497   9.985   8.811  10.012
  754W        W 4498   0.582  10.499  10.803
  755W        W 4499   4.187  10.075   2.444
  756W        W 4500   5.318  10.066   9.520
  757W        W 4501   4.523   1.313   8.730
  758W        W 4502   0.447   0.824  11.001
  759W        W 4503   9.397   9.891   9.442
  760W        W 4504   2.068   3.186   0.025
  761W        W 4505   9.031   2.705  11.254
  762W        W 4506   7.279   7.908   9.115
  763W        W 4507   3.282   7.922   2.282
  764W        W 4508   1.349   1.976  10.726
  765W        W 4509   6.994   2.629   1.865
  766W        W 4510   8.969   3.121   0.058
  767W        W 4511   2.590  10.487   8.974
  768W        W 4512   2.173   8.951  11.794
  769W        W 4513   6.566   4.059   1.001
  770W        W 4514   9.881   9.985   9.269
  771W        W 4515   3.091   6.233   3.728
  772W        W 4516   1.697  10.406   1.287
  773W        W 4517   2.183   9.439   2.732
  774W        W 4518   9.613   8.453   0.296
  775W        W 4519   3.350   1.928  10.361
  776W        W 4520   1.305   0.662   1.197
  777W        W 4521   7.397   8.157  10.075
  778W        W 4522   2.747   6.432  10.970
  779W        W 4523   3.795   4.782   0.552
  780W        W 4524   7.696   5.775   1.324
  781W        W 4525   6.177   7.038  11.474
  782W        W 4526   0.371   2.305   1.378
  783W        W 4527   6.157   5.488   0.990
  784W        W 4528   5.552   6.025  10.232
  785W        W 4529   5.062   3.318   2.218
  786W        W 4530   0.847   6.198  11.505
  787W        W 4531   5.765   1.248  10.257
  788W        W 4532   6.366   9.516   3.191
  789W        W 4533   5.592   6.737   2.812
  790W        W 4534   0.074   2.111   8.628
  791W        W 4535   4.298   3.085   1.867
  792W        W 4536   6.644   0.331   1.350
  793W        W 4537   2.690   5.603   9.004
  794W        W 4538   0.135   9.456   3.316
  795W        W 4539   3.247   0.774   1.717
  796W        W 4540   0.257   6.556  10.580
  797W        W 4541   3.105   4.294   2.775
  798W        W 4542   4.270   9.337   8.879
  799W        W 4543   1.280   1.941   2.968
  800W        W 4544   3.006   4.297   8.567
  801W        W 4545   8.273   1.061  10.997
  802W        W 4546   7.251   2.824   0.018
  803W        W 4547   5.184   6.518   1.169
  804W        W 4548   7.232   4.224   8.530
  805W        W 4549  10.013   3.978  10.906
  806W        W 4550   4.782   0.351  11.516
  807W        W 4551   4.156   2.771   9.602
  808W        W 4552   8.873   0.274   8.644
  809W        W 4553   6.785   5.343   1.298
  810W        W 4554   9.343   4.099   1.368
  811W        W 4555   8.962   7.909   1.789
  812W        W 4556   7.039   7.546  10.380
  813W        W 4557   0.941   0.824  10.223
  814W        W 4558   3.728   4.035   3.757
  815W        W 4559   4.672   9.333  10.948
  816W        W 4560   7.544   7.315   3.626
  817W        W 4561  10.259   9.488  10.490
  818W        W 4562   6.927   3.686   9.537
  819W        W 4563  10.242   7.446  10.538
  820W        W 4564   5.626   2.244  11.187
  821W        W 4565   1.072   1.410   8.975
  822W        W 4566   0.127   5.568   9.529
  823W        W 4567   5.101   0.964   3.486
  824W        W 4568   3.599   4.246   1.811
  825W        W 4569   3.743   7.833   2.098
  826W        W 4570   7.122   1.190   0.794
  827W        W 4571   5.991   8.377  11.489
  828W        W 4572   2.538   6.923   2.974
  829W        W 4573   6.701   1.491   2.229
  830W        W 4574   8.046   2.870  11.219
  831W        W 4575   4.499   1.627   0.882
  832W        W 4576   8.553   9.485  10.567
  833W        W 4577   2.682   2.636   9.434
  834W        W 4578   7.933  10.193  10.074
  835W        W 4579   2.562   0.696   3.387
  836W        W 4580   7.394   5.569   8.578
  837W        W 4581   7.931   6.544  11.195
  838W        W 4582   6.041   3.285   0.929
  839W        W 4583   5.615   6.748   1.926
  840W        W 4584   9.198   1.175   2.037
  841W        W 4585   7.115   4.723   0.234
  842W        W 4586   4.846   6.181   0.358
  843W        W 4587   1.085   9.675  11.301
  844W        W 4588   0.740   9.838   2.556
  845W        W 4589   4.775   4.719   0.420
  846W        W 4590   4.745   3.694   9.502
  847W        W 4591   2.224   7.359  11.752
  848W        W 4592   6.201   4.258  11.954
  849W        W 4593   9.898   9.979   3.299
  850W        W 4594   6.570   8.360  10.371
  851W        W 4595   2.890   2.682  10.301
  852W        W 4596   7.918   4.680   8.231
  853W        W 4597   3.351   5.746   2.833
  854W        W 4598   1.873   1.755   2.380
  855W        W 4599   3.101   6.473   2.200
  856W        W 4600   4.064   8.616  11.433
  857W        W 4601   3.344   8.546   1.453
  858W        W 4602   2.104   2.435   2.350
  859W        W 4603   7.749   2.476   9.991
  860W        W 4604   2.294   3.805   3.243
  861W        W 4605   6.675   7.065  11.434
  862W        W 4606   0.543   8.554   3.404
  863W        W 4607   2.760   6.016   0.068
  864W        W 4608   6.664   4.788   2.408
  865W        W 4609   1.306   7.274  11.659
  866W        W 4610   8.901   7.457  10.865
  867W        W 4611   1.169   9.296   3.105
  868W        W 4612   3.661   2.756  10.030
  869W        W 4613   8.068   6.458  10.710
  870W        W 4614   6.451   3.241   0.551
  871W        W 4615   8.641   3.599   2.054
  872W        W 4616   9.532   6.631   1.174
  873W        W 4617   4.183   9.812  10.956
  874W        W 4618   1.442   0.540   2.315
  875W        W 4619   7.884   3.287  10.485
  876W        W 4620   0.317   3.222   9.115
  877W        W 4621   1.755   5.079   3.243
  878W        W 4622   4.122   0.412  10.755
  879W        W 4623   2.598   6.563   2.160
  880W        W 4624   0.519   0.893   9.920
  881W        W 4625   7.533   9.973   1.036
  882W        W 4626   2.063   1.013  11.806
  883W        W 4627   7.454   4.966   9.817
  884W        W 4628   8.460   4.658  10.790
  885W        W 4629  10.054   0.923  10.605
  886W        W 4630   9.651   6.637   2.197
  887W        W 4631   9.374   6.127  10.736
  888W        W 4632   4.999   2.610   8.989
  889W        W 4633   8.445   4.538   8.900
  890W        W 4634   4.686   2.200  11.445
  891W        W 4635  10.250   7.983   1.435
  892W        W 4636   9.082   2.832   0.981
  893W        W 4637   6.565   5.124   0.878
  894W        W 4638   8.154   3.674   8.925
  895W        W 4639  10.405   3.262   9.421
  896W        W 4640   0.684   9.748  10.453
  897W        W 4641   0.884   0.950   1.225
  898W        W 4642   8.118   4.787  11.221
  899W        W 4643   9.410   9.428  10.478
  900W        W 4644   0.495   7.568   0.836
  901W        W 4645   3.997   7.690   1.283
  902W        W 4646   3.582  10.030   0.477
  903W        W 4647   4.731   1.734   8.948
  904W        W 4648   5.614   9.386  11.751
  905W        W 4649   4.266   3.626   0.667
  906W        W 4650   7.546   7.635  10.307
  907W        W 4651   0.798   8.026   2.437
  908W        W 4652   2.557   1.162  11.456
  909W        W 4653   0.937   9.127   1.900
  910W        W 4654   0.857   3.076   2.305
  911W        W 4655   8.034   9.307   3.179
  912W        W 4656   7.573   0.970   3.296
  913W        W 4657   8.541   0.507   0.609
  914W        W 4658   8.432   1.964  11.931
  915W        W 4659   6.976   1.473   0.412
  916W        W 4660   6.492   2.733   3.266
  917W        W 4661   2.227   9.363  11.272
  918W        W 4662   8.101   1.386   9.173
  919W        W 4663   1.710   7.212   8.885
  920W        W 4664   2.152   4.104  10.745
  921W        W 4665   6.517   0.728   0.403
  922W        W 4666   9.885   2.742  11.119
  923W        W 4667   6.403   6.812  10.549
  924W        W 4668   0.953   8.748  10.361
  925W        W 4669   3.523   0.954   1.329
  926W        W 4670   3.326   6.809   0.216
  927W        W 4671  10.019   7.347  11.861
  928W        W 4672   8.870   4.195  10.478
  929W        W 4673   7.032   6.965   9.978
  930W        W 4674   1.521   8.194  11.923
  931W        W 4675   9.064   9.488  11.831
  932W        W 4676   0.576   9.130  11.133
  933W        W 4677   5.461   6.652   4.065
  934W        W 4678   8.389  10.062   8.367
  935W        W 4679   0.573   4.835   0.541
  936W        W 4680   9.361   6.178   8.751
  937W        W 4681   6.617   3.763   1.418
  938W        W 4682   9.439   6.404  10.286
  939W        W 4683   4.382  10.357   2.887
  940W        W 4684   3.875   7.325   2.196
  941W        W 4685   8.424   0.726  11.358
  942W        W 4686   4.560   5.775  11.899
  943W        W 4687   8.735   9.280   2.150
  944W        W 4688   3.677   6.052   1.295
  945W        W 4689   8.312   9.447   0.882
  946W        W 4690   5.208   5.240   9.541
  947W        W 4691   7.909   4.066   1.128
  948W        W 4692   1.828   1.615   0.536
  949W        W 4693   5.113   5.227   0.822
  950W        W 4694   1.716   4.161   3.156
  951W        W 4695   3.292   8.378   9.526
  952W        W 4696   9.918   3.145   9.208
  953W        W 4697   6.095   2.462  10.363
  954W        W 4698   1.879   9.385  10.823
  955W        W 4699   5.614   6.496   2.367
  956W        W 4700   2.609   9.979   9.115
  957W        W 4701   0.992   9.053   2.416
  958W        W 4702   3.822   9.381  11.766
  959W        W 4703   2.677   8.060   3.320
  960W        W 4704   4.594   4.074   8.906
  961W        W 4705   3.686   7.579   3.451
  962W        W 4706   2.396   0.287  11.814
  963W        W 4707   5.667   8.030  11.304
  964W        W 4708   1.431   5.666   2.489
  965W        W 4709   5.263   0.955  11.347
  966W        W 4710   7.513   6.960   8.655
  967W        W 4711   2.905   3.192   8.915
  968W        W 4712   2.631   8.941   9.983
  969W        W 4713   5.651   7.566   8.859
  970W        W 4714   4.084   2.217   8.882
  971W        W 4715   5.959   6.797   9.499
  972W        W 4716   9.838  10.286  11.452
  973W        W 4717   4.233   0.325   2.731
  974W        W 4718   7.472   1.033   2.814
  975W        W 4719   4.285   8.616   2.749
  976W        W 4720   1.860   5.074   9.997
  977W        W 4721   8.879   4.538   2.018
  978W        W 4722   3.211   6.095   9.657
  979W        W 4723   9.010   0.837  11.415
  980W        W 4724   5.547   1.676  10.530
  981W        W 4725   2.790   8.076   1.776
  982W        W 4726   6.640   8.118   2.779
  983W        W 4727   6.657  10.028   1.017
  984W        W 4728   6.699   4.454   0.634
  985W        W 4729   4.823   9.823   0.888
  986W        W 4730  10.418   1.421   0.836
  987W        W 4731  10.313   4.701  11.374
  988W        W 4732   3.553   5.263   9.408
  989W        W 4733   5.458   4.340   1.664
  990W        W 4734   0.167   0.194   2.107
  991W        W 4735   0.878   7.171   3.623
  992W        W 4736   4.579   2.669   2.757
  993W        W 4737   1.165   6.109  10.851
  994W        W 4738   9.067   9.708   2.182
  995W        W 4739   8.800   9.874  11.517
  996W        W 4740   6.871   8.343   2.357
  997W        W 4741   0.229   9.215   2.426
  998W        W 4742   8.942   0.045  10.485
  999W        W 4743  10.294   3.250  11.362
 1000W        W 4744   2.332   2.099   2.062
 1001W        W 4745   7.831   3.302   1.125
 1002W        W 4746   0.787   0.512  11.567
 1003W        W 4747   5.107   4.619   3.187
 1004W        W 4748   2.285   7.836   0.369
 1005W        W 4749   9.870   9.266   2.597
 1006W        W 4750   4.046   3.947   9.143
 1007W        W 4751   5.344   7.899   2.654
 1008W        W 4752   6.584   5.707  11.727
 1009W        W 4753   5.944   2.237  10.778
 1010W        W 4754   5.695   8.563   0.715
 1011W        W 4755  10.308  10.023  11.786
 1012W        W 4756   1.696   9.042   9.125
 1013W        W 4757   2.743   2.762   3.493
 1014W        W 4758   7.439   1.333   1.703
 1015W        W 4759   1.194   1.867   1.601
 1016W        W 4760   3.143   6.124  11.767
 1017W        W 4761   7.927   9.140   0.784
 1018W        W 4762   3.533   7.694   1.646
 1019W        W 4763   3.678   4.699   8.219
 1020W        W 4764   7.093   4.736  10.387
 1021W        W 4765   9.396   3.740  10.154
 1022W        W 4766   8.562   5.690   3.070
 1023W        W 4767   3.998   4.438   1.557
 1024W        W 4768   9.166   3.579  11.352
 1025W        W 4769   9.538   6.350   0.161
 1026W        W 4770   2.620   2.626   3.020
 1027W        W 4771   9.324   7.828  11.500
 1028W        W 4772   8.377  10.186   0.198
 1029W        W 4773   5.548   0.008   8.868
 1030W        W 4774   5.789   9.872   9.587
 1031W        W 4775   1.333   0.769   9.523
 1032W        W 4776   1.255   5.098   3.016
 1033W        W 4777   5.657  10.384   1.969
 1034W        W 4778   5.754   0.662   1.310
 1035W        W 4779   1.850   8.590   3.170
 1036W        W 4780   1.143   1.024   3.601
 1037W        W 4781  10.447   1.775  10.108
 1038W        W 4782   2.310   3.656  11.078
 1039W        W 4783   8.878   5.743   2.655
 1040W        W 4784   8.116   9.273   9.831
 1041W        W 4785   5.214   3.532   1.740
 1042W        W 4786   1.894   8.462  10.146
 1043W        W 4787   5.586   3.696  11.957
 1044W        W 4788   8.326   3.318  10.819
 1045W        W 4789   6.563   8.545   9.833
 1046W        W 4790   2.786   0.377   9.781
 1047W        W 4791   7.551   0.281   2.267
 1048W        W 4792  10.239   5.100   3.211
 1049W        W 4793   1.323   5.938   3.390
 1050W        W 4794   4.587   1.882  11.047
 1051W        W 4795   4.275   3.317  11.261
 1052W        W 4796   8.248  10.227   8.840
 1053W        W 4797   9.738   4.025   1.699
 1054W        W 4798  10.174   5.994   8.998
 1055W        W 4799   2.564   4.516   8.749
 1056W        W 4800   6.671   7.549   1.751
 1057W        W 4801   5.784   6.198  11.513
 1058W        W 4802   6.863   5.150   9.514
 1059W        W 4803   0.918   3.568  10.818
 1060W        W 4804   4.069   0.203  11.220
 1061W        W 4805   9.996   3.230   9.742
 1062W        W 4806   0.807   7.959   2.981
 1063W        W 4807   1.363   9.980  10.605
 1064W        W 4808   0.592   0.513   9.137
 1065W        W 4809   7.105   1.073   8.933
 1066W        W 4810   0.756   2.660   2.954
 1067W        W 4811   8.700   7.306  11.849
 1068W        W 4812   7.138   3.375   8.929
 1069W        W 4813   4.433   0.006   2.393
 1070W        W 4814   7.845   5.179  11.433
 1071W        W 4815   9.563   7.125  10.991
 1072W        W 4816   4.137  10.078  10.032
 1073W        W 4817   6.990   6.097   9.611
 1074W        W 4818   0.117   7.467   9.573
 1075W        W 4819   7.070   4.697   4.259
 1076W        W 4820   7.460   0.863  10.896
 1077W        W 4821   5.255   8.293   0.486
 1078W        W 4822   4.758   9.322   0.925
 1079W        W 4823   9.284   1.671   1.946
 1080W        W 4824   5.151   8.963   1.959
 1081W        W 4825   3.631   8.573   8.916
 1082W        W 4826   6.942   0.178  11.822
 1083W        W 4827   9.916   1.875   1.443
 1084W        W 4828   7.575   5.404  11.001
 1085W        W 4829   8.670   6.820   1.469
 1086W        W 4830   5.781   4.644   1.372
 1087W        W 4831   5.094  10.441   1.549
 1088W        W 4832   8.350   6.214   2.183
 1089W        W 4833   6.134   3.688   1.707
 1090W        W 4834  10.389   1.267   2.688
 1091W        W 4835   3.560   2.738   1.852
 1092W        W 4836   5.262   8.992  11.458
 1093W        W 4837   1.755   7.166   9.812
 1094W        W 4838   9.846   7.048   2.991
 1095W        W 4839   3.685   9.605   0.210
 1096W        W 4840   6.866   2.230  10.688
 1097W        W 4841   9.422   1.206   9.978
 1098W        W 4842   5.351   0.433  10.585
 1099W        W 4843   3.280  10.180  10.898
 1100W        W 4844   8.148   8.391   0.307
 1101W        W 4845   6.473   3.344   2.773
 1102W        W 4846   4.626   7.874   2.325
 1103W        W 4847   2.320   8.356   1.388
 1104W        W 4848   6.077   9.674  10.466
 1105W        W 4849   6.088   1.038   0.169
 1106W        W 4850   3.281   0.515   2.766
 1107W        W 4851   3.900   4.663   2.717
 1108W        W 4852   2.856   3.570  11.742
 1109W        W 4853   5.285   1.350  10.999
 1110W        W 4854   2.939   4.595   9.610
 1111W        W 4855   6.254   1.358  10.537
 1112W        W 4856   3.207   4.570  11.552
 1113W        W 4857   6.571  10.228   0.549
 1114W        W 4858   9.867   1.396  10.686
 1115W        W 4859   0.137   8.319   0.376
 1116W        W 4860   3.413   3.659  10.374
 1117W        W 4861   0.180   6.181   9.858
 1118W        W 4862   4.957   5.631  10.269
 1119W        W 4863   6.167   6.501   1.221
 1120W        W 4864   5.641   3.133  11.145
 1121W        W 4865   4.680   9.104   9.147
 1122W        W 4866   9.523   9.588   0.038
 1123W        W 4867   4.994   4.524   1.853
 1124W        W 4868   1.746   6.017   9.914
 1125W        W 4869   2.205   9.493   9.851
 1126W        W 4870   0.364   2.767   1.156
 1127W        W 4871   2.973   5.933   0.550
 1128W        W 4872   2.247   0.928  10.560
 1129W        W 4873   0.183   1.672  11.074
 1130W        W 4874   3.565   1.709  11.993
 1131W        W 4875   9.967   6.158   1.364
 1132W        W 4876   8.080   7.228   8.643
 1133W        W 4877   5.977   7.473   1.512
 1134W        W 4878   3.706   3.528   1.460
 1135W        W 4879   8.471   5.908   9.573
 1136W        W 4880   0.995   5.894   9.383
 1137W        W 4881   2.817   8.884   2.158
 1138W        W 4882   4.811   3.154   2.705
 1139W        W 4883   9.894   6.014   0.003
 1140W        W 4884   5.009   4.207   8.649
 1141W        W 4885  10.395   7.241   0.206
 1142W        W 4886   9.573   7.050  11.932
 1143W        W 4887   7.582   5.777  11.917
 1144W        W 4888   3.718   1.429   9.353
 1145W        W 4889   0.789   7.039  10.583
 1146W        W 4890   9.186   1.741  10.809
 1147W        W 4891   8.937   3.315   1.086
 1148W        W 4892  10.316   0.470   0.704
 1149W        W 4893   0.281   6.968  10.252
 1150W        W 4894   8.415   5.040   9.623
 1151W        W 4895   0.243   2.781   3.053
 1152W        W 4896   4.410   9.518  10.124
 1153W        W 4897   7.899  10.201   9.554
 1154W        W 4898   2.681   5.671   1.728
 1155W        W 4899   7.188   7.014   0.208
 1156W        W 4900   5.449   7.262   3.712
 1157W        W 4901   8.378  10.480  11.774
 1158W        W 4902   6.464   1.395   9.611
 1159W        W 4903   1.796   4.276   0.625
 1160W        W 4904   9.901   8.895  11.548
 1161W        W 4905   3.517   7.545   1.161
 1162W        W 4906   1.752   3.139   2.969
 1163W        W 4907   6.980   6.045   0.956
 1164W        W 4908   0.491   2.095   0.916
 1165W        W 4909   7.148   9.303   3.255
 1166W        W 4910   2.674   1.934   9.911
 1167W        W 4911   3.706   8.862   0.898
 1168W        W 4912   1.357   0.869  10.529
 1169W        W 4913   9.971   5.697  10.302
 1170W        W 4914   8.753  10.033  10.517
 1171W        W 4915   3.124   9.807  11.347
 1172W        W 4916   1.828   5.751  11.234
 1173W        W 4917   0.995   1.366   3.264
 1174W        W 4918   9.530   7.048   3.442
 1175W        W 4919  10.332   9.849   1.674
 1176W        W 4920   5.745   7.016   2.362
 1177W        W 4921   7.413   5.605   9.098
 1178W        W 4922   2.847   4.818   2.806
 1179W        W 4923   9.490   3.571   3.360
 1180W        W 4924   9.554   4.505   0.417
 1181W        W 4925   5.677   1.322   8.738
 1182W        W 4926   7.051   3.971   2.403
 1183W        W 4927   5.641   3.751   1.971
 1184W        W 4928   7.687   3.827  11.866
 1185W        W 4929   7.169   2.656  10.621
 1186W        W 4930  10.422   4.374   0.777
 1187W        W 4931   7.186   1.230  11.858
 1188W        W 4932   2.923   2.966   8.433
 1189W        W 4933   5.545   2.228   8.794
 1190W        W 4934   8.179   1.925   2.815
 1191W        W 4935   3.313   0.502   2.240
 1192W        W 4936   7.944   7.386   2.686
 1193W        W 4937   0.275   1.346   9.836
 1194W        W 4938   2.351   1.867   8.606
 1195W        W 4939   0.630   8.898   0.934
 1196W        W 4940   6.185   6.005   1.043
 1197W        W 4941   9.083   3.737  10.558
 1198W        W 4942   4.263   1.167   0.847
 1199W        W 4943   2.652   3.807   0.627
 1200W        W 4944   7.890   5.104   0.211
 1201W        W 4945   7.843   8.285  11.330
 1202W        W 4946   7.929   6.605  11.694
 1203W        W 4947   1.218   7.325   3.059
 1204W        W 4948   1.440   6.504  11.010
 1205W        W 4949   7.593   7.876  11.058
 1206W        W 4950   1.631   2.723   3.235
 1207W        W 4951   6.051   1.959   0.739
 1208W        W 4952   2.170   8.572   2.295
 1209W        W 4953   6.904   7.864  10.000
 1210W        W 4954   1.389   5.572   9.443
 1211W        W 4955   1.866   5.908  10.407
 1212W        W 4956   1.738   7.714   8.755
 1213W        W 4957   7.185   1.480  11.323
 1214W        W 4958   2.277   3.786   8.889
 1215W        W 4959  10.012   3.812  10.274
 1216W        W 4960   0.026   9.369   1.402
 1217W        W 4961   9.847   5.518   9.820
 1218W        W 4962   7.643   9.446   8.581
 1219W        W 4963   3.171   2.765   9.353
 1220W        W 4964   7.291   4.424   0.599
 1221W        W 4965   2.960   7.553   8.626
 1222W        W 4966   4.034   7.945   3.364
 1223W        W 4967   3.542   3.163   3.264
 1224W        W 4968   8.198   4.683   0.166
 1225W        W 4969   5.593   1.673   2.512
 1226W        W 4970   3.131   4.092  10.812
 1227W        W 4971   9.522   0.703  11.596
 1228W        W 4972   5.650   8.463   0.212
 1229W        W 4973   2.150   7.336  11.240
 1230W        W 4974   4.589   5.024  10.803
 1231W        W 4975   3.743   1.322  10.377
 1232W        W 4976   2.256   8.350   9.021
 1233W        W 4977   8.960   0.024   1.851
 1234W        W 4978   6.036   5.810   9.571
 1235W        W 4979   0.792   9.985   3.554
 1236W        W 4980   5.717   9.573   3.002
 1237W        W 4981   9.433   1.752   1.457
 1238W        W 4982   3.520   1.711   0.803
 1239W        W 4983   6.967   0.265   9.502
 1240W        W 4984   9.495   0.951   0.895
 1241W        W 4985   9.380   9.580   2.960
 1242W        W 4986   9.322   5.104   9.218
 1243W        W 4987   1.506   7.769   2.929
 1244W        W 4988   2.189   5.795   2.342
 1245W        W 4989   6.182   6.455   3.849
 1246W        W 4990   5.243   3.786   2.303
 1247W        W 4991   0.507   8.286   9.503
 1248W        W 4992   6.224   2.719  10.774
 1249W        W 4993   4.968   3.745   7.863
 1250W        W 4994   4.279   3.898  10.343
 1251W        W 4995   7.376   6.805   3.686
 1252W        W 4996   5.384   7.081  10.561
 1253W        W 4997   5.992   8.382   9.539
 1254W        W 4998   7.165   7.353   0.651
 1255W        W 4999   5.088   0.699   2.134
 1256W        W 5000   4.755   2.707  10.756
 1257W        W 5001   3.330   2.811   0.260
 1258W        W 5002   7.957   0.963   8.869
 1259W        W 5003   5.987   3.907  10.204
 1260W        W 5004   2.191   5.767   8.983
 1261W        W 5005   2.779   4.698   1.943
 1262W        W 5006   9.713   7.145   1.440
 1263W        W 5007   8.568   3.366   3.369
 1264W        W 5008   5.002   7.982   9.766
 1265W        W 5009   1.691   4.694   9.696
 1266W        W 5010   9.131   8.190   9.232
 1267W        W 5011   7.446   5.220   3.617
 1268W        W 5012   6.485   7.359   2.733
 1269W        W 5013   4.553   8.130  10.022
 1270W        W 5014   4.502   9.681   8.547
 1271W        W 5015   7.806  10.423  11.944
 1272W        W 5016   4.133   1.403   0.391
 1273W        W 5017   1.254   6.459   0.298
 1274W        W 5018   8.106   8.910   0.331
 1275W        W 5019   0.157   6.831   8.620
 1276W        W 5020   4.607   5.026   2.672
 1277W        W 5021   9.359   2.440   9.969
 1278W        W 5022  10.154   0.435   9.893
 1279W        W 5023   1.824   1.661  10.049
 1280W        W 5024   1.292   2.190   1.174
 1281W        W 5025   7.935   8.822   3.347
 1282W        W 5026  10.277   6.487   9.649
 1283W        W 5027   0.464   3.461  10.600
 1284W        W 5028   7.047   5.376   0.775
 1285W        W 5029   5.601   9.408   1.466
 1286W        W 5030   3.506   8.351   3.300
 1287W        W 5031   7.470   5.024   0.474
 1288W        W 5032   7.257   9.294   1.855
 1289W        W 5033   9.105   1.341   0.218
 1290W        W 5034   2.837   4.033   3.286
 1291W        W 5035   9.757   0.487   1.907
 1292W        W 5036   1.828   5.563   0.253
 1293W        W 5037   3.100  10.474   9.634
 1294W        W 5038   1.835  10.328  11.522
 1295W        W 5039  10.294   1.924   2.019
 1296W        W 5040   6.875   7.607   1.230
 1297W        W 5041   6.485   3.540  10.742
 1298W        W 5042   8.739  10.428   9.458
 1299W        W 5043   3.216   5.996   2.334
 1300W        W 5044   4.467   4.616   0.824
 1301W        W 5045  10.494   5.433   2.344
 1302W        W 5046   3.076   0.681   3.241
 1303W        W 5047   6.713   5.557  10.846
 1304W        W 5048   8.906   7.640   0.363
 1305W        W 5049   8.422   8.614   3.301
 1306W        W 5050   2.403   0.301   9.411
 1307W        W 5051   8.366   1.824   0.419
 1308W        W 5052   0.807   2.414   8.573
 1309W        W 5053   0.684   4.153   2.230
 1310W        W 5054   6.931   2.279   8.830
 1311W        W 5055   4.649   7.088   1.653
 1312W        W 5056   0.374   6.416  11.911
 1313W        W 5057   3.190   7.644   3.279
 1314W        W 5058   4.149   7.878   9.784
 1315W        W 5059   2.526   9.591   8.784
 1316W        W 5060   7.669   6.529   1.561
 1317W        W 5061   6.847   2.318  11.738
 1318W        W 5062   1.166   7.557  11.256
 1319W        W 5063   4.608   9.942   2.701
 1320W        W 5064   7.749   6.038   4.125
 1321W        W 5065   4.846   1.322  11.249
 1322W        W 5066   6.569   5.857   2.740
 1323W        W 5067   9.914   7.469   1.816
 1324W        W 5068   6.485   0.975   9.307
 1325W        W 5069   2.385   1.453   9.025
 1326W        W 5070   4.772   6.510   1.817
 1327W        W 5071   4.620   6.150  10.375
 1328W        W 5072   6.977   9.439   1.443
 1329W        W 5073   4.150   4.698   9.965
 1330W        W 5074   2.706   3.217  10.864
 1331W        W 5075   4.194   0.346   1.188
 1332W        W 5076   7.698   8.313   0.527
 1333W        W 5077   9.357   0.229   9.563
 1334W        W 5078   2.813   1.451   9.815
 1335W        W 5079   3.192   4.097  11.313
 1336W        W 5080   7.421   9.754   0.457
 1337W        W 5081   1.231   6.523   1.695
 1338W        W 5082  10.431   0.162   1.148
 1339W        W 5083   8.856   3.167   9.547
 1340W        W 5084   6.073   7.376   3.063
 1341W        W 5085   5.088   7.414  10.077
 1342W        W 5086   7.714   7.312   9.943
 1343W        W 5087   3.820   2.252   1.776
 1344W        W 5088   2.583   3.173  11.948
 1345W        W 5089   3.937   2.624   8.580
 1346W        W 5090   7.898   7.040   9.542
 1347W        W 5091   3.868   3.640  11.043
 1348W        W 5092   6.083   0.371   0.809
 1349W        W 5093   2.187   4.373   8.429
 1350W        W 5094   6.223   0.037  10.833
 1351W        W 5095   7.523   2.927   2.296
 1352W        W 5096   5.554   4.364  11.412
 1353W        W 5097   8.162   5.811   3.890
 1354W        W 5098   9.004   7.701   9.306
 1355W        W 5099   4.719   7.234   9.478
 1356W        W 5100   7.907   1.172   1.924
 1357W        W 5101   7.862   8.352   9.834
 1358W        W 5102   3.705   1.404   1.499
 1359W        W 5103   7.423   7.428  11.264
 1360W        W 5104   6.573   6.872   2.719
 1361W        W 5105   8.474   4.556   3.143
 1362W        W 5106   7.788   5.090   7.975
 1363W        W 5107   4.575  10.350  10.052
 1364W        W 5108   5.775   4.630   2.939
 1365W        W 5109   9.702  10.477   1.266
 1366W        W 5110  10.080   0.514  11.819
 1367W        W 5111   5.104   6.148  11.047
 1368W        W 5112   2.329   6.224   3.776
 1369W        W 5113   1.940   1.118   8.830
 1370W        W 5114   1.811   3.200  10.992
 1371W        W 5115   4.084   2.373   0.459
 1372W        W 5116   9.310   0.523   8.670
 1373W        W 5117   2.925   4.029   2.357
 1374W        W 5118   8.951   2.707  10.740
 1375W        W 5119   4.476   6.773  11.814
 1376W        W 5120   0.136   9.307  11.292
 1377W        W 5121  10.319   6.389   2.524
 1378W        W 5122   5.822   7.679   1.955
 1379W        W 5123   2.693   9.911   3.204
 1380W        W 5124   8.383   4.166   9.557
 1381W        W 5125   5.727   8.313   1.153
 1382W        W 5126   4.721   3.235   9.696
 1383W        W 5127   2.630   1.212  10.274
 1384W        W 5128   7.795  10.361   1.260
 1385W        W 5129   8.293   0.246   0.223
 1386W        W 5130   7.071   8.783   3.322
 1387W        W 5131   7.842   9.371   2.663
 1388W        W 5132   2.266   9.845   1.413
 1389W        W 5133   5.999   2.964  10.341
 1390W        W 5134   7.181   7.842   1.648
 1391W        W 5135   1.707   2.650   9.532
 1392W        W 5136   5.427   0.855  10.874
 1393W        W 5137   9.816   0.777   3.250
 1394W        W 5138   1.263   0.535  11.399
 1395W        W 5139   8.572   1.743   1.380
 1396W        W 5140   2.433   2.196   9.543
 1397W        W 5141   1.941   3.310   1.510
 1398W        W 5142   5.714   8.219   2.736
 1399W        W 5143   1.005   2.333   9.576
 1400W        W 5144   0.699   2.881  11.416
 1401W        W 5145   7.687   1.988  10.270
 1402W        W 5146   5.442   0.824   3.106
 1403W        W 5147   3.947   5.632  10.206
 1404W        W 5148   2.910   4.535  10.978
 1405W        W 5149   8.953   6.205   2.844
 1406W        W 5150   5.568   2.040   0.979
 1407W        W 5151   1.617   8.056  10.062
 1408W        W 5152   2.665   7.010   3.463
 1409W        W 5153   7.612   1.295   3.668
 1410W        W 5154   2.824   3.746   1.946
 1411W        W 5155  10.350   3.070   8.927
 1412W        W 5156   9.100   6.663   2.658
 1413W        W 5157   1.210   3.321   0.235
 1414W        W 5158   5.503   0.900   8.484
 1415W        W 5159   3.577   3.222  10.667
 1416W        W 5160   1.427   2.260   9.316
 1417W        W 5161   0.451   6.881  10.936
 1418W        W 5162   2.139   7.679   1.187
 1419W        W 5163   1.334   4.316   9.002
 1420W        W 5164   2.570   2.672   0.843
 1421W        W 5165   9.087   5.557   9.258
 1422W        W 5166   0.288   4.132  11.931
 1423W        W 5167   2.408   0.880   1.951
 1424W        W 5168   2.376   6.093   9.797
 1425W        W 5169   5.010   3.784   9.047
 1426W        W 5170   8.897   5.296   0.435
 1427W        W 5171   6.210   5.489   0.074
 1428W        W 5172   1.450   5.102   1.973
 1429W        W 5173   0.250   0.559   0.984
 1430W        W 5174   6.154   8.379  10.076
 1431W        W 5175   0.320   0.385  11.367
 1432W        W 5176   9.490   4.149   0.060
 1433W        W 5177   7.979   8.754   1.692
 1434W        W 5178  10.268   8.401   3.180
 1435W        W 5179   4.821   4.565   1.362
 1436W        W 5180   0.945   0.331   0.319
 1437W        W 5181   8.896   9.837   3.186
 1438W        W 5182   1.073  10.360   0.179
 1439W        W 5183   7.993   4.628   2.410
 1440W        W 5184  10.366  10.077   9.068
 1441W        W 5185   8.886   5.598   9.738
 1442W        W 5186   8.840   9.048  11.972
 1443W        W 5187   4.778   1.221   0.730
 1444W        W 5188   7.968   6.504   2.643
 1445W        W 5189   5.434   2.147  10.730
 1446W        W 5190   4.209   5.855  10.631
 1447W        W 5191   2.202   2.190  11.133
 1448W        W 5192   5.231   4.266   3.612
 1449W        W 5193   3.699   5.891   2.222
 1450W        W 5194   1.729   9.580   8.955
 1451W        W 5195   5.268   0.059  10.962
 1452W        W 5196   6.119   9.900   2.949
 1453W        W 5197   2.162   6.538   1.898
 1454W        W 5198   8.164   5.753   8.448
 1455W        W 5199   1.641   4.600   0.262
 1456W        W 5200   7.630   3.280  11.930
 1457W        W 5201   2.840   5.751  10.388
 1458W        W 5202   6.651   6.633   3.156
 1459W        W 5203   6.808   2.075  10.201
 1460W        W 5204   5.716   3.750   2.479
 1461W        W 5205   5.181   1.756   0.829
 1462W        W 5206   3.803   3.547   9.385
 1463W        W 5207  10.219   6.039   0.919
 1464W        W 5208   4.219   1.421   9.576
 1465W        W 5209   2.991   0.870   2.409
 1466W        W 5210   3.564   0.137  11.287
 1467W        W 5211   4.647   0.315   9.858
 1468W        W 5212   1.749   3.114   2.467
 1469W        W 5213   1.010   8.346   0.433
 1470W        W 5214   3.542   6.703   8.671
 1471W        W 5215   2.264   5.483   0.000
 1472W        W 5216   6.439   5.285   2.593
 1473W        W 5217   2.335   0.227   3.414
 1474W        W 5218   7.548   1.495   0.715
 1475W        W 5219   9.732  10.121  10.336
 1476W        W 5220   9.598   2.248   1.242
 1477W        W 5221   1.787   7.272  10.342
 1478W        W 5222   0.757   4.279   3.219
 1479W        W 5223   1.675   7.621  11.312
 1480W        W 5224   8.535   5.293   1.276
 1481W        W 5225   5.712   7.119   4.124
 1482W        W 5226   4.527   8.118   8.969
 1483W        W 5227   9.789   7.650   9.388
 1484W        W 5228   4.987   7.908   8.808
 1485W        W 5229   8.742   5.829   0.970
 1486W        W 5230   3.277   6.342   1.451
 1487W        W 5231   6.853   8.103   8.887
 1488W        W 5232   8.989   3.356   1.590
 1489W        W 5233   9.497   4.720  10.959
 1490W        W 5234   2.718   4.649   0.709
 1491W        W 5235   9.850   2.218   0.171
 1492W        W 5236  10.372   6.106   0.274
 1493W        W 5237   3.150   5.651   1.928
 1494W        W 5238   7.880   7.165  10.423
 1495W        W 5239   6.152   0.525  10.749
 1496W        W 5240   7.854   9.751  11.445
 1497W        W 5241   3.952   8.411   3.092
 1498W        W 5242   0.260   8.559   9.135
 1499W        W 5243   5.312   4.494   1.197
 1500W        W 5244   8.478   6.367   1.268
 1501W        W 5245   7.505   9.517   3.576
 1502W        W 5246   3.708  10.075   9.115
 1503W        W 5247   8.515   0.996   2.919
 1504W        W 5248   4.267   1.486  11.094
 1505W        W 5249   3.561   4.321   0.422
 1506W        W 5250   4.527   6.958   0.630
 1507W        W 5251   8.441   9.002   2.510
 1508W        W 5252   2.067   7.709   2.144
 1509W        W 5253   8.479   8.273  11.948
 1510W        W 5254   1.779   2.113   2.785
 1511W        W 5255   5.661   1.293   0.250
 1512W        W 5256   7.031   7.580   3.587
 1513W        W 5257   0.194   5.940  11.889
 1514W        W 5258   9.429   5.044   1.249
 1515W        W 5259   4.261   1.110   9.987
 1516W        W 5260   0.003   8.413  10.987
 1517W        W 5261   9.344   0.547  10.467
 1518W        W 5262   3.150   6.975   2.157
 1519W        W 5263   7.674   4.226   8.277
 1520W        W 5264   1.461   5.492  11.464
 1521W        W 5265   5.112  10.489   3.368
 1522W        W 5266   9.542   5.451   0.946
 1523W        W 5267   9.044   5.811   3.163
 1524W        W 5268   8.771   7.037   2.774
 1525W        W 5269   3.765   8.633   2.662
 1526W        W 5270   2.740  10.425  11.589
 1527W        W 5271   3.503   2.772  10.957
 1528W        W 5272   7.288   2.322   9.752
 1529W        W 5273   3.225   9.227   3.600
 1530W        W 5274  10.330   6.220   3.021
 1531W        W 5275   1.834   3.715  10.892
 1532W        W 5276   7.485   6.121   9.415
 1533W        W 5277   6.026   7.433   2.561
 1534W        W 5278   5.621   8.311   3.632
 1535W        W 5279   2.230   5.789   1.456
 1536W        W 5280   5.540   6.852   0.404
 1537W        W 5281   3.264   1.154   3.374
 1538W        W 5282  10.352   6.476   9.113
 1539W        W 5283   6.773   8.469   0.293
 1540W        W 5284   9.821   5.237  10.461
 1541W        W 5285   4.469   7.539   1.465
 1542W        W 5286   3.674   6.671   9.164
 1543W        W 5287   1.473   5.564   2.984
 1544W        W 5288   5.593   3.095   9.387
 1545W        W 5289   7.551   8.890   1.951
 1546W        W 5290  10.171   6.002   9.873
 1547W        W 5291   9.844   6.015   8.589
 1548W        W 5292   6.117   9.882   9.982
 1549W        W 5293   9.864   3.272  11.130
 1550W        W 5294   6.090   6.476  11.812
 1551W        W 5295   4.501   7.490   1.983
 1552W        W 5296   2.379   7.582  10.104
 1553W        W 5297   4.472   7.248  11.079
 1554W        W 5298   5.618   1.292   9.252
 1555W        W 5299   7.247   4.458   9.004
 1556W        W 5300   7.676   6.953   0.334
 1557W        W 5301  10.326   4.962   2.484
 1558W        W 5302   8.950   6.229   3.457
 1559W        W 5303   8.092   1.269  11.468
 1560W        W 5304   6.767   5.690   9.837
 1561W        W 5305   1.552   1.844   1.977
 1562W        W 5306   4.872   5.626   9.405
 1563W        W 5307   5.118   1.208   2.995
 1564W        W 5308   3.592   3.725   8.937
 1565W        W 5309   7.483   6.755  11.883
 1566W        W 5310   5.679   2.806   1.586
 1567W        W 5311   3.706   5.883   3.164
 1568W        W 5312   6.115   5.933  11.818
 1569W        W 5313   2.840   0.735  11.482
 1570W        W 5314   7.367   2.364  11.763
 1571W        W 5315   5.292   9.315   2.945
 1572W        W 5316   9.677   5.453   9.305
 1573W        W 5317   2.140   8.033  10.113
 1574W        W 5318   7.994   4.434   3.923
 1575W        W 5319   9.568   0.479   0.594
 1576W        W 5320   4.590   0.738   0.827
 1577W        W 5321   2.204   4.072   0.869
 1578W        W 5322   1.345   9.395  11.633
 1579W        W 5323   1.052   8.380  10.713
 1580W        W 5324   1.606   0.761   0.798
 1581W        W 5325   7.836   1.162   2.464
 1582W        W 5326   9.196   5.584   3.600
 1583W        W 5327   1.859   9.238   0.341
 1584W        W 5328   9.974   0.366   2.854
 1585W        W 5329   1.344   8.409   9.257
 1586W        W 5330   8.851   0.790   9.029
 1587W        W 5331   6.551   5.037  11.055
 1588W        W 5332   8.974   7.921   3.368
 1589W        W 5333   5.420   7.106   8.762
 1590W        W 5334   1.799   8.076   9.128
 1591W        W 5335   6.360   2.427  11.933
 1592W        W 5336   1.232   1.143   0.029
 1593W        W 5337   3.354   8.739   0.442
 1594W        W 5338   5.712   0.190  11.454
 1595W        W 5339   7.110   6.599   1.504
 1596W        W 5340   8.014   7.673  10.627
 1597W        W 5341   9.266   2.382  10.472
 1598W        W 5342   9.873   6.160   2.326
 1599W        W 5343   7.245   2.921   0.907
 1600W        W 5344   0.960   5.162   0.585
 1601W        W 5345  10.348   4.525   1.262
 1602W        W 5346   3.565   3.649   9.823
 1603W        W 5347   8.958   3.588   0.277
 1604W        W 5348   6.026   5.200  10.128
 1605W        W 5349   9.762   8.156  10.723
 1606W        W 5350   8.876   4.365   2.561
 1607W        W 5351   7.401   6.583   1.968
 1608W        W 5352   1.303   5.750   9.934
 1609W        W 5353   0.021   8.767   2.258
 1610W        W 5354   7.599   8.108   1.450
 1611W        W 5355   6.949   4.540  11.808
 1612W        W 5356   5.503   6.231   2.790
 1613W        W 5357   8.196   0.673   9.690
 1614W        W 5358   6.014   9.178   1.743
 1615W        W 5359   5.313   9.888   0.888
 1616W        W 5360   7.658   9.562  11.013
 1617W        W 5361   7.090   3.595   2.060
 1618W        W 5362   4.717   3.627   0.928
 1619W        W 5363   8.508   1.488   9.957
 1620W        W 5364   8.424   3.791   2.466
 1621W        W 5365   2.518   1.651   0.886
 1622W        W 5366   4.127   6.580   9.376
 1623W        W 5367   3.357   2.302   9.620
 1624W        W 5368   9.640   3.469  11.560
 1625W        W 5369   6.132   0.316   1.357
 1626W        W 5370   5.209   3.923   9.510
 1627W        W 5371   4.889   9.043   2.853
 1628W        W 5372   3.324   7.515   3.787
 1629W        W 5373   9.445   9.754   1.802
 1630W        W 5374   1.673  10.388   2.920
 1631W        W 5375   8.522   2.779   9.469
 1632W        W 5376   4.116   4.128   1.945
 1633W        W 5377   1.336   9.401   9.253
 1634W        W 5378   2.820   7.358   0.493
 1635W        W 5379   8.959   3.147  11.023
 1636W        W 5380   5.057  10.490   0.286
 1637W        W 5381   1.240   2.760   1.464
 1638W        W 5382   8.531   5.542  10.555
 1639W        W 5383   2.678   6.028   2.912
 1640W        W 5384   0.216   2.721   9.120
 1641W        W 5385   6.967   6.047   3.574
 1642W        W 5386   4.457   5.669  10.231
 1643W        W 5387   4.319   1.381   3.511
 1644W        W 5388   4.078   6.141   2.894
 1645W        W 5389   7.172   3.207  11.695
 1646W        W 5390   5.936   5.626  10.414
 1647W        W 5391   1.352   6.870   2.848
 1648W        W 5392   0.923   2.694  10.182
 1649W        W 5393   7.227   3.702   2.877
 1650W        W 5394   4.985   5.178   0.327
 1651W        W 5395   7.043   0.373   1.681
 1652W        W 5396   6.031   2.445   2.209
 1653W        W 5397   5.590   2.446   1.948
 1654W        W 5398   7.840   5.662   8.816
 1655W        W 5399   2.162   7.780  11.465
 1656W        W 5400   8.512   0.662   1.532
 1657W        W 5401   5.506  10.234  11.459
 1658W        W 5402   4.782   8.082  11.697
 1659W        W 5403   4.592   5.933   1.186
 1660W        W 5404  10.371   3.132   2.919
 1661W        W 5405   1.926   1.371   9.266
 1662W        W 5406   4.750   3.650  10.496
 1663W        W 5407   0.512   5.233   0.895
 1664W        W 5408   0.544   9.346   0.701
 1665W        W 5409   9.816   2.347   9.782
 1666W        W 5410   2.730   7.897   2.833
 1667W        W 5411   1.234   6.574   2.203
 1668W        W 5412   0.875   9.502   8.526
 1669W        W 5413   6.136   1.048  11.440
 1670W        W 5414   2.213   6.822   2.407
 1671W        W 5415   2.116   4.317   0.133
 1672W        W 5416   0.394   6.506   8.940
 1673W        W 5417   3.950   3.239   3.577
 1674W        W 5418   5.472   3.383   3.643
 1675W        W 5419   4.702   1.274   2.619
 1676W        W 5420   5.171   1.213   1.490
 1677W        W 5421   3.916   8.941   3.047
 1678W        W 5422   1.593   9.179  10.452
 1679W        W 5423   1.109   8.475   1.412
 1680W        W 5424   6.199   1.395   2.314
 1681W        W 5425   3.796   2.826   0.545
 1682W        W 5426   7.566   3.100   9.178
 1683W        W 5427   1.353   2.467  11.582
 1684W        W 5428   5.111   2.231   0.624
 1685W        W 5429   6.356   7.305  10.442
 1686W        W 5430   9.816   1.795  11.457
 1687W        W 5431   1.012   1.437   1.406
 1688W        W 5432   6.388   1.986   1.552
 1689W        W 5433   5.667   8.511   3.161
 1690W        W 5434   4.231   6.721   2.379
 1691W        W 5435   2.278   0.788   2.930
 1692W        W 5436   5.651   3.279   1.776
 1693W        W 5437   7.355   6.900   0.710
 1694W        W 5438   4.473   2.193   0.061
 1695W        W 5439   2.714   5.669  11.255
 1696W        W 5440   7.605   4.086   3.029
 1697W        W 5441  10.244   5.733  11.789
 1698W        W 5442   8.052   1.666  11.796
 1699W        W 5443   5.673   3.173   3.231
 1700W        W 5444   7.899   1.950  10.750
 1701W        W 5445   2.098   4.197   1.836
 1702W        W 5446   5.526  10.267   0.395
 1703W        W 5447   2.219  10.442   9.747
 1704W        W 5448   5.241   2.045   2.683
 1705W        W 5449   2.313   5.150   0.383
 1706W        W 5450   4.776   7.156   8.988
 1707W        W 5451   2.840   9.037   8.997
 1708W        W 5452  10.085   9.397   1.685
 1709W        W 5453   6.960   6.564   0.030
 1710W        W 5454   5.657   2.200   0.491
 1711W        W 5455   9.671   1.790  10.962
 1712W        W 5456   5.579   7.302   1.221
 1713W        W 5457   0.282   4.718   0.945
 1714W        W 5458   9.878   8.059  11.208
 1715W        W 5459   7.348   9.684  11.500
 1716W        W 5460   4.164   9.132   0.722
 1717W        W 5461   9.263   5.471   0.093
 1718W        W 5462   4.630   8.229   2.706
 1719W        W 5463   0.249   2.870  10.883
 1720W        W 5464   6.409   2.474   0.849
 1721W        W 5465   3.321   0.740  10.021
 1722W        W 5466   2.793   1.415  11.864
 1723W        W 5467   0.671   5.083   2.746
 1724W        W 5468  10.263   3.155   0.352
 1725W        W 5469   2.687   7.231   9.791
 1726W        W 5470   2.917   9.021  10.479
 1727W        W 5471   2.845   6.968   0.145
 1728W        W 5472   7.672   7.972   0.955
 1729W        W 5473   0.760  10.024   2.061
 1730W        W 5474   3.945   5.208  11.448
 1731W        W 5475   6.184   2.404   1.341
 1732W        W 5476  10.251   6.484  10.623
 1733W        W 5477   6.262   8.551   0.338
 1734W        W 5478   4.154   6.869   0.249
 1735W        W 5479   2.151   6.102  10.770
 1736W        W 5480   2.632   5.531   2.220
 1737W        W 5481  10.491   7.000  10.733
 1738W        W 5482   5.097   3.117  10.887
 1739W        W 5483   3.066   1.851   1.719
 1740W        W 5484   7.439   7.154   2.721
 1741W        W 5485   6.076   3.378   2.414
 1742W        W 5486   0.278   6.200  11.445
 1743W        W 5487   7.538   8.616   1.458
 1744W        W 5488   9.112   7.091   2.382
 1745W        W 5489   8.690   4.812   0.370
 1746W        W 5490   1.162   7.543   9.358
 1747W        W 5491   4.340   9.984   0.937
 1748W        W 5492   2.485   9.905  11.935
 1749W        W 5493   4.142   2.247   1.392
 1750W        W 5494   7.713   4.821  11.776
 1751W        W 5495   9.153   3.495   2.953
 1752W        W 5496   2.796   6.111   9.008
 1753W        W 5497   0.495   7.351   0.354
 1754W        W 5498   1.503   1.947   9.733
 1755W        W 5499   9.126   7.522   0.798
 1756W        W 5500  10.308   0.785   2.838
 1757W        W 5501   4.970   3.335   1.335
 1758W        W 5502   2.314   3.500  11.607
 1759W        W 5503   9.829   1.412   2.606
 1760W        W 5504   4.983   1.257   9.017
 1761W        W 5505   4.309   3.725   2.193
 1762W        W 5506   9.846   8.362  11.832
 1763W        W 5507   7.423   4.058   1.644
 1764W        W 5508   2.628   3.615   2.392
 1765W        W 5509   4.605   7.244   3.425
 1766W        W 5510   3.267   1.394   9.587
 1767W        W 5511   0.381   8.065   9.044
 1768W        W 5512   8.358   7.010   3.117
 1769W        W 5513   5.886   8.913   8.822
 1770W        W 5514   3.532   6.420  11.929
 1771W        W 5515   2.437   5.225  11.159
 1772W        W 5516   2.920   9.905   1.279
 1773W        W 5517   3.529   4.523   1.377
 1774W        W 5518   6.998  10.466  11.350
 1775W        W 5519   2.888   7.642  10.075
 1776W        W 5520   9.409   2.633   2.019
 1777W        W 5521   5.143   8.307  10.566
 1778W        W 5522   2.713   8.621   8.654
 1779W        W 5523   0.585   3.530   1.618
 1780W        W 5524   5.486   4.702  10.131
 1781W        W 5525   2.274   7.260   2.722
 1782W        W 5526   4.096   6.693   8.853
 1783W        W 5527   5.339   7.995   1.256
 1784W        W 5528   0.070   5.720  11.405
 1785W        W 5529   7.510   0.727   9.002
 1786W        W 5530   5.498   2.651   9.136
 1787W        W 5531   5.702   9.550   0.941
 1788W        W 5532   3.031   2.227   1.367
 1789W        W 5533   8.883   8.557  11.843
 1790W        W 5534   3.293   1.480  11.097
 1791W        W 5535   2.851   6.240  10.500
 1792W        W 5536   8.476   1.966   4.017
 1793W        W 5537   1.149   6.970   0.402
 1794W        W 5538   5.970   6.966   1.368
 1795W        W 5539   2.108   4.281   2.867
 1796W        W 5540   7.130   8.179   1.255
 1797W        W 5541   5.716   5.601  10.914
 1798W        W 5542   4.183   2.834   0.190
 1799W        W 5543   5.964   1.185   1.892
 1800W        W 5544   6.146   6.159   0.267
 1801W        W 5545   5.208   2.873   0.259
 1802W        W 5546  10.493   2.121  11.065
 1803W        W 5547   3.124   2.745  11.301
 1804W        W 5548   6.605   1.883   2.545
 1805W        W 5549   9.858   9.867   1.432
 1806W        W 5550   4.859   9.861  11.691
 1807W        W 5551   7.419   7.293  11.786
 1808W        W 5552   6.043   1.631   9.296
 1809W        W 5553   9.457   8.487   2.259
 1810W        W 5554   3.888   3.642  10.532
 1811W        W 5555   4.915   7.498  11.100
 1812W        W 5556   3.684   9.535   1.495
 1813W        W 5557   3.616   2.673   2.997
 1814W        W 5558   5.165   3.410   9.405
 1815W        W 5559   4.587   6.901   1.191
 1816W        W 5560  10.494   9.124  11.896
 1817W        W 5561   1.903   0.382   9.458
 1818W        W 5562   3.576   9.011   1.380
 1819W        W 5563   6.148   0.632   9.518
 1820W        W 5564   2.056   3.774   1.279
 1821W        W 5565   3.542   2.240   1.347
 1822W        W 5566   5.560   6.057   9.727
 1823W        W 5567   4.196   9.141   9.823
 1824W        W 5568   5.763  10.063   0.816
 1825W        W 5569   8.586   8.573   2.289
 1826W        W 5570   7.049   0.987  11.402
 1827W        W 5571   9.548   2.684   2.512
 1828W        W 5572   0.133   4.077   2.341
 1829W        W 5573   1.692   2.371   9.977
 1830W        W 5574   6.215   7.475   9.987
 1831W        W 5575   6.577   4.536   0.133
 1832W        W 5576   7.665   7.511   2.250
 1833W        W 5577  10.204   2.344   2.312
 1834W        W 5578   6.506   2.805   9.476
 1835W        W 5579   7.537   3.942   0.737
 1836W        W 5580   4.726   0.250   2.919
 1837W        W 5581   8.655   1.747   2.776
 1838W        W 5582   4.072   6.473  11.942
 1839W        W 5583   8.853   7.078   3.267
 1840W        W 5584   6.881   6.798   0.548
 1841W        W 5585   2.774   9.414   1.396
 1842W        W 5586   4.409   4.579   2.782
 1843W        W 5587   7.914   2.787   0.363
 1844W        W 5588   6.136   8.949   2.455
 1845W        W 5589   5.039  10.418  11.426
 1846W        W 5590   1.711   3.788   0.759
 1847W        W 5591   2.179   2.614   9.757
 1848W        W 5592   5.636   7.025   3.272
 1849W        W 5593   0.687   4.876   9.537
 1850W        W 5594   1.264   9.552   2.126
 1851W        W 5595   3.867   7.096   3.262
 1852W        W 5596   6.951   3.284   0.688
 1853W        W 5597   4.340   4.711   1.313
 1854W        W 5598  10.221   8.323  10.514
 1855W        W 5599   8.832   5.092   9.031
 1856W        W 5600   0.994   7.907   8.639
 1857W        W 5601   3.678   4.928   2.321
 1858W        W 5602   1.392   4.102  11.480
 1859W        W 5603   7.918   9.067  11.874
 1860W        W 5604   7.164   9.787   1.753
 1861W        W 5605  10.425   9.941   3.234
 1862W        W 5606   8.466   4.666   2.642
 1863W        W 5607   0.279   2.752   1.675
 1864W        W 5608  10.395   1.125   1.888
 1865W        W 5609   9.734   8.750   1.025
 1866W        W 5610   6.983   1.655   3.430
 1867W        W 5611   2.084   2.720  10.955
 1868W        W 5612   0.392   0.448   3.424
 1869W        W 5613   4.538   6.768  11.271
 1870W        W 5614   5.179   3.510   2.719
 1871W        W 5615   3.662   6.245   9.441
 1872W        W 5616   1.691   2.692   2.205
 1873W        W 5617   9.525   5.653   3.188
 1874W        W 5618   5.839   3.794   8.601
 1875W        W 5619   3.049   0.949   1.140
 1876W        W 5620   5.161   9.264  10.762
 1877W        W 5621   8.532   8.144   2.559
 1878W        W 5622   5.916   2.978   9.778
 1879W        W 5623   0.178   5.608   2.832
 1880W        W 5624   2.331   4.193   1.373
 1881W        W 5625   6.598   2.004   0.814
 1882W        W 5626   1.814   9.878  10.984
 1883W        W 5627   0.711   8.039   1.023
 1884W        W 5628  10.380   2.698   9.859
 1885W        W 5629   1.714   1.786  11.588
 1886W        W 5630   0.942   7.804   1.922
 1887W        W 5631   1.252   3.755   0.522
 1888W        W 5632   6.294   2.627   9.909
 1889W        W 5633   0.810   1.867  10.271
 1890W        W 5634   8.309   6.102   0.862
 1891W        W 5635   1.850   8.118   1.256
 1892W        W 5636   4.847   4.016   9.874
 1893W        W 5637   9.305   0.707   1.851
 1894W        W 5638  10.494   7.047   3.162
 1895W        W 5639   3.190   5.645  11.999
 1896W        W 5640   5.743   7.729   2.883
 1897W        W 5641   1.742   3.993   8.913
 1898W        W 5642   9.374   9.990   3.275
 1899W        W 5643   7.494   8.675  10.018
 1900W        W 5644   3.801   7.346   0.795
 1901W        W 5645   8.523   0.450   9.284
 1902W        W 5646   3.607   6.036   0.689
 1903W        W 5647   2.838   7.184   8.942
 1904W        W 5648   6.122   4.425   9.466
 1905W        W 5649   3.429   2.767   8.503
 1906W        W 5650   3.206   1.836  11.455
 1907W        W 5651   9.470   5.264   1.727
 1908W        W 5652  10.261   7.604   9.203
 1909W        W 5653   3.840   6.117   0.229
 1910W        W 5654   6.445   2.340   2.464
 1911W        W 5655   4.991   6.253   9.067
 1912W        W 5656   5.690   4.068   0.706
 1913W        W 5657   1.198   7.900   0.291
 1914W        W 5658   4.430  10.455   9.572
 1915W        W 5659   0.515   8.339  10.809
 1916W        W 5660   4.191   4.863   1.783
 1917W        W 5661   1.746   6.598   2.439
 1918W        W 5662  10.213   5.651   1.362
 1919W        W 5663   6.288   3.628   0.196
 1920W        W 5664   7.634   9.458   2.192
 1921W        W 5665   8.125   6.638   9.252
 1922W        W 5666   7.032   5.786   0.475
 1923W        W 5667   6.494   4.890   2.912
 1924W        W 5668   6.443   6.354  10.299
 1925W        W 5669  10.385   2.618   0.417
 1926W        W 5670   6.036   1.130   9.517
 1927W        W 5671   1.394   8.941   9.578
 1928W        W 5672  10.437   4.599   3.147
 1929W        W 5673   9.531   5.862   0.336
 1930W        W 5674   3.720   9.973  11.045
 1931W        W 5675   5.224   0.365   3.026
 1932W        W 5676   6.378   1.896   9.602
 1933W        W 5677   3.188   2.130   3.696
 1934W        W 5678   4.549   3.618   9.991
 1935W        W 5679   8.329   8.063  10.501
 1936W        W 5680   2.886   3.653  11.045
 1937W        W 5681   9.903   6.193   0.523
 1938W        W 5682   0.799   2.680   1.926
 1939W        W 5683   0.195   1.936   0.498
 1940W        W 5684   8.001   4.215   0.279
 1941W        W 5685   8.043   4.380   8.624
 1942W        W 5686   9.869   3.556   8.916
 1943W        W 5687   9.433   4.609   0.976
 1944W        W 5688   0.030   0.029   3.519
 1945W        W 5689   3.159   7.827   9.024
 1946W        W 5690   3.382   0.900   0.356
 1947W        W 5691  10.283   0.005   8.805
 1948W        W 5692   9.780   1.262   8.670
 1949W        W 5693   6.101   7.456   9.096
 1950W        W 5694   7.456   3.113   0.408
 1951W        W 5695   6.185   1.253   0.966
 1952W        W 5696   5.080   1.607   1.791
 1953W        W 5697  10.424   2.176   2.758
 1954W        W 5698   5.676   3.700   1.473
 1955W        W 5699   6.607   2.546  10.356
 1956W        W 5700   1.591   9.110   3.331
 1957W        W 5701   8.053   0.249   1.461
 1958W        W 5702   0.786   0.220   2.829
 1959W        W 5703   1.356   3.699  11.074
 1960W        W 5704   6.882   2.881   9.044
 1961W        W 5705   4.789   9.427  10.461
 1962W        W 5706   0.213   6.953   0.487
 1963W        W 5707   0.961   5.615   1.706
 1964W        W 5708   2.336   5.548   1.012
 1965W        W 5709   4.691   6.654   8.595
 1966W        W 5710   8.572   3.685   1.563
 1967W        W 5711   2.629   0.796  11.043
 1968W        W 5712   5.565   7.427   0.168
 1969W        W 5713   0.753   5.097   9.002
 1970W        W 5714   1.302   1.466   9.831
 1971W        W 5715   1.760  10.280   9.006
 1972W        W 5716   5.766   5.421   0.627
 1973W        W 5717   4.946   6.982  10.319
 1974W        W 5718   9.839   6.055   2.910
 1975W        W 5719   7.177   4.117   9.723
 1976W        W 5720   0.008   5.560   3.332
 1977W        W 5721   5.416   8.058   3.215
 1978W        W 5722   7.959   7.376   0.395
 1979W        W 5723   4.794   4.965   9.402
 1980W        W 5724   5.386   6.206   8.736
 1981W        W 5725   6.645   4.956   0.390
 1982W        W 5726  10.293   4.548   2.137
 1983W        W 5727   8.367   1.297   0.884
 1984W        W 5728   0.061   6.676  11.566
 1985W        W 5729   8.234   4.154   0.739
 1986W        W 5730   2.616   4.480   9.245
 1987W        W 5731   4.589   2.660   9.316
 1988W        W 5732   1.800   5.654   1.683
 1989W        W 5733   4.273   7.961   1.949
 1990W        W 5734  10.462   4.566  11.936
 1991W        W 5735   3.659   5.422  11.813
 1992W        W 5736   1.706   3.799   9.816
 1993W        W 5737   2.947   0.737   0.657
 1994W        W 5738   6.003   1.598   9.790
 1995W        W 5739   0.456   4.294   8.711
 1996W        W 5740  10.401   2.339   9.069
 1997W        W 5741   4.514   3.612   8.096
 1998W        W 5742   9.479  10.370   0.784
 1999W        W 5743   9.288   8.781   1.860
 2000W        W 5744   8.777   5.304   3.334
 2001W        W 5745   8.963  10.278   2.792
 2002W        W 5746  10.184   7.873  10.826
 2003W        W 5747   9.729   9.137   8.419
 2004W        W 5748   0.509   6.977   2.419
 2005W        W 5749   3.078   7.663   1.902
 2006W        W 5750  10.262   5.872   2.646
 2007W        W 5751   2.318   9.910   2.416
 2008W        W 5752   4.627   7.632   9.772
 2009W        W 5753   7.839   4.613   9.889
 2010W        W 5754   5.082   5.180   1.910
 2011W        W 5755   0.524   6.386  11.037
 2012W        W 5756   6.787   3.164   3.134
 2013W        W 5757   2.118   2.557  11.478
 2014W        W 5758   5.456   6.894   0.940
 2015W        W 5759   2.415  10.352   3.099
 2016W        W 5760   8.491   3.572   0.995
 2017W        W 5761   6.003   6.986   9.967
 2018W        W 5762   3.730   3.080  11.987
 2019W        W 5763   0.184   0.110   9.139
 2020W        W 5764   6.547  10.129   1.900
 2021W        W 5765   0.868   9.849   9.018
 2022W        W 5766   6.001   4.193   8.889
 2023W        W 5767   2.126   9.859  11.506
 2024W        W 5768   6.587   9.516   1.097
 2025W        W 5769   8.749   6.448   0.315
 2026W        W 5770   1.261   3.415  10.407
 2027W        W 5771   8.079   0.020  10.981
 2028W        W 5772   0.835   8.643   0.071
 2029W        W 5773   1.405   5.340   8.946
 2030W        W 5774   6.628   8.614   0.766
 2031W        W 5775   3.128   8.040   8.556
 2032W        W 5776   3.428   3.124   2.278
 2033W        W 5777   0.707   5.183   1.752
 2034W        W 5778   1.020   9.442   1.324
 2035W        W 5779   8.813   5.557  11.296
 2036W        W 5780   2.266   0.787   1.427
 2037W        W 5781   3.288   1.690   8.736
 2038W        W 5782   2.320   4.637   2.157
 2039W        W 5783   1.684   6.644   9.335
 2040W        W 5784  10.341  10.344  11.393
 2041W        W 5785   0.314   1.799   1.364
 2042W        W 5786   0.262   2.285   3.713
 2043W        W 5787   5.333   8.559   8.434
 2044W        W 5788   8.604   0.780   1.035
 2045W        W 5789   1.949   0.370   3.070
 2046W        W 5790   9.855   5.184  11.376
 2047W        W 5791   6.684   4.432   2.776
 2048W        W 5792   5.198   0.995   0.173
 2049W        W 5793   1.930   2.299   3.237
 2050W        W 5794   0.259   6.116   1.775
 2051W        W 5795   2.352   6.105   9.294
 2052W        W 5796   3.536   9.669   3.715
 2053W        W 5797   3.191   4.560  10.047
 2054W        W 5798   1.783   2.283  10.836
 2055W        W 5799   9.246   5.428  11.567
 2056W        W 5800  10.447   1.372   3.234
 2057W        W 5801   8.638   3.594   2.912
 2058W        W 5802   4.526   6.682  10.350
 2059W        W 5803   6.981   3.242   0.173
 2060W        W 5804   4.244  10.291   9.131
 2061W        W 5805   3.093   1.187  11.492
 2062W        W 5806   2.152   6.992   0.497
 2063W        W 5807   7.496   2.602  11.330
 2064W        W 5808   6.119   3.984   9.728
 2065W        W 5809   7.003   8.708  11.884
 2066W        W 5810   4.653   3.646   3.441
 2067W        W 5811   2.715   5.251  10.302
 2068W        W 5812   8.479   7.174  10.960
 2069W        W 5813   3.825   3.594   0.071
 2070W        W 5814   5.166   3.553   3.230
 2071W        W 5815   0.152  10.042  10.012
 2072W        W 5816   1.674   5.185   2.719
 2073W        W 5817   1.802   1.928   8.669
 2074W        W 5818   4.306   7.054   9.176
 2075W        W 5819   9.884  10.035   1.908
 2076W        W 5820   6.994   2.222   2.202
 2077W        W 5821   5.701   6.812  10.871
 2078W        W 5822   2.046   4.845   0.038
 2079W        W 5823   7.889   1.668   2.462
 2080W        W 5824   5.963   5.541   1.483
 2081W        W 5825   1.121   4.537  11.464
 2082W        W 5826   2.732   5.617  11.753
 2083W        W 5827   2.759   8.473  11.192
 2084W        W 5828   7.075   1.751   1.958
 2085W        W 5829   1.366   1.168   1.187
 2086W        W 5830   4.244   2.310   3.510
 2087W        W 5831   0.517   7.786   9.527
 2088W        W 5832   2.973  10.006  11.833
 2089W        W 5833   1.339   0.910  11.056
 2090W        W 5834   5.615   4.641   9.635
 2091W        W 5835   7.946   3.630   2.424
 2092W        W 5836   8.949   5.365   0.970
 2093W        W 5837   7.943   2.165  11.929
 2094W        W 5838   0.796   6.014   3.362
 2095W        W 5839   3.860   7.125   2.703
 2096W        W 5840   3.622   4.167   8.595
 2097W        W 5841   8.959   2.732   9.204
 2098W        W 5842   7.742   2.833   0.846
 2099W        W 5843   4.710   4.023  11.900
 2100W        W 5844   0.864  10.115   9.494
 2101W        W 5845   8.777   7.899  10.628
 2102W        W 5846   5.249   2.339   3.138
 2103W        W 5847   1.922   3.120   3.463
 2104W        W 5848   3.312   9.670  10.889
 2105W        W 5849   8.621   0.911  11.832
 2106W        W 5850  10.424   4.653  10.816
 2107W        W 5851   7.115   7.970   2.652
 2108W        W 5852   4.198   9.434   3.281
 2109W        W 5853   2.417   3.126   3.400
 2110W        W 5854   7.679   1.293  11.001
 2111W        W 5855   9.406   3.104   1.808
 2112W        W 5856   7.451   7.005   3.224
 2113W        W 5857   5.472   9.381   2.013
 2114W        W 5858   4.763   0.782   0.302
 2115W        W 5859   6.084   6.064   1.556
 2116W        W 5860   5.546   4.089   8.240
 2117W        W 5861   7.632   1.531  10.030
 2118W        W 5862   3.300   7.224   1.714
 2119W        W 5863   0.314   2.853   0.289
 2120W        W 5864   4.686   1.444  10.784
 2121W        W 5865   2.197   6.554   2.856
 2122W        W 5866   1.195   7.970  10.968
 2123W        W 5867   7.453  10.077  10.230
 2124W        W 5868   8.152   0.499   1.010
 2125W        W 5869   8.430   4.058   8.699
 2126W        W 5870   7.038   3.849   3.318
 2127W        W 5871   1.643   9.708   0.366
 2128W        W 5872   8.368   8.457   9.048
 2129W        W 5873   1.392   9.299   1.678
 2130W        W 5874   1.626   4.144   1.631
 2131W        W 5875   7.508   8.076  10.576
 2132W        W 5876   9.025   6.639   1.147
 2133W        W 5877   1.436   1.456   3.626
 2134W        W 5878   2.792   2.176   0.894
 2135W        W 5879   8.935   6.165   1.329
 2136W        W 5880   1.270   3.813  10.086
 2137W        W 5881   0.357   0.489   2.927
 2138W        W 5882   0.438   8.781   9.564
 2139W        W 5883   8.003   0.686   3.312
 2140W        W 5884   9.106   0.782   9.909
 2141W        W 5885   8.088   2.842  10.228
 2142W        W 5886   1.131   6.339   3.638
 2143W        W 5887   8.496   1.891   9.621
 2144W        W 5888   9.394  10.442   3.032
 2145W        W 5889   7.046   2.395   0.202
 2146W        W 5890   8.771   0.201   2.327
 2147W        W 5891   1.829   8.737   0.426
 2148W        W 5892  10.316   8.998   2.706
 2149W        W 5893   1.001   5.315  11.241
 2150W        W 5894   3.174   2.809   9.868
 2151W        W 5895   0.777   1.755   3.009
 2152W        W 5896   7.466   7.412   0.282
 2153W        W 5897   9.991   4.708   2.895
 2154W        W 5898   4.705   3.733   0.412
 2155W        W 5899   9.929   1.240   0.772
 2156W        W 5900   9.278   0.290  11.402
 2157W        W 5901   1.333   9.881   9.465
 2158W        W 5902   2.915   4.815   8.569
 2159W        W 5903   9.077   6.694   0.637
 2160W        W 5904   8.955   8.428   3.098
 2161W        W 5905   8.076   3.536  11.796
 2162W        W 5906   6.815   8.994   0.250
 2163W        W 5907   6.111   9.529   1.375
 2164W        W 5908   7.939   6.019   2.408
 2165W        W 5909   7.761   7.635  11.975
 2166W        W 5910   4.416   2.740   3.283
 2167W        W 5911   4.124   5.010   0.915
 2168W        W 5912   3.391   9.955   1.462
 2169W        W 5913   7.701   9.269   9.050
 2170W        W 5914  10.324   8.466   2.631
 2171W        W 5915   5.258   1.462   0.001
 2172W        W 5916   7.067   0.398  10.424
 2173W        W 5917   2.593   2.055   1.633
 2174W        W 5918   4.463   2.761   0.602
 2175W        W 5919   1.362   6.853  11.950
 2176W        W 5920   2.648   1.162   2.724
 2177W        W 5921   4.216   4.806   2.333
 2178W        W 5922   0.000   4.715   1.712
 2179W        W 5923   7.188  10.270   2.840
 2180W        W 5924   4.626   8.946  10.620
 2181W        W 5925   9.293   5.749   1.730
 2182W        W 5926   8.463   2.344   0.331
 2183W        W 5927   3.460   9.099   2.867
 2184W        W 5928   3.103   2.769   2.107
 2185W        W 5929  10.242   2.625   3.076
 2186W        W 5930   5.082   9.783   2.041
 2187W        W 5931  10.272   9.700  10.012
 2188W        W 5932   5.580   9.295   0.260
 2189W        W 5933   1.765   8.633   2.615
 2190W        W 5934   7.002   2.830   0.462
 2191W        W 5935   9.906   8.590   9.547
 2192W        W 5936   5.606   9.988   2.731
 2193W        W 5937   7.055   4.929   9.087
 2194W        W 5938   1.811   6.686  11.728
 2195W        W 5939   8.086   5.036  10.034
 2196W        W 5940   2.604   8.050   9.929
 2197W        W 5941   0.334   6.878   1.362
 2198W        W 5942   5.051   4.932  11.013
 2199W        W 5943   8.596   1.452  11.879
 2200W        W 5944   5.869   9.880  11.455
 2201W        W 5945   8.174   7.795   1.836
 2202W        W 5946   9.665   1.374   2.127
 2203W        W 5947   8.318   0.758   0.214
 2204W        W 5948   7.078  10.160   0.751
 2205W        W 5949   9.229   5.141   3.151
 2206W        W 5950   7.023   9.870  10.523
 2207W        W 5951   2.769   0.689   2.848
 2208W        W 5952   9.963   9.379  11.308
 2209W        W 5953   4.149   0.504   0.692
 2210W        W 5954   5.105   7.083  11.518
 2211W        W 5955   8.018   2.284   9.012
 2212W        W 5956   9.779   1.829   0.485
 2213W        W 5957   4.378   7.095   8.656
 2214W        W 5958   8.518   0.036   2.789
 2215W        W 5959   8.133   7.317   2.181
 2216W        W 5960   4.641   2.575  10.266
 2217W        W 5961   2.819   1.765   1.283
 2218W        W 5962   0.337   1.760  11.551
 2219W        W 5963   1.576   2.782  10.794
 2220W        W 5964   4.126   5.264   2.571
 2221W        W 5965   4.118   4.378  10.369
 2222W        W 5966   4.181   8.385   9.570
 2223W        W 5967   2.002   1.495   8.482
 2224W        W 5968   6.014   2.450  11.513
 2225W        W 5969   9.061   3.830   1.728
 2226W        W 5970  10.329  10.451   0.697
 2227W        W 5971   8.384   5.198   0.268
 2228W        W 5972   8.447   7.427   2.749
 2229W        W 5973   7.618   2.741   2.779
 2230W        W 5974   5.622   8.477   1.911
 2231W        W 5975   3.743   9.360   1.018
 2232W        W 5976   0.702   2.569  10.999
 2233W        W 5977   6.180   9.866   1.009
 2234W        W 5978   6.046  10.339   1.190
 2235W        W 5979   8.332   8.552  10.604
 2236W        W 5980   2.416   1.237  10.941
 2237W        W 5981   8.286  10.292   1.303
 2238W        W 5982  10.111   7.494   0.924
 2239W        W 5983   7.114   5.120   1.630
 2240W        W 5984   8.554   3.738  10.545
 2241W        W 5985   6.923   7.437  11.200
 2242W        W 5986   1.025   5.693  11.657
 2243W        W 5987   7.466   4.305   1.153
 2244W        W 5988   3.090   3.237  10.511
 2245W        W 5989   8.396   8.799  11.837
 2246W        W 5990   2.500   2.787  10.610
 2247W        W 5991   9.898   6.061  11.480
 2248W        W 5992   1.008   7.108   9.111
 2249W        W 5993   5.682   1.793  11.502
 2250W        W 5994   6.486   7.101   3.188
 2251W        W 5995   8.442   7.888   3.543
 2252W        W 5996   1.867   5.602   0.761
 2253W        W 5997   2.720   6.544   3.640
 2254W        W 5998   9.641   0.315   3.249
 2255W        W 5999   3.685   4.763   1.828
 2256W        W 6000   8.414   0.982   1.927
 2257W        W 6001   3.184   6.097   3.227
 2258W        W 6002   1.177   2.253  10.059
 2259W        W 6003   4.325   9.899   1.488
 2260W        W 6004   3.280   5.651   0.904
 2261W        W 6005   5.443   0.860  10.074
 2262W        W 6006   6.336   4.967   9.380
 2263W        W 6007   3.608   5.364  11.110
 2264W        W 6008   0.272   5.094   3.354
 2265W        W 6009   2.348   6.056   1.905
 2266W        W 6010   3.102   8.109   9.929
 2267W        W 6011   7.972   3.292   9.437
 2268W        W 6012   7.393   4.041  11.335
 2269W        W 6013   2.352   6.482   0.850
 2270W        W 6014   4.444   4.610   9.556
 2271W        W 6015   8.443   7.687  10.965
 2272W        W 6016   5.713   1.221   2.317
 2273W        W 6017   9.194   0.281  10.056
 2274W        W 6018   9.967   6.952   0.283
 2275W        W 6019   6.284   6.192  11.393
 2276W        W 6020   5.474   5.865  11.287
 2277W        W 6021   5.043   6.973   9.799
 2278W        W 6022   2.845   7.485  11.981
 2279W        W 6023   8.067   4.519   1.914
 2280W        W 6024   8.957   6.039   9.433
 2281W        W 6025   7.182   1.697   1.472
 2282W        W 6026  10.329   9.899   2.190
 2283W        W 6027   5.550   7.086   9.662
 2284W        W 6028   1.405   7.526   9.796
 2285W        W 6029   6.591   6.208  11.812
 2286W        W 6030   7.165   9.250  11.314
 2287W        W 6031   5.257   7.896  11.850
 2288W        W 6032   2.898   1.061   0.275
 2289W        W 6033   3.396   0.379  11.743
 2290W        W 6034   4.930   4.404   9.522
 2291W        W 6035  10.174   1.451   2.216
 2292W        W 6036   9.382   8.107  11.093
 2293W        W 6037   8.037   0.284   2.482
 2294W        W 6038   1.574   3.351  10.011
 2295W        W 6039   1.522   8.272   0.522
 2296W        W 6040   7.057   3.087   2.194
 2297W        W 6041   0.082   4.008  10.109
 2298W        W 6042   9.272   1.336   2.514
 2299W        W 6043   6.478   2.435   1.909
 2300W        W 6044   0.273   6.457   0.404
 2301W        W 6045   1.238   6.867   3.402
 2302W        W 6046   1.955  10.444   0.751
 2303W        W 6047   2.812   6.413   8.571
 2304W        W 6048   0.448   2.280   8.959
 2305W        W 6049   8.002   4.187   2.665
 2306W        W 6050   7.047   8.881   9.091
 2307W        W 6051   1.165   5.110   1.553
 2308W        W 6052   9.609  10.338  10.877
 2309W        W 6053   8.346  10.422   2.301
 2310W        W 6054   1.586   5.187   0.868
 2311W        W 6055   9.391   0.970   3.015
 2312W        W 6056   0.811   3.334   2.779
 2313W        W 6057   2.816   8.512   1.360
 2314W        W 6058   0.060   2.276   3.247
 2315W        W 6059   1.273   3.196  10.860
 2316W        W 6060   0.301   2.359  10.757
 2317W        W 6061   3.584   4.152   0.890
 2318W        W 6062   5.078   8.405  11.051
 2319W        W 6063   0.451   1.827   9.830
 2320W        W 6064   0.874   0.910  11.282
 2321W        W 6065   1.994   7.051   9.313
 2322W        W 6066   5.215   6.640  10.790
 2323W        W 6067   0.889   6.336   1.389
 2324W        W 6068   2.242  10.212  10.755
 2325W        W 6069   7.382   5.725   3.556
 2326W        W 6070   6.255   2.884  11.704
 2327W        W 6071   3.373   7.068   9.555
 2328W        W 6072   8.101   8.138   0.776
 2329W        W 6073   3.741   6.881  11.913
 2330W        W 6074   1.391   9.303   0.136
 2331W        W 6075   5.453   6.071   1.103
 2332W        W 6076   3.668   7.159  10.574
 2333W        W 6077  10.101   6.572  11.344
 2334W        W 6078   7.469   3.279  10.191
 2335W        W 6079   6.667   3.711   0.633
 2336W        W 6080   7.092   4.542   1.578
 2337W        W 6081   0.529   1.883  10.720
 2338W        W 6082   3.804   8.718   3.489
 2339W        W 6083   9.557   2.788   9.031
 2340W        W 6084   5.582   7.960   0.228
 2341W        W 6085   9.289   9.866   9.952
 2342W        W 6086   7.186   2.724   8.627
 2343W        W 6087   5.250   7.600   3.086
 2344W        W 6088   3.739   3.776  11.538
 2345W        W 6089   5.581   1.722   9.532
 2346W        W 6090   8.719   1.304   2.500
 2347W        W 6091   7.989   3.676   0.792
 2348W        W 6092   9.125   2.686   2.868
 2349W        W 6093  10.052   7.084   3.464
 2350W        W 6094   8.891   5.717  11.818
 2351W        W 6095   4.214   3.790   9.610
 2352W        W 6096   7.481   5.087   8.811
 2353W        W 6097   0.468   4.592   0.091
 2354W        W 6098   3.214   5.420  10.227
 2355W        W 6099   3.276   1.235   0.763
 2356W        W 6100   1.709   9.790   9.824
 2357W        W 6101   6.134   1.238   8.995
 2358W        W 6102   1.661   9.675  10.326
 2359W        W 6103   0.475   2.121  11.201
 2360W        W 6104   1.514  10.416   1.783
 2361W        W 6105   7.172   5.048   1.144
 2362W        W 6106   7.346   3.163   2.799
 2363W        W 6107   6.478   4.516  11.601
 2364W        W 6108   0.731   1.245  10.944
 2365W        W 6109   4.331   2.734   1.410
 2366W        W 6110   5.566   8.942   1.676
 2367W        W 6111   6.480   0.068   9.633
 2368W        W 6112   3.164   3.702   3.537
 2369W        W 6113   2.306   9.449  11.780
 2370W        W 6114  10.292   9.142   8.910
 2371W        W 6115   4.634   3.724   1.420
 2372W        W 6116   2.075   9.498   8.508
 2373W        W 6117   9.083   4.592   0.606
 2374W        W 6118   8.079   6.614   9.746
 2375W        W 6119   2.815   3.946   1.488
 2376W        W 6120  10.129   5.656   9.409
 2377W        W 6121   2.962   8.580  10.153
 2378W        W 6122   3.647   7.971  11.822
 2379W        W 6123   6.822   5.513   1.777
 2380W        W 6124   3.821   8.344   2.141
 2381W        W 6125   0.277   1.317  10.733
 2382W        W 6126   3.276   1.298  10.086
 2383W        W 6127   8.781   8.218   8.410
 2384W        W 6128   5.285   3.016   2.564
 2385W        W 6129  10.339   9.180  10.098
 2386W        W 6130   2.071   2.842   8.839
 2387W        W 6131   2.649   5.016   2.362
 2388W        W 6132   8.954   9.822   1.266
 2389W        W 6133   3.172   6.135   1.003
 2390W        W 6134   8.742   0.457   0.117
 2391W        W 6135   1.233   8.164   2.724
 2392W        W 6136   4.585   1.638   9.901
 2393W        W 6137   6.595   2.238   0.356
 2394W        W 6138   3.026   4.097   9.416
 2395W        W 6139   8.984   9.315  10.782
 2396W        W 6140   8.608   4.605   9.389
 2397W        W 6141   4.499  10.445   0.293
 2398W        W 6142   0.168   9.789  10.484
 2399W        W 6143   7.901   4.745  10.758
 2400W        W 6144   1.450   9.081   2.174
 2401W        W 6145   5.941   7.629  10.398
 2402W        W 6146   5.090   8.144   3.644
 2403W        W 6147   0.821   3.573   2.295
 2404W        W 6148   9.849   6.169  10.443
 2405W        W 6149   5.994   8.682  11.885
 2406W        W 6150   3.348   6.830  10.387
 2407W        W 6151   4.656   2.633  11.760
 2408W        W 6152   4.256   1.760   8.735
 2409W        W 6153   3.758   7.599   4.044
 2410W        W 6154   8.923   7.523   2.590
 2411W        W 6155   7.753   0.380   8.408
 2412W        W 6156  10.045   9.462   1.189
 2413W        W 6157   1.569   4.437   3.628
 2414W        W 6158   8.552   9.376  10.073
 2415W        W 6159   5.316   4.794   2.158
 2416W        W 6160   8.851  10.437  11.366
 2417W        W 6161   2.847   0.289   3.639
 2418W        W 6162   7.609   2.703   9.539
 2419W        W 6163   5.548   8.302  11.756
 2420W        W 6164  10.420   7.881   3.292
 2421W        W 6165   6.521   0.467  11.953
 2422W        W 6166   2.379   6.846   9.616
 2423W        W 6167   2.887   8.081   9.363
 2424W        W 6168   8.419   4.213   1.245
 2425W        W 6169   5.570   5.151  10.360
 2426W        W 6170   9.949   1.872   9.918
 2427W        W 6171   4.760   3.677   2.456
 2428W        W 6172  10.114   8.388   0.288
 2429W        W 6173   5.069   9.242   0.226
 2430W        W 6174   4.670   1.205  10.322
 2431W        W 6175   0.677   2.281   9.959
 2432W        W 6176   2.234   4.777   9.074
 2433W        W 6177   8.877   9.548   1.728
 2434W        W 6178   7.245   6.479   9.895
 2435W        W 6179   0.399   4.320   0.543
 2436W        W 6180   9.215   5.748   1.217
 2437W        W 6181   2.784   9.438   2.959
 2438W        W 6182   2.706   7.827   0.691
 2439W        W 6183   2.557   0.313  11.305
 2440W        W 6184   6.153   4.740  11.267
 2441W        W 6185   2.908   0.281   9.272
 2442W        W 6186   0.932   0.473   8.436
 2443W        W 6187   9.877   3.732   1.259
 2444W        W 6188   4.960   4.026   4.094
 2445W        W 6189   7.168   7.720  10.838
 2446W        W 6190   8.861   6.085   8.896
 2447W        W 6191   1.650   4.205  10.767
 2448W        W 6192   7.074   4.599   9.514
 2449W        W 6193   0.764   1.435   9.995
 2450W        W 6194   8.909   0.275   0.904
 2451W        W 6195  10.417   7.161   8.965
 2452W        W 6196   2.133   1.844  10.774
 2453W        W 6197   3.729   0.985   9.123
 2454W        W 6198   2.326   8.686   9.453
 2455W        W 6199   4.148   1.331   1.823
 2456W        W 6200   7.564   7.870   3.524
 2457W        W 6201   6.910   0.783   9.556
 2458W        W 6202   1.852   1.383   2.028
 2459W        W 6203   7.462   8.431  11.658
 2460W        W 6204   2.735   2.104   2.885
 2461W        W 6205  10.460  10.039  10.945
 2462W        W 6206   3.291   8.011   3.616
 2463W        W 6207   7.978   0.764   2.781
 2464W        W 6208   2.313   7.675   3.021
 2465W        W 6209   2.607   2.341   2.447
 2466W        W 6210  10.404   3.720   0.023
 2467W        W 6211   6.484   6.981   1.838
 2468W        W 6212   6.104  10.470   1.729
 2469W        W 6213   3.874   0.072   8.937
 2470W        W 6214   3.782   0.537   9.354
 2471W        W 6215   7.188   7.845   0.872
 2472W        W 6216   5.066   3.561   9.876
 2473W        W 6217   8.105   9.305  10.352
 2474W        W 6218   1.773   0.887   1.290
 2475W        W 6219   1.875   2.101  10.372
 2476W        W 6220   6.681   2.888   0.860
 2477W        W 6221   4.608   8.559  11.899
 2478W        W 6222  10.017   9.545   8.569
 2479W        W 6223   6.264   8.830  11.457
 2480W        W 6224   0.390   4.188   1.039
 2481W        W 6225   6.064   6.251   3.369
 2482W        W 6226   8.376   8.026   8.780
 2483W        W 6227   4.181   7.685   0.810
 2484W        W 6228   5.227  10.161  11.910
 2485W        W 6229  10.157   8.507   1.195
 2486W        W 6230   5.129   2.520  10.013
 2487W        W 6231   3.196  10.427   1.294
 2488W        W 6232   5.014   6.008  11.894
 2489W        W 6233   7.549   8.831   8.773
 2490W        W 6234   8.950   3.225   9.063
 2491W        W 6235   0.839   7.480  10.289
 2492W        W 6236   0.376   1.597  10.306
 2493W        W 6237   0.908   8.953   1.417
 2494W        W 6238  10.091   8.110   9.470
 2495W        W 6239   7.160   2.891  11.073
 2496W        W 6240   2.909   0.219   1.588
 2497W        W 6241   2.499   7.248   9.299
 2498W        W 6242   3.871   8.089   1.643
 2499W        W 6243   5.460   4.255   3.140
 2500W        W 6244   9.937   2.439  11.676
 2501W        W 6245   3.383   0.283   1.766
 2502W        W 6246   7.578   3.792  10.429
 2503W        W 6247   4.248   3.874  11.284
 2504W        W 6248   0.032   5.941   2.211
 2505W        W 6249   0.659   6.584  10.280
 2506W        W 6250   7.882   2.323   2.805
 2507W        W 6251   9.391   3.152   1.293
 2508W        W 6252   3.737   1.285   0.998
 2509W        W 6253   4.589   7.988   3.607
 2510W        W 6254   1.202   5.320  10.296
 2511W        W 6255   5.717   9.896   1.303
 2512W        W 6256   0.722   7.444   2.238
 2513W        W 6257   7.918  10.028  11.033
 2514W        W 6258   9.431   7.652  10.183
 2515W        W 6259   5.680   4.486   9.157
 2516W        W 6260   8.039   1.796   1.956
 2517W        W 6261   7.827   7.051   0.868
 2518W        W 6262   8.021   0.264   2.975
 2519W        W 6263   9.361   2.815   0.480
 2520W        W 6264   2.132   7.426   1.725
 2521W        W 6265   4.150   8.632   0.858
 2522W        W 6266   8.910   5.966  10.962
 2523W        W 6267   9.608   9.940   3.777
 2524W        W 6268   9.985   4.476   1.697
 2525W        W 6269   2.397   5.327   1.474
 2526W        W 6270  10.057   4.878  11.806
 2527W        W 6271   8.118   2.456   1.435
 2528W        W 6272   9.142   3.709   9.160
 2529W        W 6273   6.274   2.886   1.168
 2530W        W 6274  10.286   1.275   9.984
 2531W        W 6275  10.462   2.422   1.892
 2532W        W 6276   6.476   2.767   2.771
 2533W        W 6277   8.308   7.147   9.131
 2534W        W 6278   9.871  10.336   2.746
 2535W        W 6279   0.832   6.803   1.164
 2536W        W 6280   3.258   0.219  10.047
 2537W        W 6281   2.251   2.630   3.561
 2538W        W 6282   4.066   5.278   0.471
 2539W        W 6283   6.219   6.931   9.082
 2540W        W 6284   2.869   4.166   9.893
 2541W        W 6285   3.197   9.688   9.904
 2542W        W 6286   5.953   6.627  11.304
 2543W        W 6287   8.155   4.038  11.826
 2544W        W 6288   7.231   5.579   1.192
 2545W        W 6289   0.938   9.121   9.473
 2546W        W 6290   5.234   0.261   1.933
 2547W        W 6291   6.231   1.232  10.039
 2548W        W 6292   7.862   5.447   1.764
 2549W        W 6293   7.417   8.068   3.089
 2550W        W 6294   5.473   7.824   3.732
 2551W        W 6295   7.041   6.072   0.045
 2552W        W 6296   1.894   4.259   9.857
 2553W        W 6297   5.001   2.928   8.547
 2554W        W 6298   3.188   3.485   3.063
 2555W        W 6299   9.287   9.214   3.325
 2556W        W 6300   6.248   4.987   2.163
 2557W        W 6301   4.501   7.710  11.461
 2558W        W 6302   9.009   4.504  11.040
 2559W        W 6303   8.570   9.291  11.121
 2560W        W 6304   5.972   3.504   9.869
 2561W        W 6305  10.409   0.384   3.160
 2562W        W 6306   3.578   2.247   8.739
 2563W        W 6307   8.140   9.330  11.506
 2564W        W 6308   4.727   8.371   0.404
 2565W        W 6309   8.990   1.465   1.545
 2566W        W 6310   6.932   0.811  10.934
 2567W        W 6311   4.592   6.651   9.091
 2568W        W 6312   9.123   3.454   2.074
 2569W        W 6313   8.469   7.402   0.336
 2570W        W 6314   4.695   9.054  10.111
 2571W        W 6315   1.639   6.498   3.489
 2572W        W 6316   5.196   1.350   2.488
 2573W        W 6317   3.621   8.393  10.881
 2574W        W 6318   5.616   1.704   0.546
 2575W        W 6319   3.825   7.484   9.774
 2576W        W 6320   5.655   5.149   1.311
 2577W        W 6321   9.396   7.908   2.077
 2578W        W 6322   7.215   1.378   9.766
 2579W        W 6323   8.518   6.697  10.005
 2580W        W 6324   9.845   9.732   2.856
 2581W        W 6325   4.063   1.529  11.560
 2582W        W 6326   0.766   6.091   9.870
 2583W        W 6327   1.377   8.496  11.085
 2584W        W 6328   3.307   1.464  10.592
 2585W        W 6329  10.471   0.042   9.707
 2586W        W 6330   2.661   4.924   3.589
 2587W        W 6331   5.760   0.768  10.492
 2588W        W 6332   0.782   4.343   1.748
 2589W        W 6333   5.999   7.318   9.566
 2590W        W 6334   0.860   4.657   8.677
 2591W        W 6335   4.593   8.468  11.367
 2592W        W 6336   2.221   3.202  10.693
 2593W        W 6337   6.690   8.418   1.834
 2594W        W 6338   0.380   5.719   9.980
 2595W        W 6339   9.639   5.366   0.441
 2596W        W 6340   9.803   3.068   0.071
 2597W        W 6341   4.312   9.522  11.841
 2598W        W 6342   1.712   3.661  10.400
 2599W        W 6343   0.458   0.482   0.358
 2600W        W 6344   1.775   5.667   8.714
 2601W        W 6345  10.205   2.798  11.957
 2602W        W 6346   5.802   2.493   9.958
 2603W        W 6347   6.583   2.943   1.914
 2604W        W 6348   6.482   3.922  10.334
 2605W        W 6349   7.453   2.284   8.788
 2606W        W 6350   6.522  10.395  10.120
 2607W        W 6351   2.268   9.640   9.289
 2608W        W 6352   4.694   6.416   1.318
 2609W        W 6353   3.617  10.405  10.294
 2610W        W 6354   2.946   5.652   3.122
 2611W        W 6355   6.340  10.246   3.285
 2612W        W 6356   9.411   3.096   2.788
 2613W        W 6357   8.048   1.783   8.815
 2614W        W 6358   8.956   9.518   9.802
 2615W        W 6359   9.459   2.197   1.735
 2616W        W 6360   8.410   0.213   8.841
 2617W        W 6361   5.380   9.565   9.817
 2618W        W 6362   6.971   2.161   3.249
 2619W        W 6363   7.892   3.879  11.365
 2620W        W 6364   1.135   1.411  11.206
 2621W        W 6365   7.084   5.029  11.807
 2622W        W 6366   8.306   7.097   1.235
 2623W        W 6367   4.227   6.551   1.096
 2624W        W 6368   2.736   9.886  10.031
 2625W        W 6369   5.456   7.612   1.585
 2626W        W 6370   7.102   5.725  10.230
 2627W        W 6371   8.422   0.724   8.760
 2628W        W 6372   7.254   9.307   9.272
 2629W        W 6373   6.057   1.987  11.216
 2630W        W 6374   7.323   5.198  10.250
 2631W        W 6375   2.050   9.930   0.672
 2632W        W 6376   9.949   9.315  11.856
 2633W        W 6377   4.606   0.674  10.647
 2634W        W 6378   9.852   9.480  10.796
 2635W        W 6379   9.514   1.795   2.392
 2636W        W 6380   9.499   0.424   9.123
 2637W        W 6381   5.204   1.941  10.268
 2638W        W 6382   2.795   9.300   2.470
 2639W        W 6383   1.154   0.989   0.747
 2640W        W 6384   5.946   3.019   9.013
 2641W        W 6385   6.515  10.173  11.583
 2642W        W 6386   6.967   8.522  10.699
 2643W        W 6387   0.361   2.673  10.051
 2644W        W 6388   2.445   9.543   0.613
 2645W        W 6389   0.522   7.403  10.971
 2646W        W 6390   3.766   0.421   2.531
 2647W        W 6391   5.230   5.049  11.858
 2648W        W 6392   3.717   6.694   9.693
 2649W        W 6393   9.769   6.626   9.489
 2650W        W 6394   0.041   3.398   0.824
 2651W        W 6395   9.467   9.856  10.742
 2652W        W 6396   2.228  10.437  10.272
 2653W        W 6397   0.202   3.345  11.030
 2654W        W 6398   6.137   1.107   2.742
 2655W        W 6399   2.834   6.068   1.431
 2656W        W 6400   5.664   0.063   0.889
 2657W        W 6401   8.935   4.752   2.905
 2658W        W 6402   8.497   4.152   2.834
 2659W        W 6403   3.636   7.085  10.039
 2660W        W 6404   5.240   6.495   9.864
 2661W        W 6405   6.161   7.715   0.069
 2662W        W 6406   7.553   3.926   2.549
 2663W        W 6407   6.078   1.480   0.515
 2664W        W 6408   4.615   8.366   2.130
 2665W        W 6409   7.058   4.829   2.034
 2666W        W 6410   8.017   7.597   3.639
 2667W        W 6411   8.512   3.392   0.499
 2668W        W 6412   5.541   6.486  10.447
 2669W        W 6413   6.351   8.173   8.683
 2670W        W 6414   9.285   4.283   1.860
 2671W        W 6415   4.489   3.229   1.414
 2672W        W 6416   4.218   8.052  10.777
 2673W        W 6417   9.425   6.741   3.045
 2674W        W 6418   1.475   1.944   0.738
 2675W        W 6419   9.733   9.042   1.821
 2676W        W 6420   6.803   8.257   8.395
 2677W        W 6421  10.301   2.745  11.449
 2678W        W 6422   1.835   0.382   0.499
 2679W        W 6423   8.878   5.496   1.900
 2680W        W 6424   0.258   1.310  11.767
 2681W        W 6425   1.618   4.141   2.643
 2682W        W 6426   8.485   4.578   1.646
 2683W        W 6427   6.675   4.462  10.558
 2684W        W 6428   6.679   3.142  11.542
 2685W        W 6429   7.655   0.465   1.221
 2686W        W 6430   9.875   9.121  10.421
 2687W        W 6431  10.347   2.591  10.969
 2688W        W 6432   4.491   5.594   0.380
 2689W        W 6433   1.433   6.033   1.653
 2690W        W 6434   2.216   1.306   0.685
 2691W        W 6435   3.714   1.889   9.557
 2692W        W 6436   9.696   1.906   2.879
 2693W        W 6437   8.390   5.700  11.573
 2694W        W 6438   9.834   1.741   8.852
 2695W        W 6439   0.277   5.112   8.804
 2696W        W 6440   0.304   4.907  10.557
 2697W        W 6441   5.880   7.538   3.869
 2698W        W 6442   8.485   7.568   1.344
 2699W        W 6443   9.253   8.104   9.740
 2700W        W 6444   1.084   7.665   2.659
 2701W        W 6445   4.205   8.914   1.706
 2702W        W 6446   8.839   0.508   1.912
 2703W        W 6447   0.826   9.493   9.994
 2704W        W 6448   4.980   4.028   3.216
 2705W        W 6449   7.447   5.540  11.484
 2706W        W 6450   1.155   4.320  10.355
 2707W        W 6451   2.313   2.707  11.940
 2708W        W 6452   4.525   6.556   0.294
 2709W        W 6453   0.366   9.793   1.283
 2710W        W 6454   2.237   7.217   3.271
 2711W        W 6455   9.740   6.474  11.715
 2712W        W 6456   7.899   8.441   9.263
 2713W        W 6457   7.513   4.756   2.269
 2714W        W 6458   4.365   4.199   9.922
 2715W        W 6459   5.814   9.302   9.620
 2716W        W 6460   8.619   9.369  11.622
 2717W        W 6461   3.100   1.507   0.352
 2718W        W 6462   9.447   6.221  11.245
 2719W        W 6463   9.183   0.704   9.414
 2720W        W 6464   8.369   3.309  10.273
 2721W        W 6465   1.840   0.671  10.337
 2722W        W 6466   3.504   6.922   0.715
 2723W        W 6467   1.391   5.608  11.987
 2724W        W 6468   8.835   7.139   0.628
 2725W        W 6469   0.375   0.224  10.410
 2726W        W 6470   8.613   4.787  11.857
 2727W        W 6471   2.668   9.793   1.730
 2728W        W 6472   7.882   5.272   8.478
 2729W        W 6473  10.334   5.253  11.598
 2730W        W 6474   7.333   6.946   9.160
 2731W        W 6475   2.085  10.278   2.119
 2732W        W 6476   8.569   7.820  10.135
 2733W        W 6477   1.935   6.197   1.595
 2734W        W 6478   6.369   0.672   2.712
 2735W        W 6479   3.235   9.528   2.635
 2736W        W 6480   5.829   4.531   0.872
 2737W        W 6481   0.404  10.376   0.251
 2738W        W 6482   6.196   1.640   1.863
 2739W        W 6483   1.842   8.551   9.302
 2740W        W 6484   6.585  10.314  11.108
 2741W        W 6485   9.249   2.360   0.862
 2742W        W 6486   3.224   0.967  10.477
 2743W        W 6487   1.515   0.991   2.092
 2744W        W 6488   8.723   8.173   9.793
 2745W        W 6489   6.111   4.291  10.986
 2746W        W 6490   3.791   7.673  11.441
 2747W        W 6491   0.486   1.865   0.041
 2748W        W 6492   8.015   3.177   8.901
 2749W        W 6493   7.023   9.173   1.019
 2750W        W 6494   7.550   0.499   2.916
 2751W        W 6495  10.466   4.666   9.985
 2752W        W 6496   9.413   9.377   9.966
 2753W        W 6497   7.470   0.147  11.323
 2754W        W 6498   7.835   6.975   1.393
 2755W        W 6499  10.322   1.221  10.955
 2756W        W 6500   5.154   1.334  10.513
 2757W        W 6501   3.049  10.255   9.163
 2758W        W 6502   0.977   7.017   8.586
 2759W        W 6503   7.099   8.837   0.634
 2760W        W 6504   2.300   8.848   1.525
 2761W        W 6505  10.375   6.117   3.519
 2762W        W 6506   0.365   0.916   0.088
 2763W        W 6507  10.349   4.119  10.566
 2764W        W 6508   8.597   2.642   1.194
 2765W        W 6509   8.396   0.219   9.724
 2766W        W 6510   0.650   7.339   9.358
 2767W        W 6511   8.370   5.536   1.755
 2768W        W 6512   8.760   4.169   9.075
 2769W        W 6513   0.823   3.702   9.344
 2770W        W 6514   6.179   4.430   2.116
 2771W        W 6515   8.381   6.539  11.466
 2772W        W 6516   2.582   4.766  11.279
 2773W        W 6517   9.938   6.936   1.882
 2774W        W 6518   8.293   9.630   0.403
 2775W        W 6519   3.424   3.223  10.105
 2776W        W 6520   0.076   5.990   1.298
 2777W        W 6521   2.013   8.259   0.378
 2778W        W 6522  10.420   6.440   1.513
 2779W        W 6523   6.832   5.309  10.157
 2780W        W 6524   2.661   5.982   0.953
 2781W        W 6525   7.486   5.895  10.793
 2782W        W 6526   6.152   9.997   1.554
 2783W        W 6527   9.166   1.803   2.751
 2784W        W 6528   8.602   5.068   1.743
 2785W        W 6529   0.257   8.550   2.925
 2786W        W 6530   8.339   9.726  11.280
 2787W        W 6531   5.718   7.095   9.167
 2788W        W 6532   7.233   1.859   9.996
 2789W        W 6533   6.133   8.646  10.521
 2790W        W 6534   1.806   6.026   3.545
 2791W        W 6535   5.950   4.098   3.118
 2792W        W 6536   7.018   0.700   0.717
 2793W        W 6537   2.505   8.272   0.541
 2794W        W 6538   9.768   5.921   1.840
 2795W        W 6539   8.380   9.076   3.495
 2796W        W 6540   8.537   2.860  10.489
 2797W        W 6541   3.304   3.282   8.587
 2798W        W 6542   3.103   2.256  11.118
 2799W        W 6543   9.060   1.235   8.739
 2800W        W 6544   8.899   7.014   1.899
 2801W        W 6545   0.214   3.087  10.387
 2802W        W 6546  10.412   8.229   2.153
 2803W        W 6547   2.211   6.406  11.593
 2804W        W 6548  10.443   6.051   9.426
 2805W        W 6549   3.107   2.359   0.133
 2806W        W 6550   3.875   3.332   0.516
 2807W        W 6551   5.568   3.315  11.618
 2808W        W 6552   8.556   8.584   2.813
 2809W        W 6553   8.773  10.336   8.927
 2810W        W 6554   1.916   8.053   1.793
 2811W        W 6555   5.277   9.558   3.399
 2812W        W 6556   3.872   2.333   9.798
 2813W        W 6557   4.538   7.936   0.573
 2814W        W 6558   8.158   1.721  10.347
 2815W        W 6559   9.863   0.519  10.323
 2816W        W 6560   9.871   0.961  10.063
 2817W        W 6561   6.044   2.768   8.424
 2818W        W 6562   7.968   8.881   1.210
 2819W        W 6563   1.106   4.202   3.638
 2820W        W 6564   6.049   0.014   0.226
 2821W        W 6565   9.963   7.458  10.107
 2822W        W 6566   1.128   9.025   0.975
 2823W        W 6567   8.339   0.033   0.822
 2824W        W 6568   3.137   5.250   1.474
 2825W        W 6569   1.885   3.729   1.784
 2826W        W 6570   8.455   6.076   1.694
 2827W        W 6571   0.019   0.204   0.284
 2828W        W 6572   0.203   1.149   8.515
 2829W        W 6573   7.629   1.089  10.363
 2830W        W 6574   7.818   6.193   1.016
 2831W        W 6575   4.081   9.015   1.222
 2832W        W 6576  10.088   2.664   0.840
 2833W        W 6577   9.489   8.909   0.494
 2834W        W 6578   1.045   5.208   9.397
 2835W        W 6579   5.974   8.807   9.832
 2836W        W 6580   9.394   2.319   0.372
 2837W        W 6581   8.017   6.166   8.781
 2838W        W 6582   7.196   5.482  10.653
 2839W        W 6583   8.352   5.426   3.603
 2840W        W 6584   0.307   9.961  11.928
 2841W        W 6585   9.347   5.361   9.684
 2842W        W 6586   3.287   1.285   9.081
 2843W        W 6587   1.018   4.796   1.959
 2844W        W 6588   8.533   6.196   3.177
 2845W        W 6589   9.410   6.301   9.303
 2846W        W 6590   6.947  10.444   0.296
 2847W        W 6591   0.019   0.744   2.310
 2848W        W 6592   6.684   7.831  11.918
 2849W        W 6593   5.300   1.430  11.506
 2850W        W 6594   6.221   8.890   2.965
 2851W        W 6595   1.395   0.965  10.020
 2852W        W 6596   7.935   2.150   2.329
 2853W        W 6597   1.013   5.851   0.320
 2854W        W 6598   8.681   0.032   0.458
 2855W        W 6599   4.654   8.927   9.614
 2856W        W 6600   5.548   3.224   0.161
 2857W        W 6601   1.849   6.768  11.210
 2858W        W 6602   4.147   6.377   0.602
 2859W        W 6603   3.456  10.047  11.997
 2860W        W 6604   2.607   4.110  10.407
 2861W        W 6605   5.253   8.676   3.775
 2862W        W 6606   0.488   8.951   2.073
 2863W        W 6607   1.322   2.029  11.847
 2864W        W 6608   0.414   7.175   2.876
 2865W        W 6609   3.211   1.846   9.861
 2866W        W 6610   7.254   0.371   9.950
 2867W        W 6611   4.739   3.132  10.252
 2868W        W 6612   4.546   9.426   9.576
 2869W        W 6613   8.489   4.509   3.659
 2870W        W 6614   8.590   3.865   0.049
 2871W        W 6615   9.431   1.844   3.350
 2872W        W 6616   3.042   2.660   1.084
 2873W        W 6617   1.270  10.356   9.244
 2874W        W 6618   6.637   5.663   0.928
 2875W        W 6619   4.420   5.831  11.403
 2876W        W 6620   7.957   8.159  10.827
 2877W        W 6621   1.401   4.747  11.838
 2878W        W 6622   1.842   9.927   1.134
 2879W        W 6623   3.005   9.164  11.868
 2880W        W 6624   8.808   9.517   0.285
 2881W        W 6625   4.178   7.416  10.132
 2882W        W 6626   8.505   1.310  10.452
 2883W        W 6627   3.028   0.067   2.087
 2884W        W 6628   0.424   7.110   1.927
 2885W        W 6629   9.259   9.284   1.951
 2886W        W 6630   7.388   0.088   1.458
 2887W        W 6631   1.121   8.289   1.921
 2888W        W 6632   5.055   8.729   9.299
 2889W        W 6633   4.590   9.096  11.984
 2890W        W 6634   1.510   9.327   1.158
 2891W        W 6635   2.773   9.481   9.244
 2892W        W 6636   5.929   7.991   8.938
 2893W        W 6637   7.848   9.761  10.408
 2894W        W 6638   6.185   4.223   0.709
 2895W        W 6639   3.338   0.460  10.485
 2896W        W 6640   8.303   2.324   1.974
 2897W        W 6641   4.629   2.647   1.892
 2898W        W 6642  10.161   5.218   0.500
 2899W        W 6643   6.751   1.661  10.555
 2900W        W 6644   2.131   2.182   1.450
 2901W        W 6645   8.352   6.940  11.801
 2902W        W 6646   6.902   6.596  10.301
 2903W        W 6647   8.062   5.220  10.947
 2904W        W 6648   8.770   5.716   1.472
 2905W        W 6649   4.021   4.664  11.645
 2906W        W 6650   6.018   5.303   9.625
 2907W        W 6651   9.870   4.185  11.399
 2908W        W 6652   4.312   3.097   9.971
 2909W        W 6653   1.594   4.561  11.149
 2910W        W 6654   2.387   4.300   3.323
 2911W        W 6655   7.123   6.914  11.217
 2912W        W 6656   5.679   4.210   2.671
 2913W        W 6657   2.830   9.323   0.868
 2914W        W 6658   3.038   4.721   1.157
 2915W        W 6659  10.327   3.489   1.286
 2916W        W 6660   4.883   8.655   2.504
 2917W        W 6661   5.204   0.490   0.260
 2918W        W 6662   8.182   3.739   8.009
 2919W        W 6663   7.909   6.931   3.487
 2920W        W 6664   2.721   9.447   9.747
 2921W        W 6665  10.178   5.967  10.758
 2922W        W 6666   9.801   5.632   2.642
 2923W        W 6667   5.125   7.525   9.571
 2924W        W 6668   3.576   4.000   9.394
 2925W        W 6669   1.113   0.107  11.714
 2926W        W 6670   1.668  10.231   0.373
 2927W        W 6671  10.470   7.376  10.072
 2928W        W 6672   7.677   6.528   9.047
 2929W        W 6673   8.309   5.811   1.276
 2930W        W 6674   4.593   6.285  11.864
 2931W        W 6675   3.397   4.530  11.088
 2932W        W 6676  10.025   1.355   9.146
 2933W        W 6677   0.189   5.263  10.212
 2934W        W 6678   0.980   1.620  10.702
 2935W        W 6679   1.682   7.425   1.968
 2936W        W 6680   0.216   0.391  10.875
 2937W        W 6681   7.020   4.870   0.705
 2938W        W 6682   6.828   8.951   1.857
 2939W        W 6683   4.566   8.541   9.261
 2940W        W 6684   7.526   4.769   1.390
 2941W        W 6685   4.189   8.297   0.486
 2942W        W 6686   5.124   3.206  11.871
 2943W        W 6687   4.692   5.963   1.745
 2944W        W 6688   8.647   8.091   9.270
 2945W        W 6689   0.174   4.452  10.398
 2946W        W 6690   6.379   2.037  10.526
 2947W        W 6691   0.237   7.987   0.746
 2948W        W 6692   9.812   0.375  11.296
 2949W        W 6693   8.476   7.445  10.502
 2950W        W 6694   1.187   5.197  11.753
 2951W        W 6695   6.552   3.755   2.332
 2952W        W 6696   5.192   7.417   2.627
 2953W        W 6697   3.861   1.272  11.958
 2954W        W 6698   2.525   6.658   0.400
 2955W        W 6699   5.550   8.067   2.216
 2956W        W 6700   5.100   8.361   0.022
 2957W        W 6701   0.467   1.357   3.198
 2958W        W 6702   6.269   2.128  10.031
 2959W        W 6703   8.104   5.522   2.228
 2960W        W 6704   4.265   4.811   0.361
 2961W        W 6705   1.277   2.834   1.958
 2962W        W 6706   0.246   4.218   3.328
 2963W        W 6707   5.279   3.508  11.208
 2964W        W 6708   1.969   8.257  10.620
 2965W        W 6709   5.707   2.107  10.280
 2966W        W 6710   9.038   1.216   9.268
 2967W        W 6711   9.280   7.895  10.640
 2968W        W 6712   7.781   6.036   3.612
 2969W        W 6713   4.224   2.087  10.226
 2970W        W 6714   0.599   8.527   1.293
 2971W        W 6715   8.540   5.092   0.780
 2972W        W 6716   8.829   1.997   8.265
 2973W        W 6717   4.069   3.230  10.789
 2974W        W 6718   4.171   6.098  10.150
 2975W        W 6719   2.244   7.889   8.799
 2976W        W 6720   0.427   4.641   3.562
 2977W        W 6721   1.665   9.471   2.458
 2978W        W 6722   3.763   1.405   9.863
 2979W        W 6723   9.771   8.384   3.376
 2980W        W 6724   0.925   3.212   9.478
 2981W        W 6725   7.032   4.067   1.313
 2982W        W 6726   0.719   2.804   9.198
 2983W        W 6727   5.178   4.038   2.746
 2984W        W 6728   2.996   6.902   0.659
 2985W        W 6729   4.012   6.865   0.735
 2986W        W 6730   9.094   4.643   9.339
 2987W        W 6731   3.783   5.744   9.465
 2988W        W 6732   5.526   4.297   8.704
 2989W        W 6733   7.874   2.636   3.224
 2990W        W 6734   1.710   1.665  10.547
 2991W        W 6735   3.676   7.148  11.459
 2992W        W 6736   8.708   2.230   3.394
 2993W        W 6737   6.979   0.467  11.361
 2994W        W 6738   2.402   8.390  10.382
 2995W        W 6739   1.661   3.553   0.303
 2996W        W 6740   3.176   6.453   8.952
 2997W        W 6741  10.362   4.188  11.222
 2998W        W 6742   5.210   2.357   3.693
 2999W        W 6743   4.274   3.389   3.179
 3000W        W 6744   3.603   5.915  11.829
 3001W        W 6745   9.483   4.115   0.828
 3002W        W 6746   6.203   5.721   0.546
 3003W        W 6747   0.939   3.316  11.805
 3004W        W 6748   2.716   4.948   1.494
 3005W        W 6749   0.898   7.090  11.107
 3006W        W 6750   3.249   5.926  10.122
 3007W        W 6751   8.554   1.860   1.887
 3008W        W 6752   6.630   9.817   1.505
 3009W        W 6753   7.053  10.401   9.879
 3010W        W 6754   5.010   9.351  11.734
 3011W        W 6755   4.240   7.047   1.965
 3012W        W 6756   7.829   9.644   0.778
 3013W        W 6757   7.095   8.557   8.687
 3014W        W 6758  10.039   5.717   0.398
 3015W        W 6759  10.051   3.506   8.422
 3016W        W 6760   1.333   3.297   3.212
 3017W        W 6761   4.246   6.171   1.474
 3018W        W 6762   4.735   7.483   0.481
 3019W        W 6763   0.971   5.591   8.953
 3020W        W 6764   5.691   0.396  10.977
 3021W        W 6765   5.535   0.987  11.808
 3022W        W 6766   8.020   8.881   9.024
 3023W        W 6767   6.025  10.312   8.950
 3024W        W 6768   1.444   0.225   0.201
 3025W        W 6769   9.792   1.408   1.241
 3026W        W 6770   8.553   5.248   2.236
 3027W        W 6771   2.702   6.035   3.437
 3028W        W 6772   4.692   3.167   9.198
 3029W        W 6773   9.906   5.250   1.252
 3030W        W 6774   5.201   0.279   0.742
 3031W        W 6775   2.841   1.789   9.017
 3032W        W 6776   5.186   5.568  10.972
 3033W        W 6777   2.627   3.158   2.627
 3034W        W 6778   9.667   2.295   3.456
 3035W        W 6779   8.944   6.507   9.220
 3036W        W 6780   0.996   9.545   0.313
 3037W        W 6781   6.468   9.971   0.109
 3038W        W 6782   4.499   4.489  11.684
 3039W        W 6783   1.773   5.895   1.222
 3040W        W 6784   6.014   8.865   9.331
 3041W        W 6785   7.637   9.565   9.489
 3042W        W 6786   3.734   6.991   1.183
 3043W        W 6787   7.025   4.053   0.786
 3044W        W 6788   8.033   5.037   2.080
 3045W        W 6789   8.451   0.281  10.465
 3046W        W 6790   6.538   4.048  10.837
 3047W        W 6791   4.553   0.836   8.569
 3048W        W 6792   8.923   1.788  11.673
 3049W        W 6793  10.191   7.460   3.098
 3050W        W 6794   3.182   4.951   3.167
 3051W        W 6795   5.951   3.596   3.304
 3052W        W 6796   1.496   7.578  10.812
 3053W        W 6797   0.442   2.252  11.698
 3054W        W 6798   4.707   9.598   1.345
 3055W        W 6799   8.058   3.407  11.311
 3056W        W 6800   5.177   7.491   9.036
 3057W        W 6801   2.186  10.325   1.201
 3058W        W 6802   1.918   5.147   1.750
 3059W        W 6803   9.079   5.017  10.947
 3060W        W 6804   4.621   2.524   1.028
 3061W        W 6805   1.916   3.178  11.515
 3062W        W 6806   3.790   6.252  11.485
 3063W        W 6807  10.353   1.768   9.615
 3064W        W 6808   1.272   3.891  10.606
 3065W        W 6809   9.455   5.526  10.149
 3066W        W 6810  10.028   5.637   3.185
 3067W        W 6811   6.627   6.156   2.291
 3068W        W 6812   3.808   7.115   8.864
 3069W        W 6813   3.117   6.379  11.322
 3070W        W 6814   1.842   5.034   8.867
 3071W        W 6815   2.590   3.713  10.092
 3072W        W 6816   7.911   9.874   8.679
 3073W        W 6817   4.289   8.435  10.430
 3074W        W 6818   0.705   7.878  10.941
 3075W        W 6819  10.475   6.950   9.802
 3076W        W 6820   4.196   9.413   1.595
 3077W        W 6821   2.037   0.279  11.394
 3078W        W 6822   8.156   2.907   1.186
 3079W        W 6823   2.048   8.525   1.808
 3080W        W 6824   1.179   1.318  10.319
 3081W        W 6825   7.460   6.631   2.467
 3082W        W 6826   7.514   0.884   8.510
 3083W        W 6827   6.749   1.794   1.253
 3084W        W 6828   0.207   6.992   9.348
 3085W        W 6829   2.802   1.257   9.314
 3086W        W 6830   7.490   4.090   0.257
 3087W        W 6831   2.574   2.783   8.952
 3088W        W 6832   4.373   0.883   3.229
 3089W        W 6833   7.481   5.527   0.370
 3090W        W 6834   3.328   7.496   9.867
 3091W        W 6835   4.797   0.362   8.637
 3092W        W 6836   0.463   9.503   9.176
 3093W        W 6837   3.540   8.660  11.305
 3094W        W 6838   6.499   0.022   0.970
 3095W        W 6839  10.255   5.169   9.265
 3096W        W 6840   2.570   1.440   0.348
 3097W        W 6841   7.233   7.467   9.913
 3098W        W 6842   3.853   6.596   2.699
 3099W        W 6843   3.327   1.780   1.263
 3100W        W 6844   7.504   0.152   0.314
 3101W        W 6845   6.464   5.516   9.469
 3102W        W 6846   9.170   5.862   2.246
 3103W        W 6847   4.507   9.909   3.232
 3104W        W 6848   5.937   7.587  11.301
 3105W        W 6849   6.700   3.432  10.281
 3106W        W 6850   9.667   1.253   3.382
 3107W        W 6851   6.746   2.778  11.943
 3108W        W 6852   3.140   6.100  10.898
 3109W        W 6853   7.440   0.048   9.377
 3110W        W 6854   1.921   4.480   2.424
 3111W        W 6855   5.721   5.605   9.955
 3112W        W 6856   6.497   6.373   2.731
 3113W        W 6857   3.456   0.055   9.275
 3114W        W 6858   8.521   9.053   3.010
 3115W        W 6859   0.823   0.612   3.683
 3116W        W 6860   9.454   4.672   8.984
 3117W        W 6861   4.000   2.976   3.127
 3118W        W 6862   2.220   9.063   0.763
 3119W        W 6863   2.211   1.964   9.118
 3120W        W 6864   2.884   9.503  10.644
 3121W        W 6865   1.364   9.933   8.953
 3122W        W 6866   9.040   7.493   2.087
 3123W        W 6867   7.427   1.459   3.208
 3124W        W 6868   9.015   2.236   9.063
 3125W        W 6869   0.778   6.349   9.389
 3126W        W 6870   0.045  10.451  10.696
 3127W        W 6871   9.742   7.237   2.239
 3128W        W 6872   2.562   7.646   1.955
 3129W        W 6873   5.937   2.534   8.865
 3130W        W 6874   2.726   9.523   0.169
 3131W        W 6875   4.217   8.215   2.406
 3132W        W 6876   9.888   3.369   2.866
 3133W        W 6877   3.792   9.465  10.802
 3134W        W 6878   0.244   4.447  11.496
 3135W        W 6879   6.574   4.635   9.689
 3136W        W 6880   7.502  10.441   1.909
 3137W        W 6881   0.154   0.442  11.848
 3138W        W 6882   6.477   3.103  11.056
 3139W        W 6883   0.054   9.479   0.857
 3140W        W 6884   8.320   8.406   9.556
 3141W        W 6885   3.767   6.483  10.158
 3142W        W 6886   7.332   5.612   1.694
 3143W        W 6887   1.465   8.896   8.473
 3144W        W 6888   8.442   1.654  11.435
 3145W        W 6889   1.756   3.660  11.433
 3146W        W 6890   6.245   1.511   0.014
 3147W        W 6891   2.722   6.969   2.488
 3148W        W 6892   0.032   1.844  10.615
 3149W        W 6893   7.184   6.156   8.553
 3150W        W 6894   8.818   7.022  10.270
 3151W        W 6895   0.793   6.828   1.659
 3152W        W 6896   7.580  10.221   0.608
 3153W        W 6897   5.338   3.817   8.643
 3154W        W 6898   9.481   0.062  10.433
 3155W        W 6899   2.303   8.136   2.579
 3156W        W 6900   1.655   8.611   2.117
 3157W        W 6901   8.204   2.610  11.977
 3158W        W 6902   4.678   5.212  10.327
 3159W        W 6903   0.046   0.846  10.687
 3160W        W 6904   9.897   4.470   0.793
 3161W        W 6905   0.965   6.613   0.720
 3162W        W 6906   7.397   9.503  10.565
 3163W        W 6907   5.165  10.264   2.040
 3164W        W 6908  10.415   6.417   2.029
 3165W        W 6909   3.029   1.874  11.955
 3166W        W 6910   4.851   3.379   8.775
 3167W        W 6911   7.674   0.932   1.488
 3168W        W 6912   5.746   2.682  10.915
 3169W        W 6913   3.104   6.242   2.753
 3170W        W 6914   6.327   9.071   0.359
 3171W        W 6915   6.178   4.305  10.494
 3172W        W 6916   2.348   8.127   2.069
 3173W        W 6917   7.636   9.925  11.858
 3174W        W 6918   5.161   5.627   1.158
 3175W        W 6919   4.155   1.576  10.178
 3176W        W 6920   3.610   5.223   2.739
 3177W        W 6921   6.102   0.169   9.315
 3178W        W 6922   4.120   1.365   9.055
 3179W        W 6923   4.978   2.728   0.696
 3180W        W 6924   1.032   8.431   9.953
 3181W        W 6925  10.359   8.239   9.046
 3182W        W 6926   2.272   5.636   9.503
 3183W        W 6927   0.918   0.977   9.228
 3184W        W 6928   2.488   4.260   0.473
 3185W        W 6929   5.585   8.049  10.376
 3186W        W 6930   6.885   3.020   2.665
 3187W        W 6931   3.309   4.522  10.598
 3188W        W 6932   6.919   5.397  11.487
 3189W        W 6933   0.473   3.778  11.004
 3190W        W 6934   9.884   1.390   9.670
 3191W        W 6935   6.272   5.627   9.985
 3192W        W 6936   5.974   5.077   1.714
 3193W        W 6937   8.920   8.078  11.689
 3194W        W 6938   8.534   8.549   1.756
 3195W        W 6939   6.633   1.292   8.872
 3196W        W 6940   2.144   9.670   0.232
 3197W        W 6941   5.219   7.557   0.986
 3198W        W 6942   4.161   6.190   8.837
 3199W        W 6943   8.030   0.488   9.090
 3200W        W 6944   2.775   4.444   1.485
 3201W        W 6945   2.642   4.534   8.241
 3202W        W 6946   2.236   1.488  11.711
 3203W        W 6947   6.020   6.112  10.527
 3204W        W 6948   3.142   4.126  10.314
 3205W        W 6949   3.196   0.393   0.242
 3206W        W 6950   9.906  10.265   0.486
 3207W        W 6951   8.872   8.822   1.265
 3208W        W 6952   7.230   3.551   3.726
 3209W        W 6953   9.300   6.884  10.380
 3210W        W 6954   0.632   8.419  11.643
 3211W        W 6955   4.591   7.148   9.990
 3212W        W 6956   8.132   9.547  10.833
 3213W        W 6957   9.434   7.575   0.366
 3214W        W 6958   3.175   8.345   9.004
 3215W        W 6959   1.916   8.534  11.952
 3216W        W 6960   6.058   9.514   0.335
 3217W        W 6961   4.048   4.893  10.463
 3218W        W 6962   4.649   9.103   1.873
 3219W        W 6963   8.457   5.062   2.946
 3220W        W 6964   0.237   5.517   1.436
 3221W        W 6965   4.047   9.710  11.439
 3222W        W 6966   1.584   3.468   3.608
 3223W        W 6967   0.733   7.447   8.733
 3224W        W 6968   1.352   5.625  10.982
 3225W        W 6969   9.453   6.174   1.450
 3226W        W 6970   4.759  10.373  11.847
 3227W        W 6971   0.946   6.095   1.858
 3228W        W 6972   0.455   9.988  10.882
 3229W        W 6973   7.841   0.126   0.852
 3230W        W 6974   5.643   8.011   9.558
 3231W        W 6975   6.314   5.442   1.843
 3232W        W 6976   9.871   3.817   2.654
 3233W        W 6977   2.830   5.179  11.488
 3234W        W 6978   8.445   9.719   9.695
 3235W        W 6979   9.956   0.409   1.420
 3236W        W 6980   6.375   9.469  10.825
 3237W        W 6981   9.302   4.944   0.263
 3238W        W 6982   0.794   3.631   0.267
 3239W        W 6983   4.999   4.826  10.285
 3240W        W 6984  10.402   7.995  11.313
 3241W        W 6985   6.773   1.222  10.012
 3242W        W 6986   0.626   1.648   0.484
 3243W        W 6987   1.983   6.321   9.574
 3244W        W 6988   6.055   9.359  11.431
 3245W        W 6989  10.136   7.341   9.643
 3246W        W 6990   6.141   3.517   8.921
 3247W        W 6991   3.809   6.328   8.435
 3248W        W 6992   2.861   6.107   1.940
 3249W        W 6993   5.212   6.994   2.331
 3250W        W 6994   7.786   4.385   0.727
 3251W        W 6995   8.065   9.793   2.930
 3252W        W 6996   6.768   6.494   8.593
 3253W        W 6997  10.203   9.069   0.911
 3254W        W 6998   9.054   8.027  10.201
 3255W        W 6999   5.194   0.392   8.970
 3256W        W 7000   0.440   1.953   2.634
 3257W        W 7001   5.990   5.078   2.750
 3258W        W 7002   3.610   7.898   3.052
 3259W        W 7003   2.756   0.276   3.127
 3260W        W 7004   9.443   1.247   1.590
 3261W        W 7005   7.943   3.268   9.977
 3262W        W 7006   8.157   0.943   1.296
 3263W        W 7007   3.150   5.021   2.348
 3264W        W 7008   6.667   0.989   2.952
 3265W        W 7009   6.095   8.114  10.537
 3266W        W 7010   1.923   5.588   3.244
 3267W        W 7011   7.224   5.436   9.784
 3268W        W 7012  10.497   5.296   1.027
 3269W        W 7013   0.700   5.285  11.666
 3270W        W 7014   9.115  10.309   0.422
 3271W        W 7015   8.665   4.642  10.297
 3272W        W 7016  10.067   0.325   3.546
 3273W        W 7017   5.311   8.386   9.572
 3274W        W 7018   9.607   6.706  11.283
 3275W        W 7019   7.863   4.235  10.467
 3276W        W 7020   8.437   6.947   9.573
 3277W        W 7021   7.354   6.283   3.779
 3278W        W 7022   5.571   3.775   2.964
 3279W        W 7023   5.789   5.791   0.259
 3280W        W 7024   3.116   2.718   1.580
 3281W        W 7025   5.089   6.739   8.937
 3282W        W 7026   7.865   4.210   9.591
 3283W        W 7027   2.711   6.669   9.004
 3284W        W 7028   3.590   9.491  11.295
 3285W        W 7029   7.911   0.384  11.497
 3286W        W 7030   7.657   5.566   8.114
 3287W        W 7031   8.570   5.441   9.318
 3288W        W 7032   8.295   0.448   3.689
 3289W        W 7033   2.651   6.483   2.650
 3290W        W 7034   5.312   5.529   3.142
 3291W        W 7035   7.484   0.499   3.421
 3292W        W 7036   3.770   9.167   1.825
 3293W        W 7037   6.591   6.002   9.275
 3294W        W 7038   6.450   8.635   2.215
 3295W        W 7039   0.122   8.423  11.554
 3296W        W 7040   5.924   7.104   8.177
 3297W        W 7041   1.418   2.410  10.474
 3298W        W 7042   7.440   3.417   0.824
 3299W        W 7043   1.026   1.824   2.069
 3300W        W 7044   7.357  10.321  11.690
 3301W        W 7045   6.174   3.244   1.932
 3302W        W 7046   7.880   4.712   9.010
 3303W        W 7047   4.228   9.621   0.320
 3304W        W 7048  10.046   5.476  10.829
 3305W        W 7049   6.464   8.082   2.177
 3306W        W 7050   0.016   7.466  10.975
 3307W        W 7051   1.180   0.465   9.952
 3308W        W 7052   1.704   1.836   9.224
 3309W        W 7053   5.735   1.811   2.015
 3310W        W 7054   3.010   2.796  10.795
 3311W        W 7055   9.919   5.234   2.356
 3312W        W 7056   8.557   9.765   2.109
 3313W        W 7057  10.364   9.869   1.168
 3314W        W 7058   4.323   7.129   2.970
 3315W        W 7059   4.031   6.329   3.371
 3316W        W 7060   4.307   1.393   2.316
 3317W        W 7061   9.987   9.796   0.233
 3318W        W 7062   5.245   4.762   9.271
 3319W        W 7063   2.217  10.301   8.584
 3320W        W 7064   4.721   7.507   8.610
 3321W        W 7065   3.685   7.849   0.731
 3322W        W 7066   7.422   7.640   1.265
 3323W        W 7067   8.434   9.719   3.525
 3324W        W 7068   2.708   4.983   9.035
 3325W        W 7069   6.484   9.258  11.686
 3326W        W 7070   1.896   2.623  10.424
 3327W        W 7071   8.470   0.884   3.455
 3328W        W 7072   8.192   1.229   0.044
 3329W        W 7073   5.564   3.632   0.459
 3330W        W 7074   7.008   4.502   1.050
 3331W        W 7075   2.340   0.422  10.476
 3332W        W 7076   2.858   9.535   3.470
 3333W        W 7077   0.671   0.422  10.032
 3334W        W 7078   9.324   7.458   1.251
 3335W        W 7079  10.263   7.065   0.688
 3336W        W 7080   4.735   7.677   9.214
 3337W        W 7081   0.171   8.084   9.920
 3338W        W 7082   8.127   7.552  10.125
 3339W        W 7083   9.113   0.332   0.434
 3340W        W 7084   8.971   9.423   8.760
 3341W        W 7085   1.770   1.233   0.895
 3342W        W 7086   5.683   3.632   0.953
 3343W        W 7087   7.324   1.775   9.434
 3344W        W 7088   4.011  10.359   3.232
 3345W        W 7089   1.824   2.311   8.997
 3346W        W 7090   3.636   0.515  10.961
 3347W        W 7091   3.419   4.557   0.008
 3348W        W 7092   2.415   1.927  10.356
 3349W        W 7093   1.253   5.055   2.462
 3350W        W 7094   1.050   5.168   8.590
 3351W        W 7095   4.343   3.668  10.825
 3352W        W 7096   0.236   3.356   2.388
 3353W        W 7097   8.940   7.949   2.314
 3354W        W 7098   4.592   8.335   0.904
 3355W        W 7099   3.929   4.608   8.671
 3356W        W 7100   2.975  10.307   0.853
 3357W        W 7101   8.329   4.969   9.136
 3358W        W 7102   2.423   8.620   3.312
 3359W        W 7103   5.344   0.748   1.659
 3360W        W 7104   8.415   6.076   0.363
 3361W        W 7105   5.135   3.333   0.856
 3362W        W 7106   6.964   9.983   2.155
 3363W        W 7107   2.125   8.916  10.056
 3364W        W 7108   0.824   5.207   2.242
 3365W        W 7109   5.686   9.903  11.943
 3366W        W 7110   8.122   3.661   1.346
 3367W        W 7111   5.688   7.551   3.359
 3368W        W 7112   6.767   2.841   9.938
 3369W        W 7113   5.825   4.489   0.245
 3370W        W 7114   0.019   9.455   8.509
 3371W        W 7115   5.421   2.143   9.830
 3372W        W 7116   8.888   2.717   3.347
 3373W        W 7117   4.217   8.432   1.797
 3374W        W 7118  10.025  10.478   3.191
 3375W        W 7119   4.959   7.681   1.409
 3376W        W 7120   1.818   2.825   0.736
 3377W        W 7121   5.724   7.831  10.833
 3378W        W 7122   3.822   0.536  11.503
 3379W        W 7123   6.632   8.556   8.931
 3380W        W 7124   9.593   2.782   0.938
 3381W        W 7125   9.460   8.917  10.173
 3382W        W 7126   6.239   2.553   3.654
 3383W        W 7127   3.585   8.910  10.801
 3384W        W 7128   3.136   7.764   0.403
 3385W        W 7129   4.078   4.021   0.964
 3386W        W 7130   1.360   5.501   0.489
 3387W        W 7131   7.756   8.141   2.730
 3388W        W 7132   5.106   9.924   1.351
 3389W        W 7133   3.260   6.927   9.068
 3390W        W 7134   8.125   5.414   3.107
 3391W        W 7135   9.400   0.426   1.064
 3392W        W 7136   8.836   3.243  10.048
 3393W        W 7137   9.034   9.340  11.334
 3394W        W 7138   5.736   2.724   3.758
 3395W        W 7139   1.773   5.516  10.720
 3396W        W 7140   6.933   4.270  11.391
 3397W        W 7141   4.276   3.880   0.169
 3398W        W 7142   2.193   8.098  11.068
 3399W        W 7143   6.180   7.654   8.616
 3400W        W 7144   1.770   1.236   9.745
 3401W        W 7145   5.417   6.487   0.019
 3402W        W 7146   1.312   7.142  10.125
 3403W        W 7147   8.911   3.571  11.774
 3404W        W 7148   6.041   5.178  11.625
 3405W        W 7149   0.513   7.858  10.451
 3406W        W 7150   7.432   6.520  11.380
 3407W        W 7151   8.171   7.852   2.762
 3408W        W 7152   2.535   0.171   1.922
 3409W        W 7153  10.185   0.539  10.941
 3410W        W 7154   6.367  10.481   2.240
 3411W        W 7155   2.751   5.102   4.061
 3412W        W 7156   8.372  10.312  10.312
 3413W        W 7157   9.022   3.539   8.665
 3414W        W 7158   7.176   3.687   0.464
 3415W        W 7159   8.205   7.969   9.804
 3416W        W 7160   0.693   1.206  10.446
 3417W        W 7161   6.747   9.302   9.384
 3418W        W 7162   1.149   0.457   1.883
 3419W        W 7163   4.206   9.350  11.129
 3420W        W 7164   4.974   7.416  10.597
 3421W        W 7165   8.173   6.926   0.283
 3422W        W 7166   4.718   5.440   9.849
 3423W        W 7167   4.020   6.588  11.084
 3424W        W 7168   7.075   8.285   3.451
 3425W        W 7169   3.826   1.983   3.505
 3426W        W 7170   7.391   6.302   0.771
 3427W        W 7171   4.251   3.212   8.916
 3428W        W 7172   0.957   0.395   2.369
 3429W        W 7173   4.292   0.918   0.388
 3430W        W 7174   5.231   1.259   0.985
 3431W        W 7175   7.498   4.763   0.894
 3432W        W 7176   6.935   3.742  10.918
 3433W        W 7177   7.135   1.696   0.935
 3434W        W 7178   5.481   4.894   0.907
 3435W        W 7179   7.549   0.205   8.883
 3436W        W 7180   1.884   6.224   9.044
 3437W        W 7181   6.098   6.757   3.252
 3438W        W 7182   6.480   4.824  10.238
 3439W        W 7183   2.117   9.898   8.873
 3440W        W 7184   3.599   0.837  11.868
 3441W        W 7185   6.541   6.302   3.509
 3442W        W 7186   3.618   9.946  10.540
 3443W        W 7187   7.572   9.064   2.993
 3444W        W 7188   6.471   8.284   9.362
 3445W        W 7189   0.318   1.570   9.392
 3446W        W 7190   9.392   4.863   9.659
 3447W        W 7191   6.094   2.859   0.684
 3448W        W 7192   1.134   4.295   2.479
 3449W        W 7193   8.900   4.882   2.416
 3450W        W 7194   9.508   3.569   1.618
 3451W        W 7195   4.348   2.789   2.309
 3452W        W 7196   0.711   9.206  10.414
 3453W        W 7197   3.849   8.523   1.273
 3454W        W 7198   1.047   2.860   8.795
 3455W        W 7199   4.760   3.078   4.058
 3456W        W 7200   7.043   1.910   0.003
 3457W        W 7201   0.643   6.616   8.499
 3458W        W 7202   1.739   6.085   2.541
 3459W        W 7203   6.945   7.914   3.144
 3460W        W 7204   5.158   8.333   2.837
 3461W        W 7205   5.363   8.833   0.409
 3462W        W 7206   8.851   5.540   8.781
 3463W        W 7207   7.000   9.255  11.827
 3464W        W 7208  10.379  10.214   0.238
 3465W        W 7209   1.477   3.262   0.685
 3466W        W 7210   7.065   6.609   1.006
 3467W        W 7211  10.362   0.675   0.214
 3468W        W 7212   9.933   4.179   9.606
 3469W        W 7213   3.291   5.002  11.280
 3470W        W 7214   7.878   6.932   2.941
 3471W        W 7215   4.717   3.040   1.000
 3472W        W 7216   4.114   4.130  11.730
 3473W        W 7217   9.434   8.315   1.782
 3474W        W 7218   0.878   2.862   0.957
 3475W        W 7219   2.891   5.201   1.922
 3476W        W 7220   0.949   2.328   9.074
 3477W        W 7221   9.891   7.108  11.405
 3478W        W 7222   5.693   7.121  11.345
 3479W        W 7223  10.120   4.558   0.356
 3480W        W 7224   5.546  10.017   3.303
 3481W        W 7225   5.162   1.247   9.514
 3482W        W 7226   1.219   4.218   2.987
 3483W        W 7227   9.729   3.994   9.167
 3484W        W 7228   3.738   8.202  11.371
 3485W        W 7229   0.424   8.636  11.206
 3486W        W 7230  10.215   2.156   0.583
 3487W        W 7231   5.103   0.687  11.775
 3488W        W 7232   7.219   1.886  10.527
 3489W        W 7233   3.819   8.816   9.947
 3490W        W 7234   8.066   3.231   0.199
 3491W        W 7235   1.853   7.885   0.764
 3492W        W 7236   5.529   8.809   1.172
 3493W        W 7237   1.285   8.125  11.444
 3494W        W 7238   9.958   4.697   3.418
 3495W        W 7239   2.663   2.961   1.266
 3496W        W 7240   6.530   8.991   1.118
 3497W        W 7241   1.882   3.560   2.708
 3498W        W 7242   8.693   0.528  10.101
 3499W        W 7243   6.625   6.739   1.382
 3500W        W 7244   5.611   9.963  10.079
 3501W        W 7245   8.793   3.620  10.994
 3502W        W 7246  10.009   0.278   0.308
 3503W        W 7247   9.856   8.309   2.863
 3504W        W 7248   3.173   1.343   1.477
 3505W        W 7249   5.689   6.304   3.731
 3506W        W 7250   4.519   7.668   8.068
 3507W        W 7251   2.830   8.103  10.379
 3508W        W 7252   6.710   5.931  11.276
 3509W        W 7253   2.673  10.290   3.562
 3510W        W 7254   1.375  10.086  11.131
 3511W        W 7255   1.884   6.955   1.981
 3512W        W 7256   3.190   4.767   1.667
 3513W        W 7257   7.112   0.269   3.142
 3514W        W 7258   7.933   0.808  10.701
 3515W        W 7259   2.326   2.881   0.436
 3516W        W 7260   3.058   1.877  10.778
 3517W        W 7261   1.483   2.967   3.661
 3518W        W 7262   8.063   3.536   3.358
 3519W        W 7263  10.269   9.463   2.962
 3520W        W 7264   2.935   1.179  10.840
 3521W        W 7265   0.259   4.291   1.905
 3522W        W 7266   9.668  10.319   9.592
 3523W        W 7267   1.334   1.804  10.227
 3524W        W 7268   7.263   7.896   9.632
 3525W        W 7269   4.491   0.789   2.731
 3526W        W 7270   5.757   8.067   1.615
 3527W        W 7271   1.196   4.292  11.924
 3528W        W 7272   3.103   9.916  10.451
 3529W        W 7273   6.587   0.175   1.831
 3530W        W 7274   5.371   0.489   3.509
 3531W        W 7275   5.098   9.987   2.506
 3532W        W 7276   0.621   0.225  11.939
 3533W        W 7277   6.578   4.497  11.090
 3534W        W 7278   0.740   0.413  11.059
 3535W        W 7279   2.916   1.648  10.284
 3536W        W 7280   3.174   7.861   0.932
 3537W        W 7281   2.635   4.264  11.957
 3538W        W 7282   2.269   1.655  11.232
 3539W        W 7283   4.661   9.618   9.078
 3540W        W 7284   3.715   0.324   0.986
 3541W        W 7285   4.999   6.069   0.870
 3542W        W 7286   3.343   2.688  11.769
 3543W        W 7287   0.468   4.018   1.530
 3544W        W 7288   7.590   7.427  10.768
 3545W        W 7289   7.110   6.231  11.073
 3546W        W 7290   8.430   8.940   0.977
 3547W        W 7291   0.554   2.571   3.407
 3548W        W 7292   0.388   7.442  11.862
 3549W        W 7293   3.569   4.968  10.718
 3550W        W 7294   7.111   8.819   9.628
 3551W        W 7295   9.754   4.297   3.166
 3552W        W 7296   3.641   8.504  11.799
 3553W        W 7297   3.979   0.049   2.192
 3554W        W 7298   7.023   7.911   2.117
 3555W        W 7299   1.376   4.975  11.355
 3556W        W 7300   0.331   5.288  11.317
 3557W        W 7301   7.524   3.207   9.687
 3558W        W 7302  10.005   9.112   9.406
 3559W        W 7303   7.120   0.400   1.163
 3560W        W 7304   0.572   1.328   9.016
 3561W        W 7305   5.713   6.415   1.435
 3562W        W 7306   8.864   0.532  10.627
 3563W        W 7307   0.816   7.018  10.077
 3564W        W 7308   4.551   7.649  10.766
 3565W        W 7309   2.348   6.880   8.126
 3566W        W 7310   4.742   6.836   3.142
 3567W        W 7311   2.854   3.191  11.402
 3568W        W 7312  10.355   2.981   1.295
 3569W        W 7313   0.530   7.016   8.931
 3570W        W 7314   9.951   9.504   9.070
 3571W        W 7315   4.257   3.657   2.703
 3572W        W 7316   8.545   6.665   3.452
 3573W        W 7317   0.801   7.784   9.105
 3574W        W 7318   1.916   2.201   9.510
 3575W        W 7319   7.270   9.420   2.768
 3576W        W 7320   1.478   7.973   9.544
 3577W        W 7321   6.688   7.011  10.927
 3578W        W 7322   4.593   0.761  11.798
 3579W        W 7323   1.294   1.029  11.550
 3580W        W 7324   5.194   4.273   9.117
 3581W        W 7325   6.719   7.384   9.996
 3582W        W 7326   4.002   3.123   1.412
 3583W        W 7327   4.712   6.943   2.136
 3584W        W 7328   5.566   2.557  10.465
 3585W        W 7329   6.284   8.679   8.586
 3586W        W 7330   4.040   8.027   8.711
 3587W        W 7331   2.231   6.588   9.209
 3588W        W 7332  10.272   7.997   2.825
 3589W        W 7333   3.128   1.878   3.261
 3590W        W 7334  10.437   0.899  11.763
 3591W        W 7335   7.496  10.087   1.540
 3592W        W 7336   1.314   3.290   2.681
 3593W        W 7337   3.368   6.113   1.874
 3594W        W 7338   0.835   4.709   2.426
 3595W        W 7339   6.064   2.006  11.747
 3596W        W 7340   8.609   9.398   1.287
 3597W        W 7341   6.552   2.306   2.981
 3598W        W 7342   6.926   6.465  11.495
 3599W        W 7343   4.541   1.115   9.241
 3600W        W 7344   0.763   8.425   2.762
 3601W        W 7345  10.263   0.793   3.483
 3602W        W 7346   4.290   9.426  10.612
 3603W        W 7347   0.518   2.837   8.717
 3604W        W 7348   4.187   4.231   3.599
 3605W        W 7349   4.566   9.968   0.469
 3606W        W 7350   2.209   3.765   9.763
 3607W        W 7351   5.604   5.109   9.842
 3608W        W 7352   5.494   9.878  11.064
 3609W        W 7353   9.299   9.013   8.719
 3610W        W 7354   1.429   9.264   0.636
 3611W        W 7355   9.369   8.093  11.955
 3612W        W 7356   1.389   9.936   2.843
 3613W        W 7357   2.481   1.816   0.021
 3614W        W 7358   5.948   7.918   9.971
 3615W        W 7359   0.766  10.217   2.910
 3616W        W 7360   1.226   2.857   2.966
 3617W        W 7361   5.684   3.613   4.295
 3618W        W 7362   0.392   8.962  11.590
 3619W        W 7363   2.636   7.536  11.496
 3620W        W 7364   7.458  10.106  11.239
 3621W        W 7365   1.753   2.817   1.726
 3622W        W 7366   1.740   9.300   9.964
 3623W        W 7367  10.358   5.967   8.505
 3624W        W 7368   2.046   7.123   8.490
 3625W        W 7369  10.012   7.910  10.309
 3626W        W 7370   1.236   3.639  11.561
 3627W        W 7371   7.179   0.164   3.646
 3628W        W 7372   3.985   0.901  10.959
 3629W        W 7373   7.778   6.147  10.446
 3630W        W 7374   7.674   1.986   9.750
 3631W        W 7375   7.989   7.912   3.233
 3632W        W 7376   1.706   5.204  11.870
 3633W        W 7377   5.042   4.171   8.141
 3634W        W 7378   8.072   1.999  11.397
 3635W        W 7379   5.343   4.439   0.685
 3636W        W 7380   8.728   2.602   0.699
 3637W        W 7381   6.859   1.751   9.647
 3638W        W 7382   6.948   4.032  10.487
 3639W        W 7383   1.357   4.333   9.884
 3640W        W 7384   5.297   6.659   8.475
 3641W        W 7385  10.036   2.228  11.209
 3642W        W 7386   2.456   1.308   3.615
 3643W        W 7387   5.743   5.104   2.173
 3644W        W 7388   6.948   0.172   0.743
 3645W        W 7389  10.311   9.033   3.258
 3646W        W 7390   9.952   2.879   2.750
 3647W        W 7391   4.704   3.114  11.576
 3648W        W 7392   2.267   9.899   2.932
 3649W        W 7393  10.272   3.083  10.858
 3650W        W 7394   9.503   1.106  11.945
 3651W        W 7395   4.420   8.888  11.128
 3652W        W 7396   0.893   6.677   2.570
 3653W        W 7397   7.950   4.093   2.172
 3654W        W 7398   6.494   9.060   8.974
 3655W        W 7399   5.219   8.378   8.892
 3656W        W 7400   4.984  10.443   9.731
 3657W        W 7401   4.506   9.593   2.331
 3658W        W 7402   1.149   0.486   0.748
 3659W        W 7403   4.871   0.248  10.560
 3660W        W 7404   3.890   9.878   1.186
 3661W        W 7405   4.185   7.901  10.298
 3662W        W 7406   3.741   1.931  11.496
 3663W        W 7407  10.277   8.445   1.691
 3664W        W 7408   7.631   1.827   1.654
 3665W        W 7409   7.503   9.977  10.730
 3666W        W 7410   8.837   9.001   1.746
 3667W        W 7411   1.785   8.104  11.485
 3668W        W 7412   1.026   5.542   3.229
 3669W        W 7413   9.474   7.882   3.459
 3670W        W 7414   9.393   8.600  11.857
 3671W        W 7415   8.598   4.295  11.779
 3672W        W 7416   3.530  10.300   3.066
 3673W        W 7417   4.176   4.378  11.251
 3674W        W 7418   9.780   0.978   1.842
 3675W        W 7419   7.470   8.925   4.027
 3676W        W 7420   2.587   2.357   0.436
 3677W        W 7421   9.849   9.803  11.710
 3678W        W 7422   4.447   3.632   9.119
 3679W        W 7423   9.369   2.253   2.673
 3680W        W 7424   4.217   6.553   9.921
 3681W        W 7425   1.007   2.387   0.770
 3682W        W 7426   6.243   0.770   1.138
 3683W        W 7427   5.984   5.691  11.376
 3684W        W 7428   4.232   8.961  10.299
 3685W        W 7429   8.504   8.002   1.031
 3686W        W 7430   0.492   5.110   0.124
 3687W        W 7431   7.817   9.358   0.338
 3688W        W 7432   2.843   9.039   3.308
 3689W        W 7433   2.193   1.226   1.178
 3690W        W 7434   9.910   2.351   2.712
 3691W        W 7435   1.809   1.431   1.436
 3692W        W 7436   0.292   4.921  11.682
 3693W        W 7437   8.931   7.987   2.839
 3694W        W 7438   8.939   1.749   9.335
 3695W        W 7439   4.566   9.082   2.450
 3696W        W 7440   8.339   2.356   2.539
 3697W        W 7441   3.615   1.388   0.408
 3698W        W 7442   8.278   6.301   3.723
 3699W        W 7443   1.829   4.801  11.569
 3700W        W 7444   6.752   6.734   9.059
 3701W        W 7445   7.632   0.900   0.708
 3702W        W 7446   8.571   1.457  10.974
 3703W        W 7447   2.081   9.307  10.354
 3704W        W 7448   9.839   4.632   9.898
 3705W        W 7449   3.779   9.145  10.383
 3706W        W 7450   0.697   9.436   2.222
 3707W        W 7451   2.650   2.288  11.918
 3708W        W 7452   2.833   3.086   3.086
 3709W        W 7453   9.948   6.401   1.843
 3710W        W 7454   1.452   3.620   8.680
 3711W        W 7455   9.435   3.954  11.555
 3712W        W 7456   8.324  10.022  10.756
 3713W        W 7457   1.987   4.899   3.693
 3714W        W 7458   0.752   6.512   2.072
 3715W        W 7459   0.639   0.360   1.948
 3716W        W 7460   9.629   4.285   8.735
 3717W        W 7461   0.888   2.760  11.870
 3718W        W 7462   8.104   7.943  11.780
 3719W        W 7463   6.472   8.501  10.876
 3720W        W 7464   3.570   7.507   9.343
 3721W        W 7465   3.309   3.819   2.652
 3722W        W 7466   6.014   6.093  10.014
 3723W        W 7467  10.407   8.168  11.938
 3724W        W 7468   9.779   4.995   0.782
 3725W        W 7469   7.472   4.581  11.007
 3726W        W 7470   5.185   8.357  10.071
 3727W        W 7471  10.324   5.112  10.561
 3728W        W 7472  10.295   7.047   1.202
 3729W        W 7473   7.142   7.212  10.799
 3730W        W 7474   7.608   9.112   9.746
 3731W        W 7475   8.599   9.256   9.577
 3732W        W 7476   9.578   3.510   9.369
 3733W        W 7477   0.032   0.844   9.722
 3734W        W 7478   9.909   9.317   9.891
 3735W        W 7479   9.904   6.134   9.466
 3736W        W 7480   6.912  10.163  11.877
 3737W        W 7481   5.440   9.962   1.723
 3738W        W 7482   5.504   3.315   9.838
 3739W        W 7483   9.552   6.654   1.676
 3740W        W 7484   5.064   8.509  11.546
 3741W        W 7485   3.735  10.484  10.816
 3742W        W 7486   9.339   9.487   0.514
 3743W        W 7487   4.805   8.705   8.837
 3744W        W 7488   9.349  10.328  11.854
 3745W        W 7489   3.738   8.654   1.755
 3746W        W 7490  10.350   5.542   9.968
 3747W        W 7491   1.422   3.736   2.866
 3748W        W 7492   6.601   8.497   1.310
 3749W        W 7493   2.886   7.428   2.321
 3750W        W 7494   3.105   5.140  10.824
 3751W        W 7495   5.257   9.668   0.048
 3752W        W 7496   0.032   3.205   9.923
 3753W        W 7497   9.385   3.285   0.290
 3754W        W 7498   8.911   8.346   1.057
 3755W        W 7499   4.280   6.807   3.379
 3756W        W 7500   9.977   8.826   0.539
 3757W        W 7501   2.446   3.404   0.381
 3758W        W 7502   7.418   2.442   0.940
 3759W        W 7503   6.692   0.306   8.730
 3760W        W 7504   2.667   6.930   8.529
 3761W        W 7505   0.253   3.355   0.337
 3762W        W 7506   9.395   6.237   3.133
 3763W        W 7507   7.580  10.488   9.858
 3764W        W 7508   2.994   6.721   2.935
 3765W        W 7509   1.463   8.200   3.193
 3766W        W 7510   2.781   2.742   0.184
 3767W        W 7511   1.291   9.773   8.460
 3768W        W 7512   5.789   4.253   3.607
 3769W        W 7513   0.195   4.151   2.839
 3770W        W 7514   9.760   5.873  11.019
 3771W        W 7515   6.017  10.390   9.913
 3772W        W 7516   4.228   7.334   0.448
 3773W        W 7517   7.336   9.022   0.214
 3774W        W 7518  10.307   9.484   2.465
 3775W        W 7519   3.269   7.084  11.755
 3776W        W 7520   2.470   7.830  11.868
 3777W        W 7521   5.703   0.708  11.424
 3778W        W 7522   9.199   2.286   3.182
 3779W        W 7523   3.751   3.168  11.176
 3780W        W 7524   4.726   3.169   3.206
 3781W        W 7525   7.394   6.981   1.651
 3782W        W 7526   2.388   9.957   9.651
 3783W        W 7527   8.324   3.781  11.052
 3784W        W 7528   5.651   9.088   0.758
 3785W        W 7529   3.836   9.448   2.891
 3786W        W 7530   1.712   9.454  11.290
 3787W        W 7531   1.716   6.518   2.981
 3788W        W 7532   3.349   7.381   8.914
 3789W        W 7533   0.259   1.637   8.387
 3790W        W 7534   6.541   0.184  11.497
 3791W        W 7535   4.706   4.584  11.191
 3792W        W 7536   8.222   2.654   0.748
 3793W        W 7537   6.194   8.199   1.376
 3794W        W 7538   0.814   9.302  11.546
 3795W        W 7539   5.131   6.054   2.449
 3796W        W 7540   2.672   8.098  10.860
 3797W        W 7541   6.139   4.255   1.236
 3798W        W 7542   4.765   8.555  10.282
 3799W        W 7543   5.613   9.042  10.537
 3800W        W 7544   7.533   0.079  10.350
 3801W        W 7545   4.506   4.719  10.352
 3802W        W 7546   7.142   4.923   3.338
 3803W        W 7547   4.903   7.289   8.078
 3804W        W 7548   8.020   3.202   1.589
 3805W        W 7549   5.468  10.436   9.932
 3806W        W 7550   9.171   6.697   0.131
 3807W        W 7551   9.592   8.968   9.697
 3808W        W 7552   2.241   0.748   9.644
 3809W        W 7553   8.048   6.609  10.243
 3810W        W 7554   5.214   7.088   4.235
 3811W        W 7555   7.368   7.133  10.335
 3812W        W 7556   3.063   6.634  11.766
 3813W        W 7557   0.293   2.912   9.583
 3814W        W 7558   6.202   7.048   3.990
 3815W        W 7559   1.833   6.717   1.524
 3816W        W 7560   1.136   5.256   1.061
 3817W        W 7561   8.732   7.455   3.578
 3818W        W 7562   1.326   7.068  10.654
 3819W        W 7563   8.808  10.283   0.915
 3820W        W 7564   7.019   7.084   8.785
 3821W        W 7565   1.823   4.957   2.296
 3822W        W 7566   4.235   5.206  10.083
 3823W        W 7567   6.186   8.373   2.885
 3824W        W 7568   5.074   3.355   0.359
 3825W        W 7569   3.163   1.013   2.865
 3826W        W 7570  10.431   0.639   1.365
 3827W        W 7571   1.519   7.809   2.416
 3828W        W 7572   6.912   6.284   8.122
 3829W        W 7573   5.948   9.640  11.019
 3830W        W 7574   4.455   1.700   2.816
 3831W        W 7575   8.134   2.785   2.799
 3832W        W 7576   8.590   6.773   0.937
 3833W        W 7577   4.811   1.334   2.117
 3834W        W 7578   9.404  10.123   2.180
 3835W        W 7579   9.957  10.147   0.984
 3836W        W 7580   7.653   8.145   0.034
 3837W        W 7581   3.271   6.004   9.171
 3838W        W 7582   2.277   5.985  11.874
 3839W        W 7583   8.370   6.935  10.480
 3840W        W 7584   0.226   7.154   0.953
 3841W        W 7585   8.551   2.829   9.984
 3842W        W 7586   5.159   6.509   2.150
 3843W        W 7587   1.370   6.851   8.888
 3844W        W 7588   5.648   3.323   2.758
 3845W        W 7589   8.124   6.530   3.172
 3846W        W 7590   4.682   9.849  10.816
 3847W        W 7591   8.986   4.739   1.539
 3848W        W 7592   1.766   2.880   9.986
 3849W        W 7593   7.047   8.958   2.849
 3850W        W 7594   6.133   6.502  10.839
 3851W        W 7595   1.328   3.304   2.171
 3852W        W 7596   7.050   2.739  11.540
 3853W        W 7597   9.871  10.250  11.977
 3854W        W 7598   3.756   8.123   9.537
 3855W        W 7599   3.139   1.423   1.993
 3856W        W 7600   6.476   0.219   0.456
 3857W        W 7601   5.075   1.786  10.757
 3858W        W 7602   2.280   5.573  11.502
 3859W        W 7603   5.371   5.704   8.581
 3860W        W 7604   2.195   7.375   9.661
 3861W        W 7605   6.133   8.099  11.069
 3862W        W 7606   2.164   7.795   9.349
 3863W        W 7607   6.945   3.490   2.536
 3864W        W 7608   1.887   4.523   1.413
 3865W        W 7609   0.339   0.949   2.687
 3866W        W 7610   0.916   5.082   9.947
 3867W        W 7611   0.462   4.842  10.074
 3868W        W 7612   4.625   5.365  11.198
 3869W        W 7613   5.120   3.799   0.137
 3870W        W 7614   4.311   4.601  10.818
 3871W        W 7615   5.569   3.313   2.262
 3872W        W 7616   2.097   9.758  10.576
 3873W        W 7617   7.642   9.606   1.650
 3874W        W 7618   4.097   6.057   0.999
 3875W        W 7619  10.323   1.788  11.459
 3876W        W 7620   8.972   2.864   1.477
 3877W        W 7621   0.588   5.907   1.463
 3878W        W 7622   7.405   0.546   9.477
 3879W        W 7623   8.493   3.909   3.312
 3880W        W 7624   9.072   2.239  11.469
 3881W        W 7625   9.350   4.610  10.099
 3882W        W 7626   1.916   9.032   2.888
 3883W        W 7627   1.804   0.887   9.345
 3884W        W 7628   9.437   1.268  10.924
 3885W        W 7629   8.576   4.595  11.310
 3886W        W 7630   8.500   2.717   8.943
 3887W        W 7631   8.936   1.819   3.190
 3888W        W 7632   7.210   7.904   8.559
 3889W        W 7633   1.969   7.722   2.644
 3890W        W 7634   9.900   0.666   0.989
 3891W        W 7635   1.164   4.051   1.454
 3892W        W 7636   5.745   1.279  10.761
 3893W        W 7637   8.058   7.841  11.260
 3894W        W 7638   2.276   5.256   3.463
 3895W        W 7639   8.006   9.801   9.195
 3896W        W 7640   2.686   8.962  10.981
 3897W        W 7641  10.496   1.837  11.954
 3898W        W 7642   9.436   8.585   2.748
 3899W        W 7643   3.195   4.709   3.612
 3900W        W 7644   9.748   0.850  11.017
 3901W        W 7645   7.147   6.690  10.742
 3902W        W 7646   9.048   0.733   0.760
 3903W        W 7647   9.970   9.978  10.819
 3904W        W 7648   5.241   9.709  10.367
 3905W        W 7649   7.515   8.573   3.151
 3906W        W 7650   5.713   6.460   0.937
 3907W        W 7651   1.390   9.547  10.889
 3908W        W 7652   9.777   3.710   9.812
 3909W        W 7653   7.059   0.071   9.024
 3910W        W 7654   6.475   6.639  11.219
 3911W        W 7655   1.745   6.184  11.845
 3912W        W 7656   5.267   4.467  11.013
 3913W        W 7657   5.684   4.219   2.152
 3914W        W 7658   5.564   5.057   3.134
 3915W        W 7659   1.946   3.231   9.661
 3916W        W 7660   6.154   3.335  11.426
 3917W        W 7661   6.363   7.734   1.278
 3918W        W 7662   5.640   0.268   0.409
 3919W        W 7663   3.264   4.982   4.043
 3920W        W 7664   8.202   6.692   2.210
 3921W        W 7665   1.074   3.547   1.472
 3922W        W 7666   4.791   9.468   3.173
 3923W        W 7667  10.466  10.483  10.202
 3924W        W 7668   9.287   4.059   2.505
 3925W        W 7669   8.378   1.868   2.359
 3926W        W 7670   3.679   4.025   1.361
 3927W        W 7671   1.071   7.100   9.646
 3928W        W 7672   9.656   4.741  10.477
 3929W        W 7673   2.767   1.222   0.771
 3930W        W 7674   2.242   8.308  11.565
 3931W        W 7675   8.029   8.450  11.772
 3932W        W 7676   1.825  10.040   1.641
 3933W        W 7677   6.543   9.346  10.348
 3934W        W 7678   9.621   3.790  10.610
 3935W        W 7679  10.492   0.817  11.244
 3936W        W 7680   1.241   1.386   2.279
 3937W        W 7681   9.460   2.684   1.508
 3938W        W 7682   4.880  10.241   2.988
 3939W        W 7683   4.127   2.695   9.063
 3940W        W 7684   9.439  10.040   2.707
 3941W        W 7685   5.605   6.641   8.930
 3942W        W 7686   8.072   2.878  10.721
 3943W        W 7687   1.793   2.778  11.800
 3944W        W 7688   3.593   0.910   2.609
 3945W        W 7689   8.478   8.917  10.284
 3946W        W 7690   0.270   4.214   9.231
 3947W        W 7691   1.575   1.481   8.883
 3948W        W 7692   4.951   2.237  11.876
 3949W        W 7693   8.598  10.482  10.881
 3950W        W 7694   2.142   1.068  10.061
 3951W        W 7695   0.946   6.994   2.120
 3952W        W 7696   8.042   0.681   1.747
 3953W        W 7697   7.292   6.225  10.355
 3954W        W 7698   9.342   0.910   3.521
 3955W        W 7699  10.484   5.099   9.720
 3956W        W 7700   8.818   5.087  10.496
 3957W        W 7701   8.955   4.628   8.865
 3958W        W 7702   4.911   3.725   8.399
 3959W        W 7703   4.978   5.683   0.286
 3960W        W 7704   2.380   0.305   2.792
 3961W        W 7705   9.724   9.011   3.521
 3962W        W 7706  10.468   8.597  10.083
 3963W        W 7707   6.333  10.325   2.752
 3964W        W 7708   4.254   5.349  10.575
 3965W        W 7709   7.067   3.361  11.232
 3966W        W 7710   1.453   1.670   0.207
 3967W        W 7711   7.427   5.164   9.353
 3968W        W 7712   3.263   0.477   1.284
 3969W        W 7713   1.232   3.676   1.007
 3970W        W 7714   7.071   6.096   9.093
 3971W        W 7715   5.977   2.112   9.133
 3972W        W 7716   9.852   1.828   9.387
 3973W        W 7717   0.868   1.700   2.526
 3974W        W 7718   3.323   9.572  11.799
 3975W        W 7719   6.578   0.505   0.869
 3976W        W 7720   3.327   3.972   3.124
 3977W        W 7721   3.412   5.409   3.219
 3978W        W 7722   7.230   4.117  11.813
 3979W        W 7723   1.216   6.118  11.881
 3980W        W 7724   0.872   9.616   9.485
 3981W        W 7725   7.172   7.482   2.392
 3982W        W 7726   9.398   3.656   1.118
 3983W        W 7727   3.926   9.719   0.704
 3984W        W 7728   5.575   1.684   3.024
 3985W        W 7729   3.287   4.897   0.513
 3986W        W 7730   5.076   4.071  10.748
 3987W        W 7731   8.038   5.392   1.261
 3988W        W 7732   4.517   4.132   9.404
 3989W        W 7733   5.345   9.759  11.549
 3990W        W 7734   7.492   9.589  10.036
 3991W        W 7735   6.882   9.395  10.726
 3992W        W 7736   0.204   6.185   0.829
 3993W        W 7737   2.631   5.656   9.932
 3994W        W 7738   3.178   4.198   1.246
 3995W        W 7739  10.182   6.913   9.368
 3996W        W 7740   9.619   7.432   0.835
 3997W        W 7741   7.064   5.236   0.288
 3998W        W 7742   5.934   0.811   9.957
 3999W        W 7743   8.127   8.459   2.585
 4000W        W 7744   6.595   6.685   2.257
 4001W        W 7745   6.946   4.877   9.932
 4002W        W 7746   3.861   3.074   9.244
 4003W        W 7747   1.737   2.235  11.345
 4004W        W 7748   6.821  10.329   2.500
 4005W        W 7749   1.392  10.373  10.259
 4006W        W 7750   5.953   4.740  10.337
 4007W        W 7751   4.957   7.881   8.273
 4008W        W 7752   8.418   3.607   8.470
 4009W        W 7753  10.240   1.068   8.762
 4010W        W 7754   8.946   2.475   1.843
 4011W        W 7755   2.894   4.607   4.094
 4012W        W 7756   4.669   6.469   2.330
 4013W        W 7757   5.068   7.168   1.338
 4014W        W 7758   0.712   6.182   0.925
 4015W        W 7759   9.542   0.069   0.271
 4016W        W 7760   2.905   3.707  10.524
 4017W        W 7761   3.227   8.325  11.511
 4018W        W 7762   7.873   2.415  10.507
 4019W        W 7763   0.849   1.368   0.917
 4020W        W 7764   9.485   1.847   0.913
 4021W        W 7765   7.187   2.626   2.548
 4022W        W 7766   1.465   8.441   1.045
 4023W        W 7767   3.047   2.532   0.601
 4024W        W 7768   7.561   6.093   2.749
 4025W        W 7769   5.630   1.146   1.277
 4026W        W 7770   7.019   9.651   0.816
 4027W        W 7771   9.562   7.181  10.067
 4028W        W 7772   5.948   6.675   4.248
 4029W        W 7773   4.604   3.229  10.817
 4030W        W 7774  10.052   0.989   1.401
 4031W        W 7775   0.410   8.927   1.552
 4032W        W 7776   2.707   7.909   1.222
 4033W        W 7777  10.351   8.540   0.740
 4034W        W 7778   9.950   5.449   1.766
 4035W        W 7779   6.666   5.275  11.981
 4036W        W 7780   5.069   7.886  10.292
 4037W        W 7781   9.941   4.961  10.876
 4038W        W 7782   9.843   1.443  10.184
 4039W        W 7783   4.250   4.438   9.086
 4040W        W 7784   5.593   9.507  10.707
 4041W        W 7785   4.506   6.008   0.698
 4042W        W 7786   7.646   5.533   3.997
 4043W        W 7787   2.141   0.379   9.995
 4044W        W 7788   6.461   9.998   2.387
 4045W        W 7789   5.216   9.447   0.651
 4046W        W 7790   9.667   9.819  11.221
 4047W        W 7791   7.955   0.298  10.560
 4048W        W 7792   0.813   7.900  11.487
 4049W        W 7793  10.341  10.314   1.922
 4050W        W 7794   5.697   3.578  10.918
 4051W        W 7795   2.298   5.063  11.630
 4052W        W 7796  10.073   5.701   2.194
 4053W        W 7797   4.708   2.748   9.795
 4054W        W 7798   6.061   7.195   3.526
 4055W        W 7799   7.591   6.666  10.469
 4056W        W 7800   1.630   8.577  11.533
 4057W        W 7801   5.988   7.125   1.891
 4058W        W 7802   8.732   1.741   3.631
 4059W        W 7803   4.492   7.938   8.497
 4060W        W 7804   8.399   6.185   9.122
 4061W        W 7805   3.399   4.628   8.646
 4062W        W 7806   8.376   9.260   0.054
 4063W        W 7807   1.336   6.387   2.660
 4064W        W 7808  10.182   4.154   2.899
 4065W        W 7809   7.461   5.808   0.804
 4066W        W 7810   0.001   1.732   2.484
 4067W        W 7811   2.924   2.065   9.468
 4068W        W 7812   0.101   1.587   1.783
 4069W        W 7813   4.059   6.915  10.306
 4070W        W 7814   6.742   4.602   3.267
 4071W        W 7815   7.181   2.652   1.370
 4072W        W 7816   4.865   2.821   2.314
 4073W        W 7817   4.885   9.517   2.673
 4074W        W 7818   5.138   4.682  11.474
 4075W        W 7819   8.976   0.443   1.414
 4076W        W 7820   4.012   7.534   3.046
 4077W        W 7821   1.819   3.250   1.987
 4078W        W 7822   1.681   9.490   2.970
 4079W        W 7823   7.110   7.871  11.464
 4080W        W 7824   1.273   4.262   0.432
 4081W        W 7825   9.369   8.574   8.987
 4082W        W 7826   0.813   3.843  11.781
 4083W        W 7827   0.742   7.105   0.751
 4084W        W 7828   3.358   8.857   3.300
 4085W        W 7829   9.621  10.380   3.499
 4086W        W 7830   1.198   2.870   0.515
 4087W        W 7831   6.942   9.970  11.370
 4088W        W 7832   2.318   3.817   2.736
 4089W        W 7833   4.941   4.228   0.919
 4090W        W 7834   4.648   4.946   9.898
 4091W        W 7835   2.772   1.132   3.223
 4092W        W 7836   8.994   8.410   2.562
 4093W        W 7837   3.297   2.381  10.121
 4094W        W 7838   1.803   6.269  11.314
 4095W        W 7839   4.629   7.625  10.268
 4096W        W 7840   6.491   3.041  10.504
 4097W        W 7841   7.338   1.043   9.404
 4098W        W 7842   7.049   7.458   9.417
 4099W        W 7843   4.078  10.101   0.351
 4100W        W 7844   8.385   1.979  10.971
 4101W        W 7845   5.658   1.132   0.740
 4102W        W 7846   8.183   6.624   1.620
 4103W        W 7847   9.410   3.108  11.263
 4104W        W 7848   0.282   7.810   0.253
 4105W        W 7849   0.308   1.768   8.908
 4106W        W 7850   4.465   1.027  10.985
 4107W        W 7851   7.497   2.718   1.808
 4108W        W 7852   8.329   0.923   9.233
 4109W        W 7853   4.683   3.019   0.106
 4110W        W 7854   5.866   2.390   0.045
 4111W        W 7855   7.376   5.030  11.377
 4112W        W 7856   7.448   3.245   1.884
 4113W        W 7857   1.223   7.446   2.184
 4114W        W 7858   4.188   0.784  10.388
 4115W        W 7859   6.748   1.468  11.949
 4116W        W 7860   2.612   3.872  11.425
 4117W        W 7861   6.950   0.973   0.277
 4118W        W 7862   1.443   8.653  10.522
 4119W        W 7863   8.327   9.813  10.220
 4120W        W 7864   8.041   6.023   0.006
 4121W        W 7865   1.902   8.531  11.096
 4122W        W 7866   9.775   9.853   9.821
 4123W        W 7867   3.786   1.810   9.011
 4124W        W 7868   4.448   8.088   0.083
 4125W        W 7869   5.198   9.445   1.156
 4126W        W 7870   1.312  10.305   9.757
 4127W        W 7871   6.501   3.649   3.205
 4128W        W 7872   2.809   8.550  10.644
 4129W        W 7873   5.534   6.402  11.118
 4130W        W 7874   7.033   8.656   1.101
 4131W        W 7875   5.133   8.964   0.871
 4132W        W 7876  10.166  10.293   1.424
 4133W        W 7877   1.436   9.080   2.705
 4134W        W 7878   4.641   5.454   1.849
 4135W        W 7879   1.255   8.463   8.734
 4136W        W 7880   4.482  10.454  11.418
 4137W        W 7881  10.394   3.655   2.141
 4138W        W 7882   8.066   7.512   9.591
 4139W        W 7883   4.061   6.823  11.530
 4140W        W 7884   7.345   7.529   3.187
 4141W        W 7885  10.060   6.857   2.421
 4142W        W 7886   2.822   4.558  10.477
 4143W        W 7887   6.106   0.205  11.765
 4144W        W 7888   0.458   0.445   2.441
 4145W        W 7889   2.774   5.509   0.753
 4146W        W 7890   4.594  10.328  10.548
 4147W        W 7891   6.180   0.312   8.838
 4148W        W 7892   5.604  10.375   1.446
 4149W        W 7893   6.915   3.821  10.034
 4150W        W 7894   2.860   8.876   2.794
 4151W        W 7895   7.571   5.263   1.395
 4152W        W 7896   2.311   5.652   0.508
 4153W        W 7897   9.366   7.591  11.051
 4154W        W 7898   7.419   9.055   2.443
 4155W        W 7899   8.661   2.412  11.865
 4156W        W 7900   8.798   6.142   9.922
 4157W        W 7901   8.988  10.026   1.791
 4158W        W 7902   3.738   8.097  10.460
 4159W        W 7903   3.290   2.169   0.901
 4160W        W 7904   0.022   2.907   0.799
 4161W        W 7905   0.740   2.924   1.473
 4162W        W 7906   4.186   8.871   9.390
 4163W        W 7907   3.619   8.073   9.056
 4164W        W 7908   1.646   2.215   2.314
 4165W        W 7909   0.287   6.008   3.191
 4166W        W 7910   4.780  10.360  11.002
 4167W        W 7911   0.243   6.100   2.671
 4168W        W 7912   0.877   5.556   9.743
 4169W        W 7913   5.073   6.523   2.644
 4170W        W 7914   1.837   9.913   9.342
 4171W        W 7915   8.010   8.834   9.568
 4172W        W 7916   5.143   1.286  10.020
 4173W        W 7917   4.792   2.036   0.993
 4174W        W 7918   6.627   4.255   2.309
 4175W        W 7919   2.764   0.678   1.471
 4176W        W 7920   3.294   8.591   2.871
 4177W        W 7921   6.127   0.459  11.291
 4178W        W 7922   7.761   0.426  11.003
 4179W        W 7923   2.513   6.975   0.859
 4180W        W 7924   9.989   5.524   8.899
 4181W        W 7925   8.112   3.038  11.700
 4182W        W 7926   5.488   0.794   2.461
 4183W        W 7927   5.567   7.309   0.680
 4184W        W 7928   2.230   8.614   2.811
 4185W        W 7929   3.301   3.691   1.181
 4186W        W 7930   7.219   3.886   8.938
 4187W        W 7931   2.807   8.487   9.684
 4188W        W 7932   6.072   3.845  10.697
 4189W        W 7933   7.653   4.236   3.536
 4190W        W 7934   2.402   4.784   3.157
 4191W        W 7935   0.318   1.240  11.259
 4192W        W 7936   8.010   7.388  11.047
 4193W        W 7937   6.503   5.851  10.391
 4194W        W 7938   0.288   9.529  10.051
 4195W        W 7939   5.044   6.650  11.252
 4196W        W 7940   2.192   6.041   2.792
 4197W        W 7941   9.233   9.044   0.926
 4198W        W 7942   0.060   3.762   9.421
 4199W        W 7943   2.206   3.321   2.359
 4200W        W 7944   7.068   1.145   3.386
 4201W        W 7945   3.197   7.689   2.733
 4202W        W 7946   9.440   5.054   2.331
 4203W        W 7947   8.702   1.759  10.606
 4204W        W 7948   3.162   5.605  11.026
 4205W        W 7949   1.791   0.270   2.597
 4206W        W 7950   9.968   2.774   2.230
 4207W        W 7951   6.729   4.830   1.305
 4208W        W 7952   3.032   8.806  11.456
 4209W        W 7953   8.803   8.899  11.473
 4210W        W 7954   2.150   8.981  10.939
 4211W        W 7955   5.890   7.662   0.514
 4212W        W 7956   8.496   8.131   3.090
 4213W        W 7957   3.634   5.641   0.311
 4214W        W 7958   4.971   6.891   0.867
 4215W        W 7959   2.304   9.361   1.641
 4216W        W 7960   2.589   2.367  11.419
 4217W        W 7961   2.871   5.088   9.851
 4218W        W 7962   8.014   2.345   9.535
 4219W        W 7963   6.714   2.329   9.758
 4220W        W 7964   0.981   8.367   3.230
 4221W        W 7965   8.909   4.630   9.827
 4222W        W 7966   1.930   6.519   0.571
 4223W        W 7967   3.413   8.169   1.851
 4224W        W 7968   4.291  10.297   1.856
 4225W        W 7969   3.345   5.762  10.580
 4226W        W 7970   6.027   1.721  10.269
 4227W        W 7971   1.381   3.723   1.859
 4228W        W 7972   3.425   9.583   0.670
 4229W        W 7973   7.137   6.579   3.293
 4230W        W 7974   5.399   2.034   1.705
 4231W        W 7975   2.124   4.673   0.535
 4232W        W 7976   4.959   1.496   3.426
 4233W        W 7977   9.249   8.506  10.405
 4234W        W 7978   8.549   8.052   1.530
 4235W        W 7979   3.771   3.213   1.875
 4236W        W 7980   0.263   6.459   9.422
 4237W        W 7981   5.998   1.740  10.770
 4238W        W 7982   3.693   4.897   3.137
 4239W        W 7983   2.094   1.324   0.197
 4240W        W 7984   2.743   2.361  10.779
 4241W        W 7985   7.987   1.339   0.496
 4242W        W 7986   6.977   4.192   0.261
 4243W        W 7987   5.630   0.476  11.908
 4244W        W 7988   2.291   6.712   1.295
 4245W        W 7989   9.794   9.286   0.342
 4246W        W 7990   4.080   8.997  10.774
 4247W        W 7991   7.190   1.831   2.960
 4248W        W 7992   6.990   8.404   9.276
 4249W        W 7993   8.852   4.064  11.397
 4250W        W 7994   2.246   4.452  10.329
 4251W        W 7995  10.047   5.551   0.876
 4252W        W 7996   6.932   7.140   1.487
 4253W        W 7997   3.101   5.012   9.372
 4254W        W 7998   8.056   8.898   2.848
 4255W        W 7999   9.186   0.508   2.342
 4256W        W 8000   5.653   0.391   9.214
 4257W        W 8001   2.704   3.606   9.125
 4258W        W 8002   8.939   1.465  10.228
 4259W        W 8003   0.688   9.332   2.719
 4260W        W 8004   7.801   5.043   3.271
 4261W        W 8005   0.813   1.902   1.265
 4262W        W 8006   6.629   8.554   3.219
 4263W        W 8007   7.450   3.433   2.396
 4264W        W 8008  10.493   5.573   0.218
 4265W        W 8009   4.715   5.479   1.348
 4266W        W 8010   3.158   5.104  11.979
 4267W        W 8011   3.279   0.449   9.590
 4268W        W 8012   7.620   4.753  10.323
 4269W        W 8013   4.333   4.905  11.304
 4270W        W 8014   1.587   8.837  10.058
 4271W        W 8015   6.006   6.597  10.317
 4272W        W 8016   4.300   1.761  10.640
 4273W        W 8017   8.482   6.660  10.955
 4274W        W 8018   0.310   8.649  11.985
 4275W        W 8019   7.381  10.484   0.978
 4276W        W 8020   6.557   9.878   9.251
 4277W        W 8021   7.198   0.889   9.975
 4278W        W 8022   6.252   2.875   2.335
 4279W        W 8023   3.719   8.224   0.266
 4280W        W 8024   8.438   3.211   9.214
 4281W        W 8025  10.447   0.337   2.625
 4282W        W 8026   4.017   4.277   9.538
 4283W        W 8027   4.180   3.545   1.720
 4284W        W 8028   6.741   3.717   9.015
 4285W        W 8029   9.596   7.610  11.879
 4286W        W 8030   3.840   2.806   2.271
 4287W        W 8031   0.524   9.308   1.222
 4288W        W 8032   6.260   3.189   3.222
 4289W        W 8033   9.864   4.263  10.506
 4290W        W 8034   7.720   2.757  11.886
 4291W        W 8035   3.659   6.889   2.273
 4292W        W 8036   1.266   8.768   1.818
 4293W        W 8037   4.171   3.973   1.467
 4294W        W 8038   4.080   9.926   2.937
 4295W        W 8039   2.624   5.957  10.848
 4296W        W 8040   8.487   0.528   2.656
 4297W        W 8041   5.694   0.327   1.693
 4298W        W 8042   1.000   7.482  10.772
 4299W        W 8043   6.648   0.507   3.122
 4300W        W 8044   6.146   8.163   3.671
 4301W        W 8045   2.853   8.785   0.789
 4302W        W 8046   2.257   7.669   3.544
 4303W        W 8047   5.962   7.188   0.352
 4304W        W 8048   6.792   9.638   3.441
 4305W        W 8049   4.276   9.930  10.486
 4306W        W 8050   9.404   7.805   8.990
 4307W        W 8051   4.211   3.086  11.749
 4308W        W 8052   6.463   4.057   1.850
 4309W        W 8053   6.240   7.924  11.587
 4310W        W 8054   3.266   0.215   3.187
 4311W        W 8055   4.231   8.125  11.288
 4312W        W 8056   1.343   5.795  10.474
 4313W        W 8057   5.834   1.865   1.436
 4314W        W 8058   2.129   5.142  10.762
 4315W        W 8059   7.954   2.279   0.456
 4316W        W 8060   5.693   9.339   3.601
 4317W        W 8061   8.510   2.728   1.691
 4318W        W 8062   4.128  10.416  11.934
 4319W        W 8063   8.761   6.597  11.799
 4320W        W 8064   6.925   0.444   0.280
 4321W        W 8065   0.386   1.464   2.699
 4322W        W 8066   0.196   6.032   8.976
 4323W        W 8067   2.786   0.324   1.063
 4324W        W 8068   3.878   3.907   0.486
 4325W        W 8069   2.961   7.915  11.702
 4326W        W 8070   3.981   8.306  10.034
 4327W        W 8071   2.742   6.893  10.738
 4328W        W 8072   4.086   0.082   9.950
 4329W        W 8073   3.757   9.549   8.982
 4330W        W 8074   2.784   8.042   0.189
 4331W        W 8075   4.663   2.039   9.526
 4332W        W 8076   5.999   5.006   0.945
 4333W        W 8077   2.663   6.623  11.421
 4334W        W 8078   6.607   0.250   2.631
 4335W        W 8079   2.648   2.273   9.063
 4336W        W 8080   0.440   1.704   2.186
 4337W        W 8081   9.814   7.965   0.191
 4338W        W 8082   2.608   8.022  11.364
 4339W        W 8083   9.922   7.936   3.217
 4340W        W 8084   4.452   2.392  11.037
 4341W        W 8085  10.432   8.964   1.760
 4342W        W 8086   2.764   5.894   3.921
 4343W        W 8087   8.861   8.754   0.747
 4344W        W 8088   4.091   7.987   2.835
 4345W        W 8089   5.688   6.240   1.905
 4346W        W 8090  10.455   6.558  10.137
 4347W        W 8091   9.887   3.659   2.185
 4348W        W 8092   3.864   5.084   9.768
 4349W        W 8093   0.815   4.166   9.059
 4350W        W 8094   3.312   8.929   1.915
 4351W        W 8095   8.541   6.688   8.970
 4352W        W 8096   9.427   9.379  11.027
 4353W        W 8097   6.009  10.021   0.337
 4354W        W 8098   3.168  10.461  11.901
 4355W        W 8099   9.783   7.445   8.912
 4356W        W 8100   6.076   9.325   9.138
 4357W        W 8101   1.957   1.782   0.035
 4358W        W 8102   2.546   8.538   1.855
 4359W        W 8103   7.597   5.675  10.339
 4360W        W 8104   5.160   5.231  10.056
 4361W        W 8105  10.330   0.933   0.948
 4362W        W 8106   8.092   3.171   0.701
 4363W        W 8107   9.118   8.601   0.301
 4364W        W 8108   3.610   4.240   2.740
 4365W        W 8109   0.530   1.338   1.355
 4366W        W 8110   0.983   6.183  10.351
 4367W        W 8111   9.345   4.941  11.399
 4368W        W 8112   0.897   9.614   1.783
 4369W        W 8113   0.446   9.860   3.198
 4370W        W 8114   2.773   4.736  11.752
 4371W        W 8115   5.252   7.673   0.497
 4372W        W 8116   9.361   9.548   1.031
 4373W        W 8117   2.787   3.653   9.618
 4374W        W 8118   1.742   2.938   1.235
 4375W        W 8119   1.366   2.705   0.986
 4376W        W 8120   4.663   0.078   9.050
 4377W        W 8121   9.835   3.549   0.228
 4378W        W 8122   2.804   7.203   1.837
 4379W        W 8123   1.156   2.833  11.217
 4380W        W 8124   1.846   9.547   1.497
 4381W        W 8125   7.612   2.308   1.394
 4382W        W 8126   4.941   2.238  10.967
 4383W        W 8127  10.253   8.056   0.920
 4384W        W 8128   8.366   7.125   3.629
 4385W        W 8129   5.928   3.968   0.272
 4386W        W 8130   7.490   8.449   0.969
 4387W        W 8131   3.705   4.537   3.573
 4388W        W 8132   9.019   5.500  10.770
 4389W        W 8133   0.547   5.760  11.535
 4390W        W 8134   6.082   2.864   0.170
 4391W        W 8135   1.627   4.136  10.270
 4392W        W 8136   4.349   2.200   1.898
 4393W        W 8137   3.385  10.060   9.538
 4394W        W 8138   3.827   2.646   1.415
 4395W        W 8139   9.700   0.190  11.765
 4396W        W 8140   9.895   8.781   3.057
 4397W        W 8141   5.488   7.252   1.950
 4398W        W 8142   2.114   3.957  10.235
 4399W        W 8143   7.986   5.618   0.334
 4400W        W 8144   2.343   7.879  10.552
 4401W        W 8145   2.300   5.529  10.451
 4402W        W 8146   8.598   5.775   2.214
 4403W        W 8147   4.864   0.753   3.091
 4404W        W 8148   0.500   2.209   3.052
 4405W        W 8149   8.159   4.734   0.669
 4406W        W 8150   3.663   1.436   2.009
 4407W        W 8151   0.863  10.493   3.430
 4408W        W 8152   8.130   8.501   2.097
 4409W        W 8153   2.807   4.516   2.405
 4410W        W 8154   0.755   3.115   0.294
 4411W        W 8155   2.831   3.794   2.833
 4412W        W 8156   9.518   9.010   2.305
 4413W        W 8157   8.687   6.733   2.359
 4414W        W 8158   6.436   4.127   9.167
 4415W        W 8159   7.204   9.231   8.736
 4416W        W 8160   9.869   5.064   9.591
 4417W        W 8161   3.185  10.492   2.711
 4418W        W 8162   6.899   5.527   2.533
 4419W        W 8163   3.594   1.332   2.969
 4420W        W 8164   3.833   9.031   9.038
 4421W        W 8165   6.980   3.159   1.702
 4422W        W 8166   0.791   8.916   9.911
 4423W        W 8167   3.412   3.140  11.542
 4424W        W 8168   4.032   7.540   1.768
 4425W        W 8169   0.329   6.621   1.805
 4426W        W 8170   9.395   4.404  11.356
 4427W        W 8171   3.200   5.410   0.452
 4428W        W 8172   6.233   3.955   3.554
 4429W        W 8173   4.710   7.086   0.145
 4430W        W 8174   4.710   3.506  11.961
 4431W        W 8175   5.624   1.762   9.011
 4432W        W 8176   8.846   4.794   3.394
 4433W        W 8177   1.388   5.222   9.818
 4434W        W 8178   8.397   3.254   9.739
 4435W        W 8179   7.947   9.129  11.065
 4436W        W 8180   0.802   1.209   2.822
 4437W        W 8181   3.264   8.804   9.253
 4438W        W 8182   7.551   2.007   0.678
 4439W        W 8183   7.528   8.306   8.559
 4440W        W 8184   7.455   7.885   0.443
 4441W        W 8185   8.499   6.437  10.428
 4442W        W 8186   0.680   6.836   9.424
 4443W        W 8187   5.666   5.057   9.331
 4444W        W 8188   5.938   1.293   3.200
 4445W        W 8189   5.050   0.827   8.731
 4446W        W 8190   5.617   0.030   3.439
 4447W        W 8191   5.980   7.359   0.952
 4448W        W 8192   1.241   9.993   1.846
 4449W        W 8193   6.914   5.190   2.937
 4450W        W 8194   7.950   9.754   9.845
 4451W        W 8195   6.394   6.936   0.520
 4452W        W 8196   9.454   9.989   8.933
 4453W        W 8197   9.798   4.690  11.414
 4454W        W 8198   5.955   2.764   3.275
 4455W        W 8199   4.642  10.081   8.865
 4456W        W 8200   4.433   3.665   8.613
 4457W        W 8201   8.944   6.611   3.138
 4458W        W 8202   4.687   6.909   2.639
 4459W        W 8203   2.699   7.520   3.335
 4460W        W 8204   5.641   0.787   0.335
 4461W        W 8205   3.336   5.956   4.068
 4462W        W 8206   9.693   5.695   1.387
 4463W        W 8207   1.781   4.616  10.215
 4464W        W 8208   9.174   9.803  11.170
 4465W        W 8209   7.931   8.947   2.325
 4466W        W 8210   7.014   2.187   9.333
 4467W        W 8211   4.794   1.771   0.496
 4468W        W 8212   4.799   7.329   2.955
 4469W        W 8213   1.394   1.269   9.361
 4470W        W 8214   9.872   0.027   1.757
 4471W        W 8215  10.261   5.109   8.734
 4472W        W 8216   7.613   6.606   9.535
 4473W        W 8217   2.200   2.236   0.127
 4474W        W 8218   8.470   2.898   0.339
 4475W        W 8219   8.305   6.534   0.583
 4476W        W 8220   5.611   5.681   2.747
 4477W        W 8221   5.177   4.361  10.348
 4478W        W 8222   6.406   2.194   8.849
 4479W        W 8223   3.280   9.109   0.784
 4480W        W 8224   4.330   3.393  10.393
 4481W        W 8225   4.875   1.540   1.195
 4482W        W 8226   7.542   1.852  11.809
 4483W        W 8227   8.082   3.988   3.616
 4484W        W 8228   3.643   2.722   9.527
 4485W        W 8229   2.766   4.335  11.451
 4486W        W 8230   9.397   1.899   9.104
 4487W        W 8231   3.409   4.451   4.005
 4488W        W 8232   9.270   3.269  10.353
 4489W        W 8233   7.756   3.215  10.977
 4490W        W 8234   1.383   5.622   1.968
 4491W        W 8235   1.860   8.167   2.294
 4492W        W 8236   7.909   3.683  10.812
 4493W        W 8237   5.278   4.676   2.688
 4494W        W 8238   1.862   7.096   0.044
 4495W        W 8239   6.933   1.297   1.267
 4496W        W 8240   5.437   7.427  11.682
 4497W        W 8241   1.750   4.613   9.185
 4498W        W 8242   8.635   4.192  10.013
 4499W        W 8243   5.162   8.009  11.354
 4500W        W 8244  10.211   6.709   2.911
 4501W        W 8245   4.706  10.224   1.207
 4502W        W 8246  10.244   7.275   2.156
 4503W        W 8247   4.614   3.253   0.561
 4504W        W 8248   1.910   4.763   2.858
 4505W        W 8249   0.235   7.491   3.303
 4506W        W 8250   3.940   9.916  11.892
 4507W        W 8251   8.099   8.259   1.658
 4508W        W 8252   9.403   7.134   8.694
 4509W        W 8253   3.175   0.912   9.426
 4510W        W 8254   1.986   3.262   0.545
 4511W        W 8255   5.914   2.105   9.643
 4512W        W 8256   5.234   7.532   8.528
 4513W        W 8257   6.786   8.909  11.457
 4514W        W 8258   9.132   3.192   3.404
 4515W        W 8259  10.099   2.222   1.116
 4516W        W 8260   1.296   7.114   0.875
 4517W        W 8261   8.608   2.186   8.740
 4518W        W 8262   7.319   2.214   1.791
 4519W        W 8263   8.535   0.241   1.243
 4520W        W 8264  10.386   0.889   9.216
 4521W        W 8265   0.564   2.991   3.688
 4522W        W 8266   9.800   6.608   3.354
 4523W        W 8267   3.841   5.685   2.694
 4524W        W 8268   8.496  10.209   1.871
 4525W        W 8269   8.634   4.165  10.933
 4526W        W 8270   4.158   9.851   8.882
 4527W        W 8271   1.162   2.331   2.218
 4528W        W 8272   6.930   7.592   8.921
 4529W        W 8273   1.441   3.123   9.574
 4530W        W 8274   2.807  10.409  11.077
 4531W        W 8275   8.241   5.969  10.423
 4532W        W 8276   6.681   1.548   1.692
 4533W        W 8277   3.811   8.618  10.439
 4534W        W 8278   4.364   0.016   0.814
 4535W        W 8279   2.464   7.647  11.003
 4536W        W 8280   3.278   3.035   2.839
 4537W        W 8281   1.770   0.209   2.095
 4538W        W 8282   8.479   6.325   8.586
 4539W        W 8283   7.504   2.165   0.205
 4540W        W 8284   6.938   7.435  11.703
 4541W        W 8285   3.285   6.517   9.970
 4542W        W 8286   6.051   3.796  11.745
 4543W        W 8287   2.100   4.803  11.152
 4544W        W 8288   2.397   5.071   1.918
 4545W        W 8289   3.278   7.873  10.358
 4546W        W 8290   0.735   7.894   0.525
 4547W        W 8291  10.234   6.987  10.303
 4548W        W 8292   2.027   5.032   9.481
 4549W        W 8293   4.640   5.055   1.099
 4550W        W 8294   2.317   0.701  11.515
 4551W        W 8295   4.069   9.086   2.582
 4552W        W 8296   7.134   9.326   9.758
 4553W        W 8297   9.871   6.095   3.422
 4554W        W 8298   9.686  10.435   9.081
 4555W        W 8299   7.437   7.417   8.945
 4556W        W 8300   5.714   4.170  11.848
 4557W        W 8301   6.576   7.587   3.193
 4558W        W 8302  10.097   5.622  11.305
 4559W        W 8303   8.983   8.866   2.804
 4560W        W 8304   2.384   3.668  10.569
 4561W        W 8305   5.655   0.318   2.241
 4562W        W 8306   0.248  10.431  11.708
 4563W        W 8307  10.390   1.846   3.462
 4564W        W 8308   0.298   0.133   0.708
 4565W        W 8309   3.297   3.809   1.674
 4566W        W 8310   7.108   9.016  10.461
 4567W        W 8311   7.369   7.146   1.158
 4568W        W 8312   4.635   6.196   2.763
 4569W        W 8313   8.668   6.969  11.396
 4570W        W 8314   5.963   8.612  11.025
 4571W        W 8315   1.261   3.184   1.151
 4572W        W 8316   8.203   9.402   2.263
 4573W        W 8317   6.480   4.077   0.336
 4574W        W 8318   3.178   9.815   1.898
 4575W        W 8319   2.651   7.670   9.055
 4576W        W 8320   0.714   4.341  11.718
 4577W        W 8321   4.232   9.082  11.592
 4578W        W 8322   7.952   7.537   9.062
 4579W        W 8323   3.312   1.260  11.966
 4580W        W 8324   8.079   6.695   8.730
 4581W        W 8325   3.553   1.438  11.541
 4582W        W 8326   3.923   9.617  10.288
 4583W        W 8327   1.670   2.763  11.296
 4584W        W 8328   5.368   9.560   2.493
 4585W        W 8329   9.204  10.324   9.255
 4586W        W 8330   7.281   8.480   0.278
 4587W        W 8331   8.029  10.116   0.855
 4588W        W 8332   9.518   2.799  10.381
 4589W        W 8333   5.104   0.356  10.102
 4590W        W 8334   7.324   8.552   2.265
 4591W        W 8335   7.139   5.039   2.502
 4592W        W 8336   3.140  10.439  10.463
 4593W        W 8337   2.441   3.306   9.784
 4594W        W 8338   2.454   5.574   2.713
 4595W        W 8339   7.863   5.495   3.545
 4596W        W 8340  10.308   6.623   3.415
 4597W        W 8341   7.815   8.787  11.444
 4598W        W 8342   7.843   3.167   2.617
 4599W        W 8343   2.311   0.231   0.356
 4600W        W 8344   0.824   3.968   0.683
 4601W        W 8345   3.869   4.074  10.006
 4602W        W 8346   1.357   6.506  11.546
 4603W        W 8347   6.681   2.302   1.225
 4604W        W 8348   1.230   1.542  11.696
 4605W        W 8349   2.239   9.981   3.448
 4606W        W 8350   9.503   7.065   0.479
 4607W        W 8351   1.354   2.332   1.749
 4608W        W 8352  10.302   9.239   0.411
 4609W        W 8353   0.187   1.795   3.046
 4610W        W 8354   4.658   3.613  11.473
 4611W        W 8355   5.082   1.744   9.766
 4612W        W 8356   7.691   3.586   1.600
 4613W        W 8357   1.165   0.578  11.912
 4614W        W 8358   5.419   7.960   9.107
 4615W        W 8359   9.580   2.319   8.815
 4616W        W 8360   2.207   6.699   3.385
 4617W        W 8361   2.743   7.066  11.657
 4618W        W 8362   6.118   6.571   2.397
 4619W        W 8363   4.458   4.364   0.198
 4620W        W 8364   6.887   0.673   2.605
 4621W        W 8365   5.237   3.021   1.617
 4622W        W 8366   1.339   2.390   2.722
 4623W        W 8367   0.161   5.193   0.541
 4624W        W 8368   7.019   2.693   9.521
 4625W        W 8369   3.591   6.388   3.110
 4626W        W 8370   0.063   7.952   9.426
 4627W        W 8371   1.443   8.867   1.355
 4628W        W 8372   1.670   4.053   0.183
 4629W        W 8373   6.695   7.513  10.755
 4630W        W 8374  10.034   2.663   8.895
 4631W        W 8375   9.949  10.055   8.755
 4632W        W 8376   8.976   9.614  10.308
 4633W        W 8377   3.710   3.131   0.970
 4634W        W 8378   0.860   4.081   9.945
 4635W        W 8379   2.299   4.317  11.238
 4636W        W 8380   1.894   6.392   1.117
 4637W        W 8381   9.081   5.018   1.957
 4638W        W 8382   0.736   1.364  11.544
 4639W        W 8383   3.337   9.249   9.035
 4640W        W 8384   5.419   7.581  11.196
 4641W        W 8385   6.970   2.359  11.188
 4642W        W 8386   5.408   8.536   2.418
 4643W        W 8387   9.344  10.278  11.318
 4644W        W 8388   3.802   1.370   2.491
 4645W        W 8389   5.369   3.613   8.163
 4646W        W 8390   6.561   9.519   2.404
 4647W        W 8391   2.840   3.243   2.115
 4648W        W 8392   5.724   8.818   3.560
 4649W        W 8393   8.544   6.090  11.313
 4650W        W 8394   1.020   1.351   0.417
 4651W        W 8395  10.474   9.619   0.118
 4652W        W 8396   0.218   1.108  10.272
 4653W        W 8397   3.967   6.617   1.959
 4654W        W 8398   3.405   5.192   1.928
 4655W        W 8399   2.716   7.200  10.313
 4656W        W 8400   6.263   1.733   1.130
 4657W        W 8401   6.650   9.077   3.224
 4658W        W 8402   4.102   9.163   0.172
 4659W        W 8403   2.340   1.250   9.580
 4660W        W 8404   4.292   0.337  11.704
 4661W        W 8405   7.466   4.976   4.072
 4662W        W 8406   7.770  10.255   9.063
 4663W        W 8407   0.672   6.803   0.323
 4664W        W 8408   8.057   6.124  11.507
 4665W        W 8409   6.240   7.024  11.974
 4666W        W 8410   7.174   1.409  10.285
 4667W        W 8411   0.807   2.609   0.337
 4668W        W 8412   0.937   4.803  10.444
 4669W        W 8413   9.405   8.976  10.662
 4670W        W 8414   6.071   2.868  11.239
 4671W        W 8415   3.199   1.897   2.681
 4672W        W 8416   6.441   5.474  11.296
 4673W        W 8417   3.901   3.159  10.274
 4674W        W 8418   2.861   8.281   0.903
 4675W        W 8419   4.529   3.182   8.432
 4676W        W 8420   4.571   4.113   8.383
 4677W        W 8421   7.978   6.061  10.996
 4678W        W 8422   8.217   7.443  11.907
 4679W        W 8423   8.147   1.172   9.648
 4680W        W 8424   9.377   6.290   2.471
 4681W        W 8425   7.395   3.605   9.373
 4682W        W 8426   1.201   8.887   9.086
 4683W        W 8427   0.702   4.356  11.212
 4684W        W 8428   8.357   8.955   2.008
 4685W        W 8429   7.838   0.914   0.239
 4686W        W 8430  10.460   7.092   2.650
 4687W        W 8431   4.014   1.663   0.814
 4688W        W 8432   4.411   4.042   4.052
 4689W        W 8433   8.692   9.958   0.525
 4690W        W 8434   9.433   3.291   8.923
 4691W        W 8435   0.204   1.441   0.279
 4692W        W 8436   8.411   4.785   1.187
 4693W        W 8437   3.220   9.349   1.640
 4694W        W 8438   2.512   9.122   8.584
 4695W        W 8439   5.157   6.977   2.854
 4696W        W 8440   9.550   1.049   9.473
 4697W        W 8441   4.100   8.711  11.946
 4698W        W 8442   7.633   3.069  11.461
 4699W        W 8443   6.342   6.936   1.017
 4700W        W 8444   5.268   8.033   1.780
 4701W        W 8445   0.048   6.875   2.199
 4702W        W 8446   9.702   5.950   0.934
 4703W        W 8447   3.663   4.313  11.496
 4704W        W 8448   9.874   3.877  11.831
 4705W        W 8449   4.609   2.672   8.315
 4706W        W 8450   7.717   5.379   9.951
 4707W        W 8451   7.609   7.897  11.572
 4708W        W 8452   8.374  10.220  11.295
 4709W        W 8453   0.926   2.100  10.976
 4710W        W 8454   7.558   6.063   1.753
 4711W        W 8455   4.862   8.186   1.389
 4712W        W 8456   4.028   1.624   3.162
 4713W        W 8457   1.618   0.320  11.718
 4714W        W 8458   4.214   5.760   1.832
 4715W        W 8459   7.473   1.767  10.985
 4716W        W 8460   7.725   6.318   9.961
 4717W        W 8461   7.067   3.222   8.428
 4718W        W 8462   3.706   6.025   9.918
 4719W        W 8463   1.370   2.900  10.311
 4720W        W 8464   2.397   8.355   0.051
 4721W        W 8465   8.123   7.636   0.808
 4722W        W 8466   3.611   6.385   2.241
 4723W        W 8467   2.618   6.461   3.162
 4724W        W 8468   5.276   0.420  11.368
 4725W        W 8469   0.349   8.396   2.415
 4726W        W 8470   3.744   2.341  10.856
 4727W        W 8471   5.105   8.467   1.978
 4728W        W 8472   5.221   0.361   2.511
 4729W        W 8473   4.211   5.616   9.763
 4730W        W 8474   3.764   5.456  10.641
 4731W        W 8475   0.457   2.962   2.618
 4732W        W 8476   9.281   4.373   2.943
 4733W        W 8477   2.203   6.177   3.275
 4734W        W 8478   8.995   4.569  11.589
 4735W        W 8479   7.041   5.201  11.044
 4736W        W 8480   7.993   5.504  11.821
 4737W        W 8481   2.634   9.967  11.410
 4738W        W 8482  10.089  10.297   3.648
 4739W        W 8483   8.956   9.863   9.038
 4740W        W 8484   4.659  10.063   2.203
 4741W        W 8485   5.560   9.379  11.238
 4742W        W 8486   3.171   8.664  10.963
 4743W        W 8487   9.577   6.579   0.640
 4744W        W 8488   2.653  10.415  10.560
 4745W        W 8489   2.120   2.581   1.123
 4746W        W 8490   7.004   1.366   2.918
 4747W        W 8491   8.404   9.397   1.765
 4748W        W 8492   4.784   4.484   9.995
 4749W        W 8493   9.377   7.932   1.477
 4750W        W 8494   3.605   7.937   9.967
 4751W        W 8495   5.952   4.178   1.707
 4752W        W 8496   9.866   2.989  11.571
 4753W        W 8497   6.882   3.230  10.780
 4754W        W 8498   8.895   9.932   8.525
 4755W        W 8499  10.411   6.082  10.314
 4756W        W 8500   2.276   0.332   0.909
 4757W        W 8501   0.699   6.006  11.957
 4758W        W 8502   6.010   5.212  11.132
 4759W        W 8503  10.299   3.661   9.861
 4760W        W 8504   5.771   8.938  11.461
 4761W        W 8505   9.880   6.421   9.976
 4762W        W 8506   4.897   1.177  11.740
 4763W        W 8507   9.920   4.394  11.911
 4764W        W 8508   8.840   7.234   9.431
 4765W        W 8509   4.720   0.327   0.547
 4766W        W 8510   7.408   5.337   3.090
 4767W        W 8511   3.913  10.080   9.576
 4768W        W 8512   8.751   0.916  10.966
 4769W        W 8513   1.401   5.533   1.418
 4770W        W 8514   6.657   1.499   0.838
 4771W        W 8515   0.964   7.692   1.366
 4772W        W 8516  10.270   7.510  11.426
 4773W        W 8517   3.641   9.911   2.667
 4774W        W 8518   5.914   2.417   0.915
 4775W        W 8519   2.187   4.052  11.661
 4776W        W 8520   3.158   8.067   1.415
 4777W        W 8521   1.285   2.830   2.464
 4778W        W 8522   7.056   8.421   2.924
 4779W        W 8523   2.213   3.053   0.980
 4780W        W 8524   7.890   9.932   0.305
 4781W        W 8525   7.009   8.579  10.191
 4782W        W 8526   6.141   8.847   0.784
 4783W        W 8527   9.454   3.808   8.742
 4784W        W 8528   3.268   3.614   2.146
 4785W        W 8529   8.520   9.760  11.940
 4786W        W 8530   5.626   8.544  10.444
 4787W        W 8531   9.107   9.297   2.497
 4788W        W 8532   2.559   0.941  11.914
 4789W        W 8533   1.268  10.208   3.264
 4790W        W 8534   5.643   5.987   2.341
 4791W        W 8535   1.473   8.122  10.543
 4792W        W 8536   9.488   4.580   1.485
 4793W        W 8537   5.950   8.447   2.329
 4794W        W 8538   5.869   8.891   0.341
 4795W        W 8539   4.294   1.890   0.453
 4796W        W 8540   6.056   9.823   9.109
 4797W        W 8541   8.876   1.218   0.846
 4798W        W 8542   4.657   4.992   2.130
 4799W        W 8543   6.715   1.147  10.569
 4800W        W 8544   3.386   3.179   9.083
 4801W        W 8545   8.140   9.366   8.792
 4802W        W 8546   3.751   2.319  10.329
 4803W        W 8547   7.408   7.065   2.163
 4804W        W 8548   8.968   3.709   3.376
 4805W        W 8549   5.067   9.442  11.236
 4806W        W 8550   7.488  10.437   8.318
 4807W        W 8551   0.775   3.837   1.171
 4808W        W 8552   5.462   6.881  10.117
 4809W        W 8553   2.937   7.712  11.112
 4810W        W 8554   9.852   0.337   9.495
 4811W        W 8555   6.785   3.710   0.139
 4812W        W 8556   4.999   7.409   1.837
 4813W        W 8557   9.396   6.037   3.605
 4814W        W 8558   7.458   9.821   2.524
 4815W        W 8559  10.131   8.440  11.401
 4816W        W 8560   5.500   2.183   9.324
 4817W        W 8561   3.332   5.497   2.383
 4818W        W 8562   1.444   4.643   3.191
 4819W        W 8563   7.711   5.646   9.517
 4820W        W 8564   0.721   8.308  10.351
 4821W        W 8565  10.297   1.147   0.419
 4822W        W 8566   4.741   9.617   0.125
 4823W        W 8567   8.960   6.522  10.219
 4824W        W 8568   0.225  10.170   0.918
 4825W        W 8569   6.391   2.719   8.985
 4826W        W 8570   4.974   6.625  11.771
 4827W        W 8571   2.615   7.688   9.577
 4828W        W 8572   5.591   0.793   9.532
 4829W        W 8573  10.013   7.378  10.985
 4830W        W 8574   6.799   4.218   8.799
 4831W        W 8575  10.343   9.543  11.626
 4832W        W 8576   3.130   8.103   3.082
 4833W        W 8577   8.477   9.770   8.795
 4834W        W 8578   3.246   5.476  11.518
 4835W        W 8579   0.575   7.611   2.682
 4836W        W 8580   9.377   5.371   2.728
 4837W        W 8581   3.358   9.436  10.426
 4838W        W 8582   7.706   1.977   8.473
 4839W        W 8583   5.474   6.704  11.539
 4840W        W 8584   6.905   6.973   9.484
 4841W        W 8585   0.388   1.587   0.913
 4842W        W 8586  10.200   0.682   1.817
 4843W        W 8587   1.893   8.632   1.306
 4844W        W 8588   3.101   5.211   3.604
 4845W        W 8589   3.811   1.874  10.586
 4846W        W 8590   0.865   9.446  10.866
 4847W        W 8591   0.153   0.448  10.022
 4848W        W 8592   4.289   1.699  11.984
 4849W        W 8593   5.437   7.789   9.958
 4850W        W 8594   0.428   8.748  10.458
 4851W        W 8595   7.131   5.964  11.562
 4852W        W 8596   0.343   9.480  10.841
 4853W        W 8597   3.566   0.823   3.116
 4854W        W 8598   0.123   8.315   1.286
 4855W        W 8599   4.152   5.552  11.045
 4856W        W 8600   9.917   1.683   3.335
 4857W        W 8601   7.612   2.737  10.862
 4858W        W 8602   5.573   3.138   0.702
 4859W        W 8603   3.273   2.985   0.732
 4860W        W 8604   3.582   4.928  11.698
 4861W        W 8605   2.370   9.501   3.263
 4862W        W 8606   5.710   3.416  10.301
 4863W        W 8607   0.811   9.728  11.820
 4864W        W 8608   8.528   2.861  10.996
 4865W        W 8609   4.826   2.550   0.241
 4866W        W 8610   9.936   3.805   3.155
 4867W        W 8611   5.449   1.343   3.393
 4868W        W 8612   4.190   5.008   2.999
 4869W        W 8613   3.623   8.146   2.596
 4870W        W 8614   0.778  10.400   9.063
 4871W        W 8615   7.471   0.918   2.008
 4872W        W 8616   9.391   8.723   3.230
 4873W        W 8617  10.152   9.886  11.309
 4874W        W 8618   0.459   3.925   9.673
 4875W        W 8619   1.238   1.455   2.796
 4876W        W 8620   0.987   7.539   0.897
 4877W        W 8621   5.619   3.833  11.450
 4878W        W 8622   7.065   8.316   0.716
 4879W        W 8623   3.844   0.363  11.999
 4880W        W 8624   6.016   0.183  10.383
 4881W        W 8625   6.305   5.146   1.337
 4882W        W 8626   7.911   2.371  11.044
 4883W        W 8627   8.905   0.955  10.335
 4884W        W 8628   3.610   5.251   0.720
 4885W        W 8629   3.745   7.904  10.952
 4886W        W 8630   4.942   9.345   2.205
 4887W        W 8631   1.101   4.114   9.495
 4888W        W 8632   4.191   9.255   2.103
 4889W        W 8633   6.523   6.496   0.277
 4890W        W 8634   7.016   3.035  10.332
 4891W        W 8635   3.114  10.273   0.368
 4892W        W 8636   4.932   4.225   0.377
 4893W        W 8637   5.175  10.451   9.231
 4894W        W 8638   0.850   2.448   1.265
 4895W        W 8639   0.512   3.472  11.434
 4896W        W 8640   2.431   9.055   3.000
 4897W        W 8641   0.669   2.176   2.223
 4898W        W 8642   5.389   0.300   1.256
 4899W        W 8643   0.165   2.248   9.831
 4900W        W 8644   0.105   3.187   3.388
 4901W        W 8645   6.284   4.749  10.737
 4902W        W 8646   4.374   5.371  11.645
 4903W        W 8647   2.410   0.268   1.424
 4904W        W 8648   3.798   2.169   0.875
 4905W        W 8649   2.882   8.535   0.320
 4906W        W 8650   6.579   3.249   2.296
 4907W        W 8651   2.340   7.906   1.591
 4908W        W 8652   9.697   7.477   3.223
 4909W        W 8653   8.124   5.492  10.251
 4910W        W 8654   2.437   2.203   3.316
 4911W        W 8655   1.952   1.162   2.983
 4912W        W 8656   4.406   0.310  10.314
 4913W        W 8657   9.402   6.239   1.959
 4914W        W 8658   4.805   1.753  11.974
 4915W        W 8659   9.144   9.921   0.761
 4916W        W 8660   6.432   7.245   1.405
 4917W        W 8661   3.795   5.651   0.945
 4918W        W 8662   8.382   5.674  11.030
 4919W        W 8663   6.639   8.781   9.392
 4920W        W 8664   0.498   3.092  11.859
 4921W        W 8665   3.733   6.472   0.939
 4922W        W 8666   0.906   5.816  11.170
 4923W        W 8667   9.645   3.104   3.222
 4924W        W 8668   7.581   4.519   1.804
 4925W        W 8669   9.581   0.632   9.811
 4926W        W 8670   0.301   8.995  10.014
 4927W        W 8671   7.481   8.384  10.983
 4928W        W 8672   1.840   5.437   9.184
 4929W        W 8673   1.713   3.646   2.259
 4930W        W 8674   5.209   0.182  11.825
 4931W        W 8675   1.916   5.621   2.726
 4932W        W 8676   7.629   6.981  11.435
 4933W        W 8677   8.382   1.843   3.266
 4934W        W 8678  10.351   5.144  11.106
 4935W        W 8679   2.282   7.359  10.586
 4936W        W 8680   8.996   1.973   1.665
 4937W        W 8681   5.991   3.306  11.910
 4938W        W 8682   7.156   2.132   1.231
 4939W        W 8683   4.585   2.231   9.033
 4940W        W 8684   6.118  10.387  11.335
 4941W        W 8685   2.637  10.226   2.159
 4942W        W 8686   3.352   7.871  11.338
 4943W        W 8687   4.344   6.268   1.970
 4944W        W 8688   1.528   7.873   3.638
 4945W        W 8689   9.873   0.854   9.089
 4946W        W 8690   4.590   8.861   0.845
 4947W        W 8691   2.773   8.392  11.717
 4948W        W 8692   7.980   0.217   1.975
 4949W        W 8693   3.187   5.738   3.591
 4950W        W 8694   0.232   6.668   2.824
 4951W        W 8695   7.321   2.642   9.121
 4952W        W 8696   5.471   3.946   3.960
 4953W        W 8697   1.920   0.391   1.304
 4954W        W 8698   4.280   6.370  11.475
 4955W        W 8699   9.079   2.680  11.763
 4956W        W 8700   0.489   4.664   9.084
 4957W        W 8701   0.038   7.505   0.611
 4958W        W 8702   7.712   1.614  11.408
 4959W        W 8703   3.531   4.860   9.075
 4960W        W 8704   8.968   1.357   2.939
 4961W        W 8705   1.880   3.386   8.884
 4962W        W 8706   2.698   0.739   9.418
 4963W        W 8707   7.154   9.809   3.104
 4964W        W 8708   4.188  10.346   1.302
 4965W        W 8709   8.374   0.514   2.149
 4966W        W 8710   2.386   7.234   2.175
 4967W        W 8711   9.240   6.515  11.623
 4968W        W 8712  10.416   8.858  11.357
 4969W        W 8713   4.100   0.799  11.863
 4970W        W 8714   2.203   3.804   2.174
 4971W        W 8715   3.152   5.694   8.770
 4972W        W 8716   0.456   5.962   9.460
 4973W        W 8717   0.750   6.599   3.424
 4974W        W 8718   5.639   2.356   1.371
 4975W        W 8719   2.103   0.180   8.989
 4976W        W 8720   9.006   9.952   0.060
 4977W        W 8721   0.929   6.591   9.819
 4978W        W 8722  10.484   6.610   1.032
 4979W        W 8723   9.464   4.633  11.840
 4980W        W 8724   5.939   6.065  11.038
 4981W        W 8725   6.598   5.032   1.739
 4982W        W 8726   8.512   7.912  11.460
 4983W        W 8727   5.669   0.230   2.765
 4984W        W 8728   6.171   1.771   3.218
 4985W        W 8729   0.839   3.092   3.254
 4986W        W 8730   6.603  10.237  10.602
 4987W        W 8731   5.545   3.828   9.948
 4988W        W 8732   9.911   8.215   2.371
 4989W        W 8733   5.990   6.410   2.873
 4990W        W 8734   5.211  10.356   1.059
 4991W        W 8735   5.558   1.759  11.029
 4992W        W 8736   5.295   8.886   8.848
 4993W        W 8737   8.305   0.500  10.914
 4994W        W 8738   5.089   8.829   9.864
 4995W        W 8739   8.847   1.862  11.156
 4996W        W 8740   3.201  10.067   2.377
 4997W        W 8741   9.568   0.993  10.489
 4998W        W 8742   1.666   7.190   1.399
 4999W        W 8743   5.723   7.553   8.359
 5000W        W 8744   4.695   4.115  11.392
 5001W        W 8745   1.227  10.241   1.393
 5002W        W 8746   3.479  10.441   0.734
 5003W        W 8747   6.579   9.100   2.665
 5004W        W 8748   5.885  10.347   3.037
 5005W        W 8749   4.851   8.310   8.534
 5006W        W 8750   2.665   1.562   1.775
 5007W        W 8751   1.886   2.611   0.260
 5008W        W 8752   1.708   8.912   0.896
 5009W        W 8753   2.337   8.479   9.899
 5010W        W 8754   7.568   6.026  11.303
 5011W        W 8755   8.877   3.740  10.105
 5012W        W 8756   0.912   6.545  10.714
 5013W        W 8757   5.168   8.523   3.309
 5014W        W 8758   4.562   3.256   2.269
 5015W        W 8759   7.629   6.459   8.550
 5016W        W 8760   0.267   4.263  10.932
 5017W        W 8761   0.415   3.417   9.580
 5018W        W 8762   5.516   8.526  11.318
 5019W        W 8763   5.296   1.149   2.006
 5020W        W 8764   6.460   6.817   3.608
 5021W        W 8765   4.230   3.878   3.219
 5022W        W 8766   5.243   1.879  11.727
 5023W        W 8767   1.804   8.175   2.813
 5024W        W 8768   6.456   7.817   9.052
 5025W        W 8769   8.880   5.265   2.805
 5026W        W 8770  10.311   8.836  10.505
 5027W        W 8771   0.606   9.838   0.797
 5028W        W 8772   1.206  10.435   2.710
 5029W        W 8773   7.953   2.481  11.536
 5030W        W 8774   5.132   7.719   2.205
 5031W        W 8775   2.745   6.386   9.435
 5032W        W 8776   2.857   0.346   2.481
 5033W        W 8777   7.455   2.092   2.597
 5034W        W 8778   5.123   9.377   9.002
 5035W        W 8779   1.356   4.829   8.876
 5036W        W 8780   9.435   3.845   2.073
 5037W        W 8781   1.372   7.608  10.317
 5038W        W 8782   9.466   8.539  10.875
 5039W        W 8783   5.113   3.018   9.910
 5040W        W 8784   9.814   5.032   9.032
 5041W        W 8785   0.674   4.374   9.508
 5042W        W 8786   7.825   0.874   9.382
 5043W        W 8787   8.916   7.990   0.719
 5044W        W 8788   9.876   1.344  11.694
 5045W        W 8789   0.010   7.825  10.338
 5046W        W 8790   3.075   1.485   2.967
 5047W        W 8791   8.634   8.684  11.018
 5048W        W 8792  10.432   7.660  11.901
 5049W        W 8793   4.250   7.237  11.940
 5050W        W 8794   5.347   2.395   0.148
 5051W        W 8795   0.270   2.561  11.290
 5052W        W 8796   6.201   8.359   0.902
 5053W        W 8797   6.972   6.863   1.943
 5054W        W 8798   4.791   1.311   0.233
 5055W        W 8799   3.244   8.200   0.037
 5056W        W 8800   0.444   4.661   3.023
 5057W        W 8801   4.775   0.247   1.064
 5058W        W 8802   2.148   0.673  11.036
 5059W        W 8803   9.783   3.121   0.563
 5060W        W 8804   0.534   8.848   2.582
 5061W        W 8805   6.126   2.413   0.452
 5062W        W 8806   2.624   9.117  11.512
 5063W        W 8807   5.703   6.358   0.433
 5064W        W 8808   0.189   7.931  10.837
 5065W        W 8809   0.951   9.938  10.885
 5066W        W 8810   6.162   9.391   2.743
 5067W        W 8811   6.991   7.005   2.994
 5068W        W 8812  10.309   6.262  11.742
 5069W        W 8813   3.259   7.369  11.294
 5070W        W 8814   1.709   1.249   2.507
 5071W        W 8815   0.370   2.633   2.181
 5072W        W 8816   7.439   0.427   0.753
 5073W        W 8817  10.038   7.376   2.622
 5074W        W 8818   8.919   3.819   1.229
 5075W        W 8819   6.939   9.596   8.996
 5076W        W 8820   1.218   0.424  10.896
 5077W        W 8821   6.741   4.181   3.583
 5078W        W 8822   9.824   6.690  10.421
 5079W        W 8823   9.736   3.191   2.408
 5080W        W 8824   1.897   9.456   0.823
 5081W        W 8825   9.987   2.726  10.597
 5082W        W 8826   0.932  10.482  10.050
 5083W        W 8827   6.134   0.151   3.494
 5084W        W 8828   9.357   8.062   0.474
 5085W        W 8829   1.810  10.254   9.993
 5086W        W 8830   3.152   4.946  10.354
 5087W        W 8831   2.579   9.403  10.243
 5088W        W 8832   3.641   4.121  10.482
 5089W        W 8833   2.401   8.588   0.937
 5090W        W 8834   6.095   3.909   2.183
 5091W        W 8835   3.173   8.142  10.941
 5092W        W 8836  10.142   9.532   3.451
 5093W        W 8837   3.691   1.346   8.754
 5094W        W 8838   5.986   5.502   2.414
 5095W        W 8839   5.992   3.245   1.424
 5096W        W 8840   4.109   6.086  11.084
 5097W        W 8841   4.742   8.951  11.516
 5098W        W 8842   2.153   4.444   9.457
 5099W        W 8843   7.453   3.748   8.487
 5100W        W 8844   4.766   7.383   2.399
 5101W        W 8845   8.403   5.516   2.640
 5102W        W 8846   5.037   8.851  11.922
 5103W        W 8847   7.095   3.187   9.403
 5104W        W 8848   0.375   8.085   3.317
 5105W        W 8849   4.356   2.778  11.374
 5106W        W 8850   9.893   3.210   1.438
 5107W        W 8851   3.679   3.657   3.396
 5108W        W 8852   2.975   9.799   0.773
 5109W        W 8853   2.514   4.882   9.524
 5110W        W 8854   2.701   1.254   2.224
 5111W        W 8855   6.191   1.358  11.042
 5112W        W 8856   2.605   3.249  10.334
 5113W        W 8857   4.324   7.533   8.949
 5114W        W 8858   6.534   7.358   3.669
 5115W        W 8859   1.348   6.086   2.193
 5116W        W 8860   9.214   5.964  10.242
 5117W        W 8861   5.092   9.453   1.666
 5118W        W 8862   3.854   1.157   3.415
 5119W        W 8863   3.639   9.626   9.486
 5120W        W 8864   9.727   0.422   2.402
 5121W        W 8865   5.172   2.320  11.402
 5122W        W 8866   1.958   1.706   1.016
 5123W        W 8867   7.087   9.465   2.303
 5124W        W 8868   9.280  10.475   8.743
 5125W        W 8869   5.102   5.617   1.659
 5126W        W 8870   1.479   7.118   9.348
 5127W        W 8871   8.812   0.913   0.342
 5128W        W 8872   9.395   7.547   9.672
 5129W        W 8873   9.090   0.924   1.240
 5130W        W 8874   6.575   6.213   1.332
 5131W        W 8875   0.847   4.825  11.825
 5132W        W 8876   6.582   3.563  11.233
 5133W        W 8877   8.834   7.197   1.139
 5134W        W 8878   6.485   8.357  11.360
 5135W        W 8879   4.290   0.404   8.793
 5136W        W 8880   9.382   3.651  11.952
 5137W        W 8881   2.453   0.906   0.490
 5138W        W 8882   1.251   0.030   2.197
 5139W        W 8883   8.252  10.484   9.284
 5140W        W 8884   8.271   1.414   2.720
 5141W        W 8885   4.103   7.534   8.485
 5142W        W 8886   2.415   6.501  10.587
 5143W        W 8887   5.738   6.522   9.888
 5144W        W 8888   3.329   6.448   0.599
 5145W        W 8889   4.714   1.164   9.766
 5146W        W 8890   6.699   6.464  10.773
 5147W        W 8891   2.289   6.958  10.950
 5148W        W 8892   3.606   7.685   0.253
 5149W        W 8893   5.200   4.171  11.764
 5150W        W 8894   0.473   7.045   3.359
 5151W        W 8895   6.546   0.714  11.486
 5152W        W 8896   2.742   5.556   0.259
 5153W        W 8897   3.796   0.561   8.834
 5154W        W 8898   4.591   7.844   1.074
 5155W        W 8899   8.596   2.905  11.816
 5156W        W 8900   8.994   7.205   8.371
 5157W        W 8901   4.582   6.284   9.446
 5158W        W 8902  10.078  10.259   9.942
 5159W        W 8903   1.910   5.258  11.349
 5160W        W 8904  10.081   3.998   0.866
 5161W        W 8905   8.028   5.905   1.910
 5162W        W 8906   2.003   0.026   1.668
 5163W        W 8907   6.139   0.782   1.643
 5164W        W 8908   4.301   7.209   2.447
 5165W        W 8909   2.192   1.124   2.358
 5166W        W 8910   7.682   5.971   8.416
 5167W        W 8911   7.664   4.607   0.262
 5168W        W 8912   2.715   8.137   8.859
 5169W        W 8913   6.939   5.885   1.451
 5170W        W 8914   9.073   9.435   9.310
 5171W        W 8915   7.454   2.595   0.463
 5172W        W 8916   5.611   1.208   2.811
 5173W        W 8917   0.169   6.091  10.780
 5174W        W 8918   4.183   2.407  10.615
 5175W        W 8919   3.181   9.966   3.443
 5176W        W 8920   6.111   7.865   9.436
 5177W        W 8921   1.445   7.568   0.627
 5178W        W 8922   8.134   6.987  11.352
 5179W        W 8923   5.166   2.695  11.764
 5180W        W 8924   0.383   3.603  11.901
 5181W        W 8925   4.600   7.546   3.871
 5182W        W 8926   9.008   2.619   2.367
 5183W        W 8927   2.706   5.465  10.784
 5184W        W 8928   6.943   2.641   3.006
 5185W        W 8929   0.358   7.972  11.759
 5186W        W 8930  10.254   1.669   0.407
 5187W        W 8931   1.383   6.249   1.180
 5188W        W 8932   2.465   3.782   0.027
 5189W        W 8933   2.670   3.223   0.827
 5190W        W 8934   8.519   8.124   2.038
 5191W        W 8935   6.541   0.442   9.241
 5192W        W 8936   3.089   3.130  11.921
 5193W        W 8937   2.382   2.997  11.509
 5194W        W 8938   0.314   2.349   0.197
 5195W        W 8939   4.869   8.839   0.421
 5196W        W 8940   6.696   7.720   2.457
 5197W        W 8941   4.784   0.815  11.324
 5198W        W 8942   1.932   1.382  10.901
 5199W        W 8943   9.573   4.212  10.931
 5200W        W 8944   3.756   1.884  10.060
 5201W        W 8945   0.952  10.291  10.521
 5202W        W 8946   7.434   1.341   1.195
 5203W        W 8947   5.143   8.807  10.535
 5204W        W 8948   5.794   8.425   8.645
 5205W        W 8949   8.163   0.888   0.684
 5206W        W 8950   4.532   4.290   3.193
 5207W        W 8951   8.481   9.991   2.577
 5208W        W 8952  10.435   8.777   0.295
 5209W        W 8953   1.932   9.041   2.353
 5210W        W 8954   5.753   6.902  11.912
 5211W        W 8955   4.643   2.326   1.495
 5212W        W 8956   5.135   4.795   9.778
 5213W        W 8957   3.371   8.866  10.299
 5214W        W 8958   2.890   0.954   9.852
 5215W        W 8959   6.970   3.767  11.529
 5216W        W 8960   1.374   2.474   8.841
 5217W        W 8961   3.766   7.051   1.764
 5218W        W 8962  10.304   9.954   0.666
 5219W        W 8963   2.681  10.357   1.264
 5220W        W 8964   3.655   9.624   2.011
 5221W        W 8965   5.465   4.604  11.870
 5222W        W 8966   1.688   4.133   2.134
 5223W        W 8967  10.440   5.561   1.849
 5224W        W 8968   0.448   7.162   9.785
 5225W        W 8969   2.462   7.410   8.637
 5226W        W 8970   2.630   4.972  10.734
 5227W        W 8971   5.332   0.335   9.626
 5228W        W 8972   0.780   8.780  10.850
 5229W        W 8973   9.523   0.897   2.308
 5230W        W 8974   4.294   0.393   9.306
 5231W        W 8975   9.786   1.846   1.947
 5232W        W 8976   8.091   6.639   1.084
 5233W        W 8977   6.543   6.698  11.744
 5234W        W 8978   0.476   5.608   8.803
 5235W        W 8979   3.281   1.967   0.414
 5236W        W 8980   5.449   8.885  10.982
 5237W        W 8981   0.962   8.963   8.633
 5238W        W 8982   9.340   8.944  11.499
 5239W        W 8983   6.086   0.861   0.651
 5240W        W 8984   6.102   6.608   1.746
 5241W        W 8985   1.194   1.781   9.333
 5242W        W 8986   5.470   8.002   8.592
 5243W        W 8987   4.800   3.147   1.822
 5244W        W 8988   0.060   1.340   9.022
 5245W        W 8989   2.916   5.703   2.601
 5246W        W 8990   9.396   7.042   1.949
 5247W        W 8991   0.082   7.579   2.801
 5248W        W 8992   0.342   0.020   2.647
 5249W        W 8993   2.426   8.911  10.489
 5250W        W 8994   9.612   9.442   9.476
 5251W        W 8995   7.692   8.007   9.399
 5252W        W 8996   6.384   3.912   8.676
 5253W        W 8997   8.875   2.348  10.076
 5254W        W 8998   2.939   3.648   0.235
 5255W        W 8999   3.498   3.028   1.415
 5256W        W 9000   7.534  10.496   3.208
 5257W        W 9001   1.374   3.865   3.343
 5258W        W 9002   8.708   0.861   9.563
 5259W        W 9003   4.628   5.961   2.286
 5260W        W 9004   2.695   5.354   9.457
 5261W        W 9005   6.467   1.791  10.985
 5262W        W 9006   5.685   9.989  10.595
 5263W        W 9007   1.688   9.885   2.123
 5264W        W 9008   4.240   5.271   2.074
 5265W        W 9009   5.542   8.869  10.073
 5266W        W 9010   5.404   7.136   8.242
 5267W        W 9011   5.537   8.897  11.920
 5268W        W 9012   3.085   4.243   1.850
 5269W        W 9013   1.706   6.017   3.043
 5270W        W 9014   3.034   7.443   9.371
 5271W        W 9015   3.569   6.138   3.588
 5272W        W 9016   9.430   8.912   1.394
 5273W        W 9017   0.380  10.300   9.502
 5274W        W 9018   1.499   7.349   2.646
 5275W        W 9019   8.838   2.238   2.761
 5276W        W 9020   6.582   1.026   2.413
 5277W        W 9021   6.180  10.180   9.458
 5278W        W 9022   8.352   9.040  10.757
 5279W        W 9023   0.579   8.218   0.152
 5280W        W 9024   2.324   1.694   1.369
 5281W        W 9025  10.485   6.735   0.079
 5282W        W 9026   4.338   6.076   0.233
 5283W        W 9027   2.898   9.907   9.541
 5284W        W 9028   7.030   5.825   2.136
 5285W        W 9029   9.083   5.073  10.042
 5286W        W 9030  10.275   4.858   0.851
 5287W        W 9031   2.505   9.931   0.964
 5288W        W 9032   4.290   2.098   0.936
 5289W        W 9033   0.815   1.851   8.884
 5290W        W 9034   6.487   3.229   1.497
 5291W        W 9035   5.324   3.317   8.574
 5292W        W 9036   5.433   9.836   3.806
 5293W        W 9037   5.117   9.007   1.436
 5294W        W 9038   5.237   2.905   3.890
 5295W        W 9039   7.884   1.793   0.280
 5296W        W 9040   7.868   6.379   2.016
 5297W        W 9041   1.659   6.039  10.864
 5298W        W 9042   0.311   0.886   8.932
 5299W        W 9043   5.762   2.867   1.095
 5300W        W 9044   8.664   5.800   8.369
 5301W        W 9045   0.554   5.504   0.460
 5302W        W 9046   7.512   4.714   3.617
 5303W        W 9047   7.966   5.712   0.863
 5304W        W 9048   7.896   2.277   0.981
 5305W        W 9049   0.284  10.385  11.180
 5306W        W 9050   8.192   5.868   3.376
 5307W        W 9051   6.999   8.063  10.467
 5308W        W 9052   7.971  10.254   1.740
 5309W        W 9053   6.116  10.379   0.691
 5310W        W 9054   7.320   4.521   9.979
 5311W        W 9055   3.553   2.622   0.973
 5312W        W 9056   4.764   2.292   3.432
 5313W        W 9057   3.909   3.968   2.412
 5314W        W 9058   2.264   7.080  10.065
 5315W        W 9059   7.442  10.002   9.717
 5316W        W 9060   1.360   1.848   2.479
 5317W        W 9061   5.777   4.657   1.903
 5318W        W 9062   9.496   2.650  11.467
 5319W        W 9063   3.139   3.481   0.723
 5320W        W 9064   9.476   3.893   2.950
 5321W        W 9065   5.727   4.662   2.425
 5322W        W 9066   0.452   3.772   2.590
 5323W        W 9067   4.147   7.320  11.461
 5324W        W 9068   8.412   4.281   2.319
 5325W        W 9069   0.024   5.695   0.700
 5326W        W 9070   0.880   0.118   9.547
 5327W        W 9071   8.511   5.744  10.057
 5328W        W 9072  10.486   2.627  10.431
 5329W        W 9073   5.581   1.455   1.699
 5330W        W 9074   8.952   6.565   8.677
 5331W        W 9075   7.925   4.934   1.091
 5332W        W 9076   7.483   4.439   4.040
 5333W        W 9077   3.785   5.405   2.209
 5334W        W 9078  10.296   1.372  11.967
 5335W        W 9079   8.990   8.380   2.047
 5336W        W 9080   5.554   3.937   9.076
 5337W        W 9081   8.073   9.372   1.355
 5338W        W 9082   8.912   4.192   9.554
 5339W        W 9083   9.029   8.582   9.939
 5340W        W 9084   3.777   3.100   8.730
 5341W        W 9085   7.025   6.943   2.474
 5342W        W 9086   5.463  10.031   8.598
 5343W        W 9087   7.649   9.276  11.442
 5344W        W 9088   9.210   6.998   1.467
 5345W        W 9089   0.156   5.074   2.855
 5346W        W 9090   6.752   6.553   9.778
 5347W        W 9091   9.825   9.279   3.104
 5348W        W 9092   9.545   6.947   2.591
 5349W        W 9093   4.202   6.373  10.624
 5350W        W 9094   3.785   0.506   2.014
 5351W        W 9095   5.856   3.266   8.555
 5352W        W 9096   8.546   4.319   0.299
 5353W        W 9097   8.592   5.190  10.937
 5354W        W 9098   0.281   5.112   9.304
 5355W        W 9099   5.517   6.167   9.231
 5356W        W 9100   9.373   0.035   2.534
 5357W        W 9101   7.153   8.956   1.478
 5358W        W 9102   9.454   4.715   3.301
 5359W        W 9103   5.060   6.007  10.577
 5360W        W 9104   1.404   4.623   1.668
 5361W        W 9105   9.189  10.479   1.225
 5362W        W 9106   0.285   3.201   1.409
 5363W        W 9107   7.002   0.702  11.833
 5364W        W 9108   0.295   3.669   1.195
 5365W        W 9109   0.885   6.530  11.920
 5366W        W 9110   0.514   3.587   0.744
 5367W        W 9111   0.557   9.623  11.267
 5368W        W 9112   3.315   1.793   9.256
 5369W        W 9113   1.422  10.476  10.755
 5370W        W 9114   4.971   1.960   1.457
 5371W        W 9115   4.894   8.070   3.188
 5372W        W 9116   3.211   2.290   9.110
 5373W        W 9117   5.417   5.613  10.492
 5374W        W 9118  10.393   4.012   1.288
 5375W        W 9119   7.577   5.309   0.888
 5376W        W 9120   1.985   6.376  10.279
 5377W        W 9121   6.990   4.712  10.884
 5378W        W 9122   0.776  10.023   1.529
 5379W        W 9123   5.633   3.620   9.474
 5380W        W 9124  10.319   0.351  11.406
 5381W        W 9125   6.474   1.138   1.415
 5382W        W 9126   3.735   8.618   9.423
 5383W        W 9127   6.435   0.919  10.990
 5384W        W 9128   0.983   1.855   0.783
 5385W        W 9129   1.294   2.695   9.822
 5386W        W 9130   6.152   6.424   0.699
 5387W        W 9131   2.779   6.528   1.193
 5388W        W 9132   3.077   3.201   3.543
 5389W        W 9133  10.338   1.287  11.454
 5390W        W 9134   9.170   6.211   0.475
 5391W        W 9135  10.016   1.206   3.032
 5392W        W 9136   8.568   5.231  10.069
 5393W        W 9137   3.737   7.388  11.018
 5394W        W 9138   8.009   0.858  11.742
 5395W        W 9139   8.880   4.046   2.154
 5396W        W 9140   7.999  10.235   3.272
 5397W        W 9141   3.595  10.434   9.794
 5398W        W 9142   0.883   7.187  11.999
 5399W        W 9143   7.437   8.417   9.564
 5400W        W 9144   3.678   4.584   9.775
 5401W        W 9145   9.020   1.355  11.202
 5402W        W 9146   7.644   8.643   2.661
 5403W        W 9147   1.892   6.870   0.966
 5404W        W 9148   3.850   0.377  10.325
 5405W        W 9149   9.146   3.983  10.996
 5406W        W 9150   9.823   9.632  10.284
 5407W        W 9151   5.087   6.012   2.977
 5408W        W 9152   3.717   9.199   0.516
 5409W        W 9153   8.472   7.930   0.468
 5410W        W 9154   9.749   4.615   9.375
 5411W        W 9155   7.509   2.420   2.220
 5412W        W 9156   7.818   4.379  11.326
 5413W        W 9157   8.451   4.762   2.143
 5414W        W 9158   8.913   1.749   2.308
 5415W        W 9159   1.593   4.193   9.441
 5416W        W 9160   5.548   5.374   1.768
 5417W        W 9161   5.434   4.161   0.267
 5418W        W 9162   8.974   1.290  10.701
 5419W        W 9163   3.095   6.886  11.282
 5420W        W 9164   9.791   7.799   2.752
 5421W        W 9165   4.172   3.556   1.176
 5422W        W 9166   1.331   4.812  10.123
 5423W        W 9167   2.347   9.192   0.225
 5424W        W 9168   5.671   2.715   0.416
 5425W        W 9169   3.118   5.170   0.932
 5426W        W 9170   8.779   6.309   0.816
 5427W        W 9171   7.642  10.071   2.926
 5428W        W 9172   1.818   5.465   9.690
 5429W        W 9173   8.741   8.321   3.555
 5430W        W 9174   9.226   0.312  11.928
 5431W        W 9175   4.187   1.237   2.825
 5432W        W 9176   0.740   9.995   0.293
 5433W        W 9177   7.913   0.480   0.511
 5434W        W 9178   1.843  10.393  11.016
 5435W        W 9179   0.363   2.460   2.655
 5436W        W 9180   4.306   5.516   0.937
 5437W        W 9181   5.525   8.848   9.569
 5438W        W 9182   5.600   5.417   8.963
 5439W        W 9183   3.431   4.096   2.256
 5440W        W 9184   6.631   7.863  11.263
 5441W        W 9185   7.790   5.206  10.492
 5442W        W 9186   3.251   9.510   1.152
 5443W        W 9187   1.652   0.234   9.983
 5444W        W 9188   4.938   5.770  11.391
 5445W        W 9189   6.458   8.084   3.273
 5446W        W 9190   2.333   4.628   1.654
 5447W        W 9191   9.990   0.963   0.007
 5448W        W 9192   4.967   7.588  11.587
 5449W        W 9193   5.364   1.670   1.301
 5450W        W 9194   2.827   3.392   1.579
 5451W        W 9195   1.396   0.374  10.413
 5452W        W 9196   4.669   8.086  10.529
 5453W        W 9197   1.615   3.026   0.230
 5454W        W 9198   5.556   8.298  10.873
 5455W        W 9199   7.625   7.417   1.692
 5456W        W 9200   2.661   8.458   2.378
 5457W        W 9201   1.812   2.201   0.983
 5458W        W 9202   3.396   3.822   0.385
 5459W        W 9203   8.501   2.292   9.257
 5460W        W 9204   1.624   1.345  11.324
 5461W        W 9205   3.588   1.881   3.028
 5462W        W 9206   1.154   9.539  10.434
 5463W        W 9207   1.775   0.078   8.569
 5464W        W 9208   0.190   9.212  10.456
 5465W        W 9209   3.881  10.413   2.697
 5466W        W 9210   4.421   7.596   2.740
 5467W        W 9211   0.719   3.325   1.152
 5468W        W 9212   3.641   5.694   1.739
 5469W        W 9213   4.088   9.380   9.347
 5470W        W 9214   4.070   7.509  10.627
 5471W        W 9215   1.992   1.472   3.399
 5472W        W 9216   4.990   9.993   3.460
 5473W        W 9217   0.214   7.395   2.317
 5474W        W 9218   1.801   5.467   2.196
 5475W        W 9219   4.666   0.648   9.046
 5476W        W 9220   0.506   3.833   3.089
 5477W        W 9221   4.325   5.137   9.555
 5478W        W 9222   1.878   2.892   8.351
 5479W        W 9223   8.181   5.039  11.797
 5480W        W 9224   8.059   8.639   0.764
 5481W        W 9225   3.229   7.360  10.368
 5482W        W 9226   7.122   0.768   3.045
 5483W        W 9227   0.707   3.086  10.915
 5484W        W 9228  10.491   9.436   1.988
 5485W        W 9229   6.141   9.119   3.416
 5486W        W 9230   1.105   0.442   9.149
 5487W        W 9231   6.176   6.187   2.049
 5488W        W 9232   4.030   9.893   3.482
 5489W        W 9233   7.030   4.595   3.751
 5490W        W 9234   9.256   3.406   9.793
 5491W        W 9235   4.571   4.151  10.891
 5492W        W 9236   5.040   2.387   9.491
 5493W        W 9237   1.209   4.233  11.022
 5494W        W 9238   8.595   7.131   8.705
 5495W        W 9239   9.371   0.914   8.987
 5496W        W 9240   8.906   1.749   8.823
 5497W        W 9241   5.070   6.102   9.550
 5498W        W 9242   6.117   1.958   0.242
 5499W        W 9243   0.775   6.349   2.952
 5500W        W 9244   4.215   3.604  11.729
 5501W        W 9245   3.270   6.154   8.551
 5502W        W 9246   0.676   8.863   9.102
 5503W        W 9247   6.278   1.402   8.403
 5504W        W 9248   4.578   9.265   0.460
 5505W        W 9249   0.969   1.757   0.107
 5506W        W 9250  10.403   4.501   2.630
 5507W        W 9251   8.621   7.557   0.825
 5508W        W 9252   9.365   1.532   9.556
 5509W        W 9253   9.884   1.345  11.190
 5510W        W 9254   4.301   3.118   2.729
 5511W        W 9255   2.880   2.160  10.332
 5512W        W 9256   4.273   5.227   1.411
 5513W        W 9257   7.610   8.806   0.577
 5514W        W 9258   4.755   1.710  10.363
 5515W        W 9259   6.162   7.559   8.077
 5516W        W 9260   9.283   6.233   0.960
 5517W        W 9261   8.475   6.055   2.660
 5518W        W 9262   3.208   7.130   1.177
 5519W        W 9263   2.795   9.746   2.227
 5520W        W 9264   9.430   3.565   2.520
 5521W        W 9265   6.434   2.303  10.973
 5522W        W 9266   6.166   9.671  11.831
 5523W        W 9267   6.462   2.166  11.458
 5524W        W 9268   5.956   4.660  11.739
 5525W        W 9269   7.193   6.666   8.353
 5526W        W 9270   7.134   1.966  11.495
 5527W        W 9271   1.460   7.911   1.925
 5528W        W 9272   9.074   6.995  11.724
 5529W        W 9273   9.178   2.240  10.944
 5530W        W 9274   0.436   6.932  11.885
 5531W        W 9275   7.487   8.054   2.312
 5532W        W 9276   1.210   9.980   0.496
 5533W        W 9277   0.437   7.643   1.873
 5534W        W 9278   3.378   3.652  10.878
 5535W        W 9279   5.746  10.340  10.981
 5536W        W 9280   2.638   8.821  11.955
 5537W        W 9281   1.291   0.966   2.608
 5538W        W 9282   4.593  10.402   3.370
 5539W        W 9283   9.109   8.882  11.056
 5540W        W 9284   2.207   2.529   9.232
 5541W        W 9285   9.400   8.193   3.073
 5542W        W 9286   6.404   5.351  10.431
 5543W        W 9287   6.550   1.737   0.384
 5544W        W 9288   3.270   2.358  10.644
 5545W        W 9289   5.669   8.368   9.946
 5546W        W 9290   7.465   1.507   2.685
 5547W        W 9291   7.909   7.996  10.243
 5548W        W 9292  10.258   2.761   9.358
 5549W        W 9293   1.669   5.040  10.957
 5550W        W 9294   7.119   9.768   3.816
 5551W        W 9295   1.259   4.182   0.935
 5552W        W 9296   9.775   2.794   9.544
 5553W        W 9297   0.852   0.419   1.432
 5554W        W 9298   6.484   0.782   8.842
 5555W        W 9299   4.763  10.087   1.705
 5556W        W 9300   7.479   9.010   3.501
 5557W        W 9301   9.174   1.409   3.426
 5558W        W 9302   8.027   8.022   2.281
 5559W        W 9303   5.605   2.648   2.445
 5560W        W 9304   2.094   9.071   3.368
 5561W        W 9305   7.159   9.738  11.960
 5562W        W 9306   0.689   0.051  11.434
 5563W        W 9307   8.531   3.184   1.404
 5564W        W 9308   9.021   6.047  11.466
 5565W        W 9309   8.323   2.445  10.764
 5566W        W 9310   3.263   7.304   0.218
 5567W        W 9311   8.308   7.137   0.730
 5568W        W 9312   4.203   0.351   1.735
 5569W        W 9313   0.810   4.768   1.488
 5570W        W 9314   0.926  10.130   8.559
 5571W        W 9315   3.416   9.997   0.967
 5572W        W 9316   5.648   4.125   1.212
 5573W        W 9317   7.372   3.157  10.678
 5574W        W 9318   3.668   3.533   2.446
 5575W        W 9319   7.945   9.749   3.463
 5576W        W 9320   9.858   4.722   2.384
 5577W        W 9321   6.531   6.082   0.663
 5578W        W 9322   9.991   4.477  10.985
 5579W        W 9323  10.324   6.126  11.212
 5580W        W 9324   4.198   0.871   8.954
 5581W        W 9325   1.826   7.367   0.911
 5582W        W 9326   4.261   9.495   1.083
 5583W        W 9327   0.877   2.258  11.970
 5584W        W 9328   5.621   7.245   2.819
 5585W        W 9329   4.722   6.464  10.812
 5586W        W 9330   5.552   2.695  11.395
 5587W        W 9331   7.478   8.949   1.049
 5588W        W 9332   2.826   9.062   0.375
 5589W        W 9333   8.086   4.210   3.161
 5590W        W 9334   8.090   5.107   2.593
 5591W        W 9335   6.562   2.661  11.354
 5592W        W 9336   8.096   4.985   1.581
 5593W        W 9337   1.409   1.681   1.184
 5594W        W 9338   9.709   2.270   2.230
 5595W        W 9339   8.381   2.423  10.267
 5596W        W 9340   3.709   0.433   9.845
 5597W        W 9341   8.811   3.150   2.468
 5598W        W 9342   3.967   9.441   8.475
 5599W        W 9343   7.532   1.897   2.142
 5600W        W 9344   8.937   2.632   0.246
 5601W        W 9345   7.055   6.936  11.715
 5602W        W 9346   5.060   2.367  10.489
 5603W        W 9347   6.012   7.922   2.400
 5604W        W 9348   0.044   2.409   0.914
 5605W        W 9349   6.249   4.655   1.585
 5606W        W 9350   2.258   3.320   2.957
 5607W        W 9351   1.956   4.573   3.318
 5608W        W 9352   7.669   6.489   3.412
 5609W        W 9353   7.077  10.194  10.913
 5610W        W 9354   2.204  10.260   9.258
 5611W        W 9355   7.895   0.251   9.532
 5612W        W 9356   2.953   8.533   3.293
 5613W        W 9357   3.120   0.681  10.930
 5614W        W 9358   2.410  10.237   1.691
 5615W        W 9359   8.582   9.360   9.084
 5616W        W 9360   0.732  10.075  11.331
 5617W        W 9361   7.597   2.818  10.362
 5618W        W 9362   8.526   6.427   9.550
 5619W        W 9363   6.949  10.417   1.216
 5620W        W 9364   4.547   0.318  11.037
 5621W        W 9365   0.371   4.511   1.433
 5622W        W 9366   0.719  10.237  11.834
 5623W        W 9367   2.747   8.555   9.182
 5624W        W 9368   2.999   4.161   0.336
 5625W        W 9369   4.587   0.103   1.526
 5626W        W 9370   0.443   9.385   1.756
 5627W        W 9371   0.987   4.649   9.183
 5628W        W 9372  10.198   2.244  10.647
 5629W        W 9373   7.012   9.906  10.003
 5630W        W 9374   4.625   7.209  11.590
 5631W        W 9375   5.551   3.073  10.640
 5632W        W 9376  10.309   1.569   1.321
 5633W        W 9377   4.091   2.602   0.953
 5634W        W 9378   0.954   2.250   3.219
 5635W        W 9379   1.751   0.738  11.402
 5636W        W 9380   3.185   8.699  11.936
 5637W        W 9381   5.833   8.067   4.056
 5638W        W 9382   8.442   8.488   1.243
 5639W        W 9383   8.632   5.290  11.800
 5640W        W 9384   2.291   4.555  11.691
 5641W        W 9385   9.365   4.213  10.469
 5642W        W 9386   2.411   2.912   8.468
 5643W        W 9387   5.591   7.541   9.370
 5644W        W 9388   6.520   3.421   1.025
 5645W        W 9389   8.064   1.650   9.780
 5646W        W 9390   3.246   3.209   1.806
 5647W        W 9391   4.832  10.335   0.716
 5648W        W 9392   1.779   4.700   0.936
 5649W        W 9393   2.615   4.280   2.864
 5650W        W 9394   1.325   1.963   8.871
 5651W        W 9395   4.726   0.430   2.429
 5652W        W 9396   5.667   5.962   3.190
 5653W        W 9397   1.749   4.342  11.766
 5654W        W 9398   4.709   8.022  11.085
 5655W        W 9399   0.858   5.709  10.226
 5656W        W 9400   0.440  10.214  10.403
 5657W        W 9401   2.360   6.973   1.724
 5658W        W 9402   9.774   8.593  10.435
 5659W        W 9403   3.848  10.025   1.676
 5660W        W 9404   5.107   2.562   2.700
 5661W        W 9405   5.197   1.643   8.720
 5662W        W 9406   8.662   0.533   3.137
 5663W        W 9407   7.001   1.205   1.941
 5664W        W 9408   9.086   2.188  11.990
 5665W        W 9409   2.319   9.424   2.241
 5666W        W 9410   3.410   0.890   8.755
 5667W        W 9411   5.301   8.479   1.493
 5668W        W 9412   2.484   6.145   0.471
 5669W        W 9413   3.101   0.797  11.904
 5670W        W 9414   7.451   0.650  11.376
 5671W        W 9415   0.533   6.031   2.199
 5672W        W 9416   7.354   6.126   3.225
 5673W        W 9417   5.633   4.088  10.976
 5674W        W 9418   4.367   8.572   1.314
 5675W        W 9419  10.370   7.032  11.234
 5676W        W 9420   5.896   7.078  10.459
 5677W        W 9421   5.001   7.998   0.819
 5678W        W 9422   6.455   3.648   9.905
 5679W        W 9423   1.703   3.552   9.340
 5680W        W 9424   2.776   1.900   0.433
 5681W        W 9425   2.884   6.945   9.401
 5682W        W 9426   0.894   6.621   8.951
 5683W        W 9427   7.965   2.668   2.338
 5684W        W 9428   4.051   2.649   2.726
 5685W        W 9429   0.919   6.174   2.475
 5686W        W 9430  10.286   7.907   0.405
 5687W        W 9431   8.397   0.133   3.286
 5688W        W 9432   0.167   0.896   3.191
 5689W        W 9433   3.493   0.524   3.508
 5690W        W 9434   4.595   4.106   7.868
 5691W        W 9435   7.357   6.551   0.338
 5692W        W 9436   3.196   9.942   2.920
 5693W        W 9437   6.953   9.846   2.631
 5694W        W 9438   7.704   1.850   2.961
 5695W        W 9439  10.399   8.908   9.679
 5696W        W 9440   3.828   2.764  10.554
 5697W        W 9441   9.372   9.098   0.016
 5698W        W 9442   0.009   2.633   8.644
 5699W        W 9443   8.862   5.817   0.325
 5700W        W 9444   5.003   0.854   2.613
 5701W        W 9445   6.610   6.458   1.808
 5702W        W 9446   8.948   7.429   1.575
 5703W        W 9447   5.359   2.773   3.412
 5704W        W 9448  10.028   0.862   9.587
 5705W        W 9449   2.409   5.693   3.186
 5706W        W 9450   6.464   1.133   1.932
 5707W        W 9451   2.681   8.398   2.895
 5708W        W 9452   7.869   7.439  11.525
 5709W        W 9453   6.174   2.043   2.784
 5710W        W 9454   4.161   7.128   1.464
 5711W        W 9455   8.885   8.875   3.334
 5712W        W 9456   3.422   2.677   2.524
 5713W        W 9457   2.976   0.759   8.482
 5714W        W 9458   9.336   3.052   9.405
 5715W        W 9459   8.819   7.541   3.076
 5716W        W 9460   5.108   5.248   9.048
 5717W        W 9461   9.737   5.602  11.680
 5718W        W 9462  10.068   2.141   3.150
 5719W        W 9463  10.428   2.720   2.596
 5720W        W 9464   6.429   6.056  10.868
 5721W        W 9465   7.204   9.722   8.556
 5722W        W 9466   8.603   4.511   0.790
 5723W        W 9467   4.218   3.121   0.898
 5724W        W 9468   4.359   9.514   2.803
 5725W        W 9469   6.138   8.577   3.377
 5726W        W 9470   7.372  10.185   8.742
 5727W        W 9471   9.387   7.943   0.971
 5728W        W 9472   4.758   4.551   9.064
 5729W        W 9473   2.871   6.692  10.303
 5730W        W 9474   3.540   2.388   0.489
 5731W        W 9475   1.405   8.645   0.138
 5732W        W 9476  10.040   6.478   0.127
 5733W        W 9477   6.209  10.032  10.878
 5734W        W 9478   1.706   8.342   3.601
 5735W        W 9479   4.584   9.074   1.354
 5736W        W 9480   9.033   9.096   0.432
 5737W        W 9481   7.381   3.242   1.347
 5738W        W 9482   5.945   2.602   9.407
 5739W        W 9483   3.648   6.230   8.912
 5740W        W 9484   8.079   2.829   9.731
 5741W        W 9485   0.231   3.040  11.430
 5742W        W 9486   2.105   3.437  10.155
 5743W        W 9487   0.879   2.373  11.438
 5744W        W 9488   1.817   3.385   1.030
 5745W        W 9489   1.734   4.142   1.125
 5746W        W 9490   9.719   4.276   2.145
 5747W        W 9491   1.003   0.445   3.236
 5748W        W 9492   2.715   5.880   8.559
 5749W        W 9493   6.137   1.736   8.794
 5750W        W 9494   9.410   5.539   8.842
 5751W        W 9495   4.072   0.927   2.386
 5752W        W 9496   2.386   4.209   2.415
 5753W        W 9497   8.904   9.946   9.533
 5754W        W 9498   8.711   2.372  11.069
 5755W        W 9499   6.007   3.864   9.258
 5756W        W 9500   1.633   0.758   3.231
 5757W        W 9501   1.442   4.616   2.194
 5758W        W 9502   2.258   2.330  10.642
 5759W        W 9503   6.151   9.372  10.024
 5760W        W 9504   9.011   8.852   2.277
 5761W        W 9505   9.402   7.292  11.491
 5762W        W 9506   1.150   7.926   9.983
 5763W        W 9507   9.278   5.061   0.743
 5764W        W 9508   3.727   3.645   0.907
 5765W        W 9509   9.904   9.541   2.125
 5766W        W 9510   9.595   4.815   3.798
 5767W        W 9511   6.908   6.578   3.746
 5768W        W 9512   9.481   4.824   2.790
 5769W        W 9513   3.347   3.213   9.591
 5770W        W 9514   7.411   2.339   3.042
 5771W        W 9515   4.084   8.235  11.772
 5772W        W 9516   9.015   7.468   8.809
 5773W        W 9517   2.514   0.717  10.093
 5774W        W 9518   9.445   9.084   2.831
 5775W        W 9519   0.240   9.557   2.815
 5776W        W 9520   8.292   6.220   9.978
 5777W        W 9521  10.018   4.539   8.953
 5778W        W 9522   8.404   6.998   1.879
 5779W        W 9523  10.276   4.089   1.867
 5780W        W 9524   1.759   0.763   2.722
 5781W        W 9525   1.038   9.995   1.004
 5782W        W 9526   5.821   0.320   9.715
 5783W        W 9527   3.670   2.249   2.680
 5784W        W 9528   2.365   6.228   1.298
 5785W        W 9529   2.315   3.002   9.367
 5786W        W 9530   9.732   7.655  10.650
 5787W        W 9531   4.612   1.347   1.580
 5788W        W 9532   2.407   9.374  10.748
 5789W        W 9533   9.363   5.878   2.752
 5790W        W 9534   9.440   0.293   1.560
 5791W        W 9535   5.922   6.886   0.753
 5792W        W 9536   7.580   4.603   8.627
 5793W        W 9537   3.116   7.046   9.991
 5794W        W 9538   1.850   9.401   1.984
 5795W        W 9539   5.570   9.935   2.213
 5796W        W 9540   9.110   7.208   0.188
 5797W        W 9541   5.097   5.580   2.669
 5798W        W 9542   6.526   0.306  10.453
 5799W        W 9543   2.278   4.964  10.315
 5800W        W 9544   8.522   8.395   0.703
 5801W        W 9545   9.865   2.662   0.385
 5802W        W 9546   9.573   0.777   1.401
 5803W        W 9547   8.336   0.479  11.784
 5804W        W 9548   7.553   0.587  10.409
 5805W        W 9549   8.169   7.960   9.268
 5806W        W 9550   2.247   0.193  10.911
 5807W        W 9551   2.329   1.596   2.184
 5808W        W 9552   1.897   9.555   3.459
 5809W        W 9553   1.163   9.077  10.685
 5810W        W 9554   6.480   7.799  10.313
 5811W        W 9555   3.619   5.127   0.215
 5812W        W 9556   8.039   6.929  10.854
 5813W        W 9557   6.511   3.228   9.122
 5814W        W 9558   9.069   4.187   8.636
 5815W        W 9559   4.176   5.727   2.322
 5816W        W 9560   0.742   7.465   3.164
 5817W        W 9561   0.698   2.132   0.444
 5818W        W 9562   7.604   1.830   1.150
 5819W        W 9563   3.260   4.206   3.572
 5820W        W 9564   5.944   8.027   8.349
 5821W        W 9565   9.607   5.061  10.053
 5822W        W 9566   8.686   5.794   3.548
 5823W        W 9567   4.891   9.505   9.955
 5824W        W 9568   9.751   3.347  10.195
 5825W        W 9569   4.473   1.841   1.373
 5826W        W 9570   4.285   0.675  11.325
 5827W        W 9571   4.132   7.736  11.818
 5828W        W 9572   2.559   1.705   9.446
 5829W        W 9573   8.110   4.621   9.444
 5830W        W 9574   0.495   5.554   2.432
 5831W        W 9575   6.427   7.435  11.716
 5832W        W 9576   3.257   9.476   3.155
 5833W        W 9577   0.855   8.313   9.065
 5834W        W 9578   8.488   9.900   1.019
 5835W        W 9579   9.070   5.023  11.837
 5836W        W 9580   8.100   4.202   9.110
 5837W        W 9581   3.483   8.432  10.028
 5838W        W 9582   9.441   5.843   9.545
 5839W        W 9583   9.607   9.394   1.460
 5840W        W 9584   6.034   3.019   2.803
 5841W        W 9585   5.758   7.831  11.760
 5842W        W 9586   1.452   3.244  11.337
 5843W        W 9587   9.138   6.629   2.143
 5844W        W 9588   5.222   1.902   0.260
 5845W        W 9589   0.674   4.292   2.721
 5846W        W 9590  10.163   9.076  10.933
 5847W        W 9591   0.382   0.340   9.577
 5848W        W 9592   3.192   7.149   2.657
 5849W        W 9593   7.852   6.928   1.905
 5850W        W 9594   9.169   0.513   3.235
 5851W        W 9595   8.928   3.666   2.499
 5852W        W 9596   4.111   0.926   9.482
 5853W        W 9597   4.479   7.188  10.512
 5854W        W 9598   3.347   3.609  11.892
 5855W        W 9599   2.746   9.888   2.701
 5856W        W 9600   3.630   9.812   3.194
 5857W        W 9601   6.441   9.597   8.825
 5858W        W 9602   3.150   9.769   0.280
 5859W        W 9603   0.195   8.055   1.711
 5860W        W 9604   4.385   5.724   2.783
 5861W        W 9605   6.196   1.438   3.614
 5862W        W 9606   1.845   7.772  10.427
 5863W        W 9607   9.363   2.509   9.427
 5864W        W 9608   8.017   7.739   8.552
 5865W        W 9609   2.683   6.368   4.126
 5866W        W 9610   5.468   5.518   2.264
 5867W        W 9611   5.962  10.179   3.622
 5868W        W 9612   3.193   9.374   2.150
 5869W        W 9613   0.248   5.438  11.813
 5870W        W 9614   0.043   2.712   3.529
 5871W        W 9615   5.421  10.393   2.447
 5872W        W 9616   1.026   0.875   2.193
 5873W        W 9617   0.824   3.577   9.861
 5874W        W 9618   8.269   1.401   2.207
 5875W        W 9619   3.786   4.144   3.249
 5876W        W 9620   8.764  10.304   1.431
 5877W        W 9621   4.076   6.225   2.395
 5878W        W 9622   7.521   3.138   8.663
 5879W        W 9623   4.136   4.128   8.674
 5880W        W 9624   6.932   8.951  10.965
 5881W        W 9625   5.459   2.671   9.647
 5882W        W 9626   3.209   9.328   9.534
 5883W        W 9627   8.912   7.919  11.139
 5884W        W 9628   6.465   5.153   9.847
 5885W        W 9629   1.198  10.023   2.367
 5886W        W 9630   1.179   6.680   9.368
 5887W        W 9631   6.496   7.539   9.544
 5888W        W 9632   8.550   3.049   0.888
 5889W        W 9633   7.391   4.999  10.728
 5890W        W 9634  10.199   2.344   3.599
 5891W        W 9635   3.080   7.153   3.182
 5892W        W 9636   7.127   4.702   2.889
 5893W        W 9637  10.297   6.563   0.555
 5894W        W 9638   0.344   8.470   0.858
 5895W        W 9639   2.046   8.680   3.685
 5896W        W 9640   6.967   7.494   2.850
 5897W        W 9641   6.064  10.079   2.056
 5898W        W 9642   1.655   8.991  11.844
 5899W        W 9643   4.823   6.970  10.835
 5900W        W 9644   0.567   3.135   9.992
 5901W        W 9645   0.254   8.541   1.856
 5902W        W 9646   5.137   3.673  11.655
 5903W        W 9647   5.660   2.826  11.872
 5904W        W 9648   2.272   6.015  11.268
 5905W        W 9649   4.712   5.549  10.716
 5906W        W 9650   4.274   3.356   0.193
 5907W        W 9651   5.454   9.606   9.317
 5908W        W 9652   3.873   5.257   1.723
 5909W        W 9653   4.176   7.486   3.565
 5910W        W 9654   4.113   7.910   9.237
 5911W        W 9655   0.833   1.882  11.622
 5912W        W 9656   5.546   2.914  10.128
 5913W        W 9657   3.484   2.188  11.853
 5914W        W 9658   9.098   7.160   9.868
 5915W        W 9659   3.850   7.094   9.379
 5916W        W 9660   6.707   8.020   1.523
 5917W        W 9661   6.173   9.359   0.826
 5918W        W 9662   0.987   7.454   0.411
 5919W        W 9663   8.605   8.681   0.285
 5920W        W 9664   2.674  10.417   0.099
 5921W        W 9665   8.804   3.288  10.566
 5922W        W 9666   1.266   7.747  11.797
 5923W        W 9667   7.386   5.616   2.609
 5924W        W 9668   8.368  10.214   9.781
 5925W        W 9669   6.727  10.471   3.028
 5926W        W 9670   5.585   9.145   9.170
 5927W        W 9671   3.974   0.648   3.406
 5928W        W 9672   2.078   1.123  11.309
 5929W        W 9673   3.926  10.242   0.820
 5930W        W 9674   6.819   7.922   9.402
 5931W        W 9675   8.825   5.037  11.391
 5932W        W 9676   6.109   0.847   2.292
 5933W        W 9677  10.412   3.708   2.674
 5934W        W 9678  10.049   0.946   2.280
 5935W        W 9679   9.379   1.631   8.635
 5936W        W 9680   2.756   4.085   8.965
 5937W        W 9681   2.810   5.083   0.473
 5938W        W 9682   0.838   3.155  10.427
 5939W        W 9683   8.928   6.422  10.728
 5940W        W 9684   4.771   8.983   3.389
 5941W        W 9685   0.845   2.306  10.515
 5942W        W 9686   0.946   9.760   3.058
 5943W        W 9687   7.544  10.470  10.856
 5944W        W 9688   2.574   0.807   1.010
 5945W        W 9689   0.908   8.891   2.938
 5946W        W 9690   1.844   7.408   3.019
 5947W        W 9691  10.357   0.426   9.395
 5948W        W 9692   2.830   0.338  10.302
 5949W        W 9693   8.987   9.787   2.677
 5950W        W 9694   6.123   8.468   9.036
 5951W        W 9695   5.575   5.373  11.374
 5952W        W 9696   2.259   2.379   8.713
 5953W        W 9697   0.427  10.481   9.962
 5954W        W 9698   2.824   3.160   9.431
 5955W        W 9699   5.052   1.815  11.263
 5956W        W 9700   5.759   5.543  11.821
 5957W        W 9701   2.231   0.251   2.312
 5958W        W 9702   7.518   6.567   2.949
 5959W        W 9703   5.206   9.214  10.226
 5960W        W 9704   5.578   5.592   9.451
 5961W        W 9705   6.981   8.424  11.455
 5962W        W 9706   7.054   1.632   8.992
 5963W        W 9707   5.611   1.243   9.769
 5964W        W 9708   2.343   6.913  11.986
 5965W        W 9709   7.527   9.409  11.922
 5966W        W 9710   0.945   3.616   3.233
 5967W        W 9711   4.028   3.574  10.022
 5968W        W 9712   3.670   5.154  10.238
 5969W        W 9713   8.870   9.453   0.823
 5970W        W 9714   4.964   8.166   9.269
 5971W        W 9715   0.908   5.569  10.718
 5972W        W 9716   1.871   6.528  10.755
 5973W        W 9717   9.780   7.657   1.312
 5974W        W 9718   6.619   7.248   9.141
 5975W        W 9719   2.650   5.154  11.984
 5976W        W 9720   7.561   7.509   8.438
 5977W        W 9721   3.557   0.003   0.229
 5978W        W 9722  10.270   8.663  11.838
 5979W        W 9723   4.254   7.226   0.988
 5980W        W 9724   0.963   3.326  11.275
 5981W        W 9725   2.136   4.944   1.308
 5982W        W 9726   4.302   8.823   8.888
 5983W        W 9727   9.546   2.193  11.278
 5984W        W 9728   1.831   5.990   2.051
 5985W        W 9729   5.605  10.047   9.096
 5986W        W 9730   0.213   8.283  10.405
 5987W        W 9731   0.775   7.388  11.532
 5988W        W 9732   9.212   2.157   2.179
 5989W        W 9733   8.578   1.952  10.147
 5990W        W 9734   7.881   1.430   1.453
 5991W        W 9735   3.376   4.739   2.713
 5992W        W 9736   7.871   7.083  11.890
 5993W        W 9737   8.616   3.881   0.571
 5994W        W 9738   5.555   5.869   1.563
 5995W        W 9739   0.460   6.662   0.842
 5996W        W 9740   6.079   4.788   9.831
 5997W        W 9741   6.412   7.011   9.582
 5998W        W 9742   8.826   3.677   9.591
 5999W        W 9743   7.121   3.633   1.563
 6000W        W 9744   2.479   0.701   2.426
 6001W        W 9745   9.887   8.735   2.537
 6002W        W 9746   8.740   8.386  10.352
 6003W        W 9747   4.090   5.579   0.058
 6004W        W 9748   1.394   0.874   9.006
 6005W        W 9749   8.315   3.239   2.430
 6006W        W 9750   2.924   2.729   2.626
 6007W        W 9751   4.702   8.484   3.558
 6008W        W 9752   4.786   2.117  10.044
 6009W        W 9753   9.954   7.463   0.396
 6010W        W 9754   7.509  10.009   3.421
 6011W        W 9755   0.661  10.427   1.260
 6012W        W 9756   3.955   4.765   9.371
 6013W        W 9757   0.730   5.426   1.302
 6014W        W 9758   0.339   3.855   0.347
 6015W        W 9759   6.611   1.005   0.826
 6016W        W 9760   9.517   9.414  11.549
 6017W        W 9761   7.446   9.088  10.872
 6018W        W 9762   3.336   6.071   0.244
 6019W        W 9763   8.953   1.264   9.769
 6020W        W 9764   3.239   0.180  10.891
 6021W        W 9765   4.694   4.987   1.617
 6022W        W 9766   0.440   5.740   0.993
 6023W        W 9767   4.933   8.891  11.043
 6024W        W 9768   9.970   6.906   9.886
 6025W        W 9769   8.588   7.784  11.975
 6026W        W 9770   5.815   4.336  10.001
 6027W        W 9771   8.112   4.274  10.916
 6028W        W 9772   0.328   9.004   3.480
 6029W        W 9773  10.245   2.259  10.123
 6030W        W 9774   0.923   9.047   0.469
 6031W        W 9775   8.397   8.966   1.483
 6032W        W 9776   3.941   4.517   1.035
 6033W        W 9777   1.114   1.825   3.445
 6034W        W 9778  10.242   3.666   0.499
 6035W        W 9779   6.815   0.797   1.231
 6036W        W 9780   3.024   1.695   0.828
 6037W        W 9781   4.304   8.723   3.328
 6038W        W 9782   3.075   9.213  10.038
 6039W        W 9783   0.053   5.486   8.515
 6040W        W 9784   1.565   3.378  11.842
 6041W        W 9785   7.577   1.284   9.012
 6042W        W 9786   5.221   3.585  10.718
 6043W        W 9787   4.821   3.707  11.012
 6044W        W 9788   1.039   5.865   1.249
 6045W        W 9789   1.821   1.929   3.752
 6046W        W 9790   7.886   5.594   2.689
 6047W        W 9791   1.354   6.010  11.356
 6048W        W 9792   0.674   3.921   3.560
 6049W        W 9793   0.970   3.338   0.705
 6050W        W 9794   5.254   8.424   0.971
 6051W        W 9795   4.408   1.150  11.476
 6052W        W 9796   3.109   3.969   0.795
 6053W        W 9797   2.802   8.938   1.646
 6054W        W 9798   0.324   1.084   0.978
 6055W        W 9799   7.652   6.823   9.996
 6056W        W 9800   6.926   3.759   8.533
 6057W        W 9801   8.331   7.507   3.235
 6058W        W 9802   5.702   9.207   2.626
 6059W        W 9803   1.110   0.035   1.000
 6060W        W 9804   0.052   1.142   1.408
 6061W        W 9805   0.679   5.237  10.377
 6062W        W 9806   6.209   5.603  10.849
 6063W        W 9807   3.169   9.175  10.901
 6064W        W 9808   9.148   6.929  11.219
 6065W        W 9809   9.837  10.437   2.250
 6066W        W 9810   3.169   7.064   8.556
 6067W        W 9811   4.977   6.614   9.437
 6068W        W 9812  10.141   4.116   2.371
 6069W        W 9813   0.087   3.716   1.666
 6070W        W 9814   7.837   7.381   3.197
 6071W        W 9815   1.244   6.412   3.156
 6072W        W 9816   0.878   4.458   0.704
 6073W        W 9817   7.955   2.143   3.302
 6074W        W 9818   7.765   8.005   8.903
 6075W        W 9819   3.619   8.063   1.195
 6076W        W 9820   7.652   5.244   2.353
 6077W        W 9821   6.108   2.292   3.217
 6078W        W 9822   2.445   2.444  10.179
 6079W        W 9823   8.581   7.328   9.934
 6080W        W 9824   4.538   8.049   9.498
 6081W        W 9825   3.631   4.065  11.970
 6082W        W 9826   2.616   2.770  11.119
 6083W        W 9827   3.383   4.142   9.838
 6084W        W 9828   0.402   8.123  11.265
 6085W        W 9829   6.621   4.334   1.434
 6086W        W 9830   3.047   6.781   1.597
 6087W        W 9831   1.214   9.897  10.062
 6088W        W 9832   0.718   1.440   8.543
 6089W        W 9833   1.494  10.233   0.859
 6090W        W 9834   8.927   4.841   1.045
 6091W        W 9835   5.297   4.291   9.865
 6092W        W 9836   4.601   2.266   0.577
 6093W        W 9837   3.204   6.609   3.386
 6094W        W 9838   8.928   2.232   9.568
 6095W        W 9839  10.172   1.727  10.962
 6096W        W 9840   1.316   7.389   3.545
 6097W        W 9841   8.371   4.206  10.476
 6098W        W 9842   0.379  10.006   9.092
 6099W        W 9843   6.202   7.651  10.818
 6100W        W 9844   0.282   7.548   9.083
 6101W        W 9845   6.242   7.822   2.864
 6102W        W 9846   8.832   1.780   0.188
 6103W        W 9847   2.595   5.075   1.002
 6104W        W 9848   8.847   6.246   2.343
 6105W        W 9849   2.720   7.207  11.132
 6106W        W 9850   4.510   0.657   1.429
 6107W        W 9851   1.926   4.649  10.701
 6108W        W 9852   0.782   5.073   3.250
 6109W        W 9853   9.341   4.070   3.410
 6110W        W 9854   0.913   5.651   0.794
 6111W        W 9855   8.632   2.722   2.731
 6112W        W 9856   1.662   6.463   1.952
 6113W        W 9857   3.752   6.597   0.372
 6114W        W 9858   8.872   4.278   3.323
 6115W        W 9859   2.398   3.391   1.318
 6116W        W 9860   7.617   9.587   3.089
 6117W        W 9861   9.621   9.568   3.450
 6118W        W 9862   6.563  10.014   9.766
 6119W        W 9863   3.116   4.090  11.826
 6120W        W 9864   8.883   0.973   1.701
 6121W        W 9865   7.840  10.324   2.282
 6122W        W 9866   6.208   0.263   2.994
 6123W        W 9867   5.970   3.173   3.648
 6124W        W 9868   9.936   0.799   0.491
 6125W        W 9869   3.300   8.841   9.769
 6126W        W 9870   7.580   9.948   2.038
 6127W        W 9871   8.777   2.203   1.015
 6128W        W 9872   0.464   8.507   9.978
 6129W        W 9873   3.256   3.597  11.388
 6130W        W 9874   1.416   4.659  10.638
 6131W        W 9875   3.846   1.834   1.255
 6132W        W 9876   5.878   3.663   3.811
 6133W        W 9877   1.329   5.068   0.228
 6134W        W 9878   1.314   3.285   9.086
 6135W        W 9879   7.616   7.504   0.778
 6136W        W 9880   3.828   4.449   2.237
 6137W        W 9881   6.172   7.693   3.474
 6138W        W 9882   6.576   9.466   0.158
 6139W        W 9883   8.055   0.735  10.206
 6140W        W 9884   4.166   7.660  11.095
 6141W        W 9885   6.648   0.704   1.718
 6142W        W 9886   7.708   8.663   0.093
 6143W        W 9887   7.442   8.399   9.048
 6144W        W 9888   8.402   2.864   3.232
 6145W        W 9889   9.306   5.714  11.151
 6146W        W 9890   3.745   4.362   9.070
 6147W        W 9891   3.355   8.491   2.272
 6148W        W 9892   1.796   8.960   1.731
 6149W        W 9893   9.806   8.979   8.924
 6150W        W 9894   5.610   0.601   0.820
 6151W        W 9895   3.716   8.361   0.770
 6152W        W 9896   8.471   2.377   9.767
 6153W        W 9897   2.332   9.804  11.031
 6154W        W 9898   8.603   1.184  11.411
 6155W        W 9899   4.005   0.751   2.886
 6156W        W 9900   6.925   7.467   0.211
 6157W        W 9901   6.521   8.312  11.869
 6158W        W 9902   4.111   4.171   2.837
 6159W        W 9903   3.309   4.584   2.159
 6160W        W 9904   7.325  10.295   2.358
 6161W        W 9905   6.035   6.682   0.275
 6162W        W 9906   3.376   4.483   9.392
 6163W        W 9907   6.550   1.713   9.159
 6164W        W 9908   5.781   5.961   0.733
 6165W        W 9909   0.323   3.371   2.944
 6166W        W 9910  10.009   1.752   0.924
 6167W        W 9911   8.579   1.370   3.292
 6168W        W 9912   6.743   0.754  10.249
 6169W        W 9913   8.807   9.374   3.448
 6170W        W 9914   4.906   2.699   3.142
 6171W        W 9915   0.507   9.566   0.201
 6172W        W 9916   4.825   2.803   1.433
 6173W        W 9917   7.584   3.750   3.398
 6174W        W 9918   6.085   0.704  11.786
 6175W        W 9919   5.966   9.368   2.217
 6176W        W 9920   8.767   2.260  10.573
 6177W        W 9921   7.619   4.098  10.889
 6178W        W 9922   9.045   8.443  11.336
 6179W        W 9923   7.441   6.155   2.253
 6180W        W 9924   2.562   7.477   1.461
 6181W        W 9925   5.262   6.465   0.673
 6182W        W 9926   1.610   9.874  11.534
 6183W        W 9927   0.871   7.542   9.789
 6184W        W 9928  10.017   5.349   0.030
 6185W        W 9929  10.324   2.303   0.036
 6186W        W 9930   6.853   6.136  10.097
 6187W        W 9931   2.462  10.377   0.740
 6188W        W 9932   3.356   2.815  10.422
 6189W        W 9933   0.346   0.290   1.463
 6190W        W 9934   5.251   6.253  11.529
 6191W        W 9935   1.725   1.613   2.851
 6192W        W 9936   3.308   7.875   9.529
 6193W        W 9937   5.329   6.049   0.344
 6194W        W 9938   1.092   3.156   9.965
 6195W        W 9939   7.345  10.175   0.174
 6196W        W 9940   7.382   0.702   2.462
 6197W        W 9941   3.663  10.428  11.730
 6198W        W 9942   0.434   6.132  10.299
 6199W        W 9943   2.750   0.785  10.546
 6200W        W 9944   4.046   5.069  11.949
 6201W        W 9945   1.180   9.809   3.839
 6202W        W 9946  10.053   8.980   1.393
 6203W        W 9947   5.778   1.566   1.007
 6204W        W 9948   1.502   5.995   0.297
 6205W        W 9949   9.558   8.128  10.267
 6206W        W 9950   4.707   4.122   3.646
 6207W        W 9951   7.297   2.815   9.949
 6208W        W 9952   5.738   7.331  10.870
 6209W        W 9953   1.172   6.128   0.715
 6210W        W 9954   2.720   5.524   3.546
 6211W        W 9955  10.232   4.179   3.408
 6212W        W 9956   2.343   5.232   9.865
 6213W        W 9957   6.756   0.337   9.969
 6214W        W 9958   5.139   3.867  10.267
 6215W        W 9959   3.779   3.758   2.899
 6216W        W 9960   0.329   6.481   2.345
 6217W        W 9961   8.741   1.386   1.989
 6218W        W 9962  10.190   1.699   2.900
 6219W        W 9963   7.018   6.533   2.783
 6220W        W 9964   9.503   1.397   9.083
 6221W        W 9965   3.843   2.645   3.480
 6222W        W 9966   6.483   8.813  11.925
 6223W        W 9967   2.069   1.724   9.590
 6224W        W 9968   3.286   8.579   0.952
 6225W        W 9969  10.403   7.678   1.881
 6226W        W 9970   1.207   2.132   0.349
 6227W        W 9971   6.241   4.135   2.642
 6228W        W 9972   9.599   8.495  11.376
 6229W        W 9973   8.438   2.624  11.437
 6230W        W 9974   9.323   7.344  10.594
 6231W        W 9975   3.693   9.280   3.375
 6232W        W 9976   5.928   8.070   3.220
 6233W        W 9977   3.514   4.826   0.978
 6234W        W 9978   4.317   9.848   9.374
 6235W        W 9979   2.242   3.505   9.327
 6236W        W 9980   7.440   1.952   3.408
 6237W        W 9981   2.365   8.839   8.980
 6238W        W 9982   9.456   1.740  10.019
 6239W        W 9983   5.924   7.362  11.783
 6240W        W 9984   7.879  10.357  11.437
 6241W        W 9985   0.594   8.185   2.004
 6242W        W 9986  10.324   7.752   2.386
 6243W        W 9987   9.021   4.527   0.095
 6244W        W 9988   3.863   6.150   1.803
 6245W        W 9989   0.815   2.608   2.456
 6246W        W 9990  10.338   9.555  10.977
 6247W        W 9991   2.836   1.077   1.764
 6248W        W 9992   9.662   5.971   9.990
 6249W        W 9993   9.457   1.192  11.431
 6250W        W 9994   1.492   5.465   3.474
 6251W        W 9995   1.441   3.227   1.640
 6252W        W 9996   5.997   9.796   2.470
 6253W        W 9997   5.789   8.720   2.724
 6254W        W 9998   7.165   0.868   1.597
 6255W        W 9999   6.976   5.641   9.364
 6256W        W10000   7.611   1.561  10.543
 6257W        W10001   2.128   2.804   3.100
 6258W        W10002   8.867  10.188   2.278
 6259W        W10003   1.011   7.918  10.491
 6260W        W10004   0.408   6.656   9.854
 6261W        W10005   4.087   7.021  10.829
 6262W        W10006  10.005   0.881  11.461
 6263W        W10007   5.172   1.681   9.247
 6264W        W10008   5.060   6.075  10.067
 6265W        W10009   2.825   7.625  10.607
 6266W        W10010   3.471   7.648   8.504
 6267W        W10011   6.460   4.168   3.143
 6268W        W10012   5.914  10.332   2.473
 6269W        W10013  10.246   4.120   9.188
 6270W        W10014   9.781   5.197   2.987
 6271W        W10015   9.917   3.209   1.945
 6272W        W10016   1.819   9.420   9.462
 6273W        W10017   0.403   0.847  11.559
 6274W        W10018  10.228   3.259   2.439
 6275W        W10019   9.281   6.607   3.560
 6276W        W10020  10.481   4.738   9.078
 6277W        W10021   0.816   1.454   9.465
 6278W        W10022   8.075   7.895   1.298
 6279W        W10023   6.251   7.865   1.754
 6280W        W10024   9.245   0.742  10.952
 6281W        W10025   6.511   6.919  10.071
 6282W        W10026   7.090  10.274   3.319
 6283W        W10027   4.308   4.284   2.386
 6284W        W10028   0.904   0.807  10.752
 6285W        W10029   0.952   4.660   3.491
 6286W        W10030   8.456   7.705   2.321
 6287W        W10031   0.473   2.562   0.700
 6288W        W10032   8.564   7.490   1.872
 6289W        W10033   2.237   1.485   2.715
 6290W        W10034   9.556   1.941  10.493
 6291W        W10035   9.088   7.631  11.895
 6292W        W10036   9.381   8.416   1.262
 6293W        W10037   1.346   8.015   1.413
 6294W        W10038   4.413   9.056   2.978
 6295W        W10039   6.740   1.356  11.038
 6296W        W10040   0.405   3.749   2.055
 6297W        W10041   9.373   6.656   8.935
 6298W        W10042  10.447   2.265  11.553
 6299W        W10043   1.608   0.825  11.904
 6300W        W10044   5.216   3.333  10.295
 6301W        W10045   3.771   7.389  11.883
 6302W        W10046  10.472   3.588  10.422
 6303W        W10047   1.920   0.048   0.046
 6304W        W10048   7.405   1.668   0.261
 6305W        W10049   7.420   9.288   0.677
 6306W        W10050  10.472   9.590   9.056
 6307W        W10051   7.825   6.971   2.419
 6308W        W10052   2.604   1.642   3.120
 6309W        W10053   7.012   0.701   2.096
 6310W        W10054  10.221   4.674   9.530
 6311W        W10055   7.943   5.650  11.297
 6312W        W10056   5.709   0.762   1.994
 6313W        W10057  10.049   5.544   8.376
 6314W        W10058   1.727   1.196  10.348
 6315W        W10059   9.438   1.596  11.810
 6316W        W10060   8.162   4.546  11.675
 6317W        W10061   1.610   8.951  10.931
 6318W        W10062   7.367   4.318  10.477
 6319W        W10063  10.492   1.914   0.982
 6320W        W10064   2.361   9.181   9.465
 6321W        W10065   6.803   5.090  10.606
 6322W        W10066   7.423   3.617  10.944
 6323W        W10067   8.919   7.464  11.400
 6324W        W10068   7.894   5.070   9.562
 6325W        W10069   7.428   4.233   2.172
 6326W        W10070   1.929   8.429   0.839
 6327W        W10071   4.576   0.725   9.566
 6328W        W10072   9.968   1.782  11.952
 6329W        W10073   3.687   9.108   9.523
 6330W        W10074   2.198   9.941  10.121
 6331W        W10075   4.828   1.771   2.446
 6332W        W10076   9.048   3.694   0.757
 6333W        W10077   0.438   3.153   1.954
 6334W        W10078  10.461   5.070   0.076
 6335W        W10079   8.874   6.490  11.249
 6336W        W10080   8.852   8.481   8.895
 6337W        W10081   1.466   7.005   2.295
 6338W        W10082   2.648   7.331   8.174
 6339W        W10083   0.292   7.627  11.384
 6340W        W10084   2.221  10.219   0.291
 6341W        W10085   4.076   1.810   1.704
 6342W        W10086   5.659   2.155   2.394
 6343W        W10087   7.570   7.498   9.440
 6344W        W10088   5.090   2.112   9.011
 6345W        W10089   9.040   6.192  11.982
 6346W        W10090   5.309   6.756   3.584
 6347W        W10091   9.320   3.874   9.624
 6348W        W10092   5.362   4.760  10.621
 6349W        W10093   2.185   9.803   1.922
 6350W        W10094   3.464   6.642   1.838
 6351W        W10095   6.637   3.265   9.614
 6352W        W10096   6.006   0.746   9.058
 6353W        W10097   1.642   1.822   3.297
 6354W        W10098   4.388  10.451   8.617
 6355W        W10099   4.598   7.606  11.975
 6356W        W10100   2.260   6.484  11.097
 6357W        W10101   1.011  10.441  11.054
 6358W        W10102   2.194   2.042  11.631
 6359W        W10103   2.356   3.296   1.853
 6360W        W10104   6.512   2.107   3.468
 6361W        W10105   5.114   6.911   1.817
 6362W        W10106   5.442   2.543   0.838
 6363W        W10107   1.873   6.718   8.858
 6364W        W10108   5.578   9.759   0.449
 6365W        W10109   1.865   2.305   1.867
 6366W        W10110   6.491   4.042  11.361
 6367W        W10111   5.056  10.363  10.271
 6368W        W10112   7.998   4.602   3.450
 6369W        W10113   8.569   3.197   8.724
 6370W        W10114   1.321  10.413   8.728
 6371W        W10115  10.389  10.044   9.575
 6372W        W10116   0.817   0.720   2.726
 6373W        W10117   5.965   9.071   1.222
 6374W        W10118   4.313   0.442   0.208
 6375W        W10119   1.062   4.728  10.996
 6376W        W10120   7.564   6.387  10.886
 6377W        W10121   0.431   5.662  10.504
 6378W        W10122   7.708   5.762   3.143
 6379W        W10123   4.000   9.609   2.436
 6380W        W10124   1.797   5.079   0.419
 6381W        W10125   1.687   7.581   9.273
 6382W        W10126   6.171   2.790   1.675
 6383W        W10127   3.191  10.183  10.025
 6384W        W10128   6.625   8.875  10.547
 6385W        W10129   8.893  10.419   3.294
 6386W        W10130   6.272   7.063   2.321
 6387W        W10131   1.424   2.270   3.377
 6388W        W10132   8.779   9.992  10.016
 6389W        W10133   1.575   1.195   0.390
 6390W        W10134   3.638   8.965   0.065
 6391W        W10135   5.936   7.174   8.690
 6392W        W10136   8.320   4.170  11.365
 6393W        W10137   7.552   6.926  10.933
 6394W        W10138   0.003   8.429   9.582
 6395W        W10139   8.317   0.953   2.434
 6396W        W10140   9.772   7.602  11.377
 6397W        W10141  10.249   2.262   9.549
 6398W        W10142   3.914   0.929   8.494
 6399W        W10143   6.565   0.428  11.042
 6400W        W10144   7.550   1.805   8.964
 6401W        W10145   8.463   1.786   9.118
 6402W        W10146   2.687   6.116  11.539
 6403W        W10147   0.861   6.930   3.034
 6404W        W10148  10.222   5.370   2.777
 6405W        W10149   3.619   0.971   9.620
 6406W        W10150   9.877   4.962   1.671
 6407W        W10151   8.151   7.055  10.000
 6408W        W10152   7.317   8.768  11.266
 6409W        W10153   1.890  10.007  11.952
 6410W        W10154   8.028   7.424   8.148
 6411W        W10155   4.617   8.485  10.841
 6412W        W10156   3.040   8.511   1.861
 6413W        W10157   9.779   6.517   2.716
 6414W        W10158   0.815   3.765  10.352
 6415W        W10159   1.391   6.761   1.258
 6416W        W10160   5.220   1.380   0.500
 6417W        W10161  10.421   4.155   0.305
 6418W        W10162   0.702   1.685  11.164
 6419W        W10163   3.667   4.627  10.268
 6420W        W10164   4.402   2.362   9.833
 6421W        W10165   3.945   2.282   3.102
 6422W        W10166   1.155   6.680  10.283
 6423W        W10167   8.896   7.954   8.833
 6424W        W10168   0.673   8.035   9.937
 6425W        W10169   8.478  10.015   9.260
 6426W        W10170   1.320   8.734   0.619
 6427W        W10171   5.552   2.860   8.677
 6428W        W10172   4.357   8.063   1.461
 6429W        W10173   8.246   3.266   2.945
 6430W        W10174  10.346   5.157   1.498
 6431W        W10175   3.561   1.839   1.713
 6432W        W10176   0.977   6.905  11.586
 6433W        W10177   8.340   2.166   0.793
 6434W        W10178   4.611   5.985  10.947
 6435W        W10179   8.312   8.896  11.346
 6436W        W10180   1.856   9.901   2.640
 6437W        W10181   7.193   1.352  10.799
 6438W        W10182   4.625   9.613   1.844
 6439W        W10183   7.629   0.036   2.708
 6440W        W10184   6.953   6.296   0.501
 6441W        W10185   2.980   6.441   0.234
 6442W        W10186   5.127   7.162   3.320
 6443W        W10187   4.257  10.320  10.941
 6444W        W10188   0.770  10.412   2.390
 6445W        W10189   5.327   8.804   2.912
 6446W        W10190   6.027   4.232   8.381
 6447W        W10191   3.340   0.528   9.096
 6448W        W10192   0.836   4.351   1.207
 6449W        W10193   1.684   1.348  11.864
 6450W        W10194   0.560   6.637  11.480
 6451W        W10195   0.495   2.432   9.476
 6452W        W10196   8.136  10.044  11.752
 6453W        W10197   5.129   2.854  10.430
 6454W        W10198  10.468   3.773  10.931
 6455W        W10199   8.073   1.935   1.391
 6456W        W10200   6.729   2.711  10.854
 6457W        W10201   2.303   8.079   0.948
 6458W        W10202   3.189   6.629  10.830
 6459W        W10203   1.879   8.988  11.374
 6460W        W10204   6.695   9.844  10.927
 6461W        W10205   4.243   2.015  11.582
 6462W        W10206   1.645   7.023   0.516
 6463W        W10207   8.970   3.130  11.535
 6464W        W10208   1.329   0.231   1.435
 6465W        W10209   4.682   3.594   3.946
 6466W        W10210   2.341   8.742  11.341
 6467W        W10211   2.793   2.399   1.945
 6468W        W10212   1.402   5.704   0.941
 6469W        W10213   9.134   4.165  10.017
 6470W        W10214   9.838   2.344   9.255
 6471W        W10215   0.559   2.732  10.520
 6472W        W10216   0.887   2.177   2.707
 6473W        W10217   0.953   5.715   2.236
 6474W        W10218   4.869   8.651   1.201
 6475W        W10219   7.563   0.470   1.763
 6476W        W10220   2.158   6.010   0.872
 6477W        W10221   9.295   6.850   9.402
 6478W        W10222   6.991   9.754   9.507
 6479W        W10223   3.253   5.776   1.417
 6480W        W10224   8.428   4.095   1.844
 6481W        W10225   2.296   0.940   9.161
 6482W        W10226   2.416   4.536  10.804
 6483W        W10227   1.797   9.504  11.866
 6484W        W10228   4.339   8.432   8.530
 6485W        W10229   6.023   2.522   2.732
 6486W        W10230   7.260   0.403  10.916
 6487W        W10231   0.167  10.257   1.428
 6488W        W10232   0.283  10.208   2.235
 6489W        W10233   1.320   4.765   0.670
 6490W        W10234   8.070   9.769   1.895
 6491W        W10235   8.892   2.986   1.968
 6492W        W10236   7.429   9.485   1.167
 6493W        W10237   6.243   9.613   9.554
 6494W        W10238   3.597   9.364   9.952
 6495W        W10239   1.680   2.463   1.383
 6496W        W10240   7.386   7.064   9.637
 6497W        W10241   4.243   7.463   9.472
 6498W        W10242   1.916   7.272   2.379
 6499W        W10243   6.448   7.408   0.913
 6500W        W10244   1.338   9.326   8.736
 6501W        W10245   4.610   4.138   1.704
 6502W        W10246   6.648   9.511   9.863
 6503W        W10247   0.517   5.533   3.219
 6504W        W10248   2.272  10.310  11.764
 6505W        W10249   6.039   1.395   1.440
 6506W        W10250   6.203   5.199   0.506
 6507W        W10251   5.293   6.119   8.235
 6508W        W10252   0.902   3.879  11.262
 6509W        W10253   3.062   7.565   1.406
 6510W        W10254   7.518   5.269  11.913
 6511W        W10255   5.725   1.296  11.275
 6512W        W10256   7.825   2.270   1.844
 6513W        W10257   4.507   7.702   3.212
 6514W        W10258   3.808   4.523  10.767
 6515W        W10259   9.528   5.650  10.626
 6516W        W10260   5.997   2.198   1.780
 6517W        W10261   2.129   7.443   9.008
 6518W        W10262   0.189   7.336   1.533
 6519W        W10263   2.004   6.034   0.350
 6520W        W10264   5.665   4.355  10.515
 6521W        W10265   2.246   8.183   3.075
 6522W        W10266   7.455   1.400   2.197
 6523W        W10267   2.383   3.256   8.898
 6524W        W10268   6.438   5.699   1.398
 6525W        W10269   5.082   9.969   0.423
 6526W        W10270   4.649   2.336   2.360
 6527W        W10271  10.046   9.545   0.699
 6528W        W10272   4.155   7.701   2.349
 6529W        W10273   8.944   6.674   9.723
 6530W        W10274   7.873   8.456  10.387
 6531W        W10275   8.130   3.647   1.910
 6532W        W10276   8.349   5.247  11.369
 6533W        W10277   3.285   2.294   1.813
 6534W        W10278   0.350   9.475  11.729
 6535W        W10279   5.968   3.303   0.424
 6536W        W10280   3.826   6.544   1.455
 6537W        W10281   5.589   7.547   2.370
 6538W        W10282   7.465   6.052   0.327
 6539W        W10283   6.552   9.852  10.270
 6540W        W10284   7.388   0.654   0.307
 6541W        W10285   0.835   7.338   1.738
 6542W        W10286   5.086   3.771   3.674
 6543W        W10287   1.010   9.503   0.822
 6544W        W10288   5.044   5.143   2.416
 6545W        W10289   5.163   6.545   3.132
 6546W        W10290   4.753   6.253  11.386
 6547W        W10291   9.152   7.465   3.889
 6548W        W10292  10.315   4.126  11.718
 6549W        W10293   3.581   2.704   9.000
 6550W        W10294   2.097   5.119   0.839
 6551W        W10295   6.986   0.629   3.507
 6552W        W10296   1.805   9.964   3.161
 6553W        W10297   6.702   1.715  11.451
 6554W        W10298   1.205   5.154  10.774
 6555W        W10299   9.808   0.852   2.727
 6556W        W10300   0.650   9.355   3.214
 6557W        W10301   6.105   9.156  10.506
 6558W        W10302   7.409   1.170   0.338
 6559W        W10303   9.923   2.677   1.313
 6560W        W10304   9.720   4.311   2.661
 6561W        W10305   9.071   6.531   1.648
 6562W        W10306   8.819   3.109   2.994
 6563W        W10307   3.716   2.285   9.245
 6564W        W10308   1.304   6.272   9.978
 6565W        W10309   0.294  10.042   2.737
 6566W        W10310   8.898   0.764   8.477
 6567W        W10311   8.505   3.201  11.374
 6568W        W10312  10.371   0.398  10.482
 6569W        W10313   5.071   5.096   2.926
 6570W        W10314   6.475   0.844   9.825
 6571W        W10315   9.408   9.030   9.236
 6572W        W10316   8.952   5.528  10.255
 6573W        W10317  10.488   7.158  11.721
 6574W        W10318   3.856   1.891   2.171
 6575W        W10319   4.414   8.230   3.180
 6576W        W10320   7.941   8.381   1.195
 6577W        W10321   5.566   2.726   2.941
 6578W        W10322   5.178   4.020  11.257
 6579W        W10323   7.977   7.889   0.351
 6580W        W10324   7.174   9.688  11.014
 6581W        W10325   7.596   4.955   2.770
 6582W        W10326   5.680  10.413   9.443
 6583W        W10327   0.052   7.660   1.104
 6584W        W10328   6.204   1.578  11.497
 6585W        W10329   0.490   9.287   9.641
 6586W        W10330   0.477  10.394   1.798
 6587W        W10331   5.659   2.312   3.444
 6588W        W10332   8.323   4.971   3.409
 6589W        W10333   0.822   4.856   0.998
 6590W        W10334   4.623   1.303   3.111
 6591W        W10335   5.511   0.861   8.997
 6592W        W10336   5.132   7.565   4.018
 6593W        W10337   6.133   1.927   2.300
 6594W        W10338   2.234   2.369   2.839
 6595W        W10339   5.265   1.899   3.366
 6596W        W10340   8.677   6.928   0.196
 6597W        W10341   9.443   0.493   2.808
 6598W        W10342   9.397   3.088  11.788
 6599W        W10343   0.895   4.166   8.436
 6600W        W10344   4.791   5.602   0.798
 6601W        W10345   2.423   8.196   9.475
 6602W        W10346   4.997   5.632   2.160
 6603W        W10347  10.023   7.900  11.703
 6604W        W10348  10.211   8.664   8.710
 6605W        W10349   6.685   8.077   0.993
 6606W        W10350   1.297   9.457   9.757
 6607W        W10351   0.657   4.330  10.350
 6608W        W10352   5.653   3.153   4.063
 6609W        W10353   1.483   6.307  10.468
 6610W        W10354   8.196   4.222   8.159
 6611W        W10355   6.915   4.798  11.370
 6612W        W10356   0.055   8.834   1.208
 6613W        W10357   7.660   4.115   8.827
 6614W        W10358   9.020   5.261   1.469
 6615W        W10359   0.901   9.324   9.006
 6616W        W10360   6.921   8.881   2.352
 6617W        W10361   3.077   3.710   8.787
 6618W        W10362   4.131   2.639  10.144
 6619W        W10363   4.348   1.905   2.335
 6620W        W10364   0.271   9.074   2.966
 6621W        W10365   1.842   4.117  11.236
 6622W        W10366   9.296   7.040   0.950
 6623W        W10367   6.112   0.405   1.985
 6624W        W10368   7.472   3.775   1.201
 6625W        W10369   0.767   8.118   1.541
 6626W        W10370   5.582   3.864  10.505
 6627W        W10371  10.282   8.725   9.218
 6628W        W10372   8.079  10.284   2.745
 6629W        W10373   2.309   5.278   9.105
 6630W        W10374   8.553   6.114  11.829
 6631W        W10375   4.773   7.928   1.836
 6632W        W10376   2.387   4.989   8.625
 6633W        W10377   0.324   2.131  10.300
 6634W        W10378   6.424   6.509   9.379
 6635W        W10379   6.124  10.188  10.395
 6636W        W10380   8.881   0.374   9.654
 6637W        W10381   1.880   7.888   3.262
 6638W        W10382   2.625   6.053   2.385
 6639W        W10383   5.216   2.892   1.120
 6640W        W10384   2.802   1.508  11.199
 6641W        W10385   3.482   1.036  10.958
 6642W        W10386   5.532   3.853   3.455
 6643W        W10387  10.074   3.409  11.792
 6644W        W10388   3.087   8.989   1.236
 6645W        W10389   1.683   8.060  11.001
 6646W        W10390   8.762   5.995  10.450
 6647W        W10391   7.931   5.860   9.965
 6648W        W10392   3.519   1.927  11.027
 6649W        W10393   5.286   9.040   3.400
 6650W        W10394   9.336   9.877  11.646
 6651W        W10395   4.972   9.694   9.487
 6652W        W10396   3.388   5.946  11.350
 6653W        W10397   8.489   0.986  10.016
 6654W        W10398   5.253   2.630  10.925
 6655W        W10399   7.970   9.878   1.340
 6656W        W10400   4.876   7.795   2.764
 6657W        W10401   1.421   1.333  10.787
 6658W        W10402   4.227   8.726   2.226
 6659W        W10403   6.514   2.742   0.394
 6660W        W10404   2.230   5.625  10.947
 6661W        W10405   5.982   5.157  10.644
 6662W        W10406   1.465   9.730   0.858
 6663W        W10407   7.357   2.836   3.231
 6664W        W10408   1.903   5.402   1.248
 6665W        W10409   4.599   9.458  11.439
 6666W        W10410  10.094   0.009  10.979
 6667W        W10411   7.421   0.328  11.805
 6668W        W10412   3.685   5.854  10.947
 6669W        W10413   0.779   0.813   1.749
 6670W        W10414   3.967   1.819   2.681
 6671W        W10415  10.064   3.658   9.389
 6672W        W10416   9.448   6.017  11.745
 6673W        W10417   4.008   0.091   0.437
 6674W        W10418   7.942   9.233   1.863
 6675W        W10419   7.490   3.558  11.475
 6676W        W10420   6.205   4.639   2.584
 6677W        W10421  10.223   7.472   1.437
 6678W        W10422   8.033   1.307  10.634
 6679W        W10423   6.713   3.887   2.796
 6680W        W10424   2.572   9.894  10.503
 6681W        W10425   9.418   2.041   9.610
 6682W        W10426   0.209   0.652   1.829
 6683W        W10427   8.922   6.075   1.856
 6684W        W10428   4.614   5.956   9.841
 6685W        W10429   7.051   6.040   2.609
 6686W        W10430   1.420   6.208   9.488
 6687W        W10431   2.801   1.908   2.158
 6688W        W10432   7.313   2.335  10.266
 6689W        W10433   3.347   6.319  10.453
 6690W        W10434   0.800   4.088  10.769
 6691W        W10435   9.670   5.911   9.074
 6692W        W10436   8.529   6.563   2.822
 6693W        W10437   2.135   0.479   1.819
 6694W        W10438   9.428  10.268   1.663
 6695W        W10439   9.805   8.147   1.212
 6696W        W10440   6.350   9.113   9.641
 6697W        W10441   3.205   8.800   8.728
 6698W        W10442   1.774   2.648   2.731
 6699W        W10443   9.335   8.496   0.763
 6700W        W10444   4.299   0.302   3.237
 6701W        W10445   2.209   5.259   2.408
 6702W        W10446   1.771   0.710   9.828
 6703W        W10447   3.051   2.296  11.615
 6704W        W10448   2.559   4.016   8.495
 6705W        W10449   8.016   9.588  11.928
 6706W        W10450   5.051   0.810  10.396
 6707W        W10451   9.274   3.045   2.303
 6708W        W10452   1.518   8.453   9.736
 6709W        W10453   2.703   4.204   1.003
 6710W        W10454  10.387   1.289   9.498
 6711W        W10455   7.158   0.241   2.631
 6712W        W10456   1.383   6.987  11.226
 6713W        W10457   5.894   5.741   1.958
 6714W        W10458   2.707   7.022   1.326
 6715W        W10459   2.187   1.437  10.460
 6716W        W10460   4.940   4.579  11.957
 6717W        W10461   4.263   3.290   9.478
 6718W        W10462   8.031   0.196  10.072
 6719W        W10463   8.966   8.378   1.550
 6720W        W10464   6.671   2.741   1.463
 6721W        W10465   4.378   8.772   0.375
 6722W        W10466   2.420   8.969   2.501
 6723W        W10467   1.268   0.920   1.640
 6724W        W10468   7.139   5.707  11.112
 6725W        W10469   8.358   2.370   3.047
 6726W        W10470  10.139  10.447   9.330
 6727W        W10471   1.164   9.522   2.628
 6728W        W10472   2.631   2.853   9.892
 6729W        W10473   3.338   7.637  10.805
 6730W        W10474   0.983   1.064   9.745
 6731W        W10475   3.877   8.711   0.427
 6732W        W10476   6.082  10.191  11.827
 6733W        W10477   5.247   9.041   2.467
 6734W        W10478   5.178   2.384   2.239
 6735W        W10479   7.066   6.212   1.820
 6736W        W10480   1.478   0.218   3.274
 6737W        W10481   4.978   7.632   3.519
 6738W        W10482   5.215   5.673   9.811
 6739W        W10483   7.678   3.291   3.626
 6740W        W10484  10.180   0.313   2.169
 6741W        W10485   6.508   9.269   1.561
 6742W        W10486   5.090   9.979   9.943
 6743W        W10487   3.767   0.513   1.475
 6744W        W10488   5.725   5.045   0.003
 6745W        W10489   4.185   1.907   9.745
 6746W        W10490   8.051   5.240   0.687
 6747W        W10491   2.170   4.283   8.964
 6748W        W10492   7.044   3.313   9.906
 6749W        W10493   7.011   0.587   9.083
 6750W        W10494   5.671   7.358  10.068
 6751W        W10495   5.922   0.883  11.006
 6752W        W10496   4.973   7.071   8.531
 6753W        W10497   1.911   0.478   3.572
 6754W        W10498   5.528   5.995  11.882
 6755W        W10499   7.411   5.921   9.886
 6756W        W10500   9.271   4.210   9.130
 6757W        W10501   4.804   2.777   3.632
 6758W        W10502   5.136   5.097   3.437
 6759W        W10503   3.403   3.314   0.313
 6760W        W10504   0.883   4.577   9.961
 6761W        W10505   2.830   6.198   9.992
 6762W        W10506   8.301   5.074  10.511
 6763W        W10507   2.345   9.457   1.104
 6764W        W10508   6.198   0.829   3.173
 6765W        W10509   7.936   4.062   1.654
 6766W        W10510   1.818   7.428   3.521
 6767W        W10511   8.921   8.962   9.110
 6768W        W10512   5.139   4.019   1.883
 6769W        W10513  10.265   0.051  11.858
 6770W        W10514   7.928   6.104   0.520
 6771W        W10515   1.863   4.642   1.905
 6772W        W10516   9.917   8.606   2.035
 6773W        W10517   0.609   5.500   9.307
 6774W        W10518   4.040   2.764  10.996
 6775W        W10519   4.716   1.545   9.421
 6776W        W10520   8.746   0.009  10.018
 6777W        W10521   1.417   5.865   9.037
 6778W        W10522   0.423   3.979  11.463
 6779W        W10523   1.305   7.511   1.666
 6780W        W10524   8.055   2.784   9.233
 6781W        W10525   4.945   1.009  10.853
 6782W        W10526   4.101  10.420  10.448
 6783W        W10527   2.686   2.901   1.765
 6784W        W10528   3.212   3.624   9.299
 6785W        W10529   3.763   3.091   2.693
 6786W        W10530   6.573   8.015  10.772
 6787W        W10531   0.338   5.045   2.347
 6788W        W10532   7.029   6.448   2.277
 6789W        W10533   8.308   8.407  10.087
 6790W        W10534   0.419   3.747   9.038
 6791W        W10535   9.709   2.320  10.808
 6792W        W10536   2.226   2.939  10.195
 6793W        W10537   0.722   4.879  11.342
 6794W        W10538   2.304   1.957   2.563
 6795W        W10539   1.009   5.469   2.706
 6796W        W10540   3.593   5.351   1.287
 6797W        W10541   5.703   0.482   8.699
 6798W        W10542   5.615   0.389  10.157
 6799W        W10543   5.550   7.990   0.774
 6800W        W10544   5.240   0.778   1.162
 6801W        W10545   1.266   4.654   1.175
 6802W        W10546   1.470   6.593   0.777
 6803W        W10547   5.620   8.561   9.151
 6804W        W10548   4.314   2.205   2.756
 6805W        W10549   9.585   5.131  11.833
 6806W        W10550   0.701   0.324   0.946
 6807W        W10551   9.466   1.396   0.602
 6808W        W10552   6.435   3.677   9.408
 6809W        W10553   5.029   8.176   2.374
 6810W        W10554   9.474   1.468   2.978
 6811W        W10555   3.285   7.390   0.726
 6812W        W10556   7.973   3.870   8.490
 6813W        W10557   5.755   1.779   3.520
 6814W        W10558   8.440   0.814  10.533
 6815W        W10559   0.190   2.050   9.355
 6816W        W10560   3.812   7.620   8.913
 6817W        W10561   0.983   6.582  11.201
 6818W        W10562   6.363   8.791   1.681
 6819W        W10563   7.004   8.149  11.032
 6820W        W10564   0.358   9.789   9.594
 6821W        W10565   8.378   4.607   9.871
 6822W        W10566   2.131  10.353   2.654
 6823W        W10567   5.550   1.669  10.029
 6824W        W10568   0.410  10.499   3.159
 6825W        W10569   5.069   7.462   0.065
 6826W        W10570   2.648  10.361   9.480
 6827W        W10571   3.742   7.158   0.336
 6828W        W10572   4.043   5.684   1.374
 6829W        W10573   4.061   5.796   0.551
 6830W        W10574   1.405   0.453   8.644
 6831W        W10575   4.737   8.599   3.037
 6832W        W10576   9.051   5.375   2.342
 6833W        W10577   4.732   6.457   9.923
 6834W        W10578   8.479   9.844   1.529
 6835W        W10579   1.445   4.642   2.695
 6836W        W10580   1.673   5.504  10.186
 6837W        W10581   6.367   4.642   1.003
 6838W        W10582   3.023   7.700   8.145
 6839W        W10583   7.359   6.186   1.286
 6840W        W10584   6.892   1.300   9.354
 6841W        W10585   0.871   8.812  11.390
 6842W        W10586   3.070   0.301  11.340
 6843W        W10587   5.106   5.221  10.595
 6844W        W10588   3.493   0.025   2.311
 6845W        W10589   3.684  10.356   1.251
 6846W        W10590   8.991   2.718   9.727
 6847W        W10591   7.054   9.422   0.346
 6848W        W10592   7.673   8.383   1.920
 6849W        W10593   2.842   6.412   0.718
 6850W        W10594   5.744   0.918   3.524
 6851W        W10595   3.136   5.520   9.252
 6852W        W10596   6.199   3.467  10.345
 6853W        W10597   2.173   6.311   2.355
 6854W        W10598   6.479   9.728   0.602
 6855W        W10599   1.822   3.618   3.201
 6856W        W10600   2.664   9.994   0.423
 6857W        W10601   1.779   0.912  10.802
 6858W        W10602   4.178   1.428   1.285
 6859W        W10603   3.468   9.048  11.612
 6860W        W10604   1.065   2.747  10.695
 6861W        W10605   0.719   6.068   8.959
 6862W        W10606   0.524   8.697   0.453
 6863W        W10607   7.677   7.876   1.885
 6864W        W10608   8.936   9.347   2.965
 6865W        W10609   6.304   7.545   2.144
 6866W        W10610   0.394   6.382   1.297
 6867W        W10611   9.807   4.925   0.250
 6868W        W10612  10.250  10.055  10.399
 6869W        W10613   6.483   3.192   0.044
 6870W        W10614   0.708   1.279   2.325
 6871W        W10615   6.962   2.206   2.714
 6872W        W10616   6.721   5.227   2.176
 6873W        W10617   7.973   8.456   8.735
 6874W        W10618   3.191   4.461   0.749
 6875W        W10619   0.759   6.293   0.384
 6876W        W10620   1.510   2.451   0.593
 6877W        W10621   7.081   4.733   8.597
 6878W        W10622   6.827   7.086  10.433
 6879W        W10623   1.375   6.367   9.000
 6880W        W10624   2.312   8.978   2.002
 6881W        W10625   9.830   4.246   1.246
 6882W        W10626   9.573   8.486   9.927
 6883W        W10627   8.819   0.421  11.119
 6884W        W10628   2.104   6.883  10.487
 6885W        W10629   3.860   5.724  11.423
 6886W        W10630   1.983   7.662  10.894
 6887W        W10631   9.857   8.361   0.739
 6888W        W10632   4.497   4.530   1.988
 6889W        W10633   4.913  10.450   2.516
 6890W        W10634   9.744   7.909   9.836
 6891W        W10635   7.693   1.336  11.938
 6892W        W10636   7.579   9.129  10.263
 6893W        W10637  10.406   2.508   1.397
 6894W        W10638   0.488   0.712  10.457
 6895W        W10639   2.119   6.465   0.100
 6896W        W10640   4.170   9.796   1.990
 6897W        W10641   7.998   8.843  10.084
 6898W        W10642   2.253   6.909  11.486
 6899W        W10643   7.076   4.493   2.425
 6900W        W10644   4.655   4.106   2.727
 6901W        W10645   8.970   0.300   2.793
 6902W        W10646   9.031   1.809   1.159
 6903W        W10647   9.425   2.735  10.903
 6904W        W10648   0.369   7.108  11.386
 6905W        W10649   7.000   3.624   1.056
 6906W        W10650   2.994   0.309   8.769
 6907W        W10651   9.871   9.959   2.410
 6908W        W10652   9.606   8.151   9.375
 6909W        W10653   5.026   4.112   1.410
 6910W        W10654   9.705   9.220   0.854
 6911W        W10655   6.513   1.237   0.386
 6912W        W10656   1.426   7.366   0.154
 6913W        W10657  10.119   9.076   2.179
 6914W        W10658  10.416   6.931   1.700
 6915W        W10659   2.546   0.517   8.961
 6916W        W10660   0.420   1.186   1.821
 6917W        W10661   3.324   7.584  11.777
 6918W        W10662   8.814   0.880   2.244
 6919W        W10663   4.083   4.551   3.200
 6920W        W10664   8.842   1.168   3.710
 6921W        W10665   2.807   5.563   1.247
 6922W        W10666   8.459   6.155  10.836
 6923W        W10667   9.424   7.508   1.750
 6924W        W10668   1.660   5.070  10.458
 6925W        W10669   5.563   2.263  11.693
 6926W        W10670   2.707  10.409  10.013
 6927W        W10671   9.056   9.013   9.635
 6928W        W10672   7.228   4.071   3.766
 6929W        W10673   3.881   1.045  11.447
 6930W        W10674   2.623   1.624  10.710
 6931W        W10675   0.668   5.847   2.832
 6932W        W10676   7.625   9.128   1.495
 6933W        W10677   5.983   9.893   8.578
 6934W        W10678   6.843   6.157   3.084
 6935W        W10679   6.392   2.329   9.347
 6936W        W10680   6.326   4.350  10.024
 6937W        W10681   7.163   0.920  10.486
 6938W        W10682   7.898   0.848  11.236
 6939W        W10683   3.095   3.208   1.166
 6940W        W10684   8.321   1.430   1.695
 6941W        W10685   9.108   0.796  11.931
 6942W        W10686   7.882   1.234   0.989
 6943W        W10687   5.324   5.679   0.681
 6944W        W10688   4.559   5.149   0.620
 6945W        W10689   9.682   3.156  10.682
 6946W        W10690   3.863   4.911   1.356
 6947W        W10691   8.813   0.399  11.624
 6948W        W10692   2.580   2.462   1.321
 6949W        W10693   9.441  10.030   1.184
 6950W        W10694   5.265   7.004  11.990
 6951W        W10695   5.816   6.798   3.711
 6952W        W10696   9.432   2.949   9.907
 6953W        W10697   9.036   4.056  11.878
 6954W        W10698   6.928   2.423   0.767
 6955W        W10699   4.866   2.117   1.935
 6956W        W10700   2.490   8.325   8.256
 6957W        W10701  10.002   6.858  10.907
 6958W        W10702   1.750   7.683   1.512
 6959W        W10703   2.838   9.929  10.929
 6960W        W10704   1.117   7.185   1.340
 6961W        W10705   1.926   7.448   0.414
 6962W        W10706  10.200   3.136  10.337
 6963W        W10707   4.585   1.649  11.523
 6964W        W10708   3.567   6.351  11.037
 6965W        W10709   7.205   6.558   8.862
 6966W        W10710   2.366   8.727   0.407
 6967W        W10711   0.285   9.712   2.321
 6968W        W10712   2.330   7.460   0.752
 6969W        W10713   0.182   2.680  11.808
 6970W        W10714   6.034   8.196  11.994
 6971W        W10715   9.317   1.740  11.335
 6972W        W10716   5.011   0.524  10.961
 6973W        W10717   9.742   6.726   8.586
 6974W        W10718   1.693   7.857   0.269
 6975W        W10719   7.975   9.844   2.418
 6976W        W10720   4.748   1.661   8.391
 6977W        W10721  10.005   1.431   1.719
 6978W        W10722   6.447   8.012   9.816
 6979W        W10723  10.432   5.607  10.497
 6980W        W10724   7.085   9.918   1.264
 6981W        W10725   3.052   4.608   9.020
 6982W        W10726   5.316   2.871   2.078
 6983W        W10727   1.223   8.004   0.862
 6984W        W10728   8.969   3.977   2.918
 6985W        W10729   1.266   1.946  11.334
 6986W        W10730   7.087   1.147   2.457
 6987W        W10731   6.015   1.580   2.764
 6988W        W10732   5.732   9.064   3.115
 6989W        W10733   0.485   3.087   0.734
 6990W        W10734   8.584   2.241   1.521
 6991W        W10735   4.382   1.207  11.969
 6992W        W10736   8.985   6.986   9.001
 6993W        W10737   5.207   3.094   3.047
 6994W        W10738   5.812   1.399  11.779
 6995W        W10739   3.254   6.648   1.060
 6996W        W10740   0.402   7.615  10.015
 6997W        W10741   8.939   7.820   1.226
 6998W        W10742   0.671   0.857   3.221
 6999W        W10743   7.087   1.744   2.461
 7000W        W10744   0.173   9.924  11.419
 7001W        W10745   0.776   4.166   0.209
 7002W        W10746  10.468   2.923   2.130
 7003W        W10747   8.079   3.758  10.326
 7004W        W10748   7.055  10.372  10.392
 7005W        W10749   7.954   5.652  10.711
 7006W        W10750   7.674   3.591   0.353
 7007W        W10751   9.823   7.867   0.696
 7008W        W10752   3.278   9.272   0.276
 7009W        W10753   0.017   3.209  11.879
 7010W        W10754   9.499  10.034   0.260
 7011W        W10755   3.165   4.602   8.171
 7012W        W10756   3.398   4.480   3.160
 7013W        W10757   0.931   3.847   2.757
 7014W        W10758   9.161  10.323   9.786
 7015W        W10759   2.616   6.494   1.664
 7016W        W10760   1.403   9.775   1.392
 7017W        W10761   4.255   0.478   2.240
 7018W        W10762   9.993   6.702   1.417
 7019W        W10763   4.946   7.132   3.794
 7020W        W10764   3.840   9.045  11.241
 7021W        W10765   4.601   0.898   2.248
 7022W        W10766   0.679  10.003   9.973
 7023W        W10767   3.178   7.151  10.829
 7024W        W10768   5.787   4.685  10.898
 7025W        W10769   7.327   0.853   1.112
 7026W        W10770   4.677   6.479   0.795
 7027W        W10771   5.426   5.419   0.216
 7028W        W10772  10.330   0.808  10.196
 7029W        W10773   6.845  10.272   9.437
 7030W        W10774   3.789   1.455  10.895
 7031W        W10775   9.892   4.070   0.382
 7032W        W10776   2.826   6.686   9.814
 7033W        W10777   2.358   8.531  10.865
 7034W        W10778   9.783   3.596   0.761
 7035W        W10779   5.178   9.823   2.979
 7036W        W10780   9.211   7.438   3.390
 7037W        W10781   4.718   3.628   2.951
 7038W        W10782   9.845   6.368  10.932
 7039W        W10783   2.735   1.653   2.596
 7040W        W10784   0.368   3.592  10.094
 7041W        W10785   7.549   4.437   2.652
 7042W        W10786   2.139   2.881   2.075
 7043W        W10787   1.568   3.678   1.380
 7044W        W10788   8.978   8.341  10.822
 7045W        W10789   1.778   3.149  10.458
 7046W        W10790   7.295   3.360   3.254
 7047W        W10791   1.902   8.943   9.612
 7048W        W10792   7.362   4.536  11.512
 7049W        W10793   2.224   5.543   1.914
 7050W        W10794   8.085   1.583  11.062
 7051W        W10795   2.652   4.662  10.024
 7052W        W10796   2.929  10.225   1.704
 7053W        W10797   8.969   1.794   9.838
 7054W        W10798   6.071   3.320   9.407
 7055W        W10799   9.982   0.355   9.005
 7056W        W10800   6.174   0.626   3.636
 7057W        W10801  10.331   1.384  10.472
 7058W        W10802   3.582   9.948  11.526
 7059W        W10803   5.011   9.954  11.205
 7060W        W10804   7.566   5.039   1.855
 7061W        W10805   8.652   3.658   9.001
 7062W        W10806   6.261   0.855  10.380
 7063W        W10807   2.509   4.021   9.419
 7064W        W10808   8.509   3.364  11.991
 7065W        W10809   3.772   0.307   3.058
 7066W        W10810   9.724   0.358  10.789
 7067W        W10811   6.939   5.985  10.655
 7068W        W10812   0.885   3.847   1.861
 7069W        W10813   8.141   4.629  10.324
 7070W        W10814   1.257   3.824   2.353
 7071W        W10815   6.988   8.301   9.766
 7072W        W10816  10.045   1.823  10.440
 7073W        W10817  10.261   6.007   1.751
 7074W        W10818   5.859   0.697   2.789
 7075W        W10819   0.897   8.971   3.466
 7076W        W10820   4.073   4.090  10.797
 7077W        W10821   4.712   8.628   1.688
 7078W        W10822  10.485   3.756   3.193
 7079W        W10823   1.682   1.964   1.483
 7080W        W10824   6.650   6.214   4.004
 7081W        W10825   8.600   1.736   0.868
 7082W        W10826   0.169   0.837   0.569
 7083W        W10827   1.004   4.669   0.265
 7084W        W10828   0.164   2.170   2.285
 7085W        W10829   1.811   7.157  10.867
 7086W        W10830   8.947   7.517  10.313
 7087W        W10831   8.555   2.132  11.471
 7088W        W10832   6.548   0.978  11.941
 7089W        W10833   9.684   8.952  11.095
 7090W        W10834   2.790   9.570  11.666
 7091W        W10835   7.800   6.585   0.659
 7092W        W10836   8.482   3.709  11.539
 7093W        W10837   0.365   5.024   1.364
 7094W        W10838   3.620   4.085  11.020
 7095W        W10839   6.160   7.030  10.950
 7096W        W10840   0.824   2.199   1.725
 7097W        W10841   2.382   3.775   1.682
 7098W        W10842   0.571   1.904   3.440
 7099W        W10843   8.392   7.419  11.423
 7100W        W10844   7.586   3.763   2.048
 7101W        W10845   6.604   1.227  11.506
 7102W        W10846   2.760   7.384   2.832
 7103W        W10847   0.619   4.600  10.784
 7104W        W10848   0.794   0.939   8.713
 7105W        W10849   6.254   4.946   0.044
 7106W        W10850   3.962   2.095  11.998
 7107W        W10851   2.953  10.323   3.131
 7108W        W10852   5.808   0.470   3.244
 7109W        W10853   2.207   8.705   8.487
 7110W        W10854   1.507   1.263   3.180
 7111W        W10855   0.164   8.937  10.888
 7112W        W10856   1.159   0.904   3.089
 7113W        W10857   3.284   4.151   8.981
 7114W        W10858   8.595   1.369   0.415
 7115W        W10859   6.597   6.520   0.896
 7116W        W10860   7.401   2.261  10.864
 7117W        W10861   3.410  10.279   1.860
 7118W        W10862   9.338   1.820   0.253
 7119W        W10863   6.262   7.858   0.792
 7120W        W10864   2.696   0.561   0.217
 7121W        W10865   5.764   4.925   0.492
 7122W        W10866   6.413   8.997  11.001
 7123W        W10867   6.253   0.394   9.987
 7124W        W10868   3.116   9.304  11.381
 7125W        W10869   6.517  10.437   9.086
 7126W        W10870   6.843   4.361  10.075
 7127W        W10871  10.062   2.173   8.752
 7128W        W10872   7.562   2.225   9.299
 7129W        W10873   1.299   7.943   9.056
 7130W        W10874   8.593   1.277   8.956
 7131W        W10875   7.858   3.793   9.313
 7132W        W10876   4.284   1.815   9.242
 7133W        W10877  10.416   4.843   3.611
 7134W        W10878  10.009   1.892   2.455
 7135W        W10879   2.578   9.004   1.158
 7136W        W10880   3.700   7.570  10.284
 7137W        W10881   8.405   3.734   9.930
 7138W        W10882   2.861   2.397   9.854
 7139W        W10883  10.311   1.585   8.648
 7140W        W10884   6.575   1.948   2.041
 7141W        W10885   4.084   7.819   0.327
 7142W        W10886   0.804   3.280   8.983
 7143W        W10887   3.583   5.513   9.874
 7144W        W10888   1.751  10.397   9.501
 7145W        W10889   9.899   0.174   0.839
 7146W        W10890   6.013   0.944   8.585
 7147W        W10891   7.263   7.761  11.962
 7148W        W10892   6.747   2.692   2.310
 7149W        W10893   3.703   0.820  10.551
 7150W        W10894   2.223   8.189   3.573
 7151W        W10895   8.338   3.673   9.421
 7152W        W10896   7.909   3.212   2.103
 7153W        W10897   0.947   3.224   1.834
 7154W        W10898   7.435   8.641  10.538
 7155W        W10899   0.828   0.618   9.584
 7156W        W10900   9.083   1.938  10.319
 7157W        W10901   9.096   9.285   1.369
 7158W        W10902   4.335   2.897  10.523
 7159W        W10903   8.610   1.202   1.328
 7160W        W10904   6.898   2.566   3.522
 7161W        W10905   4.133   6.120   9.635
 7162W        W10906   2.305  10.324  11.258
 7163W        W10907   2.937   3.259   9.941
 7164W        W10908   9.037   1.265  11.713
 7165W        W10909   1.864   0.184  10.537
 7166W        W10910   1.096   2.675   3.453
 7167W        W10911   9.544   2.618  11.981
 7168W        W10912   7.131   4.194   2.855
 7169W        W10913   0.688   6.035  10.728
 7170W        W10914   6.539   1.937  11.913
 7171W        W10915   2.635   4.081  10.934
 7172W        W10916   8.286   6.970   2.615
 7173W        W10917   0.957   8.499   0.916
 7174W        W10918   1.391   0.265   9.542
 7175W        W10919   1.534   5.053   9.346
 7176W        W10920   4.082   4.363   0.572
 7177W        W10921   4.149   8.356   3.634
 7178W        W10922   6.459   6.093   9.760
 7179W        W10923   8.107   2.102   9.993
 7180W        W10924   3.230   8.952   2.446
 7181W        W10925   7.907   0.207   3.457
 7182W        W10926   3.098   3.728  10.000
 7183W        W10927   4.020  10.221  11.413
 7184W        W10928   1.169   5.959   2.887
 7185W        W10929   0.937   1.280   1.878
 7186W        W10930   8.817   8.554   9.433
 7187W        W10931   4.332   6.609   2.885
 7188W        W10932   7.537   6.062   8.903
 7189W        W10933   0.691   1.959   9.367
 7190W        W10934   3.775   0.962   1.775
 7191W        W10935   7.013   0.158   2.144
 7192W        W10936   5.828   2.899   2.066
 7193W        W10937   9.832   8.846   0.054
 7194W        W10938   1.811  10.175  10.500
 7195W        W10939   3.105   2.299   2.358
 7196W        W10940   0.669   1.353   0.057
 7197W        W10941   2.131   2.406   0.638
 7198W        W10942   7.466   4.125   9.309
 7199W        W10943   3.367   0.754  11.388
 7200W        W10944   2.671  10.394   2.656
 7201W        W10945   0.004   5.548   9.027
 7202W        W10946   4.966   1.695   2.951
 7203W        W10947   3.939   4.475   0.101
 7204W        W10948   9.318   4.549   2.379
 7205W        W10949   9.221  10.126  10.373
 7206W        W10950   9.356   0.915   0.394
 7207W        W10951   1.234   2.750   9.283
 7208W        W10952   2.588   4.212   1.936
 7209W        W10953   3.095   5.559   9.752
 7210W        W10954   2.837   8.973   9.511
 7211W        W10955   5.531   6.051  10.747
 7212W        W10956   7.709   7.798   9.844
 7213W        W10957   3.074   2.713   8.859
 7214W        W10958   5.040  10.391   8.719
 7215W        W10959   6.509  10.464   0.007
 7216W        W10960   3.833   3.168   9.758
 7217W        W10961   7.824   6.470   0.170
 7218W        W10962   6.049   2.185   8.466
 7219W        W10963   3.218   3.199  11.043
 7220W        W10964   4.768  10.142   9.361
 7221W        W10965   4.118   7.038   9.795
 7222W        W10966  10.294   9.937   2.722
 7223W        W10967   4.097   2.643   1.864
 7224W        W10968   0.512   0.852   2.186
 7225W        W10969   1.351   1.464   0.750
 7226W        W10970   2.046   1.784   1.788
 7227W        W10971   3.747  10.086   2.193
 7228W        W10972   5.635   4.869  11.377
 7229W        W10973   9.843   7.731   2.241
 7230ION    NA+10974   7.820   7.031   9.048
 7231ION    NA+10975   8.852  10.454  11.970
 7232ION    NA+10976   0.265   6.682   3.627
 7233ION    NA+10977   6.658   1.797   3.045
 7234ION    NA+10978  10.499   3.692  11.502
 7235ION    NA+10979   1.361   8.630   2.933
 7236ION    NA+10980   9.976   6.482   0.954
 7237ION    NA+10981   4.888   0.352   9.407
 7238ION    NA+10982   2.955   4.652   0.219
 7239ION    NA+10983  10.404   0.563   8.830
 7240ION    NA+10984   7.398   4.693   8.160
 7241ION    NA+10985   0.190   9.070   9.251
 7242ION    NA+10986   5.274   7.102  11.046
 7243ION    NA+10987   5.216   3.074   9.035
 7244ION    NA+10988   6.369   8.907  10.120
 7245ION    NA+10989   1.436   6.746   9.808
 7246ION    NA+10990   4.066   1.981  11.064
 7247ION    NA+10991   1.576   0.263   0.940
 7248ION    NA+10992   2.745   0.346  10.820
 7249ION    NA+10993   2.326   2.527   1.771
 7250ION    NA+10994   9.413   0.142   2.043
 7251ION    NA+10995   0.472   7.721   1.362
 7252ION    NA+10996   7.684   0.814   3.816
 7253ION    NA+10997   7.906   3.744   9.817
 7254ION    NA+10998   0.228   5.319  10.817
 7255ION    NA+10999   3.806   4.788  11.204
 7256ION    NA+11000   7.044   1.980   0.516
 7257ION    NA+11001   3.629   9.272   2.399
 7258ION    NA+11002   6.622   3.535   1.874
 7259ION    NA+11003   3.241   6.568   9.453
 7260ION    NA+11004   1.619   4.990   1.354
 7261ION    NA+11005  10.448  10.394   2.940
 7262ION    NA+11006   2.670   1.976  11.110
 7263ION    NA+11007   6.915  10.094   8.960
 7264ION    NA+11008   9.360   3.261   0.796
 7265ION    NA+11009   1.687   1.800  11.064
 7266ION    NA+11010   1.728   2.984   9.172
 7267ION    NA+11011   4.530   6.794   9.598
 7268ION    NA+11012   1.782   7.159  11.534
 7269ION    NA+11013   3.845   0.949   0.622
 7270ION    NA+11014   0.293   9.146   0.325
 7271ION    NA+11015   9.397   1.462  10.444
 7272ION    NA+11016   7.587   2.112  11.349
 7273ION    NA+11017   9.614   5.226   3.473
 7274ION    NA+11018   4.530   5.171   0.088
 7275ION    NA+11019   0.924   5.398   0.124
 7276ION    NA+11020  10.111   9.621   9.535
 7277ION    NA+11021   3.359   6.655   2.603
 7278ION    NA+11022   2.727   9.336   1.937
 7279ION    NA+11023   5.913   9.126  10.983
 7280ION    NA+11024   4.934   3.292   8.101
 7281ION    NA+11025   5.379   4.869   1.644
 7282ION    NA+11026   9.647   3.724  11.132
 7283ION    NA+11027   0.225   5.156   1.857
 7284ION    NA+11028   1.153  10.062  11.634
 7285ION    NA+11029   1.715   0.402  10.989
 7286ION    NA+11030   4.117   8.142   1.010
 7287ION    NA+11031   5.112   2.389   1.208
 7288ION    NA+11032   1.079   9.017  11.847
 7289ION    NA+11033   0.337   8.041   2.826
 7290ION    NA+11034   6.303   9.628   1.895
 7291ION    NA+11035   4.975   4.748   0.893
 7292ION    NA+11036   0.678   0.787   0.756
 7293ION    NA+11037   1.393   9.701   3.344
 7294ION    NA+11038   3.807   0.901  10.070
 7295ION    NA+11039   1.879   7.741   9.776
 7296ION    NA+11040   5.258   5.581  11.744
 7297ION    NA+11041   3.932   0.065   9.450
 7298ION    NA+11042   2.809   0.181   0.531
 7299ION    NA+11043   7.882   0.702   2.236
 7300ION    NA+11044   2.015   0.542   0.006
 7301ION    NA+11045   4.746   3.657   1.929
 7302ION    NA+11046   1.015   8.176  11.883
 7303ION    NA+11047   6.784   7.648   0.675
 7304ION    NA+11048   2.765   7.943   2.312
 7305ION    NA+11049   4.382   8.642   9.946
 7306ION    CL-11050   5.128   4.955   1.274
 7307ION    CL-11051   4.866   5.391  11.871
 7308ION    CL-11052   9.019   2.804  10.238
 7309ION    CL-11053   8.564   1.387   9.453
 7310ION    CL-11054  10.407   3.249   1.753
 7311ION    CL-11055   5.471   6.870   1.454
 7312ION    CL-11056   1.704  10.045   8.579
 7313ION    CL-11057   8.546   8.800   9.803
 7314ION    CL-11058   9.233   0.212  10.885
 7315ION    CL-11059   3.202   2.779   3.273
 7316ION    CL-11060   1.946   8.169   9.657
 7317ION    CL-11061   2.799   3.640   1.095
 7318ION    CL-11062   7.270  10.098   9.244
 7319ION    CL-11063   0.624   7.311   1.258
 7320ION    CL-11064   2.683   1.870  11.545
 7321ION    CL-11065   1.166   8.569  11.711
 7322ION    CL-11066   1.323   2.954  11.730
 7323ION    CL-11067   3.725   8.872   2.228
 7324ION    CL-11068   4.660   0.499   1.913
 7325ION    CL-11069   9.157   2.617   8.716
 7326ION    CL-11070   2.847   0.576   1.999
 7327ION    CL-11071   3.936   0.807   1.039
 7328ION    CL-11072   6.786   9.018  10.005
 7329ION    CL-11073   8.532   9.144   0.524
 7330ION    CL-11074   9.409   4.362   9.634
 7331ION    CL-11075   6.749   9.540   1.926
 7332ION    CL-11076   9.341   3.481  10.899
 7333ION    CL-11077   7.882   8.909  10.608
 7334ION    CL-11078   2.884   4.535   3.229
 7335ION    CL-11079   2.676   1.272   1.302
 7336ION    CL-11080   0.641   9.103   0.013
 7337ION    CL-11081   0.157   8.955   0.718
 7338ION    CL-11082   2.096   3.823   0.407
 7339ION    CL-11083   1.571   2.939   8.746
 7340ION    CL-11084   4.435  10.003  11.966
 7341ION    CL-11085   1.276   8.627   2.486
 7342ION    CL-11086   2.458   7.661   2.472
 7343ION    CL-11087   5.127   9.205   9.502
 7344ION    CL-11088   4.750   9.908  10.301
 7345ION    CL-11089   8.331   5.344   8.808
 7346ION    CL-11090   6.549   1.391   3.224
 7347ION    CL-11091  10.070   3.722  11.348
 7348ION    CL-11092   9.847   8.002   1.767
 7349ION    CL-11093   6.851   7.154   0.960
 7350ION    CL-11094   2.257   1.891   0.506
 7351ION    CL-11095   5.067   2.899   9.417
 7352ION    CL-11096  10.489   9.377   9.516
 7353ION    CL-11097   4.206   3.700   3.696
 7354ION    CL-11098   5.847   7.815   1.157
 7355ION    CL-11099   2.514   4.708   0.201
 7356ION    CL-11100   3.153   5.168   8.867
 7357ION    CL-11101   4.853   4.560  10.701
 7358ION    CL-11102   7.191   8.351   1.761
 7359ION    CL-11103   4.016   2.358  11.299
 7360ION    CL-11104   1.190   9.136  10.133
 7361ION    CL-11105   6.752   9.974   8.543
 7362ION    CL-11106   7.989   4.509   1.391
 7363ION    CL-11107   0.247   9.913   0.446
 7364ION    CL-11108   2.597   6.477  11.911
 7365ION    CL-11109   8.005   6.155   9.514
 7366ION    CL-11110   1.351   8.660   3.416
 7367ION    CL-11111   9.284   5.059   8.711
 7368ION    CL-11112   0.635   5.151  10.894
 7369ION    CL-11113   5.199   3.464   4.074
 7370ION    CL-11114   6.944   7.954   0.376
 7371ION    CL-11115   5.856   9.678   1.823
 7372ION    CL-11116   4.025   5.068  10.937
 7373ION    CL-11117   3.489   6.866   2.975
 7374ION    CL-11118   0.560   1.153   0.531
 7375ION    CL-11119   8.469   8.196  10.993
 7376ION    CL-11120   8.912   6.939  10.764
 7377ION    CL-11121   8.472  10.097   3.075
 7378ION    CL-11122   4.203   2.296   9.382
 7379ION    CL-11123   2.956   0.856   8.984
 7380ION    CL-11124   2.224   2.885   1.524
 7381ION    CL-11125   1.327   9.795  11.952
  10.50000  10.50000  12.00000
